DMPC in SPC/E
14215
    1DMPC    C1    1   5.458   2.141   2.003
    1DMPC    C2    2   5.344   2.348   1.988
    1DMPC    C3    3   5.443   2.278   2.195
    1DMPC    N4    4   5.459   2.280   2.049
    1DMPC    C5    5   5.588   2.342   2.008
    1DMPC    C6    6   5.616   2.490   2.045
    1DMPC   OS7    7   0.097   2.531   2.012
    1DMPC    P8    8   0.122   2.684   2.040
    1DMPC   OM9    9   0.101   2.748   1.910
    1DMPC  OM10   10   0.044   2.725   2.157
    1DMPC  OS11   11   0.275   2.683   2.073
    1DMPC   C12   12   0.303   2.633   2.204
    1DMPC   C13   13   0.450   2.649   2.247
    1DMPC  OS14   14   0.491   2.561   2.356
    1DMPC   C15   15   0.624   2.536   2.374
    1DMPC   O16   16   0.713   2.572   2.296
    1DMPC   C17   17   0.647   2.458   2.503
    1DMPC   C18   18   0.652   2.307   2.480
    1DMPC   C19   19   0.688   2.235   2.610
    1DMPC   C20   20   0.701   2.083   2.590
    1DMPC   C21   21   0.742   2.014   2.720
    1DMPC   C22   22   0.883   2.055   2.761
    1DMPC   C23   23   0.924   1.990   2.894
    1DMPC   C24   24   1.064   2.034   2.935
    1DMPC   C25   25   1.103   1.979   3.072
    1DMPC   C26   26   1.244   2.024   3.111
    1DMPC   C27   27   1.284   1.972   3.249
    1DMPC   C28   28   1.205   2.042   3.360
    1DMPC   C29   29   1.248   1.991   3.498
    1DMPC   C30   30   0.473   2.800   2.269
    1DMPC  OS31   31   0.383   2.867   2.359
    1DMPC   C32   32   0.419   2.992   2.398
    1DMPC   O33   33   0.523   3.049   2.365
    1DMPC   C34   34   0.310   3.056   2.483
    1DMPC   C35   35   0.358   3.189   2.543
    1DMPC   C36   36   0.424   3.170   2.681
    1DMPC   C37   37   0.315   3.139   2.784
    1DMPC   C38   38   0.367   3.139   2.928
    1DMPC   C39   39   0.248   3.125   3.023
    1DMPC   C40   40   0.289   3.137   3.170
    1DMPC   C41   41   0.164   3.138   3.258
    1DMPC   C42   42   0.195   3.156   3.407
    1DMPC   C43   43   0.258   3.030   3.468
    1DMPC   C44   44   0.275   3.049   3.619
    1DMPC   C45   45   0.331   2.923   3.685
    1DMPC   C46   46   0.344   2.941   3.836
    2DMPC    C1   47   0.532   3.195   1.791
    2DMPC    C2   48   0.532   3.232   2.027
    2DMPC    C3   49   0.414   3.381   1.880
    2DMPC    N4   50   0.535   3.298   1.895
    2DMPC    C5   51   0.659   3.377   1.877
    2DMPC    C6   52   0.686   3.495   1.973
    2DMPC   OS7   53   0.811   3.560   1.952
    2DMPC    P8   54   0.811   3.705   2.012
    2DMPC   OM9   55   0.923   3.771   1.944
    2DMPC  OM10   56   0.674   3.757   2.002
    2DMPC  OS11   57   0.847   3.667   2.160
    2DMPC   C12   58   0.985   3.682   2.190
    2DMPC   C13   59   1.017   3.678   2.340
    2DMPC  OS14   60   1.152   3.724   2.371
    2DMPC   C15   61   1.161   3.856   2.403
    2DMPC   O16   62   1.089   3.940   2.348
    2DMPC   C17   63   1.295   3.888   2.466
    2DMPC   C18   64   1.273   3.959   2.600
    2DMPC   C19   65   1.405   4.001   2.664
    2DMPC   C20   66   1.382   4.054   2.806
    2DMPC   C21   67   1.302   4.184   2.808
    2DMPC   C22   68   1.270   4.224   2.952
    2DMPC   C23   69   1.192   4.356   2.957
    2DMPC   C24   70   1.150   4.388   3.101
    2DMPC   C25   71   1.272   4.414   3.190
    2DMPC   C26   72   1.228   4.443   3.334
    2DMPC   C27   73   1.349   4.466   3.425
    2DMPC   C28   74   1.423   4.594   3.388
    2DMPC   C29   75   1.542   4.617   3.481
    2DMPC   C30   76   0.979   3.536   2.389
    2DMPC  OS31   77   0.983   3.519   2.532
    2DMPC   C32   78   0.907   3.419   2.585
    2DMPC   O33   79   0.816   3.360   2.525
    2DMPC   C34   80   0.929   3.414   2.735
    2DMPC   C35   81   0.826   3.325   2.806
    2DMPC   C36   82   0.840   3.344   2.958
    2DMPC   C37   83   0.743   3.254   3.036
    2DMPC   C38   84   0.752   3.286   3.185
    2DMPC   C39   85   0.663   3.193   3.268
    2DMPC   C40   86   0.669   3.230   3.416
    2DMPC   C41   87   0.811   3.212   3.471
    2DMPC   C42   88   0.821   3.259   3.616
    2DMPC   C43   89   0.755   3.161   3.713
    2DMPC   C44   90   0.764   3.216   3.856
    2DMPC   C45   91   0.716   3.113   3.959
    2DMPC   C46   92   0.817   2.999   3.973
    3DMPC    C1   93   3.118   1.147   2.012
    3DMPC    C2   94   3.327   1.217   1.929
    3DMPC    C3   95   3.146   1.187   1.777
    3DMPC    N4   96   3.209   1.134   1.898
    3DMPC    C5   97   3.254   0.994   1.880
    3DMPC    C6   98   3.153   0.881   1.849
    3DMPC   OS7   99   3.063   0.848   1.955
    3DMPC    P8  100   2.978   0.721   1.923
    3DMPC   OM9  101   2.882   0.769   1.821
    3DMPC  OM10  102   3.076   0.614   1.900
    3DMPC  OS11  103   2.907   0.704   2.062
    3DMPC   C12  104   2.791   0.785   2.074
    3DMPC   C13  105   2.754   0.827   2.218
    3DMPC  OS14  106   2.846   0.921   2.280
    3DMPC   C15  107   2.837   1.054   2.254
    3DMPC   O16  108   2.779   1.101   2.155
    3DMPC   C17  109   2.928   1.132   2.346
    3DMPC   C18  110   2.880   1.121   2.491
    3DMPC   C19  111   2.739   1.179   2.501
    3DMPC   C20  112   2.686   1.181   2.644
    3DMPC   C21  113   2.755   1.291   2.724
    3DMPC   C22  114   2.691   1.306   2.862
    3DMPC   C23  115   2.756   1.421   2.939
    3DMPC   C24  116   2.689   1.439   3.075
    3DMPC   C25  117   2.710   1.316   3.162
    3DMPC   C26  118   2.650   1.337   3.301
    3DMPC   C27  119   2.668   1.213   3.388
    3DMPC   C28  120   2.609   1.235   3.527
    3DMPC   C29  121   2.626   1.111   3.614
    3DMPC   C30  122   2.745   0.698   2.302
    3DMPC  OS31  123   2.628   0.614   2.288
    3DMPC   C32  124   2.619   0.529   2.395
    3DMPC   O33  125   2.707   0.520   2.480
    3DMPC   C34  126   2.493   0.443   2.387
    3DMPC   C35  127   2.419   0.437   2.520
    3DMPC   C36  128   2.483   0.339   2.619
    3DMPC   C37  129   2.414   0.347   2.756
    3DMPC   C38  130   2.476   0.247   2.854
    3DMPC   C39  131   2.410   0.257   2.991
    3DMPC   C40  132   2.470   0.154   3.087
    3DMPC   C41  133   2.405   0.162   3.225
    3DMPC   C42  134   2.462   0.055   3.318
    3DMPC   C43  135   2.401   0.063   3.458
    3DMPC   C44  136   2.451   0.186   3.533
    3DMPC   C45  137   2.599   0.172   3.570
    3DMPC   C46  138   2.650   0.296   3.644
    4DMPC    C1  139   2.743   1.371   1.705
    4DMPC    C2  140   2.581   1.465   1.854
    4DMPC    C3  141   2.513   1.364   1.651
    4DMPC    N4  142   2.617   1.446   1.713
    4DMPC    C5  143   2.626   1.575   1.639
    4DMPC    C6  144   2.723   1.688   1.684
    4DMPC   OS7  145   2.690   1.749   1.808
    4DMPC    P8  146   2.767   1.884   1.836
    4DMPC   OM9  147   2.806   1.947   1.709
    4DMPC  OM10  148   2.685   1.956   1.934
    4DMPC  OS11  149   2.895   1.834   1.912
    4DMPC   C12  150   2.858   1.774   2.036
    4DMPC   C13  151   2.965   1.765   2.145
    4DMPC  OS14  152   2.923   1.674   2.251
    4DMPC   C15  153   3.023   1.605   2.314
    4DMPC   O16  154   3.136   1.592   2.264
    4DMPC   C17  155   2.971   1.531   2.435
    4DMPC   C18  156   2.941   1.630   2.548
    4DMPC   C19  157   3.072   1.685   2.604
    4DMPC   C20  158   3.048   1.787   2.715
    4DMPC   C21  159   3.181   1.828   2.778
    4DMPC   C22  160   3.162   1.926   2.893
    4DMPC   C23  161   3.296   1.945   2.965
    4DMPC   C24  162   3.338   1.812   3.027
    4DMPC   C25  163   3.475   1.820   3.095
    4DMPC   C26  164   3.511   1.686   3.158
    4DMPC   C27  165   3.530   1.578   3.051
    4DMPC   C28  166   3.573   1.446   3.115
    4DMPC   C29  167   3.605   1.340   3.009
    4DMPC   C30  168   2.993   1.912   2.187
    4DMPC  OS31  169   3.084   1.933   2.296
    4DMPC   C32  170   3.214   1.964   2.269
    4DMPC   O33  171   3.261   1.979   2.155
    4DMPC   C34  172   3.291   1.980   2.399
    4DMPC   C35  173   3.424   2.052   2.377
    4DMPC   C36  174   3.500   2.067   2.509
    4DMPC   C37  175   3.563   1.935   2.555
    4DMPC   C38  176   3.643   1.956   2.683
    4DMPC   C39  177   3.720   1.829   2.722
    4DMPC   C40  178   3.794   1.847   2.854
    4DMPC   C41  179   3.870   1.720   2.892
    4DMPC   C42  180   3.919   1.727   3.038
    4DMPC   C43  181   4.030   1.830   3.057
    4DMPC   C44  182   4.067   1.840   3.206
    4DMPC   C45  183   4.124   1.708   3.258
    4DMPC   C46  184   4.156   1.717   3.407
    5DMPC    C1  185   3.993   1.034   2.388
    5DMPC    C2  186   3.764   1.085   2.389
    5DMPC    C3  187   3.831   0.861   2.420
    5DMPC    N4  188   3.861   0.984   2.347
    5DMPC    C5  189   3.852   0.967   2.200
    5DMPC    C6  190   3.954   0.876   2.126
    5DMPC   OS7  191   3.947   0.738   2.161
    5DMPC    P8  192   4.059   0.652   2.093
    5DMPC   OM9  193   4.022   0.511   2.105
    5DMPC  OM10  194   4.110   0.708   1.967
    5DMPC  OS11  195   4.172   0.684   2.199
    5DMPC   C12  196   4.176   0.591   2.307
    5DMPC   C13  197   4.284   0.629   2.409
    5DMPC  OS14  198   4.334   0.517   2.487
    5DMPC   C15  199   4.431   0.438   2.435
    5DMPC   O16  200   4.492   0.463   2.330
    5DMPC   C17  201   4.464   0.325   2.532
    5DMPC   C18  202   4.336   0.260   2.583
    5DMPC   C19  203   4.364   0.161   2.697
    5DMPC   C20  204   4.417   0.234   2.821
    5DMPC   C21  205   4.413   0.143   2.944
    5DMPC   C22  206   4.463   0.217   3.068
    5DMPC   C23  207   4.441   0.135   3.195
    5DMPC   C24  208   4.292   0.126   3.229
    5DMPC   C25  209   4.269   0.056   3.363
    5DMPC   C26  210   4.121   0.053   3.400
    5DMPC   C27  211   4.042   5.534   3.308
    5DMPC   C28  212   3.893   5.533   3.345
    5DMPC   C29  213   3.872   5.470   3.483
    5DMPC   C30  214   4.227   0.747   2.489
    5DMPC  OS31  215   4.107   0.721   2.564
    5DMPC   C32  216   4.112   0.764   2.693
    5DMPC   O33  217   4.174   0.864   2.728
    5DMPC   C34  218   4.000   0.703   2.776
    5DMPC   C35  219   4.060   0.640   2.901
    5DMPC   C36  220   4.126   0.507   2.866
    5DMPC   C37  221   4.025   0.392   2.876
    5DMPC   C38  222   4.015   0.344   3.021
    5DMPC   C39  223   3.906   0.238   3.038
    5DMPC   C40  224   3.768   0.303   3.054
    5DMPC   C41  225   3.660   0.198   3.076
    5DMPC   C42  226   3.527   0.263   3.113
    5DMPC   C43  227   3.536   0.326   3.253
    5DMPC   C44  228   3.407   0.399   3.289
    5DMPC   C45  229   3.388   0.522   3.200
    5DMPC   C46  230   3.261   0.599   3.238
    6DMPC    C1  231   4.115   3.286   1.536
    6DMPC    C2  232   4.139   3.283   1.775
    6DMPC    C3  233   4.140   3.489   1.657
    6DMPC    N4  234   4.182   3.349   1.651
    6DMPC    C5  235   4.330   3.348   1.639
    6DMPC    C6  236   4.404   3.215   1.614
    6DMPC   OS7  237   4.398   3.116   1.717
    6DMPC    P8  238   4.380   2.975   1.649
    6DMPC   OM9  239   4.479   2.972   1.540
    6DMPC  OM10  240   4.235   2.973   1.627
    6DMPC  OS11  241   4.425   2.878   1.763
    6DMPC   C12  242   4.327   2.867   1.866
    6DMPC   C13  243   4.323   2.729   1.934
    6DMPC  OS14  244   4.212   2.717   2.029
    6DMPC   C15  245   4.180   2.593   2.076
    6DMPC   O16  246   4.229   2.488   2.032
    6DMPC   C17  247   4.073   2.599   2.183
    6DMPC   C18  248   4.130   2.548   2.316
    6DMPC   C19  249   4.226   2.653   2.375
    6DMPC   C20  250   4.304   2.599   2.494
    6DMPC   C21  251   4.410   2.498   2.449
    6DMPC   C22  252   4.506   2.465   2.563
    6DMPC   C23  253   4.437   2.383   2.672
    6DMPC   C24  254   4.533   2.358   2.789
    6DMPC   C25  255   4.656   2.279   2.743
    6DMPC   C26  256   4.747   2.244   2.861
    6DMPC   C27  257   4.868   2.164   2.813
    6DMPC   C28  258   4.955   2.120   2.931
    6DMPC   C29  259   5.019   2.240   3.001
    6DMPC   C30  260   4.466   2.702   1.986
    6DMPC  OS31  261   4.522   2.796   2.080
    6DMPC   C32  262   4.657   2.789   2.100
    6DMPC   O33  263   4.734   2.727   2.026
    6DMPC   C34  264   4.701   2.879   2.214
    6DMPC   C35  265   4.636   2.832   2.344
    6DMPC   C36  266   4.704   2.892   2.468
    6DMPC   C37  267   4.637   2.835   2.593
    6DMPC   C38  268   4.712   2.871   2.722
    6DMPC   C39  269   4.641   2.807   2.841
    6DMPC   C40  270   4.713   2.835   2.973
    6DMPC   C41  271   4.636   2.771   3.089
    6DMPC   C42  272   4.639   2.619   3.079
    6DMPC   C43  273   4.549   2.554   3.184
    6DMPC   C44  274   4.606   2.568   3.325
    6DMPC   C45  275   4.728   2.478   3.344
    6DMPC   C46  276   4.781   2.488   3.488
    7DMPC    C1  277   0.510   0.082   1.584
    7DMPC    C2  278   0.385   0.218   1.437
    7DMPC    C3  279   0.545   0.319   1.579
    7DMPC    N4  280   0.518   0.200   1.497
    7DMPC    C5  281   0.617   0.182   1.389
    7DMPC    C6  282   0.768   0.167   1.423
    7DMPC   OS7  283   0.831   0.288   1.465
    7DMPC    P8  284   0.982   0.267   1.506
    7DMPC   OM9  285   1.033   0.143   1.446
    7DMPC  OM10  286   1.045   0.397   1.481
    7DMPC  OS11  287   0.957   0.242   1.658
    7DMPC   C12  288   0.956   0.362   1.736
    7DMPC   C13  289   0.895   0.341   1.876
    7DMPC  OS14  290   0.886   0.465   1.952
    7DMPC   C15  291   0.774   0.480   2.027
    7DMPC   O16  292   0.662   0.448   1.984
    7DMPC   C17  293   0.797   0.585   2.134
    7DMPC   C18  294   0.733   0.541   2.265
    7DMPC   C19  295   0.734   0.654   2.367
    7DMPC   C20  296   0.669   0.608   2.497
    7DMPC   C21  297   0.658   0.723   2.597
    7DMPC   C22  298   0.589   0.679   2.725
    7DMPC   C23  299   0.673   0.578   2.803
    7DMPC   C24  300   0.604   0.541   2.934
    7DMPC   C25  301   0.593   0.664   3.024
    7DMPC   C26  302   0.524   0.631   3.156
    7DMPC   C27  303   0.378   0.593   3.133
    7DMPC   C28  304   0.308   0.565   3.266
    7DMPC   C29  305   0.163   0.524   3.244
    7DMPC   C30  306   0.980   0.233   1.946
    7DMPC  OS31  307   0.926   0.192   2.073
    7DMPC   C32  308   1.013   0.156   2.170
    7DMPC   O33  309   1.133   0.133   2.152
    7DMPC   C34  310   0.938   0.130   2.300
    7DMPC   C35  311   1.030   0.138   2.421
    7DMPC   C36  312   0.953   0.101   2.548
    7DMPC   C37  313   0.849   0.208   2.583
    7DMPC   C38  314   0.775   0.169   2.711
    7DMPC   C39  315   0.677   0.054   2.686
    7DMPC   C40  316   0.630   5.567   2.818
    7DMPC   C41  317   0.560   0.097   2.905
    7DMPC   C42  318   0.526   0.036   3.042
    7DMPC   C43  319   0.474   0.143   3.138
    7DMPC   C44  320   0.449   0.083   3.276
    7DMPC   C45  321   0.404   0.191   3.375
    7DMPC   C46  322   0.384   0.132   3.515
    8DMPC    C1  323   1.272   1.977   1.612
    8DMPC    C2  324   1.337   2.140   1.447
    8DMPC    C3  325   1.117   2.055   1.450
    8DMPC    N4  326   1.257   2.019   1.471
    8DMPC    C5  327   1.294   1.912   1.376
    8DMPC    C6  328   1.435   1.846   1.381
    8DMPC   OS7  329   1.456   1.752   1.487
    8DMPC    P8  330   1.602   1.691   1.477
    8DMPC   OM9  331   1.590   1.558   1.417
    8DMPC  OM10  332   1.695   1.792   1.425
    8DMPC  OS11  333   1.633   1.675   1.629
    8DMPC   C12  334   1.575   1.558   1.688
    8DMPC   C13  335   1.631   1.533   1.830
    8DMPC  OS14  336   1.599   1.402   1.884
    8DMPC   C15  337   1.705   1.338   1.941
    8DMPC   O16  338   1.820   1.382   1.931
    8DMPC   C17  339   1.666   1.204   2.001
    8DMPC   C18  340   1.746   1.174   2.128
    8DMPC   C19  341   1.691   1.252   2.247
    8DMPC   C20  342   1.758   1.208   2.378
    8DMPC   C21  343   1.900   1.261   2.391
    8DMPC   C22  344   1.964   1.210   2.521
    8DMPC   C23  345   1.892   1.264   2.645
    8DMPC   C24  346   1.927   1.411   2.672
    8DMPC   C25  347   1.838   1.465   2.784
    8DMPC   C26  348   1.871   1.611   2.819
    8DMPC   C27  349   2.000   1.620   2.902
    8DMPC   C28  350   2.024   1.765   2.946
    8DMPC   C29  351   2.147   1.775   3.037
    8DMPC   C30  352   1.593   1.654   1.917
    8DMPC  OS31  353   1.453   1.690   1.924
    8DMPC   C32  354   1.431   1.814   1.978
    8DMPC   O33  355   1.519   1.899   1.993
    8DMPC   C34  356   1.283   1.840   1.992
    8DMPC   C35  357   1.242   1.847   2.140
    8DMPC   C36  358   1.254   1.710   2.207
    8DMPC   C37  359   1.199   1.714   2.350
    8DMPC   C38  360   1.047   1.731   2.350
    8DMPC   C39  361   0.992   1.727   2.493
    8DMPC   C40  362   1.016   1.590   2.555
    8DMPC   C41  363   0.960   1.582   2.697
    8DMPC   C42  364   0.987   1.445   2.759
    8DMPC   C43  365   0.926   1.435   2.899
    8DMPC   C44  366   0.997   1.528   2.997
    8DMPC   C45  367   0.931   1.523   3.135
    8DMPC   C46  368   0.948   1.384   3.198
    9DMPC    C1  369   5.485   0.962   1.464
    9DMPC    C2  370   5.381   1.157   1.377
    9DMPC    C3  371   5.371   1.114   1.610
    9DMPC    N4  372   5.456   1.103   1.491
    9DMPC    C5  373   5.581   1.182   1.507
    9DMPC    C6  374   0.027   1.144   1.621
    9DMPC   OS7  375   0.140   1.231   1.633
    9DMPC    P8  376   0.258   1.165   1.714
    9DMPC   OM9  377   0.251   1.020   1.694
    9DMPC  OM10  378   0.376   1.242   1.673
    9DMPC  OS11  379   0.215   1.198   1.860
    9DMPC   C12  380   0.239   1.335   1.895
    9DMPC   C13  381   0.168   1.375   2.025
    9DMPC  OS14  382   0.182   1.517   2.052
    9DMPC   C15  383   0.066   1.586   2.071
    9DMPC   O16  384   5.606   1.541   2.041
    9DMPC   C17  385   0.097   1.732   2.101
    9DMPC   C18  386   5.650   1.791   2.202
    9DMPC   C19  387   0.027   1.738   2.342
    9DMPC   C20  388   5.579   1.795   2.443
    9DMPC   C21  389   5.607   1.744   2.584
    9DMPC   C22  390   5.502   1.798   2.681
    9DMPC   C23  391   5.521   1.742   2.822
    9DMPC   C24  392   5.404   1.780   2.912
    9DMPC   C25  393   5.274   1.726   2.853
    9DMPC   C26  394   5.156   1.741   2.950
    9DMPC   C27  395   5.167   1.639   3.063
    9DMPC   C28  396   5.048   1.649   3.159
    9DMPC   C29  397   5.057   1.542   3.268
    9DMPC   C30  398   0.222   1.280   2.133
    9DMPC  OS31  399   0.156   1.281   2.261
    9DMPC   C32  400   0.153   1.162   2.326
    9DMPC   O33  401   0.177   1.053   2.272
    9DMPC   C34  402   0.106   1.182   2.469
    9DMPC   C35  403   0.122   1.330   2.504
    9DMPC   C36  404   0.148   1.355   2.653
    9DMPC   C37  405   0.024   1.336   2.740
    9DMPC   C38  406   0.059   1.376   2.883
    9DMPC   C39  407   5.589   1.382   2.975
    9DMPC   C40  408   5.630   1.441   3.110
    9DMPC   C41  409   5.509   1.475   3.196
    9DMPC   C42  410   5.552   1.548   3.323
    9DMPC   C43  411   5.431   1.598   3.402
    9DMPC   C44  412   5.472   1.672   3.528
    9DMPC   C45  413   5.350   1.724   3.604
    9DMPC   C46  414   5.392   1.801   3.729
   10DMPC    C1  415   1.929   2.714   2.191
   10DMPC    C2  416   1.820   2.532   2.296
   10DMPC    C3  417   2.046   2.507   2.224
   10DMPC    N4  418   1.917   2.568   2.191
   10DMPC    C5  419   1.863   2.519   2.062
   10DMPC    C6  420   1.952   2.527   1.935
   10DMPC   OS7  421   1.986   2.658   1.894
   10DMPC    P8  422   2.135   2.662   1.849
   10DMPC   OM9  423   2.209   2.628   1.971
   10DMPC  OM10  424   2.145   2.576   1.730
   10DMPC  OS11  425   2.140   2.814   1.811
   10DMPC   C12  426   2.218   2.887   1.906
   10DMPC   C13  427   2.233   3.037   1.877
   10DMPC  OS14  428   2.346   3.093   1.950
   10DMPC   C15  429   2.397   3.213   1.914
   10DMPC   O16  430   2.349   3.285   1.825
   10DMPC   C17  431   2.523   3.246   1.993
   10DMPC   C18  432   2.522   3.193   2.136
   10DMPC   C19  433   2.648   3.240   2.208
   10DMPC   C20  434   2.657   3.194   2.353
   10DMPC   C21  435   2.782   3.255   2.417
   10DMPC   C22  436   2.797   3.219   2.565
   10DMPC   C23  437   2.915   3.296   2.624
   10DMPC   C24  438   2.933   3.269   2.773
   10DMPC   C25  439   3.036   3.366   2.832
   10DMPC   C26  440   3.053   3.343   2.982
   10DMPC   C27  441   3.145   3.448   3.044
   10DMPC   C28  442   3.077   3.586   3.044
   10DMPC   C29  443   3.164   3.691   3.113
   10DMPC   C30  444   2.094   3.100   1.897
   10DMPC  OS31  445   2.032   3.079   2.025
   10DMPC   C32  446   1.910   3.136   2.045
   10DMPC   O33  447   1.835   3.172   1.953
   10DMPC   C34  448   1.864   3.115   2.188
   10DMPC   C35  449   1.778   3.232   2.235
   10DMPC   C36  450   1.719   3.205   2.374
   10DMPC   C37  451   1.829   3.198   2.480
   10DMPC   C38  452   1.770   3.174   2.619
   10DMPC   C39  453   1.713   3.032   2.631
   10DMPC   C40  454   1.661   3.007   2.773
   10DMPC   C41  455   1.777   3.009   2.873
   10DMPC   C42  456   1.727   2.986   3.016
   10DMPC   C43  457   1.843   2.991   3.116
   10DMPC   C44  458   1.939   2.874   3.095
   10DMPC   C45  459   2.056   2.881   3.193
   10DMPC   C46  460   2.151   2.762   3.174
   11DMPC    C1  461   2.128   1.919   1.688
   11DMPC    C2  462   1.910   2.013   1.682
   11DMPC    C3  463   1.998   1.920   1.484
   11DMPC    N4  464   1.994   1.905   1.631
   11DMPC    C5  465   1.931   1.778   1.674
   11DMPC    C6  466   1.971   1.644   1.608
   11DMPC   OS7  467   2.103   1.594   1.632
   11DMPC    P8  468   2.129   1.460   1.554
   11DMPC   OM9  469   2.005   1.411   1.491
   11DMPC  OM10  470   2.251   1.482   1.476
   11DMPC  OS11  471   2.167   1.370   1.677
   11DMPC   C12  472   2.065   1.277   1.715
   11DMPC   C13  473   2.108   1.182   1.828
   11DMPC  OS14  474   2.012   1.076   1.853
   11DMPC   C15  475   2.065   0.960   1.900
   11DMPC   O16  476   2.174   0.919   1.858
   11DMPC   C17  477   1.959   0.870   1.961
   11DMPC   C18  478   2.023   0.784   2.069
   11DMPC   C19  479   2.062   0.871   2.189
   11DMPC   C20  480   2.147   0.793   2.289
   11DMPC   C21  481   2.180   0.883   2.409
   11DMPC   C22  482   2.279   0.816   2.504
   11DMPC   C23  483   2.303   0.903   2.628
   11DMPC   C24  484   2.178   0.905   2.716
   11DMPC   C25  485   2.152   0.767   2.775
   11DMPC   C26  486   2.023   0.764   2.856
   11DMPC   C27  487   1.998   0.623   2.911
   11DMPC   C28  488   2.101   0.589   3.019
   11DMPC   C29  489   2.074   0.670   3.146
   11DMPC   C30  490   2.138   1.275   1.948
   11DMPC  OS31  491   2.197   1.216   2.066
   11DMPC   C32  492   2.333   1.208   2.073
   11DMPC   O33  493   2.410   1.227   1.978
   11DMPC   C34  494   2.376   1.154   2.208
   11DMPC   C35  495   2.431   1.266   2.297
   11DMPC   C36  496   2.319   1.356   2.350
   11DMPC   C37  497   2.376   1.464   2.442
   11DMPC   C38  498   2.266   1.556   2.495
   11DMPC   C39  499   2.326   1.666   2.583
   11DMPC   C40  500   2.379   1.609   2.714
   11DMPC   C41  501   2.458   1.715   2.792
   11DMPC   C42  502   2.591   1.743   2.721
   11DMPC   C43  503   2.677   1.843   2.798
   11DMPC   C44  504   2.621   1.984   2.790
   11DMPC   C45  505   2.715   2.084   2.859
   11DMPC   C46  506   2.660   2.226   2.850
   12DMPC    C1  507   0.649   1.106   1.365
   12DMPC    C2  508   0.585   0.874   1.359
   12DMPC    C3  509   0.421   1.047   1.375
   12DMPC    N4  510   0.555   1.006   1.417
   12DMPC    C5  511   0.554   1.001   1.565
   12DMPC    C6  512   0.673   0.949   1.647
   12DMPC   OS7  513   0.647   0.956   1.787
   12DMPC    P8  514   0.763   0.896   1.874
   12DMPC   OM9  515   0.710   0.885   2.010
   12DMPC  OM10  516   0.815   0.779   1.802
   12DMPC  OS11  517   0.871   1.008   1.867
   12DMPC   C12  518   0.984   0.967   1.945
   12DMPC   C13  519   1.108   1.052   1.915
   12DMPC  OS14  520   1.234   0.989   1.951
   12DMPC   C15  521   1.297   0.917   1.855
   12DMPC   O16  522   1.242   0.881   1.750
   12DMPC   C17  523   1.434   0.873   1.904
   12DMPC   C18  524   1.432   0.857   2.056
   12DMPC   C19  525   1.572   0.825   2.110
   12DMPC   C20  526   1.567   0.795   2.260
   12DMPC   C21  527   1.708   0.775   2.314
   12DMPC   C22  528   1.706   0.726   2.459
   12DMPC   C23  529   1.640   0.827   2.553
   12DMPC   C24  530   1.641   0.772   2.696
   12DMPC   C25  531   1.563   0.641   2.702
   12DMPC   C26  532   1.570   0.580   2.843
   12DMPC   C27  533   1.491   0.665   2.943
   12DMPC   C28  534   1.492   0.599   3.080
   12DMPC   C29  535   1.409   0.679   3.181
   12DMPC   C30  536   1.084   1.191   1.976
   12DMPC  OS31  537   1.090   1.193   2.120
   12DMPC   C32  538   1.117   1.313   2.178
   12DMPC   O33  539   1.083   1.422   2.132
   12DMPC   C34  540   1.159   1.288   2.322
   12DMPC   C35  541   1.290   1.208   2.321
   12DMPC   C36  542   1.310   1.127   2.449
   12DMPC   C37  543   1.349   1.211   2.570
   12DMPC   C38  544   1.361   1.118   2.692
   12DMPC   C39  545   1.415   1.189   2.816
   12DMPC   C40  546   1.418   1.090   2.933
   12DMPC   C41  547   1.488   1.150   3.055
   12DMPC   C42  548   1.637   1.168   3.028
   12DMPC   C43  549   1.711   1.217   3.153
   12DMPC   C44  550   1.859   1.240   3.122
   12DMPC   C45  551   1.931   1.108   3.094
   12DMPC   C46  552   1.949   1.027   3.223
   13DMPC    C1  553   3.091   1.845   1.592
   13DMPC    C2  554   3.193   1.771   1.798
   13DMPC    C3  555   3.323   1.801   1.603
   13DMPC    N4  556   3.209   1.854   1.678
   13DMPC    C5  557   3.238   1.995   1.715
   13DMPC    C6  558   3.134   2.078   1.794
   13DMPC   OS7  559   3.185   2.205   1.834
   13DMPC    P8  560   3.077   2.284   1.916
   13DMPC   OM9  561   2.993   2.345   1.812
   13DMPC  OM10  562   3.021   2.194   2.017
   13DMPC  OS11  563   3.174   2.392   1.979
   13DMPC   C12  564   3.250   2.343   2.090
   13DMPC   C13  565   3.372   2.432   2.121
   13DMPC  OS14  566   3.471   2.372   2.209
   13DMPC   C15  567   3.600   2.404   2.183
   13DMPC   O16  568   3.636   2.428   2.067
   13DMPC   C17  569   3.694   2.358   2.294
   13DMPC   C18  570   3.658   2.417   2.430
   13DMPC   C19  571   3.682   2.567   2.435
   13DMPC   C20  572   3.662   2.623   2.576
   13DMPC   C21  573   3.519   2.602   2.625
   13DMPC   C22  574   3.496   2.675   2.758
   13DMPC   C23  575   3.576   2.613   2.873
   13DMPC   C24  576   3.515   2.483   2.923
   13DMPC   C25  577   3.596   2.428   3.040
   13DMPC   C26  578   3.529   2.307   3.106
   13DMPC   C27  579   3.615   2.257   3.222
   13DMPC   C28  580   3.545   2.145   3.300
   13DMPC   C29  581   3.632   2.097   3.416
   13DMPC   C30  582   3.320   2.570   2.165
   13DMPC  OS31  583   3.241   2.578   2.286
   13DMPC   C32  584   3.236   2.703   2.340
   13DMPC   O33  585   3.284   2.803   2.286
   13DMPC   C34  586   3.153   2.707   2.467
   13DMPC   C35  587   3.110   2.850   2.499
   13DMPC   C36  588   3.016   2.854   2.619
   13DMPC   C37  589   2.889   2.776   2.586
   13DMPC   C38  590   2.786   2.779   2.699
   13DMPC   C39  591   2.671   2.684   2.665
   13DMPC   C40  592   2.561   2.688   2.772
   13DMPC   C41  593   2.611   2.636   2.907
   13DMPC   C42  594   2.497   2.641   3.009
   13DMPC   C43  595   2.546   2.604   3.149
   13DMPC   C44  596   2.648   2.708   3.198
   13DMPC   C45  597   2.685   2.685   3.345
   13DMPC   C46  598   2.567   2.721   3.436
   14DMPC    C1  599   3.841   2.800   1.822
   14DMPC    C2  600   3.753   2.803   1.599
   14DMPC    C3  601   3.986   2.770   1.635
   14DMPC    N4  602   3.867   2.841   1.683
   14DMPC    C5  603   3.895   2.987   1.676
   14DMPC    C6  604   3.784   3.087   1.717
   14DMPC   OS7  605   3.828   3.222   1.722
   14DMPC    P8  606   3.703   3.312   1.750
   14DMPC   OM9  607   3.612   3.304   1.635
   14DMPC  OM10  608   3.653   3.282   1.884
   14DMPC  OS11  609   3.774   3.453   1.744
   14DMPC   C12  610   3.810   3.495   1.875
   14DMPC   C13  611   3.867   3.638   1.885
   14DMPC  OS14  612   3.931   3.659   2.014
   14DMPC   C15  613   4.066   3.677   2.014
   14DMPC   O16  614   4.131   3.704   1.912
   14DMPC   C17  615   4.123   3.670   2.155
   14DMPC   C18  616   4.242   3.764   2.172
   14DMPC   C19  617   4.316   3.735   2.303
   14DMPC   C20  618   4.228   3.764   2.424
   14DMPC   C21  619   4.304   3.735   2.553
   14DMPC   C22  620   4.213   3.743   2.676
   14DMPC   C23  621   4.292   3.704   2.801
   14DMPC   C24  622   4.202   3.689   2.924
   14DMPC   C25  623   4.285   3.640   3.042
   14DMPC   C26  624   4.201   3.617   3.167
   14DMPC   C27  625   4.289   3.563   3.280
   14DMPC   C28  626   4.208   3.530   3.405
   14DMPC   C29  627   4.298   3.472   3.514
   14DMPC   C30  628   3.757   3.737   1.842
   14DMPC  OS31  629   3.623   3.707   1.889
   14DMPC   C32  630   3.563   3.803   1.965
   14DMPC   O33  631   3.564   3.923   1.935
   14DMPC   C34  632   3.453   3.738   2.047
   14DMPC   C35  633   3.437   3.809   2.182
   14DMPC   C36  634   3.359   3.724   2.283
   14DMPC   C37  635   3.349   3.797   2.417
   14DMPC   C38  636   3.276   3.713   2.522
   14DMPC   C39  637   3.254   3.794   2.650
   14DMPC   C40  638   3.384   3.815   2.729
   14DMPC   C41  639   3.423   3.687   2.803
   14DMPC   C42  640   3.540   3.712   2.898
   14DMPC   C43  641   3.566   3.589   2.986
   14DMPC   C44  642   3.675   3.617   3.089
   14DMPC   C45  643   3.693   3.498   3.184
   14DMPC   C46  644   3.799   3.527   3.290
   15DMPC    C1  645   3.121   3.393   1.739
   15DMPC    C2  646   3.349   3.426   1.799
   15DMPC    C3  647   3.292   3.303   1.600
   15DMPC    N4  648   3.254   3.331   1.740
   15DMPC    C5  649   3.247   3.207   1.821
   15DMPC    C6  650   3.372   3.116   1.833
   15DMPC   OS7  651   3.347   2.995   1.905
   15DMPC    P8  652   3.459   2.886   1.883
   15DMPC   OM9  653   3.406   2.766   1.947
   15DMPC  OM10  654   3.491   2.889   1.740
   15DMPC  OS11  655   3.577   2.951   1.962
   15DMPC   C12  656   3.577   2.923   2.102
   15DMPC   C13  657   3.664   3.025   2.178
   15DMPC  OS14  658   3.709   2.980   2.308
   15DMPC   C15  659   3.841   2.998   2.337
   15DMPC   O16  660   3.925   3.018   2.250
   15DMPC   C17  661   3.869   2.965   2.483
   15DMPC   C18  662   4.019   2.969   2.513
   15DMPC   C19  663   4.046   2.942   2.661
   15DMPC   C20  664   4.196   2.938   2.689
   15DMPC   C21  665   4.227   2.914   2.837
   15DMPC   C22  666   4.178   2.777   2.883
   15DMPC   C23  667   4.223   2.749   3.027
   15DMPC   C24  668   4.159   2.848   3.125
   15DMPC   C25  669   4.215   2.830   3.266
   15DMPC   C26  670   4.159   2.936   3.360
   15DMPC   C27  671   4.223   2.928   3.499
   15DMPC   C28  672   4.171   3.039   3.591
   15DMPC   C29  673   4.239   3.033   3.728
   15DMPC   C30  674   3.584   3.157   2.176
   15DMPC  OS31  675   3.457   3.150   2.244
   15DMPC   C32  676   3.372   3.255   2.234
   15DMPC   O33  677   3.375   3.340   2.145
   15DMPC   C34  678   3.255   3.238   2.330
   15DMPC   C35  679   3.303   3.204   2.471
   15DMPC   C36  680   3.381   3.320   2.533
   15DMPC   C37  681   3.419   3.291   2.678
   15DMPC   C38  682   3.507   3.166   2.690
   15DMPC   C39  683   3.553   3.148   2.834
   15DMPC   C40  684   3.435   3.128   2.929
   15DMPC   C41  685   3.482   3.118   3.074
   15DMPC   C42  686   3.552   2.984   3.100
   15DMPC   C43  687   3.613   2.981   3.241
   15DMPC   C44  688   3.733   3.075   3.249
   15DMPC   C45  689   3.795   3.075   3.389
   15DMPC   C46  690   3.705   3.145   3.490
   16DMPC    C1  691   4.866   2.931   1.547
   16DMPC    C2  692   4.711   2.764   1.616
   16DMPC    C3  693   4.765   2.944   1.762
   16DMPC    N4  694   4.819   2.852   1.661
   16DMPC    C5  695   4.927   2.766   1.716
   16DMPC    C6  696   5.065   2.827   1.753
   16DMPC   OS7  697   5.157   2.729   1.799
   16DMPC    P8  698   5.306   2.779   1.806
   16DMPC   OM9  699   5.326   2.874   1.695
   16DMPC  OM10  700   5.385   2.656   1.821
   16DMPC  OS11  701   5.295   2.858   1.942
   16DMPC   C12  702   5.298   2.771   2.055
   16DMPC   C13  703   5.270   2.840   2.189
   16DMPC  OS14  704   5.315   2.757   2.300
   16DMPC   C15  705   5.406   2.817   2.382
   16DMPC   O16  706   5.445   2.932   2.364
   16DMPC   C17  707   5.459   2.720   2.486
   16DMPC   C18  708   5.611   2.725   2.489
   16DMPC   C19  709   0.020   2.619   2.581
   16DMPC   C20  710   0.173   2.625   2.572
   16DMPC   C21  711   0.238   2.518   2.659
   16DMPC   C22  712   0.221   2.552   2.807
   16DMPC   C23  713   0.287   2.446   2.895
   16DMPC   C24  714   0.283   2.492   3.041
   16DMPC   C25  715   0.351   2.393   3.135
   16DMPC   C26  716   0.364   2.459   3.273
   16DMPC   C27  717   0.226   2.478   3.337
   16DMPC   C28  718   0.233   2.588   3.443
   16DMPC   C29  719   0.340   2.556   3.546
   16DMPC   C30  720   5.121   2.882   2.188
   16DMPC  OS31  721   5.071   2.953   2.303
   16DMPC   C32  722   5.102   3.085   2.315
   16DMPC   O33  723   5.166   3.150   2.232
   16DMPC   C34  724   5.040   3.145   2.440
   16DMPC   C35  725   5.088   3.073   2.566
   16DMPC   C36  726   5.048   3.153   2.690
   16DMPC   C37  727   5.093   3.082   2.818
   16DMPC   C38  728   5.079   3.175   2.938
   16DMPC   C39  729   5.125   3.107   3.067
   16DMPC   C40  730   5.137   3.209   3.180
   16DMPC   C41  731   5.001   3.272   3.212
   16DMPC   C42  732   5.016   3.372   3.327
   16DMPC   C43  733   4.881   3.432   3.366
   16DMPC   C44  734   4.901   3.529   3.483
   16DMPC   C45  735   4.770   3.594   3.525
   16DMPC   C46  736   4.795   3.695   3.637
   17DMPC    C1  737   4.888   1.694   1.903
   17DMPC    C2  738   4.968   1.486   1.983
   17DMPC    C3  739   5.103   1.614   1.836
   17DMPC    N4  740   5.009   1.622   1.948
   17DMPC    C5  741   5.070   1.684   2.068
   17DMPC    C6  742   5.112   1.834   2.070
   17DMPC   OS7  743   5.005   1.927   2.083
   17DMPC    P8  744   5.060   2.073   2.067
   17DMPC   OM9  745   5.175   2.089   2.156
   17DMPC  OM10  746   5.077   2.083   1.921
   17DMPC  OS11  747   4.933   2.154   2.112
   17DMPC   C12  748   4.931   2.176   2.254
   17DMPC   C13  749   4.829   2.284   2.293
   17DMPC  OS14  750   4.856   2.349   2.420
   17DMPC   C15  751   4.927   2.465   2.415
   17DMPC   O16  752   4.975   2.508   2.310
   17DMPC   C17  753   4.944   2.527   2.553
   17DMPC   C18  754   5.070   2.613   2.557
   17DMPC   C19  755   5.077   2.695   2.686
   17DMPC   C20  756   5.095   2.606   2.810
   17DMPC   C21  757   5.100   2.693   2.935
   17DMPC   C22  758   5.118   2.610   3.062
   17DMPC   C23  759   5.118   2.701   3.185
   17DMPC   C24  760   5.139   2.621   3.314
   17DMPC   C25  761   5.130   2.714   3.435
   17DMPC   C26  762   5.145   2.638   3.567
   17DMPC   C27  763   5.122   2.734   3.684
   17DMPC   C28  764   5.133   2.661   3.818
   17DMPC   C29  765   5.101   2.756   3.933
   17DMPC   C30  766   4.688   2.226   2.274
   17DMPC  OS31  767   4.647   2.121   2.364
   17DMPC   C32  768   4.515   2.086   2.358
   17DMPC   O33  769   4.435   2.133   2.276
   17DMPC   C34  770   4.478   1.984   2.465
   17DMPC   C35  771   4.600   1.931   2.541
   17DMPC   C36  772   4.556   1.836   2.653
   17DMPC   C37  773   4.484   1.912   2.765
   17DMPC   C38  774   4.428   1.817   2.871
   17DMPC   C39  775   4.539   1.746   2.949
   17DMPC   C40  776   4.479   1.645   3.048
   17DMPC   C41  777   4.587   1.566   3.122
   17DMPC   C42  778   4.654   1.650   3.231
   17DMPC   C43  779   4.561   1.672   3.350
   17DMPC   C44  780   4.629   1.752   3.461
   17DMPC   C45  781   4.653   1.897   3.419
   17DMPC   C46  782   4.521   1.974   3.407
   18DMPC    C1  783   1.956   4.479   1.702
   18DMPC    C2  784   1.945   4.634   1.523
   18DMPC    C3  785   1.762   4.613   1.672
   18DMPC    N4  786   1.867   4.538   1.602
   18DMPC    C5  787   1.810   4.437   1.508
   18DMPC    C6  788   1.743   4.306   1.558
   18DMPC   OS7  789   1.836   4.210   1.608
   18DMPC    P8  790   1.774   4.066   1.631
   18DMPC   OM9  791   1.638   4.058   1.577
   18DMPC  OM10  792   1.879   3.971   1.591
   18DMPC  OS11  793   1.761   4.061   1.787
   18DMPC   C12  794   1.890   4.063   1.848
   18DMPC   C13  795   1.897   4.007   1.991
   18DMPC  OS14  796   1.900   3.861   1.999
   18DMPC   C15  797   2.024   3.804   2.009
   18DMPC   O16  798   2.123   3.853   1.954
   18DMPC   C17  799   2.014   3.659   2.051
   18DMPC   C18  800   2.137   3.621   2.134
   18DMPC   C19  801   2.136   3.474   2.177
   18DMPC   C20  802   2.255   3.442   2.267
   18DMPC   C21  803   2.238   3.503   2.406
   18DMPC   C22  804   2.124   3.434   2.480
   18DMPC   C23  805   2.093   3.496   2.616
   18DMPC   C24  806   2.197   3.461   2.723
   18DMPC   C25  807   2.150   3.516   2.858
   18DMPC   C26  808   2.246   3.481   2.971
   18DMPC   C27  809   2.196   3.538   3.104
   18DMPC   C28  810   2.289   3.501   3.220
   18DMPC   C29  811   2.285   3.351   3.249
   18DMPC   C30  812   1.788   4.078   2.074
   18DMPC  OS31  813   1.784   4.038   2.212
   18DMPC   C32  814   1.697   3.937   2.243
   18DMPC   O33  815   1.592   3.915   2.183
   18DMPC   C34  816   1.732   3.881   2.380
   18DMPC   C35  817   1.674   3.740   2.398
   18DMPC   C36  818   1.736   3.671   2.519
   18DMPC   C37  819   1.703   3.746   2.648
   18DMPC   C38  820   1.769   3.681   2.769
   18DMPC   C39  821   1.742   3.762   2.896
   18DMPC   C40  822   1.815   3.704   3.017
   18DMPC   C41  823   1.790   3.790   3.140
   18DMPC   C42  824   1.871   3.743   3.261
   18DMPC   C43  825   1.845   3.834   3.382
   18DMPC   C44  826   1.925   3.787   3.503
   18DMPC   C45  827   1.900   3.876   3.625
   18DMPC   C46  828   1.957   4.016   3.603
   19DMPC    C1  829   0.424   2.384   1.625
   19DMPC    C2  830   0.344   2.449   1.413
   19DMPC    C3  831   0.433   2.231   1.443
   19DMPC    N4  832   0.353   2.336   1.506
   19DMPC    C5  833   0.214   2.292   1.535
   19DMPC    C6  834   0.183   2.166   1.621
   19DMPC   OS7  835   0.212   2.176   1.761
   19DMPC    P8  836   0.166   2.044   1.833
   19DMPC   OM9  837   0.021   2.033   1.810
   19DMPC  OM10  838   0.259   1.939   1.789
   19DMPC  OS11  839   0.192   2.094   1.979
   19DMPC   C12  840   0.311   2.042   2.038
   19DMPC   C13  841   0.406   2.148   2.096
   19DMPC  OS14  842   0.532   2.095   2.143
   19DMPC   C15  843   0.644   2.155   2.093
   19DMPC   O16  844   0.640   2.236   2.000
   19DMPC   C17  845   0.771   2.103   2.158
   19DMPC   C18  846   0.888   2.192   2.117
   19DMPC   C19  847   1.018   2.146   2.182
   19DMPC   C20  848   1.025   2.180   2.331
   19DMPC   C21  849   1.159   2.131   2.386
   19DMPC   C22  850   1.189   2.177   2.529
   19DMPC   C23  851   1.327   2.127   2.569
   19DMPC   C24  852   1.370   2.175   2.707
   19DMPC   C25  853   1.509   2.123   2.741
   19DMPC   C26  854   1.555   2.168   2.879
   19DMPC   C27  855   1.693   2.112   2.912
   19DMPC   C28  856   1.742   2.162   3.048
   19DMPC   C29  857   1.655   2.107   3.161
   19DMPC   C30  858   0.325   2.231   2.198
   19DMPC  OS31  859   0.264   2.162   2.308
   19DMPC   C32  860   0.161   2.227   2.368
   19DMPC   O33  861   0.091   2.311   2.311
   19DMPC   C34  862   0.120   2.155   2.496
   19DMPC   C35  863   0.242   2.117   2.579
   19DMPC   C36  864   0.199   2.048   2.709
   19DMPC   C37  865   0.321   1.998   2.787
   19DMPC   C38  866   0.278   1.919   2.910
   19DMPC   C39  867   0.224   2.010   3.020
   19DMPC   C40  868   0.178   1.927   3.140
   19DMPC   C41  869   0.146   2.017   3.260
   19DMPC   C42  870   0.095   1.934   3.377
   19DMPC   C43  871   0.079   2.021   3.502
   19DMPC   C44  872   5.626   2.130   3.480
   19DMPC   C45  873   5.613   2.219   3.603
   19DMPC   C46  874   5.515   2.334   3.577
   20DMPC    C1  875   1.854   2.962   1.565
   20DMPC    C2  876   1.734   2.756   1.565
   20DMPC    C3  877   1.618   2.966   1.591
   20DMPC    N4  878   1.740   2.891   1.624
   20DMPC    C5  879   1.762   2.884   1.771
   20DMPC    C6  880   1.650   2.823   1.859
   20DMPC   OS7  881   1.674   2.833   1.999
   20DMPC    P8  882   1.555   2.778   2.086
   20DMPC   OM9  883   1.473   2.686   2.005
   20DMPC  OM10  884   1.611   2.741   2.215
   20DMPC  OS11  885   1.480   2.917   2.096
   20DMPC   C12  886   1.439   2.943   2.230
   20DMPC   C13  887   1.367   3.077   2.251
   20DMPC  OS14  888   1.354   3.110   2.392
   20DMPC   C15  889   1.333   3.240   2.426
   20DMPC   O16  890   1.323   3.330   2.342
   20DMPC   C17  891   1.329   3.258   2.577
   20DMPC   C18  892   1.336   3.406   2.615
   20DMPC   C19  893   1.346   3.421   2.767
   20DMPC   C20  894   1.342   3.569   2.808
   20DMPC   C21  895   1.360   3.582   2.959
   20DMPC   C22  896   1.351   3.728   3.003
   20DMPC   C23  897   1.375   3.742   3.154
   20DMPC   C24  898   1.362   3.887   3.200
   20DMPC   C25  899   1.381   3.897   3.351
   20DMPC   C26  900   1.356   4.040   3.401
   20DMPC   C27  901   1.363   4.046   3.554
   20DMPC   C28  902   1.506   4.029   3.605
   20DMPC   C29  903   1.590   4.154   3.575
   20DMPC   C30  904   1.237   3.071   2.167
   20DMPC  OS31  905   1.146   2.963   2.198
   20DMPC   C32  906   1.052   2.990   2.294
   20DMPC   O33  907   1.021   3.105   2.324
   20DMPC   C34  908   0.967   2.867   2.322
   20DMPC   C35  909   0.859   2.896   2.426
   20DMPC   C36  910   0.920   2.905   2.566
   20DMPC   C37  911   0.813   2.928   2.673
   20DMPC   C38  912   0.720   2.807   2.684
   20DMPC   C39  913   0.632   2.816   2.808
   20DMPC   C40  914   0.719   2.804   2.933
   20DMPC   C41  915   0.637   2.805   3.062
   20DMPC   C42  916   0.730   2.793   3.182
   20DMPC   C43  917   0.652   2.788   3.314
   20DMPC   C44  918   0.749   2.777   3.432
   20DMPC   C45  919   0.674   2.769   3.565
   20DMPC   C46  920   0.771   2.755   3.682
   21DMPC    C1  921   2.469   2.415   2.042
   21DMPC    C2  922   2.434   2.423   1.806
   21DMPC    C3  923   2.654   2.403   1.890
   21DMPC    N4  924   2.515   2.362   1.912
   21DMPC    C5  925   2.510   2.215   1.905
   21DMPC    C6  926   2.384   2.139   1.954
   21DMPC   OS7  927   2.264   2.171   1.884
   21DMPC    P8  928   2.141   2.166   1.982
   21DMPC   OM9  929   2.178   2.243   2.102
   21DMPC  OM10  930   2.028   2.207   1.898
   21DMPC  OS11  931   2.136   2.012   2.008
   21DMPC   C12  932   2.089   1.982   2.139
   21DMPC   C13  933   2.098   1.833   2.174
   21DMPC  OS14  934   2.019   1.792   2.289
   21DMPC   C15  935   1.898   1.737   2.260
   21DMPC   O16  936   1.855   1.732   2.144
   21DMPC   C17  937   1.820   1.692   2.383
   21DMPC   C18  938   1.679   1.651   2.341
   21DMPC   C19  939   1.598   1.593   2.458
   21DMPC   C20  940   1.557   1.699   2.559
   21DMPC   C21  941   1.476   1.635   2.672
   21DMPC   C22  942   1.429   1.739   2.774
   21DMPC   C23  943   1.353   1.673   2.889
   21DMPC   C24  944   1.448   1.596   2.982
   21DMPC   C25  945   1.533   1.692   3.066
   21DMPC   C26  946   1.634   1.615   3.150
   21DMPC   C27  947   1.720   1.710   3.234
   21DMPC   C28  948   1.834   1.636   3.303
   21DMPC   C29  949   1.782   1.537   3.408
   21DMPC   C30  950   2.247   1.794   2.172
   21DMPC  OS31  951   2.337   1.884   2.239
   21DMPC   C32  952   2.467   1.845   2.246
   21DMPC   O33  953   2.510   1.737   2.204
   21DMPC   C34  954   2.551   1.951   2.315
   21DMPC   C35  955   2.464   2.057   2.382
   21DMPC   C36  956   2.552   2.167   2.441
   21DMPC   C37  957   2.470   2.276   2.512
   21DMPC   C38  958   2.383   2.353   2.413
   21DMPC   C39  959   2.335   2.485   2.474
   21DMPC   C40  960   2.235   2.466   2.588
   21DMPC   C41  961   2.199   2.602   2.649
   21DMPC   C42  962   2.101   2.590   2.765
   21DMPC   C43  963   1.959   2.562   2.716
   21DMPC   C44  964   1.860   2.564   2.834
   21DMPC   C45  965   1.716   2.547   2.786
   21DMPC   C46  966   1.618   2.559   2.903
   22DMPC    C1  967   2.297   3.974   1.533
   22DMPC    C2  968   2.155   4.167   1.540
   22DMPC    C3  969   2.116   3.994   1.383
   22DMPC    N4  970   2.221   4.070   1.452
   22DMPC    C5  971   2.309   4.134   1.351
   22DMPC    C6  972   2.415   4.238   1.396
   22DMPC   OS7  973   2.515   4.191   1.486
   22DMPC    P8  974   2.588   4.310   1.555
   22DMPC   OM9  975   2.482   4.387   1.621
   22DMPC  OM10  976   2.673   4.367   1.450
   22DMPC  OS11  977   2.674   4.225   1.655
   22DMPC   C12  978   2.599   4.186   1.770
   22DMPC   C13  979   2.678   4.096   1.865
   22DMPC  OS14  980   2.591   4.031   1.962
   22DMPC   C15  981   2.589   3.896   1.965
   22DMPC   O16  982   2.651   3.826   1.883
   22DMPC   C17  983   2.484   3.845   2.062
   22DMPC   C18  984   2.501   3.904   2.203
   22DMPC   C19  985   2.376   3.879   2.287
   22DMPC   C20  986   2.393   3.918   2.434
   22DMPC   C21  987   2.260   3.901   2.508
   22DMPC   C22  988   2.274   3.924   2.659
   22DMPC   C23  989   2.136   3.912   2.725
   22DMPC   C24  990   2.143   3.918   2.877
   22DMPC   C25  991   2.191   4.055   2.927
   22DMPC   C26  992   2.175   4.067   3.079
   22DMPC   C27  993   2.262   3.966   3.153
   22DMPC   C28  994   2.242   3.979   3.304
   22DMPC   C29  995   2.322   3.873   3.380
   22DMPC   C30  996   2.795   4.180   1.921
   22DMPC  OS31  997   2.874   4.119   2.025
   22DMPC   C32  998   2.977   4.036   1.994
   22DMPC   O33  999   3.016   4.011   1.879
   22DMPC   C34 1000   3.032   3.973   2.121
   22DMPC   C35 1001   2.922   3.888   2.185
   22DMPC   C36 1002   2.955   3.846   2.328
   22DMPC   C37 1003   2.836   3.772   2.389
   22DMPC   C38 1004   2.859   3.741   2.537
   22DMPC   C39 1005   2.732   3.682   2.599
   22DMPC   C40 1006   2.752   3.656   2.749
   22DMPC   C41 1007   2.625   3.597   2.810
   22DMPC   C42 1008   2.646   3.560   2.957
   22DMPC   C43 1009   2.663   3.685   3.044
   22DMPC   C44 1010   2.677   3.644   3.191
   22DMPC   C45 1011   2.693   3.766   3.282
   22DMPC   C46 1012   2.697   3.725   3.429
   23DMPC    C1 1013   3.000   2.663   1.943
   23DMPC    C2 1014   3.055   2.852   1.808
   23DMPC    C3 1015   3.172   2.645   1.782
   23DMPC    N4 1016   3.041   2.705   1.808
   23DMPC    C5 1017   2.946   2.656   1.705
   23DMPC    C6 1018   2.804   2.716   1.694
   23DMPC   OS7 1019   2.724   2.699   1.811
   23DMPC    P8 1020   2.587   2.772   1.798
   23DMPC   OM9 1021   2.621   2.914   1.780
   23DMPC  OM10 1022   2.518   2.698   1.691
   23DMPC  OS11 1023   2.530   2.737   1.940
   23DMPC   C12 1024   2.598   2.810   2.043
   23DMPC   C13 1025   2.575   2.758   2.186
   23DMPC  OS14 1026   2.629   2.627   2.217
   23DMPC   C15 1027   2.760   2.619   2.254
   23DMPC   O16 1028   2.845   2.702   2.221
   23DMPC   C17 1029   2.788   2.485   2.321
   23DMPC   C18 1030   2.919   2.421   2.275
   23DMPC   C19 1031   2.955   2.305   2.368
   23DMPC   C20 1032   3.009   2.359   2.500
   23DMPC   C21 1033   3.035   2.249   2.603
   23DMPC   C22 1034   3.110   2.307   2.723
   23DMPC   C23 1035   3.030   2.418   2.791
   23DMPC   C24 1036   3.109   2.483   2.904
   23DMPC   C25 1037   3.035   2.604   2.962
   23DMPC   C26 1038   3.115   2.673   3.072
   23DMPC   C27 1039   3.122   2.585   3.197
   23DMPC   C28 1040   3.201   2.654   3.309
   23DMPC   C29 1041   3.350   2.663   3.275
   23DMPC   C30 1042   2.424   2.766   2.213
   23DMPC  OS31 1043   2.380   2.895   2.259
   23DMPC   C32 1044   2.265   2.894   2.331
   23DMPC   O33 1045   2.192   2.796   2.344
   23DMPC   C34 1046   2.231   3.033   2.381
   23DMPC   C35 1047   2.185   3.030   2.527
   23DMPC   C36 1048   2.302   3.014   2.624
   23DMPC   C37 1049   2.251   3.019   2.768
   23DMPC   C38 1050   2.366   3.022   2.870
   23DMPC   C39 1051   2.450   3.148   2.851
   23DMPC   C40 1052   2.525   3.187   2.979
   23DMPC   C41 1053   2.640   3.094   3.015
   23DMPC   C42 1054   2.705   3.144   3.145
   23DMPC   C43 1055   2.827   3.062   3.186
   23DMPC   C44 1056   2.884   3.114   3.318
   23DMPC   C45 1057   3.007   3.034   3.361
   23DMPC   C46 1058   3.125   3.058   3.267
   24DMPC    C1 1059   4.077   4.624   1.702
   24DMPC    C2 1060   3.876   4.521   1.626
   24DMPC    C3 1061   3.865   4.688   1.792
   24DMPC    N4 1062   3.935   4.648   1.670
   24DMPC    C5 1063   3.920   4.747   1.561
   24DMPC    C6 1064   3.974   4.891   1.578
   24DMPC   OS7 1065   3.902   4.974   1.670
   24DMPC    P8 1066   3.973   5.113   1.689
   24DMPC   OM9 1067   4.044   5.151   1.566
   24DMPC  OM10 1068   3.872   5.202   1.748
   24DMPC  OS11 1069   4.074   5.062   1.797
   24DMPC   C12 1070   4.033   5.096   1.929
   24DMPC   C13 1071   4.104   5.018   2.040
   24DMPC  OS14 1072   4.047   5.051   2.169
   24DMPC   C15 1073   4.006   4.946   2.246
   24DMPC   O16 1074   3.990   4.833   2.200
   24DMPC   C17 1075   3.946   4.998   2.375
   24DMPC   C18 1076   4.008   4.932   2.498
   24DMPC   C19 1077   3.945   4.985   2.626
   24DMPC   C20 1078   4.011   4.920   2.748
   24DMPC   C21 1079   4.158   4.959   2.754
   24DMPC   C22 1080   4.229   4.890   2.870
   24DMPC   C23 1081   4.236   4.740   2.847
   24DMPC   C24 1082   4.308   4.671   2.963
   24DMPC   C25 1083   4.308   4.519   2.946
   24DMPC   C26 1084   4.395   4.475   2.829
   24DMPC   C27 1085   4.393   4.323   2.817
   24DMPC   C28 1086   4.483   4.272   2.705
   24DMPC   C29 1087   4.478   4.119   2.698
   24DMPC   C30 1088   4.254   5.049   2.024
   24DMPC  OS31 1089   4.340   4.974   2.112
   24DMPC   C32 1090   4.439   5.043   2.175
   24DMPC   O33 1091   4.464   5.163   2.158
   24DMPC   C34 1092   4.516   4.948   2.264
   24DMPC   C35 1093   4.579   5.018   2.384
   24DMPC   C36 1094   4.472   5.052   2.488
   24DMPC   C37 1095   4.536   5.118   2.610
   24DMPC   C38 1096   4.620   5.019   2.691
   24DMPC   C39 1097   4.672   5.088   2.817
   24DMPC   C40 1098   4.759   4.994   2.901
   24DMPC   C41 1099   4.677   4.879   2.960
   24DMPC   C42 1100   4.765   4.793   3.050
   24DMPC   C43 1101   4.689   4.671   3.102
   24DMPC   C44 1102   4.777   4.585   3.192
   24DMPC   C45 1103   4.703   4.458   3.235
   24DMPC   C46 1104   4.683   4.364   3.116
   25DMPC    C1 1105   5.621   3.293   2.008
   25DMPC    C2 1106   5.466   3.207   2.162
   25DMPC    C3 1107   5.547   3.068   1.983
   25DMPC    N4 1108   5.505   3.204   2.020
   25DMPC    C5 1109   5.398   3.256   1.932
   25DMPC    C6 1110   5.258   3.190   1.930
   25DMPC   OS7 1111   5.166   3.253   1.842
   25DMPC    P8 1112   5.018   3.201   1.859
   25DMPC   OM9 1113   4.956   3.195   1.726
   25DMPC  OM10 1114   5.011   3.083   1.945
   25DMPC  OS11 1115   4.953   3.327   1.927
   25DMPC   C12 1116   4.912   3.308   2.063
   25DMPC   C13 1117   4.831   3.428   2.115
   25DMPC  OS14 1118   4.818   3.431   2.260
   25DMPC   C15 1119   4.787   3.550   2.318
   25DMPC   O16 1120   4.801   3.657   2.258
   25DMPC   C17 1121   4.763   3.534   2.467
   25DMPC   C18 1122   4.750   3.668   2.541
   25DMPC   C19 1123   4.733   3.639   2.690
   25DMPC   C20 1124   4.718   3.765   2.777
   25DMPC   C21 1125   4.699   3.723   2.923
   25DMPC   C22 1126   4.682   3.842   3.018
   25DMPC   C23 1127   4.651   3.789   3.159
   25DMPC   C24 1128   4.630   3.901   3.261
   25DMPC   C25 1129   4.762   3.969   3.298
   25DMPC   C26 1130   4.740   4.073   3.409
   25DMPC   C27 1131   4.872   4.140   3.448
   25DMPC   C28 1132   4.851   4.245   3.557
   25DMPC   C29 1133   4.982   4.314   3.593
   25DMPC   C30 1134   4.698   3.427   2.037
   25DMPC  OS31 1135   4.618   3.309   2.054
   25DMPC   C32 1136   4.486   3.318   2.020
   25DMPC   O33 1137   4.436   3.412   1.958
   25DMPC   C34 1138   4.414   3.190   2.058
   25DMPC   C35 1139   4.389   3.181   2.209
   25DMPC   C36 1140   4.285   3.285   2.251
   25DMPC   C37 1141   4.255   3.277   2.401
   25DMPC   C38 1142   4.378   3.311   2.485
   25DMPC   C39 1143   4.340   3.322   2.633
   25DMPC   C40 1144   4.461   3.355   2.720
   25DMPC   C41 1145   4.549   3.233   2.745
   25DMPC   C42 1146   4.673   3.269   2.826
   25DMPC   C43 1147   4.637   3.319   2.966
   25DMPC   C44 1148   4.578   3.209   3.053
   25DMPC   C45 1149   4.541   3.264   3.191
   25DMPC   C46 1150   4.474   3.156   3.276
   26DMPC    C1 1151   0.328   4.892   1.734
   26DMPC    C2 1152   0.225   5.085   1.826
   26DMPC    C3 1153   0.346   4.932   1.966
   26DMPC    N4 1154   0.256   4.944   1.850
   26DMPC    C5 1155   0.133   4.862   1.866
   26DMPC    C6 1156   0.043   4.882   1.990
   26DMPC   OS7 1157   5.575   4.805   1.986
   26DMPC    P8 1158   5.519   4.772   2.130
   26DMPC   OM9 1159   5.414   4.673   2.107
   26DMPC  OM10 1160   5.634   4.749   2.218
   26DMPC  OS11 1161   5.454   4.911   2.166
   26DMPC   C12 1162   5.444   4.928   2.308
   26DMPC   C13 1163   5.393   5.066   2.352
   26DMPC  OS14 1164   5.419   5.097   2.491
   26DMPC   C15 1165   5.438   5.228   2.526
   26DMPC   O16 1166   5.433   5.321   2.445
   26DMPC   C17 1167   5.462   5.243   2.675
   26DMPC   C18 1168   5.332   5.222   2.753
   26DMPC   C19 1169   5.361   5.215   2.903
   26DMPC   C20 1170   5.233   5.186   2.982
   26DMPC   C21 1171   5.265   5.156   3.128
   26DMPC   C22 1172   5.351   5.030   3.137
   26DMPC   C23 1173   5.371   4.985   3.281
   26DMPC   C24 1174   5.239   4.938   3.342
   26DMPC   C25 1175   5.259   4.891   3.486
   26DMPC   C26 1176   5.124   4.853   3.548
   26DMPC   C27 1177   5.140   4.811   3.694
   26DMPC   C28 1178   5.212   4.676   3.705
   26DMPC   C29 1179   5.225   4.633   3.851
   26DMPC   C30 1180   5.246   5.076   2.307
   26DMPC  OS31 1181   5.159   4.966   2.342
   26DMPC   C32 1182   5.033   4.999   2.381
   26DMPC   O33 1183   4.992   5.115   2.392
   26DMPC   C34 1184   4.952   4.874   2.413
   26DMPC   C35 1185   5.029   4.781   2.506
   26DMPC   C36 1186   5.035   4.837   2.648
   26DMPC   C37 1187   5.121   4.747   2.737
   26DMPC   C38 1188   5.127   4.799   2.881
   26DMPC   C39 1189   5.223   4.715   2.964
   26DMPC   C40 1190   5.175   4.571   2.978
   26DMPC   C41 1191   5.277   4.485   3.053
   26DMPC   C42 1192   5.280   4.516   3.203
   26DMPC   C43 1193   5.379   4.424   3.273
   26DMPC   C44 1194   5.379   4.446   3.425
   26DMPC   C45 1195   5.478   4.353   3.494
   26DMPC   C46 1196   5.473   4.370   3.646
   27DMPC    C1 1197   0.632   4.223   1.840
   27DMPC    C2 1198   0.769   4.061   1.949
   27DMPC    C3 1199   0.613   3.991   1.787
   27DMPC    N4 1200   0.635   4.087   1.896
   27DMPC    C5 1201   0.540   4.071   2.008
   27DMPC    C6 1202   0.388   4.088   1.987
   27DMPC   OS7 1203   0.323   3.981   1.919
   27DMPC    P8 1204   0.172   4.016   1.890
   27DMPC   OM9 1205   0.122   4.119   1.982
   27DMPC  OM10 1206   0.169   4.041   1.745
   27DMPC  OS11 1207   0.110   3.876   1.925
   27DMPC   C12 1208   0.077   3.863   2.064
   27DMPC   C13 1209   0.081   3.719   2.115
   27DMPC  OS14 1210   0.025   3.705   2.249
   27DMPC   C15 1211   0.016   3.582   2.309
   27DMPC   O16 1212   0.052   3.477   2.257
   27DMPC   C17 1213   5.621   3.600   2.453
   27DMPC   C18 1214   0.015   3.489   2.547
   27DMPC   C19 1215   5.575   3.366   2.545
   27DMPC   C20 1216   5.613   3.272   2.659
   27DMPC   C21 1217   5.519   3.152   2.671
   27DMPC   C22 1218   5.559   3.066   2.791
   27DMPC   C23 1219   5.467   2.945   2.808
   27DMPC   C24 1220   5.510   2.857   2.925
   27DMPC   C25 1221   5.486   2.927   3.059
   27DMPC   C26 1222   5.526   2.838   3.176
   27DMPC   C27 1223   5.496   2.906   3.310
   27DMPC   C28 1224   5.537   2.817   3.428
   27DMPC   C29 1225   5.509   2.886   3.561
   27DMPC   C30 1226   0.229   3.678   2.100
   27DMPC  OS31 1227   0.319   3.749   2.186
   27DMPC   C32 1228   0.422   3.675   2.236
   27DMPC   O33 1229   0.444   3.558   2.204
   27DMPC   C34 1230   0.493   3.752   2.346
   27DMPC   C35 1231   0.608   3.670   2.404
   27DMPC   C36 1232   0.632   3.706   2.551
   27DMPC   C37 1233   0.526   3.640   2.639
   27DMPC   C38 1234   0.552   3.666   2.787
   27DMPC   C39 1235   0.454   3.587   2.874
   27DMPC   C40 1236   0.311   3.636   2.856
   27DMPC   C41 1237   0.214   3.555   2.942
   27DMPC   C42 1238   0.071   3.605   2.926
   27DMPC   C43 1239   5.626   3.520   3.010
   27DMPC   C44 1240   5.650   3.541   3.159
   27DMPC   C45 1241   5.551   3.459   3.242
   27DMPC   C46 1242   5.574   3.482   3.392
   28DMPC    C1 1243   5.538   4.372   2.034
   28DMPC    C2 1244   5.422   4.460   1.847
   28DMPC    C3 1245   5.543   4.258   1.823
   28DMPC    N4 1246   5.544   4.390   1.888
   28DMPC    C5 1247   0.007   4.473   1.847
   28DMPC    C6 1248   0.152   4.431   1.882
   28DMPC   OS7 1249   0.247   4.529   1.840
   28DMPC    P8 1250   0.369   4.538   1.940
   28DMPC   OM9 1251   0.461   4.643   1.895
   28DMPC  OM10 1252   0.416   4.405   1.978
   28DMPC  OS11 1253   0.292   4.601   2.061
   28DMPC   C12 1254   0.373   4.600   2.178
   28DMPC   C13 1255   0.295   4.632   2.307
   28DMPC  OS14 1256   0.379   4.662   2.421
   28DMPC   C15 1257   0.414   4.793   2.440
   28DMPC   O16 1258   0.382   4.883   2.362
   28DMPC   C17 1259   0.501   4.812   2.563
   28DMPC   C18 1260   0.563   4.952   2.562
   28DMPC   C19 1261   0.658   4.973   2.680
   28DMPC   C20 1262   0.729   5.108   2.670
   28DMPC   C21 1263   0.833   5.121   2.782
   28DMPC   C22 1264   0.916   5.249   2.768
   28DMPC   C23 1265   1.025   5.253   2.876
   28DMPC   C24 1266   1.115   5.376   2.862
   28DMPC   C25 1267   1.042   5.504   2.903
   28DMPC   C26 1268   1.014   5.507   3.054
   28DMPC   C27 1269   0.946   0.064   3.094
   28DMPC   C28 1270   0.918   0.065   3.245
   28DMPC   C29 1271   0.850   0.196   3.287
   28DMPC   C30 1272   0.192   4.518   2.324
   28DMPC  OS31 1273   0.246   4.384   2.318
   28DMPC   C32 1274   0.156   4.282   2.327
   28DMPC   O33 1275   0.035   4.297   2.317
   28DMPC   C34 1276   0.228   4.148   2.323
   28DMPC   C35 1277   0.223   4.073   2.457
   28DMPC   C36 1278   0.316   4.138   2.560
   28DMPC   C37 1279   0.320   4.055   2.689
   28DMPC   C38 1280   0.404   4.126   2.796
   28DMPC   C39 1281   0.410   4.043   2.925
   28DMPC   C40 1282   0.481   4.120   3.037
   28DMPC   C41 1283   0.631   4.135   3.011
   28DMPC   C42 1284   0.706   4.004   3.034
   28DMPC   C43 1285   0.856   4.023   3.010
   28DMPC   C44 1286   0.935   3.895   3.041
   28DMPC   C45 1287   0.907   3.785   2.938
   28DMPC   C46 1288   0.964   3.821   2.801
   29DMPC    C1 1289   1.215   4.843   1.684
   29DMPC    C2 1290   1.298   4.680   1.834
   29DMPC    C3 1291   1.071   4.753   1.851
   29DMPC    N4 1292   1.180   4.721   1.757
   29DMPC    C5 1293   1.140   4.618   1.658
   29DMPC    C6 1294   1.110   4.474   1.707
   29DMPC   OS7 1295   0.995   4.461   1.790
   29DMPC    P8 1296   1.008   4.334   1.881
   29DMPC   OM9 1297   0.979   4.223   1.790
   29DMPC  OM10 1298   1.137   4.349   1.950
   29DMPC  OS11 1299   0.884   4.365   1.971
   29DMPC   C12 1300   0.917   4.448   2.082
   29DMPC   C13 1301   0.793   4.498   2.158
   29DMPC  OS14 1302   0.823   4.598   2.258
   29DMPC   C15 1303   0.834   4.728   2.219
   29DMPC   O16 1304   0.804   4.767   2.105
   29DMPC   C17 1305   0.875   4.817   2.336
   29DMPC   C18 1306   0.957   4.737   2.438
   29DMPC   C19 1307   1.017   4.828   2.545
   29DMPC   C20 1308   1.095   4.746   2.647
   29DMPC   C21 1309   1.157   4.836   2.755
   29DMPC   C22 1310   1.231   4.753   2.859
   29DMPC   C23 1311   1.298   4.842   2.964
   29DMPC   C24 1312   1.194   4.917   3.048
   29DMPC   C25 1313   1.261   5.009   3.150
   29DMPC   C26 1314   1.155   5.089   3.226
   29DMPC   C27 1315   1.219   5.184   3.328
   29DMPC   C28 1316   1.110   5.265   3.399
   29DMPC   C29 1317   1.172   5.366   3.496
   29DMPC   C30 1318   0.718   4.373   2.211
   29DMPC  OS31 1319   0.793   4.280   2.292
   29DMPC   C32 1320   0.714   4.191   2.360
   29DMPC   O33 1321   0.607   4.151   2.315
   29DMPC   C34 1322   0.794   4.118   2.467
   29DMPC   C35 1323   0.866   4.216   2.559
   29DMPC   C36 1324   0.767   4.298   2.643
   29DMPC   C37 1325   0.840   4.393   2.737
   29DMPC   C38 1326   0.742   4.485   2.810
   29DMPC   C39 1327   0.815   4.578   2.907
   29DMPC   C40 1328   0.719   4.682   2.966
   29DMPC   C41 1329   0.792   4.776   3.062
   29DMPC   C42 1330   0.702   4.893   3.101
   29DMPC   C43 1331   0.777   4.991   3.192
   29DMPC   C44 1332   0.696   5.120   3.212
   29DMPC   C45 1333   0.568   5.094   3.291
   29DMPC   C46 1334   0.488   5.223   3.309
   30DMPC    C1 1335   1.305   3.871   2.041
   30DMPC    C2 1336   1.203   3.997   1.869
   30DMPC    C3 1337   1.429   3.913   1.845
   30DMPC    N4 1338   1.330   3.971   1.937
   30DMPC    C5 1339   1.382   4.093   2.004
   30DMPC    C6 1340   1.442   4.208   1.920
   30DMPC   OS7 1341   1.503   4.309   2.000
   30DMPC    P8 1342   1.586   4.407   1.911
   30DMPC   OM9 1343   1.724   4.358   1.900
   30DMPC  OM10 1344   1.509   4.440   1.790
   30DMPC  OS11 1345   1.579   4.531   2.007
   30DMPC   C12 1346   1.698   4.545   2.084
   30DMPC   C13 1347   1.714   4.680   2.156
   30DMPC  OS14 1348   1.853   4.703   2.197
   30DMPC   C15 1349   1.884   4.818   2.263
   30DMPC   O16 1350   1.813   4.918   2.260
   30DMPC   C17 1351   2.030   4.817   2.306
   30DMPC   C18 1352   2.046   4.871   2.448
   30DMPC   C19 1353   2.193   4.879   2.490
   30DMPC   C20 1354   2.206   4.925   2.635
   30DMPC   C21 1355   2.147   4.821   2.730
   30DMPC   C22 1356   2.168   4.857   2.877
   30DMPC   C23 1357   2.318   4.860   2.910
   30DMPC   C24 1358   2.343   4.868   3.061
   30DMPC   C25 1359   2.305   4.736   3.128
   30DMPC   C26 1360   2.347   4.733   3.276
   30DMPC   C27 1361   2.266   4.832   3.359
   30DMPC   C28 1362   2.308   4.826   3.506
   30DMPC   C29 1363   2.228   4.926   3.590
   30DMPC   C30 1364   1.602   4.684   2.262
   30DMPC  OS31 1365   1.611   4.579   2.360
   30DMPC   C32 1366   1.506   4.564   2.446
   30DMPC   O33 1367   1.404   4.634   2.446
   30DMPC   C34 1368   1.538   4.454   2.545
   30DMPC   C35 1369   1.622   4.345   2.479
   30DMPC   C36 1370   1.686   4.254   2.585
   30DMPC   C37 1371   1.800   4.326   2.657
   30DMPC   C38 1372   1.847   4.244   2.777
   30DMPC   C39 1373   1.742   4.248   2.889
   30DMPC   C40 1374   1.780   4.156   3.004
   30DMPC   C41 1375   1.679   4.164   3.119
   30DMPC   C42 1376   1.702   4.289   3.204
   30DMPC   C43 1377   1.834   4.277   3.281
   30DMPC   C44 1378   1.856   4.399   3.371
   30DMPC   C45 1379   1.989   4.388   3.446
   30DMPC   C46 1380   2.107   4.396   3.348
   31DMPC    C1 1381   2.777   4.123   1.254
   31DMPC    C2 1382   2.886   3.912   1.263
   31DMPC    C3 1383   2.751   3.981   1.444
   31DMPC    N4 1384   2.846   4.028   1.343
   31DMPC    C5 1385   2.967   4.087   1.406
   31DMPC    C6 1386   2.955   4.217   1.489
   31DMPC   OS7 1387   3.071   4.253   1.564
   31DMPC    P8 1388   3.056   4.402   1.613
   31DMPC   OM9 1389   3.051   4.486   1.492
   31DMPC  OM10 1390   2.946   4.405   1.711
   31DMPC  OS11 1391   3.194   4.425   1.683
   31DMPC   C12 1392   3.196   4.371   1.814
   31DMPC   C13 1393   3.324   4.398   1.894
   31DMPC  OS14 1394   3.331   4.312   2.011
   31DMPC   C15 1395   3.451   4.289   2.071
   31DMPC   O16 1396   3.559   4.330   2.027
   31DMPC   C17 1397   3.430   4.198   2.191
   31DMPC   C18 1398   3.489   4.254   2.321
   31DMPC   C19 1399   3.427   4.182   2.441
   31DMPC   C20 1400   3.489   4.227   2.574
   31DMPC   C21 1401   3.631   4.171   2.589
   31DMPC   C22 1402   3.692   4.208   2.724
   31DMPC   C23 1403   3.831   4.146   2.739
   31DMPC   C24 1404   3.890   4.177   2.876
   31DMPC   C25 1405   4.026   4.110   2.894
   31DMPC   C26 1406   4.082   4.135   3.035
   31DMPC   C27 1407   4.216   4.065   3.054
   31DMPC   C28 1408   4.271   4.086   3.195
   31DMPC   C29 1409   4.307   4.233   3.219
   31DMPC   C30 1410   3.331   4.550   1.919
   31DMPC  OS31 1411   3.211   4.608   1.976
   31DMPC   C32 1412   3.218   4.732   2.032
   31DMPC   O33 1413   3.319   4.802   2.041
   31DMPC   C34 1414   3.079   4.774   2.080
   31DMPC   C35 1415   3.022   4.673   2.180
   31DMPC   C36 1416   3.085   4.690   2.318
   31DMPC   C37 1417   3.028   4.586   2.415
   31DMPC   C38 1418   3.074   4.611   2.559
   31DMPC   C39 1419   3.011   4.508   2.652
   31DMPC   C40 1420   3.029   4.544   2.800
   31DMPC   C41 1421   3.174   4.527   2.847
   31DMPC   C42 1422   3.183   4.567   2.995
   31DMPC   C43 1423   3.323   4.545   3.051
   31DMPC   C44 1424   3.329   4.590   3.197
   31DMPC   C45 1425   3.466   4.565   3.259
   31DMPC   C46 1426   3.471   4.613   3.404
   32DMPC    C1 1427   3.391   0.297   1.674
   32DMPC    C2 1428   3.311   0.365   1.889
   32DMPC    C3 1429   3.166   0.366   1.705
   32DMPC    N4 1430   3.305   0.392   1.745
   32DMPC    C5 1431   3.338   0.533   1.714
   32DMPC    C6 1432   3.478   0.589   1.750
   32DMPC   OS7 1433   3.503   0.601   1.890
   32DMPC    P8 1434   3.653   0.636   1.919
   32DMPC   OM9 1435   3.732   0.540   1.841
   32DMPC  OM10 1436   3.666   0.780   1.895
   32DMPC  OS11 1437   3.650   0.599   2.071
   32DMPC   C12 1438   3.684   0.462   2.090
   32DMPC   C13 1439   3.671   0.409   2.234
   32DMPC  OS14 1440   3.535   0.373   2.273
   32DMPC   C15 1441   3.498   0.244   2.253
   32DMPC   O16 1442   3.554   0.171   2.170
   32DMPC   C17 1443   3.362   0.218   2.315
   32DMPC   C18 1444   3.302   0.082   2.279
   32DMPC   C19 1445   3.364   5.540   2.359
   32DMPC   C20 1446   3.332   5.553   2.508
   32DMPC   C21 1447   3.374   5.427   2.584
   32DMPC   C22 1448   3.352   5.443   2.734
   32DMPC   C23 1449   3.205   5.475   2.765
   32DMPC   C24 1450   3.178   5.480   2.915
   32DMPC   C25 1451   3.164   5.339   2.973
   32DMPC   C26 1452   3.127   5.344   3.121
   32DMPC   C27 1453   3.093   5.204   3.174
   32DMPC   C28 1454   3.216   5.113   3.176
   32DMPC   C29 1455   3.180   4.973   3.226
   32DMPC   C30 1456   3.747   0.510   2.322
   32DMPC  OS31 1457   3.752   0.482   2.463
   32DMPC   C32 1458   3.655   0.541   2.539
   32DMPC   O33 1459   3.595   0.643   2.505
   32DMPC   C34 1460   3.662   0.488   2.681
   32DMPC   C35 1461   3.528   0.501   2.753
   32DMPC   C36 1462   3.425   0.402   2.698
   32DMPC   C37 1463   3.290   0.420   2.769
   32DMPC   C38 1464   3.184   0.329   2.707
   32DMPC   C39 1465   3.048   0.348   2.774
   32DMPC   C40 1466   3.046   0.288   2.915
   32DMPC   C41 1467   2.908   0.305   2.978
   32DMPC   C42 1468   2.901   0.236   3.114
   32DMPC   C43 1469   2.996   0.301   3.214
   32DMPC   C44 1470   2.982   0.238   3.353
   32DMPC   C45 1471   3.030   0.093   3.353
   32DMPC   C46 1472   3.015   0.032   3.493
   33DMPC    C1 1473   3.459   5.221   1.794
   33DMPC    C2 1474   3.630   5.230   1.959
   33DMPC    C3 1475   3.626   5.396   1.792
   33DMPC    N4 1476   3.541   5.312   1.877
   33DMPC    C5 1477   3.457   5.391   1.970
   33DMPC    C6 1478   3.374   5.511   1.916
   33DMPC   OS7 1479   3.273   5.479   1.820
   33DMPC    P8 1480   3.133   5.539   1.863
   33DMPC   OM9 1481   3.157   0.101   1.910
   33DMPC  OM10 1482   3.045   5.511   1.749
   33DMPC  OS11 1483   3.108   5.443   1.985
   33DMPC   C12 1484   2.983   5.375   1.976
   33DMPC   C13 1485   2.951   5.275   2.088
   33DMPC  OS14 1486   2.813   5.231   2.082
   33DMPC   C15 1487   2.784   5.113   2.020
   33DMPC   O16 1488   2.861   5.057   1.942
   33DMPC   C17 1489   2.637   5.079   2.035
   33DMPC   C18 1490   2.619   4.950   2.114
   33DMPC   C19 1491   2.643   4.974   2.263
   33DMPC   C20 1492   2.633   4.844   2.343
   33DMPC   C21 1493   2.646   4.873   2.492
   33DMPC   C22 1494   2.645   4.746   2.576
   33DMPC   C23 1495   2.649   4.783   2.724
   33DMPC   C24 1496   2.777   4.860   2.757
   33DMPC   C25 1497   2.774   4.918   2.898
   33DMPC   C26 1498   2.777   4.808   3.005
   33DMPC   C27 1499   2.778   4.871   3.144
   33DMPC   C28 1500   2.784   4.764   3.253
   33DMPC   C29 1501   2.790   4.828   3.392
   33DMPC   C30 1502   2.988   5.346   2.220
   33DMPC  OS31 1503   2.976   5.272   2.344
   33DMPC   C32 1504   3.075   5.185   2.379
   33DMPC   O33 1505   3.171   5.156   2.307
   33DMPC   C34 1506   3.047   5.126   2.516
   33DMPC   C35 1507   3.171   5.058   2.575
   33DMPC   C36 1508   3.143   5.010   2.718
   33DMPC   C37 1509   3.262   4.939   2.781
   33DMPC   C38 1510   3.380   5.033   2.805
   33DMPC   C39 1511   3.482   4.970   2.900
   33DMPC   C40 1512   3.551   4.849   2.837
   33DMPC   C41 1513   3.636   4.774   2.940
   33DMPC   C42 1514   3.703   4.652   2.877
   33DMPC   C43 1515   3.770   4.563   2.981
   33DMPC   C44 1516   3.885   4.634   3.053
   33DMPC   C45 1517   3.956   4.539   3.149
   33DMPC   C46 1518   3.863   4.493   3.262
   34DMPC    C1 1519   5.409   0.347   1.897
   34DMPC    C2 1520   5.458   0.552   2.014
   34DMPC    C3 1521   5.251   0.522   1.899
   34DMPC    N4 1522   5.395   0.493   1.894
   34DMPC    C5 1523   5.449   0.550   1.768
   34DMPC    C6 1524   5.602   0.554   1.746
   34DMPC   OS7 1525   0.015   0.428   1.730
   34DMPC    P8 1526   0.171   0.437   1.751
   34DMPC   OM9 1527   0.223   0.310   1.697
   34DMPC  OM10 1528   0.217   0.568   1.701
   34DMPC  OS11 1529   0.172   0.436   1.908
   34DMPC   C12 1530   0.174   0.303   1.959
   34DMPC   C13 1531   0.151   0.284   2.110
   34DMPC  OS14 1532   0.011   0.300   2.147
   34DMPC   C15 1533   5.604   0.192   2.205
   34DMPC   O16 1534   5.637   0.077   2.174
   34DMPC   C17 1535   5.467   0.230   2.256
   34DMPC   C18 1536   5.460   0.240   2.409
   34DMPC   C19 1537   5.466   0.102   2.475
   34DMPC   C20 1538   5.428   0.113   2.623
   34DMPC   C21 1539   5.279   0.145   2.636
   34DMPC   C22 1540   5.242   0.187   2.778
   34DMPC   C23 1541   5.251   0.073   2.879
   34DMPC   C24 1542   5.206   0.125   3.016
   34DMPC   C25 1543   5.197   0.014   3.120
   34DMPC   C26 1544   5.146   0.073   3.252
   34DMPC   C27 1545   5.120   5.540   3.358
   34DMPC   C28 1546   5.069   0.030   3.487
   34DMPC   C29 1547   5.040   5.498   3.593
   34DMPC   C30 1548   0.252   0.377   2.179
   34DMPC  OS31 1549   0.264   0.361   2.322
   34DMPC   C32 1550   0.295   0.475   2.389
   34DMPC   O33 1551   0.310   0.584   2.335
   34DMPC   C34 1552   0.307   0.448   2.539
   34DMPC   C35 1553   0.208   0.341   2.585
   34DMPC   C36 1554   0.219   0.318   2.735
   34DMPC   C37 1555   0.125   0.205   2.779
   34DMPC   C38 1556   0.131   0.184   2.930
   34DMPC   C39 1557   0.041   0.067   2.972
   34DMPC   C40 1558   0.045   0.047   3.123
   34DMPC   C41 1559   5.604   5.507   3.166
   34DMPC   C42 1560   5.601   5.493   3.318
   34DMPC   C43 1561   5.501   5.386   3.361
   34DMPC   C44 1562   5.486   5.381   3.513
   34DMPC   C45 1563   5.382   5.276   3.554
   34DMPC   C46 1564   5.365   5.271   3.706
   35DMPC    C1 1565   4.538   4.572   1.303
   35DMPC    C2 1566   4.712   4.428   1.226
   35DMPC    C3 1567   4.641   4.415   1.453
   35DMPC    N4 1568   4.595   4.437   1.315
   35DMPC    C5 1569   4.498   4.331   1.276
   35DMPC    C6 1570   4.351   4.332   1.325
   35DMPC   OS7 1571   4.331   4.327   1.466
   35DMPC    P8 1572   4.181   4.294   1.497
   35DMPC   OM9 1573   4.104   4.405   1.442
   35DMPC  OM10 1574   4.159   4.155   1.453
   35DMPC  OS11 1575   4.196   4.306   1.653
   35DMPC   C12 1576   4.250   4.187   1.709
   35DMPC   C13 1577   4.316   4.208   1.846
   35DMPC  OS14 1578   4.390   4.092   1.893
   35DMPC   C15 1579   4.523   4.082   1.864
   35DMPC   O16 1580   4.590   4.175   1.816
   35DMPC   C17 1581   4.581   3.952   1.917
   35DMPC   C18 1582   4.558   3.940   2.067
   35DMPC   C19 1583   4.646   4.039   2.144
   35DMPC   C20 1584   4.601   4.050   2.290
   35DMPC   C21 1585   4.688   4.152   2.364
   35DMPC   C22 1586   4.818   4.090   2.416
   35DMPC   C23 1587   4.905   4.199   2.478
   35DMPC   C24 1588   5.005   4.139   2.577
   35DMPC   C25 1589   4.929   4.089   2.700
   35DMPC   C26 1590   5.022   4.044   2.812
   35DMPC   C27 1591   5.103   4.163   2.864
   35DMPC   C28 1592   5.177   4.125   2.992
   35DMPC   C29 1593   5.080   4.111   3.109
   35DMPC   C30 1594   4.209   4.263   1.943
   35DMPC  OS31 1595   4.098   4.176   1.974
   35DMPC   C32 1596   3.999   4.234   2.049
   35DMPC   O33 1597   3.988   4.356   2.068
   35DMPC   C34 1598   3.894   4.131   2.089
   35DMPC   C35 1599   3.930   4.063   2.221
   35DMPC   C36 1600   3.825   3.959   2.261
   35DMPC   C37 1601   3.858   3.896   2.397
   35DMPC   C38 1602   3.750   3.799   2.442
   35DMPC   C39 1603   3.755   3.665   2.367
   35DMPC   C40 1604   3.860   3.572   2.427
   35DMPC   C41 1605   3.818   3.525   2.566
   35DMPC   C42 1606   3.927   3.439   2.630
   35DMPC   C43 1607   3.889   3.398   2.772
   35DMPC   C44 1608   4.005   3.325   2.840
   35DMPC   C45 1609   3.970   3.289   2.985
   35DMPC   C46 1610   4.091   3.228   3.056
   36DMPC    C1 1611   4.735   5.344   2.210
   36DMPC    C2 1612   4.728   5.284   1.982
   36DMPC    C3 1613   4.931   5.261   2.101
   36DMPC    N4 1614   4.812   5.346   2.085
   36DMPC    C5 1615   4.849   5.484   2.044
   36DMPC    C6 1616   4.936   5.572   2.137
   36DMPC   OS7 1617   4.982   0.122   2.081
   36DMPC    P8 1618   5.074   0.199   2.186
   36DMPC   OM9 1619   5.129   0.321   2.124
   36DMPC  OM10 1620   5.156   0.104   2.261
   36DMPC  OS11 1621   4.961   0.251   2.279
   36DMPC   C12 1622   5.013   0.313   2.396
   36DMPC   C13 1623   4.901   0.367   2.486
   36DMPC  OS14 1624   4.942   0.459   2.590
   36DMPC   C15 1625   4.901   0.588   2.581
   36DMPC   O16 1626   4.859   0.638   2.476
   36DMPC   C17 1627   4.923   0.663   2.711
   36DMPC   C18 1628   5.053   0.744   2.714
   36DMPC   C19 1629   5.055   0.824   2.845
   36DMPC   C20 1630   5.183   0.903   2.867
   36DMPC   C21 1631   5.169   0.982   2.997
   36DMPC   C22 1632   5.295   1.059   3.036
   36DMPC   C23 1633   5.266   1.140   3.163
   36DMPC   C24 1634   5.232   1.047   3.279
   36DMPC   C25 1635   5.184   1.125   3.401
   36DMPC   C26 1636   5.297   1.208   3.463
   36DMPC   C27 1637   5.244   1.291   3.580
   36DMPC   C28 1638   5.201   1.203   3.696
   36DMPC   C29 1639   5.145   1.288   3.810
   36DMPC   C30 1640   4.822   0.244   2.532
   36DMPC  OS31 1641   4.892   0.148   2.613
   36DMPC   C32 1642   4.817   0.040   2.649
   36DMPC   O33 1643   4.703   0.020   2.605
   36DMPC   C34 1644   4.890   5.523   2.746
   36DMPC   C35 1645   4.806   5.503   2.872
   36DMPC   C36 1646   4.873   5.404   2.968
   36DMPC   C37 1647   4.787   5.379   3.091
   36DMPC   C38 1648   4.844   5.264   3.174
   36DMPC   C39 1649   4.750   5.225   3.288
   36DMPC   C40 1650   4.797   5.096   3.355
   36DMPC   C41 1651   4.704   5.055   3.470
   36DMPC   C42 1652   4.750   4.923   3.532
   36DMPC   C43 1653   4.672   4.889   3.659
   36DMPC   C44 1654   4.730   4.764   3.724
   36DMPC   C45 1655   4.664   4.736   3.859
   36DMPC   C46 1656   4.518   4.694   3.841
   37DMPC    C1 1657   5.367   4.995   1.724
   37DMPC    C2 1658   5.262   5.015   1.934
   37DMPC    C3 1659   5.289   4.801   1.834
   37DMPC    N4 1660   5.259   4.942   1.807
   37DMPC    C5 1661   5.130   4.958   1.736
   37DMPC    C6 1662   4.999   4.901   1.795
   37DMPC   OS7 1663   4.963   4.954   1.922
   37DMPC    P8 1664   4.822   4.909   1.973
   37DMPC   OM9 1665   4.805   4.971   2.104
   37DMPC  OM10 1666   4.722   4.932   1.867
   37DMPC  OS11 1667   4.835   4.753   1.986
   37DMPC   C12 1668   4.761   4.707   2.099
   37DMPC   C13 1669   4.758   4.556   2.127
   37DMPC  OS14 1670   4.661   4.521   2.229
   37DMPC   C15 1671   4.532   4.496   2.191
   37DMPC   O16 1672   4.492   4.506   2.074
   37DMPC   C17 1673   4.448   4.457   2.311
   37DMPC   C18 1674   4.305   4.507   2.299
   37DMPC   C19 1675   4.224   4.467   2.423
   37DMPC   C20 1676   4.084   4.526   2.416
   37DMPC   C21 1677   4.002   4.493   2.541
   37DMPC   C22 1678   3.867   4.565   2.532
   37DMPC   C23 1679   3.783   4.507   2.419
   37DMPC   C24 1680   3.675   4.606   2.376
   37DMPC   C25 1681   3.572   4.636   2.485
   37DMPC   C26 1682   3.479   4.746   2.436
   37DMPC   C27 1683   3.559   4.875   2.416
   37DMPC   C28 1684   3.472   4.986   2.355
   37DMPC   C29 1685   3.552   5.115   2.338
   37DMPC   C30 1686   4.900   4.512   2.168
   37DMPC  OS31 1687   4.998   4.500   2.063
   37DMPC   C32 1688   5.112   4.440   2.104
   37DMPC   O33 1689   5.188   4.386   2.023
   37DMPC   C34 1690   5.125   4.436   2.255
   37DMPC   C35 1691   5.272   4.443   2.297
   37DMPC   C36 1692   5.286   4.476   2.446
   37DMPC   C37 1693   5.432   4.504   2.483
   37DMPC   C38 1694   5.441   4.553   2.627
   37DMPC   C39 1695   5.585   4.589   2.666
   37DMPC   C40 1696   0.020   4.463   2.676
   37DMPC   C41 1697   0.163   4.498   2.716
   37DMPC   C42 1698   0.170   4.548   2.860
   37DMPC   C43 1699   0.313   4.583   2.899
   37DMPC   C44 1700   0.322   4.629   3.044
   37DMPC   C45 1701   0.292   4.514   3.140
   37DMPC   C46 1702   0.304   4.560   3.286
   38DMPC    C1 1703   1.163   5.225   1.703
   38DMPC    C2 1704   1.357   5.338   1.781
   38DMPC    C3 1705   1.164   5.324   1.920
   38DMPC    N4 1706   1.210   5.340   1.781
   38DMPC    C5 1707   1.165   5.468   1.723
   38DMPC    C6 1708   1.014   5.494   1.700
   38DMPC   OS7 1709   0.936   5.500   1.819
   38DMPC    P8 1710   0.782   5.498   1.790
   38DMPC   OM9 1711   0.724   0.058   1.807
   38DMPC  OM10 1712   0.758   5.424   1.666
   38DMPC  OS11 1713   0.736   5.406   1.909
   38DMPC   C12 1714   0.736   5.480   2.031
   38DMPC   C13 1715   0.678   5.403   2.151
   38DMPC  OS14 1716   0.624   5.489   2.255
   38DMPC   C15 1717   0.492   5.518   2.249
   38DMPC   O16 1718   0.421   5.484   2.154
   38DMPC   C17 1719   0.446   0.029   2.367
   38DMPC   C18 1720   0.311   5.553   2.419
   38DMPC   C19 1721   0.327   5.419   2.490
   38DMPC   C20 1722   0.190   5.359   2.521
   38DMPC   C21 1723   0.202   5.219   2.583
   38DMPC   C22 1724   0.237   5.224   2.731
   38DMPC   C23 1725   0.242   5.082   2.788
   38DMPC   C24 1726   0.260   5.082   2.940
   38DMPC   C25 1727   0.134   5.133   3.010
   38DMPC   C26 1728   0.148   5.122   3.162
   38DMPC   C27 1729   0.150   4.975   3.206
   38DMPC   C28 1730   0.179   4.962   3.355
   38DMPC   C29 1731   0.066   5.021   3.440
   38DMPC   C30 1732   0.782   5.298   2.194
   38DMPC  OS31 1733   0.910   5.348   2.238
   38DMPC   C32 1734   0.995   5.255   2.288
   38DMPC   O33 1735   0.990   5.135   2.261
   38DMPC   C34 1736   1.116   5.321   2.353
   38DMPC   C35 1737   1.192   5.217   2.435
   38DMPC   C36 1738   1.316   5.277   2.502
   38DMPC   C37 1739   1.391   5.169   2.579
   38DMPC   C38 1740   1.441   5.062   2.481
   38DMPC   C39 1741   1.512   4.948   2.554
   38DMPC   C40 1742   1.647   4.993   2.611
   38DMPC   C41 1743   1.724   4.873   2.667
   38DMPC   C42 1744   1.660   4.819   2.794
   38DMPC   C43 1745   1.726   4.687   2.835
   38DMPC   C44 1746   1.668   4.635   2.967
   38DMPC   C45 1747   1.723   4.713   3.086
   38DMPC   C46 1748   1.872   4.684   3.104
   39DMPC    C1 1749   2.069   5.201   1.691
   39DMPC    C2 1750   2.210   5.385   1.732
   39DMPC    C3 1751   2.285   5.216   1.584
   39DMPC    N4 1752   2.210   5.241   1.708
   39DMPC    C5 1753   2.272   5.176   1.826
   39DMPC    C6 1754   2.283   5.022   1.834
   39DMPC   OS7 1755   2.372   4.962   1.739
   39DMPC    P8 1756   2.330   4.815   1.704
   39DMPC   OM9 1757   2.187   4.825   1.669
   39DMPC  OM10 1758   2.428   4.769   1.604
   39DMPC  OS11 1759   2.352   4.746   1.843
   39DMPC   C12 1760   2.363   4.604   1.829
   39DMPC   C13 1761   2.362   4.522   1.960
   39DMPC  OS14 1762   2.229   4.497   2.013
   39DMPC   C15 1763   2.209   4.368   2.051
   39DMPC   O16 1764   2.263   4.274   1.993
   39DMPC   C17 1765   2.084   4.355   2.138
   39DMPC   C18 1766   2.107   4.253   2.249
   39DMPC   C19 1767   2.205   4.307   2.354
   39DMPC   C20 1768   2.142   4.420   2.436
   39DMPC   C21 1769   2.244   4.481   2.532
   39DMPC   C22 1770   2.289   4.378   2.636
   39DMPC   C23 1771   2.384   4.442   2.738
   39DMPC   C24 1772   2.434   4.336   2.836
   39DMPC   C25 1773   2.521   4.396   2.947
   39DMPC   C26 1774   2.571   4.284   3.039
   39DMPC   C27 1775   2.658   4.339   3.153
   39DMPC   C28 1776   2.573   4.408   3.259
   39DMPC   C29 1777   2.490   4.307   3.338
   39DMPC   C30 1778   2.459   4.594   2.056
   39DMPC  OS31 1779   2.488   4.529   2.182
   39DMPC   C32 1780   2.597   4.448   2.186
   39DMPC   O33 1781   2.682   4.444   2.097
   39DMPC   C34 1782   2.609   4.378   2.321
   39DMPC   C35 1783   2.699   4.256   2.307
   39DMPC   C36 1784   2.693   4.164   2.429
   39DMPC   C37 1785   2.771   4.217   2.549
   39DMPC   C38 1786   2.768   4.113   2.661
   39DMPC   C39 1787   2.860   4.152   2.777
   39DMPC   C40 1788   2.859   4.043   2.885
   39DMPC   C41 1789   2.952   4.080   3.001
   39DMPC   C42 1790   3.098   4.079   2.957
   39DMPC   C43 1791   3.190   4.115   3.074
   39DMPC   C44 1792   3.337   4.110   3.032
   39DMPC   C45 1793   3.428   4.147   3.149
   39DMPC   C46 1794   3.575   4.138   3.109
   40DMPC    C1 1795   2.925   4.839   1.625
   40DMPC    C2 1796   2.721   4.824   1.752
   40DMPC    C3 1797   2.760   4.676   1.572
   40DMPC    N4 1798   2.780   4.814   1.618
   40DMPC    C5 1799   2.710   4.903   1.522
   40DMPC    C6 1800   2.710   5.056   1.546
   40DMPC   OS7 1801   2.637   5.129   1.447
   40DMPC    P8 1802   2.698   5.273   1.429
   40DMPC   OM9 1803   2.641   5.344   1.314
   40DMPC  OM10 1804   2.843   5.272   1.454
   40DMPC  OS11 1805   2.635   5.345   1.554
   40DMPC   C12 1806   2.664   5.484   1.545
   40DMPC   C13 1807   2.639   5.570   1.670
   40DMPC  OS14 1808   2.698   0.129   1.652
   40DMPC   C15 1809   2.648   0.229   1.729
   40DMPC   O16 1810   2.532   0.228   1.773
   40DMPC   C17 1811   2.739   0.351   1.728
   40DMPC   C18 1812   2.761   0.399   1.871
   40DMPC   C19 1813   2.840   0.294   1.950
   40DMPC   C20 1814   2.838   0.323   2.100
   40DMPC   C21 1815   2.889   0.202   2.178
   40DMPC   C22 1816   2.861   0.220   2.328
   40DMPC   C23 1817   2.881   0.088   2.403
   40DMPC   C24 1818   2.832   0.099   2.547
   40DMPC   C25 1819   2.834   5.537   2.616
   40DMPC   C26 1820   2.780   5.548   2.759
   40DMPC   C27 1821   2.774   5.411   2.827
   40DMPC   C28 1822   2.721   5.424   2.970
   40DMPC   C29 1823   2.710   5.287   3.037
   40DMPC   C30 1824   2.703   5.489   1.785
   40DMPC  OS31 1825   2.677   5.533   1.920
   40DMPC   C32 1826   2.566   5.481   1.978
   40DMPC   O33 1827   2.490   5.402   1.921
   40DMPC   C34 1828   2.549   5.535   2.119
   40DMPC   C35 1829   2.495   5.428   2.215
   40DMPC   C36 1830   2.479   5.485   2.356
   40DMPC   C37 1831   2.421   5.381   2.452
   40DMPC   C38 1832   2.407   5.440   2.592
   40DMPC   C39 1833   2.345   5.338   2.688
   40DMPC   C40 1834   2.331   5.398   2.828
   40DMPC   C41 1835   2.260   5.302   2.923
   40DMPC   C42 1836   2.255   5.360   3.065
   40DMPC   C43 1837   2.176   5.270   3.160
   40DMPC   C44 1838   2.026   5.276   3.128
   40DMPC   C45 1839   1.947   5.188   3.225
   40DMPC   C46 1840   1.975   5.040   3.199
   41DMPC    C1 1841   3.164   0.525   2.199
   41DMPC    C2 1842   3.131   0.742   2.282
   41DMPC    C3 1843   3.301   0.603   2.376
   41DMPC    N4 1844   3.234   0.642   2.252
   41DMPC    C5 1845   3.330   0.692   2.150
   41DMPC    C6 1846   3.416   0.817   2.181
   41DMPC   OS7 1847   3.337   0.934   2.199
   41DMPC    P8 1848   3.413   1.055   2.262
   41DMPC   OM9 1849   3.539   1.065   2.187
   41DMPC  OM10 1850   3.317   1.165   2.267
   41DMPC  OS11 1851   3.438   0.992   2.405
   41DMPC   C12 1852   3.327   1.009   2.492
   41DMPC   C13 1853   3.330   0.916   2.615
   41DMPC  OS14 1854   3.208   0.927   2.695
   41DMPC   C15 1855   3.121   0.822   2.694
   41DMPC   O16 1856   3.117   0.737   2.605
   41DMPC   C17 1857   3.014   0.843   2.799
   41DMPC   C18 1858   2.884   0.769   2.766
   41DMPC   C19 1859   2.783   0.786   2.880
   41DMPC   C20 1860   2.648   0.724   2.846
   41DMPC   C21 1861   2.549   0.742   2.962
   41DMPC   C22 1862   2.524   0.891   2.989
   41DMPC   C23 1863   2.417   0.912   3.097
   41DMPC   C24 1864   2.462   0.857   3.232
   41DMPC   C25 1865   2.359   0.890   3.341
   41DMPC   C26 1866   2.400   0.829   3.476
   41DMPC   C27 1867   2.372   0.678   3.480
   41DMPC   C28 1868   2.223   0.650   3.496
   41DMPC   C29 1869   2.195   0.499   3.498
   41DMPC   C30 1870   3.460   0.950   2.691
   41DMPC  OS31 1871   3.491   0.863   2.802
   41DMPC   C32 1872   3.597   0.898   2.880
   41DMPC   O33 1873   3.684   0.979   2.847
   41DMPC   C34 1874   3.609   0.801   2.996
   41DMPC   C35 1875   3.732   0.829   3.083
   41DMPC   C36 1876   3.759   0.712   3.178
   41DMPC   C37 1877   3.884   0.737   3.262
   41DMPC   C38 1878   3.924   0.612   3.342
   41DMPC   C39 1879   3.821   0.578   3.450
   41DMPC   C40 1880   3.866   0.458   3.533
   41DMPC   C41 1881   3.766   0.429   3.646
   41DMPC   C42 1882   3.818   0.317   3.737
   41DMPC   C43 1883   3.724   0.295   3.856
   41DMPC   C44 1884   3.781   0.192   3.953
   41DMPC   C45 1885   3.690   0.174   4.074
   41DMPC   C46 1886   3.747   0.070   4.171
   42DMPC    C1 1887   4.219   1.337   1.881
   42DMPC    C2 1888   4.290   1.560   1.920
   42DMPC    C3 1889   4.262   1.413   2.104
   42DMPC    N4 1890   4.207   1.452   1.973
   42DMPC    C5 1891   4.068   1.501   1.983
   42DMPC    C6 1892   3.957   1.407   2.038
   42DMPC   OS7 1893   3.823   1.448   2.007
   42DMPC    P8 1894   3.717   1.339   2.051
   42DMPC   OM9 1895   3.775   1.212   2.006
   42DMPC  OM10 1896   3.593   1.389   1.993
   42DMPC  OS11 1897   3.727   1.355   2.207
   42DMPC   C12 1898   3.611   1.415   2.263
   42DMPC   C13 1899   3.627   1.439   2.415
   42DMPC  OS14 1900   3.504   1.471   2.485
   42DMPC   C15 1901   3.477   1.386   2.588
   42DMPC   O16 1902   3.548   1.288   2.613
   42DMPC   C17 1903   3.354   1.428   2.666
   42DMPC   C18 1904   3.301   1.312   2.750
   42DMPC   C19 1905   3.188   1.356   2.842
   42DMPC   C20 1906   3.130   1.237   2.919
   42DMPC   C21 1907   3.232   1.175   3.016
   42DMPC   C22 1908   3.166   1.063   3.096
   42DMPC   C23 1909   3.061   1.121   3.191
   42DMPC   C24 1910   2.977   1.012   3.258
   42DMPC   C25 1911   3.060   0.926   3.354
   42DMPC   C26 1912   2.968   0.832   3.433
   42DMPC   C27 1913   2.893   0.736   3.340
   42DMPC   C28 1914   2.799   0.646   3.420
   42DMPC   C29 1915   2.720   0.554   3.326
   42DMPC   C30 1916   3.744   1.537   2.432
   42DMPC  OS31 1917   3.737   1.657   2.353
   42DMPC   C32 1918   3.854   1.724   2.335
   42DMPC   O33 1919   3.963   1.682   2.374
   42DMPC   C34 1920   3.833   1.846   2.247
   42DMPC   C35 1921   3.953   1.940   2.252
   42DMPC   C36 1922   3.956   2.019   2.383
   42DMPC   C37 1923   4.080   2.108   2.390
   42DMPC   C38 1924   4.082   2.188   2.520
   42DMPC   C39 1925   4.096   2.097   2.642
   42DMPC   C40 1926   4.102   2.181   2.770
   42DMPC   C41 1927   3.969   2.252   2.794
   42DMPC   C42 1928   3.983   2.354   2.908
   42DMPC   C43 1929   4.014   2.286   3.041
   42DMPC   C44 1930   4.033   2.390   3.151
   42DMPC   C45 1931   4.068   2.324   3.284
   42DMPC   C46 1932   4.091   2.429   3.393
   43DMPC    C1 1933   4.126   0.006   1.419
   43DMPC    C2 1934   4.048   5.469   1.615
   43DMPC    C3 1935   4.259   5.410   1.518
   43DMPC    N4 1936   4.168   5.521   1.547
   43DMPC    C5 1937   4.233   0.054   1.627
   43DMPC    C6 1938   4.310   0.019   1.756
   43DMPC   OS7 1939   4.234   5.535   1.863
   43DMPC    P8 1940   4.318   5.420   1.929
   43DMPC   OM9 1941   4.319   5.316   1.826
   43DMPC  OM10 1942   4.443   5.485   1.974
   43DMPC  OS11 1943   4.222   5.384   2.047
   43DMPC   C12 1944   4.229   5.481   2.151
   43DMPC   C13 1945   4.128   5.459   2.264
   43DMPC  OS14 1946   4.105   0.006   2.341
   43DMPC   C15 1947   4.005   0.087   2.298
   43DMPC   O16 1948   3.949   0.071   2.189
   43DMPC   C17 1949   3.986   0.206   2.391
   43DMPC   C18 1950   3.933   0.160   2.527
   43DMPC   C19 1951   3.787   0.115   2.515
   43DMPC   C20 1952   3.733   0.069   2.651
   43DMPC   C21 1953   3.801   5.513   2.695
   43DMPC   C22 1954   3.746   5.466   2.829
   43DMPC   C23 1955   3.816   5.338   2.875
   43DMPC   C24 1956   3.764   5.293   3.011
   43DMPC   C25 1957   3.839   5.170   3.061
   43DMPC   C26 1958   3.787   5.126   3.198
   43DMPC   C27 1959   3.866   5.007   3.252
   43DMPC   C28 1960   3.815   4.965   3.389
   43DMPC   C29 1961   3.898   4.849   3.445
   43DMPC   C30 1962   4.175   5.331   2.338
   43DMPC  OS31 1963   4.135   5.315   2.476
   43DMPC   C32 1964   4.222   5.370   2.566
   43DMPC   O33 1965   4.335   5.409   2.535
   43DMPC   C34 1966   4.173   5.354   2.709
   43DMPC   C35 1967   4.294   5.339   2.802
   43DMPC   C36 1968   4.253   5.319   2.948
   43DMPC   C37 1969   4.378   5.293   3.033
   43DMPC   C38 1970   4.342   5.288   3.181
   43DMPC   C39 1971   4.264   5.161   3.219
   43DMPC   C40 1972   4.357   5.042   3.241
   43DMPC   C41 1973   4.279   4.925   3.301
   43DMPC   C42 1974   4.371   4.811   3.343
   43DMPC   C43 1975   4.291   4.701   3.414
   43DMPC   C44 1976   4.383   4.589   3.463
   43DMPC   C45 1977   4.303   4.482   3.538
   43DMPC   C46 1978   4.395   4.370   3.588
   44DMPC    C1 1979   0.387   0.786   1.868
   44DMPC    C2 1980   0.397   0.955   2.035
   44DMPC    C3 1981   0.442   0.731   2.091
   44DMPC    N4 1982   0.357   0.817   2.008
   44DMPC    C5 1983   0.215   0.792   2.040
   44DMPC    C6 1984   0.108   0.877   1.968
   44DMPC   OS7 1985   5.627   0.831   1.988
   44DMPC    P8 1986   5.520   0.931   1.932
   44DMPC   OM9 1987   5.457   0.865   1.817
   44DMPC  OM10 1988   5.574   1.067   1.918
   44DMPC  OS11 1989   5.417   0.926   2.050
   44DMPC   C12 1990   5.451   1.020   2.151
   44DMPC   C13 1991   5.348   1.035   2.264
   44DMPC  OS14 1992   5.368   1.157   2.339
   44DMPC   C15 1993   5.292   1.265   2.305
   44DMPC   O16 1994   5.199   1.259   2.223
   44DMPC   C17 1995   5.338   1.391   2.377
   44DMPC   C18 1996   5.257   1.417   2.504
   44DMPC   C19 1997   5.300   1.325   2.619
   44DMPC   C20 1998   5.203   1.340   2.737
   44DMPC   C21 1999   5.067   1.283   2.697
   44DMPC   C22 2000   4.966   1.291   2.812
   44DMPC   C23 2001   4.836   1.223   2.770
   44DMPC   C24 2002   4.734   1.221   2.884
   44DMPC   C25 2003   4.608   1.147   2.840
   44DMPC   C26 2004   4.637   0.998   2.818
   44DMPC   C27 2005   4.512   0.926   2.768
   44DMPC   C28 2006   4.537   0.776   2.750
   44DMPC   C29 2007   4.556   0.707   2.885
   44DMPC   C30 2008   5.350   0.902   2.343
   44DMPC  OS31 2009   5.476   0.862   2.399
   44DMPC   C32 2010   5.503   0.729   2.406
   44DMPC   O33 2011   5.441   0.641   2.344
   44DMPC   C34 2012   5.633   0.704   2.481
   44DMPC   C35 2013   5.614   0.720   2.632
   44DMPC   C36 2014   5.522   0.611   2.687
   44DMPC   C37 2015   5.502   0.620   2.838
   44DMPC   C38 2016   5.387   0.528   2.879
   44DMPC   C39 2017   5.356   0.529   3.029
   44DMPC   C40 2018   5.453   0.442   3.109
   44DMPC   C41 2019   5.402   0.428   3.252
   44DMPC   C42 2020   5.489   0.333   3.336
   44DMPC   C43 2021   5.427   0.314   3.475
   44DMPC   C44 2022   5.514   0.227   3.565
   44DMPC   C45 2023   5.645   0.299   3.600
   44DMPC   C46 2024   0.074   0.220   3.703
   45DMPC    C1 2025   4.442   0.633   2.017
   45DMPC    C2 2026   4.495   0.782   1.837
   45DMPC    C3 2027   4.665   0.657   1.941
   45DMPC    N4 2028   4.540   0.730   1.966
   45DMPC    C5 2029   4.566   0.841   2.061
   45DMPC    C6 2030   4.444   0.919   2.118
   45DMPC   OS7 2031   4.478   1.040   2.184
   45DMPC    P8 2032   4.367   1.078   2.289
   45DMPC   OM9 2033   4.238   1.064   2.221
   45DMPC  OM10 2034   4.400   1.000   2.409
   45DMPC  OS11 2035   4.403   1.228   2.309
   45DMPC   C12 2036   4.521   1.250   2.387
   45DMPC   C13 2037   4.549   1.400   2.404
   45DMPC  OS14 2038   4.685   1.432   2.443
   45DMPC   C15 2039   4.760   1.493   2.347
   45DMPC   O16 2040   4.714   1.524   2.237
   45DMPC   C17 2041   4.898   1.532   2.398
   45DMPC   C18 2042   4.894   1.674   2.455
   45DMPC   C19 2043   5.035   1.733   2.461
   45DMPC   C20 2044   5.036   1.875   2.518
   45DMPC   C21 2045   5.174   1.937   2.496
   45DMPC   C22 2046   5.188   2.074   2.563
   45DMPC   C23 2047   5.324   2.135   2.528
   45DMPC   C24 2048   5.352   2.263   2.607
   45DMPC   C25 2049   5.378   2.230   2.754
   45DMPC   C26 2050   5.421   2.354   2.831
   45DMPC   C27 2051   5.445   2.321   2.979
   45DMPC   C28 2052   5.489   2.445   3.056
   45DMPC   C29 2053   5.506   2.414   3.204
   45DMPC   C30 2054   4.436   1.459   2.490
   45DMPC  OS31 2055   4.408   1.393   2.615
   45DMPC   C32 2056   4.314   1.454   2.693
   45DMPC   O33 2057   4.264   1.563   2.667
   45DMPC   C34 2058   4.288   1.374   2.820
   45DMPC   C35 2059   4.161   1.422   2.890
   45DMPC   C36 2060   4.124   1.331   3.007
   45DMPC   C37 2061   4.083   1.193   2.957
   45DMPC   C38 2062   4.036   1.102   3.071
   45DMPC   C39 2063   4.151   1.061   3.163
   45DMPC   C40 2064   4.248   0.966   3.093
   45DMPC   C41 2065   4.362   0.925   3.187
   45DMPC   C42 2066   4.447   1.045   3.227
   45DMPC   C43 2067   4.565   1.004   3.314
   45DMPC   C44 2068   4.668   0.925   3.232
   45DMPC   C45 2069   4.789   0.886   3.317
   45DMPC   C46 2070   4.893   0.813   3.232
   46DMPC    C1 2071   1.291   1.264   1.137
   46DMPC    C2 2072   1.359   1.480   1.208
   46DMPC    C3 2073   1.410   1.293   1.343
   46DMPC    N4 2074   1.308   1.351   1.255
   46DMPC    C5 2075   1.180   1.374   1.325
   46DMPC    C6 2076   1.100   1.253   1.379
   46DMPC   OS7 2077   0.977   1.287   1.443
   46DMPC    P8 2078   0.955   1.185   1.560
   46DMPC   OM9 2079   1.069   1.211   1.648
   46DMPC  OM10 2080   0.931   1.056   1.493
   46DMPC  OS11 2081   0.821   1.249   1.609
   46DMPC   C12 2082   0.845   1.356   1.701
   46DMPC   C13 2083   0.716   1.417   1.757
   46DMPC  OS14 2084   0.737   1.546   1.822
   46DMPC   C15 2085   0.627   1.626   1.824
   46DMPC   O16 2086   0.530   1.606   1.749
   46DMPC   C17 2087   0.647   1.751   1.909
   46DMPC   C18 2088   0.564   1.741   2.037
   46DMPC   C19 2089   0.628   1.644   2.137
   46DMPC   C20 2090   0.539   1.625   2.260
   46DMPC   C21 2091   0.525   1.755   2.339
   46DMPC   C22 2092   0.445   1.733   2.467
   46DMPC   C23 2093   0.526   1.649   2.567
   46DMPC   C24 2094   0.446   1.626   2.696
   46DMPC   C25 2095   0.530   1.553   2.801
   46DMPC   C26 2096   0.452   1.534   2.931
   46DMPC   C27 2097   0.539   1.469   3.038
   46DMPC   C28 2098   0.466   1.457   3.171
   46DMPC   C29 2099   0.354   1.353   3.164
   46DMPC   C30 2100   0.653   1.308   1.846
   46DMPC  OS31 2101   0.729   1.278   1.965
   46DMPC   C32 2102   0.654   1.236   2.070
   46DMPC   O33 2103   0.531   1.234   2.071
   46DMPC   C34 2104   0.741   1.208   2.191
   46DMPC   C35 2105   0.663   1.228   2.321
   46DMPC   C36 2106   0.754   1.216   2.443
   46DMPC   C37 2107   0.675   1.238   2.571
   46DMPC   C38 2108   0.576   1.123   2.593
   46DMPC   C39 2109   0.495   1.143   2.721
   46DMPC   C40 2110   0.400   1.025   2.742
   46DMPC   C41 2111   0.310   1.047   2.864
   46DMPC   C42 2112   0.213   0.930   2.880
   46DMPC   C43 2113   0.108   0.960   2.987
   46DMPC   C44 2114   0.171   0.968   3.126
   46DMPC   C45 2115   0.064   1.000   3.230
   46DMPC   C46 2116   5.612   0.888   3.236
   47DMPC    C1 2117   5.106   3.515   1.150
   47DMPC    C2 2118   5.163   3.438   1.367
   47DMPC    C3 2119   5.332   3.455   1.195
   47DMPC    N4 2120   5.211   3.517   1.253
   47DMPC    C5 2121   5.234   3.658   1.293
   47DMPC    C6 2122   5.335   3.689   1.406
   47DMPC   OS7 2123   5.333   3.826   1.449
   47DMPC    P8 2124   5.437   3.852   1.564
   47DMPC   OM9 2125   5.541   3.748   1.568
   47DMPC  OM10 2126   5.470   3.995   1.571
   47DMPC  OS11 2127   5.345   3.820   1.685
   47DMPC   C12 2128   5.412   3.850   1.806
   47DMPC   C13 2129   5.324   3.843   1.931
   47DMPC  OS14 2130   5.394   3.894   2.048
   47DMPC   C15 2131   5.335   4.001   2.109
   47DMPC   O16 2132   5.243   4.063   2.055
   47DMPC   C17 2133   5.414   4.047   2.231
   47DMPC   C18 2134   5.373   3.969   2.356
   47DMPC   C19 2135   5.464   4.006   2.473
   47DMPC   C20 2136   5.426   3.927   2.599
   47DMPC   C21 2137   5.525   3.954   2.712
   47DMPC   C22 2138   5.514   4.098   2.762
   47DMPC   C23 2139   5.612   4.122   2.877
   47DMPC   C24 2140   5.576   4.037   2.999
   47DMPC   C25 2141   0.022   4.060   3.114
   47DMPC   C26 2142   5.637   3.973   3.234
   47DMPC   C27 2143   0.083   3.993   3.349
   47DMPC   C28 2144   0.047   3.905   3.469
   47DMPC   C29 2145   0.145   3.926   3.584
   47DMPC   C30 2146   5.270   3.699   1.940
   47DMPC  OS31 2147   5.192   3.665   2.057
   47DMPC   C32 2148   5.257   3.585   2.145
   47DMPC   O33 2149   5.356   3.517   2.117
   47DMPC   C34 2150   5.169   3.561   2.267
   47DMPC   C35 2151   5.248   3.565   2.398
   47DMPC   C36 2152   5.154   3.542   2.516
   47DMPC   C37 2153   5.226   3.557   2.650
   47DMPC   C38 2154   5.127   3.539   2.765
   47DMPC   C39 2155   5.195   3.565   2.900
   47DMPC   C40 2156   5.237   3.711   2.908
   47DMPC   C41 2157   5.303   3.744   3.042
   47DMPC   C42 2158   5.202   3.740   3.157
   47DMPC   C43 2159   5.268   3.790   3.286
   47DMPC   C44 2160   5.166   3.801   3.399
   47DMPC   C45 2161   5.231   3.861   3.524
   47DMPC   C46 2162   5.270   4.007   3.499
   48DMPC    C1 2163   1.220   2.739   1.791
   48DMPC    C2 2164   1.043   2.855   1.895
   48DMPC    C3 2165   1.156   2.688   2.016
   48DMPC    N4 2166   1.106   2.724   1.883
   48DMPC    C5 2167   1.004   2.628   1.834
   48DMPC    C6 2168   1.037   2.477   1.831
   48DMPC   OS7 2169   1.148   2.444   1.747
   48DMPC    P8 2170   1.224   2.318   1.800
   48DMPC   OM9 2171   1.345   2.302   1.718
   48DMPC  OM10 2172   1.131   2.207   1.820
   48DMPC  OS11 2173   1.279   2.375   1.935
   48DMPC   C12 2174   1.345   2.272   2.009
   48DMPC   C13 2175   1.429   2.322   2.127
   48DMPC  OS14 2176   1.477   2.209   2.205
   48DMPC   C15 2177   1.612   2.197   2.218
   48DMPC   O16 2178   1.691   2.260   2.147
   48DMPC   C17 2179   1.646   2.080   2.307
   48DMPC   C18 2180   1.791   2.087   2.358
   48DMPC   C19 2181   1.808   2.188   2.471
   48DMPC   C20 2182   1.951   2.181   2.527
   48DMPC   C21 2183   1.976   2.046   2.593
   48DMPC   C22 2184   2.113   2.041   2.661
   48DMPC   C23 2185   2.118   2.142   2.775
   48DMPC   C24 2186   2.246   2.129   2.858
   48DMPC   C25 2187   2.253   2.241   2.962
   48DMPC   C26 2188   2.132   2.236   3.056
   48DMPC   C27 2189   2.130   2.355   3.152
   48DMPC   C28 2190   2.232   2.338   3.265
   48DMPC   C29 2191   2.186   2.231   3.363
   48DMPC   C30 2192   1.340   2.419   2.207
   48DMPC  OS31 2193   1.401   2.488   2.318
   48DMPC   C32 2194   1.320   2.576   2.382
   48DMPC   O33 2195   1.205   2.604   2.345
   48DMPC   C34 2196   1.392   2.641   2.499
   48DMPC   C35 2197   1.291   2.689   2.604
   48DMPC   C36 2198   1.234   2.570   2.680
   48DMPC   C37 2199   1.118   2.612   2.771
   48DMPC   C38 2200   1.064   2.491   2.848
   48DMPC   C39 2201   1.161   2.449   2.959
   48DMPC   C40 2202   1.160   2.551   3.073
   48DMPC   C41 2203   1.260   2.513   3.182
   48DMPC   C42 2204   1.256   2.613   3.297
   48DMPC   C43 2205   1.364   2.581   3.401
   48DMPC   C44 2206   1.503   2.603   3.341
   48DMPC   C45 2207   1.613   2.572   3.442
   48DMPC   C46 2208   1.752   2.592   3.380
   49DMPC    C1 2209   2.106   0.371   1.764
   49DMPC    C2 2210   2.308   0.447   1.663
   49DMPC    C3 2211   2.166   0.602   1.771
   49DMPC    N4 2212   2.167   0.481   1.688
   49DMPC    C5 2213   2.100   0.502   1.557
   49DMPC    C6 2214   1.948   0.529   1.550
   49DMPC   OS7 2215   1.906   0.652   1.611
   49DMPC    P8 2216   1.749   0.663   1.621
   49DMPC   OM9 2217   1.730   0.789   1.693
   49DMPC  OM10 2218   1.707   0.646   1.481
   49DMPC  OS11 2219   1.720   0.536   1.709
   49DMPC   C12 2220   1.665   0.565   1.838
   49DMPC   C13 2221   1.629   0.436   1.915
   49DMPC  OS14 2222   1.541   0.455   2.029
   49DMPC   C15 2223   1.409   0.427   2.015
   49DMPC   O16 2224   1.354   0.415   1.905
   49DMPC   C17 2225   1.340   0.426   2.150
   49DMPC   C18 2226   1.249   0.547   2.172
   49DMPC   C19 2227   1.223   0.563   2.322
   49DMPC   C20 2228   1.148   0.693   2.353
   49DMPC   C21 2229   1.139   0.712   2.504
   49DMPC   C22 2230   1.058   0.836   2.542
   49DMPC   C23 2231   1.051   0.847   2.694
   49DMPC   C24 2232   0.954   0.956   2.739
   49DMPC   C25 2233   0.934   0.947   2.891
   49DMPC   C26 2234   0.818   1.036   2.937
   49DMPC   C27 2235   0.788   1.011   3.085
   49DMPC   C28 2236   0.664   1.088   3.130
   49DMPC   C29 2237   0.633   1.060   3.277
   49DMPC   C30 2238   1.762   0.367   1.949
   49DMPC  OS31 2239   1.841   0.423   2.056
   49DMPC   C32 2240   1.921   0.333   2.120
   49DMPC   O33 2241   1.978   0.240   2.061
   49DMPC   C34 2242   1.966   0.384   2.256
   49DMPC   C35 2243   1.855   0.365   2.360
   49DMPC   C36 2244   1.912   0.361   2.503
   49DMPC   C37 2245   1.985   0.229   2.525
   49DMPC   C38 2246   2.046   0.215   2.665
   49DMPC   C39 2247   1.941   0.202   2.775
   49DMPC   C40 2248   2.007   0.147   2.902
   49DMPC   C41 2249   1.909   0.136   3.020
   49DMPC   C42 2250   1.880   0.274   3.079
   49DMPC   C43 2251   1.796   0.266   3.206
   49DMPC   C44 2252   1.781   0.405   3.269
   49DMPC   C45 2253   1.699   0.401   3.397
   49DMPC   C46 2254   1.686   0.541   3.459
   50DMPC    C1 2255   1.525   0.363   1.498
   50DMPC    C2 2256   1.532   0.216   1.306
   50DMPC    C3 2257   1.341   0.227   1.446
   50DMPC    N4 2258   1.488   0.232   1.445
   50DMPC    C5 2259   1.537   0.122   1.532
   50DMPC    C6 2260   1.688   0.101   1.553
   50DMPC   OS7 2261   1.716   0.007   1.655
   50DMPC    P8 2262   1.865   0.013   1.701
   50DMPC   OM9 2263   1.947   5.516   1.602
   50DMPC  OM10 2264   1.888   0.155   1.733
   50DMPC  OS11 2265   1.852   5.502   1.832
   50DMPC   C12 2266   1.783   0.002   1.931
   50DMPC   C13 2267   1.739   5.501   2.058
   50DMPC  OS14 2268   1.687   0.022   2.155
   50DMPC   C15 2269   1.571   5.562   2.217
   50DMPC   O16 2270   1.492   5.480   2.168
   50DMPC   C17 2271   1.535   0.093   2.321
   50DMPC   C18 2272   1.514   0.031   2.458
   50DMPC   C19 2273   1.478   0.138   2.562
   50DMPC   C20 2274   1.456   0.075   2.699
   50DMPC   C21 2275   1.417   0.180   2.802
   50DMPC   C22 2276   1.280   0.238   2.769
   50DMPC   C23 2277   1.239   0.347   2.868
   50DMPC   C24 2278   1.106   0.409   2.825
   50DMPC   C25 2279   1.070   0.530   2.912
   50DMPC   C26 2280   1.034   0.489   3.055
   50DMPC   C27 2281   0.988   0.612   3.133
   50DMPC   C28 2282   0.942   0.576   3.274
   50DMPC   C29 2283   0.883   0.698   3.344
   50DMPC   C30 2284   1.864   5.426   2.108
   50DMPC  OS31 2285   1.841   5.334   2.217
   50DMPC   C32 2286   1.940   5.328   2.310
   50DMPC   O33 2287   2.055   5.370   2.292
   50DMPC   C34 2288   1.895   5.239   2.425
   50DMPC   C35 2289   1.977   5.262   2.552
   50DMPC   C36 2290   1.945   5.398   2.615
   50DMPC   C37 2291   1.803   5.406   2.671
   50DMPC   C38 2292   1.787   5.325   2.800
   50DMPC   C39 2293   1.651   5.355   2.863
   50DMPC   C40 2294   1.630   5.281   2.995
   50DMPC   C41 2295   1.505   5.333   3.065
   50DMPC   C42 2296   1.523   5.480   3.106
   50DMPC   C43 2297   1.402   5.532   3.183
   50DMPC   C44 2298   1.420   0.105   3.221
   50DMPC   C45 2299   1.301   0.156   3.302
   50DMPC   C46 2300   1.315   0.305   3.335
   51DMPC    C1 2301   4.918   1.027   5.158
   51DMPC    C2 2302   5.012   1.217   5.052
   51DMPC    C3 2303   5.048   1.179   5.286
   51DMPC    N4 2304   4.951   1.169   5.176
   51DMPC    C5 2305   4.825   1.242   5.207
   51DMPC    C6 2306   4.829   1.394   5.236
   51DMPC   OS7 2307   4.702   1.459   5.228
   51DMPC    P8 2308   4.708   1.614   5.256
   51DMPC   OM9 2309   4.848   1.657   5.271
   51DMPC  OM10 2310   4.612   1.639   5.364
   51DMPC  OS11 2311   4.647   1.656   5.118
   51DMPC   C12 2312   4.747   1.669   5.017
   51DMPC   C13 2313   4.695   1.653   4.874
   51DMPC  OS14 2314   4.804   1.643   4.779
   51DMPC   C15 2315   4.787   1.554   4.676
   51DMPC   O16 2316   4.715   1.454   4.685
   51DMPC   C17 2317   4.898   1.573   4.574
   51DMPC   C18 2318   4.888   1.713   4.512
   51DMPC   C19 2319   4.769   1.720   4.417
   51DMPC   C20 2320   4.749   1.861   4.361
   51DMPC   C21 2321   4.698   1.957   4.468
   51DMPC   C22 2322   4.658   2.090   4.403
   51DMPC   C23 2323   4.539   2.066   4.310
   51DMPC   C24 2324   4.497   2.193   4.237
   51DMPC   C25 2325   4.376   2.163   4.148
   51DMPC   C26 2326   4.256   2.126   4.236
   51DMPC   C27 2327   4.133   2.091   4.153
   51DMPC   C28 2328   4.014   2.061   4.245
   51DMPC   C29 2329   4.043   1.938   4.332
   51DMPC   C30 2330   4.596   1.769   4.852
   51DMPC  OS31 2331   4.521   1.765   4.728
   51DMPC   C32 2332   4.387   1.745   4.736
   51DMPC   O33 2333   4.320   1.756   4.839
   51DMPC   C34 2334   4.328   1.734   4.597
   51DMPC   C35 2335   4.377   1.608   4.525
   51DMPC   C36 2336   4.309   1.596   4.388
   51DMPC   C37 2337   4.348   1.466   4.316
   51DMPC   C38 2338   4.492   1.472   4.265
   51DMPC   C39 2339   4.526   1.345   4.187
   51DMPC   C40 2340   4.664   1.354   4.121
   51DMPC   C41 2341   4.776   1.358   4.224
   51DMPC   C42 2342   4.912   1.366   4.154
   51DMPC   C43 2343   5.027   1.374   4.254
   51DMPC   C44 2344   5.161   1.374   4.182
   51DMPC   C45 2345   5.278   1.377   4.280
   51DMPC   C46 2346   5.411   1.361   4.206
   52DMPC    C1 2347   0.497   2.743   5.038
   52DMPC    C2 2348   0.493   2.793   4.805
   52DMPC    C3 2349   0.657   2.645   4.892
   52DMPC    N4 2350   0.581   2.767   4.919
   52DMPC    C5 2351   0.679   2.875   4.943
   52DMPC    C6 2352   0.631   3.019   4.976
   52DMPC   OS7 2353   0.738   3.102   5.021
   52DMPC    P8 2354   0.777   3.214   4.917
   52DMPC   OM9 2355   0.867   3.305   4.990
   52DMPC  OM10 2356   0.654   3.261   4.853
   52DMPC  OS11 2357   0.860   3.130   4.815
   52DMPC   C12 2358   0.896   3.212   4.704
   52DMPC   C13 2359   0.949   3.133   4.583
   52DMPC  OS14 2360   1.001   3.218   4.477
   52DMPC   C15 2361   1.098   3.166   4.397
   52DMPC   O16 2362   1.169   3.071   4.432
   52DMPC   C17 2363   1.128   3.260   4.281
   52DMPC   C18 2364   1.136   3.182   4.149
   52DMPC   C19 2365   1.170   3.276   4.033
   52DMPC   C20 2366   1.174   3.202   3.900
   52DMPC   C21 2367   1.220   3.297   3.789
   52DMPC   C22 2368   1.226   3.232   3.651
   52DMPC   C23 2369   1.326   3.116   3.647
   52DMPC   C24 2370   1.373   3.090   3.504
   52DMPC   C25 2371   1.257   3.056   3.411
   52DMPC   C26 2372   1.307   3.044   3.267
   52DMPC   C27 2373   1.192   3.022   3.169
   52DMPC   C28 2374   1.243   3.014   3.025
   52DMPC   C29 2375   1.128   2.996   2.926
   52DMPC   C30 2376   0.837   3.036   4.541
   52DMPC  OS31 2377   0.705   3.093   4.530
   52DMPC   C32 2378   0.602   3.005   4.516
   52DMPC   O33 2379   0.615   2.882   4.525
   52DMPC   C34 2380   0.469   3.078   4.524
   52DMPC   C35 2381   0.465   3.204   4.438
   52DMPC   C36 2382   0.430   3.173   4.292
   52DMPC   C37 2383   0.427   3.302   4.210
   52DMPC   C38 2384   0.379   3.276   4.067
   52DMPC   C39 2385   0.395   3.401   3.981
   52DMPC   C40 2386   0.354   3.373   3.836
   52DMPC   C41 2387   0.391   3.491   3.746
   52DMPC   C42 2388   0.355   3.464   3.600
   52DMPC   C43 2389   0.406   3.578   3.511
   52DMPC   C44 2390   0.373   3.552   3.364
   52DMPC   C45 2391   0.430   3.662   3.275
   52DMPC   C46 2392   0.583   3.657   3.273
   53DMPC    C1 2393   5.218   4.490   5.453
   53DMPC    C2 2394   5.257   4.340   5.270
   53DMPC    C3 2395   5.437   4.460   5.366
   53DMPC    N4 2396   5.311   4.392   5.396
   53DMPC    C5 2397   5.344   4.282   5.490
   53DMPC    C6 2398   5.230   4.196   5.551
   53DMPC   OS7 2399   5.162   4.109   5.460
   53DMPC    P8 2400   5.030   4.049   5.522
   53DMPC   OM9 2401   5.053   4.034   5.667
   53DMPC  OM10 2402   4.996   3.933   5.440
   53DMPC  OS11 2403   4.936   4.172   5.496
   53DMPC   C12 2404   4.893   4.172   5.359
   53DMPC   C13 2405   4.774   4.264   5.329
   53DMPC  OS14 2406   4.729   4.248   5.192
   53DMPC   C15 2407   4.598   4.271   5.164
   53DMPC   O16 2408   4.510   4.280   5.252
   53DMPC   C17 2409   4.574   4.263   5.015
   53DMPC   C18 2410   4.427   4.278   4.979
   53DMPC   C19 2411   4.414   4.293   4.827
   53DMPC   C20 2412   4.270   4.321   4.786
   53DMPC   C21 2413   4.264   4.368   4.641
   53DMPC   C22 2414   4.298   4.257   4.543
   53DMPC   C23 2415   4.311   4.316   4.402
   53DMPC   C24 2416   4.181   4.385   4.362
   53DMPC   C25 2417   4.191   4.447   4.223
   53DMPC   C26 2418   4.058   4.510   4.183
   53DMPC   C27 2419   4.059   4.557   4.037
   53DMPC   C28 2420   4.151   4.677   4.017
   53DMPC   C29 2421   4.141   4.726   3.872
   53DMPC   C30 2422   4.816   4.407   5.368
   53DMPC  OS31 2423   4.924   4.467   5.293
   53DMPC   C32 2424   4.886   4.556   5.198
   53DMPC   O33 2425   4.771   4.600   5.186
   53DMPC   C34 2426   5.009   4.616   5.130
   53DMPC   C35 2427   4.984   4.661   4.986
   53DMPC   C36 2428   4.987   4.541   4.890
   53DMPC   C37 2429   4.996   4.588   4.745
   53DMPC   C38 2430   5.020   4.469   4.652
   53DMPC   C39 2431   5.043   4.510   4.507
   53DMPC   C40 2432   5.073   4.387   4.423
   53DMPC   C41 2433   5.093   4.421   4.275
   53DMPC   C42 2434   5.113   4.293   4.193
   53DMPC   C43 2435   5.117   4.323   4.044
   53DMPC   C44 2436   5.135   4.195   3.961
   53DMPC   C45 2437   5.273   4.134   3.984
   53DMPC   C46 2438   5.294   4.010   3.898
   54DMPC    C1 2439   2.112   2.240   5.100
   54DMPC    C2 2440   2.326   2.272   4.999
   54DMPC    C3 2441   2.293   2.321   5.230
   54DMPC    N4 2442   2.231   2.327   5.098
   54DMPC    C5 2443   2.189   2.465   5.064
   54DMPC    C6 2444   2.294   2.578   5.054
   54DMPC   OS7 2445   2.386   2.563   4.947
   54DMPC    P8 2446   2.493   2.678   4.934
   54DMPC   OM9 2447   2.604   2.626   4.854
   54DMPC  OM10 2448   2.516   2.731   5.069
   54DMPC  OS11 2449   2.405   2.781   4.855
   54DMPC   C12 2450   2.406   2.753   4.715
   54DMPC   C13 2451   2.300   2.830   4.634
   54DMPC  OS14 2452   2.288   2.779   4.498
   54DMPC   C15 2453   2.163   2.761   4.448
   54DMPC   O16 2454   2.060   2.795   4.509
   54DMPC   C17 2455   2.170   2.694   4.312
   54DMPC   C18 2456   2.035   2.665   4.247
   54DMPC   C19 2457   1.974   2.788   4.180
   54DMPC   C20 2458   1.861   2.749   4.085
   54DMPC   C21 2459   1.735   2.704   4.158
   54DMPC   C22 2460   1.633   2.650   4.058
   54DMPC   C23 2461   1.593   2.759   3.957
   54DMPC   C24 2462   1.500   2.704   3.849
   54DMPC   C25 2463   1.359   2.677   3.903
   54DMPC   C26 2464   1.286   2.809   3.931
   54DMPC   C27 2465   1.145   2.783   3.985
   54DMPC   C28 2466   1.150   2.724   4.126
   54DMPC   C29 2467   1.009   2.705   4.182
   54DMPC   C30 2468   2.332   2.980   4.650
   54DMPC  OS31 2469   2.463   3.023   4.607
   54DMPC   C32 2470   2.502   3.145   4.650
   54DMPC   O33 2471   2.447   3.209   4.740
   54DMPC   C34 2472   2.634   3.185   4.585
   54DMPC   C35 2473   2.619   3.204   4.434
   54DMPC   C36 2474   2.755   3.232   4.372
   54DMPC   C37 2475   2.749   3.246   4.220
   54DMPC   C38 2476   2.891   3.259   4.164
   54DMPC   C39 2477   2.895   3.275   4.012
   54DMPC   C40 2478   2.859   3.145   3.940
   54DMPC   C41 2479   2.882   3.160   3.789
   54DMPC   C42 2480   2.782   3.257   3.726
   54DMPC   C43 2481   2.641   3.196   3.722
   54DMPC   C44 2482   2.542   3.292   3.656
   54DMPC   C45 2483   2.403   3.230   3.651
   54DMPC   C46 2484   2.400   3.107   3.560
   55DMPC    C1 2485   5.601   4.830   5.403
   55DMPC    C2 2486   5.637   5.001   5.562
   55DMPC    C3 2487   5.437   4.998   5.432
   55DMPC    N4 2488   5.582   4.973   5.429
   55DMPC    C5 2489   0.001   5.050   5.324
   55DMPC    C6 2490   0.007   5.205   5.323
   55DMPC   OS7 2491   5.541   5.275   5.279
   55DMPC    P8 2492   5.581   5.417   5.222
   55DMPC   OM9 2493   5.592   5.501   5.342
   55DMPC  OM10 2494   0.045   5.395   5.135
   55DMPC  OS11 2495   5.451   5.445   5.138
   55DMPC   C12 2496   5.455   5.382   5.010
   55DMPC   C13 2497   5.323   5.388   4.931
   55DMPC  OS14 2498   5.317   5.295   4.820
   55DMPC   C15 2499   5.269   5.170   4.841
   55DMPC   O16 2500   5.242   5.126   4.954
   55DMPC   C17 2501   5.271   5.089   4.713
   55DMPC   C18 2502   5.329   4.949   4.737
   55DMPC   C19 2503   5.346   4.873   4.605
   55DMPC   C20 2504   5.418   4.740   4.631
   55DMPC   C21 2505   5.443   4.661   4.503
   55DMPC   C22 2506   5.538   4.735   4.410
   55DMPC   C23 2507   5.587   4.644   4.297
   55DMPC   C24 2508   5.471   4.598   4.208
   55DMPC   C25 2509   5.522   4.507   4.097
   55DMPC   C26 2510   5.584   4.380   4.155
   55DMPC   C27 2511   5.629   4.283   4.045
   55DMPC   C28 2512   0.093   4.340   3.963
   55DMPC   C29 2513   0.139   4.238   3.858
   55DMPC   C30 2514   5.299   5.535   4.893
   55DMPC  OS31 2515   5.390   0.018   4.798
   55DMPC   C32 2516   5.349   0.136   4.745
   55DMPC   O33 2517   5.252   0.199   4.788
   55DMPC   C34 2518   5.442   0.188   4.636
   55DMPC   C35 2519   5.439   0.096   4.514
   55DMPC   C36 2520   5.482   0.169   4.387
   55DMPC   C37 2521   5.630   0.208   4.387
   55DMPC   C38 2522   0.014   0.269   4.251
   55DMPC   C39 2523   0.164   0.300   4.240
   55DMPC   C40 2524   0.198   0.345   4.098
   55DMPC   C41 2525   0.347   0.372   4.082
   55DMPC   C42 2526   0.381   0.408   3.937
   55DMPC   C43 2527   0.320   0.543   3.898
   55DMPC   C44 2528   0.355   0.577   3.753
   55DMPC   C45 2529   0.506   0.600   3.738
   55DMPC   C46 2530   0.542   0.635   3.593
   56DMPC    C1 2531   3.974   0.714   5.081
   56DMPC    C2 2532   4.006   0.884   4.914
   56DMPC    C3 2533   4.179   0.836   5.066
   56DMPC    N4 2534   4.033   0.846   5.053
   56DMPC    C5 2535   3.984   0.951   5.146
   56DMPC    C6 2536   3.832   0.973   5.168
   56DMPC   OS7 2537   3.755   1.010   5.053
   56DMPC    P8 2538   3.693   1.155   5.067
   56DMPC   OM9 2539   3.673   1.188   5.209
   56DMPC  OM10 2540   3.584   1.171   4.971
   56DMPC  OS11 2541   3.817   1.238   5.021
   56DMPC   C12 2542   3.820   1.265   4.881
   56DMPC   C13 2543   3.930   1.367   4.844
   56DMPC  OS14 2544   3.917   1.416   4.708
   56DMPC   C15 2545   3.915   1.551   4.690
   56DMPC   O16 2546   3.906   1.630   4.785
   56DMPC   C17 2547   3.914   1.590   4.543
   56DMPC   C18 2548   3.904   1.468   4.451
   56DMPC   C19 2549   3.925   1.510   4.305
   56DMPC   C20 2550   3.812   1.600   4.255
   56DMPC   C21 2551   3.845   1.666   4.121
   56DMPC   C22 2552   3.840   1.569   4.003
   56DMPC   C23 2553   3.877   1.645   3.875
   56DMPC   C24 2554   3.864   1.560   3.749
   56DMPC   C25 2555   3.717   1.523   3.722
   56DMPC   C26 2556   3.698   1.464   3.583
   56DMPC   C27 2557   3.769   1.329   3.567
   56DMPC   C28 2558   3.743   1.272   3.427
   56DMPC   C29 2559   3.810   1.136   3.408
   56DMPC   C30 2560   4.064   1.299   4.878
   56DMPC  OS31 2561   4.097   1.185   4.795
   56DMPC   C32 2562   4.194   1.209   4.701
   56DMPC   O33 2563   4.275   1.302   4.709
   56DMPC   C34 2564   4.202   1.096   4.601
   56DMPC   C35 2565   4.334   1.099   4.524
   56DMPC   C36 2566   4.336   0.995   4.412
   56DMPC   C37 2567   4.475   0.989   4.348
   56DMPC   C38 2568   4.481   0.894   4.229
   56DMPC   C39 2569   4.409   0.952   4.107
   56DMPC   C40 2570   4.433   0.867   3.983
   56DMPC   C41 2571   4.373   0.933   3.859
   56DMPC   C42 2572   4.409   0.859   3.731
   56DMPC   C43 2573   4.344   0.721   3.725
   56DMPC   C44 2574   4.372   0.654   3.591
   56DMPC   C45 2575   4.300   0.519   3.581
   56DMPC   C46 2576   4.326   0.454   3.445
   57DMPC    C1 2577   0.316   0.332   5.301
   57DMPC    C2 2578   0.409   0.186   5.461
   57DMPC    C3 2579   0.216   0.116   5.341
   57DMPC    N4 2580   0.282   0.231   5.404
   57DMPC    C5 2581   0.198   0.286   5.514
   57DMPC    C6 2582   0.059   0.347   5.484
   57DMPC   OS7 2583   0.065   0.475   5.418
   57DMPC    P8 2584   5.587   0.506   5.335
   57DMPC   OM9 2585   5.603   0.647   5.296
   57DMPC  OM10 2586   5.473   0.464   5.417
   57DMPC  OS11 2587   5.622   0.406   5.220
   57DMPC   C12 2588   5.629   0.469   5.093
   57DMPC   C13 2589   0.049   0.386   4.985
   57DMPC  OS14 2590   0.058   0.458   4.860
   57DMPC   C15 2591   0.182   0.479   4.808
   57DMPC   O16 2592   0.284   0.470   4.877
   57DMPC   C17 2593   0.170   0.558   4.679
   57DMPC   C18 2594   0.299   0.564   4.597
   57DMPC   C19 2595   0.286   0.673   4.491
   57DMPC   C20 2596   0.407   0.678   4.397
   57DMPC   C21 2597   0.406   0.807   4.314
   57DMPC   C22 2598   0.287   0.815   4.218
   57DMPC   C23 2599   0.278   0.954   4.156
   57DMPC   C24 2600   0.157   0.970   4.065
   57DMPC   C25 2601   0.135   1.118   4.029
   57DMPC   C26 2602   0.008   1.139   3.948
   57DMPC   C27 2603   0.027   1.107   3.799
   57DMPC   C28 2604   0.110   1.216   3.730
   57DMPC   C29 2605   0.122   1.189   3.580
   57DMPC   C30 2606   5.625   0.251   4.980
   57DMPC  OS31 2607   0.024   0.150   4.891
   57DMPC   C32 2608   0.129   0.074   4.930
   57DMPC   O33 2609   0.202   0.098   5.026
   57DMPC   C34 2610   0.158   5.541   4.826
   57DMPC   C35 2611   0.193   0.027   4.690
   57DMPC   C36 2612   0.332   0.093   4.693
   57DMPC   C37 2613   0.371   0.145   4.555
   57DMPC   C38 2614   0.510   0.210   4.559
   57DMPC   C39 2615   0.550   0.261   4.421
   57DMPC   C40 2616   0.684   0.335   4.427
   57DMPC   C41 2617   0.722   0.393   4.291
   57DMPC   C42 2618   0.762   0.283   4.191
   57DMPC   C43 2619   0.793   0.344   4.055
   57DMPC   C44 2620   0.834   0.238   3.953
   57DMPC   C45 2621   0.857   0.300   3.815
   57DMPC   C46 2622   0.899   0.194   3.713
   58DMPC    C1 2623   2.896   2.771   4.915
   58DMPC    C2 2624   2.821   2.814   4.694
   58DMPC    C3 2625   2.936   2.609   4.745
   58DMPC    N4 2626   2.930   2.754   4.773
   58DMPC    C5 2627   3.056   2.822   4.738
   58DMPC    C6 2628   3.184   2.800   4.822
   58DMPC   OS7 2629   3.230   2.666   4.824
   58DMPC    P8 2630   3.287   2.629   4.965
   58DMPC   OM9 2631   3.176   2.658   5.059
   58DMPC  OM10 2632   3.419   2.692   4.981
   58DMPC  OS11 2633   3.299   2.476   4.940
   58DMPC   C12 2634   3.397   2.443   4.842
   58DMPC   C13 2635   3.395   2.295   4.803
   58DMPC  OS14 2636   3.512   2.251   4.728
   58DMPC   C15 2637   3.542   2.119   4.743
   58DMPC   O16 2638   3.486   2.048   4.828
   58DMPC   C17 2639   3.662   2.076   4.660
   58DMPC   C18 2640   3.652   1.928   4.625
   58DMPC   C19 2641   3.541   1.907   4.522
   58DMPC   C20 2642   3.525   1.760   4.485
   58DMPC   C21 2643   3.425   1.748   4.370
   58DMPC   C22 2644   3.480   1.827   4.251
   58DMPC   C23 2645   3.392   1.813   4.127
   58DMPC   C24 2646   3.451   1.900   4.015
   58DMPC   C25 2647   3.373   1.883   3.885
   58DMPC   C26 2648   3.392   1.743   3.828
   58DMPC   C27 2649   3.321   1.730   3.694
   58DMPC   C28 2650   3.386   1.824   3.592
   58DMPC   C29 2651   3.311   1.819   3.458
   58DMPC   C30 2652   3.257   2.273   4.737
   58DMPC  OS31 2653   3.238   2.330   4.606
   58DMPC   C32 2654   3.240   2.242   4.502
   58DMPC   O33 2655   3.244   2.119   4.517
   58DMPC   C34 2656   3.217   2.310   4.368
   58DMPC   C35 2657   3.151   2.210   4.274
   58DMPC   C36 2658   3.119   2.270   4.137
   58DMPC   C37 2659   3.245   2.296   4.055
   58DMPC   C38 2660   3.207   2.336   3.912
   58DMPC   C39 2661   3.331   2.356   3.824
   58DMPC   C40 2662   3.288   2.379   3.679
   58DMPC   C41 2663   3.224   2.252   3.622
   58DMPC   C42 2664   3.165   2.277   3.483
   58DMPC   C43 2665   3.100   2.150   3.428
   58DMPC   C44 2666   3.029   2.177   3.296
   58DMPC   C45 2667   2.907   2.266   3.319
   58DMPC   C46 2668   2.834   2.296   3.188
   59DMPC    C1 2669   1.661   5.454   5.275
   59DMPC    C2 2670   1.765   5.503   5.481
   59DMPC    C3 2671   1.576   5.361   5.479
   59DMPC    N4 2672   1.635   5.480   5.417
   59DMPC    C5 2673   1.552   0.027   5.438
   59DMPC    C6 2674   1.403   0.028   5.395
   59DMPC   OS7 2675   1.382   0.020   5.254
   59DMPC    P8 2676   1.230   0.015   5.211
   59DMPC   OM9 2677   1.227   0.066   5.074
   59DMPC  OM10 2678   1.148   0.076   5.316
   59DMPC  OS11 2679   1.211   5.433   5.213
   59DMPC   C12 2680   1.267   5.371   5.097
   59DMPC   C13 2681   1.268   5.218   5.102
   59DMPC  OS14 2682   1.355   5.162   5.000
   59DMPC   C15 2683   1.399   5.034   5.016
   59DMPC   O16 2684   1.365   4.962   5.111
   59DMPC   C17 2685   1.492   4.992   4.903
   59DMPC   C18 2686   1.464   4.849   4.857
   59DMPC   C19 2687   1.356   4.842   4.749
   59DMPC   C20 2688   1.414   4.883   4.613
   59DMPC   C21 2689   1.310   4.873   4.502
   59DMPC   C22 2690   1.371   4.909   4.367
   59DMPC   C23 2691   1.266   4.908   4.256
   59DMPC   C24 2692   1.328   4.947   4.121
   59DMPC   C25 2693   1.415   4.835   4.064
   59DMPC   C26 2694   1.328   4.718   4.016
   59DMPC   C27 2695   1.413   4.607   3.955
   59DMPC   C28 2696   1.327   4.489   3.909
   59DMPC   C29 2697   1.413   4.376   3.853
   59DMPC   C30 2698   1.120   5.173   5.100
   59DMPC  OS31 2699   1.046   5.202   4.979
   59DMPC   C32 2700   1.028   5.096   4.894
   59DMPC   O33 2701   1.043   4.978   4.926
   59DMPC   C34 2702   0.964   5.141   4.765
   59DMPC   C35 2703   0.968   5.028   4.661
   59DMPC   C36 2704   0.892   5.066   4.534
   59DMPC   C37 2705   0.886   4.951   4.434
   59DMPC   C38 2706   0.795   4.987   4.317
   59DMPC   C39 2707   0.766   4.865   4.229
   59DMPC   C40 2708   0.881   4.832   4.132
   59DMPC   C41 2709   0.848   4.702   4.058
   59DMPC   C42 2710   0.946   4.674   3.945
   59DMPC   C43 2711   0.923   4.769   3.827
   59DMPC   C44 2712   1.015   4.736   3.710
   59DMPC   C45 2713   0.986   4.829   3.591
   59DMPC   C46 2714   1.074   4.793   3.471
   60DMPC    C1 2715   4.778   0.652   5.307
   60DMPC    C2 2716   4.727   0.464   5.168
   60DMPC    C3 2717   4.667   0.465   5.399
   60DMPC    N4 2718   4.770   0.505   5.303
   60DMPC    C5 2719   4.901   0.450   5.345
   60DMPC    C6 2720   5.012   0.424   5.241
   60DMPC   OS7 2721   4.988   0.302   5.170
   60DMPC    P8 2722   5.090   0.272   5.054
   60DMPC   OM9 2723   5.052   0.132   5.029
   60DMPC  OM10 2724   5.218   0.306   5.117
   60DMPC  OS11 2725   5.025   0.378   4.957
   60DMPC   C12 2726   4.952   0.313   4.853
   60DMPC   C13 2727   4.852   0.402   4.776
   60DMPC  OS14 2728   4.757   0.322   4.700
   60DMPC   C15 2729   4.636   0.374   4.669
   60DMPC   O16 2730   4.597   0.485   4.708
   60DMPC   C17 2731   4.552   0.276   4.589
   60DMPC   C18 2732   4.604   0.267   4.445
   60DMPC   C19 2733   4.573   0.396   4.369
   60DMPC   C20 2734   4.628   0.390   4.227
   60DMPC   C21 2735   4.592   0.516   4.149
   60DMPC   C22 2736   4.647   0.506   4.007
   60DMPC   C23 2737   4.583   0.388   3.934
   60DMPC   C24 2738   4.650   0.363   3.799
   60DMPC   C25 2739   4.594   0.235   3.736
   60DMPC   C26 2740   4.672   0.196   3.611
   60DMPC   C27 2741   4.618   0.065   3.555
   60DMPC   C28 2742   4.637   5.526   3.655
   60DMPC   C29 2743   4.578   5.395   3.602
   60DMPC   C30 2744   4.934   0.505   4.696
   60DMPC  OS31 2745   5.025   0.449   4.600
   60DMPC   C32 2746   5.007   0.479   4.468
   60DMPC   O33 2747   4.931   0.567   4.426
   60DMPC   C34 2748   5.113   0.406   4.386
   60DMPC   C35 2749   5.148   0.477   4.255
   60DMPC   C36 2750   5.058   0.434   4.139
   60DMPC   C37 2751   5.102   0.504   4.010
   60DMPC   C38 2752   5.034   0.444   3.887
   60DMPC   C39 2753   5.078   0.517   3.759
   60DMPC   C40 2754   5.024   0.447   3.634
   60DMPC   C41 2755   5.065   0.521   3.507
   60DMPC   C42 2756   5.027   0.443   3.381
   60DMPC   C43 2757   4.875   0.437   3.361
   60DMPC   C44 2758   4.840   0.355   3.236
   60DMPC   C45 2759   4.891   0.423   3.109
   60DMPC   C46 2760   4.857   0.340   2.984
   61DMPC    C1 2761   3.488   1.490   5.353
   61DMPC    C2 2762   3.668   1.533   5.202
   61DMPC    C3 2763   3.479   1.676   5.204
   61DMPC    N4 2764   3.522   1.537   5.218
   61DMPC    C5 2765   3.461   1.450   5.114
   61DMPC    C6 2766   3.310   1.414   5.118
   61DMPC   OS7 2767   3.216   1.519   5.098
   61DMPC    P8 2768   3.068   1.465   5.096
   61DMPC   OM9 2769   3.018   1.499   5.230
   61DMPC  OM10 2770   3.070   1.325   5.050
   61DMPC  OS11 2771   3.026   1.567   4.985
   61DMPC   C12 2772   3.008   1.505   4.858
   61DMPC   C13 2773   3.056   1.593   4.742
   61DMPC  OS14 2774   3.001   1.558   4.612
   61DMPC   C15 2775   2.956   1.662   4.537
   61DMPC   O16 2776   2.949   1.777   4.581
   61DMPC   C17 2777   2.914   1.621   4.396
   61DMPC   C18 2778   2.832   1.734   4.333
   61DMPC   C19 2779   2.838   1.728   4.181
   61DMPC   C20 2780   2.980   1.757   4.134
   61DMPC   C21 2781   2.991   1.761   3.982
   61DMPC   C22 2782   2.924   1.885   3.924
   61DMPC   C23 2783   2.949   1.893   3.773
   61DMPC   C24 2784   2.881   1.777   3.701
   61DMPC   C25 2785   2.921   1.773   3.554
   61DMPC   C26 2786   2.846   1.663   3.480
   61DMPC   C27 2787   2.890   1.655   3.333
   61DMPC   C28 2788   3.030   1.594   3.321
   61DMPC   C29 2789   3.071   1.578   3.175
   61DMPC   C30 2790   3.211   1.594   4.750
   61DMPC  OS31 2791   3.274   1.466   4.734
   61DMPC   C32 2792   3.410   1.464   4.722
   61DMPC   O33 2793   3.485   1.550   4.769
   61DMPC   C34 2794   3.456   1.324   4.685
   61DMPC   C35 2795   3.523   1.319   4.547
   61DMPC   C36 2796   3.419   1.329   4.435
   61DMPC   C37 2797   3.487   1.317   4.298
   61DMPC   C38 2798   3.384   1.320   4.184
   61DMPC   C39 2799   3.453   1.302   4.049
   61DMPC   C40 2800   3.518   1.163   4.040
   61DMPC   C41 2801   3.596   1.146   3.909
   61DMPC   C42 2802   3.503   1.123   3.789
   61DMPC   C43 2803   3.443   0.982   3.791
   61DMPC   C44 2804   3.356   0.958   3.668
   61DMPC   C45 2805   3.439   0.948   3.540
   61DMPC   C46 2806   3.521   0.819   3.538
   62DMPC    C1 2807   1.446   2.095   4.523
   62DMPC    C2 2808   1.658   1.998   4.566
   62DMPC    C3 2809   1.510   2.051   4.746
   62DMPC    N4 2810   1.560   2.095   4.615
   62DMPC    C5 2811   1.615   2.232   4.620
   62DMPC    C6 2812   1.732   2.260   4.717
   62DMPC   OS7 2813   1.777   2.396   4.721
   62DMPC    P8 2814   1.875   2.419   4.841
   62DMPC   OM9 2815   1.821   2.349   4.959
   62DMPC  OM10 2816   1.906   2.562   4.849
   62DMPC  OS11 2817   2.003   2.342   4.792
   62DMPC   C12 2818   2.081   2.414   4.697
   62DMPC   C13 2819   2.192   2.326   4.636
   62DMPC  OS14 2820   2.307   2.401   4.588
   62DMPC   C15 2821   2.430   2.348   4.610
   62DMPC   O16 2822   2.451   2.256   4.690
   62DMPC   C17 2823   2.540   2.428   4.542
   62DMPC   C18 2824   2.502   2.464   4.398
   62DMPC   C19 2825   2.497   2.340   4.309
   62DMPC   C20 2826   2.449   2.375   4.168
   62DMPC   C21 2827   2.560   2.438   4.083
   62DMPC   C22 2828   2.666   2.334   4.046
   62DMPC   C23 2829   2.771   2.392   3.952
   62DMPC   C24 2830   2.711   2.425   3.815
   62DMPC   C25 2831   2.818   2.477   3.718
   62DMPC   C26 2832   2.875   2.611   3.765
   62DMPC   C27 2833   2.983   2.661   3.669
   62DMPC   C28 2834   3.044   2.791   3.720
   62DMPC   C29 2835   3.121   2.768   3.850
   62DMPC   C30 2836   2.121   2.233   4.536
   62DMPC  OS31 2837   2.048   2.299   4.431
   62DMPC   C32 2838   1.954   2.226   4.366
   62DMPC   O33 2839   1.901   2.125   4.413
   62DMPC   C34 2840   1.896   2.304   4.249
   62DMPC   C35 2841   1.922   2.232   4.117
   62DMPC   C36 2842   2.069   2.243   4.076
   62DMPC   C37 2843   2.096   2.167   3.946
   62DMPC   C38 2844   2.242   2.183   3.902
   62DMPC   C39 2845   2.270   2.102   3.775
   62DMPC   C40 2846   2.413   2.125   3.726
   62DMPC   C41 2847   2.442   2.040   3.603
   62DMPC   C42 2848   2.580   2.072   3.544
   62DMPC   C43 2849   2.608   1.983   3.422
   62DMPC   C44 2850   2.512   2.013   3.308
   62DMPC   C45 2851   2.538   1.920   3.189
   62DMPC   C46 2852   2.504   1.775   3.225
   63DMPC    C1 2853   4.264   0.156   5.729
   63DMPC    C2 2854   4.354   5.534   5.830
   63DMPC    C3 2855   4.170   0.072   5.930
   63DMPC    N4 2856   4.230   0.033   5.802
   63DMPC    C5 2857   4.132   5.525   5.727
   63DMPC    C6 2858   4.173   5.463   5.592
   63DMPC   OS7 2859   4.062   5.413   5.516
   63DMPC    P8 2860   4.107   5.361   5.375
   63DMPC   OM9 2861   4.224   5.276   5.401
   63DMPC  OM10 2862   3.982   5.307   5.320
   63DMPC  OS11 2863   4.141   5.501   5.309
   63DMPC   C12 2864   4.121   5.498   5.168
   63DMPC   C13 2865   4.150   0.056   5.093
   63DMPC  OS14 2866   4.105   0.050   4.955
   63DMPC   C15 2867   4.092   0.164   4.880
   63DMPC   O16 2868   4.118   0.277   4.921
   63DMPC   C17 2869   4.036   0.131   4.743
   63DMPC   C18 2870   4.059   0.246   4.645
   63DMPC   C19 2871   3.976   0.229   4.518
   63DMPC   C20 2872   3.998   0.345   4.421
   63DMPC   C21 2873   4.135   0.336   4.353
   63DMPC   C22 2874   4.162   0.462   4.270
   63DMPC   C23 2875   4.057   0.479   4.160
   63DMPC   C24 2876   4.080   0.609   4.083
   63DMPC   C25 2877   3.967   0.634   3.983
   63DMPC   C26 2878   3.986   0.767   3.911
   63DMPC   C27 2879   3.870   0.794   3.815
   63DMPC   C28 2880   3.892   0.926   3.739
   63DMPC   C29 2881   4.010   0.914   3.643
   63DMPC   C30 2882   4.300   0.086   5.115
   63DMPC  OS31 2883   4.392   5.569   5.051
   63DMPC   C32 2884   4.513   0.050   5.019
   63DMPC   O33 2885   4.547   0.165   5.049
   63DMPC   C34 2886   4.600   5.521   4.948
   63DMPC   C35 2887   4.709   0.012   4.863
   63DMPC   C36 2888   4.790   5.479   4.790
   63DMPC   C37 2889   4.894   5.538   4.694
   63DMPC   C38 2890   4.966   5.426   4.620
   63DMPC   C39 2891   5.065   5.478   4.515
   63DMPC   C40 2892   5.127   5.360   4.439
   63DMPC   C41 2893   5.227   5.407   4.333
   63DMPC   C42 2894   5.157   5.484   4.221
   63DMPC   C43 2895   5.256   5.531   4.114
   63DMPC   C44 2896   5.185   0.033   4.003
   63DMPC   C45 2897   5.284   0.084   3.898
   63DMPC   C46 2898   5.374   0.193   3.957
   64DMPC    C1 2899   1.394   3.417   5.432
   64DMPC    C2 2900   1.617   3.395   5.355
   64DMPC    C3 2901   1.516   3.612   5.372
   64DMPC    N4 2902   1.493   3.471   5.337
   64DMPC    C5 2903   1.440   3.459   5.200
   64DMPC    C6 2904   1.524   3.504   5.077
   64DMPC   OS7 2905   1.633   3.417   5.044
   64DMPC    P8 2906   1.719   3.471   4.926
   64DMPC   OM9 2907   1.860   3.432   4.945
   64DMPC  OM10 2908   1.682   3.606   4.882
   64DMPC  OS11 2909   1.667   3.367   4.821
   64DMPC   C12 2910   1.742   3.374   4.701
   64DMPC   C13 2911   1.799   3.239   4.653
   64DMPC  OS14 2912   1.885   3.252   4.537
   64DMPC   C15 2913   2.019   3.232   4.555
   64DMPC   O16 2914   2.069   3.216   4.666
   64DMPC   C17 2915   2.096   3.243   4.424
   64DMPC   C18 2916   2.008   3.210   4.304
   64DMPC   C19 2917   2.087   3.218   4.173
   64DMPC   C20 2918   2.187   3.103   4.162
   64DMPC   C21 2919   2.262   3.108   4.029
   64DMPC   C22 2920   2.351   2.984   4.011
   64DMPC   C23 2921   2.459   2.979   4.118
   64DMPC   C24 2922   2.559   2.866   4.094
   64DMPC   C25 2923   2.666   2.865   4.203
   64DMPC   C26 2924   2.779   2.767   4.171
   64DMPC   C27 2925   2.888   2.776   4.278
   64DMPC   C28 2926   3.005   2.682   4.247
   64DMPC   C29 2927   3.114   2.694   4.353
   64DMPC   C30 2928   1.678   3.144   4.633
   64DMPC  OS31 2929   1.586   3.178   4.528
   64DMPC   C32 2930   1.610   3.117   4.408
   64DMPC   O33 2931   1.645   2.999   4.399
   64DMPC   C34 2932   1.547   3.197   4.295
   64DMPC   C35 2933   1.592   3.142   4.160
   64DMPC   C36 2934   1.585   3.250   4.053
   64DMPC   C37 2935   1.617   3.194   3.914
   64DMPC   C38 2936   1.757   3.133   3.908
   64DMPC   C39 2937   1.787   3.085   3.766
   64DMPC   C40 2938   1.916   3.004   3.759
   64DMPC   C41 2939   1.945   2.962   3.615
   64DMPC   C42 2940   2.058   2.859   3.608
   64DMPC   C43 2941   2.013   2.725   3.666
   64DMPC   C44 2942   2.118   2.616   3.645
   64DMPC   C45 2943   2.244   2.644   3.727
   64DMPC   C46 2944   2.348   2.534   3.704
   65DMPC    C1 2945   3.299   0.070   5.042
   65DMPC    C2 2946   3.183   5.530   5.212
   65DMPC    C3 2947   3.222   0.193   5.230
   65DMPC    N4 2948   3.279   0.064   5.187
   65DMPC    C5 2949   3.403   0.034   5.263
   65DMPC    C6 2950   3.535   0.107   5.230
   65DMPC   OS7 2951   3.592   0.060   5.108
   65DMPC    P8 2952   3.736   0.112   5.078
   65DMPC   OM9 2953   3.806   0.127   5.207
   65DMPC  OM10 2954   3.783   0.016   4.976
   65DMPC  OS11 2955   3.698   0.248   5.010
   65DMPC   C12 2956   3.651   0.224   4.878
   65DMPC   C13 2957   3.608   0.345   4.794
   65DMPC  OS14 2958   3.568   0.300   4.662
   65DMPC   C15 2959   3.436   0.283   4.636
   65DMPC   O16 2960   3.348   0.290   4.723
   65DMPC   C17 2961   3.418   0.236   4.492
   65DMPC   C18 2962   3.277   0.257   4.437
   65DMPC   C19 2963   3.273   0.210   4.292
   65DMPC   C20 2964   3.287   0.058   4.284
   65DMPC   C21 2965   3.311   0.010   4.141
   65DMPC   C22 2966   3.190   0.034   4.051
   65DMPC   C23 2967   3.220   5.562   3.908
   65DMPC   C24 2968   3.329   0.074   3.844
   65DMPC   C25 2969   3.366   0.021   3.706
   65DMPC   C26 2970   3.435   5.458   3.717
   65DMPC   C27 2971   3.466   5.399   3.579
   65DMPC   C28 2972   3.338   5.360   3.505
   65DMPC   C29 2973   3.268   5.242   3.574
   65DMPC   C30 2974   3.725   0.445   4.795
   65DMPC  OS31 2975   3.713   0.556   4.704
   65DMPC   C32 2976   3.827   0.625   4.678
   65DMPC   O33 2977   3.929   0.617   4.747
   65DMPC   C34 2978   3.807   0.723   4.564
   65DMPC   C35 2979   3.942   0.773   4.513
   65DMPC   C36 2980   3.928   0.848   4.380
   65DMPC   C37 2981   3.850   0.979   4.395
   65DMPC   C38 2982   3.843   1.051   4.260
   65DMPC   C39 2983   3.981   1.100   4.218
   65DMPC   C40 2984   3.978   1.165   4.079
   65DMPC   C41 2985   4.117   1.217   4.041
   65DMPC   C42 2986   4.117   1.274   3.899
   65DMPC   C43 2987   4.256   1.329   3.863
   65DMPC   C44 2988   4.258   1.383   3.720
   65DMPC   C45 2989   4.242   1.269   3.618
   65DMPC   C46 2990   4.245   1.323   3.475
   66DMPC    C1 2991   3.210   3.990   5.393
   66DMPC    C2 2992   3.040   4.066   5.247
   66DMPC    C3 2993   3.231   3.958   5.156
   66DMPC    N4 2994   3.185   4.050   5.262
   66DMPC    C5 2995   3.247   4.184   5.250
   66DMPC    C6 2996   3.401   4.199   5.250
   66DMPC   OS7 2997   3.444   4.335   5.236
   66DMPC    P8 2998   3.595   4.347   5.192
   66DMPC   OM9 2999   3.630   4.224   5.119
   66DMPC  OM10 3000   3.664   4.386   5.316
   66DMPC  OS11 3001   3.573   4.469   5.095
   66DMPC   C12 3002   3.557   4.425   4.960
   66DMPC   C13 3003   3.498   4.525   4.859
   66DMPC  OS14 3004   3.466   4.461   4.733
   66DMPC   C15 3005   3.345   4.489   4.679
   66DMPC   O16 3006   3.257   4.549   4.741
   66DMPC   C17 3007   3.324   4.411   4.550
   66DMPC   C18 3008   3.184   4.433   4.492
   66DMPC   C19 3009   3.182   4.545   4.388
   66DMPC   C20 3010   3.246   4.496   4.258
   66DMPC   C21 3011   3.239   4.603   4.148
   66DMPC   C22 3012   3.093   4.641   4.122
   66DMPC   C23 3013   3.080   4.735   4.002
   66DMPC   C24 3014   2.939   4.794   3.997
   66DMPC   C25 3015   2.919   4.885   3.876
   66DMPC   C26 3016   2.794   4.971   3.895
   66DMPC   C27 3017   2.668   4.886   3.906
   66DMPC   C28 3018   2.545   4.973   3.931
   66DMPC   C29 3019   2.419   4.887   3.945
   66DMPC   C30 3020   3.595   4.646   4.851
   66DMPC  OS31 3021   3.728   4.621   4.802
   66DMPC   C32 3022   3.804   4.732   4.782
   66DMPC   O33 3023   3.778   4.844   4.824
   66DMPC   C34 3024   3.936   4.697   4.715
   66DMPC   C35 3025   3.980   4.813   4.627
   66DMPC   C36 3026   4.113   4.787   4.557
   66DMPC   C37 3027   4.145   4.901   4.460
   66DMPC   C38 3028   4.280   4.882   4.392
   66DMPC   C39 3029   4.305   4.992   4.289
   66DMPC   C40 3030   4.440   4.973   4.220
   66DMPC   C41 3031   4.456   5.072   4.105
   66DMPC   C42 3032   4.353   5.041   3.997
   66DMPC   C43 3033   4.362   5.138   3.878
   66DMPC   C44 3034   4.249   5.108   3.779
   66DMPC   C45 3035   4.248   5.208   3.664
   66DMPC   C46 3036   4.127   5.183   3.573
   67DMPC    C1 3037   3.393   3.350   5.347
   67DMPC    C2 3038   3.175   3.402   5.428
   67DMPC    C3 3039   3.365   3.442   5.568
   67DMPC    N4 3040   3.316   3.445   5.429
   67DMPC    C5 3041   3.321   3.583   5.375
   67DMPC    C6 3042   3.458   3.650   5.353
   67DMPC   OS7 3043   3.450   3.791   5.340
   67DMPC    P8 3044   3.587   3.855   5.297
   67DMPC   OM9 3045   3.600   3.977   5.378
   67DMPC  OM10 3046   3.695   3.757   5.291
   67DMPC  OS11 3047   3.544   3.892   5.151
   67DMPC   C12 3048   3.656   3.896   5.064
   67DMPC   C13 3049   3.621   3.891   4.915
   67DMPC  OS14 3050   3.741   3.894   4.833
   67DMPC   C15 3051   3.747   3.812   4.725
   67DMPC   O16 3052   3.680   3.709   4.715
   67DMPC   C17 3053   3.873   3.842   4.646
   67DMPC   C18 3054   3.840   3.885   4.503
   67DMPC   C19 3055   3.967   3.931   4.429
   67DMPC   C20 3056   3.932   3.978   4.288
   67DMPC   C21 3057   4.056   4.027   4.213
   67DMPC   C22 3058   4.020   4.074   4.072
   67DMPC   C23 3059   4.144   4.126   3.998
   67DMPC   C24 3060   4.109   4.172   3.856
   67DMPC   C25 3061   4.067   4.053   3.770
   67DMPC   C26 3062   4.030   4.097   3.629
   67DMPC   C27 3063   3.982   3.977   3.546
   67DMPC   C28 3064   3.938   4.021   3.406
   67DMPC   C29 3065   3.817   4.114   3.414
   67DMPC   C30 3066   3.525   4.010   4.894
   67DMPC  OS31 3067   3.442   4.004   4.777
   67DMPC   C32 3068   3.323   4.071   4.783
   67DMPC   O33 3069   3.288   4.145   4.876
   67DMPC   C34 3070   3.244   4.047   4.656
   67DMPC   C35 3071   3.338   4.005   4.543
   67DMPC   C36 3072   3.265   3.996   4.409
   67DMPC   C37 3073   3.362   3.948   4.300
   67DMPC   C38 3074   3.294   3.943   4.163
   67DMPC   C39 3075   3.267   4.083   4.108
   67DMPC   C40 3076   3.208   4.074   3.967
   67DMPC   C41 3077   3.191   4.212   3.905
   67DMPC   C42 3078   3.134   4.199   3.764
   67DMPC   C43 3079   3.119   4.336   3.697
   67DMPC   C44 3080   3.064   4.320   3.555
   67DMPC   C45 3081   3.049   4.455   3.486
   67DMPC   C46 3082   2.993   4.436   3.344
   68DMPC    C1 3083   4.400   2.840   5.371
   68DMPC    C2 3084   4.367   2.825   5.135
   68DMPC    C3 3085   4.186   2.888   5.279
   68DMPC    N4 3086   4.304   2.802   5.266
   68DMPC    C5 3087   4.260   2.661   5.281
   68DMPC    C6 3088   4.359   2.546   5.253
   68DMPC   OS7 3089   4.473   2.541   5.339
   68DMPC    P8 3090   4.576   2.431   5.293
   68DMPC   OM9 3091   4.494   2.314   5.260
   68DMPC  OM10 3092   4.671   2.433   5.405
   68DMPC  OS11 3093   4.632   2.500   5.164
   68DMPC   C12 3094   4.731   2.600   5.191
   68DMPC   C13 3095   4.803   2.653   5.066
   68DMPC  OS14 3096   4.715   2.723   4.973
   68DMPC   C15 3097   4.773   2.819   4.897
   68DMPC   O16 3098   4.889   2.857   4.916
   68DMPC   C17 3099   4.677   2.876   4.794
   68DMPC   C18 3100   4.752   2.941   4.678
   68DMPC   C19 3101   4.655   2.985   4.568
   68DMPC   C20 3102   4.565   3.099   4.615
   68DMPC   C21 3103   4.463   3.137   4.507
   68DMPC   C22 3104   4.362   3.024   4.484
   68DMPC   C23 3105   4.252   3.066   4.387
   68DMPC   C24 3106   4.152   2.953   4.366
   68DMPC   C25 3107   4.033   2.996   4.280
   68DMPC   C26 3108   4.077   3.029   4.137
   68DMPC   C27 3109   3.956   3.065   4.050
   68DMPC   C28 3110   3.889   3.192   4.102
   68DMPC   C29 3111   3.773   3.235   4.011
   68DMPC   C30 3112   4.874   2.532   5.003
   68DMPC  OS31 3113   4.976   2.471   5.085
   68DMPC   C32 3114   5.037   2.364   5.026
   68DMPC   O33 3115   5.131   2.304   5.080
   68DMPC   C34 3116   4.979   2.333   4.888
   68DMPC   C35 3117   5.053   2.215   4.825
   68DMPC   C36 3118   4.975   2.160   4.705
   68DMPC   C37 3119   4.981   2.254   4.585
   68DMPC   C38 3120   5.117   2.249   4.516
   68DMPC   C39 3121   5.114   2.330   4.386
   68DMPC   C40 3122   5.013   2.269   4.288
   68DMPC   C41 3123   5.001   2.352   4.161
   68DMPC   C42 3124   4.886   2.300   4.075
   68DMPC   C43 3125   4.867   2.386   3.950
   68DMPC   C44 3126   4.740   2.345   3.876
   68DMPC   C45 3127   4.751   2.202   3.823
   68DMPC   C46 3128   4.623   2.161   3.749
   69DMPC    C1 3129   5.205   1.976   5.067
   69DMPC    C2 3130   5.243   2.019   5.296
   69DMPC    C3 3131   5.065   1.876   5.233
   69DMPC    N4 3132   5.203   1.916   5.200
   69DMPC    C5 3133   5.298   1.803   5.209
   69DMPC    C6 3134   5.270   1.672   5.130
   69DMPC   OS7 3135   5.387   1.593   5.111
   69DMPC    P8 3136   5.354   1.441   5.083
   69DMPC   OM9 3137   5.252   1.400   5.180
   69DMPC  OM10 3138   5.483   1.372   5.074
   69DMPC  OS11 3139   5.288   1.452   4.941
   69DMPC   C12 3140   5.385   1.460   4.836
   69DMPC   C13 3141   5.328   1.488   4.696
   69DMPC  OS14 3142   5.279   1.624   4.676
   69DMPC   C15 3143   5.367   1.724   4.648
   69DMPC   O16 3144   5.489   1.715   4.661
   69DMPC   C17 3145   5.291   1.853   4.621
   69DMPC   C18 3146   5.320   1.904   4.479
   69DMPC   C19 3147   5.249   1.820   4.373
   69DMPC   C20 3148   5.290   1.867   4.233
   69DMPC   C21 3149   5.232   1.781   4.121
   69DMPC   C22 3150   5.089   1.820   4.083
   69DMPC   C23 3151   5.047   1.741   3.958
   69DMPC   C24 3152   4.916   1.790   3.897
   69DMPC   C25 3153   4.794   1.752   3.981
   69DMPC   C26 3154   4.665   1.795   3.910
   69DMPC   C27 3155   4.541   1.754   3.990
   69DMPC   C28 3156   4.413   1.794   3.915
   69DMPC   C29 3157   4.289   1.750   3.993
   69DMPC   C30 3158   5.219   1.383   4.671
   69DMPC  OS31 3159   5.264   1.248   4.654
   69DMPC   C32 3160   5.166   1.160   4.621
   69DMPC   O33 3161   5.048   1.193   4.606
   69DMPC   C34 3162   5.220   1.020   4.601
   69DMPC   C35 3163   5.140   0.943   4.495
   69DMPC   C36 3164   5.174   0.994   4.355
   69DMPC   C37 3165   5.096   0.920   4.246
   69DMPC   C38 3166   5.132   0.976   4.108
   69DMPC   C39 3167   5.053   0.908   3.997
   69DMPC   C40 3168   4.903   0.936   4.011
   69DMPC   C41 3169   4.824   0.873   3.896
   69DMPC   C42 3170   4.841   0.952   3.766
   69DMPC   C43 3171   4.766   1.085   3.771
   69DMPC   C44 3172   4.777   1.160   3.638
   69DMPC   C45 3173   4.696   1.290   3.640
   69DMPC   C46 3174   4.758   1.392   3.736
   70DMPC    C1 3175   1.539   4.075   4.838
   70DMPC    C2 3176   1.382   4.179   4.988
   70DMPC    C3 3177   1.612   4.177   5.041
   70DMPC    N4 3178   1.504   4.098   4.979
   70DMPC    C5 3179   1.489   3.973   5.057
   70DMPC    C6 3180   1.385   3.868   5.009
   70DMPC   OS7 3181   1.348   3.772   5.108
   70DMPC    P8 3182   1.204   3.797   5.165
   70DMPC   OM9 3183   1.188   3.942   5.184
   70DMPC  OM10 3184   1.188   3.705   5.278
   70DMPC  OS11 3185   1.122   3.751   5.041
   70DMPC   C12 3186   1.108   3.609   5.036
   70DMPC   C13 3187   1.068   3.551   4.899
   70DMPC  OS14 3188   1.174   3.560   4.799
   70DMPC   C15 3189   1.251   3.449   4.778
   70DMPC   O16 3190   1.265   3.360   4.863
   70DMPC   C17 3191   1.341   3.468   4.657
   70DMPC   C18 3192   1.415   3.602   4.663
   70DMPC   C19 3193   1.506   3.618   4.541
   70DMPC   C20 3194   1.580   3.752   4.543
   70DMPC   C21 3195   1.678   3.760   4.425
   70DMPC   C22 3196   1.791   3.659   4.444
   70DMPC   C23 3197   1.892   3.663   4.330
   70DMPC   C24 3198   1.835   3.606   4.200
   70DMPC   C25 3199   1.943   3.601   4.092
   70DMPC   C26 3200   1.891   3.538   3.963
   70DMPC   C27 3201   2.004   3.525   3.861
   70DMPC   C28 3202   1.954   3.457   3.733
   70DMPC   C29 3203   2.068   3.441   3.631
   70DMPC   C30 3204   0.933   3.616   4.863
   70DMPC  OS31 3205   0.870   3.559   4.747
   70DMPC   C32 3206   0.740   3.590   4.726
   70DMPC   O33 3207   0.666   3.645   4.808
   70DMPC   C34 3208   0.695   3.535   4.592
   70DMPC   C35 3209   0.795   3.579   4.485
   70DMPC   C36 3210   0.758   3.532   4.344
   70DMPC   C37 3211   0.856   3.594   4.245
   70DMPC   C38 3212   0.826   3.556   4.100
   70DMPC   C39 3213   0.920   3.631   4.006
   70DMPC   C40 3214   0.899   3.590   3.861
   70DMPC   C41 3215   0.990   3.670   3.767
   70DMPC   C42 3216   0.973   3.621   3.623
   70DMPC   C43 3217   1.059   3.702   3.526
   70DMPC   C44 3218   1.050   3.642   3.385
   70DMPC   C45 3219   1.118   3.505   3.381
   70DMPC   C46 3220   1.112   3.444   3.242
   71DMPC    C1 3221   2.859   1.779   5.265
   71DMPC    C2 3222   2.879   1.883   5.052
   71DMPC    C3 3223   2.967   1.990   5.245
   71DMPC    N4 3224   2.856   1.908   5.195
   71DMPC    C5 3225   2.730   1.983   5.220
   71DMPC    C6 3226   2.594   1.920   5.181
   71DMPC   OS7 3227   2.478   1.994   5.220
   71DMPC    P8 3228   2.347   1.918   5.179
   71DMPC   OM9 3229   2.365   1.772   5.190
   71DMPC  OM10 3230   2.237   1.983   5.250
   71DMPC  OS11 3231   2.335   1.963   5.029
   71DMPC   C12 3232   2.255   1.869   4.957
   71DMPC   C13 3233   2.217   1.906   4.813
   71DMPC  OS14 3234   2.127   1.806   4.759
   71DMPC   C15 3235   2.013   1.850   4.701
   71DMPC   O16 3236   1.961   1.958   4.733
   71DMPC   C17 3237   1.938   1.732   4.642
   71DMPC   C18 3238   1.995   1.691   4.506
   71DMPC   C19 3239   1.947   1.787   4.396
   71DMPC   C20 3240   1.981   1.732   4.258
   71DMPC   C21 3241   1.919   1.817   4.148
   71DMPC   C22 3242   1.943   1.753   4.011
   71DMPC   C23 3243   1.878   1.836   3.900
   71DMPC   C24 3244   1.897   1.770   3.763
   71DMPC   C25 3245   1.829   1.853   3.654
   71DMPC   C26 3246   1.902   1.986   3.634
   71DMPC   C27 3247   1.830   2.075   3.532
   71DMPC   C28 3248   1.697   2.127   3.588
   71DMPC   C29 3249   1.721   2.228   3.701
   71DMPC   C30 3250   2.348   1.925   4.733
   71DMPC  OS31 3251   2.328   1.955   4.593
   71DMPC   C32 3252   2.414   1.894   4.507
   71DMPC   O33 3253   2.521   1.843   4.540
   71DMPC   C34 3254   2.374   1.921   4.363
   71DMPC   C35 3255   2.400   1.797   4.277
   71DMPC   C36 3256   2.363   1.822   4.131
   71DMPC   C37 3257   2.376   1.694   4.048
   71DMPC   C38 3258   2.335   1.720   3.903
   71DMPC   C39 3259   2.335   1.591   3.821
   71DMPC   C40 3260   2.294   1.619   3.676
   71DMPC   C41 3261   2.290   1.491   3.593
   71DMPC   C42 3262   2.259   1.522   3.446
   71DMPC   C43 3263   2.265   1.394   3.362
   71DMPC   C44 3264   2.253   1.426   3.213
   71DMPC   C45 3265   2.275   1.300   3.129
   71DMPC   C46 3266   2.268   1.330   2.979
   72DMPC    C1 3267   1.027   4.095   5.675
   72DMPC    C2 3268   1.152   3.976   5.509
   72DMPC    C3 3269   1.064   4.192   5.463
   72DMPC    N4 3270   1.037   4.065   5.532
   72DMPC    C5 3271   0.910   4.004   5.487
   72DMPC    C6 3272   0.897   3.942   5.346
   72DMPC   OS7 3273   0.762   3.927   5.303
   72DMPC    P8 3274   0.747   3.869   5.158
   72DMPC   OM9 3275   0.607   3.899   5.125
   72DMPC  OM10 3276   0.797   3.731   5.160
   72DMPC  OS11 3277   0.844   3.961   5.075
   72DMPC   C12 3278   0.788   4.013   4.955
   72DMPC   C13 3279   0.877   4.122   4.894
   72DMPC  OS14 3280   0.814   4.201   4.789
   72DMPC   C15 3281   0.872   4.319   4.750
   72DMPC   O16 3282   0.977   4.362   4.798
   72DMPC   C17 3283   0.789   4.388   4.643
   72DMPC   C18 3284   0.867   4.500   4.573
   72DMPC   C19 3285   0.970   4.441   4.477
   72DMPC   C20 3286   1.052   4.549   4.406
   72DMPC   C21 3287   1.155   4.482   4.315
   72DMPC   C22 3288   1.255   4.404   4.399
   72DMPC   C23 3289   1.349   4.318   4.315
   72DMPC   C24 3290   1.441   4.236   4.405
   72DMPC   C25 3291   1.529   4.141   4.325
   72DMPC   C26 3292   1.631   4.218   4.240
   72DMPC   C27 3293   1.721   4.122   4.162
   72DMPC   C28 3294   1.643   4.048   4.054
   72DMPC   C29 3295   1.734   3.952   3.977
   72DMPC   C30 3296   1.011   4.054   4.861
   72DMPC  OS31 3297   1.014   3.956   4.755
   72DMPC   C32 3298   1.129   3.956   4.683
   72DMPC   O33 3299   1.222   4.035   4.702
   72DMPC   C34 3300   1.126   3.848   4.576
   72DMPC   C35 3301   1.194   3.896   4.447
   72DMPC   C36 3302   1.207   3.781   4.348
   72DMPC   C37 3303   1.274   3.826   4.218
   72DMPC   C38 3304   1.311   3.705   4.132
   72DMPC   C39 3305   1.369   3.748   3.997
   72DMPC   C40 3306   1.419   3.626   3.920
   72DMPC   C41 3307   1.464   3.664   3.779
   72DMPC   C42 3308   1.515   3.540   3.705
   72DMPC   C43 3309   1.540   3.569   3.557
   72DMPC   C44 3310   1.584   3.441   3.485
   72DMPC   C45 3311   1.598   3.464   3.334
   72DMPC   C46 3312   1.641   3.335   3.263
   73DMPC    C1 3313   3.096   4.835   5.162
   73DMPC    C2 3314   3.276   4.846   5.314
   73DMPC    C3 3315   3.236   4.644   5.197
   73DMPC    N4 3316   3.171   4.758   5.262
   73DMPC    C5 3317   3.084   4.719   5.375
   73DMPC    C6 3318   2.984   4.601   5.364
   73DMPC   OS7 3319   2.884   4.607   5.262
   73DMPC    P8 3320   2.774   4.498   5.292
   73DMPC   OM9 3321   2.682   4.562   5.387
   73DMPC  OM10 3322   2.842   4.372   5.327
   73DMPC  OS11 3323   2.710   4.493   5.149
   73DMPC   C12 3324   2.739   4.373   5.078
   73DMPC   C13 3325   2.687   4.367   4.933
   73DMPC  OS14 3326   2.688   4.232   4.880
   73DMPC   C15 3327   2.574   4.193   4.816
   73DMPC   O16 3328   2.464   4.246   4.838
   73DMPC   C17 3329   2.592   4.054   4.755
   73DMPC   C18 3330   2.480   4.020   4.657
   73DMPC   C19 3331   2.499   4.093   4.524
   73DMPC   C20 3332   2.618   4.036   4.445
   73DMPC   C21 3333   2.637   4.113   4.314
   73DMPC   C22 3334   2.754   4.057   4.233
   73DMPC   C23 3335   2.771   4.137   4.104
   73DMPC   C24 3336   2.823   4.278   4.135
   73DMPC   C25 3337   2.813   4.369   4.012
   73DMPC   C26 3338   2.666   4.393   3.978
   73DMPC   C27 3339   2.648   4.499   3.870
   73DMPC   C28 3340   2.698   4.451   3.734
   73DMPC   C29 3341   2.670   4.556   3.626
   73DMPC   C30 3342   2.771   4.471   4.855
   73DMPC  OS31 3343   2.758   4.471   4.712
   73DMPC   C32 3344   2.680   4.567   4.653
   73DMPC   O33 3345   2.599   4.638   4.713
   73DMPC   C34 3346   2.688   4.551   4.502
   73DMPC   C35 3347   2.668   4.686   4.432
   73DMPC   C36 3348   2.796   4.769   4.437
   73DMPC   C37 3349   2.773   4.907   4.373
   73DMPC   C38 3350   2.904   4.986   4.368
   73DMPC   C39 3351   2.881   5.130   4.321
   73DMPC   C40 3352   3.016   5.197   4.295
   73DMPC   C41 3353   3.081   5.129   4.175
   73DMPC   C42 3354   3.222   5.180   4.147
   73DMPC   C43 3355   3.279   5.105   4.026
   73DMPC   C44 3356   3.425   5.142   3.999
   73DMPC   C45 3357   3.476   5.064   3.877
   73DMPC   C46 3358   3.478   4.914   3.905
   74DMPC    C1 3359   3.813   5.290   5.038
   74DMPC    C2 3360   3.819   5.058   5.081
   74DMPC    C3 3361   3.693   5.135   4.897
   74DMPC    N4 3362   3.733   5.167   5.035
   74DMPC    C5 3363   3.613   5.176   5.122
   74DMPC    C6 3364   3.505   5.282   5.087
   74DMPC   OS7 3365   3.374   5.257   5.139
   74DMPC    P8 3366   3.276   5.198   5.030
   74DMPC   OM9 3367   3.355   5.107   4.946
   74DMPC  OM10 3368   3.157   5.153   5.103
   74DMPC  OS11 3369   3.245   5.329   4.952
   74DMPC   C12 3370   3.157   5.300   4.843
   74DMPC   C13 3371   3.133   5.425   4.757
   74DMPC  OS14 3372   3.014   5.420   4.675
   74DMPC   C15 3373   2.955   5.540   4.649
   74DMPC   O16 3374   2.981   0.066   4.717
   74DMPC   C17 3375   2.842   5.527   4.550
   74DMPC   C18 3376   2.854   0.062   4.443
   74DMPC   C19 3377   2.731   0.062   4.352
   74DMPC   C20 3378   2.727   5.516   4.258
   74DMPC   C21 3379   2.596   5.517   4.179
   74DMPC   C22 3380   2.597   5.411   4.068
   74DMPC   C23 3381   2.696   5.450   3.958
   74DMPC   C24 3382   2.691   5.349   3.843
   74DMPC   C25 3383   2.787   5.388   3.731
   74DMPC   C26 3384   2.781   5.287   3.617
   74DMPC   C27 3385   2.643   5.289   3.550
   74DMPC   C28 3386   2.636   5.187   3.437
   74DMPC   C29 3387   2.497   5.186   3.372
   74DMPC   C30 3388   3.266   5.455   4.685
   74DMPC  OS31 3389   3.315   5.354   4.595
   74DMPC   C32 3390   3.437   5.379   4.540
   74DMPC   O33 3391   3.509   5.473   4.573
   74DMPC   C34 3392   3.474   5.272   4.438
   74DMPC   C35 3393   3.622   5.280   4.400
   74DMPC   C36 3394   3.711   5.215   4.506
   74DMPC   C37 3395   3.859   5.238   4.473
   74DMPC   C38 3396   3.893   5.386   4.490
   74DMPC   C39 3397   4.039   5.415   4.455
   74DMPC   C40 3398   4.064   5.409   4.304
   74DMPC   C41 3399   4.210   5.446   4.275
   74DMPC   C42 3400   4.244   5.441   4.126
   74DMPC   C43 3401   4.180   5.556   4.048
   74DMPC   C44 3402   4.228   5.554   3.903
   74DMPC   C45 3403   4.163   0.093   3.822
   74DMPC   C46 3404   4.209   0.230   3.871
   75DMPC    C1 3405   2.330   2.904   5.282
   75DMPC    C2 3406   2.183   3.089   5.256
   75DMPC    C3 3407   2.241   2.960   5.066
   75DMPC    N4 3408   2.292   3.014   5.192
   75DMPC    C5 3409   2.406   3.107   5.170
   75DMPC    C6 3410   2.535   3.057   5.101
   75DMPC   OS7 3411   2.636   3.156   5.090
   75DMPC    P8 3412   2.767   3.093   5.030
   75DMPC   OM9 3413   2.807   2.993   5.130
   75DMPC  OM10 3414   2.736   3.055   4.892
   75DMPC  OS11 3415   2.858   3.220   5.033
   75DMPC   C12 3416   2.821   3.316   4.933
   75DMPC   C13 3417   2.931   3.368   4.840
   75DMPC  OS14 3418   2.883   3.478   4.759
   75DMPC   C15 3419   2.943   3.600   4.776
   75DMPC   O16 3420   3.015   3.627   4.873
   75DMPC   C17 3421   2.885   3.703   4.680
   75DMPC   C18 3422   2.883   3.652   4.535
   75DMPC   C19 3423   3.024   3.645   4.476
   75DMPC   C20 3424   3.019   3.601   4.330
   75DMPC   C21 3425   3.160   3.585   4.272
   75DMPC   C22 3426   3.154   3.540   4.126
   75DMPC   C23 3427   3.293   3.514   4.070
   75DMPC   C24 3428   3.289   3.453   3.930
   75DMPC   C25 3429   3.431   3.425   3.880
   75DMPC   C26 3430   3.431   3.349   3.747
   75DMPC   C27 3431   3.385   3.436   3.630
   75DMPC   C28 3432   3.382   3.354   3.501
   75DMPC   C29 3433   3.340   3.440   3.382
   75DMPC   C30 3434   2.981   3.246   4.760
   75DMPC  OS31 3435   3.085   3.267   4.663
   75DMPC   C32 3436   3.090   3.175   4.563
   75DMPC   O33 3437   3.019   3.074   4.559
   75DMPC   C34 3438   3.196   3.209   4.460
   75DMPC   C35 3439   3.228   3.085   4.376
   75DMPC   C36 3440   3.314   3.122   4.255
   75DMPC   C37 3441   3.350   2.999   4.172
   75DMPC   C38 3442   3.427   3.042   4.047
   75DMPC   C39 3443   3.471   2.922   3.962
   75DMPC   C40 3444   3.536   2.974   3.833
   75DMPC   C41 3445   3.585   2.860   3.743
   75DMPC   C42 3446   3.707   2.790   3.804
   75DMPC   C43 3447   3.765   2.691   3.702
   75DMPC   C44 3448   3.665   2.581   3.669
   75DMPC   C45 3449   3.718   2.492   3.556
   75DMPC   C46 3450   3.725   2.572   3.426
   76DMPC    C1 3451   3.971   3.849   5.438
   76DMPC    C2 3452   4.140   3.915   5.282
   76DMPC    C3 3453   3.990   3.740   5.226
   76DMPC    N4 3454   4.065   3.800   5.336
   76DMPC    C5 3455   4.164   3.706   5.393
   76DMPC    C6 3456   4.117   3.570   5.450
   76DMPC   OS7 3457   4.227   3.493   5.500
   76DMPC    P8 3458   4.185   3.348   5.545
   76DMPC   OM9 3459   4.283   3.305   5.645
   76DMPC  OM10 3460   4.040   3.341   5.570
   76DMPC  OS11 3461   4.218   3.280   5.406
   76DMPC   C12 3462   4.359   3.267   5.388
   76DMPC   C13 3463   4.410   3.248   5.244
   76DMPC  OS14 3464   4.553   3.226   5.238
   76DMPC   C15 3465   4.600   3.155   5.132
   76DMPC   O16 3466   4.525   3.092   5.056
   76DMPC   C17 3467   4.752   3.157   5.127
   76DMPC   C18 3468   4.800   3.203   4.989
   76DMPC   C19 3469   4.763   3.349   4.964
   76DMPC   C20 3470   4.800   3.390   4.821
   76DMPC   C21 3471   4.758   3.534   4.793
   76DMPC   C22 3472   4.790   3.573   4.649
   76DMPC   C23 3473   4.706   3.492   4.550
   76DMPC   C24 3474   4.737   3.532   4.406
   76DMPC   C25 3475   4.654   3.449   4.308
   76DMPC   C26 3476   4.685   3.488   4.163
   76DMPC   C27 3477   4.604   3.403   4.065
   76DMPC   C28 3478   4.633   3.444   3.920
   76DMPC   C29 3479   4.555   3.357   3.822
   76DMPC   C30 3480   4.368   3.373   5.165
   76DMPC  OS31 3481   4.240   3.362   5.098
   76DMPC   C32 3482   4.198   3.477   5.039
   76DMPC   O33 3483   4.231   3.589   5.080
   76DMPC   C34 3484   4.076   3.450   4.953
   76DMPC   C35 3485   4.098   3.496   4.809
   76DMPC   C36 3486   4.188   3.400   4.732
   76DMPC   C37 3487   4.204   3.451   4.588
   76DMPC   C38 3488   4.068   3.452   4.519
   76DMPC   C39 3489   4.070   3.530   4.387
   76DMPC   C40 3490   4.147   3.458   4.276
   76DMPC   C41 3491   4.126   3.534   4.145
   76DMPC   C42 3492   4.192   3.462   4.027
   76DMPC   C43 3493   4.159   3.534   3.896
   76DMPC   C44 3494   4.010   3.523   3.864
   76DMPC   C45 3495   3.975   3.597   3.735
   76DMPC   C46 3496   3.827   3.581   3.700
   77DMPC    C1 3497   2.283   3.701   5.187
   77DMPC    C2 3498   2.229   3.925   5.252
   77DMPC    C3 3499   2.405   3.810   5.358
   77DMPC    N4 3500   2.272   3.794   5.300
   77DMPC    C5 3501   2.182   3.743   5.407
   77DMPC    C6 3502   2.038   3.698   5.372
   77DMPC   OS7 3503   1.950   3.797   5.318
   77DMPC    P8 3504   1.845   3.730   5.222
   77DMPC   OM9 3505   1.840   3.585   5.239
   77DMPC  OM10 3506   1.724   3.814   5.230
   77DMPC  OS11 3507   1.927   3.759   5.092
   77DMPC   C12 3508   1.870   3.864   5.015
   77DMPC   C13 3509   1.947   3.899   4.888
   77DMPC  OS14 3510   1.888   4.014   4.822
   77DMPC   C15 3511   1.973   4.117   4.796
   77DMPC   O16 3512   2.065   4.148   4.874
   77DMPC   C17 3513   1.908   4.213   4.698
   77DMPC   C18 3514   1.998   4.234   4.577
   77DMPC   C19 3515   2.003   4.109   4.489
   77DMPC   C20 3516   2.100   4.129   4.373
   77DMPC   C21 3517   2.106   4.005   4.283
   77DMPC   C22 3518   2.207   4.025   4.170
   77DMPC   C23 3519   2.205   3.904   4.076
   77DMPC   C24 3520   2.305   3.920   3.961
   77DMPC   C25 3521   2.268   4.038   3.872
   77DMPC   C26 3522   2.354   4.039   3.745
   77DMPC   C27 3523   2.502   4.059   3.776
   77DMPC   C28 3524   2.585   4.056   3.648
   77DMPC   C29 3525   2.734   4.075   3.676
   77DMPC   C30 3526   1.948   3.769   4.804
   77DMPC  OS31 3527   2.033   3.766   4.687
   77DMPC   C32 3528   2.163   3.733   4.706
   77DMPC   O33 3529   2.220   3.736   4.816
   77DMPC   C34 3530   2.235   3.714   4.574
   77DMPC   C35 3531   2.312   3.582   4.574
   77DMPC   C36 3532   2.401   3.567   4.451
   77DMPC   C37 3533   2.318   3.567   4.322
   77DMPC   C38 3534   2.404   3.533   4.201
   77DMPC   C39 3535   2.518   3.633   4.183
   77DMPC   C40 3536   2.593   3.608   4.052
   77DMPC   C41 3537   2.714   3.700   4.040
   77DMPC   C42 3538   2.779   3.687   3.902
   77DMPC   C43 3539   2.907   3.772   3.893
   77DMPC   C44 3540   2.962   3.771   3.750
   77DMPC   C45 3541   3.003   3.630   3.707
   77DMPC   C46 3542   3.051   3.630   3.562
   78DMPC    C1 3543   1.191   4.702   5.072
   78DMPC    C2 3544   1.086   4.491   5.077
   78DMPC    C3 3545   0.999   4.662   4.935
   78DMPC    N4 3546   1.060   4.635   5.066
   78DMPC    C5 3547   0.972   4.676   5.178
   78DMPC    C6 3548   0.944   4.827   5.197
   78DMPC   OS7 3549   0.846   4.858   5.295
   78DMPC    P8 3550   0.873   4.999   5.360
   78DMPC   OM9 3551   1.018   5.009   5.382
   78DMPC  OM10 3552   0.775   5.012   5.469
   78DMPC  OS11 3553   0.832   5.091   5.239
   78DMPC   C12 3554   0.693   5.122   5.235
   78DMPC   C13 3555   0.653   5.235   5.138
   78DMPC  OS14 3556   0.639   5.200   4.997
   78DMPC   C15 3557   0.560   5.282   4.923
   78DMPC   O16 3558   0.490   5.371   4.974
   78DMPC   C17 3559   0.562   5.247   4.776
   78DMPC   C18 3560   0.596   5.371   4.694
   78DMPC   C19 3561   0.601   5.340   4.544
   78DMPC   C20 3562   0.464   5.296   4.494
   78DMPC   C21 3563   0.466   5.283   4.341
   78DMPC   C22 3564   0.489   5.421   4.279
   78DMPC   C23 3565   0.489   5.415   4.127
   78DMPC   C24 3566   0.513   5.554   4.069
   78DMPC   C25 3567   0.508   5.553   3.916
   78DMPC   C26 3568   0.620   5.466   3.859
   78DMPC   C27 3569   0.621   5.474   3.706
   78DMPC   C28 3570   0.735   5.391   3.648
   78DMPC   C29 3571   0.746   5.412   3.497
   78DMPC   C30 3572   0.750   5.351   5.165
   78DMPC  OS31 3573   0.714   5.432   5.279
   78DMPC   C32 3574   0.766   5.558   5.272
   78DMPC   O33 3575   0.738   0.068   5.358
   78DMPC   C34 3576   0.843   0.006   5.144
   78DMPC   C35 3577   0.851   0.155   5.106
   78DMPC   C36 3578   0.923   0.171   4.973
   78DMPC   C37 3579   0.839   0.119   4.857
   78DMPC   C38 3580   0.924   0.104   4.731
   78DMPC   C39 3581   0.981   0.237   4.682
   78DMPC   C40 3582   1.068   0.214   4.558
   78DMPC   C41 3583   1.130   0.343   4.504
   78DMPC   C42 3584   1.216   0.311   4.382
   78DMPC   C43 3585   1.336   0.225   4.422
   78DMPC   C44 3586   1.419   0.181   4.301
   78DMPC   C45 3587   1.485   0.300   4.232
   78DMPC   C46 3588   1.585   0.253   4.126
   79DMPC    C1 3589   1.499   2.820   4.784
   79DMPC    C2 3590   1.663   2.902   4.937
   79DMPC    C3 3591   1.446   2.850   5.015
   79DMPC    N4 3592   1.551   2.809   4.922
   79DMPC    C5 3593   1.601   2.672   4.951
   79DMPC    C6 3594   1.501   2.555   4.964
   79DMPC   OS7 3595   1.427   2.527   4.846
   79DMPC    P8 3596   1.334   2.403   4.863
   79DMPC   OM9 3597   1.415   2.294   4.918
   79DMPC  OM10 3598   1.215   2.450   4.934
   79DMPC  OS11 3599   1.299   2.378   4.712
   79DMPC   C12 3600   1.212   2.480   4.662
   79DMPC   C13 3601   1.168   2.460   4.516
   79DMPC  OS14 3602   1.071   2.353   4.498
   79DMPC   C15 3603   0.945   2.393   4.463
   79DMPC   O16 3604   0.898   2.503   4.495
   79DMPC   C17 3605   0.862   2.274   4.418
   79DMPC   C18 3606   0.894   2.237   4.273
   79DMPC   C19 3607   0.839   2.344   4.178
   79DMPC   C20 3608   0.867   2.308   4.032
   79DMPC   C21 3609   0.810   2.415   3.938
   79DMPC   C22 3610   0.822   2.372   3.792
   79DMPC   C23 3611   0.967   2.374   3.743
   79DMPC   C24 3612   0.976   2.311   3.604
   79DMPC   C25 3613   0.894   2.389   3.501
   79DMPC   C26 3614   0.897   2.318   3.365
   79DMPC   C27 3615   0.809   2.390   3.263
   79DMPC   C28 3616   0.808   2.314   3.130
   79DMPC   C29 3617   0.723   2.386   3.025
   79DMPC   C30 3618   1.299   2.451   4.435
   79DMPC  OS31 3619   1.286   2.419   4.295
   79DMPC   C32 3620   1.395   2.358   4.241
   79DMPC   O33 3621   1.493   2.321   4.306
   79DMPC   C34 3622   1.370   2.323   4.095
   79DMPC   C35 3623   1.436   2.190   4.060
   79DMPC   C36 3624   1.361   2.073   4.124
   79DMPC   C37 3625   1.429   1.940   4.092
   79DMPC   C38 3626   1.422   1.912   3.942
   79DMPC   C39 3627   1.484   1.777   3.906
   79DMPC   C40 3628   1.404   1.662   3.966
   79DMPC   C41 3629   1.455   1.528   3.912
   79DMPC   C42 3630   1.433   1.524   3.760
   79DMPC   C43 3631   1.469   1.387   3.701
   79DMPC   C44 3632   1.456   1.391   3.549
   79DMPC   C45 3633   1.312   1.420   3.505
   79DMPC   C46 3634   1.302   1.426   3.353
   80DMPC    C1 3635   2.259   4.393   5.215
   80DMPC    C2 3636   2.247   4.592   5.081
   80DMPC    C3 3637   2.389   4.586   5.270
   80DMPC    N4 3638   2.259   4.540   5.218
   80DMPC    C5 3639   2.153   4.596   5.306
   80DMPC    C6 3640   2.005   4.552   5.286
   80DMPC   OS7 3641   1.949   4.588   5.160
   80DMPC    P8 3642   1.804   4.531   5.146
   80DMPC   OM9 3643   1.727   4.579   5.261
   80DMPC  OM10 3644   1.822   4.390   5.114
   80DMPC  OS11 3645   1.756   4.610   5.019
   80DMPC   C12 3646   1.835   4.579   4.905
   80DMPC   C13 3647   1.815   4.680   4.792
   80DMPC  OS14 3648   1.878   4.638   4.667
   80DMPC   C15 3649   1.790   4.593   4.573
   80DMPC   O16 3650   1.682   4.543   4.602
   80DMPC   C17 3651   1.865   4.574   4.442
   80DMPC   C18 3652   1.773   4.584   4.319
   80DMPC   C19 3653   1.859   4.566   4.194
   80DMPC   C20 3654   1.777   4.567   4.065
   80DMPC   C21 3655   1.871   4.548   3.946
   80DMPC   C22 3656   1.936   4.409   3.951
   80DMPC   C23 3657   2.056   4.399   3.858
   80DMPC   C24 3658   2.170   4.487   3.909
   80DMPC   C25 3659   2.223   4.435   4.043
   80DMPC   C26 3660   2.323   4.533   4.104
   80DMPC   C27 3661   2.375   4.483   4.239
   80DMPC   C28 3662   2.264   4.486   4.344
   80DMPC   C29 3663   2.318   4.443   4.481
   80DMPC   C30 3664   1.864   4.816   4.846
   80DMPC  OS31 3665   1.804   4.929   4.781
   80DMPC   C32 3666   1.880   5.012   4.705
   80DMPC   O33 3667   2.004   5.017   4.706
   80DMPC   C34 3668   1.791   5.116   4.641
   80DMPC   C35 3669   1.775   5.094   4.490
   80DMPC   C36 3670   1.677   5.195   4.432
   80DMPC   C37 3671   1.664   5.180   4.281
   80DMPC   C38 3672   1.568   5.286   4.225
   80DMPC   C39 3673   1.563   5.281   4.073
   80DMPC   C40 3674   1.466   5.385   4.018
   80DMPC   C41 3675   1.464   5.382   3.865
   80DMPC   C42 3676   1.360   5.480   3.810
   80DMPC   C43 3677   1.397   0.051   3.841
   80DMPC   C44 3678   1.294   0.147   3.782
   80DMPC   C45 3679   1.331   0.292   3.814
   80DMPC   C46 3680   1.458   0.334   3.741
   81DMPC    C1 3681   4.038   4.993   5.381
   81DMPC    C2 3682   4.033   4.818   5.544
   81DMPC    C3 3683   4.079   5.044   5.608
   81DMPC    N4 3684   3.999   4.959   5.519
   81DMPC    C5 3685   3.856   4.989   5.545
   81DMPC    C6 3686   3.748   4.897   5.484
   81DMPC   OS7 3687   3.744   4.894   5.341
   81DMPC    P8 3688   3.666   4.770   5.284
   81DMPC   OM9 3689   3.566   4.730   5.385
   81DMPC  OM10 3690   3.626   4.816   5.151
   81DMPC  OS11 3691   3.792   4.677   5.284
   81DMPC   C12 3692   3.860   4.677   5.158
   81DMPC   C13 3693   4.000   4.615   5.168
   81DMPC  OS14 3694   4.091   4.665   5.066
   81DMPC   C15 3695   4.224   4.661   5.095
   81DMPC   O16 3696   4.266   4.649   5.210
   81DMPC   C17 3697   4.306   4.702   4.974
   81DMPC   C18 3698   4.456   4.698   5.002
   81DMPC   C19 3699   4.535   4.749   4.882
   81DMPC   C20 3700   4.517   4.657   4.761
   81DMPC   C21 3701   4.590   4.710   4.638
   81DMPC   C22 3702   4.571   4.618   4.517
   81DMPC   C23 3703   4.638   4.679   4.394
   81DMPC   C24 3704   4.618   4.596   4.268
   81DMPC   C25 3705   4.696   4.464   4.275
   81DMPC   C26 3706   4.708   4.400   4.137
   81DMPC   C27 3707   4.575   4.343   4.086
   81DMPC   C28 3708   4.592   4.291   3.944
   81DMPC   C29 3709   4.696   4.178   3.939
   81DMPC   C30 3710   3.981   4.462   5.177
   81DMPC  OS31 3711   3.923   4.398   5.062
   81DMPC   C32 3712   3.953   4.266   5.045
   81DMPC   O33 3713   4.016   4.199   5.128
   81DMPC   C34 3714   3.886   4.209   4.921
   81DMPC   C35 3715   3.894   4.301   4.799
   81DMPC   C36 3716   3.796   4.252   4.693
   81DMPC   C37 3717   3.808   4.329   4.561
   81DMPC   C38 3718   3.698   4.282   4.466
   81DMPC   C39 3719   3.721   4.328   4.322
   81DMPC   C40 3720   3.608   4.277   4.233
   81DMPC   C41 3721   3.644   4.284   4.084
   81DMPC   C42 3722   3.657   4.428   4.034
   81DMPC   C43 3723   3.693   4.426   3.885
   81DMPC   C44 3724   3.713   4.567   3.830
   81DMPC   C45 3725   3.752   4.562   3.682
   81DMPC   C46 3726   3.889   4.495   3.664
   82DMPC    C1 3727   1.439   0.397   4.858
   82DMPC    C2 3728   1.448   0.289   5.071
   82DMPC    C3 3729   1.243   0.377   4.994
   82DMPC    N4 3730   1.388   0.400   4.996
   82DMPC    C5 3731   1.415   0.527   5.068
   82DMPC    C6 3732   1.554   0.592   5.054
   82DMPC   OS7 3733   1.667   0.510   5.086
   82DMPC    P8 3734   1.797   0.570   5.022
   82DMPC   OM9 3735   1.852   0.663   5.121
   82DMPC  OM10 3736   1.761   0.613   4.886
   82DMPC  OS11 3737   1.869   0.431   5.021
   82DMPC   C12 3738   1.861   0.368   4.894
   82DMPC   C13 3739   1.916   0.225   4.887
   82DMPC  OS14 3740   1.947   0.186   4.751
   82DMPC   C15 3741   2.075   0.147   4.725
   82DMPC   O16 3742   2.161   0.135   4.814
   82DMPC   C17 3743   2.100   0.122   4.578
   82DMPC   C18 3744   1.989   0.040   4.512
   82DMPC   C19 3745   2.037   5.565   4.376
   82DMPC   C20 3746   1.928   5.482   4.307
   82DMPC   C21 3747   1.985   5.403   4.190
   82DMPC   C22 3748   2.019   5.489   4.068
   82DMPC   C23 3749   1.891   5.541   4.001
   82DMPC   C24 3750   1.924   0.026   3.863
   82DMPC   C25 3751   1.800   0.089   3.800
   82DMPC   C26 3752   1.828   0.133   3.656
   82DMPC   C27 3753   1.835   0.012   3.563
   82DMPC   C28 3754   1.696   5.524   3.545
   82DMPC   C29 3755   1.701   5.400   3.456
   82DMPC   C30 3756   1.815   0.137   4.964
   82DMPC  OS31 3757   1.683   0.128   4.905
   82DMPC   C32 3758   1.656   0.008   4.847
   82DMPC   O33 3759   1.719   5.478   4.871
   82DMPC   C34 3760   1.525   0.013   4.771
   82DMPC   C35 3761   1.476   5.445   4.740
   82DMPC   C36 3762   1.369   5.449   4.631
   82DMPC   C37 3763   1.317   5.309   4.599
   82DMPC   C38 3764   1.234   5.311   4.471
   82DMPC   C39 3765   1.108   5.398   4.487
   82DMPC   C40 3766   1.029   5.400   4.356
   82DMPC   C41 3767   1.105   5.476   4.248
   82DMPC   C42 3768   1.036   5.462   4.113
   82DMPC   C43 3769   1.049   5.318   4.063
   82DMPC   C44 3770   0.981   5.301   3.927
   82DMPC   C45 3771   0.996   5.159   3.874
   82DMPC   C46 3772   1.141   5.130   3.834
   83DMPC    C1 3773   0.037   1.994   4.734
   83DMPC    C2 3774   0.191   2.175   4.777
   83DMPC    C3 3775   0.271   1.954   4.758
   83DMPC    N4 3776   0.159   2.034   4.807
   83DMPC    C5 3777   0.147   2.014   4.953
   83DMPC    C6 3778   0.022   2.067   5.028
   83DMPC   OS7 3779   0.001   2.209   5.026
   83DMPC    P8 3780   5.500   2.239   5.045
   83DMPC   OM9 3781   5.433   2.149   4.950
   83DMPC  OM10 3782   5.475   2.231   5.190
   83DMPC  OS11 3783   5.502   2.387   4.995
   83DMPC   C12 3784   5.391   2.411   4.908
   83DMPC   C13 3785   5.401   2.540   4.826
   83DMPC  OS14 3786   5.273   2.584   4.775
   83DMPC   C15 3787   5.260   2.717   4.748
   83DMPC   O16 3788   5.345   2.799   4.782
   83DMPC   C17 3789   5.128   2.748   4.679
   83DMPC   C18 3790   5.135   2.703   4.533
   83DMPC   C19 3791   5.226   2.795   4.452
   83DMPC   C20 3792   5.261   2.734   4.316
   83DMPC   C21 3793   5.342   2.830   4.229
   83DMPC   C22 3794   5.481   2.860   4.287
   83DMPC   C23 3795   5.570   2.736   4.290
   83DMPC   C24 3796   0.063   2.772   4.327
   83DMPC   C25 3797   0.145   2.646   4.351
   83DMPC   C26 3798   0.294   2.674   4.369
   83DMPC   C27 3799   0.358   2.710   4.234
   83DMPC   C28 3800   0.510   2.713   4.244
   83DMPC   C29 3801   0.573   2.740   4.107
   83DMPC   C30 3802   5.510   2.512   4.720
   83DMPC  OS31 3803   5.474   2.412   4.622
   83DMPC   C32 3804   5.570   2.378   4.532
   83DMPC   O33 3805   0.039   2.381   4.556
   83DMPC   C34 3806   5.509   2.297   4.419
   83DMPC   C35 3807   5.611   2.271   4.309
   83DMPC   C36 3808   5.551   2.185   4.197
   83DMPC   C37 3809   5.455   2.265   4.108
   83DMPC   C38 3810   5.389   2.170   4.008
   83DMPC   C39 3811   5.303   2.244   3.905
   83DMPC   C40 3812   5.228   2.142   3.818
   83DMPC   C41 3813   5.164   2.207   3.696
   83DMPC   C42 3814   5.087   2.102   3.615
   83DMPC   C43 3815   5.041   2.157   3.480
   83DMPC   C44 3816   5.158   2.166   3.382
   83DMPC   C45 3817   5.203   2.027   3.339
   83DMPC   C46 3818   5.320   2.033   3.240
   84DMPC    C1 3819   4.376   1.853   5.162
   84DMPC    C2 3820   4.276   1.881   5.375
   84DMPC    C3 3821   4.317   2.072   5.241
   84DMPC    N4 3822   4.370   1.941   5.280
   84DMPC    C5 3823   4.502   1.951   5.346
   84DMPC    C6 3824   4.619   2.028   5.279
   84DMPC   OS7 3825   4.658   1.979   5.151
   84DMPC    P8 3826   4.771   2.066   5.086
   84DMPC   OM9 3827   4.861   2.113   5.193
   84DMPC  OM10 3828   4.824   1.987   4.975
   84DMPC  OS11 3829   4.685   2.185   5.033
   84DMPC   C12 3830   4.615   2.154   4.913
   84DMPC   C13 3831   4.486   2.235   4.894
   84DMPC  OS14 3832   4.403   2.185   4.785
   84DMPC   C15 3833   4.270   2.174   4.808
   84DMPC   O16 3834   4.222   2.176   4.922
   84DMPC   C17 3835   4.194   2.141   4.681
   84DMPC   C18 3836   4.061   2.216   4.677
   84DMPC   C19 3837   4.083   2.366   4.653
   84DMPC   C20 3838   4.138   2.390   4.513
   84DMPC   C21 3839   4.166   2.539   4.487
   84DMPC   C22 3840   4.228   2.557   4.349
   84DMPC   C23 3841   4.126   2.524   4.239
   84DMPC   C24 3842   4.193   2.521   4.102
   84DMPC   C25 3843   4.243   2.659   4.059
   84DMPC   C26 3844   4.317   2.648   3.925
   84DMPC   C27 3845   4.222   2.607   3.812
   84DMPC   C28 3846   4.299   2.592   3.681
   84DMPC   C29 3847   4.396   2.473   3.687
   84DMPC   C30 3848   4.527   2.383   4.884
   84DMPC  OS31 3849   4.617   2.416   4.776
   84DMPC   C32 3850   4.568   2.495   4.678
   84DMPC   O33 3851   4.466   2.565   4.687
   84DMPC   C34 3852   4.669   2.505   4.565
   84DMPC   C35 3853   4.615   2.588   4.448
   84DMPC   C36 3854   4.705   2.570   4.326
   84DMPC   C37 3855   4.653   2.649   4.205
   84DMPC   C38 3856   4.685   2.798   4.217
   84DMPC   C39 3857   4.631   2.873   4.095
   84DMPC   C40 3858   4.696   2.820   3.967
   84DMPC   C41 3859   4.639   2.890   3.844
   84DMPC   C42 3860   4.690   2.823   3.716
   84DMPC   C43 3861   4.630   2.890   3.592
   84DMPC   C44 3862   4.693   3.028   3.567
   84DMPC   C45 3863   4.834   3.014   3.510
   84DMPC   C46 3864   4.829   2.957   3.368
   85DMPC    C1 3865   5.122   3.663   5.571
   85DMPC    C2 3866   4.915   3.704   5.687
   85DMPC    C3 3867   5.121   3.726   5.801
   85DMPC    N4 3868   5.051   3.648   5.699
   85DMPC    C5 3869   5.051   3.507   5.745
   85DMPC    C6 3870   4.984   3.397   5.658
   85DMPC   OS7 3871   4.842   3.405   5.649
   85DMPC    P8 3872   4.793   3.371   5.503
   85DMPC   OM9 3873   4.877   3.264   5.447
   85DMPC  OM10 3874   4.647   3.357   5.518
   85DMPC  OS11 3875   4.827   3.509   5.439
   85DMPC   C12 3876   4.752   3.530   5.319
   85DMPC   C13 3877   4.758   3.675   5.267
   85DMPC  OS14 3878   4.661   3.702   5.162
   85DMPC   C15 3879   4.573   3.804   5.181
   85DMPC   O16 3880   4.552   3.856   5.291
   85DMPC   C17 3881   4.490   3.830   5.056
   85DMPC   C18 3882   4.581   3.861   4.937
   85DMPC   C19 3883   4.501   3.896   4.812
   85DMPC   C20 3884   4.421   3.776   4.761
   85DMPC   C21 3885   4.351   3.807   4.629
   85DMPC   C22 3886   4.451   3.824   4.515
   85DMPC   C23 3887   4.379   3.831   4.381
   85DMPC   C24 3888   4.476   3.846   4.264
   85DMPC   C25 3889   4.399   3.836   4.132
   85DMPC   C26 3890   4.489   3.856   4.010
   85DMPC   C27 3891   4.407   3.846   3.881
   85DMPC   C28 3892   4.490   3.878   3.758
   85DMPC   C29 3893   4.407   3.866   3.630
   85DMPC   C30 3894   4.905   3.707   5.235
   85DMPC  OS31 3895   4.976   3.610   5.155
   85DMPC   C32 3896   5.111   3.628   5.146
   85DMPC   O33 3897   5.175   3.712   5.210
   85DMPC   C34 3898   5.173   3.519   5.061
   85DMPC   C35 3899   5.249   3.576   4.941
   85DMPC   C36 3900   5.153   3.616   4.829
   85DMPC   C37 3901   5.226   3.684   4.713
   85DMPC   C38 3902   5.328   3.590   4.648
   85DMPC   C39 3903   5.403   3.662   4.536
   85DMPC   C40 3904   5.523   3.582   4.488
   85DMPC   C41 3905   5.487   3.465   4.396
   85DMPC   C42 3906   5.613   3.384   4.364
   85DMPC   C43 3907   5.590   3.279   4.256
   85DMPC   C44 3908   5.576   3.345   4.119
   85DMPC   C45 3909   5.564   3.240   4.008
   85DMPC   C46 3910   5.433   3.163   4.019
   86DMPC    C1 3911   5.525   3.241   5.449
   86DMPC    C2 3912   5.625   3.101   5.612
   86DMPC    C3 3913   0.100   3.277   5.519
   86DMPC    N4 3914   5.650   3.175   5.488
   86DMPC    C5 3915   0.042   3.079   5.384
   86DMPC    C6 3916   0.092   3.134   5.248
   86DMPC   OS7 3917   0.129   3.037   5.150
   86DMPC    P8 3918   0.237   3.094   5.049
   86DMPC   OM9 3919   0.269   2.984   4.956
   86DMPC  OM10 3920   0.341   3.160   5.129
   86DMPC  OS11 3921   0.149   3.203   4.981
   86DMPC   C12 3922   0.066   3.155   4.875
   86DMPC   C13 3923   5.599   3.249   4.846
   86DMPC  OS14 3924   5.508   3.201   4.743
   86DMPC   C15 3925   5.378   3.189   4.784
   86DMPC   O16 3926   5.348   3.181   4.903
   86DMPC   C17 3927   5.288   3.155   4.666
   86DMPC   C18 3928   5.147   3.210   4.688
   86DMPC   C19 3929   5.063   3.196   4.561
   86DMPC   C20 3930   5.124   3.281   4.448
   86DMPC   C21 3931   5.041   3.272   4.321
   86DMPC   C22 3932   5.037   3.129   4.267
   86DMPC   C23 3933   4.958   3.121   4.137
   86DMPC   C24 3934   5.033   3.189   4.022
   86DMPC   C25 3935   4.953   3.181   3.892
   86DMPC   C26 3936   5.032   3.239   3.775
   86DMPC   C27 3937   5.153   3.150   3.742
   86DMPC   C28 3938   5.230   3.204   3.622
   86DMPC   C29 3939   5.292   3.340   3.653
   86DMPC   C30 3940   0.007   3.389   4.821
   86DMPC  OS31 3941   0.103   3.399   4.714
   86DMPC   C32 3942   0.188   3.504   4.724
   86DMPC   O33 3943   0.198   3.574   4.824
   86DMPC   C34 3944   0.281   3.510   4.604
   86DMPC   C35 3945   0.260   3.638   4.524
   86DMPC   C36 3946   0.353   3.645   4.402
   86DMPC   C37 3947   0.330   3.774   4.324
   86DMPC   C38 3948   0.428   3.788   4.208
   86DMPC   C39 3949   0.407   3.921   4.134
   86DMPC   C40 3950   0.508   3.935   4.020
   86DMPC   C41 3951   0.484   3.825   3.917
   86DMPC   C42 3952   0.586   3.827   3.804
   86DMPC   C43 3953   0.563   3.942   3.706
   86DMPC   C44 3954   0.655   3.926   3.585
   86DMPC   C45 3955   0.632   4.037   3.482
   86DMPC   C46 3956   0.490   4.031   3.425
   87DMPC    C1 3957   2.745   5.246   5.723
   87DMPC    C2 3958   2.621   5.179   5.532
   87DMPC    C3 3959   2.809   5.325   5.510
   87DMPC    N4 3960   2.693   5.292   5.594
   87DMPC    C5 3961   2.604   5.409   5.616
   87DMPC    C6 3962   2.523   5.466   5.497
   87DMPC   OS7 3963   2.465   0.023   5.516
   87DMPC    P8 3964   2.349   0.052   5.412
   87DMPC   OM9 3965   2.307   5.499   5.353
   87DMPC  OM10 3966   2.253   0.142   5.478
   87DMPC  OS11 3967   2.438   0.133   5.310
   87DMPC   C12 3968   2.435   0.274   5.334
   87DMPC   C13 3969   2.468   0.364   5.214
   87DMPC  OS14 3970   2.354   0.393   5.129
   87DMPC   C15 3971   2.299   0.518   5.142
   87DMPC   O16 3972   2.332   0.598   5.230
   87DMPC   C17 3973   2.196   0.544   5.034
   87DMPC   C18 3974   2.262   0.534   4.897
   87DMPC   C19 3975   2.166   0.566   4.782
   87DMPC   C20 3976   2.125   0.713   4.785
   87DMPC   C21 3977   2.045   0.751   4.660
   87DMPC   C22 3978   2.134   0.751   4.535
   87DMPC   C23 3979   2.239   0.862   4.541
   87DMPC   C24 3980   2.328   0.864   4.417
   87DMPC   C25 3981   2.249   0.905   4.293
   87DMPC   C26 3982   2.341   0.922   4.172
   87DMPC   C27 3983   2.262   0.968   4.049
   87DMPC   C28 3984   2.357   0.998   3.933
   87DMPC   C29 3985   2.280   1.047   3.810
   87DMPC   C30 3986   2.593   0.303   5.145
   87DMPC  OS31 3987   2.637   0.367   5.023
   87DMPC   C32 3988   2.610   0.299   4.908
   87DMPC   O33 3989   2.562   0.185   4.903
   87DMPC   C34 3990   2.658   0.379   4.787
   87DMPC   C35 3991   2.551   0.400   4.681
   87DMPC   C36 3992   2.538   0.280   4.587
   87DMPC   C37 3993   2.433   0.303   4.478
   87DMPC   C38 3994   2.472   0.419   4.387
   87DMPC   C39 3995   2.375   0.430   4.269
   87DMPC   C40 3996   2.231   0.448   4.318
   87DMPC   C41 3997   2.135   0.480   4.203
   87DMPC   C42 3998   2.125   0.366   4.102
   87DMPC   C43 3999   2.014   0.394   4.000
   87DMPC   C44 4000   2.042   0.520   3.918
   87DMPC   C45 4001   1.931   0.542   3.814
   87DMPC   C46 4002   1.797   0.571   3.881
   88DMPC    C1 4003   0.199   4.122   5.358
   88DMPC    C2 4004   0.331   4.133   5.162
   88DMPC    C3 4005   0.367   3.958   5.321
   88DMPC    N4 4006   0.334   4.100   5.305
   88DMPC    C5 4007   0.428   4.187   5.380
   88DMPC    C6 4008   0.577   4.190   5.338
   88DMPC   OS7 4009   0.653   4.294   5.400
   88DMPC    P8 4010   0.765   4.357   5.308
   88DMPC   OM9 4011   0.825   4.253   5.225
   88DMPC  OM10 4012   0.850   4.438   5.395
   88DMPC  OS11 4013   0.676   4.454   5.222
   88DMPC   C12 4014   0.667   4.421   5.083
   88DMPC   C13 4015   0.530   4.452   5.023
   88DMPC  OS14 4016   0.518   4.408   4.885
   88DMPC   C15 4017   0.393   4.401   4.831
   88DMPC   O16 4018   0.291   4.402   4.899
   88DMPC   C17 4019   0.398   4.369   4.683
   88DMPC   C18 4020   0.270   4.409   4.611
   88DMPC   C19 4021   0.268   4.353   4.469
   88DMPC   C20 4022   0.388   4.403   4.389
   88DMPC   C21 4023   0.384   4.350   4.245
   88DMPC   C22 4024   0.504   4.402   4.165
   88DMPC   C23 4025   0.493   4.359   4.019
   88DMPC   C24 4026   0.611   4.409   3.936
   88DMPC   C25 4027   0.594   4.377   3.788
   88DMPC   C26 4028   0.714   4.425   3.707
   88DMPC   C27 4029   0.692   4.404   3.557
   88DMPC   C28 4030   0.814   4.448   3.476
   88DMPC   C29 4031   0.790   4.427   3.326
   88DMPC   C30 4032   0.507   4.602   5.046
   88DMPC  OS31 4033   0.599   4.688   4.976
   88DMPC   C32 4034   0.558   4.816   4.963
   88DMPC   O33 4035   0.481   4.871   5.041
   88DMPC   C34 4036   0.643   4.886   4.859
   88DMPC   C35 4037   0.624   4.823   4.721
   88DMPC   C36 4038   0.483   4.847   4.668
   88DMPC   C37 4039   0.469   4.803   4.522
   88DMPC   C38 4040   0.325   4.816   4.474
   88DMPC   C39 4041   0.313   4.791   4.324
   88DMPC   C40 4042   0.372   4.908   4.245
   88DMPC   C41 4043   0.358   4.889   4.094
   88DMPC   C42 4044   0.414   5.011   4.020
   88DMPC   C43 4045   0.398   4.999   3.869
   88DMPC   C44 4046   0.491   4.894   3.809
   88DMPC   C45 4047   0.475   4.889   3.656
   88DMPC   C46 4048   0.570   4.787   3.593
   89DMPC    C1 4049   2.218   5.406   5.026
   89DMPC    C2 4050   2.349   5.253   5.151
   89DMPC    C3 4051   2.380   5.274   4.914
   89DMPC    N4 4052   2.352   5.347   5.038
   89DMPC    C5 4053   2.445   5.459   5.063
   89DMPC    C6 4054   2.598   5.439   5.048
   89DMPC   OS7 4055   2.651   5.334   5.129
   89DMPC    P8 4056   2.807   5.318   5.113
   89DMPC   OM9 4057   2.838   5.213   5.211
   89DMPC  OM10 4058   2.861   5.454   5.125
   89DMPC  OS11 4059   2.811   5.264   4.965
   89DMPC   C12 4060   2.795   5.122   4.957
   89DMPC   C13 4061   2.824   5.056   4.821
   89DMPC  OS14 4062   2.965   5.034   4.793
   89DMPC   C15 4063   3.010   4.906   4.806
   89DMPC   O16 4064   2.947   4.818   4.866
   89DMPC   C17 4065   3.158   4.897   4.775
   89DMPC   C18 4066   3.193   4.911   4.627
   89DMPC   C19 4067   3.342   4.880   4.610
   89DMPC   C20 4068   3.387   4.883   4.464
   89DMPC   C21 4069   3.531   4.831   4.454
   89DMPC   C22 4070   3.586   4.845   4.313
   89DMPC   C23 4071   3.730   4.792   4.305
   89DMPC   C24 4072   3.792   4.830   4.171
   89DMPC   C25 4073   3.808   4.982   4.164
   89DMPC   C26 4074   3.857   5.029   4.027
   89DMPC   C27 4075   3.851   5.182   4.019
   89DMPC   C28 4076   3.877   5.231   3.877
   89DMPC   C29 4077   3.860   5.383   3.868
   89DMPC   C30 4078   2.745   5.134   4.715
   89DMPC  OS31 4079   2.607   5.092   4.712
   89DMPC   C32 4080   2.536   5.119   4.599
   89DMPC   O33 4081   2.545   5.226   4.537
   89DMPC   C34 4082   2.409   5.036   4.602
   89DMPC   C35 4083   2.358   4.998   4.462
   89DMPC   C36 4084   2.234   4.910   4.476
   89DMPC   C37 4085   2.178   4.864   4.342
   89DMPC   C38 4086   2.123   4.981   4.259
   89DMPC   C39 4087   2.056   4.929   4.132
   89DMPC   C40 4088   2.010   5.047   4.044
   89DMPC   C41 4089   1.935   5.000   3.920
   89DMPC   C42 4090   1.900   5.120   3.832
   89DMPC   C43 4091   1.819   5.080   3.709
   89DMPC   C44 4092   1.678   5.036   3.747
   89DMPC   C45 4093   1.595   5.004   3.623
   89DMPC   C46 4094   1.452   4.964   3.660
   90DMPC    C1 4095   2.800   1.278   5.346
   90DMPC    C2 4096   2.815   1.160   5.140
   90DMPC    C3 4097   2.695   1.065   5.322
   90DMPC    N4 4098   2.813   1.145   5.286
   90DMPC    C5 4099   2.931   1.070   5.336
   90DMPC    C6 4100   3.074   1.125   5.317
   90DMPC   OS7 4101   3.176   1.036   5.361
   90DMPC    P8 4102   3.320   1.090   5.329
   90DMPC   OM9 4103   3.413   0.986   5.377
   90DMPC  OM10 4104   3.322   1.226   5.383
   90DMPC  OS11 4105   3.309   1.090   5.173
   90DMPC   C12 4106   3.356   0.972   5.108
   90DMPC   C13 4107   3.288   0.940   4.974
   90DMPC  OS14 4108   3.361   0.840   4.897
   90DMPC   C15 4109   3.284   0.751   4.828
   90DMPC   O16 4110   3.174   0.714   4.872
   90DMPC   C17 4111   3.369   0.666   4.735
   90DMPC   C18 4112   3.347   0.699   4.587
   90DMPC   C19 4113   3.425   0.824   4.547
   90DMPC   C20 4114   3.423   0.844   4.395
   90DMPC   C21 4115   3.484   0.724   4.324
   90DMPC   C22 4116   3.514   0.754   4.177
   90DMPC   C23 4117   3.572   0.631   4.107
   90DMPC   C24 4118   3.462   0.538   4.056
   90DMPC   C25 4119   3.401   0.595   3.928
   90DMPC   C26 4120   3.300   0.499   3.864
   90DMPC   C27 4121   3.254   0.553   3.729
   90DMPC   C28 4122   3.157   0.457   3.659
   90DMPC   C29 4123   3.022   0.453   3.731
   90DMPC   C30 4124   3.267   1.076   4.902
   90DMPC  OS31 4125   3.187   1.079   4.782
   90DMPC   C32 4126   3.051   1.080   4.794
   90DMPC   O33 4127   2.987   1.025   4.883
   90DMPC   C34 4128   2.993   1.117   4.658
   90DMPC   C35 4129   3.086   1.071   4.546
   90DMPC   C36 4130   3.025   1.097   4.408
   90DMPC   C37 4131   3.111   1.036   4.298
   90DMPC   C38 4132   3.040   1.040   4.163
   90DMPC   C39 4133   3.118   0.960   4.058
   90DMPC   C40 4134   3.039   0.948   3.928
   90DMPC   C41 4135   2.908   0.873   3.954
   90DMPC   C42 4136   2.826   0.856   3.825
   90DMPC   C43 4137   2.689   0.797   3.857
   90DMPC   C44 4138   2.700   0.653   3.907
   90DMPC   C45 4139   2.566   0.602   3.959
   90DMPC   C46 4140   2.462   0.591   3.847
   91DMPC    C1 4141   1.489   0.977   5.558
   91DMPC    C2 4142   1.551   0.760   5.634
   91DMPC    C3 4143   1.720   0.920   5.589
   91DMPC    N4 4144   1.589   0.871   5.545
   91DMPC    C5 4145   1.593   0.816   5.407
   91DMPC    C6 4146   1.640   0.905   5.289
   91DMPC   OS7 4147   1.554   1.009   5.242
   91DMPC    P8 4148   1.452   0.964   5.130
   91DMPC   OM9 4149   1.385   1.086   5.082
   91DMPC  OM10 4150   1.374   0.852   5.184
   91DMPC  OS11 4151   1.550   0.908   5.022
   91DMPC   C12 4152   1.594   1.006   4.929
   91DMPC   C13 4153   1.694   0.956   4.824
   91DMPC  OS14 4154   1.753   1.065   4.748
   91DMPC   C15 4155   1.882   1.094   4.782
   91DMPC   O16 4156   1.936   1.049   4.883
   91DMPC   C17 4157   1.937   1.203   4.691
   91DMPC   C18 4158   2.088   1.195   4.677
   91DMPC   C19 4159   2.142   1.301   4.581
   91DMPC   C20 4160   2.117   1.268   4.433
   91DMPC   C21 4161   2.185   1.372   4.344
   91DMPC   C22 4162   2.175   1.338   4.196
   91DMPC   C23 4163   2.032   1.355   4.144
   91DMPC   C24 4164   2.024   1.322   3.995
   91DMPC   C25 4165   1.882   1.342   3.941
   91DMPC   C26 4166   1.874   1.303   3.793
   91DMPC   C27 4167   1.895   1.152   3.777
   91DMPC   C28 4168   1.894   1.112   3.629
   91DMPC   C29 4169   1.916   0.961   3.614
   91DMPC   C30 4170   1.624   0.847   4.741
   91DMPC  OS31 4171   1.498   0.885   4.681
   91DMPC   C32 4172   1.413   0.782   4.656
   91DMPC   O33 4173   1.423   0.670   4.707
   91DMPC   C34 4174   1.289   0.832   4.584
   91DMPC   C35 4175   1.278   0.775   4.443
   91DMPC   C36 4176   1.365   0.852   4.344
   91DMPC   C37 4177   1.340   0.803   4.201
   91DMPC   C38 4178   1.418   0.888   4.100
   91DMPC   C39 4179   1.390   0.843   3.957
   91DMPC   C40 4180   1.470   0.928   3.857
   91DMPC   C41 4181   1.429   0.893   3.714
   91DMPC   C42 4182   1.502   0.980   3.611
   91DMPC   C43 4183   1.443   0.958   3.472
   91DMPC   C44 4184   1.297   1.005   3.469
   91DMPC   C45 4185   1.233   0.987   3.332
   91DMPC   C46 4186   1.088   1.036   3.333
   92DMPC    C1 4187   4.940   5.450   5.175
   92DMPC    C2 4188   5.137   5.525   5.283
   92DMPC    C3 4189   4.980   5.390   5.403
   92DMPC    N4 4190   4.994   5.497   5.303
   92DMPC    C5 4191   4.931   0.049   5.347
   92DMPC    C6 4192   4.777   0.062   5.351
   92DMPC   OS7 4193   4.711   5.556   5.450
   92DMPC    P8 4194   4.554   5.558   5.429
   92DMPC   OM9 4195   4.517   0.120   5.388
   92DMPC  OM10 4196   4.495   5.496   5.548
   92DMPC  OS11 4197   4.548   5.458   5.309
   92DMPC   C12 4198   4.565   5.321   5.348
   92DMPC   C13 4199   4.562   5.218   5.234
   92DMPC  OS14 4200   4.676   5.226   5.145
   92DMPC   C15 4201   4.723   5.108   5.098
   92DMPC   O16 4202   4.730   5.009   5.171
   92DMPC   C17 4203   4.813   5.136   4.979
   92DMPC   C18 4204   4.826   5.018   4.883
   92DMPC   C19 4205   4.859   5.072   4.743
   92DMPC   C20 4206   4.891   4.962   4.642
   92DMPC   C21 4207   4.898   5.021   4.502
   92DMPC   C22 4208   4.949   4.920   4.399
   92DMPC   C23 4209   4.934   4.976   4.258
   92DMPC   C24 4210   4.997   4.883   4.153
   92DMPC   C25 4211   5.149   4.894   4.155
   92DMPC   C26 4212   5.193   5.031   4.104
   92DMPC   C27 4213   5.346   5.045   4.102
   92DMPC   C28 4214   5.409   4.956   3.995
   92DMPC   C29 4215   5.561   4.971   3.993
   92DMPC   C30 4216   4.424   5.236   5.167
   92DMPC  OS31 4217   4.389   5.145   5.061
   92DMPC   C32 4218   4.258   5.146   5.022
   92DMPC   O33 4219   4.165   5.183   5.094
   92DMPC   C34 4220   4.237   5.066   4.895
   92DMPC   C35 4221   4.250   5.155   4.771
   92DMPC   C36 4222   4.396   5.172   4.727
   92DMPC   C37 4223   4.404   5.271   4.612
   92DMPC   C38 4224   4.542   5.272   4.545
   92DMPC   C39 4225   4.545   5.379   4.436
   92DMPC   C40 4226   4.669   5.369   4.347
   92DMPC   C41 4227   4.663   5.477   4.238
   92DMPC   C42 4228   4.778   5.462   4.139
   92DMPC   C43 4229   4.761   5.334   4.057
   92DMPC   C44 4230   4.877   5.316   3.958
   92DMPC   C45 4231   4.859   5.188   3.877
   92DMPC   C46 4232   4.976   5.168   3.780
   93DMPC    C1 4233   0.527   3.452   5.059
   93DMPC    C2 4234   0.499   3.604   5.238
   93DMPC    C3 4235   0.432   3.664   5.016
   93DMPC    N4 4236   0.438   3.555   5.114
   93DMPC    C5 4237   0.307   3.491   5.139
   93DMPC    C6 4238   0.183   3.578   5.172
   93DMPC   OS7 4239   0.192   3.656   5.291
   93DMPC    P8 4240   0.057   3.725   5.329
   93DMPC   OM9 4241   0.087   3.806   5.448
   93DMPC  OM10 4242   5.603   3.623   5.334
   93DMPC  OS11 4243   0.037   3.821   5.208
   93DMPC   C12 4244   5.554   3.830   5.162
   93DMPC   C13 4245   5.537   3.900   5.026
   93DMPC  OS14 4246   5.397   3.904   4.985
   93DMPC   C15 4247   5.321   4.010   5.025
   93DMPC   O16 4248   5.365   4.104   5.092
   93DMPC   C17 4249   5.179   3.995   4.975
   93DMPC   C18 4250   5.094   4.119   5.003
   93DMPC   C19 4251   4.957   4.105   4.937
   93DMPC   C20 4252   4.971   4.099   4.785
   93DMPC   C21 4253   4.836   4.086   4.716
   93DMPC   C22 4254   4.854   4.075   4.564
   93DMPC   C23 4255   4.932   3.949   4.529
   93DMPC   C24 4256   4.954   3.936   4.378
   93DMPC   C25 4257   5.036   3.811   4.347
   93DMPC   C26 4258   5.059   3.793   4.197
   93DMPC   C27 4259   5.140   3.667   4.169
   93DMPC   C28 4260   5.161   3.646   4.019
   93DMPC   C29 4261   5.028   3.617   3.948
   93DMPC   C30 4262   5.623   3.818   4.927
   93DMPC  OS31 4263   0.044   3.891   4.826
   93DMPC   C32 4264   0.171   3.927   4.858
   93DMPC   O33 4265   0.226   3.904   4.966
   93DMPC   C34 4266   0.239   3.993   4.740
   93DMPC   C35 4267   0.389   3.960   4.738
   93DMPC   C36 4268   0.450   4.010   4.607
   93DMPC   C37 4269   0.597   3.973   4.592
   93DMPC   C38 4270   0.647   4.020   4.455
   93DMPC   C39 4271   0.790   3.973   4.429
   93DMPC   C40 4272   0.831   4.001   4.284
   93DMPC   C41 4273   0.846   4.151   4.259
   93DMPC   C42 4274   0.885   4.179   4.114
   93DMPC   C43 4275   1.024   4.124   4.082
   93DMPC   C44 4276   1.061   4.155   3.937
   93DMPC   C45 4277   0.968   4.081   3.840
   93DMPC   C46 4278   1.002   4.115   3.695
   94DMPC    C1 4279   0.546   4.787   5.384
   94DMPC    C2 4280   0.533   4.837   5.617
   94DMPC    C3 4281   0.693   4.683   5.535
   94DMPC    N4 4282   0.555   4.730   5.519
   94DMPC    C5 4283   0.464   4.615   5.538
   94DMPC    C6 4284   0.311   4.637   5.531
   94DMPC   OS7 4285   0.259   4.680   5.405
   94DMPC    P8 4286   0.203   4.561   5.322
   94DMPC   OM9 4287   0.091   4.507   5.398
   94DMPC  OM10 4288   0.316   4.478   5.279
   94DMPC  OS11 4289   0.150   4.646   5.202
   94DMPC   C12 4290   0.086   4.554   5.113
   94DMPC   C13 4291   0.002   4.610   4.998
   94DMPC  OS14 4292   5.572   4.505   4.937
   94DMPC   C15 4293   5.440   4.505   4.969
   94DMPC   O16 4294   5.395   4.565   5.066
   94DMPC   C17 4295   5.365   4.397   4.892
   94DMPC   C18 4296   5.440   4.355   4.766
   94DMPC   C19 4297   5.365   4.244   4.694
   94DMPC   C20 4298   5.438   4.203   4.566
   94DMPC   C21 4299   5.362   4.091   4.495
   94DMPC   C22 4300   5.435   4.053   4.366
   94DMPC   C23 4301   5.572   3.993   4.398
   94DMPC   C24 4302   5.648   3.961   4.269
   94DMPC   C25 4303   5.574   3.855   4.187
   94DMPC   C26 4304   5.651   3.821   4.060
   94DMPC   C27 4305   5.575   3.719   3.976
   94DMPC   C28 4306   0.003   3.682   3.851
   94DMPC   C29 4307   5.577   3.582   3.764
   94DMPC   C30 4308   0.095   4.678   4.895
   94DMPC  OS31 4309   0.162   4.802   4.927
   94DMPC   C32 4310   0.089   4.917   4.924
   94DMPC   O33 4311   5.619   4.923   4.948
   94DMPC   C34 4312   0.180   5.039   4.921
   94DMPC   C35 4313   0.119   5.145   4.829
   94DMPC   C36 4314   0.118   5.090   4.686
   94DMPC   C37 4315   0.048   5.183   4.587
   94DMPC   C38 4316   0.029   5.108   4.455
   94DMPC   C39 4317   5.612   5.193   4.348
   94DMPC   C40 4318   0.056   5.299   4.293
   94DMPC   C41 4319   5.645   5.366   4.170
   94DMPC   C42 4320   0.091   5.466   4.108
   94DMPC   C43 4321   0.034   5.524   3.979
   94DMPC   C44 4322   0.032   5.420   3.867
   94DMPC   C45 4323   0.173   5.390   3.817
   94DMPC   C46 4324   0.172   5.288   3.703
   95DMPC    C1 4325   0.017   0.960   5.722
   95DMPC    C2 4326   5.566   1.042   5.526
   95DMPC    C3 4327   5.579   0.807   5.566
   95DMPC    N4 4328   5.557   0.938   5.629
   95DMPC    C5 4329   5.429   0.944   5.703
   95DMPC    C6 4330   5.294   0.939   5.627
   95DMPC   OS7 4331   5.266   0.818   5.557
   95DMPC    P8 4332   5.139   0.832   5.464
   95DMPC   OM9 4333   5.057   0.947   5.503
   95DMPC  OM10 4334   5.079   0.698   5.455
   95DMPC  OS11 4335   5.214   0.871   5.333
   95DMPC   C12 4336   5.263   0.759   5.260
   95DMPC   C13 4337   5.313   0.795   5.120
   95DMPC  OS14 4338   5.352   0.677   5.045
   95DMPC   C15 4339   5.283   0.657   4.929
   95DMPC   O16 4340   5.176   0.716   4.907
   95DMPC   C17 4341   5.335   0.537   4.854
   95DMPC   C18 4342   5.329   0.557   4.703
   95DMPC   C19 4343   5.439   0.651   4.653
   95DMPC   C20 4344   5.429   0.665   4.501
   95DMPC   C21 4345   5.536   0.758   4.446
   95DMPC   C22 4346   5.512   0.785   4.297
   95DMPC   C23 4347   5.535   0.661   4.212
   95DMPC   C24 4348   5.495   0.689   4.067
   95DMPC   C25 4349   5.532   0.572   3.975
   95DMPC   C26 4350   5.488   0.604   3.832
   95DMPC   C27 4351   5.556   0.732   3.784
   95DMPC   C28 4352   5.515   0.767   3.641
   95DMPC   C29 4353   5.581   0.672   3.541
   95DMPC   C30 4354   5.425   0.899   5.138
   95DMPC  OS31 4355   5.459   0.974   5.019
   95DMPC   C32 4356   5.576   1.043   5.020
   95DMPC   O33 4357   0.016   1.022   5.101
   95DMPC   C34 4358   5.592   1.119   4.889
   95DMPC   C35 4359   5.631   1.026   4.774
   95DMPC   C36 4360   5.630   1.101   4.641
   95DMPC   C37 4361   0.081   1.214   4.641
   95DMPC   C38 4362   0.086   1.285   4.505
   95DMPC   C39 4363   0.189   1.398   4.509
   95DMPC   C40 4364   0.210   1.462   4.371
   95DMPC   C41 4365   0.087   1.542   4.330
   95DMPC   C42 4366   0.110   1.609   4.194
   95DMPC   C43 4367   5.635   1.683   4.151
   95DMPC   C44 4368   0.002   1.752   4.016
   95DMPC   C45 4369   0.098   1.870   4.028
   95DMPC   C46 4370   0.108   1.945   3.895
   96DMPC    C1 4371   3.087   3.010   5.442
   96DMPC    C2 4372   3.010   2.828   5.307
   96DMPC    C3 4373   3.124   2.786   5.512
   96DMPC    N4 4374   3.118   2.874   5.394
   96DMPC    C5 4375   3.249   2.871   5.325
   96DMPC    C6 4376   3.269   2.944   5.190
   96DMPC   OS7 4377   3.254   3.085   5.193
   96DMPC    P8 4378   3.235   3.142   5.049
   96DMPC   OM9 4379   3.218   3.288   5.059
   96DMPC  OM10 4380   3.140   3.058   4.976
   96DMPC  OS11 4381   3.377   3.118   4.987
   96DMPC   C12 4382   3.380   3.167   4.853
   96DMPC   C13 4383   3.519   3.171   4.786
   96DMPC  OS14 4384   3.510   3.230   4.654
   96DMPC   C15 4385   3.623   3.275   4.591
   96DMPC   O16 4386   3.736   3.272   4.642
   96DMPC   C17 4387   3.587   3.332   4.455
   96DMPC   C18 4388   3.681   3.443   4.410
   96DMPC   C19 4389   3.621   3.509   4.286
   96DMPC   C20 4390   3.709   3.617   4.224
   96DMPC   C21 4391   3.631   3.684   4.111
   96DMPC   C22 4392   3.710   3.790   4.035
   96DMPC   C23 4393   3.616   3.855   3.933
   96DMPC   C24 4394   3.689   3.958   3.846
   96DMPC   C25 4395   3.590   4.024   3.750
   96DMPC   C26 4396   3.529   3.920   3.656
   96DMPC   C27 4397   3.430   3.985   3.559
   96DMPC   C28 4398   3.366   3.879   3.469
   96DMPC   C29 4399   3.470   3.815   3.378
   96DMPC   C30 4400   3.574   3.027   4.791
   96DMPC  OS31 4401   3.501   2.930   4.713
   96DMPC   C32 4402   3.571   2.819   4.676
   96DMPC   O33 4403   3.679   2.783   4.726
   96DMPC   C34 4404   3.488   2.736   4.580
   96DMPC   C35 4405   3.576   2.663   4.478
   96DMPC   C36 4406   3.632   2.759   4.373
   96DMPC   C37 4407   3.728   2.684   4.280
   96DMPC   C38 4408   3.653   2.579   4.198
   96DMPC   C39 4409   3.752   2.491   4.120
   96DMPC   C40 4410   3.679   2.384   4.038
   96DMPC   C41 4411   3.780   2.288   3.975
   96DMPC   C42 4412   3.709   2.183   3.888
   96DMPC   C43 4413   3.807   2.076   3.840
   96DMPC   C44 4414   3.913   2.134   3.746
   96DMPC   C45 4415   4.010   2.025   3.701
   96DMPC   C46 4416   4.119   2.082   3.610
   97DMPC    C1 4417   0.634   1.250   5.226
   97DMPC    C2 4418   0.546   1.458   5.154
   97DMPC    C3 4419   0.727   1.363   5.035
   97DMPC    N4 4420   0.670   1.381   5.169
   97DMPC    C5 4421   0.761   1.456   5.259
   97DMPC    C6 4422   0.907   1.406   5.279
   97DMPC   OS7 4423   0.923   1.276   5.339
   97DMPC    P8 4424   1.072   1.227   5.328
   97DMPC   OM9 4425   1.077   1.105   5.412
   97DMPC  OM10 4426   1.157   1.343   5.358
   97DMPC  OS11 4427   1.073   1.195   5.175
   97DMPC   C12 4428   1.043   1.059   5.141
   97DMPC   C13 4429   0.998   1.043   4.995
   97DMPC  OS14 4430   0.966   0.905   4.961
   97DMPC   C15 4431   0.837   0.876   4.932
   97DMPC   O16 4432   0.742   0.938   4.981
   97DMPC   C17 4433   0.827   0.736   4.873
   97DMPC   C18 4434   0.712   0.724   4.772
   97DMPC   C19 4435   0.743   0.801   4.643
   97DMPC   C20 4436   0.869   0.745   4.576
   97DMPC   C21 4437   0.909   0.823   4.451
   97DMPC   C22 4438   0.833   0.778   4.327
   97DMPC   C23 4439   0.911   0.820   4.202
   97DMPC   C24 4440   0.849   0.760   4.075
   97DMPC   C25 4441   0.945   0.774   3.957
   97DMPC   C26 4442   0.884   0.714   3.830
   97DMPC   C27 4443   0.980   0.719   3.712
   97DMPC   C28 4444   1.097   0.622   3.730
   97DMPC   C29 4445   1.185   0.618   3.605
   97DMPC   C30 4446   1.109   1.103   4.908
   97DMPC  OS31 4447   1.061   1.163   4.786
   97DMPC   C32 4448   1.153   1.212   4.699
   97DMPC   O33 4449   1.275   1.208   4.715
   97DMPC   C34 4450   1.082   1.279   4.583
   97DMPC   C35 4451   1.159   1.264   4.451
   97DMPC   C36 4452   1.082   1.335   4.340
   97DMPC   C37 4453   1.144   1.312   4.202
   97DMPC   C38 4454   1.056   1.379   4.096
   97DMPC   C39 4455   1.101   1.345   3.954
   97DMPC   C40 4456   1.089   1.195   3.928
   97DMPC   C41 4457   1.103   1.163   3.779
   97DMPC   C42 4458   0.975   1.200   3.704
   97DMPC   C43 4459   0.861   1.110   3.750
   97DMPC   C44 4460   0.731   1.136   3.674
   97DMPC   C45 4461   0.620   1.044   3.726
   97DMPC   C46 4462   0.489   1.066   3.651
   98DMPC    C1 4463   0.907   2.164   4.861
   98DMPC    C2 4464   1.005   2.256   5.057
   98DMPC    C3 4465   1.086   2.049   4.972
   98DMPC    N4 4466   0.966   2.131   4.992
   98DMPC    C5 4467   0.868   2.064   5.082
   98DMPC    C6 4468   0.807   1.927   5.046
   98DMPC   OS7 4469   0.712   1.930   4.940
   98DMPC    P8 4470   0.653   1.788   4.910
   98DMPC   OM9 4471   0.508   1.800   4.898
   98DMPC  OM10 4472   0.714   1.684   4.993
   98DMPC  OS11 4473   0.706   1.772   4.763
   98DMPC   C12 4474   0.710   1.636   4.717
   98DMPC   C13 4475   0.578   1.560   4.694
   98DMPC  OS14 4476   0.603   1.420   4.663
   98DMPC   C15 4477   0.511   1.328   4.701
   98DMPC   O16 4478   0.422   1.354   4.782
   98DMPC   C17 4479   0.552   1.187   4.658
   98DMPC   C18 4480   0.521   1.156   4.511
   98DMPC   C19 4481   0.621   1.222   4.416
   98DMPC   C20 4482   0.589   1.191   4.269
   98DMPC   C21 4483   0.686   1.266   4.178
   98DMPC   C22 4484   0.658   1.417   4.181
   98DMPC   C23 4485   0.540   1.453   4.090
   98DMPC   C24 4486   0.582   1.450   3.943
   98DMPC   C25 4487   0.463   1.476   3.851
   98DMPC   C26 4488   0.509   1.484   3.705
   98DMPC   C27 4489   0.389   1.496   3.610
   98DMPC   C28 4490   0.316   1.629   3.627
   98DMPC   C29 4491   0.401   1.745   3.576
   98DMPC   C30 4492   0.493   1.642   4.594
   98DMPC  OS31 4493   0.561   1.694   4.478
   98DMPC   C32 4494   0.495   1.790   4.408
   98DMPC   O33 4495   0.383   1.834   4.435
   98DMPC   C34 4496   0.583   1.841   4.295
   98DMPC   C35 4497   0.504   1.862   4.166
   98DMPC   C36 4498   0.592   1.934   4.063
   98DMPC   C37 4499   0.518   1.955   3.930
   98DMPC   C38 4500   0.596   2.054   3.843
   98DMPC   C39 4501   0.521   2.089   3.714
   98DMPC   C40 4502   0.385   2.153   3.744
   98DMPC   C41 4503   0.398   2.289   3.815
   98DMPC   C42 4504   0.259   2.341   3.852
   98DMPC   C43 4505   0.268   2.475   3.925
   98DMPC   C44 4506   0.129   2.527   3.962
   98DMPC   C45 4507   0.050   2.571   3.838
   98DMPC   C46 4508   5.563   2.622   3.877
   99DMPC    C1 4509   2.024   1.576   5.555
   99DMPC    C2 4510   2.241   1.648   5.489
   99DMPC    C3 4511   2.146   1.458   5.385
   99DMPC    N4 4512   2.115   1.591   5.440
   99DMPC    C5 4513   2.060   1.682   5.337
   99DMPC    C6 4514   1.924   1.651   5.269
   99DMPC   OS7 4515   1.916   1.532   5.189
   99DMPC    P8 4516   1.946   1.557   5.035
   99DMPC   OM9 4517   1.893   1.690   5.004
   99DMPC  OM10 4518   1.896   1.436   4.968
   99DMPC  OS11 4519   2.103   1.557   5.041
   99DMPC   C12 4520   2.159   1.504   4.921
   99DMPC   C13 4521   2.312   1.492   4.921
   99DMPC  OS14 4522   2.364   1.462   4.788
   99DMPC   C15 4523   2.495   1.488   4.759
   99DMPC   O16 4524   2.573   1.537   4.841
   99DMPC   C17 4525   2.529   1.449   4.617
   99DMPC   C18 4526   2.533   1.296   4.602
   99DMPC   C19 4527   2.550   1.256   4.455
   99DMPC   C20 4528   2.687   1.299   4.403
   99DMPC   C21 4529   2.705   1.263   4.256
   99DMPC   C22 4530   2.622   1.353   4.164
   99DMPC   C23 4531   2.657   1.325   4.018
   99DMPC   C24 4532   2.803   1.362   3.991
   99DMPC   C25 4533   2.844   1.331   3.847
   99DMPC   C26 4534   2.992   1.361   3.824
   99DMPC   C27 4535   3.033   1.324   3.681
   99DMPC   C28 4536   3.182   1.353   3.659
   99DMPC   C29 4537   3.225   1.315   3.517
   99DMPC   C30 4538   2.349   1.392   5.032
   99DMPC  OS31 4539   2.291   1.260   5.017
   99DMPC   C32 4540   2.376   1.156   5.042
   99DMPC   O33 4541   2.459   1.160   5.133
   99DMPC   C34 4542   2.315   1.028   4.989
   99DMPC   C35 4543   2.421   0.921   4.964
   99DMPC   C36 4544   2.503   0.954   4.839
   99DMPC   C37 4545   2.591   0.835   4.800
   99DMPC   C38 4546   2.670   0.863   4.672
   99DMPC   C39 4547   2.743   0.737   4.626
   99DMPC   C40 4548   2.821   0.761   4.498
   99DMPC   C41 4549   2.881   0.631   4.443
   99DMPC   C42 4550   2.967   0.660   4.321
   99DMPC   C43 4551   3.015   0.532   4.252
   99DMPC   C44 4552   2.897   0.461   4.185
   99DMPC   C45 4553   2.944   0.340   4.105
   99DMPC   C46 4554   2.827   0.274   4.031
  100DMPC    C1 4555   1.623   1.338   5.093
  100DMPC    C2 4556   1.541   1.557   5.134
  100DMPC    C3 4557   1.445   1.364   5.243
  100DMPC    N4 4558   1.502   1.416   5.118
  100DMPC    C5 4559   1.411   1.395   5.004
  100DMPC    C6 4560   1.265   1.447   5.010
  100DMPC   OS7 4561   1.246   1.588   4.998
  100DMPC    P8 4562   1.093   1.628   5.010
  100DMPC   OM9 4563   1.085   1.707   5.133
  100DMPC  OM10 4564   1.009   1.510   4.987
  100DMPC  OS11 4565   1.089   1.726   4.888
  100DMPC   C12 4566   1.068   1.658   4.764
  100DMPC   C13 4567   1.087   1.752   4.644
  100DMPC  OS14 4568   1.031   1.703   4.520
  100DMPC   C15 4569   1.001   1.798   4.427
  100DMPC   O16 4570   0.988   1.917   4.459
  100DMPC   C17 4571   0.966   1.737   4.293
  100DMPC   C18 4572   0.990   1.836   4.179
  100DMPC   C19 4573   0.982   1.765   4.044
  100DMPC   C20 4574   1.004   1.862   3.927
  100DMPC   C21 4575   1.018   1.785   3.796
  100DMPC   C22 4576   0.888   1.713   3.759
  100DMPC   C23 4577   0.905   1.633   3.629
  100DMPC   C24 4578   0.923   1.726   3.509
  100DMPC   C25 4579   0.792   1.799   3.476
  100DMPC   C26 4580   0.813   1.899   3.362
  100DMPC   C27 4581   0.683   1.973   3.328
  100DMPC   C28 4582   0.585   1.882   3.254
  100DMPC   C29 4583   0.635   1.851   3.113
  100DMPC   C30 4584   1.238   1.781   4.641
  100DMPC  OS31 4585   1.321   1.666   4.619
  100DMPC   C32 4586   1.406   1.676   4.513
  100DMPC   O33 4587   1.437   1.784   4.461
  100DMPC   C34 4588   1.479   1.545   4.490
  100DMPC   C35 4589   1.605   1.569   4.407
  100DMPC   C36 4590   1.696   1.447   4.414
  100DMPC   C37 4591   1.647   1.331   4.328
  100DMPC   C38 4592   1.732   1.208   4.360
  100DMPC   C39 4593   1.717   1.097   4.256
  100DMPC   C40 4594   1.795   0.974   4.299
  100DMPC   C41 4595   1.791   0.865   4.192
  100DMPC   C42 4596   1.840   0.732   4.247
  100DMPC   C43 4597   1.744   0.681   4.354
  100DMPC   C44 4598   1.783   0.541   4.403
  100DMPC   C45 4599   1.686   0.494   4.511
  100DMPC   C46 4600   1.715   0.349   4.550
  101SOL     OW 4601   0.003   4.762   6.393
  101SOL    HW1 4602   5.596   4.840   6.369
  101SOL    HW2 4603   0.020   4.763   6.492
  102SOL     OW 4604   4.647   0.814   0.227
  102SOL    HW1 4605   4.712   0.755   0.275
  102SOL    HW2 4606   4.556   0.801   0.264
  103SOL     OW 4607   2.331   2.644   0.999
  103SOL    HW1 4608   2.273   2.723   0.982
  103SOL    HW2 4609   2.363   2.607   0.911
  104SOL     OW 4610   4.656   2.864   6.189
  104SOL    HW1 4611   4.650   2.764   6.198
  104SOL    HW2 4612   4.623   2.891   6.099
  105SOL     OW 4613   1.388   4.082   0.158
  105SOL    HW1 4614   1.322   4.079   0.233
  105SOL    HW2 4615   1.480   4.069   0.195
  106SOL     OW 4616   4.574   1.017   5.076
  106SOL    HW1 4617   4.619   1.085   5.019
  106SOL    HW2 4618   4.547   0.939   5.020
  107SOL     OW 4619   0.700   2.474   0.925
  107SOL    HW1 4620   0.663   2.400   0.869
  107SOL    HW2 4621   0.766   2.436   0.990
  108SOL     OW 4622   4.784   3.069   1.004
  108SOL    HW1 4623   4.753   3.022   0.921
  108SOL    HW2 4624   4.796   3.166   0.985
  109SOL     OW 4625   2.781   4.032   5.877
  109SOL    HW1 4626   2.846   4.081   5.936
  109SOL    HW2 4627   2.805   4.048   5.781
  110SOL     OW 4628   5.436   1.089   0.325
  110SOL    HW1 4629   5.505   1.035   0.372
  110SOL    HW2 4630   5.356   1.032   0.306
  111SOL     OW 4631   2.232   3.895   6.457
  111SOL    HW1 4632   2.305   3.886   6.390
  111SOL    HW2 4633   2.211   3.992   6.471
  112SOL     OW 4634   3.804   0.758   1.126
  112SOL    HW1 4635   3.758   0.822   1.187
  112SOL    HW2 4636   3.759   0.669   1.132
  113SOL     OW 4637   4.729   0.564   2.257
  113SOL    HW1 4638   4.777   0.601   2.336
  113SOL    HW2 4639   4.639   0.529   2.285
  114SOL     OW 4640   2.691   1.159   0.868
  114SOL    HW1 4641   2.606   1.126   0.909
  114SOL    HW2 4642   2.712   1.104   0.787
  115SOL     OW 4643   3.602   1.232   6.354
  115SOL    HW1 4644   3.592   1.150   6.410
  115SOL    HW2 4645   3.689   1.277   6.375
  116SOL     OW 4646   0.367   2.405   0.019
  116SOL    HW1 4647   0.458   2.388   6.481
  116SOL    HW2 4648   0.321   2.474   6.463
  117SOL     OW 4649   0.200   5.379   1.162
  117SOL    HW1 4650   0.262   5.426   1.100
  117SOL    HW2 4651   0.241   5.374   1.253
  118SOL     OW 4652   3.589   3.869   6.006
  118SOL    HW1 4653   3.675   3.906   5.970
  118SOL    HW2 4654   3.534   3.943   6.044
  119SOL     OW 4655   3.673   1.687   4.909
  119SOL    HW1 4656   3.601   1.644   4.854
  119SOL    HW2 4657   3.762   1.671   4.866
  120SOL     OW 4658   3.459   4.067   6.151
  120SOL    HW1 4659   3.418   4.009   6.222
  120SOL    HW2 4660   3.546   4.103   6.184
  121SOL     OW 4661   0.436   5.561   6.032
  121SOL    HW1 4662   0.503   0.050   5.992
  121SOL    HW2 4663   0.408   0.021   6.122
  122SOL     OW 4664   5.495   0.516   5.842
  122SOL    HW1 4665   5.523   0.420   5.845
  122SOL    HW2 4666   5.431   0.530   5.767
  123SOL     OW 4667   0.569   4.813   1.068
  123SOL    HW1 4668   0.660   4.836   1.035
  123SOL    HW2 4669   0.572   4.724   1.115
  124SOL     OW 4670   1.737   2.758   5.604
  124SOL    HW1 4671   1.650   2.786   5.645
  124SOL    HW2 4672   1.807   2.752   5.676
  125SOL     OW 4673   2.143   5.371   5.706
  125SOL    HW1 4674   2.059   5.323   5.734
  125SOL    HW2 4675   2.214   5.356   5.775
  126SOL     OW 4676   3.372   2.438   5.255
  126SOL    HW1 4677   3.451   2.436   5.194
  126SOL    HW2 4678   3.384   2.510   5.323
  127SOL     OW 4679   2.354   1.803   0.521
  127SOL    HW1 4680   2.358   1.740   0.444
  127SOL    HW2 4681   2.302   1.885   0.494
  128SOL     OW 4682   4.480   3.684   0.134
  128SOL    HW1 4683   4.495   3.710   0.038
  128SOL    HW2 4684   4.547   3.730   0.192
  129SOL     OW 4685   3.283   3.658   0.048
  129SOL    HW1 4686   3.324   3.743   0.079
  129SOL    HW2 4687   3.192   3.648   0.088
  130SOL     OW 4688   3.613   1.933   5.022
  130SOL    HW1 4689   3.645   1.843   4.992
  130SOL    HW2 4690   3.561   1.976   4.948
  131SOL     OW 4691   1.582   0.740   6.124
  131SOL    HW1 4692   1.657   0.717   6.186
  131SOL    HW2 4693   1.508   0.784   6.174
  132SOL     OW 4694   5.477   3.985   1.137
  132SOL    HW1 4695   5.413   4.028   1.201
  132SOL    HW2 4696   5.561   4.040   1.133
  133SOL     OW 4697   2.569   0.644   1.522
  133SOL    HW1 4698   2.644   0.672   1.461
  133SOL    HW2 4699   2.482   0.673   1.484
  134SOL     OW 4700   3.288   3.324   0.630
  134SOL    HW1 4701   3.230   3.253   0.591
  134SOL    HW2 4702   3.231   3.393   0.674
  135SOL     OW 4703   4.607   2.919   1.179
  135SOL    HW1 4704   4.630   2.980   1.255
  135SOL    HW2 4705   4.657   2.947   1.097
  136SOL     OW 4706   4.785   0.267   1.943
  136SOL    HW1 4707   4.854   0.220   1.997
  136SOL    HW2 4708   4.711   0.297   2.003
  137SOL     OW 4709   2.497   2.437   5.619
  137SOL    HW1 4710   2.411   2.387   5.609
  137SOL    HW2 4711   2.499   2.513   5.554
  138SOL     OW 4712   0.159   2.753   4.856
  138SOL    HW1 4713   0.205   2.837   4.883
  138SOL    HW2 4714   0.083   2.775   4.794
  139SOL     OW 4715   1.386   1.233   5.757
  139SOL    HW1 4716   1.382   1.258   5.853
  139SOL    HW2 4717   1.304   1.183   5.731
  140SOL     OW 4718   4.773   1.749   6.111
  140SOL    HW1 4719   4.733   1.709   6.029
  140SOL    HW2 4720   4.709   1.740   6.187
  141SOL     OW 4721   5.149   0.283   5.882
  141SOL    HW1 4722   5.061   0.242   5.904
  141SOL    HW2 4723   5.153   0.305   5.785
  142SOL     OW 4724   1.995   2.806   4.768
  142SOL    HW1 4725   2.014   2.800   4.670
  142SOL    HW2 4726   1.959   2.718   4.800
  143SOL     OW 4727   3.932   4.095   0.498
  143SOL    HW1 4728   4.016   4.064   0.454
  143SOL    HW2 4729   3.893   4.171   0.446
  144SOL     OW 4730   1.492   2.056   1.045
  144SOL    HW1 4731   1.567   2.019   0.990
  144SOL    HW2 4732   1.527   2.131   1.101
  145SOL     OW 4733   1.436   2.462   5.653
  145SOL    HW1 4734   1.522   2.472   5.603
  145SOL    HW2 4735   1.382   2.546   5.643
  146SOL     OW 4736   0.884   0.095   5.980
  146SOL    HW1 4737   0.903   0.033   6.056
  146SOL    HW2 4738   0.940   0.177   5.988
  147SOL     OW 4739   2.399   0.788   1.934
  147SOL    HW1 4740   2.473   0.802   1.868
  147SOL    HW2 4741   2.322   0.847   1.910
  148SOL     OW 4742   2.279   0.603   5.561
  148SOL    HW1 4743   2.368   0.647   5.569
  148SOL    HW2 4744   2.251   0.600   5.465
  149SOL     OW 4745   4.250   1.538   5.238
  149SOL    HW1 4746   4.319   1.497   5.178
  149SOL    HW2 4747   4.286   1.544   5.331
  150SOL     OW 4748   5.398   4.088   0.678
  150SOL    HW1 4749   5.309   4.043   0.676
  150SOL    HW2 4750   5.465   4.029   0.723
  151SOL     OW 4751   3.354   0.264   1.078
  151SOL    HW1 4752   3.378   0.173   1.045
  151SOL    HW2 4753   3.343   0.326   1.000
  152SOL     OW 4754   0.402   1.110   5.615
  152SOL    HW1 4755   0.439   1.061   5.536
  152SOL    HW2 4756   0.317   1.156   5.590
  153SOL     OW 4757   1.727   2.566   6.223
  153SOL    HW1 4758   1.765   2.632   6.288
  153SOL    HW2 4759   1.684   2.615   6.146
  154SOL     OW 4760   5.577   0.381   0.076
  154SOL    HW1 4761   0.007   0.375   0.134
  154SOL    HW2 4762   5.588   0.457   0.012
  155SOL     OW 4763   2.996   0.193   6.080
  155SOL    HW1 4764   2.950   0.107   6.101
  155SOL    HW2 4765   2.948   0.240   6.005
  156SOL     OW 4766   3.956   4.371   0.717
  156SOL    HW1 4767   3.901   4.287   0.723
  156SOL    HW2 4768   3.895   4.450   0.718
  157SOL     OW 4769   0.228   3.190   0.865
  157SOL    HW1 4770   0.305   3.246   0.836
  157SOL    HW2 4771   0.199   3.131   0.789
  158SOL     OW 4772   5.024   2.536   1.104
  158SOL    HW1 4773   4.985   2.586   1.182
  158SOL    HW2 4774   5.123   2.544   1.105
  159SOL     OW 4775   1.081   4.022   1.304
  159SOL    HW1 4776   1.059   4.051   1.397
  159SOL    HW2 4777   1.178   4.037   1.285
  160SOL     OW 4778   1.015   1.104   6.071
  160SOL    HW1 4779   1.111   1.077   6.072
  160SOL    HW2 4780   0.995   1.155   5.987
  161SOL     OW 4781   1.171   2.982   0.115
  161SOL    HW1 4782   1.173   2.937   0.204
  161SOL    HW2 4783   1.077   3.006   0.092
  162SOL     OW 4784   3.939   3.103   4.659
  162SOL    HW1 4785   3.860   3.165   4.651
  162SOL    HW2 4786   4.017   3.141   4.610
  163SOL     OW 4787   4.662   2.114   0.497
  163SOL    HW1 4788   4.742   2.146   0.547
  163SOL    HW2 4789   4.580   2.128   0.553
  164SOL     OW 4790   4.116   2.217   0.310
  164SOL    HW1 4791   4.109   2.125   0.273
  164SOL    HW2 4792   4.148   2.280   0.239
  165SOL     OW 4793   4.436   1.312   5.595
  165SOL    HW1 4794   4.514   1.250   5.598
  165SOL    HW2 4795   4.355   1.266   5.632
  166SOL     OW 4796   3.232   0.568   6.061
  166SOL    HW1 4797   3.251   0.472   6.042
  166SOL    HW2 4798   3.292   0.625   6.004
  167SOL     OW 4799   2.702   0.393   0.709
  167SOL    HW1 4800   2.784   0.379   0.653
  167SOL    HW2 4801   2.701   0.486   0.744
  168SOL     OW 4802   3.676   3.319   0.949
  168SOL    HW1 4803   3.580   3.319   0.922
  168SOL    HW2 4804   3.686   3.363   1.038
  169SOL     OW 4805   3.765   4.675   6.191
  169SOL    HW1 4806   3.790   4.604   6.257
  169SOL    HW2 4807   3.667   4.696   6.200
  170SOL     OW 4808   3.299   2.878   6.385
  170SOL    HW1 4809   3.239   2.951   6.352
  170SOL    HW2 4810   3.331   2.901   6.477
  171SOL     OW 4811   0.395   3.028   1.011
  171SOL    HW1 4812   0.483   3.075   1.010
  171SOL    HW2 4813   0.325   3.085   0.969
  172SOL     OW 4814   3.248   4.900   0.157
  172SOL    HW1 4815   3.336   4.909   0.204
  172SOL    HW2 4816   3.203   4.815   0.185
  173SOL     OW 4817   2.936   3.657   1.517
  173SOL    HW1 4818   3.029   3.660   1.481
  173SOL    HW2 4819   2.926   3.725   1.590
  174SOL     OW 4820   4.988   1.891   0.357
  174SOL    HW1 4821   5.050   1.837   0.413
  174SOL    HW2 4822   4.893   1.869   0.380
  175SOL     OW 4823   4.188   4.346   5.539
  175SOL    HW1 4824   4.262   4.391   5.488
  175SOL    HW2 4825   4.134   4.291   5.476
  176SOL     OW 4826   2.968   0.946   5.952
  176SOL    HW1 4827   2.891   0.886   5.975
  176SOL    HW2 4828   3.024   0.961   6.034
  177SOL     OW 4829   0.340   1.325   5.899
  177SOL    HW1 4830   0.266   1.292   5.841
  177SOL    HW2 4831   0.366   1.418   5.871
  178SOL     OW 4832   2.606   0.924   1.210
  178SOL    HW1 4833   2.631   0.994   1.143
  178SOL    HW2 4834   2.527   0.873   1.178
  179SOL     OW 4835   1.009   3.856   1.109
  179SOL    HW1 4836   1.023   3.911   1.191
  179SOL    HW2 4837   1.065   3.891   1.035
  180SOL     OW 4838   0.461   3.315   0.796
  180SOL    HW1 4839   0.451   3.406   0.835
  180SOL    HW2 4840   0.529   3.264   0.849
  181SOL     OW 4841   3.788   2.418   4.929
  181SOL    HW1 4842   3.768   2.416   4.831
  181SOL    HW2 4843   3.798   2.324   4.963
  182SOL     OW 4844   1.397   0.547   0.001
  182SOL    HW1 4845   1.327   0.617   6.488
  182SOL    HW2 4846   1.434   0.521   6.410
  183SOL     OW 4847   0.414   2.165   5.473
  183SOL    HW1 4848   0.514   2.165   5.461
  183SOL    HW2 4849   0.390   2.228   5.548
  184SOL     OW 4850   3.390   0.587   1.347
  184SOL    HW1 4851   3.391   0.615   1.251
  184SOL    HW2 4852   3.400   0.487   1.352
  185SOL     OW 4853   5.437   3.258   0.112
  185SOL    HW1 4854   5.431   3.337   0.173
  185SOL    HW2 4855   5.347   3.240   0.072
  186SOL     OW 4856   4.119   2.774   0.329
  186SOL    HW1 4857   4.112   2.873   0.313
  186SOL    HW2 4858   4.152   2.729   0.246
  187SOL     OW 4859   3.721   0.101   1.090
  187SOL    HW1 4860   3.698   0.089   0.993
  187SOL    HW2 4861   3.640   0.084   1.145
  188SOL     OW 4862   1.977   0.915   6.451
  188SOL    HW1 4863   1.937   0.968   0.027
  188SOL    HW2 4864   2.077   0.914   6.461
  189SOL     OW 4865   0.905   5.001   0.631
  189SOL    HW1 4866   0.993   4.999   0.677
  189SOL    HW2 4867   0.918   4.981   0.533
  190SOL     OW 4868   0.552   2.708   1.571
  190SOL    HW1 4869   0.487   2.762   1.518
  190SOL    HW2 4870   0.520   2.700   1.666
  191SOL     OW 4871   0.384   4.337   5.732
  191SOL    HW1 4872   0.293   4.334   5.692
  191SOL    HW2 4873   0.379   4.312   5.828
  192SOL     OW 4874   4.606   2.594   6.231
  192SOL    HW1 4875   4.506   2.588   6.236
  192SOL    HW2 4876   4.644   2.587   6.323
  193SOL     OW 4877   1.428   5.069   1.558
  193SOL    HW1 4878   1.453   4.974   1.538
  193SOL    HW2 4879   1.367   5.103   1.485
  194SOL     OW 4880   0.309   1.965   5.639
  194SOL    HW1 4881   0.361   1.985   5.723
  194SOL    HW2 4882   0.333   2.033   5.569
  195SOL     OW 4883   4.822   4.328   5.702
  195SOL    HW1 4884   4.853   4.253   5.643
  195SOL    HW2 4885   4.901   4.380   5.735
  196SOL     OW 4886   1.021   1.067   6.350
  196SOL    HW1 4887   1.019   1.079   6.251
  196SOL    HW2 4888   0.927   1.055   6.383
  197SOL     OW 4889   2.893   5.409   0.085
  197SOL    HW1 4890   2.986   5.373   0.072
  197SOL    HW2 4891   2.898   5.497   0.132
  198SOL     OW 4892   5.306   2.939   5.004
  198SOL    HW1 4893   5.323   3.034   4.977
  198SOL    HW2 4894   5.323   2.879   4.926
  199SOL     OW 4895   0.990   4.000   6.115
  199SOL    HW1 4896   0.936   4.082   6.103
  199SOL    HW2 4897   1.083   4.016   6.081
  200SOL     OW 4898   3.491   0.976   6.053
  200SOL    HW1 4899   3.555   1.052   6.038
  200SOL    HW2 4900   3.508   0.935   6.142
  201SOL     OW 4901   5.071   0.890   0.519
  201SOL    HW1 4902   5.071   0.792   0.498
  201SOL    HW2 4903   4.991   0.912   0.574
  202SOL     OW 4904   3.703   4.669   1.176
  202SOL    HW1 4905   3.786   4.627   1.212
  202SOL    HW2 4906   3.637   4.682   1.250
  203SOL     OW 4907   4.736   5.457   6.129
  203SOL    HW1 4908   4.732   5.527   6.200
  203SOL    HW2 4909   4.705   5.370   6.166
  204SOL     OW 4910   2.030   1.172   1.230
  204SOL    HW1 4911   2.122   1.186   1.267
  204SOL    HW2 4912   1.969   1.141   1.303
  205SOL     OW 4913   2.587   3.841   5.079
  205SOL    HW1 4914   2.638   3.781   5.141
  205SOL    HW2 4915   2.551   3.787   5.003
  206SOL     OW 4916   0.756   0.286   6.225
  206SOL    HW1 4917   0.845   0.246   6.248
  206SOL    HW2 4918   0.757   0.314   6.129
  207SOL     OW 4919   3.277   3.622   0.471
  207SOL    HW1 4920   3.342   3.598   0.542
  207SOL    HW2 4921   3.269   3.721   0.465
  208SOL     OW 4922   3.415   3.417   0.083
  208SOL    HW1 4923   3.369   3.503   0.061
  208SOL    HW2 4924   3.419   3.359   0.002
  209SOL     OW 4925   2.522   1.300   0.576
  209SOL    HW1 4926   2.471   1.242   0.512
  209SOL    HW2 4927   2.471   1.308   0.661
  210SOL     OW 4928   1.034   1.593   6.100
  210SOL    HW1 4929   0.981   1.601   6.185
  210SOL    HW2 4930   0.973   1.561   6.026
  211SOL     OW 4931   2.711   3.244   0.885
  211SOL    HW1 4932   2.742   3.183   0.958
  211SOL    HW2 4933   2.789   3.267   0.826
  212SOL     OW 4934   2.113   4.117   0.220
  212SOL    HW1 4935   2.041   4.052   0.247
  212SOL    HW2 4936   2.118   4.121   0.120
  213SOL     OW 4937   1.768   4.251   5.481
  213SOL    HW1 4938   1.675   4.230   5.451
  213SOL    HW2 4939   1.830   4.179   5.450
  214SOL     OW 4940   4.528   0.130   1.465
  214SOL    HW1 4941   4.572   0.161   1.549
  214SOL    HW2 4942   4.597   0.098   1.401
  215SOL     OW 4943   2.265   1.753   0.781
  215SOL    HW1 4944   2.279   1.845   0.819
  215SOL    HW2 4945   2.289   1.754   0.684
  216SOL     OW 4946   3.555   2.290   0.274
  216SOL    HW1 4947   3.508   2.202   0.265
  216SOL    HW2 4948   3.574   2.327   0.183
  217SOL     OW 4949   4.713   3.386   1.143
  217SOL    HW1 4950   4.750   3.379   1.051
  217SOL    HW2 4951   4.719   3.481   1.174
  218SOL     OW 4952   2.578   4.709   0.906
  218SOL    HW1 4953   2.519   4.760   0.843
  218SOL    HW2 4954   2.663   4.760   0.920
  219SOL     OW 4955   2.377   4.752   4.805
  219SOL    HW1 4956   2.296   4.702   4.774
  219SOL    HW2 4957   2.459   4.712   4.763
  220SOL     OW 4958   4.245   4.021   0.060
  220SOL    HW1 4959   4.200   3.933   0.047
  220SOL    HW2 4960   4.211   4.063   0.145
  221SOL     OW 4961   0.466   0.057   5.029
  221SOL    HW1 4962   0.484   5.536   5.005
  221SOL    HW2 4963   0.367   0.071   5.037
  222SOL     OW 4964   4.004   0.364   5.797
  222SOL    HW1 4965   3.958   0.319   5.721
  222SOL    HW2 4966   3.944   0.364   5.877
  223SOL     OW 4967   2.372   0.115   1.085
  223SOL    HW1 4968   2.438   0.041   1.103
  223SOL    HW2 4969   2.418   0.203   1.091
  224SOL     OW 4970   1.056   2.482   6.130
  224SOL    HW1 4971   1.010   2.399   6.100
  224SOL    HW2 4972   1.155   2.467   6.133
  225SOL     OW 4973   2.852   1.817   1.332
  225SOL    HW1 4974   2.879   1.726   1.363
  225SOL    HW2 4975   2.753   1.826   1.337
  226SOL     OW 4976   1.325   0.185   1.781
  226SOL    HW1 4977   1.328   0.119   1.856
  226SOL    HW2 4978   1.332   0.278   1.818
  227SOL     OW 4979   3.521   0.847   0.736
  227SOL    HW1 4980   3.591   0.887   0.676
  227SOL    HW2 4981   3.558   0.840   0.829
  228SOL     OW 4982   5.154   4.904   1.173
  228SOL    HW1 4983   5.234   4.926   1.230
  228SOL    HW2 4984   5.122   4.987   1.128
  229SOL     OW 4985   4.685   0.430   5.794
  229SOL    HW1 4986   4.665   0.515   5.747
  229SOL    HW2 4987   4.758   0.381   5.744
  230SOL     OW 4988   1.266   2.962   0.649
  230SOL    HW1 4989   1.338   2.912   0.698
  230SOL    HW2 4990   1.181   2.956   0.700
  231SOL     OW 4991   5.027   0.708   5.895
  231SOL    HW1 4992   5.102   0.774   5.907
  231SOL    HW2 4993   5.045   0.627   5.951
  232SOL     OW 4994   4.126   1.066   0.093
  232SOL    HW1 4995   4.173   1.145   0.054
  232SOL    HW2 4996   4.036   1.058   0.052
  233SOL     OW 4997   3.981   4.930   6.245
  233SOL    HW1 4998   3.969   4.843   6.198
  233SOL    HW2 4999   4.002   4.914   6.341
  234SOL     OW 5000   1.789   1.918   1.968
  234SOL    HW1 5001   1.690   1.934   1.975
  234SOL    HW2 5002   1.817   1.851   2.037
  235SOL     OW 5003   4.776   2.038   5.735
  235SOL    HW1 5004   4.786   2.135   5.711
  235SOL    HW2 5005   4.680   2.012   5.729
  236SOL     OW 5006   1.093   1.510   0.093
  236SOL    HW1 5007   1.192   1.518   0.104
  236SOL    HW2 5008   1.048   1.551   0.172
  237SOL     OW 5009   1.991   1.670   0.399
  237SOL    HW1 5010   2.051   1.590   0.390
  237SOL    HW2 5011   1.966   1.682   0.495
  238SOL     OW 5012   2.881   3.279   5.341
  238SOL    HW1 5013   2.834   3.194   5.363
  238SOL    HW2 5014   2.888   3.289   5.242
  239SOL     OW 5015   1.214   2.584   0.820
  239SOL    HW1 5016   1.283   2.652   0.795
  239SOL    HW2 5017   1.195   2.591   0.918
  240SOL     OW 5018   2.561   0.815   5.858
  240SOL    HW1 5019   2.574   0.913   5.869
  240SOL    HW2 5020   2.528   0.795   5.765
  241SOL     OW 5021   0.102   2.489   5.528
  241SOL    HW1 5022   0.097   2.422   5.602
  241SOL    HW2 5023   0.010   2.509   5.494
  242SOL     OW 5024   1.748   1.180   0.544
  242SOL    HW1 5025   1.712   1.178   0.451
  242SOL    HW2 5026   1.717   1.099   0.593
  243SOL     OW 5027   4.215   0.638   1.282
  243SOL    HW1 5028   4.291   0.689   1.324
  243SOL    HW2 5029   4.194   0.558   1.338
  244SOL     OW 5030   1.010   5.122   0.984
  244SOL    HW1 5031   1.068   5.203   0.988
  244SOL    HW2 5032   0.914   5.150   0.984
  245SOL     OW 5033   5.016   0.531   0.224
  245SOL    HW1 5034   5.063   0.568   0.144
  245SOL    HW2 5035   4.971   0.445   0.199
  246SOL     OW 5036   4.324   4.560   0.636
  246SOL    HW1 5037   4.309   4.461   0.634
  246SOL    HW2 5038   4.240   4.606   0.608
  247SOL     OW 5039   1.286   1.357   0.767
  247SOL    HW1 5040   1.372   1.390   0.804
  247SOL    HW2 5041   1.287   1.257   0.764
  248SOL     OW 5042   2.920   3.495   0.936
  248SOL    HW1 5043   2.961   3.482   1.026
  248SOL    HW2 5044   2.822   3.511   0.947
  249SOL     OW 5045   3.401   3.496   5.052
  249SOL    HW1 5046   3.365   3.577   5.004
  249SOL    HW2 5047   3.333   3.423   5.048
  250SOL     OW 5048   4.843   2.045   1.769
  250SOL    HW1 5049   4.934   2.050   1.809
  250SOL    HW2 5050   4.845   1.987   1.688
  251SOL     OW 5051   3.550   4.075   1.198
  251SOL    HW1 5052   3.485   4.076   1.274
  251SOL    HW2 5053   3.556   4.166   1.157
  252SOL     OW 5054   4.068   1.780   4.934
  252SOL    HW1 5055   4.004   1.728   4.877
  252SOL    HW2 5056   4.161   1.768   4.897
  253SOL     OW 5057   4.540   0.188   0.546
  253SOL    HW1 5058   4.440   0.189   0.552
  253SOL    HW2 5059   4.579   0.168   0.636
  254SOL     OW 5060   3.662   5.364   0.311
  254SOL    HW1 5061   3.645   5.365   0.410
  254SOL    HW2 5062   3.629   5.278   0.273
  255SOL     OW 5063   3.466   2.080   5.209
  255SOL    HW1 5064   3.513   2.023   5.142
  255SOL    HW2 5065   3.386   2.122   5.166
  256SOL     OW 5066   5.356   0.627   6.326
  256SOL    HW1 5067   5.309   0.714   6.342
  256SOL    HW2 5068   5.360   0.610   6.227
  257SOL     OW 5069   1.029   3.517   6.268
  257SOL    HW1 5070   0.943   3.493   6.312
  257SOL    HW2 5071   1.104   3.470   6.313
  258SOL     OW 5072   0.647   4.948   1.689
  258SOL    HW1 5073   0.642   5.036   1.738
  258SOL    HW2 5074   0.681   4.878   1.751
  259SOL     OW 5075   1.491   2.008   0.266
  259SOL    HW1 5076   1.527   2.101   0.263
  259SOL    HW2 5077   1.460   1.987   0.359
  260SOL     OW 5078   4.937   2.674   5.960
  260SOL    HW1 5079   4.929   2.712   5.868
  260SOL    HW2 5080   4.863   2.607   5.975
  261SOL     OW 5081   4.934   0.526   2.072
  261SOL    HW1 5082   4.861   0.531   2.140
  261SOL    HW2 5083   4.995   0.450   2.093
  262SOL     OW 5084   4.181   4.419   0.328
  262SOL    HW1 5085   4.265   4.468   0.305
  262SOL    HW2 5086   4.102   4.469   0.292
  263SOL     OW 5087   2.423   3.110   5.520
  263SOL    HW1 5088   2.479   3.192   5.529
  263SOL    HW2 5089   2.352   3.110   5.590
  264SOL     OW 5090   4.384   0.968   1.037
  264SOL    HW1 5091   4.350   0.890   0.985
  264SOL    HW2 5092   4.309   1.030   1.059
  265SOL     OW 5093   4.396   5.082   5.508
  265SOL    HW1 5094   4.336   5.155   5.476
  265SOL    HW2 5095   4.384   5.001   5.449
  266SOL     OW 5096   1.576   0.529   0.837
  266SOL    HW1 5097   1.659   0.572   0.872
  266SOL    HW2 5098   1.510   0.516   0.911
  267SOL     OW 5099   3.350   4.108   1.396
  267SOL    HW1 5100   3.346   4.207   1.383
  267SOL    HW2 5101   3.370   4.088   1.492
  268SOL     OW 5102   4.567   0.063   2.167
  268SOL    HW1 5103   4.553   0.025   2.259
  268SOL    HW2 5104   4.521   0.006   2.100
  269SOL     OW 5105   4.649   3.824   0.298
  269SOL    HW1 5106   4.600   3.904   0.333
  269SOL    HW2 5107   4.732   3.854   0.251
  270SOL     OW 5108   2.382   0.314   1.974
  270SOL    HW1 5109   2.448   0.283   1.906
  270SOL    HW2 5110   2.414   0.401   2.013
  271SOL     OW 5111   0.174   0.824   5.977
  271SOL    HW1 5112   0.256   0.857   5.932
  271SOL    HW2 5113   0.141   0.894   6.041
  272SOL     OW 5114   2.375   3.262   1.556
  272SOL    HW1 5115   2.355   3.276   1.653
  272SOL    HW2 5116   2.422   3.174   1.544
  273SOL     OW 5117   2.177   4.374   0.275
  273SOL    HW1 5118   2.097   4.430   0.253
  273SOL    HW2 5119   2.158   4.278   0.255
  274SOL     OW 5120   2.602   0.390   5.849
  274SOL    HW1 5121   2.533   0.429   5.910
  274SOL    HW2 5122   2.565   0.308   5.805
  275SOL     OW 5123   2.531   4.216   6.302
  275SOL    HW1 5124   2.591   4.291   6.272
  275SOL    HW2 5125   2.445   4.253   6.335
  276SOL     OW 5126   2.982   1.080   1.228
  276SOL    HW1 5127   3.024   1.016   1.292
  276SOL    HW2 5128   3.030   1.076   1.140
  277SOL     OW 5129   2.764   4.549   1.266
  277SOL    HW1 5130   2.730   4.481   1.331
  277SOL    HW2 5131   2.857   4.526   1.240
  278SOL     OW 5132   0.571   0.198   0.406
  278SOL    HW1 5133   0.516   0.224   0.327
  278SOL    HW2 5134   0.529   0.235   0.489
  279SOL     OW 5135   3.122   3.117   0.542
  279SOL    HW1 5136   3.055   3.102   0.470
  279SOL    HW2 5137   3.085   3.085   0.629
  280SOL     OW 5138   2.539   3.877   1.204
  280SOL    HW1 5139   2.539   3.810   1.279
  280SOL    HW2 5140   2.587   3.838   1.126
  281SOL     OW 5141   4.430   1.706   1.632
  281SOL    HW1 5142   4.472   1.788   1.671
  281SOL    HW2 5143   4.364   1.732   1.561
  282SOL     OW 5144   2.600   0.701   6.315
  282SOL    HW1 5145   2.546   0.666   6.392
  282SOL    HW2 5146   2.689   0.656   6.314
  283SOL     OW 5147   4.855   2.312   1.099
  283SOL    HW1 5148   4.861   2.258   1.183
  283SOL    HW2 5149   4.926   2.382   1.100
  284SOL     OW 5150   3.383   1.660   2.322
  284SOL    HW1 5151   3.424   1.600   2.391
  284SOL    HW2 5152   3.287   1.633   2.309
  285SOL     OW 5153   1.641   1.514   5.461
  285SOL    HW1 5154   1.708   1.448   5.426
  285SOL    HW2 5155   1.612   1.486   5.553
  286SOL     OW 5156   0.757   4.007   1.451
  286SOL    HW1 5157   0.671   4.052   1.477
  286SOL    HW2 5158   0.767   4.008   1.352
  287SOL     OW 5159   4.274   3.183   0.919
  287SOL    HW1 5160   4.250   3.093   0.953
  287SOL    HW2 5161   4.339   3.227   0.982
  288SOL     OW 5162   0.850   1.933   6.140
  288SOL    HW1 5163   0.911   1.950   6.217
  288SOL    HW2 5164   0.895   1.961   6.055
  289SOL     OW 5165   0.010   4.491   6.324
  289SOL    HW1 5166   0.008   4.589   6.344
  289SOL    HW2 5167   5.569   4.455   6.322
  290SOL     OW 5168   0.429   2.476   4.653
  290SOL    HW1 5169   0.512   2.517   4.615
  290SOL    HW2 5170   0.389   2.412   4.587
  291SOL     OW 5171   1.671   1.881   5.313
  291SOL    HW1 5172   1.621   1.843   5.391
  291SOL    HW2 5173   1.606   1.912   5.244
  292SOL     OW 5174   2.173   5.243   0.867
  292SOL    HW1 5175   2.190   5.256   0.770
  292SOL    HW2 5176   2.122   5.321   0.904
  293SOL     OW 5177   0.129   1.594   6.159
  293SOL    HW1 5178   0.088   1.511   6.195
  293SOL    HW2 5179   0.086   1.617   6.071
  294SOL     OW 5180   4.887   4.808   6.480
  294SOL    HW1 5181   4.976   4.796   0.025
  294SOL    HW2 5182   4.893   4.784   6.384
  295SOL     OW 5183   2.745   4.526   1.854
  295SOL    HW1 5184   2.735   4.493   1.948
  295SOL    HW2 5185   2.819   4.477   1.809
  296SOL     OW 5186   2.507   3.692   5.755
  296SOL    HW1 5187   2.471   3.635   5.828
  296SOL    HW2 5188   2.438   3.758   5.726
  297SOL     OW 5189   4.402   0.337   1.881
  297SOL    HW1 5190   4.462   0.324   1.960
  297SOL    HW2 5191   4.307   0.325   1.909
  298SOL     OW 5192   4.151   2.618   4.943
  298SOL    HW1 5193   4.217   2.670   4.890
  298SOL    HW2 5194   4.058   2.638   4.910
  299SOL     OW 5195   5.596   4.293   0.668
  299SOL    HW1 5196   5.533   4.216   0.673
  299SOL    HW2 5197   5.605   4.324   0.574
  300SOL     OW 5198   2.944   2.838   6.422
  300SOL    HW1 5199   2.996   2.784   6.490
  300SOL    HW2 5200   2.938   2.786   6.337
  301SOL     OW 5201   0.971   2.527   2.217
  301SOL    HW1 5202   0.880   2.539   2.256
  301SOL    HW2 5203   1.040   2.557   2.284
  302SOL     OW 5204   0.749   3.404   6.098
  302SOL    HW1 5205   0.760   3.414   6.197
  302SOL    HW2 5206   0.784   3.486   6.052
  303SOL     OW 5207   4.557   1.731   2.204
  303SOL    HW1 5208   4.616   1.802   2.167
  303SOL    HW2 5209   4.610   1.649   2.222
  304SOL     OW 5210   1.596   2.698   6.017
  304SOL    HW1 5211   1.604   2.697   5.917
  304SOL    HW2 5212   1.504   2.726   6.043
  305SOL     OW 5213   2.024   4.799   0.635
  305SOL    HW1 5214   2.037   4.740   0.555
  305SOL    HW2 5215   2.048   4.893   0.612
  306SOL     OW 5216   3.406   2.970   0.120
  306SOL    HW1 5217   3.398   2.988   0.218
  306SOL    HW2 5218   3.500   2.987   0.090
  307SOL     OW 5219   0.416   0.267   0.172
  307SOL    HW1 5220   0.472   0.279   0.090
  307SOL    HW2 5221   0.358   0.186   0.162
  308SOL     OW 5222   2.120   4.968   5.126
  308SOL    HW1 5223   2.053   5.039   5.142
  308SOL    HW2 5224   2.148   4.968   5.030
  309SOL     OW 5225   0.711   0.912   0.983
  309SOL    HW1 5226   0.769   0.873   1.055
  309SOL    HW2 5227   0.727   0.864   0.897
  310SOL     OW 5228   2.267   2.275   5.554
  310SOL    HW1 5229   2.347   2.226   5.518
  310SOL    HW2 5230   2.184   2.222   5.534
  311SOL     OW 5231   1.302   0.844   0.905
  311SOL    HW1 5232   1.354   0.856   0.990
  311SOL    HW2 5233   1.362   0.807   0.834
  312SOL     OW 5234   0.390   3.160   5.399
  312SOL    HW1 5235   0.391   3.162   5.299
  312SOL    HW2 5236   0.414   3.251   5.434
  313SOL     OW 5237   4.689   0.032   5.910
  313SOL    HW1 5238   4.725   5.563   5.827
  313SOL    HW2 5239   4.701   5.545   5.988
  314SOL     OW 5240   0.040   2.941   0.330
  314SOL    HW1 5241   0.133   2.975   0.314
  314SOL    HW2 5242   0.011   2.887   0.251
  315SOL     OW 5243   1.861   0.491   5.540
  315SOL    HW1 5244   1.769   0.452   5.530
  315SOL    HW2 5245   1.880   0.508   5.636
  316SOL     OW 5246   3.536   3.311   0.503
  316SOL    HW1 5247   3.447   3.312   0.548
  316SOL    HW2 5248   3.609   3.319   0.572
  317SOL     OW 5249   2.564   1.636   6.311
  317SOL    HW1 5250   2.465   1.624   6.305
  317SOL    HW2 5251   2.604   1.564   6.368
  318SOL     OW 5252   1.399   4.300   1.194
  318SOL    HW1 5253   1.496   4.321   1.194
  318SOL    HW2 5254   1.356   4.336   1.277
  319SOL     OW 5255   1.161   2.824   5.873
  319SOL    HW1 5256   1.088   2.800   5.938
  319SOL    HW2 5257   1.124   2.824   5.780
  320SOL     OW 5258   1.705   4.839   5.350
  320SOL    HW1 5259   1.703   4.749   5.307
  320SOL    HW2 5260   1.779   4.842   5.417
  321SOL     OW 5261   2.548   2.572   0.450
  321SOL    HW1 5262   2.616   2.640   0.479
  321SOL    HW2 5263   2.584   2.480   0.467
  322SOL     OW 5264   3.792   1.787   0.876
  322SOL    HW1 5265   3.767   1.732   0.956
  322SOL    HW2 5266   3.712   1.838   0.844
  323SOL     OW 5267   2.303   3.249   0.290
  323SOL    HW1 5268   2.373   3.311   0.326
  323SOL    HW2 5269   2.338   3.155   0.290
  324SOL     OW 5270   3.864   2.204   1.834
  324SOL    HW1 5271   3.928   2.137   1.872
  324SOL    HW2 5272   3.772   2.186   1.870
  325SOL     OW 5273   1.708   2.389   5.828
  325SOL    HW1 5274   1.609   2.377   5.813
  325SOL    HW2 5275   1.730   2.366   5.922
  326SOL     OW 5276   4.668   2.204   1.504
  326SOL    HW1 5277   4.644   2.130   1.567
  326SOL    HW2 5278   4.727   2.270   1.550
  327SOL     OW 5279   2.487   3.742   1.686
  327SOL    HW1 5280   2.491   3.643   1.702
  327SOL    HW2 5281   2.545   3.789   1.751
  328SOL     OW 5282   3.188   4.883   6.136
  328SOL    HW1 5283   3.171   4.887   6.234
  328SOL    HW2 5284   3.144   4.802   6.098
  329SOL     OW 5285   1.591   2.263   1.210
  329SOL    HW1 5286   1.675   2.251   1.158
  329SOL    HW2 5287   1.604   2.234   1.304
  330SOL     OW 5288   5.360   0.119   5.960
  330SOL    HW1 5289   5.373   0.117   6.059
  330SOL    HW2 5290   5.282   0.177   5.937
  331SOL     OW 5291   2.140   2.992   1.288
  331SOL    HW1 5292   2.085   3.072   1.264
  331SOL    HW2 5293   2.230   3.000   1.244
  332SOL     OW 5294   3.874   3.798   1.533
  332SOL    HW1 5295   3.967   3.832   1.524
  332SOL    HW2 5296   3.810   3.871   1.507
  333SOL     OW 5297   4.733   1.905   2.098
  333SOL    HW1 5298   4.830   1.926   2.094
  333SOL    HW2 5299   4.682   1.973   2.045
  334SOL     OW 5300   2.046   0.034   5.622
  334SOL    HW1 5301   2.082   5.519   5.651
  334SOL    HW2 5302   2.118   0.085   5.574
  335SOL     OW 5303   0.470   3.948   6.264
  335SOL    HW1 5304   0.449   3.877   6.195
  335SOL    HW2 5305   0.531   4.016   6.223
  336SOL     OW 5306   0.668   1.727   6.161
  336SOL    HW1 5307   0.742   1.795   6.154
  336SOL    HW2 5308   0.583   1.773   6.187
  337SOL     OW 5309   0.164   1.277   0.764
  337SOL    HW1 5310   0.225   1.315   0.695
  337SOL    HW2 5311   0.074   1.260   0.724
  338SOL     OW 5312   4.509   4.400   0.921
  338SOL    HW1 5313   4.527   4.304   0.944
  338SOL    HW2 5314   4.592   4.440   0.881
  339SOL     OW 5315   0.139   1.987   1.111
  339SOL    HW1 5316   0.138   2.017   1.016
  339SOL    HW2 5317   0.048   1.954   1.136
  340SOL     OW 5318   0.504   4.451   0.260
  340SOL    HW1 5319   0.596   4.488   0.248
  340SOL    HW2 5320   0.456   4.449   0.172
  341SOL     OW 5321   4.508   3.175   6.498
  341SOL    HW1 5322   4.552   3.226   0.073
  341SOL    HW2 5323   4.558   3.090   6.482
  342SOL     OW 5324   0.102   1.472   5.405
  342SOL    HW1 5325   0.039   1.544   5.435
  342SOL    HW2 5326   0.094   1.459   5.306
  343SOL     OW 5327   1.754   0.399   0.178
  343SOL    HW1 5328   1.845   0.400   0.137
  343SOL    HW2 5329   1.754   0.337   0.257
  344SOL     OW 5330   3.228   2.710   0.765
  344SOL    HW1 5331   3.155   2.646   0.739
  344SOL    HW2 5332   3.189   2.787   0.815
  345SOL     OW 5333   3.494   4.712   6.235
  345SOL    HW1 5334   3.424   4.647   6.266
  345SOL    HW2 5335   3.459   4.766   6.159
  346SOL     OW 5336   5.554   1.863   1.190
  346SOL    HW1 5337   5.563   1.773   1.146
  346SOL    HW2 5338   5.545   1.850   1.289
  347SOL     OW 5339   1.234   0.464   0.435
  347SOL    HW1 5340   1.192   0.374   0.424
  347SOL    HW2 5341   1.325   0.454   0.474
  348SOL     OW 5342   0.512   2.250   4.346
  348SOL    HW1 5343   0.426   2.283   4.385
  348SOL    HW2 5344   0.545   2.316   4.278
  349SOL     OW 5345   4.297   4.761   6.352
  349SOL    HW1 5346   4.233   4.723   6.285
  349SOL    HW2 5347   4.356   4.828   6.307
  350SOL     OW 5348   4.374   4.471   5.375
  350SOL    HW1 5349   4.335   4.535   5.309
  350SOL    HW2 5350   4.423   4.399   5.325
  351SOL     OW 5351   0.291   5.080   1.460
  351SOL    HW1 5352   0.325   5.174   1.456
  351SOL    HW2 5353   0.345   5.023   1.398
  352SOL     OW 5354   4.474   4.006   6.282
  352SOL    HW1 5355   4.447   4.102   6.292
  352SOL    HW2 5356   4.421   3.965   6.208
  353SOL     OW 5357   2.300   4.131   5.008
  353SOL    HW1 5358   2.366   4.172   4.945
  353SOL    HW2 5359   2.212   4.122   4.963
  354SOL     OW 5360   5.229   5.422   2.315
  354SOL    HW1 5361   5.220   5.521   2.310
  354SOL    HW2 5362   5.308   5.399   2.372
  355SOL     OW 5363   4.535   3.295   0.593
  355SOL    HW1 5364   4.485   3.376   0.561
  355SOL    HW2 5365   4.526   3.222   0.525
  356SOL     OW 5366   0.815   3.458   5.217
  356SOL    HW1 5367   0.839   3.409   5.134
  356SOL    HW2 5368   0.816   3.556   5.200
  357SOL     OW 5369   4.927   3.032   5.605
  357SOL    HW1 5370   4.861   3.040   5.679
  357SOL    HW2 5371   4.909   3.102   5.535
  358SOL     OW 5372   4.610   0.957   6.093
  358SOL    HW1 5373   4.666   1.003   6.163
  358SOL    HW2 5374   4.529   0.917   6.136
  359SOL     OW 5375   3.340   3.041   0.393
  359SOL    HW1 5376   3.417   3.022   0.453
  359SOL    HW2 5377   3.261   3.069   0.447
  360SOL     OW 5378   1.475   3.345   0.228
  360SOL    HW1 5379   1.390   3.314   0.186
  360SOL    HW2 5380   1.466   3.441   0.254
  361SOL     OW 5381   1.115   3.072   1.113
  361SOL    HW1 5382   1.091   2.982   1.079
  361SOL    HW2 5383   1.036   3.114   1.158
  362SOL     OW 5384   2.770   1.583   5.607
  362SOL    HW1 5385   2.783   1.619   5.700
  362SOL    HW2 5386   2.820   1.497   5.598
  363SOL     OW 5387   1.794   1.990   6.391
  363SOL    HW1 5388   1.856   1.914   6.409
  363SOL    HW2 5389   1.758   1.983   6.298
  364SOL     OW 5390   5.298   2.064   0.219
  364SOL    HW1 5391   5.200   2.083   0.217
  364SOL    HW2 5392   5.329   2.036   0.128
  365SOL     OW 5393   0.302   1.727   5.057
  365SOL    HW1 5394   0.265   1.640   5.024
  365SOL    HW2 5395   0.376   1.756   4.997
  366SOL     OW 5396   0.401   4.865   0.857
  366SOL    HW1 5397   0.454   4.846   0.939
  366SOL    HW2 5398   0.448   4.825   0.778
  367SOL     OW 5399   1.725   4.676   6.420
  367SOL    HW1 5400   1.632   4.709   6.401
  367SOL    HW2 5401   1.741   4.678   0.020
  368SOL     OW 5402   2.687   3.641   5.538
  368SOL    HW1 5403   2.735   3.556   5.558
  368SOL    HW2 5404   2.621   3.660   5.611
  369SOL     OW 5405   4.498   3.591   1.398
  369SOL    HW1 5406   4.432   3.562   1.329
  369SOL    HW2 5407   4.454   3.654   1.462
  370SOL     OW 5408   5.354   1.592   1.311
  370SOL    HW1 5409   5.328   1.523   1.243
  370SOL    HW2 5410   5.452   1.586   1.329
  371SOL     OW 5411   5.239   3.789   0.990
  371SOL    HW1 5412   5.201   3.881   0.977
  371SOL    HW2 5413   5.331   3.796   1.028
  372SOL     OW 5414   4.385   0.519   5.585
  372SOL    HW1 5415   4.300   0.537   5.635
  372SOL    HW2 5416   4.460   0.568   5.629
  373SOL     OW 5417   3.131   0.783   5.802
  373SOL    HW1 5418   3.223   0.780   5.840
  373SOL    HW2 5419   3.075   0.847   5.855
  374SOL     OW 5420   3.419   2.286   1.724
  374SOL    HW1 5421   3.328   2.269   1.763
  374SOL    HW2 5422   3.421   2.378   1.684
  375SOL     OW 5423   0.232   1.303   1.186
  375SOL    HW1 5424   0.263   1.336   1.275
  375SOL    HW2 5425   0.308   1.307   1.121
  376SOL     OW 5426   0.132   1.759   5.681
  376SOL    HW1 5427   0.185   1.839   5.654
  376SOL    HW2 5428   0.073   1.731   5.606
  377SOL     OW 5429   4.161   0.524   4.826
  377SOL    HW1 5430   4.151   0.430   4.860
  377SOL    HW2 5431   4.073   0.557   4.792
  378SOL     OW 5432   3.866   5.494   1.236
  378SOL    HW1 5433   3.801   5.445   1.295
  378SOL    HW2 5434   3.817   5.564   1.185
  379SOL     OW 5435   1.957   4.529   0.214
  379SOL    HW1 5436   1.881   4.594   0.216
  379SOL    HW2 5437   1.938   4.458   0.146
  380SOL     OW 5438   3.290   0.524   0.297
  380SOL    HW1 5439   3.289   0.624   0.291
  380SOL    HW2 5440   3.229   0.486   0.227
  381SOL     OW 5441   1.464   2.941   0.314
  381SOL    HW1 5442   1.472   2.941   0.215
  381SOL    HW2 5443   1.368   2.933   0.340
  382SOL     OW 5444   2.002   0.860   1.450
  382SOL    HW1 5445   1.937   0.934   1.434
  382SOL    HW2 5446   1.960   0.791   1.509
  383SOL     OW 5447   5.296   4.288   0.514
  383SOL    HW1 5448   5.340   4.214   0.564
  383SOL    HW2 5449   5.207   4.307   0.554
  384SOL     OW 5450   2.916   5.485   5.864
  384SOL    HW1 5451   2.876   5.508   5.953
  384SOL    HW2 5452   2.913   5.565   5.804
  385SOL     OW 5453   1.741   3.848   5.663
  385SOL    HW1 5454   1.691   3.891   5.588
  385SOL    HW2 5455   1.760   3.752   5.640
  386SOL     OW 5456   3.879   5.157   5.896
  386SOL    HW1 5457   3.804   5.092   5.894
  386SOL    HW2 5458   3.874   5.216   5.815
  387SOL     OW 5459   1.038   3.295   1.727
  387SOL    HW1 5460   0.987   3.210   1.715
  387SOL    HW2 5461   1.031   3.325   1.822
  388SOL     OW 5462   1.782   1.055   1.698
  388SOL    HW1 5463   1.755   0.959   1.704
  388SOL    HW2 5464   1.856   1.072   1.764
  389SOL     OW 5465   3.637   5.440   5.729
  389SOL    HW1 5466   3.653   5.537   5.742
  389SOL    HW2 5467   3.609   5.398   5.815
  390SOL     OW 5468   4.119   3.243   5.994
  390SOL    HW1 5469   4.097   3.195   6.079
  390SOL    HW2 5470   4.061   3.209   5.920
  391SOL     OW 5471   0.366   5.187   6.282
  391SOL    HW1 5472   0.420   5.252   6.230
  391SOL    HW2 5473   0.426   5.131   6.339
  392SOL     OW 5474   2.129   4.543   1.210
  392SOL    HW1 5475   2.194   4.489   1.157
  392SOL    HW2 5476   2.177   4.610   1.266
  393SOL     OW 5477   3.991   4.121   1.232
  393SOL    HW1 5478   4.054   4.123   1.154
  393SOL    HW2 5479   4.044   4.126   1.317
  394SOL     OW 5480   3.600   5.089   0.726
  394SOL    HW1 5481   3.692   5.050   0.728
  394SOL    HW2 5482   3.556   5.073   0.814
  395SOL     OW 5483   0.274   3.290   1.387
  395SOL    HW1 5484   0.202   3.322   1.326
  395SOL    HW2 5485   0.234   3.240   1.464
  396SOL     OW 5486   2.083   0.123   0.318
  396SOL    HW1 5487   1.998   0.092   0.276
  396SOL    HW2 5488   2.145   0.157   0.247
  397SOL     OW 5489   4.335   2.572   6.282
  397SOL    HW1 5490   4.267   2.551   6.212
  397SOL    HW2 5491   4.348   2.492   6.341
  398SOL     OW 5492   1.490   5.464   0.252
  398SOL    HW1 5493   1.482   5.533   0.180
  398SOL    HW2 5494   1.466   5.374   0.214
  399SOL     OW 5495   0.285   4.178   0.359
  399SOL    HW1 5496   0.292   4.104   0.425
  399SOL    HW2 5497   0.299   4.266   0.405
  400SOL     OW 5498   1.811   3.607   6.127
  400SOL    HW1 5499   1.837   3.548   6.050
  400SOL    HW2 5500   1.825   3.559   6.213
  401SOL     OW 5501   4.244   1.786   1.447
  401SOL    HW1 5502   4.274   1.851   1.377
  401SOL    HW2 5503   4.184   1.718   1.405
  402SOL     OW 5504   1.729   0.429   6.106
  402SOL    HW1 5505   1.779   0.433   6.192
  402SOL    HW2 5506   1.787   0.388   6.035
  403SOL     OW 5507   4.581   2.651   1.239
  403SOL    HW1 5508   4.524   2.607   1.170
  403SOL    HW2 5509   4.588   2.749   1.219
  404SOL     OW 5510   2.188   0.079   0.888
  404SOL    HW1 5511   2.127   0.001   0.902
  404SOL    HW2 5512   2.253   0.085   0.963
  405SOL     OW 5513   3.653   5.398   1.385
  405SOL    HW1 5514   3.588   5.451   1.331
  405SOL    HW2 5515   3.630   5.300   1.379
  406SOL     OW 5516   2.032   5.405   6.375
  406SOL    HW1 5517   2.001   5.358   6.293
  406SOL    HW2 5518   1.978   5.488   6.388
  407SOL     OW 5519   3.121   0.790   0.700
  407SOL    HW1 5520   3.181   0.870   0.707
  407SOL    HW2 5521   3.038   0.806   0.753
  408SOL     OW 5522   2.525   4.451   0.812
  408SOL    HW1 5523   2.547   4.541   0.849
  408SOL    HW2 5524   2.599   4.422   0.751
  409SOL     OW 5525   3.624   1.722   6.425
  409SOL    HW1 5526   3.716   1.745   6.392
  409SOL    HW2 5527   3.618   1.742   0.024
  410SOL     OW 5528   3.068   5.100   5.377
  410SOL    HW1 5529   3.158   5.136   5.400
  410SOL    HW2 5530   3.043   5.129   5.285
  411SOL     OW 5531   5.217   3.334   5.453
  411SOL    HW1 5532   5.215   3.255   5.515
  411SOL    HW2 5533   5.176   3.308   5.365
  412SOL     OW 5534   3.499   0.573   5.121
  412SOL    HW1 5535   3.435   0.519   5.066
  412SOL    HW2 5536   3.543   0.641   5.062
  413SOL     OW 5537   5.005   0.854   0.952
  413SOL    HW1 5538   4.933   0.785   0.954
  413SOL    HW2 5539   5.092   0.812   0.925
  414SOL     OW 5540   5.269   2.794   1.426
  414SOL    HW1 5541   5.302   2.823   1.516
  414SOL    HW2 5542   5.330   2.829   1.355
  415SOL     OW 5543   4.939   1.414   5.882
  415SOL    HW1 5544   4.869   1.417   5.953
  415SOL    HW2 5545   4.965   1.508   5.857
  416SOL     OW 5546   0.060   4.125   1.086
  416SOL    HW1 5547   0.061   4.205   1.027
  416SOL    HW2 5548   0.110   4.051   1.041
  417SOL     OW 5549   3.156   3.496   0.795
  417SOL    HW1 5550   3.190   3.590   0.800
  417SOL    HW2 5551   3.071   3.488   0.847
  418SOL     OW 5552   0.930   3.143   0.550
  418SOL    HW1 5553   0.922   3.054   0.506
  418SOL    HW2 5554   1.025   3.174   0.546
  419SOL     OW 5555   5.301   5.007   6.138
  419SOL    HW1 5556   5.205   4.984   6.156
  419SOL    HW2 5557   5.306   5.083   6.073
  420SOL     OW 5558   2.594   1.351   5.683
  420SOL    HW1 5559   2.692   1.351   5.702
  420SOL    HW2 5560   2.546   1.403   5.754
  421SOL     OW 5561   3.119   0.051   5.535
  421SOL    HW1 5562   3.046   0.041   5.467
  421SOL    HW2 5563   3.154   5.535   5.561
  422SOL     OW 5564   5.299   1.511   0.804
  422SOL    HW1 5565   5.256   1.490   0.716
  422SOL    HW2 5566   5.347   1.598   0.797
  423SOL     OW 5567   0.431   3.910   1.271
  423SOL    HW1 5568   0.388   3.928   1.360
  423SOL    HW2 5569   0.500   3.980   1.252
  424SOL     OW 5570   2.043   5.025   0.978
  424SOL    HW1 5571   2.101   4.983   1.048
  424SOL    HW2 5572   2.096   5.092   0.927
  425SOL     OW 5573   4.732   0.068   1.290
  425SOL    HW1 5574   4.752   5.545   1.275
  425SOL    HW2 5575   4.748   0.119   1.206
  426SOL     OW 5576   0.313   1.928   1.334
  426SOL    HW1 5577   0.248   1.956   1.263
  426SOL    HW2 5578   0.406   1.929   1.297
  427SOL     OW 5579   1.657   1.632   0.458
  427SOL    HW1 5580   1.566   1.632   0.417
  427SOL    HW2 5581   1.725   1.658   0.389
  428SOL     OW 5582   4.973   2.085   0.858
  428SOL    HW1 5583   4.878   2.084   0.891
  428SOL    HW2 5584   5.034   2.107   0.934
  429SOL     OW 5585   5.557   1.642   1.029
  429SOL    HW1 5586   5.514   1.671   0.944
  429SOL    HW2 5587   5.610   1.559   1.014
  430SOL     OW 5588   0.755   0.544   1.417
  430SOL    HW1 5589   0.795   0.455   1.438
  430SOL    HW2 5590   0.820   0.616   1.438
  431SOL     OW 5591   3.732   2.317   0.860
  431SOL    HW1 5592   3.778   2.362   0.784
  431SOL    HW2 5593   3.703   2.386   0.926
  432SOL     OW 5594   1.148   1.807   0.719
  432SOL    HW1 5595   1.141   1.823   0.620
  432SOL    HW2 5596   1.107   1.883   0.768
  433SOL     OW 5597   0.755   0.436   5.982
  433SOL    HW1 5598   0.719   0.528   6.002
  433SOL    HW2 5599   0.722   0.405   5.894
  434SOL     OW 5600   1.954   3.857   6.428
  434SOL    HW1 5601   1.950   3.833   6.331
  434SOL    HW2 5602   2.050   3.872   6.455
  435SOL     OW 5603   4.886   2.874   0.083
  435SOL    HW1 5604   4.904   2.901   0.178
  435SOL    HW2 5605   4.936   2.790   0.063
  436SOL     OW 5606   1.790   2.341   6.084
  436SOL    HW1 5607   1.783   2.422   6.142
  436SOL    HW2 5608   1.882   2.304   6.088
  437SOL     OW 5609   3.717   2.416   4.670
  437SOL    HW1 5610   3.729   2.438   4.574
  437SOL    HW2 5611   3.638   2.355   4.680
  438SOL     OW 5612   1.174   0.399   5.760
  438SOL    HW1 5613   1.121   0.443   5.687
  438SOL    HW2 5614   1.269   0.430   5.755
  439SOL     OW 5615   5.130   3.965   0.663
  439SOL    HW1 5616   5.146   3.896   0.592
  439SOL    HW2 5617   5.033   3.987   0.666
  440SOL     OW 5618   4.562   5.156   0.468
  440SOL    HW1 5619   4.566   5.248   0.507
  440SOL    HW2 5620   4.623   5.096   0.519
  441SOL     OW 5621   2.654   2.396   1.419
  441SOL    HW1 5622   2.745   2.431   1.394
  441SOL    HW2 5623   2.665   2.320   1.484
  442SOL     OW 5624   0.816   3.780   0.934
  442SOL    HW1 5625   0.870   3.741   0.860
  442SOL    HW2 5626   0.876   3.813   1.007
  443SOL     OW 5627   3.211   4.683   1.033
  443SOL    HW1 5628   3.226   4.780   1.050
  443SOL    HW2 5629   3.299   4.637   1.020
  444SOL     OW 5630   3.136   2.836   0.323
  444SOL    HW1 5631   3.063   2.905   0.333
  444SOL    HW2 5632   3.225   2.881   0.330
  445SOL     OW 5633   4.785   3.858   6.028
  445SOL    HW1 5634   4.707   3.812   5.987
  445SOL    HW2 5635   4.812   3.936   5.971
  446SOL     OW 5636   5.067   0.006   5.715
  446SOL    HW1 5637   5.148   0.026   5.660
  446SOL    HW2 5638   5.095   5.556   5.808
  447SOL     OW 5639   4.452   3.977   1.235
  447SOL    HW1 5640   4.445   4.046   1.162
  447SOL    HW2 5641   4.391   3.900   1.214
  448SOL     OW 5642   2.048   0.662   6.101
  448SOL    HW1 5643   2.114   0.728   6.135
  448SOL    HW2 5644   2.049   0.663   6.001
  449SOL     OW 5645   2.494   4.540   5.596
  449SOL    HW1 5646   2.532   4.499   5.679
  449SOL    HW2 5647   2.564   4.542   5.525
  450SOL     OW 5648   4.463   0.483   0.222
  450SOL    HW1 5649   4.480   0.468   0.124
  450SOL    HW2 5650   4.443   0.579   0.238
  451SOL     OW 5651   1.638   2.970   0.817
  451SOL    HW1 5652   1.685   2.968   0.905
  451SOL    HW2 5653   1.562   2.904   0.818
  452SOL     OW 5654   5.203   2.673   0.274
  452SOL    HW1 5655   5.211   2.753   0.334
  452SOL    HW2 5656   5.269   2.680   0.200
  453SOL     OW 5657   1.909   0.076   6.403
  453SOL    HW1 5658   1.985   0.120   6.356
  453SOL    HW2 5659   1.824   0.089   6.351
  454SOL     OW 5660   0.301   2.494   5.333
  454SOL    HW1 5661   0.239   2.481   5.411
  454SOL    HW2 5662   0.265   2.445   5.254
  455SOL     OW 5663   4.864   4.028   0.699
  455SOL    HW1 5664   4.792   4.076   0.649
  455SOL    HW2 5665   4.821   3.968   0.767
  456SOL     OW 5666   5.139   5.510   6.279
  456SOL    HW1 5667   5.161   0.030   6.305
  456SOL    HW2 5668   5.090   5.465   6.354
  457SOL     OW 5669   5.150   2.134   1.066
  457SOL    HW1 5670   5.135   2.152   1.163
  457SOL    HW2 5671   5.207   2.052   1.056
  458SOL     OW 5672   5.551   0.169   1.095
  458SOL    HW1 5673   5.559   0.268   1.084
  458SOL    HW2 5674   5.467   0.148   1.145
  459SOL     OW 5675   1.375   1.328   6.017
  459SOL    HW1 5676   1.317   1.372   6.085
  459SOL    HW2 5677   1.463   1.376   6.012
  460SOL     OW 5678   3.015   2.038   5.920
  460SOL    HW1 5679   2.915   2.041   5.924
  460SOL    HW2 5680   3.053   2.108   5.980
  461SOL     OW 5681   1.616   1.701   6.254
  461SOL    HW1 5682   1.632   1.794   6.220
  461SOL    HW2 5683   1.523   1.694   6.290
  462SOL     OW 5684   3.832   4.185   5.747
  462SOL    HW1 5685   3.804   4.184   5.651
  462SOL    HW2 5686   3.769   4.244   5.799
  463SOL     OW 5687   0.449   1.891   6.218
  463SOL    HW1 5688   0.376   1.937   6.268
  463SOL    HW2 5689   0.505   1.959   6.171
  464SOL     OW 5690   2.279   1.294   5.666
  464SOL    HW1 5691   2.208   1.235   5.628
  464SOL    HW2 5692   2.365   1.279   5.617
  465SOL     OW 5693   1.393   3.923   0.443
  465SOL    HW1 5694   1.363   3.837   0.483
  465SOL    HW2 5695   1.314   3.977   0.415
  466SOL     OW 5696   4.626   3.298   0.218
  466SOL    HW1 5697   4.642   3.381   0.272
  466SOL    HW2 5698   4.585   3.228   0.277
  467SOL     OW 5699   3.053   1.516   1.651
  467SOL    HW1 5700   3.148   1.490   1.630
  467SOL    HW2 5701   3.034   1.499   1.747
  468SOL     OW 5702   1.208   0.098   0.164
  468SOL    HW1 5703   1.298   0.086   0.121
  468SOL    HW2 5704   1.137   0.090   0.094
  469SOL     OW 5705   3.127   1.798   6.013
  469SOL    HW1 5706   3.057   1.770   6.077
  469SOL    HW2 5707   3.095   1.877   5.960
  470SOL     OW 5708   5.096   1.112   1.774
  470SOL    HW1 5709   5.116   1.014   1.782
  470SOL    HW2 5710   5.142   1.161   1.848
  471SOL     OW 5711   2.277   3.861   1.133
  471SOL    HW1 5712   2.374   3.876   1.151
  471SOL    HW2 5713   2.237   3.943   1.091
  472SOL     OW 5714   0.776   1.781   5.540
  472SOL    HW1 5715   0.865   1.777   5.496
  472SOL    HW2 5716   0.707   1.814   5.475
  473SOL     OW 5717   2.677   4.614   6.442
  473SOL    HW1 5718   2.684   4.551   6.364
  473SOL    HW2 5719   2.662   4.562   0.027
  474SOL     OW 5720   1.483   4.790   5.787
  474SOL    HW1 5721   1.575   4.760   5.760
  474SOL    HW2 5722   1.473   4.888   5.770
  475SOL     OW 5723   4.956   3.569   0.631
  475SOL    HW1 5724   4.872   3.589   0.681
  475SOL    HW2 5725   5.035   3.583   0.691
  476SOL     OW 5726   5.520   3.726   1.074
  476SOL    HW1 5727   5.514   3.823   1.095
  476SOL    HW2 5728   5.523   3.713   0.975
  477SOL     OW 5729   0.824   1.351   0.697
  477SOL    HW1 5730   0.806   1.282   0.767
  477SOL    HW2 5731   0.765   1.430   0.713
  478SOL     OW 5732   1.675   0.604   0.445
  478SOL    HW1 5733   1.646   0.634   0.354
  478SOL    HW2 5734   1.604   0.547   0.486
  479SOL     OW 5735   0.889   1.503   5.882
  479SOL    HW1 5736   0.796   1.516   5.915
  479SOL    HW2 5737   0.893   1.526   5.785
  480SOL     OW 5738   3.762   4.178   5.475
  480SOL    HW1 5739   3.704   4.102   5.447
  480SOL    HW2 5740   3.729   4.263   5.434
  481SOL     OW 5741   4.196   1.349   0.538
  481SOL    HW1 5742   4.144   1.265   0.522
  481SOL    HW2 5743   4.189   1.374   0.634
  482SOL     OW 5744   3.096   1.920   6.456
  482SOL    HW1 5745   3.075   1.994   6.393
  482SOL    HW2 5746   3.011   1.890   0.002
  483SOL     OW 5747   4.874   4.952   0.927
  483SOL    HW1 5748   4.796   5.013   0.939
  483SOL    HW2 5749   4.850   4.861   0.960
  484SOL     OW 5750   3.866   1.860   5.354
  484SOL    HW1 5751   3.926   1.801   5.300
  484SOL    HW2 5752   3.890   1.956   5.339
  485SOL     OW 5753   0.079   1.072   1.214
  485SOL    HW1 5754   0.042   1.041   1.126
  485SOL    HW2 5755   0.128   1.158   1.202
  486SOL     OW 5756   1.455   5.505   1.106
  486SOL    HW1 5757   1.361   5.531   1.083
  486SOL    HW2 5758   1.457   5.407   1.128
  487SOL     OW 5759   0.022   2.772   0.982
  487SOL    HW1 5760   5.642   2.700   1.045
  487SOL    HW2 5761   0.122   2.775   0.983
  488SOL     OW 5762   3.003   3.227   1.443
  488SOL    HW1 5763   2.962   3.136   1.448
  488SOL    HW2 5764   3.073   3.228   1.372
  489SOL     OW 5765   0.705   1.978   1.519
  489SOL    HW1 5766   0.770   1.992   1.594
  489SOL    HW2 5767   0.615   1.955   1.556
  490SOL     OW 5768   2.399   0.800   1.093
  490SOL    HW1 5769   2.308   0.792   1.134
  490SOL    HW2 5770   2.407   0.733   1.019
  491SOL     OW 5771   2.048   5.212   0.075
  491SOL    HW1 5772   1.970   5.239   0.131
  491SOL    HW2 5773   2.053   5.271   6.493
  492SOL     OW 5774   2.893   2.478   0.039
  492SOL    HW1 5775   2.819   2.499   6.473
  492SOL    HW2 5776   2.951   2.558   0.052
  493SOL     OW 5777   3.264   2.461   0.280
  493SOL    HW1 5778   3.186   2.504   0.325
  493SOL    HW2 5779   3.295   2.383   0.335
  494SOL     OW 5780   1.530   2.295   6.159
  494SOL    HW1 5781   1.532   2.245   6.246
  494SOL    HW2 5782   1.623   2.311   6.127
  495SOL     OW 5783   3.655   3.160   6.268
  495SOL    HW1 5784   3.709   3.083   6.234
  495SOL    HW2 5785   3.675   3.241   6.212
  496SOL     OW 5786   0.250   1.031   0.873
  496SOL    HW1 5787   0.241   1.121   0.831
  496SOL    HW2 5788   0.161   1.002   0.911
  497SOL     OW 5789   1.509   4.406   4.754
  497SOL    HW1 5790   1.566   4.455   4.688
  497SOL    HW2 5791   1.418   4.391   4.715
  498SOL     OW 5792   2.992   2.898   1.165
  498SOL    HW1 5793   3.078   2.860   1.197
  498SOL    HW2 5794   2.916   2.851   1.210
  499SOL     OW 5795   3.436   1.134   5.766
  499SOL    HW1 5796   3.374   1.207   5.798
  499SOL    HW2 5797   3.528   1.171   5.757
  500SOL     OW 5798   1.806   3.279   1.701
  500SOL    HW1 5799   1.817   3.250   1.796
  500SOL    HW2 5800   1.808   3.379   1.697
  501SOL     OW 5801   2.151   4.616   4.738
  501SOL    HW1 5802   2.174   4.521   4.762
  501SOL    HW2 5803   2.061   4.618   4.695
  502SOL     OW 5804   3.917   3.713   0.363
  502SOL    HW1 5805   3.870   3.784   0.311
  502SOL    HW2 5806   3.975   3.659   0.302
  503SOL     OW 5807   4.074   1.593   0.467
  503SOL    HW1 5808   4.118   1.504   0.476
  503SOL    HW2 5809   4.039   1.623   0.556
  504SOL     OW 5810   2.873   2.238   0.864
  504SOL    HW1 5811   2.954   2.260   0.809
  504SOL    HW2 5812   2.803   2.198   0.805
  505SOL     OW 5813   0.696   3.601   0.453
  505SOL    HW1 5814   0.653   3.570   0.368
  505SOL    HW2 5815   0.727   3.521   0.505
  506SOL     OW 5816   3.910   2.611   0.958
  506SOL    HW1 5817   3.815   2.586   0.978
  506SOL    HW2 5818   3.965   2.529   0.952
  507SOL     OW 5819   0.652   2.890   0.851
  507SOL    HW1 5820   0.630   2.980   0.888
  507SOL    HW2 5821   0.569   2.849   0.813
  508SOL     OW 5822   4.059   3.097   6.217
  508SOL    HW1 5823   4.045   3.147   6.302
  508SOL    HW2 5824   4.138   3.035   6.227
  509SOL     OW 5825   2.755   2.556   0.721
  509SOL    HW1 5826   2.744   2.643   0.674
  509SOL    HW2 5827   2.738   2.481   0.657
  510SOL     OW 5828   1.534   3.604   0.426
  510SOL    HW1 5829   1.570   3.647   0.509
  510SOL    HW2 5830   1.567   3.654   0.346
  511SOL     OW 5831   4.596   3.731   5.881
  511SOL    HW1 5832   4.540   3.651   5.858
  511SOL    HW2 5833   4.547   3.814   5.854
  512SOL     OW 5834   2.522   4.087   5.171
  512SOL    HW1 5835   2.440   4.111   5.120
  512SOL    HW2 5836   2.560   4.001   5.135
  513SOL     OW 5837   2.865   0.153   1.433
  513SOL    HW1 5838   2.802   0.158   1.510
  513SOL    HW2 5839   2.923   0.072   1.442
  514SOL     OW 5840   4.060   3.535   1.166
  514SOL    HW1 5841   4.041   3.625   1.206
  514SOL    HW2 5842   4.037   3.536   1.069
  515SOL     OW 5843   0.704   5.147   0.735
  515SOL    HW1 5844   0.775   5.084   0.703
  515SOL    HW2 5845   0.714   5.162   0.833
  516SOL     OW 5846   2.881   1.951   5.566
  516SOL    HW1 5847   2.792   1.907   5.550
  516SOL    HW2 5848   2.942   1.886   5.612
  517SOL     OW 5849   5.362   0.575   0.441
  517SOL    HW1 5850   5.360   0.532   0.351
  517SOL    HW2 5851   5.382   0.505   0.510
  518SOL     OW 5852   2.645   3.773   6.342
  518SOL    HW1 5853   2.613   3.743   6.432
  518SOL    HW2 5854   2.742   3.798   6.347
  519SOL     OW 5855   3.335   0.224   5.559
  519SOL    HW1 5856   3.257   0.161   5.559
  519SOL    HW2 5857   3.302   0.317   5.573
  520SOL     OW 5858   0.271   2.722   5.862
  520SOL    HW1 5859   0.321   2.805   5.884
  520SOL    HW2 5860   0.214   2.738   5.781
  521SOL     OW 5861   0.121   4.076   6.256
  521SOL    HW1 5862   0.190   4.072   6.183
  521SOL    HW2 5863   0.140   4.154   6.315
  522SOL     OW 5864   4.315   2.769   4.783
  522SOL    HW1 5865   4.234   2.794   4.729
  522SOL    HW2 5866   4.368   2.700   4.734
  523SOL     OW 5867   2.521   0.733   5.577
  523SOL    HW1 5868   2.540   0.741   5.479
  523SOL    HW2 5869   2.593   0.679   5.620
  524SOL     OW 5870   2.813   3.419   1.491
  524SOL    HW1 5871   2.853   3.510   1.490
  524SOL    HW2 5872   2.881   3.351   1.462
  525SOL     OW 5873   5.171   2.637   5.698
  525SOL    HW1 5874   5.232   2.683   5.762
  525SOL    HW2 5875   5.081   2.681   5.701
  526SOL     OW 5876   0.358   0.020   6.297
  526SOL    HW1 5877   0.353   5.526   6.370
  526SOL    HW2 5878   0.410   0.100   6.330
  527SOL     OW 5879   5.057   2.015   6.344
  527SOL    HW1 5880   5.133   2.053   6.398
  527SOL    HW2 5881   5.093   1.972   6.262
  528SOL     OW 5882   3.575   2.311   0.539
  528SOL    HW1 5883   3.587   2.404   0.573
  528SOL    HW2 5884   3.582   2.311   0.439
  529SOL     OW 5885   0.226   3.096   2.117
  529SOL    HW1 5886   0.161   3.051   2.178
  529SOL    HW2 5887   0.247   3.187   2.153
  530SOL     OW 5888   1.275   4.264   0.951
  530SOL    HW1 5889   1.225   4.346   0.923
  530SOL    HW2 5890   1.323   4.281   1.037
  531SOL     OW 5891   4.928   1.036   5.933
  531SOL    HW1 5892   5.001   1.091   5.892
  531SOL    HW2 5893   4.841   1.084   5.924
  532SOL     OW 5894   4.475   0.427   1.124
  532SOL    HW1 5895   4.401   0.483   1.087
  532SOL    HW2 5896   4.517   0.475   1.201
  533SOL     OW 5897   2.293   1.173   5.917
  533SOL    HW1 5898   2.384   1.191   5.956
  533SOL    HW2 5899   2.287   1.215   5.826
  534SOL     OW 5900   3.085   5.066   5.955
  534SOL    HW1 5901   3.109   5.163   5.963
  534SOL    HW2 5902   3.135   5.014   6.024
  535SOL     OW 5903   1.223   3.158   5.270
  535SOL    HW1 5904   1.176   3.079   5.310
  535SOL    HW2 5905   1.187   3.174   5.178
  536SOL     OW 5906   1.008   5.569   6.491
  536SOL    HW1 5907   0.932   5.560   0.056
  536SOL    HW2 5908   1.052   5.480   6.479
  537SOL     OW 5909   4.732   2.867   5.398
  537SOL    HW1 5910   4.703   2.951   5.442
  537SOL    HW2 5911   4.831   2.870   5.381
  538SOL     OW 5912   5.399   1.029   0.921
  538SOL    HW1 5913   5.400   1.128   0.931
  538SOL    HW2 5914   5.352   1.005   0.836
  539SOL     OW 5915   0.947   1.583   6.367
  539SOL    HW1 5916   0.995   1.548   6.447
  539SOL    HW2 5917   0.869   1.524   6.347
  540SOL     OW 5918   3.681   1.612   1.059
  540SOL    HW1 5919   3.600   1.612   1.118
  540SOL    HW2 5920   3.748   1.548   1.094
  541SOL     OW 5921   4.436   1.940   0.714
  541SOL    HW1 5922   4.438   2.039   0.700
  541SOL    HW2 5923   4.519   1.911   0.761
  542SOL     OW 5924   5.022   1.439   5.512
  542SOL    HW1 5925   4.944   1.400   5.562
  542SOL    HW2 5926   5.018   1.539   5.516
  543SOL     OW 5927   5.641   3.270   0.577
  543SOL    HW1 5928   0.056   3.342   0.556
  543SOL    HW2 5929   5.593   3.244   0.493
  544SOL     OW 5930   4.811   5.503   5.690
  544SOL    HW1 5931   4.776   5.526   5.599
  544SOL    HW2 5932   4.908   5.527   5.695
  545SOL     OW 5933   5.625   4.565   1.051
  545SOL    HW1 5934   5.636   4.631   0.977
  545SOL    HW2 5935   5.536   4.579   1.095
  546SOL     OW 5936   0.840   3.100   1.963
  546SOL    HW1 5937   0.855   3.155   2.045
  546SOL    HW2 5938   0.771   3.029   1.983
  547SOL     OW 5939   0.921   2.172   5.544
  547SOL    HW1 5940   0.998   2.140   5.599
  547SOL    HW2 5941   0.853   2.214   5.603
  548SOL     OW 5942   1.178   1.569   5.519
  548SOL    HW1 5943   1.167   1.488   5.462
  548SOL    HW2 5944   1.267   1.567   5.563
  549SOL     OW 5945   0.173   0.412   6.271
  549SOL    HW1 5946   0.173   0.511   6.256
  549SOL    HW2 5947   0.147   0.392   6.365
  550SOL     OW 5948   1.689   1.941   6.141
  550SOL    HW1 5949   1.771   1.944   6.084
  550SOL    HW2 5950   1.610   1.972   6.087
  551SOL     OW 5951   3.636   3.224   5.568
  551SOL    HW1 5952   3.678   3.164   5.500
  551SOL    HW2 5953   3.666   3.319   5.553
  552SOL     OW 5954   4.437   0.990   1.312
  552SOL    HW1 5955   4.393   1.074   1.346
  552SOL    HW2 5956   4.431   0.988   1.213
  553SOL     OW 5957   3.825   4.596   0.933
  553SOL    HW1 5958   3.781   4.508   0.914
  553SOL    HW2 5959   3.782   4.638   1.012
  554SOL     OW 5960   3.877   2.145   5.772
  554SOL    HW1 5961   3.934   2.226   5.781
  554SOL    HW2 5962   3.794   2.168   5.721
  555SOL     OW 5963   5.274   2.718   0.831
  555SOL    HW1 5964   5.224   2.655   0.772
  555SOL    HW2 5965   5.222   2.804   0.839
  556SOL     OW 5966   4.850   5.007   5.598
  556SOL    HW1 5967   4.916   5.058   5.653
  556SOL    HW2 5968   4.875   5.013   5.501
  557SOL     OW 5969   5.332   0.567   5.629
  557SOL    HW1 5970   5.380   0.527   5.551
  557SOL    HW2 5971   5.297   0.658   5.604
  558SOL     OW 5972   2.685   4.139   5.386
  558SOL    HW1 5973   2.629   4.119   5.306
  558SOL    HW2 5974   2.745   4.217   5.366
  559SOL     OW 5975   2.113   3.781   5.906
  559SOL    HW1 5976   2.118   3.698   5.851
  559SOL    HW2 5977   2.205   3.814   5.926
  560SOL     OW 5978   0.212   3.963   5.656
  560SOL    HW1 5979   0.154   3.983   5.736
  560SOL    HW2 5980   0.163   3.902   5.594
  561SOL     OW 5981   1.422   5.049   0.307
  561SOL    HW1 5982   1.402   4.972   0.246
  561SOL    HW2 5983   1.363   5.043   0.387
  562SOL     OW 5984   3.528   1.844   0.787
  562SOL    HW1 5985   3.520   1.745   0.803
  562SOL    HW2 5986   3.437   1.885   0.783
  563SOL     OW 5987   1.567   2.281   0.297
  563SOL    HW1 5988   1.553   2.374   0.263
  563SOL    HW2 5989   1.664   2.268   0.319
  564SOL     OW 5990   0.292   0.999   0.275
  564SOL    HW1 5991   0.256   0.919   0.322
  564SOL    HW2 5992   0.392   0.997   0.277
  565SOL     OW 5993   3.216   1.503   6.343
  565SOL    HW1 5994   3.286   1.563   6.303
  565SOL    HW2 5995   3.247   1.408   6.337
  566SOL     OW 5996   2.002   0.294   5.401
  566SOL    HW1 5997   2.087   0.262   5.443
  566SOL    HW2 5998   1.963   0.368   5.456
  567SOL     OW 5999   4.989   1.689   6.262
  567SOL    HW1 6000   4.907   1.700   6.205
  567SOL    HW2 6001   5.060   1.753   6.231
  568SOL     OW 6002   0.546   1.577   1.487
  568SOL    HW1 6003   0.521   1.665   1.446
  568SOL    HW2 6004   0.538   1.582   1.586
  569SOL     OW 6005   5.086   0.920   1.214
  569SOL    HW1 6006   5.043   0.856   1.277
  569SOL    HW2 6007   5.048   0.909   1.122
  570SOL     OW 6008   5.115   4.808   5.396
  570SOL    HW1 6009   5.188   4.792   5.330
  570SOL    HW2 6010   5.058   4.884   5.365
  571SOL     OW 6011   2.743   1.439   6.142
  571SOL    HW1 6012   2.802   1.423   6.062
  571SOL    HW2 6013   2.799   1.467   6.220
  572SOL     OW 6014   1.944   4.815   6.060
  572SOL    HW1 6015   1.949   4.795   6.158
  572SOL    HW2 6016   2.031   4.790   6.017
  573SOL     OW 6017   3.935   0.277   1.083
  573SOL    HW1 6018   3.862   0.210   1.091
  573SOL    HW2 6019   3.914   0.341   1.010
  574SOL     OW 6020   3.904   1.212   5.896
  574SOL    HW1 6021   3.967   1.276   5.853
  574SOL    HW2 6022   3.945   1.121   5.900
  575SOL     OW 6023   5.114   2.161   1.336
  575SOL    HW1 6024   5.016   2.143   1.335
  575SOL    HW2 6025   5.136   2.218   1.416
  576SOL     OW 6026   5.623   3.056   4.550
  576SOL    HW1 6027   5.578   3.116   4.616
  576SOL    HW2 6028   5.649   3.108   4.470
  577SOL     OW 6029   4.491   3.121   0.385
  577SOL    HW1 6030   4.507   3.022   0.384
  577SOL    HW2 6031   4.393   3.139   0.389
  578SOL     OW 6032   3.200   4.131   0.667
  578SOL    HW1 6033   3.223   4.045   0.622
  578SOL    HW2 6034   3.251   4.206   0.625
  579SOL     OW 6035   5.288   5.262   5.358
  579SOL    HW1 6036   5.283   5.270   5.458
  579SOL    HW2 6037   5.383   5.272   5.329
  580SOL     OW 6038   1.931   4.056   5.372
  580SOL    HW1 6039   1.926   3.957   5.356
  580SOL    HW2 6040   1.953   4.103   5.287
  581SOL     OW 6041   0.988   1.418   0.487
  581SOL    HW1 6042   0.939   1.401   0.573
  581SOL    HW2 6043   0.953   1.356   0.416
  582SOL     OW 6044   0.253   2.019   6.353
  582SOL    HW1 6045   0.213   2.095   6.405
  582SOL    HW2 6046   0.191   1.941   6.357
  583SOL     OW 6047   1.424   4.849   5.341
  583SOL    HW1 6048   1.400   4.891   5.254
  583SOL    HW2 6049   1.523   4.847   5.352
  584SOL     OW 6050   5.599   4.165   5.668
  584SOL    HW1 6051   5.623   4.119   5.754
  584SOL    HW2 6052   5.567   4.097   5.602
  585SOL     OW 6053   5.080   5.113   1.021
  585SOL    HW1 6054   5.003   5.065   0.978
  585SOL    HW2 6055   5.054   5.209   1.037
  586SOL     OW 6056   2.150   4.672   0.845
  586SOL    HW1 6057   2.104   4.721   0.771
  586SOL    HW2 6058   2.201   4.736   0.901
  587SOL     OW 6059   1.593   1.823   0.648
  587SOL    HW1 6060   1.632   1.755   0.585
  587SOL    HW2 6061   1.532   1.883   0.597
  588SOL     OW 6062   4.031   0.502   0.368
  588SOL    HW1 6063   4.023   0.584   0.313
  588SOL    HW2 6064   4.106   0.445   0.332
  589SOL     OW 6065   1.287   4.601   5.363
  589SOL    HW1 6066   1.271   4.565   5.455
  589SOL    HW2 6067   1.336   4.688   5.370
  590SOL     OW 6068   3.631   2.875   0.338
  590SOL    HW1 6069   3.558   2.811   0.313
  590SOL    HW2 6070   3.715   2.824   0.359
  591SOL     OW 6071   5.036   0.939   4.873
  591SOL    HW1 6072   4.943   0.905   4.859
  591SOL    HW2 6073   5.100   0.862   4.878
  592SOL     OW 6074   1.820   5.319   0.190
  592SOL    HW1 6075   1.791   5.296   0.283
  592SOL    HW2 6076   1.757   5.277   0.124
  593SOL     OW 6077   0.164   3.472   0.524
  593SOL    HW1 6078   0.211   3.527   0.593
  593SOL    HW2 6079   0.162   3.522   0.437
  594SOL     OW 6080   1.594   3.164   0.405
  594SOL    HW1 6081   1.559   3.240   0.350
  594SOL    HW2 6082   1.548   3.079   0.377
  595SOL     OW 6083   1.402   4.880   0.961
  595SOL    HW1 6084   1.439   4.903   0.870
  595SOL    HW2 6085   1.409   4.781   0.975
  596SOL     OW 6086   3.953   4.238   0.137
  596SOL    HW1 6087   3.987   4.311   0.078
  596SOL    HW2 6088   4.029   4.197   0.186
  597SOL     OW 6089   3.714   5.544   2.114
  597SOL    HW1 6090   3.649   0.040   2.144
  597SOL    HW2 6091   3.806   5.569   2.142
  598SOL     OW 6092   0.082   2.099   0.221
  598SOL    HW1 6093   0.121   2.065   0.307
  598SOL    HW2 6094   0.024   2.028   0.182
  599SOL     OW 6095   5.145   0.169   0.829
  599SOL    HW1 6096   5.077   0.215   0.773
  599SOL    HW2 6097   5.229   0.224   0.832
  600SOL     OW 6098   4.314   2.103   1.689
  600SOL    HW1 6099   4.312   2.132   1.594
  600SOL    HW2 6100   4.280   2.177   1.747
  601SOL     OW 6101   5.115   2.330   6.171
  601SOL    HW1 6102   5.086   2.338   6.267
  601SOL    HW2 6103   5.039   2.296   6.116
  602SOL     OW 6104   0.867   4.198   0.707
  602SOL    HW1 6105   0.849   4.112   0.659
  602SOL    HW2 6106   0.833   4.275   0.654
  603SOL     OW 6107   1.118   0.214   0.394
  603SOL    HW1 6108   1.018   0.217   0.387
  603SOL    HW2 6109   1.156   0.178   0.309
  604SOL     OW 6110   4.249   0.003   6.479
  604SOL    HW1 6111   4.268   5.502   0.044
  604SOL    HW2 6112   4.295   5.558   6.392
  605SOL     OW 6113   4.827   5.549   0.360
  605SOL    HW1 6114   4.728   5.562   0.354
  605SOL    HW2 6115   4.847   5.461   0.403
  606SOL     OW 6116   3.633   4.592   5.767
  606SOL    HW1 6117   3.562   4.652   5.732
  606SOL    HW2 6118   3.694   4.644   5.827
  607SOL     OW 6119   0.352   0.857   6.313
  607SOL    HW1 6120   0.404   0.882   6.231
  607SOL    HW2 6121   0.405   0.879   6.394
  608SOL     OW 6122   0.346   5.121   5.339
  608SOL    HW1 6123   0.338   5.197   5.274
  608SOL    HW2 6124   0.324   5.035   5.293
  609SOL     OW 6125   4.517   1.048   0.436
  609SOL    HW1 6126   4.552   0.976   0.496
  609SOL    HW2 6127   4.428   1.021   0.401
  610SOL     OW 6128   4.905   3.228   1.280
  610SOL    HW1 6129   4.838   3.294   1.247
  610SOL    HW2 6130   4.861   3.139   1.290
  611SOL     OW 6131   1.361   4.024   5.775
  611SOL    HW1 6132   1.449   3.990   5.807
  611SOL    HW2 6133   1.295   3.949   5.770
  612SOL     OW 6134   0.040   2.282   5.714
  612SOL    HW1 6135   5.595   2.304   5.726
  612SOL    HW2 6136   0.067   2.213   5.782
  613SOL     OW 6137   0.872   2.696   0.572
  613SOL    HW1 6138   0.887   2.691   0.671
  613SOL    HW2 6139   0.935   2.634   0.526
  614SOL     OW 6140   1.205   1.855   6.403
  614SOL    HW1 6141   1.244   1.763   6.400
  614SOL    HW2 6142   1.107   1.850   6.423
  615SOL     OW 6143   1.818   2.824   5.349
  615SOL    HW1 6144   1.793   2.916   5.322
  615SOL    HW2 6145   1.794   2.809   5.445
  616SOL     OW 6146   3.018   0.668   6.468
  616SOL    HW1 6147   2.977   0.698   6.382
  616SOL    HW2 6148   3.042   0.748   0.024
  617SOL     OW 6149   0.188   3.930   0.939
  617SOL    HW1 6150   0.262   3.974   0.889
  617SOL    HW2 6151   0.225   3.852   0.991
  618SOL     OW 6152   2.109   3.340   1.474
  618SOL    HW1 6153   2.089   3.371   1.567
  618SOL    HW2 6154   2.203   3.306   1.470
  619SOL     OW 6155   2.467   0.559   2.063
  619SOL    HW1 6156   2.438   0.644   2.019
  619SOL    HW2 6157   2.524   0.580   2.143
  620SOL     OW 6158   1.636   1.119   5.970
  620SOL    HW1 6159   1.727   1.083   5.955
  620SOL    HW2 6160   1.637   1.182   6.048
  621SOL     OW 6161   4.474   2.167   1.103
  621SOL    HW1 6162   4.428   2.095   1.155
  621SOL    HW2 6163   4.510   2.236   1.166
  622SOL     OW 6164   1.748   4.709   0.192
  622SOL    HW1 6165   1.657   4.693   0.230
  622SOL    HW2 6166   1.765   4.807   0.184
  623SOL     OW 6167   5.033   1.439   6.357
  623SOL    HW1 6168   5.018   1.534   6.327
  623SOL    HW2 6169   5.081   1.439   6.444
  624SOL     OW 6170   0.764   1.804   1.109
  624SOL    HW1 6171   0.823   1.753   1.172
  624SOL    HW2 6172   0.758   1.755   1.022
  625SOL     OW 6173   1.922   1.688   0.672
  625SOL    HW1 6174   1.991   1.670   0.742
  625SOL    HW2 6175   1.835   1.709   0.717
  626SOL     OW 6176   0.423   4.296   6.015
  626SOL    HW1 6177   0.343   4.336   6.060
  626SOL    HW2 6178   0.494   4.366   6.006
  627SOL     OW 6179   4.018   5.127   0.901
  627SOL    HW1 6180   4.108   5.095   0.931
  627SOL    HW2 6181   4.028   5.216   0.855
  628SOL     OW 6182   0.601   4.273   0.002
  628SOL    HW1 6183   0.592   4.209   0.079
  628SOL    HW2 6184   0.519   4.330   6.497
  629SOL     OW 6185   1.058   0.706   1.679
  629SOL    HW1 6186   1.125   0.775   1.705
  629SOL    HW2 6187   0.973   0.721   1.730
  630SOL     OW 6188   5.363   4.608   1.150
  630SOL    HW1 6189   5.336   4.665   1.073
  630SOL    HW2 6190   5.289   4.605   1.217
  631SOL     OW 6191   5.367   1.800   5.570
  631SOL    HW1 6192   5.326   1.758   5.650
  631SOL    HW2 6193   5.396   1.893   5.592
  632SOL     OW 6194   1.167   5.343   0.989
  632SOL    HW1 6195   1.158   5.442   0.990
  632SOL    HW2 6196   1.242   5.316   0.930
  633SOL     OW 6197   5.590   2.482   1.393
  633SOL    HW1 6198   5.598   2.391   1.352
  633SOL    HW2 6199   5.555   2.474   1.486
  634SOL     OW 6200   2.813   5.082   0.604
  634SOL    HW1 6201   2.889   5.106   0.543
  634SOL    HW2 6202   2.849   5.058   0.694
  635SOL     OW 6203   4.556   4.747   5.888
  635SOL    HW1 6204   4.569   4.832   5.837
  635SOL    HW2 6205   4.602   4.672   5.842
  636SOL     OW 6206   4.173   2.588   0.532
  636SOL    HW1 6207   4.162   2.652   0.456
  636SOL    HW2 6208   4.138   2.630   0.616
  637SOL     OW 6209   2.077   5.030   5.605
  637SOL    HW1 6210   2.159   5.046   5.549
  637SOL    HW2 6211   2.100   5.037   5.702
  638SOL     OW 6212   0.300   1.393   0.353
  638SOL    HW1 6213   0.240   1.321   0.388
  638SOL    HW2 6214   0.247   1.476   0.338
  639SOL     OW 6215   1.048   2.423   0.673
  639SOL    HW1 6216   1.053   2.457   0.579
  639SOL    HW2 6217   1.110   2.477   0.731
  640SOL     OW 6218   2.238   4.485   1.542
  640SOL    HW1 6219   2.322   4.449   1.583
  640SOL    HW2 6220   2.262   4.550   1.469
  641SOL     OW 6221   1.202   0.056   1.020
  641SOL    HW1 6222   1.265   0.090   0.951
  641SOL    HW2 6223   1.123   0.117   1.027
  642SOL     OW 6224   3.808   4.738   5.927
  642SOL    HW1 6225   3.905   4.730   5.902
  642SOL    HW2 6226   3.797   4.711   6.023
  643SOL     OW 6227   0.126   0.801   1.581
  643SOL    HW1 6228   0.174   0.881   1.616
  643SOL    HW2 6229   0.162   0.718   1.623
  644SOL     OW 6230   5.032   4.878   0.715
  644SOL    HW1 6231   4.979   4.908   0.795
  644SOL    HW2 6232   5.013   4.782   0.697
  645SOL     OW 6233   2.678   0.455   0.374
  645SOL    HW1 6234   2.663   0.529   0.440
  645SOL    HW2 6235   2.776   0.447   0.356
  646SOL     OW 6236   5.256   5.271   5.628
  646SOL    HW1 6237   5.184   5.216   5.669
  646SOL    HW2 6238   5.291   5.337   5.695
  647SOL     OW 6239   4.450   3.229   6.228
  647SOL    HW1 6240   4.472   3.214   6.324
  647SOL    HW2 6241   4.502   3.307   6.194
  648SOL     OW 6242   1.014   0.350   5.982
  648SOL    HW1 6243   0.923   0.392   5.975
  648SOL    HW2 6244   1.068   0.372   5.901
  649SOL     OW 6245   0.810   3.743   1.505
  649SOL    HW1 6246   0.787   3.840   1.493
  649SOL    HW2 6247   0.841   3.705   1.418
  650SOL     OW 6248   3.867   5.302   5.665
  650SOL    HW1 6249   3.782   5.354   5.673
  650SOL    HW2 6250   3.929   5.348   5.602
  651SOL     OW 6251   4.139   5.347   6.272
  651SOL    HW1 6252   4.231   5.387   6.268
  651SOL    HW2 6253   4.072   5.415   6.242
  652SOL     OW 6254   0.430   1.468   0.634
  652SOL    HW1 6255   0.357   1.524   0.672
  652SOL    HW2 6256   0.477   1.519   0.561
  653SOL     OW 6257   2.231   0.842   6.199
  653SOL    HW1 6258   2.315   0.798   6.167
  653SOL    HW2 6259   2.244   0.874   6.293
  654SOL     OW 6260   4.751   5.005   0.593
  654SOL    HW1 6261   4.765   4.923   0.538
  654SOL    HW2 6262   4.839   5.049   0.609
  655SOL     OW 6263   5.150   1.700   0.977
  655SOL    HW1 6264   5.094   1.672   1.055
  655SOL    HW2 6265   5.197   1.620   0.939
  656SOL     OW 6266   4.256   3.070   6.496
  656SOL    HW1 6267   4.344   3.116   0.002
  656SOL    HW2 6268   4.264   2.988   6.438
  657SOL     OW 6269   1.023   0.828   0.657
  657SOL    HW1 6270   1.079   0.886   0.597
  657SOL    HW2 6271   1.061   0.735   0.656
  658SOL     OW 6272   4.026   1.612   1.669
  658SOL    HW1 6273   4.050   1.707   1.685
  658SOL    HW2 6274   4.043   1.589   1.573
  659SOL     OW 6275   4.553   0.672   6.368
  659SOL    HW1 6276   4.525   0.581   6.399
  659SOL    HW2 6277   4.652   0.675   6.358
  660SOL     OW 6278   0.524   4.126   1.508
  660SOL    HW1 6279   0.516   4.224   1.526
  660SOL    HW2 6280   0.433   4.084   1.511
  661SOL     OW 6281   2.869   3.846   1.714
  661SOL    HW1 6282   2.786   3.831   1.768
  661SOL    HW2 6283   2.939   3.890   1.770
  662SOL     OW 6284   1.092   4.948   0.087
  662SOL    HW1 6285   1.049   4.984   0.169
  662SOL    HW2 6286   1.032   4.961   0.008
  663SOL     OW 6287   3.613   2.560   0.656
  663SOL    HW1 6288   3.709   2.536   0.671
  663SOL    HW2 6289   3.561   2.542   0.739
  664SOL     OW 6290   1.575   2.356   0.708
  664SOL    HW1 6291   1.668   2.319   0.708
  664SOL    HW2 6292   1.579   2.456   0.704
  665SOL     OW 6293   0.990   2.817   1.081
  665SOL    HW1 6294   0.940   2.778   1.004
  665SOL    HW2 6295   0.926   2.835   1.156
  666SOL     OW 6296   2.673   3.779   0.985
  666SOL    HW1 6297   2.658   3.681   0.969
  666SOL    HW2 6298   2.761   3.806   0.946
  667SOL     OW 6299   4.346   4.800   5.641
  667SOL    HW1 6300   4.412   4.729   5.666
  667SOL    HW2 6301   4.354   4.820   5.543
  668SOL     OW 6302   4.435   3.380   5.866
  668SOL    HW1 6303   4.376   3.360   5.944
  668SOL    HW2 6304   4.385   3.362   5.781
  669SOL     OW 6305   5.225   1.988   1.716
  669SOL    HW1 6306   5.174   2.027   1.793
  669SOL    HW2 6307   5.163   1.932   1.661
  670SOL     OW 6308   3.477   0.923   1.632
  670SOL    HW1 6309   3.530   0.856   1.580
  670SOL    HW2 6310   3.534   0.963   1.703
  671SOL     OW 6311   1.601   3.942   5.446
  671SOL    HW1 6312   1.563   4.032   5.425
  671SOL    HW2 6313   1.644   3.904   5.363
  672SOL     OW 6314   3.904   2.367   0.414
  672SOL    HW1 6315   3.857   2.416   0.340
  672SOL    HW2 6316   3.974   2.307   0.375
  673SOL     OW 6317   3.572   1.130   1.169
  673SOL    HW1 6318   3.614   1.210   1.212
  673SOL    HW2 6319   3.612   1.046   1.208
  674SOL     OW 6320   5.500   2.542   5.443
  674SOL    HW1 6321   5.511   2.573   5.349
  674SOL    HW2 6322   5.427   2.475   5.448
  675SOL     OW 6323   1.247   1.602   1.556
  675SOL    HW1 6324   1.331   1.653   1.537
  675SOL    HW2 6325   1.250   1.566   1.649
  676SOL     OW 6326   1.168   1.830   0.436
  676SOL    HW1 6327   1.112   1.757   0.397
  676SOL    HW2 6328   1.142   1.918   0.396
  677SOL     OW 6329   2.581   0.063   6.210
  677SOL    HW1 6330   2.612   0.146   6.258
  677SOL    HW2 6331   2.556   5.567   6.277
  678SOL     OW 6332   2.933   1.545   6.319
  678SOL    HW1 6333   2.926   1.633   6.271
  678SOL    HW2 6334   3.029   1.517   6.324
  679SOL     OW 6335   3.303   1.095   1.192
  679SOL    HW1 6336   3.288   1.084   1.290
  679SOL    HW2 6337   3.400   1.110   1.174
  680SOL     OW 6338   0.251   2.569   6.324
  680SOL    HW1 6339   0.288   2.659   6.303
  680SOL    HW2 6340   0.154   2.566   6.299
  681SOL     OW 6341   1.674   5.256   6.230
  681SOL    HW1 6342   1.772   5.272   6.217
  681SOL    HW2 6343   1.636   5.218   6.146
  682SOL     OW 6344   1.328   2.481   6.177
  682SOL    HW1 6345   1.403   2.416   6.166
  682SOL    HW2 6346   1.315   2.500   6.274
  683SOL     OW 6347   1.273   3.567   1.288
  683SOL    HW1 6348   1.301   3.637   1.223
  683SOL    HW2 6349   1.181   3.535   1.265
  684SOL     OW 6350   2.627   2.948   0.166
  684SOL    HW1 6351   2.719   2.980   0.144
  684SOL    HW2 6352   2.629   2.849   0.178
  685SOL     OW 6353   1.630   2.777   0.469
  685SOL    HW1 6354   1.568   2.839   0.422
  685SOL    HW2 6355   1.693   2.736   0.403
  686SOL     OW 6356   0.923   1.641   1.262
  686SOL    HW1 6357   0.976   1.599   1.188
  686SOL    HW2 6358   0.860   1.575   1.301
  687SOL     OW 6359   2.614   3.144   1.315
  687SOL    HW1 6360   2.593   3.099   1.402
  687SOL    HW2 6361   2.605   3.243   1.326
  688SOL     OW 6362   0.241   0.851   1.189
  688SOL    HW1 6363   0.317   0.887   1.136
  688SOL    HW2 6364   0.175   0.925   1.207
  689SOL     OW 6365   4.476   0.773   5.903
  689SOL    HW1 6366   4.522   0.843   5.957
  689SOL    HW2 6367   4.538   0.739   5.832
  690SOL     OW 6368   4.881   3.216   5.973
  690SOL    HW1 6369   4.830   3.301   5.960
  690SOL    HW2 6370   4.972   3.237   6.010
  691SOL     OW 6371   2.758   1.777   0.303
  691SOL    HW1 6372   2.732   1.871   0.326
  691SOL    HW2 6373   2.807   1.737   0.381
  692SOL     OW 6374   2.737   2.387   4.919
  692SOL    HW1 6375   2.682   2.466   4.891
  692SOL    HW2 6376   2.712   2.307   4.865
  693SOL     OW 6377   3.669   4.969   5.894
  693SOL    HW1 6378   3.727   4.887   5.900
  693SOL    HW2 6379   3.587   4.956   5.950
  694SOL     OW 6380   4.288   1.901   6.473
  694SOL    HW1 6381   4.384   1.879   6.489
  694SOL    HW2 6382   4.281   1.975   6.406
  695SOL     OW 6383   3.345   4.314   0.513
  695SOL    HW1 6384   3.393   4.401   0.509
  695SOL    HW2 6385   3.270   4.315   0.447
  696SOL     OW 6386   3.647   2.533   1.010
  696SOL    HW1 6387   3.565   2.537   0.954
  696SOL    HW2 6388   3.625   2.561   1.104
  697SOL     OW 6389   3.190   3.516   2.065
  697SOL    HW1 6390   3.263   3.458   2.101
  697SOL    HW2 6391   3.101   3.476   2.088
  698SOL     OW 6392   1.064   2.950   5.360
  698SOL    HW1 6393   1.101   2.876   5.304
  698SOL    HW2 6394   0.973   2.974   5.326
  699SOL     OW 6395   1.999   0.383   0.058
  699SOL    HW1 6396   2.073   0.444   0.086
  699SOL    HW2 6397   2.035   0.290   0.047
  700SOL     OW 6398   2.880   5.373   6.312
  700SOL    HW1 6399   2.878   5.395   6.410
  700SOL    HW2 6400   2.828   5.288   6.297
  701SOL     OW 6401   4.978   5.379   2.418
  701SOL    HW1 6402   5.071   5.405   2.394
  701SOL    HW2 6403   4.972   5.279   2.426
  702SOL     OW 6404   0.638   3.921   0.774
  702SOL    HW1 6405   0.694   3.874   0.842
  702SOL    HW2 6406   0.696   3.952   0.699
  703SOL     OW 6407   1.502   3.413   1.045
  703SOL    HW1 6408   1.534   3.486   1.105
  703SOL    HW2 6409   1.408   3.388   1.069
  704SOL     OW 6410   4.052   0.971   5.914
  704SOL    HW1 6411   4.100   0.915   5.848
  704SOL    HW2 6412   4.116   1.034   5.959
  705SOL     OW 6413   5.559   3.753   5.941
  705SOL    HW1 6414   5.512   3.788   5.860
  705SOL    HW2 6415   5.559   3.824   6.012
  706SOL     OW 6416   3.227   4.407   5.609
  706SOL    HW1 6417   3.296   4.437   5.543
  706SOL    HW2 6418   3.209   4.481   5.673
  707SOL     OW 6419   0.464   5.106   0.618
  707SOL    HW1 6420   0.392   5.111   0.688
  707SOL    HW2 6421   0.553   5.120   0.661
  708SOL     OW 6422   1.275   1.934   6.147
  708SOL    HW1 6423   1.260   1.900   6.240
  708SOL    HW2 6424   1.249   1.863   6.081
  709SOL     OW 6425   5.605   0.281   1.510
  709SOL    HW1 6426   0.010   0.317   1.437
  709SOL    HW2 6427   5.628   0.326   1.597
  710SOL     OW 6428   2.164   2.999   5.982
  710SOL    HW1 6429   2.182   2.905   6.013
  710SOL    HW2 6430   2.066   3.018   5.989
  711SOL     OW 6431   3.902   2.911   0.041
  711SOL    HW1 6432   3.934   2.831   6.490
  711SOL    HW2 6433   3.970   2.937   0.110
  712SOL     OW 6434   3.775   1.831   1.503
  712SOL    HW1 6435   3.737   1.871   1.587
  712SOL    HW2 6436   3.746   1.736   1.496
  713SOL     OW 6437   4.732   1.494   1.478
  713SOL    HW1 6438   4.710   1.523   1.572
  713SOL    HW2 6439   4.828   1.469   1.472
  714SOL     OW 6440   0.176   0.169   1.023
  714SOL    HW1 6441   0.230   0.235   1.075
  714SOL    HW2 6442   0.082   0.167   1.058
  715SOL     OW 6443   0.089   0.175   0.550
  715SOL    HW1 6444   0.041   0.161   0.637
  715SOL    HW2 6445   0.175   0.125   0.551
  716SOL     OW 6446   3.698   3.723   5.619
  716SOL    HW1 6447   3.748   3.704   5.703
  716SOL    HW2 6448   3.630   3.794   5.636
  717SOL     OW 6449   1.706   1.432   0.649
  717SOL    HW1 6450   1.702   1.502   0.577
  717SOL    HW2 6451   1.723   1.343   0.607
  718SOL     OW 6452   2.354   1.318   0.807
  718SOL    HW1 6453   2.304   1.241   0.846
  718SOL    HW2 6454   2.384   1.378   0.881
  719SOL     OW 6455   5.611   2.117   5.405
  719SOL    HW1 6456   0.029   2.179   5.443
  719SOL    HW2 6457   5.561   2.164   5.332
  720SOL     OW 6458   4.994   1.346   1.129
  720SOL    HW1 6459   4.945   1.320   1.046
  720SOL    HW2 6460   4.979   1.277   1.199
  721SOL     OW 6461   3.354   4.252   5.982
  721SOL    HW1 6462   3.300   4.203   5.913
  721SOL    HW2 6463   3.391   4.186   6.048
  722SOL     OW 6464   3.740   1.401   0.261
  722SOL    HW1 6465   3.700   1.476   0.312
  722SOL    HW2 6466   3.805   1.436   0.194
  723SOL     OW 6467   5.163   0.467   1.086
  723SOL    HW1 6468   5.123   0.375   1.092
  723SOL    HW2 6469   5.157   0.511   1.175
  724SOL     OW 6470   2.144   4.546   6.251
  724SOL    HW1 6471   2.090   4.495   6.184
  724SOL    HW2 6472   2.088   4.620   6.289
  725SOL     OW 6473   0.292   3.632   5.573
  725SOL    HW1 6474   0.250   3.584   5.650
  725SOL    HW2 6475   0.223   3.688   5.527
  726SOL     OW 6476   4.369   1.768   5.667
  726SOL    HW1 6477   4.314   1.753   5.749
  726SOL    HW2 6478   4.372   1.684   5.613
  727SOL     OW 6479   3.268   1.140   6.058
  727SOL    HW1 6480   3.347   1.083   6.039
  727SOL    HW2 6481   3.252   1.201   5.980
  728SOL     OW 6482   2.096   3.012   5.567
  728SOL    HW1 6483   2.106   2.913   5.575
  728SOL    HW2 6484   2.151   3.058   5.637
  729SOL     OW 6485   0.516   4.751   0.635
  729SOL    HW1 6486   0.613   4.747   0.658
  729SOL    HW2 6487   0.504   4.800   0.548
  730SOL     OW 6488   0.875   5.553   5.730
  730SOL    HW1 6489   0.875   0.025   5.819
  730SOL    HW2 6490   0.914   0.039   5.661
  731SOL     OW 6491   2.544   1.308   6.014
  731SOL    HW1 6492   2.612   1.358   6.068
  731SOL    HW2 6493   2.489   1.374   5.962
  732SOL     OW 6494   0.649   0.604   1.177
  732SOL    HW1 6495   0.719   0.667   1.146
  732SOL    HW2 6496   0.672   0.571   1.269
  733SOL     OW 6497   2.006   0.898   5.101
  733SOL    HW1 6498   1.985   0.956   5.021
  733SOL    HW2 6499   1.948   0.817   5.099
  734SOL     OW 6500   0.142   1.364   0.043
  734SOL    HW1 6501   0.073   1.355   0.115
  734SOL    HW2 6502   0.198   1.281   0.040
  735SOL     OW 6503   0.664   0.452   5.171
  735SOL    HW1 6504   0.622   0.540   5.191
  735SOL    HW2 6505   0.609   0.403   5.103
  736SOL     OW 6506   2.392   1.188   5.392
  736SOL    HW1 6507   2.412   1.173   5.295
  736SOL    HW2 6508   2.365   1.102   5.434
  737SOL     OW 6509   0.198   4.416   6.130
  737SOL    HW1 6510   0.143   4.386   6.052
  737SOL    HW2 6511   0.138   4.446   6.204
  738SOL     OW 6512   0.414   3.723   0.212
  738SOL    HW1 6513   0.400   3.795   0.144
  738SOL    HW2 6514   0.328   3.702   0.258
  739SOL     OW 6515   4.193   0.801   0.885
  739SOL    HW1 6516   4.093   0.806   0.884
  739SOL    HW2 6517   4.230   0.859   0.812
  740SOL     OW 6518   4.816   3.427   1.661
  740SOL    HW1 6519   4.855   3.338   1.683
  740SOL    HW2 6520   4.888   3.497   1.662
  741SOL     OW 6521   3.827   2.959   6.184
  741SOL    HW1 6522   3.848   2.865   6.211
  741SOL    HW2 6523   3.910   3.015   6.188
  742SOL     OW 6524   2.374   2.587   0.729
  742SOL    HW1 6525   2.415   2.678   0.718
  742SOL    HW2 6526   2.288   2.583   0.678
  743SOL     OW 6527   1.912   0.537   5.804
  743SOL    HW1 6528   1.999   0.585   5.798
  743SOL    HW2 6529   1.923   0.455   5.860
  744SOL     OW 6530   0.282   2.305   4.480
  744SOL    HW1 6531   0.196   2.350   4.505
  744SOL    HW2 6532   0.266   2.207   4.465
  745SOL     OW 6533   4.201   2.682   0.081
  745SOL    HW1 6534   4.136   2.704   0.009
  745SOL    HW2 6535   4.204   2.583   0.094
  746SOL     OW 6536   0.071   1.493   1.630
  746SOL    HW1 6537   0.141   1.557   1.663
  746SOL    HW2 6538   0.109   1.401   1.626
  747SOL     OW 6539   4.789   1.426   0.243
  747SOL    HW1 6540   4.781   1.522   0.216
  747SOL    HW2 6541   4.712   1.401   0.300
  748SOL     OW 6542   1.904   1.676   6.191
  748SOL    HW1 6543   1.804   1.675   6.197
  748SOL    HW2 6544   1.935   1.606   6.127
  749SOL     OW 6545   3.779   4.078   0.010
  749SOL    HW1 6546   3.689   4.107   0.042
  749SOL    HW2 6547   3.850   4.135   0.052
  750SOL     OW 6548   2.400   1.916   5.572
  750SOL    HW1 6549   2.315   1.930   5.623
  750SOL    HW2 6550   2.431   2.004   5.535
  751SOL     OW 6551   3.705   0.306   1.343
  751SOL    HW1 6552   3.800   0.338   1.343
  751SOL    HW2 6553   3.699   0.221   1.396
  752SOL     OW 6554   3.433   2.679   0.304
  752SOL    HW1 6555   3.377   2.598   0.286
  752SOL    HW2 6556   3.425   2.704   0.400
  753SOL     OW 6557   4.338   5.208   0.314
  753SOL    HW1 6558   4.410   5.174   0.374
  753SOL    HW2 6559   4.317   5.303   0.336
  754SOL     OW 6560   0.297   3.030   0.238
  754SOL    HW1 6561   0.379   3.032   0.295
  754SOL    HW2 6562   0.302   2.954   0.174
  755SOL     OW 6563   4.959   3.523   0.207
  755SOL    HW1 6564   4.891   3.515   0.280
  755SOL    HW2 6565   4.918   3.492   0.121
  756SOL     OW 6566   5.063   2.482   5.341
  756SOL    HW1 6567   5.043   2.573   5.376
  756SOL    HW2 6568   5.037   2.478   5.244
  757SOL     OW 6569   4.321   2.095   6.277
  757SOL    HW1 6570   4.410   2.072   6.237
  757SOL    HW2 6571   4.250   2.083   6.208
  758SOL     OW 6572   2.352   2.761   0.432
  758SOL    HW1 6573   2.419   2.687   0.444
  758SOL    HW2 6574   2.316   2.788   0.521
  759SOL     OW 6575   4.376   2.192   5.570
  759SOL    HW1 6576   4.279   2.185   5.549
  759SOL    HW2 6577   4.402   2.288   5.579
  760SOL     OW 6578   1.187   0.124   5.781
  760SOL    HW1 6579   1.126   0.102   5.705
  760SOL    HW2 6580   1.199   0.223   5.785
  761SOL     OW 6581   0.413   5.350   1.737
  761SOL    HW1 6582   0.481   5.284   1.768
  761SOL    HW2 6583   0.405   5.424   1.804
  762SOL     OW 6584   4.668   5.294   1.609
  762SOL    HW1 6585   4.658   5.378   1.663
  762SOL    HW2 6586   4.597   5.229   1.636
  763SOL     OW 6587   1.849   0.454   6.342
  763SOL    HW1 6588   1.901   0.422   6.422
  763SOL    HW2 6589   1.850   0.554   6.341
  764SOL     OW 6590   5.584   4.215   5.184
  764SOL    HW1 6591   5.643   4.227   5.105
  764SOL    HW2 6592   5.498   4.172   5.156
  765SOL     OW 6593   3.885   1.800   6.361
  765SOL    HW1 6594   3.866   1.865   6.434
  765SOL    HW2 6595   3.969   1.749   6.381
  766SOL     OW 6596   4.883   3.959   6.264
  766SOL    HW1 6597   4.819   3.990   6.333
  766SOL    HW2 6598   4.833   3.921   6.186
  767SOL     OW 6599   0.323   5.092   0.261
  767SOL    HW1 6600   0.371   5.152   0.197
  767SOL    HW2 6601   0.389   5.027   0.300
  768SOL     OW 6602   4.845   4.238   1.888
  768SOL    HW1 6603   4.892   4.179   1.954
  768SOL    HW2 6604   4.751   4.208   1.877
  769SOL     OW 6605   4.654   0.875   2.404
  769SOL    HW1 6606   4.675   0.807   2.474
  769SOL    HW2 6607   4.565   0.916   2.423
  770SOL     OW 6608   1.029   3.407   1.257
  770SOL    HW1 6609   1.030   3.428   1.355
  770SOL    HW2 6610   0.979   3.322   1.242
  771SOL     OW 6611   1.253   3.532   1.991
  771SOL    HW1 6612   1.172   3.474   1.991
  771SOL    HW2 6613   1.288   3.542   2.084
  772SOL     OW 6614   3.003   3.797   5.782
  772SOL    HW1 6615   2.988   3.792   5.683
  772SOL    HW2 6616   2.917   3.781   5.830
  773SOL     OW 6617   1.847   1.717   5.815
  773SOL    HW1 6618   1.834   1.618   5.812
  773SOL    HW2 6619   1.760   1.763   5.801
  774SOL     OW 6620   1.445   0.050   0.034
  774SOL    HW1 6621   1.470   5.572   6.451
  774SOL    HW2 6622   1.485   0.142   0.029
  775SOL     OW 6623   2.245   4.061   1.839
  775SOL    HW1 6624   2.206   3.986   1.892
  775SOL    HW2 6625   2.261   4.140   1.899
  776SOL     OW 6626   2.930   0.338   0.564
  776SOL    HW1 6627   2.894   0.250   0.534
  776SOL    HW2 6628   2.953   0.394   0.485
  777SOL     OW 6629   3.855   4.556   0.437
  777SOL    HW1 6630   3.941   4.564   0.489
  777SOL    HW2 6631   3.834   4.460   0.422
  778SOL     OW 6632   3.249   3.011   5.785
  778SOL    HW1 6633   3.262   3.082   5.854
  778SOL    HW2 6634   3.172   2.953   5.811
  779SOL     OW 6635   2.553   3.419   1.409
  779SOL    HW1 6636   2.645   3.419   1.447
  779SOL    HW2 6637   2.490   3.377   1.474
  780SOL     OW 6638   3.474   0.665   5.643
  780SOL    HW1 6639   3.427   0.754   5.647
  780SOL    HW2 6640   3.503   0.647   5.549
  781SOL     OW 6641   1.334   3.087   4.639
  781SOL    HW1 6642   1.269   3.078   4.564
  781SOL    HW2 6643   1.416   3.135   4.607
  782SOL     OW 6644   4.086   1.017   1.421
  782SOL    HW1 6645   4.161   1.083   1.424
  782SOL    HW2 6646   4.084   0.972   1.332
  783SOL     OW 6647   0.963   2.449   5.705
  783SOL    HW1 6648   0.895   2.382   5.734
  783SOL    HW2 6649   0.918   2.518   5.648
  784SOL     OW 6650   3.631   2.576   6.188
  784SOL    HW1 6651   3.617   2.649   6.255
  784SOL    HW2 6652   3.562   2.585   6.115
  785SOL     OW 6653   2.872   1.789   0.056
  785SOL    HW1 6654   2.937   1.713   0.052
  785SOL    HW2 6655   2.827   1.789   0.146
  786SOL     OW 6656   0.634   3.531   1.554
  786SOL    HW1 6657   0.694   3.611   1.545
  786SOL    HW2 6658   0.571   3.528   1.476
  787SOL     OW 6659   3.840   0.459   0.900
  787SOL    HW1 6660   3.902   0.530   0.866
  787SOL    HW2 6661   3.777   0.433   0.827
  788SOL     OW 6662   0.181   4.246   1.303
  788SOL    HW1 6663   0.146   4.212   1.390
  788SOL    HW2 6664   0.139   4.196   1.227
  789SOL     OW 6665   4.735   3.601   0.800
  789SOL    HW1 6666   4.640   3.569   0.791
  789SOL    HW2 6667   4.736   3.696   0.830
  790SOL     OW 6668   3.670   1.218   1.662
  790SOL    HW1 6669   3.655   1.157   1.740
  790SOL    HW2 6670   3.722   1.298   1.693
  791SOL     OW 6671   5.336   3.075   6.226
  791SOL    HW1 6672   5.405   3.122   6.281
  791SOL    HW2 6673   5.317   2.985   6.266
  792SOL     OW 6674   3.482   3.677   1.627
  792SOL    HW1 6675   3.539   3.685   1.709
  792SOL    HW2 6676   3.391   3.711   1.647
  793SOL     OW 6677   2.580   1.050   0.188
  793SOL    HW1 6678   2.570   1.121   0.118
  793SOL    HW2 6679   2.677   1.031   0.203
  794SOL     OW 6680   2.229   0.907   1.603
  794SOL    HW1 6681   2.206   0.915   1.700
  794SOL    HW2 6682   2.144   0.907   1.549
  795SOL     OW 6683   0.338   3.463   0.049
  795SOL    HW1 6684   0.339   3.411   0.134
  795SOL    HW2 6685   0.259   3.525   0.049
  796SOL     OW 6686   5.396   5.202   1.463
  796SOL    HW1 6687   5.419   5.238   1.372
  796SOL    HW2 6688   5.299   5.218   1.482
  797SOL     OW 6689   3.204   0.187   0.441
  797SOL    HW1 6690   3.267   0.186   0.363
  797SOL    HW2 6691   3.220   0.268   0.496
  798SOL     OW 6692   1.333   1.937   5.617
  798SOL    HW1 6693   1.393   1.867   5.578
  798SOL    HW2 6694   1.377   2.027   5.609
  799SOL     OW 6695   1.762   5.053   1.866
  799SOL    HW1 6696   1.838   4.989   1.858
  799SOL    HW2 6697   1.748   5.076   1.963
  800SOL     OW 6698   2.811   0.724   0.302
  800SOL    HW1 6699   2.773   0.669   0.227
  800SOL    HW2 6700   2.755   0.710   0.384
  801SOL     OW 6701   3.760   4.768   2.089
  801SOL    HW1 6702   3.754   4.669   2.081
  801SOL    HW2 6703   3.844   4.793   2.136
  802SOL     OW 6704   1.349   3.312   1.381
  802SOL    HW1 6705   1.330   3.404   1.347
  802SOL    HW2 6706   1.336   3.310   1.480
  803SOL     OW 6707   4.836   2.374   1.632
  803SOL    HW1 6708   4.826   2.357   1.730
  803SOL    HW2 6709   4.933   2.374   1.608
  804SOL     OW 6710   3.167   3.733   6.303
  804SOL    HW1 6711   3.202   3.688   6.385
  804SOL    HW2 6712   3.167   3.668   6.227
  805SOL     OW 6713   0.656   3.278   2.327
  805SOL    HW1 6714   0.606   3.194   2.347
  805SOL    HW2 6715   0.703   3.310   2.410
  806SOL     OW 6716   3.235   2.753   1.203
  806SOL    HW1 6717   3.195   2.688   1.139
  806SOL    HW2 6718   3.255   2.707   1.290
  807SOL     OW 6719   3.292   0.097   1.412
  807SOL    HW1 6720   3.195   0.102   1.385
  807SOL    HW2 6721   3.337   0.183   1.389
  808SOL     OW 6722   3.002   0.567   5.694
  808SOL    HW1 6723   3.042   0.648   5.737
  808SOL    HW2 6724   3.075   0.512   5.653
  809SOL     OW 6725   1.411   3.951   1.482
  809SOL    HW1 6726   1.499   3.986   1.514
  809SOL    HW2 6727   1.410   3.851   1.491
  810SOL     OW 6728   4.308   4.470   6.418
  810SOL    HW1 6729   4.385   4.434   6.472
  810SOL    HW2 6730   4.330   4.562   6.386
  811SOL     OW 6731   4.137   0.547   0.619
  811SOL    HW1 6732   4.122   0.514   0.526
  811SOL    HW2 6733   4.055   0.592   0.652
  812SOL     OW 6734   1.377   1.183   0.383
  812SOL    HW1 6735   1.317   1.112   0.420
  812SOL    HW2 6736   1.345   1.273   0.413
  813SOL     OW 6737   0.889   1.250   0.305
  813SOL    HW1 6738   0.817   1.258   0.237
  813SOL    HW2 6739   0.955   1.180   0.276
  814SOL     OW 6740   4.078   2.042   1.917
  814SOL    HW1 6741   4.150   2.024   1.984
  814SOL    HW2 6742   4.080   1.972   1.846
  815SOL     OW 6743   1.177   5.548   1.285
  815SOL    HW1 6744   1.123   0.037   1.341
  815SOL    HW2 6745   1.183   0.010   1.191
  816SOL     OW 6746   4.039   3.950   1.821
  816SOL    HW1 6747   4.073   4.020   1.884
  816SOL    HW2 6748   4.080   3.861   1.845
  817SOL     OW 6749   1.483   4.683   0.269
  817SOL    HW1 6750   1.435   4.739   0.201
  817SOL    HW2 6751   1.460   4.713   0.361
  818SOL     OW 6752   2.702   3.672   0.598
  818SOL    HW1 6753   2.751   3.733   0.536
  818SOL    HW2 6754   2.606   3.664   0.568
  819SOL     OW 6755   5.287   3.526   0.015
  819SOL    HW1 6756   5.307   3.561   6.423
  819SOL    HW2 6757   5.236   3.440   0.008
  820SOL     OW 6758   2.447   0.724   6.091
  820SOL    HW1 6759   2.514   0.721   6.165
  820SOL    HW2 6760   2.489   0.763   6.009
  821SOL     OW 6761   3.727   0.969   0.596
  821SOL    HW1 6762   3.772   1.021   0.668
  821SOL    HW2 6763   3.796   0.932   0.534
  822SOL     OW 6764   1.176   2.215   6.490
  822SOL    HW1 6765   1.253   2.152   6.496
  822SOL    HW2 6766   1.194   2.295   0.048
  823SOL     OW 6767   3.525   1.054   0.407
  823SOL    HW1 6768   3.534   1.131   0.344
  823SOL    HW2 6769   3.595   1.061   0.478
  824SOL     OW 6770   2.959   2.285   5.039
  824SOL    HW1 6771   2.982   2.215   4.972
  824SOL    HW2 6772   2.874   2.330   5.013
  825SOL     OW 6773   1.415   3.387   6.146
  825SOL    HW1 6774   1.490   3.427   6.198
  825SOL    HW2 6775   1.333   3.385   6.203
  826SOL     OW 6776   3.195   4.049   1.688
  826SOL    HW1 6777   3.161   4.126   1.633
  826SOL    HW2 6778   3.133   4.035   1.765
  827SOL     OW 6779   1.849   5.213   1.017
  827SOL    HW1 6780   1.919   5.143   1.001
  827SOL    HW2 6781   1.837   5.226   1.116
  828SOL     OW 6782   4.616   2.344   0.044
  828SOL    HW1 6783   4.637   2.440   0.028
  828SOL    HW2 6784   4.604   2.328   0.142
  829SOL     OW 6785   0.073   4.759   6.065
  829SOL    HW1 6786   5.646   4.697   6.070
  829SOL    HW2 6787   0.141   4.722   6.003
  830SOL     OW 6788   5.423   3.852   5.724
  830SOL    HW1 6789   5.365   3.913   5.778
  830SOL    HW2 6790   5.459   3.903   5.645
  831SOL     OW 6791   4.451   2.209   0.664
  831SOL    HW1 6792   4.380   2.251   0.609
  831SOL    HW2 6793   4.523   2.276   0.683
  832SOL     OW 6794   3.971   2.866   1.296
  832SOL    HW1 6795   3.964   2.875   1.197
  832SOL    HW2 6796   4.066   2.847   1.322
  833SOL     OW 6797   0.768   3.455   6.368
  833SOL    HW1 6798   0.784   3.414   6.457
  833SOL    HW2 6799   0.692   3.519   6.373
  834SOL     OW 6800   3.060   4.896   5.745
  834SOL    HW1 6801   3.073   4.960   5.821
  834SOL    HW2 6802   2.998   4.936   5.678
  835SOL     OW 6803   1.647   1.728   4.852
  835SOL    HW1 6804   1.732   1.745   4.902
  835SOL    HW2 6805   1.651   1.636   4.812
  836SOL     OW 6806   4.147   1.431   0.797
  836SOL    HW1 6807   4.210   1.485   0.853
  836SOL    HW2 6808   4.060   1.480   0.787
  837SOL     OW 6809   5.146   4.577   1.319
  837SOL    HW1 6810   5.126   4.501   1.380
  837SOL    HW2 6811   5.064   4.632   1.306
  838SOL     OW 6812   3.946   4.565   1.270
  838SOL    HW1 6813   3.999   4.649   1.254
  838SOL    HW2 6814   4.000   4.501   1.324
  839SOL     OW 6815   5.598   2.836   4.711
  839SOL    HW1 6816   5.610   2.909   4.644
  839SOL    HW2 6817   5.502   2.829   4.738
  840SOL     OW 6818   1.737   0.196   0.358
  840SOL    HW1 6819   1.770   0.122   0.300
  840SOL    HW2 6820   1.640   0.181   0.379
  841SOL     OW 6821   2.059   2.265   6.057
  841SOL    HW1 6822   2.070   2.168   6.079
  841SOL    HW2 6823   2.144   2.314   6.074
  842SOL     OW 6824   0.416   3.564   0.910
  842SOL    HW1 6825   0.360   3.601   0.836
  842SOL    HW2 6826   0.385   3.602   0.997
  843SOL     OW 6827   5.330   3.688   0.584
  843SOL    HW1 6828   5.275   3.667   0.665
  843SOL    HW2 6829   5.278   3.664   0.501
  844SOL     OW 6830   3.834   0.596   1.458
  844SOL    HW1 6831   3.882   0.534   1.396
  844SOL    HW2 6832   3.897   0.665   1.492
  845SOL     OW 6833   5.265   5.342   2.061
  845SOL    HW1 6834   5.359   5.310   2.045
  845SOL    HW2 6835   5.255   5.368   2.157
  846SOL     OW 6836   4.343   3.885   6.073
  846SOL    HW1 6837   4.396   3.907   5.990
  846SOL    HW2 6838   4.360   3.791   6.099
  847SOL     OW 6839   4.083   4.634   2.046
  847SOL    HW1 6840   4.044   4.547   2.075
  847SOL    HW2 6841   4.053   4.706   2.108
  848SOL     OW 6842   0.105   0.720   0.105
  848SOL    HW1 6843   0.051   0.672   0.036
  848SOL    HW2 6844   0.080   0.687   0.196
  849SOL     OW 6845   4.242   0.344   0.302
  849SOL    HW1 6846   4.205   0.294   0.224
  849SOL    HW2 6847   4.326   0.390   0.275
  850SOL     OW 6848   5.205   2.374   5.645
  850SOL    HW1 6849   5.188   2.471   5.663
  850SOL    HW2 6850   5.234   2.363   5.549
  851SOL     OW 6851   2.586   5.110   6.100
  851SOL    HW1 6852   2.543   5.112   6.009
  851SOL    HW2 6853   2.681   5.082   6.092
  852SOL     OW 6854   3.959   5.026   0.387
  852SOL    HW1 6855   3.948   5.096   0.457
  852SOL    HW2 6856   3.892   4.954   0.401
  853SOL     OW 6857   4.147   2.486   6.101
  853SOL    HW1 6858   4.187   2.412   6.047
  853SOL    HW2 6859   4.051   2.467   6.119
  854SOL     OW 6860   1.184   3.819   5.781
  854SOL    HW1 6861   1.232   3.776   5.858
  854SOL    HW2 6862   1.087   3.793   5.783
  855SOL     OW 6863   0.529   4.390   1.582
  855SOL    HW1 6864   0.605   4.443   1.619
  855SOL    HW2 6865   0.449   4.449   1.572
  856SOL     OW 6866   0.725   4.197   0.394
  856SOL    HW1 6867   0.725   4.281   0.449
  856SOL    HW2 6868   0.647   4.198   0.332
  857SOL     OW 6869   5.079   0.204   1.092
  857SOL    HW1 6870   4.980   0.195   1.102
  857SOL    HW2 6871   5.105   0.178   0.999
  858SOL     OW 6872   0.540   3.736   5.598
  858SOL    HW1 6873   0.448   3.701   5.576
  858SOL    HW2 6874   0.564   3.709   5.692
  859SOL     OW 6875   4.009   3.263   0.929
  859SOL    HW1 6876   4.104   3.235   0.913
  859SOL    HW2 6877   3.947   3.190   0.900
  860SOL     OW 6878   1.068   0.730   0.988
  860SOL    HW1 6879   1.062   0.636   0.954
  860SOL    HW2 6880   1.152   0.772   0.954
  861SOL     OW 6881   4.703   3.419   5.878
  861SOL    HW1 6882   4.605   3.401   5.868
  861SOL    HW2 6883   4.748   3.413   5.789
  862SOL     OW 6884   2.624   2.247   5.776
  862SOL    HW1 6885   2.713   2.234   5.733
  862SOL    HW2 6886   2.571   2.313   5.723
  863SOL     OW 6887   5.439   5.389   1.664
  863SOL    HW1 6888   5.497   5.466   1.638
  863SOL    HW2 6889   5.436   5.322   1.590
  864SOL     OW 6890   5.510   3.423   6.173
  864SOL    HW1 6891   5.443   3.492   6.199
  864SOL    HW2 6892   5.496   3.340   6.228
  865SOL     OW 6893   4.447   4.072   5.411
  865SOL    HW1 6894   4.464   4.153   5.356
  865SOL    HW2 6895   4.489   3.992   5.367
  866SOL     OW 6896   1.054   5.236   0.449
  866SOL    HW1 6897   1.082   5.310   0.389
  866SOL    HW2 6898   0.983   5.268   0.511
  867SOL     OW 6899   3.643   4.939   1.732
  867SOL    HW1 6900   3.740   4.961   1.722
  867SOL    HW2 6901   3.621   4.931   1.829
  868SOL     OW 6902   1.902   2.324   1.494
  868SOL    HW1 6903   1.990   2.312   1.540
  868SOL    HW2 6904   1.840   2.374   1.554
  869SOL     OW 6905   0.227   1.605   0.758
  869SOL    HW1 6906   0.189   1.564   0.841
  869SOL    HW2 6907   0.275   1.690   0.782
  870SOL     OW 6908   4.463   1.342   0.163
  870SOL    HW1 6909   4.453   1.322   0.261
  870SOL    HW2 6910   4.475   1.441   0.151
  871SOL     OW 6911   3.030   2.008   0.691
  871SOL    HW1 6912   3.005   2.006   0.594
  871SOL    HW2 6913   2.983   1.934   0.739
  872SOL     OW 6914   0.271   5.181   5.593
  872SOL    HW1 6915   0.320   5.260   5.628
  872SOL    HW2 6916   0.306   5.157   5.503
  873SOL     OW 6917   3.159   2.214   6.072
  873SOL    HW1 6918   3.257   2.196   6.063
  873SOL    HW2 6919   3.143   2.313   6.074
  874SOL     OW 6920   5.309   0.142   1.234
  874SOL    HW1 6921   5.311   0.186   1.323
  874SOL    HW2 6922   5.224   0.166   1.187
  875SOL     OW 6923   3.665   1.003   5.534
  875SOL    HW1 6924   3.586   1.010   5.473
  875SOL    HW2 6925   3.673   1.087   5.587
  876SOL     OW 6926   4.186   2.294   1.852
  876SOL    HW1 6927   4.134   2.217   1.890
  876SOL    HW2 6928   4.200   2.363   1.923
  877SOL     OW 6929   1.708   5.116   2.130
  877SOL    HW1 6930   1.752   5.198   2.167
  877SOL    HW2 6931   1.739   5.036   2.181
  878SOL     OW 6932   2.872   0.449   0.998
  878SOL    HW1 6933   2.876   0.350   0.985
  878SOL    HW2 6934   2.820   0.491   0.924
  879SOL     OW 6935   5.518   2.604   5.179
  879SOL    HW1 6936   5.589   2.670   5.154
  879SOL    HW2 6937   5.521   2.526   5.117
  880SOL     OW 6938   2.192   4.161   0.787
  880SOL    HW1 6939   2.214   4.258   0.776
  880SOL    HW2 6940   2.104   4.142   0.743
  881SOL     OW 6941   3.249   4.151   0.943
  881SOL    HW1 6942   3.240   4.151   0.843
  881SOL    HW2 6943   3.157   4.148   0.984
  882SOL     OW 6944   1.294   0.547   1.686
  882SOL    HW1 6945   1.312   0.500   1.772
  882SOL    HW2 6946   1.202   0.587   1.688
  883SOL     OW 6947   1.493   3.125   5.187
  883SOL    HW1 6948   1.403   3.124   5.232
  883SOL    HW2 6949   1.482   3.154   5.092
  884SOL     OW 6950   1.566   4.589   0.635
  884SOL    HW1 6951   1.639   4.645   0.674
  884SOL    HW2 6952   1.607   4.514   0.583
  885SOL     OW 6953   2.795   4.885   0.972
  885SOL    HW1 6954   2.857   4.948   0.923
  885SOL    HW2 6955   2.717   4.937   1.006
  886SOL     OW 6956   2.137   4.086   1.046
  886SOL    HW1 6957   2.057   4.027   1.033
  886SOL    HW2 6958   2.168   4.119   0.957
  887SOL     OW 6959   0.405   4.550   6.262
  887SOL    HW1 6960   0.367   4.641   6.279
  887SOL    HW2 6961   0.342   4.497   6.206
  888SOL     OW 6962   3.682   0.504   1.124
  888SOL    HW1 6963   3.738   0.478   1.045
  888SOL    HW2 6964   3.687   0.431   1.193
  889SOL     OW 6965   2.583   1.840   1.333
  889SOL    HW1 6966   2.553   1.909   1.267
  889SOL    HW2 6967   2.535   1.856   1.420
  890SOL     OW 6968   2.780   2.074   6.200
  890SOL    HW1 6969   2.752   2.060   6.105
  890SOL    HW2 6970   2.727   2.012   6.259
  891SOL     OW 6971   1.755   4.773   0.734
  891SOL    HW1 6972   1.841   4.768   0.683
  891SOL    HW2 6973   1.774   4.794   0.830
  892SOL     OW 6974   2.805   3.597   1.918
  892SOL    HW1 6975   2.739   3.672   1.910
  892SOL    HW2 6976   2.779   3.523   1.856
  893SOL     OW 6977   4.821   3.437   0.430
  893SOL    HW1 6978   4.834   3.338   0.431
  893SOL    HW2 6979   4.872   3.478   0.506
  894SOL     OW 6980   4.797   1.164   1.915
  894SOL    HW1 6981   4.835   1.223   1.843
  894SOL    HW2 6982   4.851   1.174   1.998
  895SOL     OW 6983   2.912   0.788   6.250
  895SOL    HW1 6984   2.991   0.843   6.225
  895SOL    HW2 6985   2.857   0.769   6.169
  896SOL     OW 6986   3.089   4.306   4.969
  896SOL    HW1 6987   3.088   4.405   4.950
  896SOL    HW2 6988   3.171   4.265   4.930
  897SOL     OW 6989   1.595   1.293   1.037
  897SOL    HW1 6990   1.692   1.272   1.043
  897SOL    HW2 6991   1.580   1.368   0.972
  898SOL     OW 6992   2.726   5.284   0.268
  898SOL    HW1 6993   2.751   5.187   0.268
  898SOL    HW2 6994   2.779   5.332   0.197
  899SOL     OW 6995   0.677   2.335   6.138
  899SOL    HW1 6996   0.654   2.385   6.055
  899SOL    HW2 6997   0.772   2.305   6.134
  900SOL     OW 6998   5.506   2.456   1.664
  900SOL    HW1 6999   5.457   2.526   1.716
  900SOL    HW2 7000   5.450   2.373   1.659
  901SOL     OW 7001   0.110   0.063   5.760
  901SOL    HW1 7002   0.113   5.559   5.823
  901SOL    HW2 7003   0.200   0.106   5.756
  902SOL     OW 7004   0.681   4.285   1.264
  902SOL    HW1 7005   0.584   4.301   1.247
  902SOL    HW2 7006   0.703   4.189   1.247
  903SOL     OW 7007   5.450   4.362   1.228
  903SOL    HW1 7008   5.419   4.456   1.215
  903SOL    HW2 7009   5.461   4.317   1.140
  904SOL     OW 7010   1.530   1.482   0.849
  904SOL    HW1 7011   1.478   1.566   0.831
  904SOL    HW2 7012   1.592   1.465   0.772
  905SOL     OW 7013   3.154   2.112   0.257
  905SOL    HW1 7014   3.105   2.156   0.182
  905SOL    HW2 7015   3.247   2.088   0.227
  906SOL     OW 7016   0.323   3.981   0.552
  906SOL    HW1 7017   0.342   4.019   0.643
  906SOL    HW2 7018   0.387   3.906   0.534
  907SOL     OW 7019   3.313   1.454   1.622
  907SOL    HW1 7020   3.377   1.493   1.688
  907SOL    HW2 7021   3.363   1.392   1.561
  908SOL     OW 7022   3.563   1.018   0.027
  908SOL    HW1 7023   3.630   0.957   0.069
  908SOL    HW2 7024   3.539   1.091   0.092
  909SOL     OW 7025   1.240   3.708   0.545
  909SOL    HW1 7026   1.195   3.715   0.456
  909SOL    HW2 7027   1.270   3.613   0.560
  910SOL     OW 7028   1.923   1.189   5.747
  910SOL    HW1 7029   1.909   1.119   5.817
  910SOL    HW2 7030   1.991   1.158   5.681
  911SOL     OW 7031   0.139   0.789   5.156
  911SOL    HW1 7032   0.069   0.735   5.202
  911SOL    HW2 7033   0.099   0.875   5.124
  912SOL     OW 7034   3.335   3.014   1.147
  912SOL    HW1 7035   3.349   3.026   1.048
  912SOL    HW2 7036   3.302   2.922   1.165
  913SOL     OW 7037   4.003   1.287   2.587
  913SOL    HW1 7038   4.081   1.228   2.609
  913SOL    HW2 7039   3.923   1.257   2.639
  914SOL     OW 7040   4.294   3.983   5.620
  914SOL    HW1 7041   4.346   4.022   5.544
  914SOL    HW2 7042   4.230   4.050   5.655
  915SOL     OW 7043   0.238   1.495   4.916
  915SOL    HW1 7044   0.300   1.441   4.860
  915SOL    HW2 7045   0.173   1.545   4.858
  916SOL     OW 7046   2.833   2.921   5.968
  916SOL    HW1 7047   2.798   2.893   6.057
  916SOL    HW2 7048   2.857   3.018   5.970
  917SOL     OW 7049   3.619   5.434   4.818
  917SOL    HW1 7050   3.595   5.469   4.728
  917SOL    HW2 7051   3.681   5.498   4.864
  918SOL     OW 7052   0.355   4.315   0.912
  918SOL    HW1 7053   0.256   4.320   0.917
  918SOL    HW2 7054   0.389   4.383   0.847
  919SOL     OW 7055   0.076   5.017   6.002
  919SOL    HW1 7056   5.647   5.049   5.952
  919SOL    HW2 7057   0.063   4.922   6.030
  920SOL     OW 7058   1.361   0.858   6.226
  920SOL    HW1 7059   1.331   0.938   6.174
  920SOL    HW2 7060   1.312   0.854   6.313
  921SOL     OW 7061   0.336   5.238   2.108
  921SOL    HW1 7062   0.363   5.333   2.125
  921SOL    HW2 7063   0.237   5.230   2.123
  922SOL     OW 7064   5.368   2.333   6.054
  922SOL    HW1 7065   5.393   2.429   6.059
  922SOL    HW2 7066   5.274   2.321   6.087
  923SOL     OW 7067   4.428   2.411   1.589
  923SOL    HW1 7068   4.440   2.325   1.539
  923SOL    HW2 7069   4.471   2.404   1.679
  924SOL     OW 7070   3.277   0.797   0.270
  924SOL    HW1 7071   3.211   0.822   0.198
  924SOL    HW2 7072   3.269   0.861   0.346
  925SOL     OW 7073   3.794   4.825   0.461
  925SOL    HW1 7074   3.767   4.844   0.556
  925SOL    HW2 7075   3.803   4.726   0.449
  926SOL     OW 7076   5.113   5.161   5.182
  926SOL    HW1 7077   5.183   5.195   5.245
  926SOL    HW2 7078   5.154   5.144   5.093
  927SOL     OW 7079   0.191   2.462   1.035
  927SOL    HW1 7080   0.282   2.505   1.034
  927SOL    HW2 7081   0.150   2.470   0.944
  928SOL     OW 7082   3.453   3.957   0.967
  928SOL    HW1 7083   3.497   3.981   1.053
  928SOL    HW2 7084   3.375   4.017   0.951
  929SOL     OW 7085   1.669   2.060   5.588
  929SOL    HW1 7086   1.717   2.083   5.504
  929SOL    HW2 7087   1.583   2.112   5.592
  930SOL     OW 7088   3.563   2.787   6.361
  930SOL    HW1 7089   3.611   2.863   6.403
  930SOL    HW2 7090   3.467   2.811   6.347
  931SOL     OW 7091   3.491   5.561   1.239
  931SOL    HW1 7092   3.418   0.017   1.301
  931SOL    HW2 7093   3.455   5.556   1.145
  932SOL     OW 7094   1.433   0.905   1.146
  932SOL    HW1 7095   1.510   0.888   1.209
  932SOL    HW2 7096   1.347   0.891   1.195
  933SOL     OW 7097   1.555   1.044   0.940
  933SOL    HW1 7098   1.570   1.136   0.974
  933SOL    HW2 7099   1.513   0.988   1.012
  934SOL     OW 7100   5.378   2.765   5.850
  934SOL    HW1 7101   5.378   2.858   5.887
  934SOL    HW2 7102   5.435   2.762   5.768
  935SOL     OW 7103   5.501   2.858   0.530
  935SOL    HW1 7104   5.576   2.873   0.466
  935SOL    HW2 7105   5.528   2.789   0.597
  936SOL     OW 7106   5.482   1.333   1.936
  936SOL    HW1 7107   5.535   1.248   1.939
  936SOL    HW2 7108   5.533   1.405   1.984
  937SOL     OW 7109   1.552   1.441   5.705
  937SOL    HW1 7110   1.509   1.517   5.753
  937SOL    HW2 7111   1.498   1.358   5.718
  938SOL     OW 7112   5.089   4.367   1.475
  938SOL    HW1 7113   5.157   4.298   1.502
  938SOL    HW2 7114   5.017   4.372   1.544
  939SOL     OW 7115   5.343   0.013   1.945
  939SOL    HW1 7116   5.440   5.573   1.928
  939SOL    HW2 7117   5.307   5.509   1.997
  940SOL     OW 7118   3.588   2.088   0.003
  940SOL    HW1 7119   3.589   2.188   6.499
  940SOL    HW2 7120   3.511   2.054   6.448
  941SOL     OW 7121   1.640   1.296   6.182
  941SOL    HW1 7122   1.638   1.381   6.130
  941SOL    HW2 7123   1.561   1.293   6.244
  942SOL     OW 7124   0.318   2.305   5.683
  942SOL    HW1 7125   0.220   2.289   5.692
  942SOL    HW2 7126   0.348   2.366   5.757
  943SOL     OW 7127   4.999   0.034   1.589
  943SOL    HW1 7128   4.975   5.516   1.560
  943SOL    HW2 7129   5.039   0.031   1.681
  944SOL     OW 7130   1.074   2.908   1.552
  944SOL    HW1 7131   1.018   2.979   1.596
  944SOL    HW2 7132   1.015   2.833   1.523
  945SOL     OW 7133   3.034   4.518   1.214
  945SOL    HW1 7134   3.051   4.507   1.312
  945SOL    HW2 7135   3.106   4.574   1.174
  946SOL     OW 7136   3.968   0.395   1.327
  946SOL    HW1 7137   3.970   0.355   1.235
  946SOL    HW2 7138   4.061   0.394   1.365
  947SOL     OW 7139   4.035   3.794   1.240
  947SOL    HW1 7140   4.070   3.823   1.329
  947SOL    HW2 7141   3.944   3.833   1.225
  948SOL     OW 7142   5.100   3.518   6.142
  948SOL    HW1 7143   5.014   3.549   6.102
  948SOL    HW2 7144   5.113   3.421   6.124
  949SOL     OW 7145   0.483   0.337   5.006
  949SOL    HW1 7146   0.412   0.378   4.949
  949SOL    HW2 7147   0.480   0.237   4.997
  950SOL     OW 7148   1.331   0.953   1.514
  950SOL    HW1 7149   1.285   0.930   1.599
  950SOL    HW2 7150   1.408   1.014   1.533
  951SOL     OW 7151   0.310   5.329   5.164
  951SOL    HW1 7152   0.217   5.357   5.142
  951SOL    HW2 7153   0.369   5.345   5.085
  952SOL     OW 7154   4.617   4.564   6.354
  952SOL    HW1 7155   4.627   4.614   6.440
  952SOL    HW2 7156   4.610   4.630   6.278
  953SOL     OW 7157   3.404   2.775   5.811
  953SOL    HW1 7158   3.500   2.790   5.784
  953SOL    HW2 7159   3.357   2.863   5.815
  954SOL     OW 7160   5.360   5.352   6.277
  954SOL    HW1 7161   5.278   5.408   6.266
  954SOL    HW2 7162   5.345   5.263   6.232
  955SOL     OW 7163   4.229   2.265   5.951
  955SOL    HW1 7164   4.188   2.186   5.997
  955SOL    HW2 7165   4.327   2.247   5.936
  956SOL     OW 7166   3.108   5.042   1.857
  956SOL    HW1 7167   3.013   5.047   1.889
  956SOL    HW2 7168   3.169   5.067   1.933
  957SOL     OW 7169   4.035   3.236   6.455
  957SOL    HW1 7170   3.976   3.227   0.036
  957SOL    HW2 7171   4.122   3.191   6.472
  958SOL     OW 7172   4.950   0.701   5.046
  958SOL    HW1 7173   5.039   0.692   5.000
  958SOL    HW2 7174   4.884   0.741   4.983
  959SOL     OW 7175   4.786   5.133   0.082
  959SOL    HW1 7176   4.744   5.068   0.145
  959SOL    HW2 7177   4.716   5.194   0.045
  960SOL     OW 7178   4.135   4.657   6.158
  960SOL    HW1 7179   4.202   4.649   6.083
  960SOL    HW2 7180   4.062   4.590   6.144
  961SOL     OW 7181   2.532   3.075   5.828
  961SOL    HW1 7182   2.574   2.985   5.816
  961SOL    HW2 7183   2.576   3.122   5.905
  962SOL     OW 7184   2.478   2.146   5.437
  962SOL    HW1 7185   2.563   2.198   5.440
  962SOL    HW2 7186   2.476   2.089   5.356
  963SOL     OW 7187   4.225   2.556   1.224
  963SOL    HW1 7188   4.209   2.642   1.274
  963SOL    HW2 7189   4.176   2.482   1.271
  964SOL     OW 7190   2.708   2.046   0.347
  964SOL    HW1 7191   2.621   2.075   0.388
  964SOL    HW2 7192   2.720   2.092   0.259
  965SOL     OW 7193   0.490   0.253   0.672
  965SOL    HW1 7194   0.473   0.337   0.723
  965SOL    HW2 7195   0.576   0.212   0.704
  966SOL     OW 7196   1.867   3.150   5.505
  966SOL    HW1 7197   1.949   3.096   5.525
  966SOL    HW2 7198   1.829   3.121   5.417
  967SOL     OW 7199   1.506   5.471   6.302
  967SOL    HW1 7200   1.427   5.462   6.240
  967SOL    HW2 7201   1.567   5.393   6.290
  968SOL     OW 7202   5.507   4.633   1.587
  968SOL    HW1 7203   5.587   4.691   1.573
  968SOL    HW2 7204   5.524   4.543   1.548
  969SOL     OW 7205   1.137   4.026   0.935
  969SOL    HW1 7206   1.190   4.108   0.954
  969SOL    HW2 7207   1.177   3.978   0.857
  970SOL     OW 7208   3.397   4.846   5.009
  970SOL    HW1 7209   3.486   4.839   5.054
  970SOL    HW2 7210   3.385   4.938   4.971
  971SOL     OW 7211   4.844   3.066   6.206
  971SOL    HW1 7212   4.853   3.113   6.117
  971SOL    HW2 7213   4.783   2.988   6.196
  972SOL     OW 7214   3.697   3.128   5.110
  972SOL    HW1 7215   3.772   3.107   5.048
  972SOL    HW2 7216   3.673   3.225   5.102
  973SOL     OW 7217   5.027   2.112   0.203
  973SOL    HW1 7218   4.957   2.131   0.134
  973SOL    HW2 7219   5.004   2.028   0.251
  974SOL     OW 7220   0.302   3.952   1.521
  974SOL    HW1 7221   0.254   3.868   1.495
  974SOL    HW2 7222   0.264   3.988   1.606
  975SOL     OW 7223   2.396   1.468   5.850
  975SOL    HW1 7224   2.341   1.525   5.912
  975SOL    HW2 7225   2.337   1.421   5.785
  976SOL     OW 7226   0.722   2.655   2.041
  976SOL    HW1 7227   0.663   2.588   1.994
  976SOL    HW2 7228   0.734   2.627   2.136
  977SOL     OW 7229   5.312   2.551   1.047
  977SOL    HW1 7230   5.304   2.622   0.977
  977SOL    HW2 7231   5.403   2.553   1.087
  978SOL     OW 7232   1.381   1.636   0.387
  978SOL    HW1 7233   1.344   1.553   0.430
  978SOL    HW2 7234   1.321   1.713   0.407
  979SOL     OW 7235   1.858   5.404   0.488
  979SOL    HW1 7236   1.952   5.427   0.466
  979SOL    HW2 7237   1.854   5.315   0.533
  980SOL     OW 7238   0.266   0.623   5.503
  980SOL    HW1 7239   0.187   0.571   5.470
  980SOL    HW2 7240   0.255   0.719   5.478
  981SOL     OW 7241   5.234   2.505   2.255
  981SOL    HW1 7242   5.269   2.594   2.284
  981SOL    HW2 7243   5.136   2.499   2.275
  982SOL     OW 7244   4.641   5.089   0.978
  982SOL    HW1 7245   4.590   5.064   0.896
  982SOL    HW2 7246   4.637   5.188   0.991
  983SOL     OW 7247   1.053   3.543   5.453
  983SOL    HW1 7248   1.100   3.605   5.391
  983SOL    HW2 7249   0.965   3.582   5.480
  984SOL     OW 7250   0.581   1.938   1.265
  984SOL    HW1 7251   0.626   1.949   1.353
  984SOL    HW2 7252   0.637   1.882   1.204
  985SOL     OW 7253   1.579   1.524   6.043
  985SOL    HW1 7254   1.536   1.571   5.967
  985SOL    HW2 7255   1.596   1.588   6.118
  986SOL     OW 7256   1.543   1.253   4.702
  986SOL    HW1 7257   1.601   1.173   4.689
  986SOL    HW2 7258   1.447   1.227   4.697
  987SOL     OW 7259   0.158   0.410   0.857
  987SOL    HW1 7260   0.148   0.314   0.885
  987SOL    HW2 7261   0.255   0.431   0.844
  988SOL     OW 7262   4.422   2.653   1.471
  988SOL    HW1 7263   4.482   2.651   1.391
  988SOL    HW2 7264   4.425   2.565   1.518
  989SOL     OW 7265   1.440   0.463   5.769
  989SOL    HW1 7266   1.513   0.395   5.775
  989SOL    HW2 7267   1.431   0.510   5.857
  990SOL     OW 7268   2.489   0.368   1.077
  990SOL    HW1 7269   2.406   0.423   1.085
  990SOL    HW2 7270   2.563   0.411   1.129
  991SOL     OW 7271   5.539   2.698   0.756
  991SOL    HW1 7272   5.592   2.736   0.833
  991SOL    HW2 7273   5.441   2.703   0.778
  992SOL     OW 7274   3.873   1.291   6.418
  992SOL    HW1 7275   3.880   1.195   6.447
  992SOL    HW2 7276   3.923   1.303   6.332
  993SOL     OW 7277   4.714   1.860   0.400
  993SOL    HW1 7278   4.705   1.957   0.423
  993SOL    HW2 7279   4.631   1.811   0.427
  994SOL     OW 7280   2.317   3.879   5.670
  994SOL    HW1 7281   2.226   3.918   5.665
  994SOL    HW2 7282   2.385   3.948   5.646
  995SOL     OW 7283   0.401   0.381   6.125
  995SOL    HW1 7284   0.318   0.377   6.181
  995SOL    HW2 7285   0.474   0.426   6.177
  996SOL     OW 7286   4.681   4.043   5.627
  996SOL    HW1 7287   4.664   3.947   5.605
  996SOL    HW2 7288   4.608   4.100   5.591
  997SOL     OW 7289   3.692   1.220   5.708
  997SOL    HW1 7290   3.688   1.315   5.677
  997SOL    HW2 7291   3.766   1.211   5.776
  998SOL     OW 7292   0.323   0.413   5.869
  998SOL    HW1 7293   0.243   0.474   5.868
  998SOL    HW2 7294   0.357   0.404   5.962
  999SOL     OW 7295   3.653   3.009   0.002
  999SOL    HW1 7296   3.661   3.078   6.429
  999SOL    HW2 7297   3.745   2.977   0.027
 1000SOL     OW 7298   3.895   2.801   5.114
 1000SOL    HW1 7299   3.916   2.777   5.019
 1000SOL    HW2 7300   3.802   2.837   5.120
 1001SOL     OW 7301   2.322   0.946   5.499
 1001SOL    HW1 7302   2.384   0.882   5.544
 1001SOL    HW2 7303   2.282   0.904   5.418
 1002SOL     OW 7304   1.817   0.249   0.616
 1002SOL    HW1 7305   1.784   0.228   0.524
 1002SOL    HW2 7306   1.911   0.281   0.612
 1003SOL     OW 7307   0.893   3.068   1.700
 1003SOL    HW1 7308   0.813   3.030   1.653
 1003SOL    HW2 7309   0.872   3.077   1.797
 1004SOL     OW 7310   0.710   3.841   6.462
 1004SOL    HW1 7311   0.714   3.933   6.421
 1004SOL    HW2 7312   0.716   3.849   0.063
 1005SOL     OW 7313   3.891   5.434   0.168
 1005SOL    HW1 7314   3.813   5.405   0.223
 1005SOL    HW2 7315   3.922   5.358   0.111
 1006SOL     OW 7316   4.209   1.104   2.620
 1006SOL    HW1 7317   4.296   1.098   2.572
 1006SOL    HW2 7318   4.196   1.023   2.677
 1007SOL     OW 7319   0.576   3.502   0.230
 1007SOL    HW1 7320   0.523   3.585   0.216
 1007SOL    HW2 7321   0.515   3.424   0.242
 1008SOL     OW 7322   1.295   4.372   1.432
 1008SOL    HW1 7323   1.206   4.407   1.403
 1008SOL    HW2 7324   1.283   4.293   1.491
 1009SOL     OW 7325   4.349   0.720   0.572
 1009SOL    HW1 7326   4.273   0.660   0.596
 1009SOL    HW2 7327   4.435   0.678   0.601
 1010SOL     OW 7328   3.830   1.116   1.449
 1010SOL    HW1 7329   3.926   1.087   1.450
 1010SOL    HW2 7330   3.797   1.126   1.543
 1011SOL     OW 7331   5.638   0.107   0.066
 1011SOL    HW1 7332   5.595   0.046   6.499
 1011SOL    HW2 7333   5.592   0.196   0.065
 1012SOL     OW 7334   4.337   3.029   4.881
 1012SOL    HW1 7335   4.419   3.051   4.934
 1012SOL    HW2 7336   4.348   2.939   4.839
 1013SOL     OW 7337   5.211   5.319   1.795
 1013SOL    HW1 7338   5.218   5.330   1.894
 1013SOL    HW2 7339   5.294   5.355   1.752
 1014SOL     OW 7340   0.581   4.577   1.203
 1014SOL    HW1 7341   0.645   4.564   1.279
 1014SOL    HW2 7342   0.515   4.502   1.201
 1015SOL     OW 7343   0.377   2.355   0.295
 1015SOL    HW1 7344   0.388   2.370   0.196
 1015SOL    HW2 7345   0.280   2.361   0.318
 1016SOL     OW 7346   3.294   5.410   0.223
 1016SOL    HW1 7347   3.243   5.435   0.306
 1016SOL    HW2 7348   3.378   5.464   0.218
 1017SOL     OW 7349   2.276   1.262   1.308
 1017SOL    HW1 7350   2.275   1.343   1.367
 1017SOL    HW2 7351   2.369   1.248   1.272
 1018SOL     OW 7352   3.950   5.029   1.150
 1018SOL    HW1 7353   3.961   5.065   1.058
 1018SOL    HW2 7354   4.012   5.078   1.212
 1019SOL     OW 7355   2.964   4.613   5.785
 1019SOL    HW1 7356   3.053   4.631   5.744
 1019SOL    HW2 7357   2.909   4.697   5.786
 1020SOL     OW 7358   4.859   3.923   0.166
 1020SOL    HW1 7359   4.957   3.903   0.158
 1020SOL    HW2 7360   4.833   3.987   0.094
 1021SOL     OW 7361   2.214   2.020   0.414
 1021SOL    HW1 7362   2.168   1.972   0.339
 1021SOL    HW2 7363   2.154   2.092   0.449
 1022SOL     OW 7364   4.006   4.619   0.212
 1022SOL    HW1 7365   3.930   4.604   0.275
 1022SOL    HW2 7366   4.063   4.694   0.246
 1023SOL     OW 7367   0.479   1.714   6.438
 1023SOL    HW1 7368   0.474   1.794   6.377
 1023SOL    HW2 7369   0.458   1.631   6.386
 1024SOL     OW 7370   0.262   3.600   1.697
 1024SOL    HW1 7371   0.328   3.655   1.748
 1024SOL    HW2 7372   0.235   3.649   1.614
 1025SOL     OW 7373   4.094   3.804   0.014
 1025SOL    HW1 7374   4.076   3.715   0.057
 1025SOL    HW2 7375   4.028   3.819   6.439
 1026SOL     OW 7376   3.960   2.425   0.002
 1026SOL    HW1 7377   3.899   2.459   0.074
 1026SOL    HW2 7378   4.049   2.404   0.041
 1027SOL     OW 7379   4.747   1.411   6.338
 1027SOL    HW1 7380   4.845   1.414   6.355
 1027SOL    HW2 7381   4.706   1.340   6.396
 1028SOL     OW 7382   3.388   3.896   6.354
 1028SOL    HW1 7383   3.306   3.847   6.325
 1028SOL    HW2 7384   3.386   3.908   6.453
 1029SOL     OW 7385   2.880   1.553   0.464
 1029SOL    HW1 7386   2.828   1.476   0.425
 1029SOL    HW2 7387   2.842   1.577   0.553
 1030SOL     OW 7388   2.856   0.721   1.063
 1030SOL    HW1 7389   2.892   0.628   1.054
 1030SOL    HW2 7390   2.841   0.741   1.159
 1031SOL     OW 7391   0.998   1.641   0.329
 1031SOL    HW1 7392   0.989   1.562   0.390
 1031SOL    HW2 7393   0.912   1.692   0.328
 1032SOL     OW 7394   4.908   4.393   1.675
 1032SOL    HW1 7395   4.894   4.325   1.747
 1032SOL    HW2 7396   4.851   4.473   1.694
 1033SOL     OW 7397   5.010   2.808   5.332
 1033SOL    HW1 7398   5.096   2.812   5.383
 1033SOL    HW2 7399   5.020   2.858   5.246
 1034SOL     OW 7400   4.989   2.219   5.411
 1034SOL    HW1 7401   5.019   2.313   5.396
 1034SOL    HW2 7402   4.941   2.186   5.330
 1035SOL     OW 7403   1.867   4.171   6.007
 1035SOL    HW1 7404   1.894   4.105   5.938
 1035SOL    HW2 7405   1.767   4.171   6.017
 1036SOL     OW 7406   1.900   2.922   0.193
 1036SOL    HW1 7407   1.850   2.965   0.118
 1036SOL    HW2 7408   1.888   2.975   0.277
 1037SOL     OW 7409   5.081   3.191   5.254
 1037SOL    HW1 7410   5.003   3.212   5.312
 1037SOL    HW2 7411   5.061   3.109   5.199
 1038SOL     OW 7412   2.508   2.736   1.194
 1038SOL    HW1 7413   2.493   2.692   1.283
 1038SOL    HW2 7414   2.448   2.695   1.126
 1039SOL     OW 7415   5.625   2.311   6.299
 1039SOL    HW1 7416   5.610   2.235   6.236
 1039SOL    HW2 7417   0.035   2.281   6.372
 1040SOL     OW 7418   0.424   4.336   1.185
 1040SOL    HW1 7419   0.404   4.328   1.087
 1040SOL    HW2 7420   0.345   4.308   1.238
 1041SOL     OW 7421   0.676   3.547   0.994
 1041SOL    HW1 7422   0.582   3.556   0.963
 1041SOL    HW2 7423   0.721   3.637   0.989
 1042SOL     OW 7424   3.563   5.134   1.342
 1042SOL    HW1 7425   3.606   5.085   1.266
 1042SOL    HW2 7426   3.536   5.068   1.412
 1043SOL     OW 7427   4.325   3.504   1.209
 1043SOL    HW1 7428   4.366   3.422   1.168
 1043SOL    HW2 7429   4.226   3.503   1.195
 1044SOL     OW 7430   4.121   4.175   5.740
 1044SOL    HW1 7431   4.021   4.176   5.752
 1044SOL    HW2 7432   4.146   4.239   5.668
 1045SOL     OW 7433   1.133   5.303   0.044
 1045SOL    HW1 7434   1.134   5.345   0.135
 1045SOL    HW2 7435   1.044   5.262   0.027
 1046SOL     OW 7436   1.755   3.276   1.069
 1046SOL    HW1 7437   1.683   3.342   1.047
 1046SOL    HW2 7438   1.718   3.205   1.129
 1047SOL     OW 7439   0.065   4.797   1.543
 1047SOL    HW1 7440   0.121   4.777   1.463
 1047SOL    HW2 7441   0.038   4.894   1.542
 1048SOL     OW 7442   3.594   0.729   1.469
 1048SOL    HW1 7443   3.678   0.675   1.467
 1048SOL    HW2 7444   3.521   0.680   1.423
 1049SOL     OW 7445   1.933   0.311   5.957
 1049SOL    HW1 7446   1.993   0.275   6.028
 1049SOL    HW2 7447   1.906   0.238   5.895
 1050SOL     OW 7448   0.907   4.755   5.772
 1050SOL    HW1 7449   0.939   4.673   5.724
 1050SOL    HW2 7450   0.953   4.836   5.735
 1051SOL     OW 7451   5.271   4.782   0.956
 1051SOL    HW1 7452   5.220   4.827   1.029
 1051SOL    HW2 7453   5.329   4.849   0.910
 1052SOL     OW 7454   4.639   0.867   0.604
 1052SOL    HW1 7455   4.726   0.898   0.644
 1052SOL    HW2 7456   4.631   0.768   0.618
 1053SOL     OW 7457   1.352   4.181   0.697
 1053SOL    HW1 7458   1.329   4.084   0.684
 1053SOL    HW2 7459   1.322   4.210   0.788
 1054SOL     OW 7460   1.372   1.635   6.370
 1054SOL    HW1 7461   1.333   1.566   6.309
 1054SOL    HW2 7462   1.374   1.599   6.463
 1055SOL     OW 7463   1.660   4.485   0.968
 1055SOL    HW1 7464   1.751   4.515   0.938
 1055SOL    HW2 7465   1.631   4.407   0.913
 1056SOL     OW 7466   3.259   2.598   1.446
 1056SOL    HW1 7467   3.234   2.504   1.420
 1056SOL    HW2 7468   3.340   2.596   1.504
 1057SOL     OW 7469   4.690   0.936   4.634
 1057SOL    HW1 7470   4.718   1.032   4.635
 1057SOL    HW2 7471   4.732   0.889   4.557
 1058SOL     OW 7472   5.402   4.388   6.344
 1058SOL    HW1 7473   5.348   4.470   6.363
 1058SOL    HW2 7474   5.356   4.334   6.273
 1059SOL     OW 7475   1.988   2.385   1.238
 1059SOL    HW1 7476   1.965   2.358   1.331
 1059SOL    HW2 7477   1.938   2.469   1.214
 1060SOL     OW 7478   2.833   3.843   0.424
 1060SOL    HW1 7479   2.909   3.857   0.360
 1060SOL    HW2 7480   2.747   3.864   0.378
 1061SOL     OW 7481   0.386   3.303   0.275
 1061SOL    HW1 7482   0.417   3.298   0.370
 1061SOL    HW2 7483   0.339   3.219   0.250
 1062SOL     OW 7484   3.625   4.348   5.903
 1062SOL    HW1 7485   3.533   4.318   5.926
 1062SOL    HW2 7486   3.621   4.434   5.853
 1063SOL     OW 7487   3.892   0.661   0.657
 1063SOL    HW1 7488   3.881   0.721   0.736
 1063SOL    HW2 7489   3.803   0.649   0.611
 1064SOL     OW 7490   2.943   3.754   5.519
 1064SOL    HW1 7491   2.846   3.729   5.528
 1064SOL    HW2 7492   2.971   3.746   5.424
 1065SOL     OW 7493   2.521   2.636   5.440
 1065SOL    HW1 7494   2.540   2.728   5.474
 1065SOL    HW2 7495   2.587   2.614   5.367
 1066SOL     OW 7496   1.653   3.418   5.768
 1066SOL    HW1 7497   1.649   3.321   5.742
 1066SOL    HW2 7498   1.567   3.444   5.812
 1067SOL     OW 7499   0.381   2.390   6.159
 1067SOL    HW1 7500   0.477   2.385   6.183
 1067SOL    HW2 7501   0.334   2.453   6.221
 1068SOL     OW 7502   3.674   0.410   0.690
 1068SOL    HW1 7503   3.644   0.489   0.636
 1068SOL    HW2 7504   3.610   0.335   0.678
 1069SOL     OW 7505   2.302   4.362   6.396
 1069SOL    HW1 7506   2.335   4.412   6.476
 1069SOL    HW2 7507   2.252   4.425   6.337
 1070SOL     OW 7508   2.703   4.424   6.237
 1070SOL    HW1 7509   2.800   4.402   6.224
 1070SOL    HW2 7510   2.671   4.479   6.160
 1071SOL     OW 7511   1.771   1.351   1.362
 1071SOL    HW1 7512   1.855   1.375   1.410
 1071SOL    HW2 7513   1.701   1.420   1.380
 1072SOL     OW 7514   0.548   1.354   5.560
 1072SOL    HW1 7515   0.507   1.270   5.595
 1072SOL    HW2 7516   0.478   1.407   5.511
 1073SOL     OW 7517   5.195   1.493   0.538
 1073SOL    HW1 7518   5.195   1.593   0.537
 1073SOL    HW2 7519   5.137   1.459   0.464
 1074SOL     OW 7520   5.337   0.433   0.200
 1074SOL    HW1 7521   5.273   0.449   0.125
 1074SOL    HW2 7522   5.427   0.410   0.162
 1075SOL     OW 7523   4.211   1.730   2.463
 1075SOL    HW1 7524   4.113   1.720   2.443
 1075SOL    HW2 7525   4.232   1.680   2.548
 1076SOL     OW 7526   4.975   4.671   0.410
 1076SOL    HW1 7527   4.884   4.711   0.407
 1076SOL    HW2 7528   5.043   4.739   0.385
 1077SOL     OW 7529   0.995   4.086   1.558
 1077SOL    HW1 7530   0.907   4.056   1.522
 1077SOL    HW2 7531   0.981   4.137   1.643
 1078SOL     OW 7532   2.575   4.733   0.464
 1078SOL    HW1 7533   2.572   4.831   0.484
 1078SOL    HW2 7534   2.487   4.692   0.487
 1079SOL     OW 7535   4.141   2.378   5.071
 1079SOL    HW1 7536   4.144   2.462   5.017
 1079SOL    HW2 7537   4.173   2.302   5.014
 1080SOL     OW 7538   4.242   0.428   6.213
 1080SOL    HW1 7539   4.304   0.472   6.149
 1080SOL    HW2 7540   4.209   0.496   6.279
 1081SOL     OW 7541   4.497   0.416   6.452
 1081SOL    HW1 7542   4.419   0.363   6.419
 1081SOL    HW2 7543   4.580   0.387   6.403
 1082SOL     OW 7544   3.666   4.016   1.526
 1082SOL    HW1 7545   3.629   3.955   1.455
 1082SOL    HW2 7546   3.598   4.028   1.598
 1083SOL     OW 7547   5.056   0.973   6.162
 1083SOL    HW1 7548   5.038   1.044   6.230
 1083SOL    HW2 7549   4.999   0.988   6.081
 1084SOL     OW 7550   4.460   4.970   6.245
 1084SOL    HW1 7551   4.528   5.042   6.254
 1084SOL    HW2 7552   4.370   5.011   6.228
 1085SOL     OW 7553   1.874   0.991   5.932
 1085SOL    HW1 7554   1.924   0.992   6.019
 1085SOL    HW2 7555   1.838   0.899   5.915
 1086SOL     OW 7556   1.907   1.940   5.976
 1086SOL    HW1 7557   1.906   1.849   5.934
 1086SOL    HW2 7558   1.985   1.948   6.037
 1087SOL     OW 7559   0.177   4.811   0.702
 1087SOL    HW1 7560   0.095   4.781   0.751
 1087SOL    HW2 7561   0.250   4.829   0.768
 1088SOL     OW 7562   3.288   1.522   0.937
 1088SOL    HW1 7563   3.230   1.441   0.932
 1088SOL    HW2 7564   3.250   1.594   0.879
 1089SOL     OW 7565   4.309   4.352   5.873
 1089SOL    HW1 7566   4.403   4.318   5.864
 1089SOL    HW2 7567   4.246   4.286   5.832
 1090SOL     OW 7568   5.586   1.450   5.814
 1090SOL    HW1 7569   5.514   1.466   5.746
 1090SOL    HW2 7570   5.616   1.537   5.852
 1091SOL     OW 7571   2.542   1.282   1.232
 1091SOL    HW1 7572   2.576   1.222   1.304
 1091SOL    HW2 7573   2.618   1.331   1.191
 1092SOL     OW 7574   4.560   0.324   2.108
 1092SOL    HW1 7575   4.537   0.378   2.189
 1092SOL    HW2 7576   4.564   0.227   2.132
 1093SOL     OW 7577   4.293   1.994   2.087
 1093SOL    HW1 7578   4.329   2.052   2.160
 1093SOL    HW2 7579   4.283   1.900   2.121
 1094SOL     OW 7580   0.913   2.056   1.728
 1094SOL    HW1 7581   0.983   2.116   1.767
 1094SOL    HW2 7582   0.934   1.961   1.750
 1095SOL     OW 7583   2.351   3.394   5.774
 1095SOL    HW1 7584   2.320   3.300   5.787
 1095SOL    HW2 7585   2.380   3.431   5.863
 1096SOL     OW 7586   4.741   2.485   6.009
 1096SOL    HW1 7587   4.679   2.464   5.933
 1096SOL    HW2 7588   4.688   2.521   6.086
 1097SOL     OW 7589   0.452   0.515   0.314
 1097SOL    HW1 7590   0.424   0.585   0.248
 1097SOL    HW2 7591   0.446   0.425   0.271
 1098SOL     OW 7592   2.684   2.158   4.767
 1098SOL    HW1 7593   2.594   2.191   4.739
 1098SOL    HW2 7594   2.698   2.065   4.732
 1099SOL     OW 7595   3.399   2.953   6.075
 1099SOL    HW1 7596   3.314   2.913   6.110
 1099SOL    HW2 7597   3.382   3.048   6.048
 1100SOL     OW 7598   2.742   2.186   0.113
 1100SOL    HW1 7599   2.711   2.281   0.117
 1100SOL    HW2 7600   2.839   2.184   0.088
 1101SOL     OW 7601   5.142   5.239   1.545
 1101SOL    HW1 7602   5.158   5.271   1.639
 1101SOL    HW2 7603   5.057   5.280   1.511
 1102SOL     OW 7604   2.357   4.920   5.243
 1102SOL    HW1 7605   2.266   4.934   5.203
 1102SOL    HW2 7606   2.419   4.886   5.173
 1103SOL     OW 7607   5.320   4.757   5.223
 1103SOL    HW1 7608   5.343   4.680   5.164
 1103SOL    HW2 7609   5.345   4.843   5.178
 1104SOL     OW 7610   4.417   2.467   5.596
 1104SOL    HW1 7611   4.452   2.495   5.506
 1104SOL    HW2 7612   4.350   2.534   5.627
 1105SOL     OW 7613   0.749   5.103   1.250
 1105SOL    HW1 7614   0.757   5.182   1.312
 1105SOL    HW2 7615   0.724   5.022   1.303
 1106SOL     OW 7616   4.872   1.835   6.474
 1106SOL    HW1 7617   4.904   1.767   6.408
 1106SOL    HW2 7618   4.924   1.920   6.461
 1107SOL     OW 7619   4.012   4.484   5.698
 1107SOL    HW1 7620   4.083   4.440   5.643
 1107SOL    HW2 7621   3.927   4.487   5.646
 1108SOL     OW 7622   2.595   0.211   0.874
 1108SOL    HW1 7623   2.557   0.265   0.949
 1108SOL    HW2 7624   2.634   0.273   0.806
 1109SOL     OW 7625   0.415   2.951   5.921
 1109SOL    HW1 7626   0.352   3.017   5.962
 1109SOL    HW2 7627   0.478   2.917   5.990
 1110SOL     OW 7628   0.509   0.923   6.097
 1110SOL    HW1 7629   0.468   0.937   6.007
 1110SOL    HW2 7630   0.591   0.980   6.105
 1111SOL     OW 7631   4.923   1.226   0.638
 1111SOL    HW1 7632   4.863   1.203   0.562
 1111SOL    HW2 7633   5.002   1.277   0.604
 1112SOL     OW 7634   2.612   1.099   1.419
 1112SOL    HW1 7635   2.561   1.072   1.500
 1112SOL    HW2 7636   2.601   1.029   1.348
 1113SOL     OW 7637   5.333   0.292   1.468
 1113SOL    HW1 7638   5.431   0.280   1.483
 1113SOL    HW2 7639   5.316   0.385   1.435
 1114SOL     OW 7640   1.461   5.232   1.210
 1114SOL    HW1 7641   1.523   5.264   1.282
 1114SOL    HW2 7642   1.378   5.194   1.251
 1115SOL     OW 7643   4.331   4.915   1.308
 1115SOL    HW1 7644   4.419   4.906   1.259
 1115SOL    HW2 7645   4.340   4.878   1.400
 1116SOL     OW 7646   0.610   0.515   6.255
 1116SOL    HW1 7647   0.671   0.436   6.244
 1116SOL    HW2 7648   0.621   0.577   6.177
 1117SOL     OW 7649   0.636   3.163   0.960
 1117SOL    HW1 7650   0.723   3.156   0.913
 1117SOL    HW2 7651   0.647   3.219   1.043
 1118SOL     OW 7652   4.604   1.643   6.304
 1118SOL    HW1 7653   4.656   1.563   6.332
 1118SOL    HW2 7654   4.523   1.614   6.253
 1119SOL     OW 7655   1.215   2.813   4.469
 1119SOL    HW1 7656   1.312   2.794   4.458
 1119SOL    HW2 7657   1.197   2.909   4.449
 1120SOL     OW 7658   2.054   5.380   1.396
 1120SOL    HW1 7659   2.010   5.431   1.470
 1120SOL    HW2 7660   2.115   5.440   1.345
 1121SOL     OW 7661   0.655   2.607   4.561
 1121SOL    HW1 7662   0.651   2.704   4.534
 1121SOL    HW2 7663   0.743   2.569   4.534
 1122SOL     OW 7664   0.242   0.059   0.139
 1122SOL    HW1 7665   0.147   0.081   0.116
 1122SOL    HW2 7666   0.271   5.553   0.086
 1123SOL     OW 7667   0.759   1.022   5.748
 1123SOL    HW1 7668   0.795   1.045   5.838
 1123SOL    HW2 7669   0.743   1.106   5.696
 1124SOL     OW 7670   0.947   2.153   0.127
 1124SOL    HW1 7671   0.890   2.087   0.079
 1124SOL    HW2 7672   1.024   2.180   0.069
 1125SOL     OW 7673   4.735   3.063   5.799
 1125SOL    HW1 7674   4.671   3.008   5.852
 1125SOL    HW2 7675   4.791   3.119   5.860
 1126SOL     OW 7676   2.466   1.946   6.093
 1126SOL    HW1 7677   2.478   2.042   6.065
 1126SOL    HW2 7678   2.428   1.942   6.185
 1127SOL     OW 7679   1.983   1.479   6.012
 1127SOL    HW1 7680   1.919   1.467   5.936
 1127SOL    HW2 7681   2.014   1.390   6.044
 1128SOL     OW 7682   5.201   0.952   0.280
 1128SOL    HW1 7683   5.174   0.879   0.217
 1128SOL    HW2 7684   5.152   0.942   0.366
 1129SOL     OW 7685   3.631   0.421   5.312
 1129SOL    HW1 7686   3.729   0.417   5.290
 1129SOL    HW2 7687   3.583   0.474   5.242
 1130SOL     OW 7688   4.608   5.331   5.743
 1130SOL    HW1 7689   4.698   5.374   5.736
 1130SOL    HW2 7690   4.547   5.370   5.674
 1131SOL     OW 7691   2.460   3.671   4.905
 1131SOL    HW1 7692   2.374   3.709   4.871
 1131SOL    HW2 7693   2.457   3.571   4.903
 1132SOL     OW 7694   4.555   2.040   6.139
 1132SOL    HW1 7695   4.542   2.103   6.062
 1132SOL    HW2 7696   4.646   2.054   6.178
 1133SOL     OW 7697   4.559   4.626   5.511
 1133SOL    HW1 7698   4.591   4.694   5.445
 1133SOL    HW2 7699   4.490   4.568   5.468
 1134SOL     OW 7700   1.620   5.327   1.410
 1134SOL    HW1 7701   1.703   5.317   1.356
 1134SOL    HW2 7702   1.634   5.288   1.501
 1135SOL     OW 7703   4.172   0.134   1.071
 1135SOL    HW1 7704   4.096   0.199   1.076
 1135SOL    HW2 7705   4.245   0.164   1.133
 1136SOL     OW 7706   1.199   2.757   5.219
 1136SOL    HW1 7707   1.140   2.728   5.143
 1136SOL    HW2 7708   1.233   2.677   5.267
 1137SOL     OW 7709   5.072   3.924   1.449
 1137SOL    HW1 7710   5.170   3.904   1.449
 1137SOL    HW2 7711   5.047   3.968   1.535
 1138SOL     OW 7712   1.237   1.456   6.212
 1138SOL    HW1 7713   1.202   1.395   6.283
 1138SOL    HW2 7714   1.162   1.506   6.170
 1139SOL     OW 7715   4.926   1.894   5.925
 1139SOL    HW1 7716   4.875   1.956   5.866
 1139SOL    HW2 7717   4.867   1.863   6.000
 1140SOL     OW 7718   4.178   1.891   0.630
 1140SOL    HW1 7719   4.269   1.905   0.669
 1140SOL    HW2 7720   4.187   1.864   0.534
 1141SOL     OW 7721   4.030   2.950   0.655
 1141SOL    HW1 7722   4.042   2.857   0.691
 1141SOL    HW2 7723   4.119   2.995   0.650
 1142SOL     OW 7724   2.205   3.712   0.797
 1142SOL    HW1 7725   2.127   3.670   0.844
 1142SOL    HW2 7726   2.282   3.649   0.799
 1143SOL     OW 7727   3.526   4.721   1.374
 1143SOL    HW1 7728   3.437   4.677   1.377
 1143SOL    HW2 7729   3.522   4.808   1.424
 1144SOL     OW 7730   2.854   1.064   5.735
 1144SOL    HW1 7731   2.839   0.986   5.675
 1144SOL    HW2 7732   2.904   1.035   5.816
 1145SOL     OW 7733   0.872   3.165   0.819
 1145SOL    HW1 7734   0.883   3.263   0.834
 1145SOL    HW2 7735   0.884   3.145   0.722
 1146SOL     OW 7736   0.775   0.787   0.752
 1146SOL    HW1 7737   0.867   0.817   0.727
 1146SOL    HW2 7738   0.765   0.690   0.733
 1147SOL     OW 7739   2.209   2.644   1.474
 1147SOL    HW1 7740   2.302   2.616   1.451
 1147SOL    HW2 7741   2.185   2.611   1.565
 1148SOL     OW 7742   5.031   0.759   2.308
 1148SOL    HW1 7743   5.097   0.688   2.283
 1148SOL    HW2 7744   4.965   0.722   2.373
 1149SOL     OW 7745   4.453   5.507   1.135
 1149SOL    HW1 7746   4.377   5.446   1.158
 1149SOL    HW2 7747   4.431   0.026   1.162
 1150SOL     OW 7748   1.135   3.751   6.183
 1150SOL    HW1 7749   1.069   3.824   6.166
 1150SOL    HW2 7750   1.087   3.667   6.206
 1151SOL     OW 7751   4.565   2.524   0.495
 1151SOL    HW1 7752   4.630   2.598   0.480
 1151SOL    HW2 7753   4.589   2.476   0.580
 1152SOL     OW 7754   2.231   1.601   6.029
 1152SOL    HW1 7755   2.139   1.563   6.023
 1152SOL    HW2 7756   2.258   1.608   6.125
 1153SOL     OW 7757   4.672   3.644   1.778
 1153SOL    HW1 7758   4.701   3.561   1.731
 1153SOL    HW2 7759   4.573   3.644   1.787
 1154SOL     OW 7760   0.975   4.524   5.627
 1154SOL    HW1 7761   1.073   4.508   5.617
 1154SOL    HW2 7762   0.928   4.497   5.543
 1155SOL     OW 7763   1.211   2.358   5.783
 1155SOL    HW1 7764   1.284   2.407   5.736
 1155SOL    HW2 7765   1.123   2.402   5.763
 1156SOL     OW 7766   5.374   5.245   0.476
 1156SOL    HW1 7767   5.452   5.283   0.426
 1156SOL    HW2 7768   5.313   5.198   0.413
 1157SOL     OW 7769   2.828   1.352   2.068
 1157SOL    HW1 7770   2.772   1.415   2.121
 1157SOL    HW2 7771   2.809   1.258   2.098
 1158SOL     OW 7772   5.241   2.449   0.435
 1158SOL    HW1 7773   5.232   2.529   0.375
 1158SOL    HW2 7774   5.317   2.393   0.404
 1159SOL     OW 7775   2.869   2.932   0.779
 1159SOL    HW1 7776   2.797   2.895   0.838
 1159SOL    HW2 7777   2.957   2.922   0.824
 1160SOL     OW 7778   1.957   4.426   6.078
 1160SOL    HW1 7779   1.945   4.475   5.991
 1160SOL    HW2 7780   1.938   4.329   6.064
 1161SOL     OW 7781   1.060   2.024   5.346
 1161SOL    HW1 7782   1.008   2.077   5.413
 1161SOL    HW2 7783   1.053   1.926   5.368
 1162SOL     OW 7784   2.627   3.194   6.063
 1162SOL    HW1 7785   2.661   3.262   6.128
 1162SOL    HW2 7786   2.538   3.160   6.093
 1163SOL     OW 7787   5.479   0.642   1.221
 1163SOL    HW1 7788   5.438   0.728   1.190
 1163SOL    HW2 7789   5.568   0.661   1.263
 1164SOL     OW 7790   1.654   2.591   4.578
 1164SOL    HW1 7791   1.699   2.518   4.628
 1164SOL    HW2 7792   1.719   2.665   4.560
 1165SOL     OW 7793   4.801   0.215   1.070
 1165SOL    HW1 7794   4.767   0.203   0.977
 1165SOL    HW2 7795   4.792   0.310   1.097
 1166SOL     OW 7796   2.363   3.526   6.426
 1166SOL    HW1 7797   2.325   3.554   6.338
 1166SOL    HW2 7798   2.300   3.462   6.471
 1167SOL     OW 7799   4.648   3.102   1.372
 1167SOL    HW1 7800   4.584   3.056   1.434
 1167SOL    HW2 7801   4.653   3.199   1.396
 1168SOL     OW 7802   3.113   2.920   0.907
 1168SOL    HW1 7803   3.077   2.924   1.000
 1168SOL    HW2 7804   3.192   2.982   0.899
 1169SOL     OW 7805   1.243   0.853   5.785
 1169SOL    HW1 7806   1.208   0.940   5.751
 1169SOL    HW2 7807   1.326   0.869   5.838
 1170SOL     OW 7808   2.137   1.427   1.103
 1170SOL    HW1 7809   2.126   1.365   1.181
 1170SOL    HW2 7810   2.234   1.440   1.084
 1171SOL     OW 7811   1.322   1.078   0.749
 1171SOL    HW1 7812   1.422   1.077   0.754
 1171SOL    HW2 7813   1.286   1.005   0.806
 1172SOL     OW 7814   5.150   3.119   1.357
 1172SOL    HW1 7815   5.169   3.056   1.282
 1172SOL    HW2 7816   5.061   3.164   1.341
 1173SOL     OW 7817   0.963   1.240   5.837
 1173SOL    HW1 7818   0.954   1.333   5.873
 1173SOL    HW2 7819   0.917   1.234   5.748
 1174SOL     OW 7820   1.579   2.173   6.400
 1174SOL    HW1 7821   1.503   2.124   6.442
 1174SOL    HW2 7822   1.661   2.116   6.405
 1175SOL     OW 7823   0.518   2.128   1.062
 1175SOL    HW1 7824   0.549   2.063   1.131
 1175SOL    HW2 7825   0.433   2.171   1.092
 1176SOL     OW 7826   5.244   1.466   1.528
 1176SOL    HW1 7827   5.316   1.459   1.596
 1176SOL    HW2 7828   5.277   1.518   1.449
 1177SOL     OW 7829   3.173   1.706   0.772
 1177SOL    HW1 7830   3.075   1.724   0.780
 1177SOL    HW2 7831   3.207   1.740   0.684
 1178SOL     OW 7832   3.351   4.484   0.219
 1178SOL    HW1 7833   3.420   4.467   0.148
 1178SOL    HW2 7834   3.396   4.513   0.303
 1179SOL     OW 7835   1.853   5.235   1.290
 1179SOL    HW1 7836   1.854   5.150   1.342
 1179SOL    HW2 7837   1.930   5.292   1.319
 1180SOL     OW 7838   2.227   1.615   1.868
 1180SOL    HW1 7839   2.202   1.603   1.772
 1180SOL    HW2 7840   2.146   1.601   1.926
 1181SOL     OW 7841   0.520   5.308   0.441
 1181SOL    HW1 7842   0.446   5.364   0.404
 1181SOL    HW2 7843   0.483   5.241   0.505
 1182SOL     OW 7844   2.712   0.421   5.457
 1182SOL    HW1 7845   2.798   0.428   5.407
 1182SOL    HW2 7846   2.713   0.486   5.533
 1183SOL     OW 7847   2.568   3.411   5.133
 1183SOL    HW1 7848   2.506   3.425   5.056
 1183SOL    HW2 7849   2.608   3.320   5.127
 1184SOL     OW 7850   3.668   4.321   1.778
 1184SOL    HW1 7851   3.732   4.246   1.769
 1184SOL    HW2 7852   3.626   4.319   1.869
 1185SOL     OW 7853   5.424   0.396   0.636
 1185SOL    HW1 7854   5.390   0.387   0.729
 1185SOL    HW2 7855   5.521   0.420   0.638
 1186SOL     OW 7856   3.469   4.040   1.708
 1186SOL    HW1 7857   3.505   4.012   1.797
 1186SOL    HW2 7858   3.370   4.047   1.713
 1187SOL     OW 7859   4.081   0.016   0.286
 1187SOL    HW1 7860   4.012   5.530   0.247
 1187SOL    HW2 7861   4.098   0.093   0.224
 1188SOL     OW 7862   5.247   3.151   0.719
 1188SOL    HW1 7863   5.342   3.120   0.729
 1188SOL    HW2 7864   5.228   3.166   0.622
 1189SOL     OW 7865   0.035   1.699   5.923
 1189SOL    HW1 7866   0.084   1.709   5.836
 1189SOL    HW2 7867   5.611   1.764   5.926
 1190SOL     OW 7868   0.885   4.129   0.971
 1190SOL    HW1 7869   0.863   4.150   0.875
 1190SOL    HW2 7870   0.975   4.086   0.976
 1191SOL     OW 7871   4.301   1.613   0.944
 1191SOL    HW1 7872   4.270   1.705   0.968
 1191SOL    HW2 7873   4.392   1.617   0.905
 1192SOL     OW 7874   3.302   2.261   0.488
 1192SOL    HW1 7875   3.289   2.186   0.424
 1192SOL    HW2 7876   3.399   2.267   0.513
 1193SOL     OW 7877   0.685   2.129   5.390
 1193SOL    HW1 7878   0.681   2.202   5.322
 1193SOL    HW2 7879   0.768   2.138   5.444
 1194SOL     OW 7880   1.486   1.745   5.481
 1194SOL    HW1 7881   1.422   1.746   5.404
 1194SOL    HW2 7882   1.542   1.662   5.477
 1195SOL     OW 7883   5.371   4.957   1.333
 1195SOL    HW1 7884   5.344   4.881   1.392
 1195SOL    HW2 7885   5.383   5.040   1.387
 1196SOL     OW 7886   2.519   5.464   6.420
 1196SOL    HW1 7887   2.571   5.490   0.003
 1196SOL    HW2 7888   2.421   5.474   6.438
 1197SOL     OW 7889   1.949   2.465   0.208
 1197SOL    HW1 7890   1.900   2.384   0.241
 1197SOL    HW2 7891   2.040   2.467   0.249
 1198SOL     OW 7892   5.435   2.419   0.103
 1198SOL    HW1 7893   5.406   2.353   0.033
 1198SOL    HW2 7894   5.445   2.372   0.191
 1199SOL     OW 7895   4.962   0.182   6.225
 1199SOL    HW1 7896   5.038   0.197   6.289
 1199SOL    HW2 7897   4.887   0.136   6.273
 1200SOL     OW 7898   2.753   1.308   0.420
 1200SOL    HW1 7899   2.815   1.253   0.476
 1200SOL    HW2 7900   2.663   1.314   0.465
 1201SOL     OW 7901   4.860   0.896   1.851
 1201SOL    HW1 7902   4.848   0.992   1.875
 1201SOL    HW2 7903   4.927   0.854   1.912
 1202SOL     OW 7904   1.197   0.373   1.171
 1202SOL    HW1 7905   1.169   0.451   1.226
 1202SOL    HW2 7906   1.116   0.327   1.134
 1203SOL     OW 7907   0.713   5.255   0.262
 1203SOL    HW1 7908   0.647   5.270   0.335
 1203SOL    HW2 7909   0.738   5.158   0.259
 1204SOL     OW 7910   4.645   3.363   1.458
 1204SOL    HW1 7911   4.714   3.385   1.527
 1204SOL    HW2 7912   4.599   3.447   1.429
 1205SOL     OW 7913   3.659   0.614   0.494
 1205SOL    HW1 7914   3.628   0.694   0.443
 1205SOL    HW2 7915   3.648   0.532   0.438
 1206SOL     OW 7916   4.849   0.310   0.237
 1206SOL    HW1 7917   4.904   0.271   0.311
 1206SOL    HW2 7918   4.762   0.344   0.274
 1207SOL     OW 7919   1.558   3.563   2.073
 1207SOL    HW1 7920   1.496   3.579   2.150
 1207SOL    HW2 7921   1.524   3.486   2.019
 1208SOL     OW 7922   3.646   3.910   0.776
 1208SOL    HW1 7923   3.714   3.849   0.815
 1208SOL    HW2 7924   3.572   3.924   0.842
 1209SOL     OW 7925   4.402   1.572   6.134
 1209SOL    HW1 7926   4.355   1.511   6.069
 1209SOL    HW2 7927   4.421   1.659   6.089
 1210SOL     OW 7928   3.955   0.344   6.422
 1210SOL    HW1 7929   3.997   0.320   6.335
 1210SOL    HW2 7930   3.861   0.309   6.425
 1211SOL     OW 7931   3.882   2.006   6.174
 1211SOL    HW1 7932   3.878   1.931   6.240
 1211SOL    HW2 7933   3.866   2.093   6.221
 1212SOL     OW 7934   3.599   1.041   1.865
 1212SOL    HW1 7935   3.641   1.097   1.936
 1212SOL    HW2 7936   3.619   0.944   1.882
 1213SOL     OW 7937   4.462   0.945   4.819
 1213SOL    HW1 7938   4.389   0.883   4.790
 1213SOL    HW2 7939   4.534   0.947   4.749
 1214SOL     OW 7940   0.321   1.877   5.278
 1214SOL    HW1 7941   0.316   1.972   5.250
 1214SOL    HW2 7942   0.316   1.817   5.198
 1215SOL     OW 7943   3.538   2.086   1.576
 1215SOL    HW1 7944   3.581   2.022   1.639
 1215SOL    HW2 7945   3.501   2.164   1.628
 1216SOL     OW 7946   0.108   5.145   1.042
 1216SOL    HW1 7947   0.138   5.226   1.092
 1216SOL    HW2 7948   0.067   5.080   1.106
 1217SOL     OW 7949   2.509   3.485   1.743
 1217SOL    HW1 7950   2.600   3.444   1.748
 1217SOL    HW2 7951   2.442   3.419   1.776
 1218SOL     OW 7952   4.430   2.324   2.078
 1218SOL    HW1 7953   4.351   2.384   2.070
 1218SOL    HW2 7954   4.419   2.264   2.157
 1219SOL     OW 7955   0.424   4.908   1.289
 1219SOL    HW1 7956   0.474   4.888   1.205
 1219SOL    HW2 7957   0.341   4.852   1.293
 1220SOL     OW 7958   1.861   2.031   0.161
 1220SOL    HW1 7959   1.840   2.040   0.064
 1220SOL    HW2 7960   1.944   1.976   0.172
 1221SOL     OW 7961   0.213   0.872   5.411
 1221SOL    HW1 7962   0.191   0.845   5.317
 1221SOL    HW2 7963   0.300   0.922   5.412
 1222SOL     OW 7964   2.459   2.155   0.432
 1222SOL    HW1 7965   2.453   2.213   0.514
 1222SOL    HW2 7966   2.378   2.098   0.425
 1223SOL     OW 7967   0.676   2.956   1.589
 1223SOL    HW1 7968   0.614   3.007   1.529
 1223SOL    HW2 7969   0.650   2.859   1.589
 1224SOL     OW 7970   1.353   3.078   1.786
 1224SOL    HW1 7971   1.329   3.156   1.727
 1224SOL    HW2 7972   1.427   3.105   1.848
 1225SOL     OW 7973   1.301   0.743   0.500
 1225SOL    HW1 7974   1.371   0.739   0.572
 1225SOL    HW2 7975   1.288   0.652   0.461
 1226SOL     OW 7976   2.437   3.625   0.529
 1226SOL    HW1 7977   2.421   3.598   0.624
 1226SOL    HW2 7978   2.352   3.658   0.489
 1227SOL     OW 7979   4.206   2.939   1.012
 1227SOL    HW1 7980   4.252   2.866   0.962
 1227SOL    HW2 7981   4.108   2.919   1.017
 1228SOL     OW 7982   0.092   1.425   5.142
 1228SOL    HW1 7983   0.148   1.442   5.061
 1228SOL    HW2 7984   5.650   1.401   5.113
 1229SOL     OW 7985   5.073   2.607   1.449
 1229SOL    HW1 7986   4.995   2.632   1.392
 1229SOL    HW2 7987   5.147   2.672   1.435
 1230SOL     OW 7988   3.612   5.345   0.589
 1230SOL    HW1 7989   3.604   5.256   0.634
 1230SOL    HW2 7990   3.692   5.393   0.625
 1231SOL     OW 7991   0.581   2.845   6.110
 1231SOL    HW1 7992   0.638   2.894   6.176
 1231SOL    HW2 7993   0.639   2.791   6.049
 1232SOL     OW 7994   4.039   4.456   6.492
 1232SOL    HW1 7995   4.133   4.455   6.457
 1232SOL    HW2 7996   4.031   4.525   0.065
 1233SOL     OW 7997   4.450   1.314   0.438
 1233SOL    HW1 7998   4.356   1.326   0.470
 1233SOL    HW2 7999   4.476   1.218   0.446
 1234SOL     OW 8000   2.816   5.182   1.091
 1234SOL    HW1 8001   2.792   5.272   1.055
 1234SOL    HW2 8002   2.733   5.127   1.100
 1235SOL     OW 8003   5.465   2.049   5.635
 1235SOL    HW1 8004   5.446   2.132   5.688
 1235SOL    HW2 8005   5.521   2.072   5.555
 1236SOL     OW 8006   1.981   1.578   1.974
 1236SOL    HW1 8007   1.934   1.639   2.038
 1236SOL    HW2 8008   1.924   1.498   1.956
 1237SOL     OW 8009   5.344   2.815   5.245
 1237SOL    HW1 8010   5.395   2.731   5.225
 1237SOL    HW2 8011   5.328   2.865   5.160
 1238SOL     OW 8012   4.602   4.970   5.730
 1238SOL    HW1 8013   4.529   5.010   5.674
 1238SOL    HW2 8014   4.690   4.984   5.684
 1239SOL     OW 8015   4.485   3.458   0.816
 1239SOL    HW1 8016   4.503   3.391   0.744
 1239SOL    HW2 8017   4.476   3.411   0.904
 1240SOL     OW 8018   2.348   3.893   6.002
 1240SOL    HW1 8019   2.387   3.897   6.094
 1240SOL    HW2 8020   2.412   3.933   5.937
 1241SOL     OW 8021   3.700   1.472   5.602
 1241SOL    HW1 8022   3.747   1.418   5.533
 1241SOL    HW2 8023   3.712   1.570   5.583
 1242SOL     OW 8024   2.126   2.854   0.642
 1242SOL    HW1 8025   2.184   2.930   0.612
 1242SOL    HW2 8026   2.031   2.885   0.649
 1243SOL     OW 8027   4.917   2.660   0.657
 1243SOL    HW1 8028   4.884   2.674   0.750
 1243SOL    HW2 8029   5.002   2.607   0.660
 1244SOL     OW 8030   3.542   3.478   1.437
 1244SOL    HW1 8031   3.572   3.401   1.494
 1244SOL    HW2 8032   3.527   3.558   1.494
 1245SOL     OW 8033   1.793   3.047   5.884
 1245SOL    HW1 8034   1.737   3.085   5.810
 1245SOL    HW2 8035   1.755   2.960   5.913
 1246SOL     OW 8036   0.045   1.394   0.988
 1246SOL    HW1 8037   0.099   1.377   1.070
 1246SOL    HW2 8038   0.090   1.352   0.909
 1247SOL     OW 8039   2.292   2.405   6.089
 1247SOL    HW1 8040   2.316   2.473   6.020
 1247SOL    HW2 8041   2.270   2.451   6.175
 1248SOL     OW 8042   3.322   2.074   1.397
 1248SOL    HW1 8043   3.320   1.993   1.339
 1248SOL    HW2 8044   3.409   2.077   1.448
 1249SOL     OW 8045   0.445   1.922   1.579
 1249SOL    HW1 8046   0.385   1.913   1.500
 1249SOL    HW2 8047   0.391   1.919   1.663
 1250SOL     OW 8048   1.303   4.501   2.106
 1250SOL    HW1 8049   1.398   4.473   2.091
 1250SOL    HW2 8050   1.242   4.439   2.057
 1251SOL     OW 8051   5.563   4.711   0.394
 1251SOL    HW1 8052   5.566   4.811   0.398
 1251SOL    HW2 8053   5.472   4.679   0.422
 1252SOL     OW 8054   4.082   2.705   0.764
 1252SOL    HW1 8055   4.172   2.713   0.808
 1252SOL    HW2 8056   4.015   2.672   0.830
 1253SOL     OW 8057   4.215   0.421   1.456
 1253SOL    HW1 8058   4.311   0.437   1.478
 1253SOL    HW2 8059   4.166   0.396   1.540
 1254SOL     OW 8060   3.321   5.220   5.394
 1254SOL    HW1 8061   3.331   5.230   5.295
 1254SOL    HW2 8062   3.405   5.249   5.440
 1255SOL     OW 8063   0.111   0.582   5.866
 1255SOL    HW1 8064   0.130   0.672   5.905
 1255SOL    HW2 8065   0.012   0.566   5.864
 1256SOL     OW 8066   0.122   0.409   1.332
 1256SOL    HW1 8067   0.105   0.508   1.335
 1256SOL    HW2 8068   0.193   0.390   1.264
 1257SOL     OW 8069   4.762   5.505   0.799
 1257SOL    HW1 8070   4.862   5.492   0.802
 1257SOL    HW2 8071   4.742   0.029   0.801
 1258SOL     OW 8072   2.039   5.401   5.302
 1258SOL    HW1 8073   2.017   5.494   5.271
 1258SOL    HW2 8074   2.126   5.402   5.351
 1259SOL     OW 8075   0.971   5.100   5.921
 1259SOL    HW1 8076   0.916   5.184   5.924
 1259SOL    HW2 8077   1.022   5.098   5.835
 1260SOL     OW 8078   1.011   1.751   5.391
 1260SOL    HW1 8079   1.070   1.691   5.445
 1260SOL    HW2 8080   1.028   1.738   5.294
 1261SOL     OW 8081   1.824   1.085   1.429
 1261SOL    HW1 8082   1.807   1.079   1.528
 1261SOL    HW2 8083   1.793   1.173   1.395
 1262SOL     OW 8084   2.020   1.123   0.525
 1262SOL    HW1 8085   1.923   1.144   0.530
 1262SOL    HW2 8086   2.073   1.201   0.560
 1263SOL     OW 8087   3.009   1.318   0.584
 1263SOL    HW1 8088   3.047   1.325   0.677
 1263SOL    HW2 8089   2.996   1.410   0.546
 1264SOL     OW 8090   1.907   4.821   5.544
 1264SOL    HW1 8091   1.842   4.806   5.619
 1264SOL    HW2 8092   1.966   4.898   5.566
 1265SOL     OW 8093   1.866   4.250   0.872
 1265SOL    HW1 8094   1.897   4.344   0.884
 1265SOL    HW2 8095   1.767   4.248   0.860
 1266SOL     OW 8096   0.678   0.869   0.505
 1266SOL    HW1 8097   0.681   0.781   0.457
 1266SOL    HW2 8098   0.704   0.856   0.601
 1267SOL     OW 8099   1.589   3.922   5.880
 1267SOL    HW1 8100   1.646   3.888   5.805
 1267SOL    HW2 8101   1.590   3.856   5.954
 1268SOL     OW 8102   3.799   0.585   6.465
 1268SOL    HW1 8103   3.776   0.618   6.373
 1268SOL    HW2 8104   3.876   0.522   6.460
 1269SOL     OW 8105   1.180   4.641   1.144
 1269SOL    HW1 8106   1.172   4.741   1.140
 1269SOL    HW2 8107   1.270   4.614   1.110
 1270SOL     OW 8108   5.270   1.351   5.453
 1270SOL    HW1 8109   5.282   1.368   5.355
 1270SOL    HW2 8110   5.181   1.385   5.483
 1271SOL     OW 8111   4.749   3.567   6.331
 1271SOL    HW1 8112   4.772   3.504   6.405
 1271SOL    HW2 8113   4.687   3.637   6.364
 1272SOL     OW 8114   0.845   5.343   0.599
 1272SOL    HW1 8115   0.785   5.275   0.643
 1272SOL    HW2 8116   0.789   5.412   0.553
 1273SOL     OW 8117   0.805   2.599   5.528
 1273SOL    HW1 8118   0.715   2.564   5.503
 1273SOL    HW2 8119   0.862   2.608   5.447
 1274SOL     OW 8120   4.143   3.118   5.040
 1274SOL    HW1 8121   4.205   3.076   4.974
 1274SOL    HW2 8122   4.173   3.211   5.060
 1275SOL     OW 8123   5.291   3.382   0.868
 1275SOL    HW1 8124   5.389   3.393   0.851
 1275SOL    HW2 8125   5.258   3.299   0.822
 1276SOL     OW 8126   0.264   2.146   6.106
 1276SOL    HW1 8127   0.305   2.237   6.117
 1276SOL    HW2 8128   0.256   2.102   6.196
 1277SOL     OW 8129   0.711   1.984   5.735
 1277SOL    HW1 8130   0.620   1.967   5.774
 1277SOL    HW2 8131   0.735   1.909   5.673
 1278SOL     OW 8132   5.044   4.304   0.646
 1278SOL    HW1 8133   4.989   4.387   0.641
 1278SOL    HW2 8134   4.985   4.224   0.639
 1279SOL     OW 8135   2.375   3.095   6.134
 1279SOL    HW1 8136   2.333   3.127   6.219
 1279SOL    HW2 8137   2.303   3.069   6.069
 1280SOL     OW 8138   5.024   1.839   1.590
 1280SOL    HW1 8139   5.074   1.811   1.508
 1280SOL    HW2 8140   4.926   1.840   1.570
 1281SOL     OW 8141   0.299   2.142   5.228
 1281SOL    HW1 8142   0.341   2.159   5.317
 1281SOL    HW2 8143   0.277   2.229   5.184
 1282SOL     OW 8144   3.541   2.876   5.490
 1282SOL    HW1 8145   3.481   2.955   5.507
 1282SOL    HW2 8146   3.591   2.853   5.574
 1283SOL     OW 8147   1.158   1.099   5.691
 1283SOL    HW1 8148   1.091   1.146   5.748
 1283SOL    HW2 8149   1.128   1.102   5.595
 1284SOL     OW 8150   3.042   3.816   0.621
 1284SOL    HW1 8151   3.119   3.849   0.566
 1284SOL    HW2 8152   2.960   3.813   0.565
 1285SOL     OW 8153   5.630   5.137   0.796
 1285SOL    HW1 8154   0.028   5.146   0.883
 1285SOL    HW2 8155   0.019   5.197   0.728
 1286SOL     OW 8156   0.879   3.266   2.179
 1286SOL    HW1 8157   0.939   3.214   2.239
 1286SOL    HW2 8158   0.792   3.283   2.226
 1287SOL     OW 8159   3.368   0.909   5.639
 1287SOL    HW1 8160   3.380   0.934   5.543
 1287SOL    HW2 8161   3.387   0.988   5.697
 1288SOL     OW 8162   0.817   2.156   1.344
 1288SOL    HW1 8163   0.780   2.087   1.406
 1288SOL    HW2 8164   0.840   2.113   1.257
 1289SOL     OW 8165   2.481   1.014   1.637
 1289SOL    HW1 8166   2.533   0.947   1.690
 1289SOL    HW2 8167   2.387   0.982   1.624
 1290SOL     OW 8168   5.206   0.667   0.898
 1290SOL    HW1 8169   5.191   0.600   0.970
 1290SOL    HW2 8170   5.304   0.676   0.880
 1291SOL     OW 8171   5.617   2.804   0.104
 1291SOL    HW1 8172   5.629   2.856   0.020
 1291SOL    HW2 8173   5.526   2.762   0.104
 1292SOL     OW 8174   1.878   1.100   0.140
 1292SOL    HW1 8175   1.845   1.139   0.054
 1292SOL    HW2 8176   1.809   1.113   0.211
 1293SOL     OW 8177   1.326   2.881   1.437
 1293SOL    HW1 8178   1.238   2.893   1.484
 1293SOL    HW2 8179   1.339   2.955   1.371
 1294SOL     OW 8180   2.539   3.708   1.417
 1294SOL    HW1 8181   2.544   3.609   1.404
 1294SOL    HW2 8182   2.519   3.727   1.513
 1295SOL     OW 8183   5.533   3.001   0.981
 1295SOL    HW1 8184   5.513   3.026   0.886
 1295SOL    HW2 8185   5.589   2.919   0.982
 1296SOL     OW 8186   1.198   2.893   0.392
 1296SOL    HW1 8187   1.231   2.915   0.484
 1296SOL    HW2 8188   1.098   2.891   0.392
 1297SOL     OW 8189   2.868   4.317   0.105
 1297SOL    HW1 8190   2.853   4.219   0.120
 1297SOL    HW2 8191   2.783   4.366   0.123
 1298SOL     OW 8192   0.880   3.165   1.238
 1298SOL    HW1 8193   0.799   3.221   1.220
 1298SOL    HW2 8194   0.851   3.073   1.266
 1299SOL     OW 8195   4.759   3.164   0.685
 1299SOL    HW1 8196   4.676   3.212   0.656
 1299SOL    HW2 8197   4.735   3.072   0.715
 1300SOL     OW 8198   1.092   2.121   6.245
 1300SOL    HW1 8199   1.165   2.065   6.207
 1300SOL    HW2 8200   1.122   2.158   6.333
 1301SOL     OW 8201   2.818   3.407   0.402
 1301SOL    HW1 8202   2.810   3.405   0.502
 1301SOL    HW2 8203   2.913   3.421   0.377
 1302SOL     OW 8204   5.461   2.170   1.036
 1302SOL    HW1 8205   5.383   2.233   1.046
 1302SOL    HW2 8206   5.428   2.076   1.039
 1303SOL     OW 8207   1.132   1.772   5.706
 1303SOL    HW1 8208   1.126   1.694   5.643
 1303SOL    HW2 8209   1.199   1.838   5.671
 1304SOL     OW 8210   1.818   1.437   5.789
 1304SOL    HW1 8211   1.857   1.347   5.774
 1304SOL    HW2 8212   1.720   1.435   5.767
 1305SOL     OW 8213   4.232   2.808   1.354
 1305SOL    HW1 8214   4.271   2.897   1.331
 1305SOL    HW2 8215   4.295   2.757   1.411
 1306SOL     OW 8216   2.417   0.628   0.882
 1306SOL    HW1 8217   2.387   0.682   0.803
 1306SOL    HW2 8218   2.351   0.556   0.901
 1307SOL     OW 8219   5.507   1.882   6.240
 1307SOL    HW1 8220   5.521   1.964   6.185
 1307SOL    HW2 8221   5.594   1.853   6.281
 1308SOL     OW 8222   0.082   3.897   6.459
 1308SOL    HW1 8223   5.640   3.917   6.489
 1308SOL    HW2 8224   0.103   3.953   6.379
 1309SOL     OW 8225   0.334   4.425   0.471
 1309SOL    HW1 8226   0.400   4.439   0.397
 1309SOL    HW2 8227   0.268   4.500   0.472
 1310SOL     OW 8228   5.056   5.120   5.752
 1310SOL    HW1 8229   5.086   5.028   5.780
 1310SOL    HW2 8230   5.034   5.174   5.833
 1311SOL     OW 8231   3.925   1.512   0.072
 1311SOL    HW1 8232   3.995   1.567   0.028
 1311SOL    HW2 8233   3.905   1.432   0.015
 1312SOL     OW 8234   2.691   1.877   6.366
 1312SOL    HW1 8235   2.632   1.798   6.346
 1312SOL    HW2 8236   2.751   1.854   6.442
 1313SOL     OW 8237   4.529   4.614   0.461
 1313SOL    HW1 8238   4.483   4.601   0.373
 1313SOL    HW2 8239   4.464   4.600   0.536
 1314SOL     OW 8240   4.349   1.164   5.144
 1314SOL    HW1 8241   4.421   1.102   5.112
 1314SOL    HW2 8242   4.378   1.259   5.131
 1315SOL     OW 8243   1.244   4.467   5.604
 1315SOL    HW1 8244   1.312   4.397   5.624
 1315SOL    HW2 8245   1.249   4.540   5.673
 1316SOL     OW 8246   2.941   3.027   0.356
 1316SOL    HW1 8247   2.862   3.029   0.418
 1316SOL    HW2 8248   2.909   3.039   0.262
 1317SOL     OW 8249   3.003   4.724   0.602
 1317SOL    HW1 8250   3.064   4.803   0.602
 1317SOL    HW2 8251   2.981   4.698   0.696
 1318SOL     OW 8252   5.352   5.090   0.054
 1318SOL    HW1 8253   5.377   5.187   0.063
 1318SOL    HW2 8254   5.413   5.046   6.487
 1319SOL     OW 8255   1.585   1.380   0.089
 1319SOL    HW1 8256   1.547   1.337   0.008
 1319SOL    HW2 8257   1.640   1.459   0.063
 1320SOL     OW 8258   3.839   5.154   6.170
 1320SOL    HW1 8259   3.862   5.168   6.074
 1320SOL    HW2 8260   3.889   5.074   6.204
 1321SOL     OW 8261   3.236   5.002   1.625
 1321SOL    HW1 8262   3.179   5.047   1.556
 1321SOL    HW2 8263   3.194   5.013   1.715
 1322SOL     OW 8264   5.006   1.668   5.790
 1322SOL    HW1 8265   4.988   1.678   5.692
 1322SOL    HW2 8266   4.974   1.750   5.838
 1323SOL     OW 8267   4.852   5.306   0.478
 1323SOL    HW1 8268   4.764   5.325   0.522
 1323SOL    HW2 8269   4.908   5.250   0.538
 1324SOL     OW 8270   3.814   2.538   0.208
 1324SOL    HW1 8271   3.834   2.608   0.277
 1324SOL    HW2 8272   3.730   2.563   0.158
 1325SOL     OW 8273   0.583   4.933   6.040
 1325SOL    HW1 8274   0.608   5.020   5.997
 1325SOL    HW2 8275   0.489   4.939   6.074
 1326SOL     OW 8276   2.674   2.158   0.695
 1326SOL    HW1 8277   2.641   2.064   0.684
 1326SOL    HW2 8278   2.597   2.221   0.686
 1327SOL     OW 8279   2.262   3.160   6.383
 1327SOL    HW1 8280   2.234   3.231   6.448
 1327SOL    HW2 8281   2.347   3.118   6.413
 1328SOL     OW 8282   1.387   0.574   6.009
 1328SOL    HW1 8283   1.458   0.623   6.059
 1328SOL    HW2 8284   1.298   0.590   6.052
 1329SOL     OW 8285   3.740   2.090   0.581
 1329SOL    HW1 8286   3.837   2.114   0.588
 1329SOL    HW2 8287   3.687   2.173   0.567
 1330SOL     OW 8288   1.899   5.261   5.783
 1330SOL    HW1 8289   1.872   5.235   5.690
 1330SOL    HW2 8290   1.885   5.184   5.845
 1331SOL     OW 8291   3.558   4.433   0.034
 1331SOL    HW1 8292   3.635   4.450   6.472
 1331SOL    HW2 8293   3.554   4.335   0.056
 1332SOL     OW 8294   3.229   1.810   5.384
 1332SOL    HW1 8295   3.251   1.902   5.414
 1332SOL    HW2 8296   3.217   1.809   5.285
 1333SOL     OW 8297   3.343   0.631   0.697
 1333SOL    HW1 8298   3.255   0.677   0.691
 1333SOL    HW2 8299   3.416   0.699   0.704
 1334SOL     OW 8300   3.423   3.653   4.683
 1334SOL    HW1 8301   3.416   3.600   4.598
 1334SOL    HW2 8302   3.518   3.679   4.698
 1335SOL     OW 8303   2.260   4.438   0.741
 1335SOL    HW1 8304   2.214   4.512   0.789
 1335SOL    HW2 8305   2.356   4.433   0.771
 1336SOL     OW 8306   3.934   3.294   1.199
 1336SOL    HW1 8307   3.950   3.265   1.104
 1336SOL    HW2 8308   3.981   3.381   1.215
 1337SOL     OW 8309   2.651   2.827   5.792
 1337SOL    HW1 8310   2.726   2.863   5.848
 1337SOL    HW2 8311   2.631   2.733   5.819
 1338SOL     OW 8312   2.587   5.030   1.078
 1338SOL    HW1 8313   2.537   5.008   1.162
 1338SOL    HW2 8314   2.531   5.091   1.022
 1339SOL     OW 8315   2.908   3.858   0.873
 1339SOL    HW1 8316   2.943   3.796   0.803
 1339SOL    HW2 8317   2.901   3.950   0.835
 1340SOL     OW 8318   2.327   5.333   5.904
 1340SOL    HW1 8319   2.289   5.293   5.987
 1340SOL    HW2 8320   2.377   5.417   5.927
 1341SOL     OW 8321   5.193   3.106   5.606
 1341SOL    HW1 8322   5.100   3.069   5.609
 1341SOL    HW2 8323   5.253   3.039   5.562
 1342SOL     OW 8324   5.559   4.985   0.419
 1342SOL    HW1 8325   5.489   5.040   0.464
 1342SOL    HW2 8326   5.648   5.002   0.461
 1343SOL     OW 8327   4.683   1.168   5.931
 1343SOL    HW1 8328   4.692   1.256   5.979
 1343SOL    HW2 8329   4.643   1.100   5.992
 1344SOL     OW 8330   0.056   1.362   6.283
 1344SOL    HW1 8331   0.093   1.365   6.376
 1344SOL    HW2 8332   0.115   1.305   6.226
 1345SOL     OW 8333   1.081   3.277   5.481
 1345SOL    HW1 8334   1.076   3.376   5.475
 1345SOL    HW2 8335   1.140   3.242   5.407
 1346SOL     OW 8336   2.905   5.434   0.568
 1346SOL    HW1 8337   2.819   5.390   0.540
 1346SOL    HW2 8338   2.933   5.399   0.657
 1347SOL     OW 8339   4.213   1.464   6.305
 1347SOL    HW1 8340   4.284   1.500   6.245
 1347SOL    HW2 8341   4.142   1.419   6.250
 1348SOL     OW 8342   5.281   0.273   5.384
 1348SOL    HW1 8343   5.355   0.337   5.402
 1348SOL    HW2 8344   5.258   0.275   5.286
 1349SOL     OW 8345   1.416   4.609   0.998
 1349SOL    HW1 8346   1.378   4.581   0.909
 1349SOL    HW2 8347   1.508   4.572   1.007
 1350SOL     OW 8348   1.257   4.151   1.582
 1350SOL    HW1 8349   1.315   4.077   1.548
 1350SOL    HW2 8350   1.161   4.123   1.576
 1351SOL     OW 8351   1.775   3.586   5.597
 1351SOL    HW1 8352   1.719   3.535   5.662
 1351SOL    HW2 8353   1.853   3.530   5.568
 1352SOL     OW 8354   5.515   5.266   1.983
 1352SOL    HW1 8355   5.546   5.354   1.947
 1352SOL    HW2 8356   5.586   5.227   2.042
 1353SOL     OW 8357   3.209   5.377   5.588
 1353SOL    HW1 8358   3.238   5.319   5.512
 1353SOL    HW2 8359   3.254   5.346   5.673
 1354SOL     OW 8360   2.851   0.310   0.079
 1354SOL    HW1 8361   2.945   0.342   0.074
 1354SOL    HW2 8362   2.847   0.226   0.133
 1355SOL     OW 8363   1.886   4.681   1.189
 1355SOL    HW1 8364   1.871   4.727   1.102
 1355SOL    HW2 8365   1.971   4.628   1.185
 1356SOL     OW 8366   3.356   1.261   0.729
 1356SOL    HW1 8367   3.394   1.305   0.648
 1356SOL    HW2 8368   3.429   1.241   0.794
 1357SOL     OW 8369   0.155   2.809   1.493
 1357SOL    HW1 8370   0.127   2.725   1.540
 1357SOL    HW2 8371   0.073   2.858   1.461
 1358SOL     OW 8372   4.368   4.844   5.364
 1358SOL    HW1 8373   4.318   4.775   5.310
 1358SOL    HW2 8374   4.465   4.840   5.341
 1359SOL     OW 8375   2.806   4.771   6.027
 1359SOL    HW1 8376   2.809   4.870   6.042
 1359SOL    HW2 8377   2.895   4.731   6.049
 1360SOL     OW 8378   0.509   3.769   0.580
 1360SOL    HW1 8379   0.556   3.818   0.653
 1360SOL    HW2 8380   0.573   3.708   0.534
 1361SOL     OW 8381   0.050   1.665   4.808
 1361SOL    HW1 8382   0.019   1.688   4.900
 1361SOL    HW2 8383   5.626   1.678   4.743
 1362SOL     OW 8384   3.425   0.599   1.075
 1362SOL    HW1 8385   3.518   0.564   1.082
 1362SOL    HW2 8386   3.374   0.546   1.007
 1363SOL     OW 8387   2.286   0.353   1.329
 1363SOL    HW1 8388   2.381   0.360   1.359
 1363SOL    HW2 8389   2.241   0.278   1.378
 1364SOL     OW 8390   2.595   1.580   0.203
 1364SOL    HW1 8391   2.643   1.539   0.125
 1364SOL    HW2 8392   2.649   1.655   0.240
 1365SOL     OW 8393   2.832   4.808   0.384
 1365SOL    HW1 8394   2.894   4.786   0.459
 1365SOL    HW2 8395   2.740   4.775   0.406
 1366SOL     OW 8396   1.828   5.150   0.588
 1366SOL    HW1 8397   1.770   5.153   0.669
 1366SOL    HW2 8398   1.773   5.124   0.509
 1367SOL     OW 8399   2.866   4.804   1.234
 1367SOL    HW1 8400   2.842   4.842   1.144
 1367SOL    HW2 8401   2.822   4.715   1.245
 1368SOL     OW 8402   5.354   5.128   1.020
 1368SOL    HW1 8403   5.254   5.124   1.021
 1368SOL    HW2 8404   5.389   5.062   0.954
 1369SOL     OW 8405   4.545   0.403   0.851
 1369SOL    HW1 8406   4.451   0.392   0.820
 1369SOL    HW2 8407   4.546   0.414   0.951
 1370SOL     OW 8408   1.565   0.139   5.988
 1370SOL    HW1 8409   1.593   0.181   5.901
 1370SOL    HW2 8410   1.493   0.195   6.030
 1371SOL     OW 8411   5.266   1.391   1.150
 1371SOL    HW1 8412   5.317   1.351   1.073
 1371SOL    HW2 8413   5.168   1.374   1.138
 1372SOL     OW 8414   3.432   3.406   6.138
 1372SOL    HW1 8415   3.529   3.417   6.117
 1372SOL    HW2 8416   3.422   3.360   6.226
 1373SOL     OW 8417   2.763   0.574   0.071
 1373SOL    HW1 8418   2.775   0.475   0.080
 1373SOL    HW2 8419   2.845   0.613   0.030
 1374SOL     OW 8420   1.524   0.419   6.287
 1374SOL    HW1 8421   1.594   0.431   6.217
 1374SOL    HW2 8422   1.560   0.362   6.361
 1375SOL     OW 8423   2.436   5.218   0.946
 1375SOL    HW1 8424   2.339   5.212   0.922
 1375SOL    HW2 8425   2.484   5.274   0.879
 1376SOL     OW 8426   4.589   1.263   1.435
 1376SOL    HW1 8427   4.491   1.264   1.453
 1376SOL    HW2 8428   4.629   1.350   1.463
 1377SOL     OW 8429   2.415   1.804   1.819
 1377SOL    HW1 8430   2.506   1.787   1.858
 1377SOL    HW2 8431   2.352   1.734   1.852
 1378SOL     OW 8432   5.175   4.305   0.890
 1378SOL    HW1 8433   5.132   4.314   0.800
 1378SOL    HW2 8434   5.123   4.356   0.958
 1379SOL     OW 8435   1.591   4.155   6.017
 1379SOL    HW1 8436   1.526   4.151   6.092
 1379SOL    HW2 8437   1.590   4.069   5.966
 1380SOL     OW 8438   5.467   1.860   1.745
 1380SOL    HW1 8439   5.540   1.923   1.769
 1380SOL    HW2 8440   5.381   1.910   1.737
 1381SOL     OW 8441   1.961   2.434   5.367
 1381SOL    HW1 8442   1.950   2.398   5.460
 1381SOL    HW2 8443   1.880   2.412   5.313
 1382SOL     OW 8444   0.468   1.970   5.867
 1382SOL    HW1 8445   0.511   2.022   5.941
 1382SOL    HW2 8446   0.409   1.900   5.906
 1383SOL     OW 8447   1.371   0.307   6.094
 1383SOL    HW1 8448   1.358   0.387   6.036
 1383SOL    HW2 8449   1.417   0.333   6.179
 1384SOL     OW 8450   1.041   0.703   5.895
 1384SOL    HW1 8451   1.071   0.659   5.980
 1384SOL    HW2 8452   1.115   0.761   5.859
 1385SOL     OW 8453   4.045   1.356   5.270
 1385SOL    HW1 8454   4.092   1.272   5.296
 1385SOL    HW2 8455   4.111   1.429   5.254
 1386SOL     OW 8456   0.637   2.459   5.899
 1386SOL    HW1 8457   0.538   2.467   5.885
 1386SOL    HW2 8458   0.677   2.550   5.907
 1387SOL     OW 8459   4.635   2.931   6.462
 1387SOL    HW1 8460   4.637   2.914   6.364
 1387SOL    HW2 8461   4.726   2.918   0.001
 1388SOL     OW 8462   2.205   4.775   5.960
 1388SOL    HW1 8463   2.267   4.754   6.035
 1388SOL    HW2 8464   2.241   4.736   5.875
 1389SOL     OW 8465   3.245   4.950   1.101
 1389SOL    HW1 8466   3.195   5.035   1.083
 1389SOL    HW2 8467   3.220   4.915   1.191
 1390SOL     OW 8468   4.579   2.344   1.281
 1390SOL    HW1 8469   4.608   2.294   1.362
 1390SOL    HW2 8470   4.594   2.442   1.295
 1391SOL     OW 8471   1.239   2.985   6.186
 1391SOL    HW1 8472   1.295   3.050   6.134
 1391SOL    HW2 8473   1.269   2.892   6.167
 1392SOL     OW 8474   2.847   1.380   0.875
 1392SOL    HW1 8475   2.790   1.297   0.870
 1392SOL    HW2 8476   2.943   1.354   0.870
 1393SOL     OW 8477   0.364   0.161   5.781
 1393SOL    HW1 8478   0.344   0.253   5.814
 1393SOL    HW2 8479   0.454   0.132   5.813
 1394SOL     OW 8480   3.610   4.660   0.227
 1394SOL    HW1 8481   3.682   4.719   0.191
 1394SOL    HW2 8482   3.593   4.585   0.163
 1395SOL     OW 8483   3.699   0.135   5.803
 1395SOL    HW1 8484   3.614   0.179   5.776
 1395SOL    HW2 8485   3.771   0.156   5.736
 1396SOL     OW 8486   5.184   0.850   1.799
 1396SOL    HW1 8487   5.137   0.821   1.883
 1396SOL    HW2 8488   5.283   0.853   1.816
 1397SOL     OW 8489   3.120   1.603   0.326
 1397SOL    HW1 8490   3.113   1.624   0.228
 1397SOL    HW2 8491   3.028   1.585   0.362
 1398SOL     OW 8492   1.711   1.611   0.003
 1398SOL    HW1 8493   1.690   1.681   0.073
 1398SOL    HW2 8494   1.676   1.642   6.414
 1399SOL     OW 8495   2.171   3.685   0.141
 1399SOL    HW1 8496   2.211   3.600   0.107
 1399SOL    HW2 8497   2.200   3.761   0.083
 1400SOL     OW 8498   1.524   5.437   5.952
 1400SOL    HW1 8499   1.569   5.526   5.963
 1400SOL    HW2 8500   1.445   5.431   6.013
 1401SOL     OW 8501   5.328   1.240   0.537
 1401SOL    HW1 8502   5.282   1.328   0.527
 1401SOL    HW2 8503   5.353   1.205   0.446
 1402SOL     OW 8504   5.468   0.179   0.470
 1402SOL    HW1 8505   5.443   0.251   0.535
 1402SOL    HW2 8506   5.564   0.154   0.484
 1403SOL     OW 8507   4.700   2.916   0.795
 1403SOL    HW1 8508   4.743   2.833   0.830
 1403SOL    HW2 8509   4.616   2.892   0.747
 1404SOL     OW 8510   4.091   0.349   1.683
 1404SOL    HW1 8511   4.113   0.347   1.780
 1404SOL    HW2 8512   3.993   0.363   1.671
 1405SOL     OW 8513   0.909   0.398   5.582
 1405SOL    HW1 8514   0.909   0.495   5.607
 1405SOL    HW2 8515   0.844   0.384   5.507
 1406SOL     OW 8516   1.369   5.492   0.663
 1406SOL    HW1 8517   1.358   5.409   0.717
 1406SOL    HW2 8518   1.452   5.485   0.607
 1407SOL     OW 8519   2.729   2.371   0.523
 1407SOL    HW1 8520   2.730   2.275   0.551
 1407SOL    HW2 8521   2.785   2.381   0.440
 1408SOL     OW 8522   3.224   2.350   0.921
 1408SOL    HW1 8523   3.239   2.270   0.979
 1408SOL    HW2 8524   3.188   2.320   0.832
 1409SOL     OW 8525   2.492   4.826   6.430
 1409SOL    HW1 8526   2.557   4.749   6.428
 1409SOL    HW2 8527   2.533   4.903   6.479
 1410SOL     OW 8528   1.564   3.014   6.231
 1410SOL    HW1 8529   1.538   3.001   6.327
 1410SOL    HW2 8530   1.664   3.009   6.224
 1411SOL     OW 8531   2.489   4.074   5.567
 1411SOL    HW1 8532   2.565   4.097   5.507
 1411SOL    HW2 8533   2.519   4.075   5.662
 1412SOL     OW 8534   5.144   4.037   0.928
 1412SOL    HW1 8535   5.158   4.136   0.922
 1412SOL    HW2 8536   5.131   4.000   0.836
 1413SOL     OW 8537   3.583   0.186   1.903
 1413SOL    HW1 8538   3.585   0.175   2.003
 1413SOL    HW2 8539   3.670   0.156   1.865
 1414SOL     OW 8540   0.698   0.613   0.402
 1414SOL    HW1 8541   0.753   0.632   0.320
 1414SOL    HW2 8542   0.612   0.569   0.375
 1415SOL     OW 8543   2.134   5.444   0.418
 1415SOL    HW1 8544   2.123   5.541   0.398
 1415SOL    HW2 8545   2.182   5.399   0.342
 1416SOL     OW 8546   5.599   3.939   0.796
 1416SOL    HW1 8547   5.569   3.844   0.794
 1416SOL    HW2 8548   0.030   3.948   0.851
 1417SOL     OW 8549   0.199   2.933   1.736
 1417SOL    HW1 8550   0.156   2.871   1.801
 1417SOL    HW2 8551   0.201   2.889   1.646
 1418SOL     OW 8552   3.599   0.432   0.091
 1418SOL    HW1 8553   3.610   0.422   0.189
 1418SOL    HW2 8554   3.668   0.495   0.056
 1419SOL     OW 8555   2.961   5.325   0.811
 1419SOL    HW1 8556   2.899   5.372   0.874
 1419SOL    HW2 8557   2.951   5.226   0.823
 1420SOL     OW 8558   2.177   1.202   0.251
 1420SOL    HW1 8559   2.085   1.164   0.254
 1420SOL    HW2 8560   2.210   1.203   0.156
 1421SOL     OW 8561   2.897   1.320   5.663
 1421SOL    HW1 8562   2.878   1.225   5.686
 1421SOL    HW2 8563   2.992   1.329   5.633
 1422SOL     OW 8564   1.240   3.255   0.109
 1422SOL    HW1 8565   1.162   3.283   0.165
 1422SOL    HW2 8566   1.237   3.156   0.095
 1423SOL     OW 8567   0.044   1.871   5.302
 1423SOL    HW1 8568   0.144   1.866   5.305
 1423SOL    HW2 8569   0.014   1.958   5.341
 1424SOL     OW 8570   0.365   1.833   0.802
 1424SOL    HW1 8571   0.347   1.930   0.788
 1424SOL    HW2 8572   0.457   1.811   0.771
 1425SOL     OW 8573   1.271   2.209   5.357
 1425SOL    HW1 8574   1.343   2.226   5.290
 1425SOL    HW2 8575   1.225   2.123   5.335
 1426SOL     OW 8576   2.916   1.183   6.406
 1426SOL    HW1 8577   2.848   1.112   6.387
 1426SOL    HW2 8578   2.892   1.231   6.491
 1427SOL     OW 8579   4.261   4.771   0.937
 1427SOL    HW1 8580   4.342   4.768   0.879
 1427SOL    HW2 8581   4.261   4.692   0.998
 1428SOL     OW 8582   4.157   4.153   1.013
 1428SOL    HW1 8583   4.109   4.087   0.955
 1428SOL    HW2 8584   4.122   4.245   0.995
 1429SOL     OW 8585   4.042   2.947   2.025
 1429SOL    HW1 8586   4.103   2.871   2.047
 1429SOL    HW2 8587   3.999   2.981   2.109
 1430SOL     OW 8588   3.241   3.772   1.700
 1430SOL    HW1 8589   3.227   3.870   1.683
 1430SOL    HW2 8590   3.175   3.741   1.769
 1431SOL     OW 8591   0.546   3.622   6.408
 1431SOL    HW1 8592   0.594   3.707   6.430
 1431SOL    HW2 8593   0.492   3.593   6.487
 1432SOL     OW 8594   0.891   2.208   0.717
 1432SOL    HW1 8595   0.949   2.287   0.701
 1432SOL    HW2 8596   0.805   2.237   0.759
 1433SOL     OW 8597   5.508   1.667   0.324
 1433SOL    HW1 8598   5.475   1.757   0.354
 1433SOL    HW2 8599   5.494   1.601   0.397
 1434SOL     OW 8600   5.205   0.194   6.374
 1434SOL    HW1 8601   5.202   0.286   6.412
 1434SOL    HW2 8602   5.290   0.182   6.322
 1435SOL     OW 8603   1.349   3.448   0.552
 1435SOL    HW1 8604   1.395   3.433   0.639
 1435SOL    HW2 8605   1.412   3.495   0.489
 1436SOL     OW 8606   1.966   4.875   1.826
 1436SOL    HW1 8607   1.973   4.801   1.893
 1436SOL    HW2 8608   2.038   4.864   1.757
 1437SOL     OW 8609   0.778   1.983   4.610
 1437SOL    HW1 8610   0.756   1.902   4.665
 1437SOL    HW2 8611   0.855   1.962   4.549
 1438SOL     OW 8612   2.551   1.917   0.684
 1438SOL    HW1 8613   2.573   1.865   0.766
 1438SOL    HW2 8614   2.492   1.862   0.624
 1439SOL     OW 8615   3.565   2.362   0.009
 1439SOL    HW1 8616   3.579   2.459   0.028
 1439SOL    HW2 8617   3.482   2.351   6.453
 1440SOL     OW 8618   3.363   2.360   5.834
 1440SOL    HW1 8619   3.346   2.430   5.763
 1440SOL    HW2 8620   3.379   2.405   5.921
 1441SOL     OW 8621   4.316   3.068   5.785
 1441SOL    HW1 8622   4.309   3.159   5.743
 1441SOL    HW2 8623   4.413   3.044   5.794
 1442SOL     OW 8624   0.062   0.577   0.351
 1442SOL    HW1 8625   0.096   0.495   0.305
 1442SOL    HW2 8626   0.030   0.553   0.442
 1443SOL     OW 8627   3.246   1.541   2.033
 1443SOL    HW1 8628   3.209   1.554   2.125
 1443SOL    HW2 8629   3.339   1.578   2.028
 1444SOL     OW 8630   4.256   2.327   0.522
 1444SOL    HW1 8631   4.213   2.287   0.441
 1444SOL    HW2 8632   4.231   2.424   0.529
 1445SOL     OW 8633   5.177   4.186   1.834
 1445SOL    HW1 8634   5.153   4.277   1.869
 1445SOL    HW2 8635   5.205   4.127   1.910
 1446SOL     OW 8636   1.621   3.724   0.191
 1446SOL    HW1 8637   1.624   3.821   0.167
 1446SOL    HW2 8638   1.706   3.680   0.163
 1447SOL     OW 8639   1.075   5.053   6.165
 1447SOL    HW1 8640   1.027   5.066   6.078
 1447SOL    HW2 8641   1.166   5.015   6.148
 1448SOL     OW 8642   3.617   0.785   4.977
 1448SOL    HW1 8643   3.667   0.869   4.996
 1448SOL    HW2 8644   3.530   0.807   4.932
 1449SOL     OW 8645   2.547   3.131   0.694
 1449SOL    HW1 8646   2.607   3.170   0.764
 1449SOL    HW2 8647   2.459   3.179   0.695
 1450SOL     OW 8648   1.133   4.737   0.799
 1450SOL    HW1 8649   1.065   4.691   0.856
 1450SOL    HW2 8650   1.206   4.672   0.775
 1451SOL     OW 8651   5.602   5.471   1.074
 1451SOL    HW1 8652   5.590   5.570   1.079
 1451SOL    HW2 8653   0.045   5.447   1.094
 1452SOL     OW 8654   1.925   0.829   0.753
 1452SOL    HW1 8655   1.989   0.837   0.676
 1452SOL    HW2 8656   1.896   0.734   0.763
 1453SOL     OW 8657   3.455   2.624   5.437
 1453SOL    HW1 8658   3.531   2.559   5.442
 1453SOL    HW2 8659   3.490   2.717   5.445
 1454SOL     OW 8660   2.336   1.965   6.338
 1454SOL    HW1 8661   2.320   1.890   6.402
 1454SOL    HW2 8662   2.383   2.040   6.385
 1455SOL     OW 8663   2.194   0.660   0.359
 1455SOL    HW1 8664   2.252   0.598   0.412
 1455SOL    HW2 8665   2.098   0.640   0.378
 1456SOL     OW 8666   4.117   0.857   6.201
 1456SOL    HW1 8667   4.149   0.946   6.233
 1456SOL    HW2 8668   4.045   0.869   6.133
 1457SOL     OW 8669   2.734   1.438   1.117
 1457SOL    HW1 8670   2.681   1.523   1.116
 1457SOL    HW2 8671   2.776   1.424   1.027
 1458SOL     OW 8672   1.062   1.561   0.806
 1458SOL    HW1 8673   1.093   1.650   0.771
 1458SOL    HW2 8674   1.124   1.490   0.774
 1459SOL     OW 8675   2.710   1.454   5.052
 1459SOL    HW1 8676   2.670   1.482   4.964
 1459SOL    HW2 8677   2.665   1.505   5.126
 1460SOL     OW 8678   3.986   1.703   0.708
 1460SOL    HW1 8679   4.055   1.772   0.687
 1460SOL    HW2 8680   3.920   1.739   0.773
 1461SOL     OW 8681   2.257   4.194   5.482
 1461SOL    HW1 8682   2.189   4.133   5.522
 1461SOL    HW2 8683   2.349   4.161   5.505
 1462SOL     OW 8684   3.563   3.769   0.289
 1462SOL    HW1 8685   3.643   3.789   0.234
 1462SOL    HW2 8686   3.550   3.669   0.294
 1463SOL     OW 8687   3.136   0.632   1.449
 1463SOL    HW1 8688   3.084   0.548   1.441
 1463SOL    HW2 8689   3.226   0.621   1.407
 1464SOL     OW 8690   0.130   1.612   0.302
 1464SOL    HW1 8691   0.032   1.632   0.300
 1464SOL    HW2 8692   0.169   1.632   0.212
 1465SOL     OW 8693   2.225   4.367   4.825
 1465SOL    HW1 8694   2.319   4.334   4.819
 1465SOL    HW2 8695   2.163   4.290   4.842
 1466SOL     OW 8696   5.175   4.842   0.326
 1466SOL    HW1 8697   5.169   4.801   0.235
 1466SOL    HW2 8698   5.186   4.941   0.317
 1467SOL     OW 8699   4.990   1.636   1.191
 1467SOL    HW1 8700   4.980   1.537   1.190
 1467SOL    HW2 8701   5.045   1.665   1.269
 1468SOL     OW 8702   4.230   1.426   5.972
 1468SOL    HW1 8703   4.296   1.444   5.899
 1468SOL    HW2 8704   4.154   1.491   5.966
 1469SOL     OW 8705   4.035   2.742   6.126
 1469SOL    HW1 8706   4.011   2.787   6.040
 1469SOL    HW2 8707   4.089   2.660   6.106
 1470SOL     OW 8708   2.749   5.417   0.966
 1470SOL    HW1 8709   2.732   5.489   1.033
 1470SOL    HW2 8710   2.675   5.415   0.899
 1471SOL     OW 8711   3.083   5.170   1.073
 1471SOL    HW1 8712   2.984   5.166   1.088
 1471SOL    HW2 8713   3.120   5.254   1.112
 1472SOL     OW 8714   1.216   3.346   1.053
 1472SOL    HW1 8715   1.154   3.377   1.125
 1472SOL    HW2 8716   1.202   3.248   1.037
 1473SOL     OW 8717   2.017   4.073   6.212
 1473SOL    HW1 8718   2.013   3.974   6.201
 1473SOL    HW2 8719   1.954   4.116   6.148
 1474SOL     OW 8720   0.625   0.583   1.756
 1474SOL    HW1 8721   0.701   0.647   1.756
 1474SOL    HW2 8722   0.631   0.523   1.836
 1475SOL     OW 8723   4.804   1.348   5.651
 1475SOL    HW1 8724   4.746   1.268   5.654
 1475SOL    HW2 8725   4.850   1.359   5.739
 1476SOL     OW 8726   0.489   3.995   5.660
 1476SOL    HW1 8727   0.514   3.903   5.630
 1476SOL    HW2 8728   0.389   4.000   5.670
 1477SOL     OW 8729   1.278   3.798   6.414
 1477SOL    HW1 8730   1.262   3.895   6.428
 1477SOL    HW2 8731   1.227   3.767   6.334
 1478SOL     OW 8732   2.882   1.301   0.172
 1478SOL    HW1 8733   2.823   1.300   0.253
 1478SOL    HW2 8734   2.973   1.267   0.198
 1479SOL     OW 8735   2.491   2.020   1.150
 1479SOL    HW1 8736   2.510   2.118   1.159
 1479SOL    HW2 8737   2.392   2.005   1.153
 1480SOL     OW 8738   1.479   1.966   5.128
 1480SOL    HW1 8739   1.545   2.033   5.095
 1480SOL    HW2 8740   1.446   1.911   5.051
 1481SOL     OW 8741   3.730   3.050   5.378
 1481SOL    HW1 8742   3.729   3.078   5.282
 1481SOL    HW2 8743   3.668   2.973   5.390
 1482SOL     OW 8744   0.780   4.741   6.298
 1482SOL    HW1 8745   0.743   4.648   6.306
 1482SOL    HW2 8746   0.805   4.759   6.203
 1483SOL     OW 8747   3.059   2.827   5.855
 1483SOL    HW1 8748   3.052   2.729   5.835
 1483SOL    HW2 8749   2.971   2.860   5.887
 1484SOL     OW 8750   2.978   4.688   0.877
 1484SOL    HW1 8751   3.062   4.688   0.930
 1484SOL    HW2 8752   2.914   4.755   0.915
 1485SOL     OW 8753   3.241   1.313   5.842
 1485SOL    HW1 8754   3.248   1.406   5.878
 1485SOL    HW2 8755   3.206   1.315   5.749
 1486SOL     OW 8756   0.938   5.521   0.792
 1486SOL    HW1 8757   0.912   5.441   0.738
 1486SOL    HW2 8758   1.012   5.570   0.746
 1487SOL     OW 8759   2.229   1.944   1.204
 1487SOL    HW1 8760   2.244   1.866   1.264
 1487SOL    HW2 8761   2.163   1.919   1.132
 1488SOL     OW 8762   3.638   3.791   6.269
 1488SOL    HW1 8763   3.555   3.826   6.311
 1488SOL    HW2 8764   3.630   3.799   6.169
 1489SOL     OW 8765   4.919   2.933   1.200
 1489SOL    HW1 8766   5.018   2.939   1.184
 1489SOL    HW2 8767   4.871   2.985   1.129
 1490SOL     OW 8768   0.355   2.268   0.737
 1490SOL    HW1 8769   0.446   2.265   0.777
 1490SOL    HW2 8770   0.330   2.362   0.715
 1491SOL     OW 8771   2.407   3.001   1.198
 1491SOL    HW1 8772   2.439   2.906   1.197
 1491SOL    HW2 8773   2.479   3.060   1.234
 1492SOL     OW 8774   1.429   2.191   5.580
 1492SOL    HW1 8775   1.372   2.203   5.499
 1492SOL    HW2 8776   1.434   2.278   5.630
 1493SOL     OW 8777   5.567   3.220   6.371
 1493SOL    HW1 8778   5.645   3.281   6.361
 1493SOL    HW2 8779   5.526   3.231   6.461
 1494SOL     OW 8780   4.506   2.000   5.708
 1494SOL    HW1 8781   4.460   2.070   5.653
 1494SOL    HW2 8782   4.461   1.912   5.695
 1495SOL     OW 8783   0.779   5.322   1.414
 1495SOL    HW1 8784   0.875   5.325   1.386
 1495SOL    HW2 8785   0.772   5.350   1.510
 1496SOL     OW 8786   3.100   0.835   5.522
 1496SOL    HW1 8787   3.137   0.910   5.467
 1496SOL    HW2 8788   3.144   0.835   5.612
 1497SOL     OW 8789   1.851   5.016   1.461
 1497SOL    HW1 8790   1.797   4.949   1.411
 1497SOL    HW2 8791   1.792   5.064   1.526
 1498SOL     OW 8792   4.835   1.870   1.172
 1498SOL    HW1 8793   4.888   1.785   1.181
 1498SOL    HW2 8794   4.832   1.898   1.077
 1499SOL     OW 8795   2.609   0.791   1.750
 1499SOL    HW1 8796   2.706   0.786   1.776
 1499SOL    HW2 8797   2.592   0.731   1.672
 1500SOL     OW 8798   2.883   1.887   1.067
 1500SOL    HW1 8799   2.908   1.984   1.075
 1500SOL    HW2 8800   2.872   1.848   1.158
 1501SOL     OW 8801   5.504   3.067   0.715
 1501SOL    HW1 8802   5.501   2.990   0.651
 1501SOL    HW2 8803   5.564   3.138   0.678
 1502SOL     OW 8804   4.438   5.091   0.089
 1502SOL    HW1 8805   4.391   5.139   0.163
 1502SOL    HW2 8806   4.483   5.157   0.029
 1503SOL     OW 8807   2.973   1.073   0.482
 1503SOL    HW1 8808   2.991   1.164   0.518
 1503SOL    HW2 8809   3.059   1.026   0.464
 1504SOL     OW 8810   0.927   1.245   1.051
 1504SOL    HW1 8811   0.860   1.215   0.982
 1504SOL    HW2 8812   0.983   1.167   1.079
 1505SOL     OW 8813   5.330   2.158   0.725
 1505SOL    HW1 8814   5.429   2.174   0.731
 1505SOL    HW2 8815   5.282   2.228   0.776
 1506SOL     OW 8816   4.139   0.419   5.142
 1506SOL    HW1 8817   4.236   0.421   5.167
 1506SOL    HW2 8818   4.127   0.367   5.058
 1507SOL     OW 8819   1.159   0.360   5.300
 1507SOL    HW1 8820   1.137   0.263   5.310
 1507SOL    HW2 8821   1.077   0.412   5.279
 1508SOL     OW 8822   0.148   1.748   0.538
 1508SOL    HW1 8823   0.152   1.698   0.451
 1508SOL    HW2 8824   0.177   1.687   0.612
 1509SOL     OW 8825   3.031   3.629   0.140
 1509SOL    HW1 8826   3.042   3.571   0.221
 1509SOL    HW2 8827   2.984   3.577   0.068
 1510SOL     OW 8828   3.556   5.344   5.974
 1510SOL    HW1 8829   3.571   5.263   6.030
 1510SOL    HW2 8830   3.498   5.409   6.022
 1511SOL     OW 8831   0.131   4.517   1.272
 1511SOL    HW1 8832   0.152   4.421   1.290
 1511SOL    HW2 8833   0.074   4.525   1.190
 1512SOL     OW 8834   1.562   3.134   1.950
 1512SOL    HW1 8835   1.549   3.053   2.006
 1512SOL    HW2 8836   1.658   3.160   1.950
 1513SOL     OW 8837   4.301   4.521   1.050
 1513SOL    HW1 8838   4.214   4.478   1.024
 1513SOL    HW2 8839   4.375   4.482   0.996
 1514SOL     OW 8840   1.544   3.781   6.367
 1514SOL    HW1 8841   1.447   3.793   6.387
 1514SOL    HW2 8842   1.599   3.843   6.423
 1515SOL     OW 8843   1.545   2.549   0.202
 1515SOL    HW1 8844   1.625   2.602   0.229
 1515SOL    HW2 8845   1.556   2.516   0.108
 1516SOL     OW 8846   4.503   4.100   0.114
 1516SOL    HW1 8847   4.417   4.062   0.080
 1516SOL    HW2 8848   4.511   4.079   0.212
 1517SOL     OW 8849   4.306   1.195   1.453
 1517SOL    HW1 8850   4.319   1.150   1.542
 1517SOL    HW2 8851   4.293   1.293   1.468
 1518SOL     OW 8852   3.721   5.387   6.276
 1518SOL    HW1 8853   3.779   5.312   6.246
 1518SOL    HW2 8854   3.776   5.455   6.325
 1519SOL     OW 8855   0.372   1.511   5.433
 1519SOL    HW1 8856   0.388   1.595   5.484
 1519SOL    HW2 8857   0.274   1.500   5.418
 1520SOL     OW 8858   1.923   5.314   4.918
 1520SOL    HW1 8859   1.844   5.372   4.897
 1520SOL    HW2 8860   1.984   5.312   4.839
 1521SOL     OW 8861   0.472   3.407   6.110
 1521SOL    HW1 8862   0.572   3.410   6.106
 1521SOL    HW2 8863   0.436   3.377   6.022
 1522SOL     OW 8864   3.210   4.681   5.692
 1522SOL    HW1 8865   3.164   4.767   5.715
 1522SOL    HW2 8866   3.308   4.698   5.678
 1523SOL     OW 8867   2.441   1.886   1.565
 1523SOL    HW1 8868   2.420   1.983   1.565
 1523SOL    HW2 8869   2.436   1.850   1.658
 1524SOL     OW 8870   1.350   3.657   0.143
 1524SOL    HW1 8871   1.320   3.703   0.060
 1524SOL    HW2 8872   1.445   3.680   0.162
 1525SOL     OW 8873   3.512   2.173   1.135
 1525SOL    HW1 8874   3.525   2.155   1.037
 1525SOL    HW2 8875   3.472   2.263   1.148
 1526SOL     OW 8876   1.615   0.371   5.496
 1526SOL    HW1 8877   1.524   0.409   5.482
 1526SOL    HW2 8878   1.654   0.345   5.407
 1527SOL     OW 8879   4.138   0.317   1.951
 1527SOL    HW1 8880   4.087   0.231   1.951
 1527SOL    HW2 8881   4.093   0.382   2.012
 1528SOL     OW 8882   0.633   5.175   5.922
 1528SOL    HW1 8883   0.713   5.235   5.929
 1528SOL    HW2 8884   0.611   5.160   5.826
 1529SOL     OW 8885   5.063   4.136   1.181
 1529SOL    HW1 8886   5.072   4.084   1.096
 1529SOL    HW2 8887   5.147   4.127   1.234
 1530SOL     OW 8888   5.260   3.167   0.444
 1530SOL    HW1 8889   5.355   3.174   0.416
 1530SOL    HW2 8890   5.203   3.221   0.382
 1531SOL     OW 8891   1.503   4.201   5.405
 1531SOL    HW1 8892   1.471   4.270   5.339
 1531SOL    HW2 8893   1.473   4.226   5.496
 1532SOL     OW 8894   2.471   3.490   1.160
 1532SOL    HW1 8895   2.382   3.533   1.167
 1532SOL    HW2 8896   2.501   3.460   1.251
 1533SOL     OW 8897   4.949   3.796   2.093
 1533SOL    HW1 8898   5.037   3.748   2.090
 1533SOL    HW2 8899   4.889   3.751   2.159
 1534SOL     OW 8900   1.124   4.761   6.013
 1534SOL    HW1 8901   1.185   4.836   6.036
 1534SOL    HW2 8902   1.029   4.789   6.028
 1535SOL     OW 8903   2.828   1.652   5.865
 1535SOL    HW1 8904   2.866   1.566   5.900
 1535SOL    HW2 8905   2.763   1.688   5.931
 1536SOL     OW 8906   4.743   4.112   1.591
 1536SOL    HW1 8907   4.688   4.144   1.668
 1536SOL    HW2 8908   4.832   4.082   1.624
 1537SOL     OW 8909   3.213   2.329   1.395
 1537SOL    HW1 8910   3.125   2.324   1.442
 1537SOL    HW2 8911   3.253   2.237   1.389
 1538SOL     OW 8912   3.244   0.291   6.020
 1538SOL    HW1 8913   3.275   0.246   5.936
 1538SOL    HW2 8914   3.156   0.253   6.047
 1539SOL     OW 8915   2.001   2.765   1.350
 1539SOL    HW1 8916   2.071   2.709   1.394
 1539SOL    HW2 8917   2.042   2.850   1.316
 1540SOL     OW 8918   3.279   0.049   6.383
 1540SOL    HW1 8919   3.316   0.129   6.337
 1540SOL    HW2 8920   3.353   5.558   6.403
 1541SOL     OW 8921   0.007   0.944   0.976
 1541SOL    HW1 8922   5.566   0.969   0.949
 1541SOL    HW2 8923   0.019   0.846   0.967
 1542SOL     OW 8924   3.358   3.471   1.235
 1542SOL    HW1 8925   3.433   3.471   1.301
 1542SOL    HW2 8926   3.389   3.511   1.149
 1543SOL     OW 8927   0.429   2.761   0.744
 1543SOL    HW1 8928   0.393   2.813   0.667
 1543SOL    HW2 8929   0.371   2.775   0.824
 1544SOL     OW 8930   5.618   2.940   6.360
 1544SOL    HW1 8931   5.616   3.040   6.360
 1544SOL    HW2 8932   0.020   2.908   6.282
 1545SOL     OW 8933   0.410   1.250   6.353
 1545SOL    HW1 8934   0.501   1.266   6.391
 1545SOL    HW2 8935   0.358   1.193   6.415
 1546SOL     OW 8936   1.489   4.514   5.001
 1546SOL    HW1 8937   1.492   4.477   4.909
 1546SOL    HW2 8938   1.566   4.577   5.014
 1547SOL     OW 8939   1.318   1.046   0.144
 1547SOL    HW1 8940   1.371   1.093   0.215
 1547SOL    HW2 8941   1.221   1.050   0.168
 1548SOL     OW 8942   4.092   1.978   5.729
 1548SOL    HW1 8943   4.006   2.021   5.756
 1548SOL    HW2 8944   4.128   2.024   5.648
 1549SOL     OW 8945   5.172   3.613   0.794
 1549SOL    HW1 8946   5.189   3.681   0.866
 1549SOL    HW2 8947   5.210   3.525   0.822
 1550SOL     OW 8948   3.275   3.694   4.908
 1550SOL    HW1 8949   3.327   3.686   4.823
 1550SOL    HW2 8950   3.179   3.673   4.891
 1551SOL     OW 8951   3.906   3.229   0.219
 1551SOL    HW1 8952   3.832   3.179   0.263
 1551SOL    HW2 8953   3.873   3.318   0.188
 1552SOL     OW 8954   4.737   4.082   6.465
 1552SOL    HW1 8955   4.738   4.169   6.416
 1552SOL    HW2 8956   4.651   4.072   0.016
 1553SOL     OW 8957   0.152   2.616   0.184
 1553SOL    HW1 8958   0.080   2.677   0.151
 1553SOL    HW2 8959   0.114   2.526   0.204
 1554SOL     OW 8960   3.144   0.613   5.375
 1554SOL    HW1 8961   3.124   0.692   5.432
 1554SOL    HW2 8962   3.140   0.640   5.278
 1555SOL     OW 8963   1.926   2.740   0.957
 1555SOL    HW1 8964   2.019   2.773   0.945
 1555SOL    HW2 8965   1.866   2.816   0.982
 1556SOL     OW 8966   2.955   0.484   0.335
 1556SOL    HW1 8967   3.013   0.458   0.257
 1556SOL    HW2 8968   2.938   0.582   0.332
 1557SOL     OW 8969   2.654   1.745   6.063
 1557SOL    HW1 8970   2.589   1.820   6.069
 1557SOL    HW2 8971   2.632   1.677   6.134
 1558SOL     OW 8972   3.315   4.142   5.671
 1558SOL    HW1 8973   3.290   4.237   5.652
 1558SOL    HW2 8974   3.246   4.101   5.730
 1559SOL     OW 8975   4.842   2.464   0.299
 1559SOL    HW1 8976   4.911   2.409   0.345
 1559SOL    HW2 8977   4.757   2.413   0.291
 1560SOL     OW 8978   5.221   4.617   0.740
 1560SOL    HW1 8979   5.222   4.683   0.815
 1560SOL    HW2 8980   5.298   4.553   0.751
 1561SOL     OW 8981   5.018   4.523   5.758
 1561SOL    HW1 8982   4.990   4.599   5.699
 1561SOL    HW2 8983   5.025   4.555   5.852
 1562SOL     OW 8984   4.757   4.600   1.758
 1562SOL    HW1 8985   4.678   4.547   1.787
 1562SOL    HW2 8986   4.796   4.647   1.838
 1563SOL     OW 8987   3.812   4.352   6.112
 1563SOL    HW1 8988   3.900   4.369   6.069
 1563SOL    HW2 8989   3.740   4.354   6.042
 1564SOL     OW 8990   2.549   1.151   6.245
 1564SOL    HW1 8991   2.546   1.200   6.157
 1564SOL    HW2 8992   2.630   1.092   6.247
 1565SOL     OW 8993   0.274   2.756   5.276
 1565SOL    HW1 8994   0.287   2.660   5.299
 1565SOL    HW2 8995   0.192   2.766   5.219
 1566SOL     OW 8996   3.850   3.681   5.845
 1566SOL    HW1 8997   3.819   3.771   5.875
 1566SOL    HW2 8998   3.947   3.670   5.867
 1567SOL     OW 8999   3.423   2.735   0.571
 1567SOL    HW1 9000   3.347   2.725   0.636
 1567SOL    HW2 9001   3.496   2.672   0.596
 1568SOL     OW 9002   3.070   2.592   0.424
 1568SOL    HW1 9003   3.060   2.587   0.524
 1568SOL    HW2 9004   3.094   2.685   0.398
 1569SOL     OW 9005   3.941   3.444   6.282
 1569SOL    HW1 9006   3.973   3.372   6.344
 1569SOL    HW2 9007   4.017   3.473   6.223
 1570SOL     OW 9008   4.022   4.193   5.392
 1570SOL    HW1 9009   3.928   4.188   5.428
 1570SOL    HW2 9010   4.020   4.193   5.292
 1571SOL     OW 9011   3.239   2.228   5.128
 1571SOL    HW1 9012   3.282   2.310   5.164
 1571SOL    HW2 9013   3.146   2.249   5.098
 1572SOL     OW 9014   1.497   2.811   5.724
 1572SOL    HW1 9015   1.426   2.762   5.675
 1572SOL    HW2 9016   1.460   2.898   5.759
 1573SOL     OW 9017   4.863   0.967   2.256
 1573SOL    HW1 9018   4.779   0.946   2.306
 1573SOL    HW2 9019   4.932   0.897   2.276
 1574SOL     OW 9020   0.536   0.227   1.910
 1574SOL    HW1 9021   0.574   0.312   1.946
 1574SOL    HW2 9022   0.611   0.169   1.877
 1575SOL     OW 9023   0.616   2.223   0.825
 1575SOL    HW1 9024   0.592   2.187   0.915
 1575SOL    HW2 9025   0.623   2.147   0.760
 1576SOL     OW 9026   3.977   0.589   5.439
 1576SOL    HW1 9027   3.945   0.507   5.392
 1576SOL    HW2 9028   3.904   0.658   5.439
 1577SOL     OW 9029   4.363   5.204   0.807
 1577SOL    HW1 9030   4.421   5.135   0.764
 1577SOL    HW2 9031   4.320   5.165   0.888
 1578SOL     OW 9032   0.618   2.760   0.033
 1578SOL    HW1 9033   0.634   2.802   6.443
 1578SOL    HW2 9034   0.672   2.676   0.040
 1579SOL     OW 9035   0.709   3.275   1.510
 1579SOL    HW1 9036   0.688   3.371   1.529
 1579SOL    HW2 9037   0.807   3.265   1.497
 1580SOL     OW 9038   4.815   3.370   0.023
 1580SOL    HW1 9039   4.863   3.290   6.486
 1580SOL    HW2 9040   4.744   3.340   0.088
 1581SOL     OW 9041   2.140   0.678   5.798
 1581SOL    HW1 9042   2.173   0.766   5.834
 1581SOL    HW2 9043   2.186   0.659   5.711
 1582SOL     OW 9044   4.368   3.756   1.579
 1582SOL    HW1 9045   4.378   3.726   1.674
 1582SOL    HW2 9046   4.425   3.837   1.563
 1583SOL     OW 9047   4.696   0.556   1.604
 1583SOL    HW1 9048   4.767   0.500   1.647
 1583SOL    HW2 9049   4.728   0.650   1.596
 1584SOL     OW 9050   3.202   3.244   1.252
 1584SOL    HW1 9051   3.245   3.160   1.219
 1584SOL    HW2 9052   3.266   3.320   1.243
 1585SOL     OW 9053   1.461   4.553   1.549
 1585SOL    HW1 9054   1.477   4.511   1.638
 1585SOL    HW2 9055   1.408   4.490   1.492
 1586SOL     OW 9056   3.495   0.200   0.634
 1586SOL    HW1 9057   3.457   0.111   0.612
 1586SOL    HW2 9058   3.434   0.272   0.601
 1587SOL     OW 9059   1.916   0.102   1.111
 1587SOL    HW1 9060   1.826   0.085   1.071
 1587SOL    HW2 9061   1.962   0.175   1.060
 1588SOL     OW 9062   1.323   4.540   0.753
 1588SOL    HW1 9063   1.410   4.548   0.703
 1588SOL    HW2 9064   1.271   4.463   0.717
 1589SOL     OW 9065   3.563   5.144   6.170
 1589SOL    HW1 9066   3.663   5.140   6.174
 1589SOL    HW2 9067   3.527   5.163   6.262
 1590SOL     OW 9068   5.420   2.281   5.781
 1590SOL    HW1 9069   5.406   2.293   5.880
 1590SOL    HW2 9070   5.341   2.318   5.732
 1591SOL     OW 9071   4.805   0.757   6.062
 1591SOL    HW1 9072   4.880   0.764   5.996
 1591SOL    HW2 9073   4.748   0.839   6.056
 1592SOL     OW 9074   2.103   5.287   4.715
 1592SOL    HW1 9075   2.179   5.327   4.662
 1592SOL    HW2 9076   2.092   5.191   4.689
 1593SOL     OW 9077   2.905   1.778   6.178
 1593SOL    HW1 9078   2.819   1.766   6.129
 1593SOL    HW2 9079   2.899   1.859   6.237
 1594SOL     OW 9080   1.241   4.067   6.432
 1594SOL    HW1 9081   1.147   4.094   6.452
 1594SOL    HW2 9082   1.298   4.081   0.014
 1595SOL     OW 9083   4.353   1.086   1.692
 1595SOL    HW1 9084   4.302   1.034   1.760
 1595SOL    HW2 9085   4.451   1.079   1.710
 1596SOL     OW 9086   3.688   1.323   1.341
 1596SOL    HW1 9087   3.751   1.255   1.379
 1596SOL    HW2 9088   3.600   1.318   1.388
 1597SOL     OW 9089   1.878   3.657   0.096
 1597SOL    HW1 9090   1.960   3.638   0.149
 1597SOL    HW2 9091   1.893   3.738   0.039
 1598SOL     OW 9092   2.331   5.391   4.600
 1598SOL    HW1 9093   2.410   5.349   4.557
 1598SOL    HW2 9094   2.359   5.471   4.652
 1599SOL     OW 9095   2.010   5.445   0.976
 1599SOL    HW1 9096   1.943   5.371   0.979
 1599SOL    HW2 9097   1.982   5.518   1.039
 1600SOL     OW 9098   1.370   0.149   0.824
 1600SOL    HW1 9099   1.365   0.070   0.763
 1600SOL    HW2 9100   1.460   0.191   0.817
 1601SOL     OW 9101   0.057   2.482   0.789
 1601SOL    HW1 9102   0.139   2.498   0.735
 1601SOL    HW2 9103   5.642   2.554   0.772
 1602SOL     OW 9104   4.256   1.025   0.339
 1602SOL    HW1 9105   4.214   1.043   0.249
 1602SOL    HW2 9106   4.194   1.056   0.411
 1603SOL     OW 9107   0.998   4.980   0.357
 1603SOL    HW1 9108   1.026   5.072   0.386
 1603SOL    HW2 9109   1.067   4.914   0.386
 1604SOL     OW 9110   2.148   1.944   5.693
 1604SOL    HW1 9111   2.060   1.987   5.713
 1604SOL    HW2 9112   2.189   1.910   5.777
 1605SOL     OW 9113   0.270   1.660   1.721
 1605SOL    HW1 9114   0.365   1.633   1.733
 1605SOL    HW2 9115   0.257   1.754   1.751
 1606SOL     OW 9116   0.578   2.541   5.368
 1606SOL    HW1 9117   0.479   2.528   5.365
 1606SOL    HW2 9118   0.601   2.633   5.336
 1607SOL     OW 9119   4.150   5.123   1.318
 1607SOL    HW1 9120   4.110   5.137   1.409
 1607SOL    HW2 9121   4.221   5.052   1.324
 1608SOL     OW 9122   1.284   2.535   5.347
 1608SOL    HW1 9123   1.356   2.474   5.313
 1608SOL    HW2 9124   1.203   2.481   5.371
 1609SOL     OW 9125   5.225   1.258   1.960
 1609SOL    HW1 9126   5.206   1.256   2.059
 1609SOL    HW2 9127   5.318   1.292   1.945
 1610SOL     OW 9128   4.893   5.103   6.323
 1610SOL    HW1 9129   4.850   5.085   6.412
 1610SOL    HW2 9130   4.985   5.138   6.338
 1611SOL     OW 9131   4.245   3.246   0.462
 1611SOL    HW1 9132   4.293   3.333   0.461
 1611SOL    HW2 9133   4.146   3.262   0.464
 1612SOL     OW 9134   0.270   4.781   6.314
 1612SOL    HW1 9135   0.285   4.846   6.240
 1612SOL    HW2 9136   0.172   4.771   6.331
 1613SOL     OW 9137   2.783   2.773   1.303
 1613SOL    HW1 9138   2.819   2.681   1.322
 1613SOL    HW2 9139   2.690   2.766   1.267
 1614SOL     OW 9140   5.266   4.177   1.576
 1614SOL    HW1 9141   5.346   4.117   1.577
 1614SOL    HW2 9142   5.226   4.180   1.668
 1615SOL     OW 9143   3.391   3.090   5.565
 1615SOL    HW1 9144   3.343   3.068   5.650
 1615SOL    HW2 9145   3.473   3.143   5.586
 1616SOL     OW 9146   1.034   2.935   0.788
 1616SOL    HW1 9147   0.986   2.850   0.811
 1616SOL    HW2 9148   0.981   3.013   0.821
 1617SOL     OW 9149   0.244   1.224   6.137
 1617SOL    HW1 9150   0.317   1.224   6.205
 1617SOL    HW2 9151   0.279   1.259   6.051
 1618SOL     OW 9152   3.349   2.006   6.380
 1618SOL    HW1 9153   3.362   1.957   6.294
 1618SOL    HW2 9154   3.268   1.972   6.428
 1619SOL     OW 9155   1.685   2.110   5.024
 1619SOL    HW1 9156   1.765   2.049   5.022
 1619SOL    HW2 9157   1.715   2.203   5.001
 1620SOL     OW 9158   1.623   3.539   1.464
 1620SOL    HW1 9159   1.540   3.590   1.487
 1620SOL    HW2 9160   1.688   3.544   1.540
 1621SOL     OW 9161   3.320   0.408   4.968
 1621SOL    HW1 9162   3.332   0.368   4.878
 1621SOL    HW2 9163   3.226   0.439   4.980
 1622SOL     OW 9164   2.331   4.640   0.551
 1622SOL    HW1 9165   2.312   4.562   0.611
 1622SOL    HW2 9166   2.253   4.655   0.490
 1623SOL     OW 9167   3.400   4.508   5.431
 1623SOL    HW1 9168   3.467   4.582   5.426
 1623SOL    HW2 9169   3.421   4.440   5.361
 1624SOL     OW 9170   3.265   4.634   1.394
 1624SOL    HW1 9171   3.197   4.581   1.445
 1624SOL    HW2 9172   3.226   4.723   1.369
 1625SOL     OW 9173   4.781   0.823   4.867
 1625SOL    HW1 9174   4.748   0.861   4.781
 1625SOL    HW2 9175   4.703   0.789   4.920
 1626SOL     OW 9176   1.328   1.291   1.691
 1626SOL    HW1 9177   1.320   1.371   1.750
 1626SOL    HW2 9178   1.238   1.252   1.676
 1627SOL     OW 9179   0.168   4.647   0.481
 1627SOL    HW1 9180   0.181   4.698   0.566
 1627SOL    HW2 9181   0.073   4.657   0.451
 1628SOL     OW 9182   2.686   0.276   6.362
 1628SOL    HW1 9183   2.742   0.278   6.445
 1628SOL    HW2 9184   2.731   0.330   6.290
 1629SOL     OW 9185   1.262   3.604   1.732
 1629SOL    HW1 9186   1.170   3.637   1.712
 1629SOL    HW2 9187   1.269   3.578   1.828
 1630SOL     OW 9188   0.224   1.636   0.047
 1630SOL    HW1 9189   0.211   1.537   0.035
 1630SOL    HW2 9190   0.318   1.660   0.024
 1631SOL     OW 9191   5.284   0.040   0.100
 1631SOL    HW1 9192   5.268   0.089   0.186
 1631SOL    HW2 9193   5.247   0.092   0.024
 1632SOL     OW 9194   4.062   4.406   0.973
 1632SOL    HW1 9195   3.993   4.452   1.028
 1632SOL    HW2 9196   4.031   4.400   0.878
 1633SOL     OW 9197   3.446   4.927   6.055
 1633SOL    HW1 9198   3.349   4.917   6.073
 1633SOL    HW2 9199   3.481   5.008   6.102
 1634SOL     OW 9200   1.354   4.325   0.456
 1634SOL    HW1 9201   1.359   4.265   0.536
 1634SOL    HW2 9202   1.271   4.381   0.462
 1635SOL     OW 9203   3.711   0.676   6.217
 1635SOL    HW1 9204   3.639   0.738   6.247
 1635SOL    HW2 9205   3.759   0.716   6.139
 1636SOL     OW 9206   1.095   4.686   0.162
 1636SOL    HW1 9207   1.120   4.689   0.259
 1636SOL    HW2 9208   1.092   4.779   0.125
 1637SOL     OW 9209   4.290   1.748   2.204
 1637SOL    HW1 9210   4.390   1.739   2.202
 1637SOL    HW2 9211   4.258   1.744   2.298
 1638SOL     OW 9212   5.313   2.259   6.406
 1638SOL    HW1 9213   5.354   2.297   6.323
 1638SOL    HW2 9214   5.223   2.300   6.422
 1639SOL     OW 9215   1.929   3.971   5.825
 1639SOL    HW1 9216   1.992   3.901   5.859
 1639SOL    HW2 9217   1.858   3.928   5.770
 1640SOL     OW 9218   2.664   2.400   6.111
 1640SOL    HW1 9219   2.621   2.311   6.099
 1640SOL    HW2 9220   2.682   2.415   6.208
 1641SOL     OW 9221   0.713   1.429   1.083
 1641SOL    HW1 9222   0.709   1.451   1.180
 1641SOL    HW2 9223   0.783   1.358   1.067
 1642SOL     OW 9224   2.291   4.683   5.712
 1642SOL    HW1 9225   2.361   4.623   5.674
 1642SOL    HW2 9226   2.200   4.650   5.684
 1643SOL     OW 9227   0.347   3.677   1.153
 1643SOL    HW1 9228   0.251   3.664   1.179
 1643SOL    HW2 9229   0.382   3.761   1.195
 1644SOL     OW 9230   4.579   4.886   1.154
 1644SOL    HW1 9231   4.590   4.963   1.091
 1644SOL    HW2 9232   4.639   4.898   1.233
 1645SOL     OW 9233   4.804   0.473   1.168
 1645SOL    HW1 9234   4.883   0.470   1.229
 1645SOL    HW2 9235   4.724   0.508   1.217
 1646SOL     OW 9236   2.931   4.435   0.978
 1646SOL    HW1 9237   2.968   4.458   1.068
 1646SOL    HW2 9238   2.934   4.515   0.919
 1647SOL     OW 9239   0.380   1.519   6.279
 1647SOL    HW1 9240   0.298   1.539   6.225
 1647SOL    HW2 9241   0.385   1.421   6.297
 1648SOL     OW 9242   4.855   0.900   0.062
 1648SOL    HW1 9243   4.783   0.861   0.120
 1648SOL    HW2 9244   4.867   0.997   0.085
 1649SOL     OW 9245   2.416   3.007   0.329
 1649SOL    HW1 9246   2.497   2.997   0.273
 1649SOL    HW2 9247   2.389   2.917   0.365
 1650SOL     OW 9248   1.759   0.745   5.898
 1650SOL    HW1 9249   1.806   0.663   5.865
 1650SOL    HW2 9250   1.700   0.722   5.975
 1651SOL     OW 9251   3.941   2.879   1.027
 1651SOL    HW1 9252   3.884   2.945   0.978
 1651SOL    HW2 9253   3.919   2.786   0.998
 1652SOL     OW 9254   2.681   2.725   6.148
 1652SOL    HW1 9255   2.644   2.678   6.069
 1652SOL    HW2 9256   2.609   2.778   6.193
 1653SOL     OW 9257   2.984   0.532   4.862
 1653SOL    HW1 9258   3.014   0.457   4.803
 1653SOL    HW2 9259   3.051   0.607   4.857
 1654SOL     OW 9260   2.210   4.966   4.872
 1654SOL    HW1 9261   2.140   4.980   4.802
 1654SOL    HW2 9262   2.274   4.895   4.843
 1655SOL     OW 9263   0.626   2.031   0.625
 1655SOL    HW1 9264   0.550   2.062   0.567
 1655SOL    HW2 9265   0.711   2.032   0.571
 1656SOL     OW 9266   0.963   5.056   1.934
 1656SOL    HW1 9267   1.024   5.018   2.003
 1656SOL    HW2 9268   0.868   5.047   1.964
 1657SOL     OW 9269   2.514   3.083   6.457
 1657SOL    HW1 9270   2.549   3.176   6.453
 1657SOL    HW2 9271   2.550   3.037   0.039
 1658SOL     OW 9272   5.510   4.596   6.007
 1658SOL    HW1 9273   5.562   4.600   5.922
 1658SOL    HW2 9274   5.472   4.504   6.019
 1659SOL     OW 9275   1.288   1.069   6.058
 1659SOL    HW1 9276   1.321   1.163   6.054
 1659SOL    HW2 9277   1.346   1.011   6.001
 1660SOL     OW 9278   5.570   5.492   6.367
 1660SOL    HW1 9279   5.494   5.442   6.325
 1660SOL    HW2 9280   5.622   5.430   6.426
 1661SOL     OW 9281   2.624   1.871   0.957
 1661SOL    HW1 9282   2.718   1.887   0.988
 1661SOL    HW2 9283   2.562   1.932   1.006
 1662SOL     OW 9284   4.594   0.555   1.340
 1662SOL    HW1 9285   4.533   0.632   1.358
 1662SOL    HW2 9286   4.641   0.529   1.425
 1663SOL     OW 9287   1.672   2.173   1.452
 1663SOL    HW1 9288   1.636   2.157   1.544
 1663SOL    HW2 9289   1.758   2.223   1.457
 1664SOL     OW 9290   1.441   2.259   5.903
 1664SOL    HW1 9291   1.352   2.296   5.879
 1664SOL    HW2 9292   1.461   2.280   5.999
 1665SOL     OW 9293   1.327   3.726   5.992
 1665SOL    HW1 9294   1.419   3.738   6.030
 1665SOL    HW2 9295   1.259   3.734   6.065
 1666SOL     OW 9296   5.173   3.265   0.029
 1666SOL    HW1 9297   5.105   3.217   6.473
 1666SOL    HW2 9298   5.143   3.268   0.124
 1667SOL     OW 9299   0.418   0.500   0.818
 1667SOL    HW1 9300   0.481   0.469   0.889
 1667SOL    HW2 9301   0.396   0.597   0.834
 1668SOL     OW 9302   0.630   0.680   6.030
 1668SOL    HW1 9303   0.637   0.701   5.932
 1668SOL    HW2 9304   0.585   0.756   6.077
 1669SOL     OW 9305   5.131   1.884   6.120
 1669SOL    HW1 9306   5.213   1.832   6.094
 1669SOL    HW2 9307   5.075   1.899   6.039
 1670SOL     OW 9308   0.664   4.907   1.423
 1670SOL    HW1 9309   0.656   4.924   1.521
 1670SOL    HW2 9310   0.573   4.900   1.383
 1671SOL     OW 9311   4.219   0.674   1.692
 1671SOL    HW1 9312   4.282   0.597   1.680
 1671SOL    HW2 9313   4.176   0.669   1.782
 1672SOL     OW 9314   4.031   0.259   6.170
 1672SOL    HW1 9315   3.962   0.288   6.104
 1672SOL    HW2 9316   4.107   0.323   6.170
 1673SOL     OW 9317   1.168   1.294   6.418
 1673SOL    HW1 9318   1.131   1.347   6.494
 1673SOL    HW2 9319   1.116   1.210   6.408
 1674SOL     OW 9320   2.479   2.206   6.015
 1674SOL    HW1 9321   2.515   2.231   5.925
 1674SOL    HW2 9322   2.408   2.272   6.041
 1675SOL     OW 9323   4.920   2.761   5.693
 1675SOL    HW1 9324   4.836   2.719   5.658
 1675SOL    HW2 9325   4.929   2.853   5.657
 1676SOL     OW 9326   4.302   2.863   6.319
 1676SOL    HW1 9327   4.323   2.905   6.230
 1676SOL    HW2 9328   4.310   2.764   6.312
 1677SOL     OW 9329   4.678   2.475   0.965
 1677SOL    HW1 9330   4.732   2.413   1.021
 1677SOL    HW2 9331   4.587   2.486   1.005
 1678SOL     OW 9332   4.470   0.909   5.605
 1678SOL    HW1 9333   4.376   0.903   5.636
 1678SOL    HW2 9334   4.472   0.933   5.508
 1679SOL     OW 9335   1.992   3.723   1.585
 1679SOL    HW1 9336   2.072   3.721   1.645
 1679SOL    HW2 9337   1.949   3.813   1.589
 1680SOL     OW 9338   5.524   3.157   0.354
 1680SOL    HW1 9339   5.502   3.188   0.261
 1680SOL    HW2 9340   5.581   3.075   0.349
 1681SOL     OW 9341   4.547   1.229   2.008
 1681SOL    HW1 9342   4.636   1.201   1.972
 1681SOL    HW2 9343   4.518   1.164   2.079
 1682SOL     OW 9344   0.815   3.269   5.413
 1682SOL    HW1 9345   0.810   3.339   5.343
 1682SOL    HW2 9346   0.910   3.262   5.446
 1683SOL     OW 9347   2.731   0.580   5.684
 1683SOL    HW1 9348   2.684   0.519   5.748
 1683SOL    HW2 9349   2.830   0.569   5.693
 1684SOL     OW 9350   5.604   0.135   0.781
 1684SOL    HW1 9351   5.570   0.051   0.740
 1684SOL    HW2 9352   5.564   0.146   0.872
 1685SOL     OW 9353   1.359   4.869   0.105
 1685SOL    HW1 9354   1.400   4.839   0.019
 1685SOL    HW2 9355   1.266   4.900   0.088
 1686SOL     OW 9356   0.801   3.638   5.552
 1686SOL    HW1 9357   0.722   3.696   5.532
 1686SOL    HW2 9358   0.771   3.546   5.575
 1687SOL     OW 9359   1.212   4.517   6.096
 1687SOL    HW1 9360   1.176   4.606   6.067
 1687SOL    HW2 9361   1.136   4.457   6.121
 1688SOL     OW 9362   5.123   4.859   5.812
 1688SOL    HW1 9363   5.105   4.804   5.894
 1688SOL    HW2 9364   5.073   4.820   5.734
 1689SOL     OW 9365   1.681   1.470   4.785
 1689SOL    HW1 9366   1.764   1.438   4.831
 1689SOL    HW2 9367   1.633   1.392   4.745
 1690SOL     OW 9368   5.621   0.007   1.570
 1690SOL    HW1 9369   0.040   0.012   1.641
 1690SOL    HW2 9370   5.602   0.099   1.536
 1691SOL     OW 9371   4.895   4.689   6.220
 1691SOL    HW1 9372   4.799   4.701   6.192
 1691SOL    HW2 9373   4.906   4.599   6.263
 1692SOL     OW 9374   4.639   5.514   1.768
 1692SOL    HW1 9375   4.662   0.031   1.735
 1692SOL    HW2 9376   4.577   5.521   1.846
 1693SOL     OW 9377   5.142   0.364   5.612
 1693SOL    HW1 9378   5.182   0.316   5.534
 1693SOL    HW2 9379   5.194   0.448   5.629
 1694SOL     OW 9380   0.577   2.690   1.278
 1694SOL    HW1 9381   0.613   2.637   1.355
 1694SOL    HW2 9382   0.512   2.758   1.311
 1695SOL     OW 9383   4.124   5.095   0.181
 1695SOL    HW1 9384   4.201   5.138   0.229
 1695SOL    HW2 9385   4.051   5.075   0.247
 1696SOL     OW 9386   5.620   0.291   6.130
 1696SOL    HW1 9387   5.628   0.293   6.030
 1696SOL    HW2 9388   0.050   0.333   6.171
 1697SOL     OW 9389   2.074   1.611   0.903
 1697SOL    HW1 9390   2.105   1.550   0.975
 1697SOL    HW2 9391   2.152   1.656   0.861
 1698SOL     OW 9392   0.627   5.160   5.650
 1698SOL    HW1 9393   0.684   5.108   5.587
 1698SOL    HW2 9394   0.633   5.257   5.628
 1699SOL     OW 9395   2.221   3.572   6.189
 1699SOL    HW1 9396   2.173   3.485   6.197
 1699SOL    HW2 9397   2.155   3.647   6.185
 1700SOL     OW 9398   5.199   1.126   0.059
 1700SOL    HW1 9399   5.279   1.097   0.006
 1700SOL    HW2 9400   5.193   1.071   0.142
 1701SOL     OW 9401   1.087   4.191   5.147
 1701SOL    HW1 9402   1.119   4.097   5.161
 1701SOL    HW2 9403   0.989   4.196   5.167
 1702SOL     OW 9404   4.712   4.406   0.444
 1702SOL    HW1 9405   4.732   4.408   0.346
 1702SOL    HW2 9406   4.650   4.481   0.467
 1703SOL     OW 9407   0.504   1.244   0.758
 1703SOL    HW1 9408   0.548   1.190   0.686
 1703SOL    HW2 9409   0.472   1.330   0.719
 1704SOL     OW 9410   1.635   0.785   6.453
 1704SOL    HW1 9411   1.631   0.735   0.041
 1704SOL    HW2 9412   1.716   0.757   6.402
 1705SOL     OW 9413   0.699   3.897   0.236
 1705SOL    HW1 9414   0.657   3.823   0.290
 1705SOL    HW2 9415   0.636   3.974   0.231
 1706SOL     OW 9416   4.004   0.080   1.931
 1706SOL    HW1 9417   3.978   0.069   2.027
 1706SOL    HW2 9418   4.085   0.024   1.912
 1707SOL     OW 9419   5.441   2.925   1.232
 1707SOL    HW1 9420   5.475   2.953   1.142
 1707SOL    HW2 9421   5.510   2.945   1.301
 1708SOL     OW 9422   3.124   4.879   6.406
 1708SOL    HW1 9423   3.185   4.896   6.483
 1708SOL    HW2 9424   3.059   4.807   6.430
 1709SOL     OW 9425   1.466   2.310   5.196
 1709SOL    HW1 9426   1.563   2.321   5.218
 1709SOL    HW2 9427   1.457   2.287   5.099
 1710SOL     OW 9428   4.369   3.489   0.487
 1710SOL    HW1 9429   4.287   3.545   0.474
 1710SOL    HW2 9430   4.451   3.544   0.468
 1711SOL     OW 9431   0.890   4.756   1.414
 1711SOL    HW1 9432   0.811   4.818   1.417
 1711SOL    HW2 9433   0.858   4.662   1.405
 1712SOL     OW 9434   3.910   2.565   5.857
 1712SOL    HW1 9435   3.919   2.664   5.858
 1712SOL    HW2 9436   3.822   2.539   5.818
 1713SOL     OW 9437   0.198   2.372   5.105
 1713SOL    HW1 9438   0.118   2.318   5.080
 1713SOL    HW2 9439   0.227   2.426   5.027
 1714SOL     OW 9440   1.715   4.517   5.529
 1714SOL    HW1 9441   1.705   4.547   5.435
 1714SOL    HW2 9442   1.738   4.419   5.530
 1715SOL     OW 9443   1.360   5.250   0.811
 1715SOL    HW1 9444   1.457   5.232   0.829
 1715SOL    HW2 9445   1.317   5.166   0.777
 1716SOL     OW 9446   2.987   0.535   2.481
 1716SOL    HW1 9447   2.890   0.524   2.505
 1716SOL    HW2 9448   3.027   0.607   2.538
 1717SOL     OW 9449   4.522   0.242   5.920
 1717SOL    HW1 9450   4.567   0.320   5.875
 1717SOL    HW2 9451   4.582   0.163   5.918
 1718SOL     OW 9452   3.015   1.467   1.910
 1718SOL    HW1 9453   3.098   1.492   1.960
 1718SOL    HW2 9454   2.948   1.427   1.974
 1719SOL     OW 9455   0.991   4.273   0.345
 1719SOL    HW1 9456   0.983   4.311   0.252
 1719SOL    HW2 9457   0.904   4.232   0.371
 1720SOL     OW 9458   1.593   4.246   0.842
 1720SOL    HW1 9459   1.527   4.236   0.767
 1720SOL    HW2 9460   1.577   4.174   0.910
 1721SOL     OW 9461   0.864   4.666   0.465
 1721SOL    HW1 9462   0.832   4.701   0.553
 1721SOL    HW2 9463   0.958   4.697   0.450
 1722SOL     OW 9464   0.237   4.973   5.771
 1722SOL    HW1 9465   0.262   5.047   5.709
 1722SOL    HW2 9466   0.188   5.010   5.850
 1723SOL     OW 9467   1.909   1.964   4.991
 1723SOL    HW1 9468   1.904   1.866   5.011
 1723SOL    HW2 9469   1.930   1.978   4.895
 1724SOL     OW 9470   2.110   0.868   0.555
 1724SOL    HW1 9471   2.082   0.963   0.538
 1724SOL    HW2 9472   2.117   0.820   0.468
 1725SOL     OW 9473   2.635   5.217   6.353
 1725SOL    HW1 9474   2.610   5.185   6.262
 1725SOL    HW2 9475   2.591   5.305   6.371
 1726SOL     OW 9476   4.266   0.196   0.533
 1726SOL    HW1 9477   4.179   0.156   0.560
 1726SOL    HW2 9478   4.254   0.252   0.451
 1727SOL     OW 9479   1.253   1.528   1.821
 1727SOL    HW1 9480   1.163   1.542   1.861
 1727SOL    HW2 9481   1.321   1.578   1.875
 1728SOL     OW 9482   3.805   3.087   1.333
 1728SOL    HW1 9483   3.863   3.006   1.321
 1728SOL    HW2 9484   3.849   3.165   1.289
 1729SOL     OW 9485   0.670   3.339   1.173
 1729SOL    HW1 9486   0.609   3.368   1.247
 1729SOL    HW2 9487   0.687   3.417   1.112
 1730SOL     OW 9488   2.480   0.283   0.323
 1730SOL    HW1 9489   2.475   0.264   0.225
 1730SOL    HW2 9490   2.557   0.345   0.341
 1731SOL     OW 9491   2.618   1.792   4.888
 1731SOL    HW1 9492   2.603   1.694   4.874
 1731SOL    HW2 9493   2.666   1.830   4.810
 1732SOL     OW 9494   0.294   2.528   0.663
 1732SOL    HW1 9495   0.287   2.552   0.566
 1732SOL    HW2 9496   0.351   2.596   0.710
 1733SOL     OW 9497   2.432   3.993   0.447
 1733SOL    HW1 9498   2.395   3.960   0.533
 1733SOL    HW2 9499   2.360   4.039   0.395
 1734SOL     OW 9500   2.516   3.027   1.545
 1734SOL    HW1 9501   2.430   2.977   1.530
 1734SOL    HW2 9502   2.559   2.995   1.629
 1735SOL     OW 9503   1.462   4.582   5.977
 1735SOL    HW1 9504   1.449   4.646   5.901
 1735SOL    HW2 9505   1.373   4.550   6.009
 1736SOL     OW 9506   3.315   1.831   1.259
 1736SOL    HW1 9507   3.375   1.753   1.243
 1736SOL    HW2 9508   3.254   1.843   1.180
 1737SOL     OW 9509   3.195   1.967   5.734
 1737SOL    HW1 9510   3.159   1.880   5.700
 1737SOL    HW2 9511   3.129   2.008   5.797
 1738SOL     OW 9512   4.262   0.573   1.021
 1738SOL    HW1 9513   4.244   0.653   0.963
 1738SOL    HW2 9514   4.235   0.594   1.115
 1739SOL     OW 9515   4.238   0.820   5.770
 1739SOL    HW1 9516   4.195   0.735   5.741
 1739SOL    HW2 9517   4.318   0.799   5.827
 1740SOL     OW 9518   5.287   4.753   1.489
 1740SOL    HW1 9519   5.365   4.705   1.529
 1740SOL    HW2 9520   5.232   4.689   1.435
 1741SOL     OW 9521   1.362   4.033   1.229
 1741SOL    HW1 9522   1.371   4.132   1.218
 1741SOL    HW2 9523   1.387   4.007   1.322
 1742SOL     OW 9524   2.331   0.725   1.428
 1742SOL    HW1 9525   2.281   0.733   1.342
 1742SOL    HW2 9526   2.301   0.797   1.491
 1743SOL     OW 9527   4.045   2.510   5.532
 1743SOL    HW1 9528   4.028   2.459   5.448
 1743SOL    HW2 9529   4.045   2.447   5.610
 1744SOL     OW 9530   4.240   0.633   5.378
 1744SOL    HW1 9531   4.144   0.605   5.384
 1744SOL    HW2 9532   4.294   0.578   5.441
 1745SOL     OW 9533   3.678   2.460   5.766
 1745SOL    HW1 9534   3.673   2.385   5.700
 1745SOL    HW2 9535   3.585   2.489   5.790
 1746SOL     OW 9536   3.191   3.534   6.105
 1746SOL    HW1 9537   3.282   3.496   6.119
 1746SOL    HW2 9538   3.183   3.565   6.010
 1747SOL     OW 9539   2.457   4.900   5.661
 1747SOL    HW1 9540   2.536   4.866   5.611
 1747SOL    HW2 9541   2.399   4.823   5.688
 1748SOL     OW 9542   1.219   3.553   0.859
 1748SOL    HW1 9543   1.315   3.562   0.830
 1748SOL    HW2 9544   1.211   3.478   0.925
 1749SOL     OW 9545   2.134   1.348   0.643
 1749SOL    HW1 9546   2.058   1.361   0.706
 1749SOL    HW2 9547   2.220   1.347   0.694
 1750SOL     OW 9548   1.733   5.111   5.296
 1750SOL    HW1 9549   1.808   5.127   5.233
 1750SOL    HW2 9550   1.713   5.014   5.300
 1751SOL     OW 9551   2.176   3.388   5.391
 1751SOL    HW1 9552   2.138   3.402   5.299
 1751SOL    HW2 9553   2.273   3.410   5.390
 1752SOL     OW 9554   1.933   0.241   1.348
 1752SOL    HW1 9555   1.924   0.179   1.270
 1752SOL    HW2 9556   2.006   0.209   1.408
 1753SOL     OW 9557   1.916   4.522   0.871
 1753SOL    HW1 9558   1.900   4.526   0.772
 1753SOL    HW2 9559   1.999   4.574   0.893
 1754SOL     OW 9560   3.346   5.448   1.566
 1754SOL    HW1 9561   3.328   5.532   1.515
 1754SOL    HW2 9562   3.311   5.457   1.660
 1755SOL     OW 9563   5.393   3.020   5.961
 1755SOL    HW1 9564   5.351   3.093   5.909
 1755SOL    HW2 9565   5.371   3.031   6.058
 1756SOL     OW 9566   1.507   3.427   0.775
 1756SOL    HW1 9567   1.505   3.421   0.875
 1756SOL    HW2 9568   1.554   3.347   0.738
 1757SOL     OW 9569   1.265   5.002   5.508
 1757SOL    HW1 9570   1.328   4.945   5.455
 1757SOL    HW2 9571   1.177   5.006   5.461
 1758SOL     OW 9572   2.918   4.099   0.737
 1758SOL    HW1 9573   2.847   4.089   0.667
 1758SOL    HW2 9574   3.007   4.112   0.694
 1759SOL     OW 9575   2.961   2.114   4.834
 1759SOL    HW1 9576   3.011   2.052   4.773
 1759SOL    HW2 9577   2.869   2.129   4.797
 1760SOL     OW 9578   1.954   5.262   6.145
 1760SOL    HW1 9579   2.053   5.248   6.143
 1760SOL    HW2 9580   1.909   5.194   6.087
 1761SOL     OW 9581   3.888   1.677   0.284
 1761SOL    HW1 9582   3.950   1.650   0.357
 1761SOL    HW2 9583   3.903   1.621   0.203
 1762SOL     OW 9584   2.201   0.111   1.985
 1762SOL    HW1 9585   2.112   0.148   2.012
 1762SOL    HW2 9586   2.271   0.181   1.997
 1763SOL     OW 9587   0.086   3.635   1.221
 1763SOL    HW1 9588   0.074   3.537   1.235
 1763SOL    HW2 9589   0.008   3.671   1.169
 1764SOL     OW 9590   1.376   2.035   0.018
 1764SOL    HW1 9591   1.319   1.960   6.482
 1764SOL    HW2 9592   1.411   2.010   0.109
 1765SOL     OW 9593   3.544   1.572   0.826
 1765SOL    HW1 9594   3.599   1.581   0.910
 1765SOL    HW2 9595   3.455   1.533   0.849
 1766SOL     OW 9596   2.462   0.170   5.745
 1766SOL    HW1 9597   2.391   0.241   5.741
 1766SOL    HW2 9598   2.453   0.110   5.666
 1767SOL     OW 9599   2.177   3.381   1.016
 1767SOL    HW1 9600   2.248   3.374   0.945
 1767SOL    HW2 9601   2.200   3.455   1.079
 1768SOL     OW 9602   4.386   3.625   6.165
 1768SOL    HW1 9603   4.297   3.580   6.157
 1768SOL    HW2 9604   4.459   3.559   6.150
 1769SOL     OW 9605   5.282   0.063   5.558
 1769SOL    HW1 9606   5.373   0.030   5.579
 1769SOL    HW2 9607   5.288   0.136   5.490
 1770SOL     OW 9608   4.017   0.741   0.225
 1770SOL    HW1 9609   4.096   0.762   0.168
 1770SOL    HW2 9610   3.933   0.771   0.178
 1771SOL     OW 9611   2.230   4.936   0.332
 1771SOL    HW1 9612   2.170   4.974   0.402
 1771SOL    HW2 9613   2.310   4.996   0.321
 1772SOL     OW 9614   3.558   4.913   1.990
 1772SOL    HW1 9615   3.633   4.863   2.035
 1772SOL    HW2 9616   3.472   4.866   2.008
 1773SOL     OW 9617   4.072   0.167   5.439
 1773SOL    HW1 9618   4.087   0.081   5.389
 1773SOL    HW2 9619   4.154   0.224   5.430
 1774SOL     OW 9620   5.343   0.363   0.899
 1774SOL    HW1 9621   5.431   0.384   0.942
 1774SOL    HW2 9622   5.269   0.402   0.954
 1775SOL     OW 9623   0.367   2.472   5.895
 1775SOL    HW1 9624   0.355   2.442   5.989
 1775SOL    HW2 9625   0.327   2.563   5.884
 1776SOL     OW 9626   3.135   4.043   5.847
 1776SOL    HW1 9627   3.077   4.092   5.912
 1776SOL    HW2 9628   3.095   3.954   5.826
 1777SOL     OW 9629   4.983   0.739   1.401
 1777SOL    HW1 9630   4.913   0.763   1.468
 1777SOL    HW2 9631   4.977   0.641   1.380
 1778SOL     OW 9632   4.317   2.171   1.428
 1778SOL    HW1 9633   4.332   2.095   1.364
 1778SOL    HW2 9634   4.252   2.235   1.388
 1779SOL     OW 9635   0.935   0.503   5.226
 1779SOL    HW1 9636   0.926   0.591   5.270
 1779SOL    HW2 9637   0.846   0.472   5.192
 1780SOL     OW 9638   5.397   2.623   6.085
 1780SOL    HW1 9639   5.406   2.669   5.996
 1780SOL    HW2 9640   5.300   2.616   6.109
 1781SOL     OW 9641   0.775   4.415   0.560
 1781SOL    HW1 9642   0.810   4.495   0.511
 1781SOL    HW2 9643   0.739   4.443   0.648
 1782SOL     OW 9644   3.669   3.696   1.111
 1782SOL    HW1 9645   3.693   3.769   1.176
 1782SOL    HW2 9646   3.686   3.607   1.154
 1783SOL     OW 9647   2.392   3.401   4.916
 1783SOL    HW1 9648   2.424   3.331   4.852
 1783SOL    HW2 9649   2.292   3.408   4.910
 1784SOL     OW 9650   3.549   5.342   5.483
 1784SOL    HW1 9651   3.564   5.369   5.578
 1784SOL    HW2 9652   3.621   5.379   5.426
 1785SOL     OW 9653   2.833   4.080   5.617
 1785SOL    HW1 9654   2.914   4.135   5.599
 1785SOL    HW2 9655   2.776   4.077   5.534
 1786SOL     OW 9656   4.391   2.541   0.279
 1786SOL    HW1 9657   4.429   2.539   0.371
 1786SOL    HW2 9658   4.418   2.625   0.233
 1787SOL     OW 9659   4.513   4.044   0.385
 1787SOL    HW1 9660   4.570   4.090   0.454
 1787SOL    HW2 9661   4.425   4.021   0.426
 1788SOL     OW 9662   1.146   2.512   1.487
 1788SOL    HW1 9663   1.238   2.546   1.466
 1788SOL    HW2 9664   1.142   2.482   1.582
 1789SOL     OW 9665   0.540   5.427   1.331
 1789SOL    HW1 9666   0.624   5.383   1.363
 1789SOL    HW2 9667   0.463   5.395   1.386
 1790SOL     OW 9668   1.272   3.908   0.734
 1790SOL    HW1 9669   1.248   3.840   0.664
 1790SOL    HW2 9670   1.349   3.874   0.788
 1791SOL     OW 9671   1.392   3.678   1.507
 1791SOL    HW1 9672   1.342   3.639   1.430
 1791SOL    HW2 9673   1.347   3.652   1.593
 1792SOL     OW 9674   0.791   0.327   0.100
 1792SOL    HW1 9675   0.718   0.389   0.071
 1792SOL    HW2 9676   0.874   0.347   0.048
 1793SOL     OW 9677   4.017   2.116   0.621
 1793SOL    HW1 9678   4.070   2.031   0.621
 1793SOL    HW2 9679   4.057   2.181   0.557
 1794SOL     OW 9680   0.964   2.847   6.308
 1794SOL    HW1 9681   0.874   2.890   6.314
 1794SOL    HW2 9682   1.035   2.917   6.314
 1795SOL     OW 9683   1.147   4.729   0.434
 1795SOL    HW1 9684   1.234   4.766   0.465
 1795SOL    HW2 9685   1.140   4.633   0.458
 1796SOL     OW 9686   5.646   1.886   0.721
 1796SOL    HW1 9687   0.042   1.835   0.649
 1796SOL    HW2 9688   0.059   1.946   0.768
 1797SOL     OW 9689   4.216   1.160   6.011
 1797SOL    HW1 9690   4.225   1.259   6.002
 1797SOL    HW2 9691   4.242   1.133   6.104
 1798SOL     OW 9692   3.597   2.212   1.916
 1798SOL    HW1 9693   3.616   2.289   1.977
 1798SOL    HW2 9694   3.537   2.242   1.842
 1799SOL     OW 9695   3.796   2.151   5.006
 1799SOL    HW1 9696   3.727   2.079   5.017
 1799SOL    HW2 9697   3.887   2.112   5.013
 1800SOL     OW 9698   2.800   4.043   0.115
 1800SOL    HW1 9699   2.785   4.052   0.016
 1800SOL    HW2 9700   2.722   3.997   0.157
 1801SOL     OW 9701   1.007   2.590   6.379
 1801SOL    HW1 9702   1.018   2.541   6.292
 1801SOL    HW2 9703   0.994   2.687   6.361
 1802SOL     OW 9704   2.662   0.683   0.534
 1802SOL    HW1 9705   2.606   0.766   0.528
 1802SOL    HW2 9706   2.692   0.671   0.629
 1803SOL     OW 9707   4.113   3.698   5.913
 1803SOL    HW1 9708   4.182   3.695   5.841
 1803SOL    HW2 9709   4.105   3.792   5.947
 1804SOL     OW 9710   4.788   0.792   4.427
 1804SOL    HW1 9711   4.841   0.707   4.432
 1804SOL    HW2 9712   4.772   0.815   4.331
 1805SOL     OW 9713   2.943   3.415   2.084
 1805SOL    HW1 9714   2.880   3.479   2.040
 1805SOL    HW2 9715   2.927   3.323   2.049
 1806SOL     OW 9716   4.711   3.912   1.172
 1806SOL    HW1 9717   4.614   3.928   1.191
 1806SOL    HW2 9718   4.765   3.984   1.215
 1807SOL     OW 9719   4.332   2.742   0.872
 1807SOL    HW1 9720   4.376   2.668   0.923
 1807SOL    HW2 9721   4.390   2.769   0.795
 1808SOL     OW 9722   1.408   2.873   5.365
 1808SOL    HW1 9723   1.325   2.850   5.315
 1808SOL    HW2 9724   1.478   2.803   5.348
 1809SOL     OW 9725   0.334   2.913   5.487
 1809SOL    HW1 9726   0.322   2.857   5.405
 1809SOL    HW2 9727   0.361   3.006   5.460
 1810SOL     OW 9728   5.463   3.969   0.008
 1810SOL    HW1 9729   5.449   4.061   0.043
 1810SOL    HW2 9730   5.433   3.902   0.077
 1811SOL     OW 9731   3.165   1.852   1.027
 1811SOL    HW1 9732   3.065   1.847   1.036
 1811SOL    HW2 9733   3.192   1.816   0.938
 1812SOL     OW 9734   3.662   2.816   5.725
 1812SOL    HW1 9735   3.744   2.780   5.682
 1812SOL    HW2 9736   3.686   2.856   5.814
 1813SOL     OW 9737   3.604   4.301   1.508
 1813SOL    HW1 9738   3.614   4.322   1.606
 1813SOL    HW2 9739   3.634   4.207   1.491
 1814SOL     OW 9740   4.542   2.392   1.838
 1814SOL    HW1 9741   4.490   2.374   1.922
 1814SOL    HW2 9742   4.636   2.362   1.849
 1815SOL     OW 9743   2.492   4.226   0.974
 1815SOL    HW1 9744   2.513   4.138   0.930
 1815SOL    HW2 9745   2.513   4.301   0.911
 1816SOL     OW 9746   4.882   0.286   5.658
 1816SOL    HW1 9747   4.891   0.203   5.713
 1816SOL    HW2 9748   4.973   0.323   5.640
 1817SOL     OW 9749   0.071   5.289   6.482
 1817SOL    HW1 9750   0.058   5.232   0.064
 1817SOL    HW2 9751   0.067   5.233   6.400
 1818SOL     OW 9752   1.969   4.755   6.328
 1818SOL    HW1 9753   2.006   4.824   6.390
 1818SOL    HW2 9754   1.879   4.726   6.360
 1819SOL     OW 9755   2.282   2.701   0.174
 1819SOL    HW1 9756   2.227   2.773   0.130
 1819SOL    HW2 9757   2.311   2.732   0.265
 1820SOL     OW 9758   5.413   5.363   0.895
 1820SOL    HW1 9759   5.479   5.413   0.951
 1820SOL    HW2 9760   5.392   5.275   0.938
 1821SOL     OW 9761   1.331   5.029   1.960
 1821SOL    HW1 9762   1.259   4.995   2.021
 1821SOL    HW2 9763   1.380   5.103   2.004
 1822SOL     OW 9764   1.541   4.949   0.730
 1822SOL    HW1 9765   1.616   4.884   0.720
 1822SOL    HW2 9766   1.578   5.039   0.754
 1823SOL     OW 9767   4.733   4.793   0.416
 1823SOL    HW1 9768   4.661   4.726   0.438
 1823SOL    HW2 9769   4.699   4.855   0.345
 1824SOL     OW 9770   4.751   1.081   6.286
 1824SOL    HW1 9771   4.691   1.108   6.361
 1824SOL    HW2 9772   4.845   1.105   6.309
 1825SOL     OW 9773   2.909   1.568   1.431
 1825SOL    HW1 9774   2.897   1.483   1.381
 1825SOL    HW2 9775   2.968   1.552   1.511
 1826SOL     OW 9776   3.021   4.251   5.513
 1826SOL    HW1 9777   2.960   4.305   5.455
 1826SOL    HW2 9778   3.089   4.311   5.555
 1827SOL     OW 9779   2.484   0.610   0.052
 1827SOL    HW1 9780   2.579   0.589   0.074
 1827SOL    HW2 9781   2.455   0.692   0.100
 1828SOL     OW 9782   4.547   2.848   0.382
 1828SOL    HW1 9783   4.512   2.823   0.292
 1828SOL    HW2 9784   4.637   2.805   0.395
 1829SOL     OW 9785   0.473   3.477   1.330
 1829SOL    HW1 9786   0.399   3.414   1.355
 1829SOL    HW2 9787   0.437   3.546   1.267
 1830SOL     OW 9788   5.479   3.389   5.743
 1830SOL    HW1 9789   5.538   3.420   5.817
 1830SOL    HW2 9790   5.462   3.465   5.680
 1831SOL     OW 9791   1.795   0.907   1.087
 1831SOL    HW1 9792   1.741   0.894   1.171
 1831SOL    HW2 9793   1.775   0.997   1.048
 1832SOL     OW 9794   0.272   3.348   2.201
 1832SOL    HW1 9795   0.186   3.390   2.229
 1832SOL    HW2 9796   0.347   3.412   2.218
 1833SOL     OW 9797   4.276   1.263   6.478
 1833SOL    HW1 9798   4.250   1.341   6.421
 1833SOL    HW2 9799   4.339   1.293   0.051
 1834SOL     OW 9800   0.868   0.925   0.114
 1834SOL    HW1 9801   0.809   0.960   0.041
 1834SOL    HW2 9802   0.845   0.830   0.133
 1835SOL     OW 9803   2.554   0.727   5.306
 1835SOL    HW1 9804   2.470   0.682   5.275
 1835SOL    HW2 9805   2.627   0.711   5.240
 1836SOL     OW 9806   1.117   4.464   0.494
 1836SOL    HW1 9807   1.096   4.442   0.589
 1836SOL    HW2 9808   1.067   4.401   0.434
 1837SOL     OW 9809   3.853   4.974   0.742
 1837SOL    HW1 9810   3.901   5.043   0.796
 1837SOL    HW2 9811   3.898   4.886   0.753
 1838SOL     OW 9812   2.437   5.111   0.284
 1838SOL    HW1 9813   2.387   5.195   0.263
 1838SOL    HW2 9814   2.496   5.088   0.207
 1839SOL     OW 9815   0.612   2.067   6.089
 1839SOL    HW1 9816   0.622   2.165   6.106
 1839SOL    HW2 9817   0.700   2.021   6.105
 1840SOL     OW 9818   0.996   1.573   1.926
 1840SOL    HW1 9819   0.900   1.561   1.903
 1840SOL    HW2 9820   1.017   1.525   2.011
 1841SOL     OW 9821   4.456   1.414   5.100
 1841SOL    HW1 9822   4.543   1.431   5.146
 1841SOL    HW2 9823   4.470   1.411   5.001
 1842SOL     OW 9824   5.356   0.882   1.157
 1842SOL    HW1 9825   5.373   0.927   1.069
 1842SOL    HW2 9826   5.259   0.893   1.181
 1843SOL     OW 9827   2.234   0.499   1.110
 1843SOL    HW1 9828   2.191   0.586   1.134
 1843SOL    HW2 9829   2.246   0.444   1.192
 1844SOL     OW 9830   3.315   5.257   1.377
 1844SOL    HW1 9831   3.331   5.322   1.451
 1844SOL    HW2 9832   3.401   5.212   1.352
 1845SOL     OW 9833   5.098   0.624   0.467
 1845SOL    HW1 9834   5.197   0.610   0.465
 1845SOL    HW2 9835   5.059   0.591   0.381
 1846SOL     OW 9836   2.905   0.126   5.690
 1846SOL    HW1 9837   2.992   0.111   5.644
 1846SOL    HW2 9838   2.832   0.138   5.622
 1847SOL     OW 9839   4.850   4.053   5.849
 1847SOL    HW1 9840   4.773   4.055   5.785
 1847SOL    HW2 9841   4.935   4.046   5.798
 1848SOL     OW 9842   0.752   2.267   5.734
 1848SOL    HW1 9843   0.701   2.330   5.794
 1848SOL    HW2 9844   0.719   2.174   5.749
 1849SOL     OW 9845   5.106   0.786   0.082
 1849SOL    HW1 9846   5.011   0.818   0.078
 1849SOL    HW2 9847   5.152   0.807   6.495
 1850SOL     OW 9848   1.621   3.665   0.697
 1850SOL    HW1 9849   1.580   3.579   0.725
 1850SOL    HW2 9850   1.719   3.654   0.686
 1851SOL     OW 9851   0.849   3.144   6.106
 1851SOL    HW1 9852   0.822   3.240   6.102
 1851SOL    HW2 9853   0.856   3.107   6.013
 1852SOL     OW 9854   1.432   3.086   5.543
 1852SOL    HW1 9855   1.379   3.065   5.625
 1852SOL    HW2 9856   1.422   3.012   5.477
 1853SOL     OW 9857   4.689   1.200   4.912
 1853SOL    HW1 9858   4.614   1.264   4.894
 1853SOL    HW2 9859   4.735   1.179   4.826
 1854SOL     OW 9860   2.506   4.812   5.044
 1854SOL    HW1 9861   2.470   4.797   4.953
 1854SOL    HW2 9862   2.605   4.796   5.044
 1855SOL     OW 9863   1.630   3.205   0.676
 1855SOL    HW1 9864   1.614   3.193   0.578
 1855SOL    HW2 9865   1.621   3.117   0.722
 1856SOL     OW 9866   5.344   3.463   0.273
 1856SOL    HW1 9867   5.318   3.493   0.181
 1856SOL    HW2 9868   5.279   3.499   0.339
 1857SOL     OW 9869   4.715   0.361   6.294
 1857SOL    HW1 9870   4.810   0.381   6.319
 1857SOL    HW2 9871   4.694   0.403   6.206
 1858SOL     OW 9872   2.072   2.252   0.502
 1858SOL    HW1 9873   2.125   2.325   0.459
 1858SOL    HW2 9874   2.067   2.268   0.601
 1859SOL     OW 9875   3.790   4.455   6.369
 1859SOL    HW1 9876   3.880   4.452   6.412
 1859SOL    HW2 9877   3.794   4.409   6.280
 1860SOL     OW 9878   1.583   3.756   6.097
 1860SOL    HW1 9879   1.663   3.696   6.094
 1860SOL    HW2 9880   1.562   3.779   6.192
 1861SOL     OW 9881   2.235   5.548   1.282
 1861SOL    HW1 9882   2.294   5.472   1.253
 1861SOL    HW2 9883   2.247   0.051   1.218
 1862SOL     OW 9884   4.233   1.187   5.720
 1862SOL    HW1 9885   4.144   1.168   5.678
 1862SOL    HW2 9886   4.231   1.158   5.816
 1863SOL     OW 9887   4.094   3.022   0.215
 1863SOL    HW1 9888   4.161   3.041   0.144
 1863SOL    HW2 9889   4.036   3.103   0.228
 1864SOL     OW 9890   0.150   3.728   1.474
 1864SOL    HW1 9891   0.061   3.738   1.519
 1864SOL    HW2 9892   0.137   3.695   1.381
 1865SOL     OW 9893   3.852   2.258   6.290
 1865SOL    HW1 9894   3.882   2.297   6.377
 1865SOL    HW2 9895   3.867   2.325   6.217
 1866SOL     OW 9896   3.082   0.270   0.782
 1866SOL    HW1 9897   3.039   0.301   0.697
 1866SOL    HW2 9898   3.012   0.238   0.845
 1867SOL     OW 9899   1.071   1.019   1.097
 1867SOL    HW1 9900   1.056   0.955   1.023
 1867SOL    HW2 9901   1.111   0.971   1.175
 1868SOL     OW 9902   5.305   2.356   5.386
 1868SOL    HW1 9903   5.355   2.314   5.310
 1868SOL    HW2 9904   5.222   2.399   5.351
 1869SOL     OW 9905   0.636   1.540   5.965
 1869SOL    HW1 9906   0.644   1.613   6.033
 1869SOL    HW2 9907   0.557   1.556   5.907
 1870SOL     OW 9908   3.112   1.953   4.675
 1870SOL    HW1 9909   3.052   1.886   4.632
 1870SOL    HW2 9910   3.163   2.003   4.605
 1871SOL     OW 9911   3.195   1.790   5.116
 1871SOL    HW1 9912   3.192   1.691   5.100
 1871SOL    HW2 9913   3.225   1.836   5.033
 1872SOL     OW 9914   0.513   5.065   2.219
 1872SOL    HW1 9915   0.467   5.001   2.280
 1872SOL    HW2 9916   0.447   5.133   2.187
 1873SOL     OW 9917   4.983   1.153   1.335
 1873SOL    HW1 9918   5.027   1.076   1.287
 1873SOL    HW2 9919   4.904   1.119   1.386
 1874SOL     OW 9920   5.397   1.688   1.956
 1874SOL    HW1 9921   5.430   1.738   1.876
 1874SOL    HW2 9922   5.470   1.630   1.991
 1875SOL     OW 9923   2.027   3.265   0.322
 1875SOL    HW1 9924   1.975   3.189   0.362
 1875SOL    HW2 9925   2.124   3.241   0.320
 1876SOL     OW 9926   3.809   0.124   1.746
 1876SOL    HW1 9927   3.817   0.217   1.710
 1876SOL    HW2 9928   3.880   0.107   1.814
 1877SOL     OW 9929   3.870   3.525   1.494
 1877SOL    HW1 9930   3.867   3.625   1.493
 1877SOL    HW2 9931   3.819   3.490   1.572
 1878SOL     OW 9932   2.563   1.585   5.237
 1878SOL    HW1 9933   2.541   1.535   5.321
 1878SOL    HW2 9934   2.491   1.653   5.219
 1879SOL     OW 9935   1.915   4.329   0.028
 1879SOL    HW1 9936   1.877   4.366   6.443
 1879SOL    HW2 9937   1.989   4.266   0.006
 1880SOL     OW 9938   4.293   0.094   0.823
 1880SOL    HW1 9939   4.289   0.185   0.780
 1880SOL    HW2 9940   4.255   0.100   0.916
 1881SOL     OW 9941   4.398   4.540   1.620
 1881SOL    HW1 9942   4.367   4.457   1.574
 1881SOL    HW2 9943   4.446   4.515   1.704
 1882SOL     OW 9944   2.759   2.158   2.106
 1882SOL    HW1 9945   2.727   2.083   2.048
 1882SOL    HW2 9946   2.856   2.175   2.088
 1883SOL     OW 9947   3.758   3.369   0.666
 1883SOL    HW1 9948   3.750   3.361   0.766
 1883SOL    HW2 9949   3.753   3.465   0.640
 1884SOL     OW 9950   1.677   5.151   1.626
 1884SOL    HW1 9951   1.583   5.120   1.610
 1884SOL    HW2 9952   1.705   5.126   1.718
 1885SOL     OW 9953   5.314   4.646   0.472
 1885SOL    HW1 9954   5.260   4.711   0.419
 1885SOL    HW2 9955   5.276   4.638   0.564
 1886SOL     OW 9956   1.798   2.813   4.521
 1886SOL    HW1 9957   1.758   2.883   4.462
 1886SOL    HW2 9958   1.897   2.809   4.507
 1887SOL     OW 9959   2.599   5.041   0.064
 1887SOL    HW1 9960   2.613   5.109   6.491
 1887SOL    HW2 9961   2.683   5.032   0.118
 1888SOL     OW 9962   3.824   0.840   5.993
 1888SOL    HW1 9963   3.910   0.881   5.963
 1888SOL    HW2 9964   3.765   0.823   5.913
 1889SOL     OW 9965   4.972   1.982   5.550
 1889SOL    HW1 9966   4.900   1.993   5.619
 1889SOL    HW2 9967   4.985   2.068   5.501
 1890SOL     OW 9968   1.943   4.064   0.696
 1890SOL    HW1 9969   1.906   4.102   0.612
 1890SOL    HW2 9970   1.914   4.120   0.774
 1891SOL     OW 9971   3.717   1.737   5.545
 1891SOL    HW1 9972   3.662   1.801   5.599
 1891SOL    HW2 9973   3.768   1.787   5.476
 1892SOL     OW 9974   0.452   0.491   5.643
 1892SOL    HW1 9975   0.414   0.466   5.732
 1892SOL    HW2 9976   0.386   0.546   5.592
 1893SOL     OW 9977   3.871   2.456   0.669
 1893SOL    HW1 9978   3.883   2.423   0.575
 1893SOL    HW2 9979   3.960   2.458   0.715
 1894SOL     OW 9980   4.670   2.609   0.008
 1894SOL    HW1 9981   4.599   2.666   0.049
 1894SOL    HW2 9982   4.760   2.648   0.028
 1895SOL     OW 9983   2.445   2.652   6.458
 1895SOL    HW1 9984   2.383   2.669   0.035
 1895SOL    HW2 9985   2.452   2.735   6.402
 1896SOL     OW 9986   2.875   0.856   5.071
 1896SOL    HW1 9987   2.909   0.905   4.991
 1896SOL    HW2 9988   2.826   0.774   5.042
 1897SOL     OW 9989   3.624   1.896   1.767
 1897SOL    HW1 9990   3.564   1.934   1.837
 1897SOL    HW2 9991   3.682   1.825   1.809
 1898SOL     OW 9992   4.103   3.974   5.963
 1898SOL    HW1 9993   4.180   3.960   6.025
 1898SOL    HW2 9994   4.123   4.049   5.901
 1899SOL     OW 9995   2.480   2.844   0.728
 1899SOL    HW1 9996   2.543   2.844   0.805
 1899SOL    HW2 9997   2.475   2.936   0.689
 1900SOL     OW 9998   4.669   4.547   5.747
 1900SOL    HW1 9999   4.629   4.580   5.661
 1900SOL    HW210000   4.722   4.464   5.729
 1901SOL     OW10001   4.237   3.599   0.762
 1901SOL    HW110002   4.327   3.556   0.771
 1901SOL    HW210003   4.199   3.579   0.672
 1902SOL     OW10004   5.075   4.574   1.803
 1902SOL    HW110005   5.051   4.552   1.897
 1902SOL    HW210006   5.032   4.508   1.741
 1903SOL     OW10007   0.142   1.179   0.417
 1903SOL    HW110008   0.077   1.123   0.468
 1903SOL    HW210009   0.203   1.121   0.364
 1904SOL     OW10010   4.922   2.532   2.052
 1904SOL    HW110011   4.944   2.525   2.149
 1904SOL    HW210012   4.851   2.601   2.039
 1905SOL     OW10013   0.700   4.781   0.066
 1905SOL    HW110014   0.741   4.773   6.474
 1905SOL    HW210015   0.600   4.783   0.057
 1906SOL     OW10016   3.084   0.311   4.741
 1906SOL    HW110017   3.182   0.303   4.727
 1906SOL    HW210018   3.040   0.222   4.726
 1907SOL     OW10019   5.183   1.397   0.085
 1907SOL    HW110020   5.276   1.433   0.102
 1907SOL    HW210021   5.187   1.298   0.079
 1908SOL     OW10022   1.605   4.377   5.858
 1908SOL    HW110023   1.557   4.453   5.902
 1908SOL    HW210024   1.602   4.297   5.917
 1909SOL     OW10025   2.964   0.096   4.980
 1909SOL    HW110026   2.922   0.017   5.024
 1909SOL    HW210027   2.965   0.083   4.881
 1910SOL     OW10028   3.115   4.863   1.330
 1910SOL    HW110029   3.026   4.836   1.292
 1910SOL    HW210030   3.107   4.954   1.370
 1911SOL     OW10031   1.212   0.856   5.404
 1911SOL    HW110032   1.162   0.942   5.403
 1911SOL    HW210033   1.262   0.845   5.318
 1912SOL     OW10034   4.806   5.379   1.217
 1912SOL    HW110035   4.734   5.372   1.148
 1912SOL    HW210036   4.895   5.378   1.173
 1913SOL     OW10037   5.143   3.254   6.068
 1913SOL    HW110038   5.184   3.193   6.135
 1913SOL    HW210039   5.194   3.248   5.982
 1914SOL     OW10040   3.750   3.474   4.827
 1914SOL    HW110041   3.723   3.560   4.785
 1914SOL    HW210042   3.753   3.402   4.756
 1915SOL     OW10043   2.909   2.938   2.119
 1915SOL    HW110044   2.883   2.853   2.165
 1915SOL    HW210045   3.009   2.950   2.124
 1916SOL     OW10046   4.634   5.545   0.061
 1916SOL    HW110047   4.587   5.563   0.148
 1916SOL    HW210048   4.731   5.570   0.070
 1917SOL     OW10049   0.639   4.468   6.015
 1917SOL    HW110050   0.673   4.471   6.110
 1917SOL    HW210051   0.716   4.450   5.954
 1918SOL     OW10052   2.389   2.268   0.922
 1918SOL    HW110053   2.476   2.303   0.956
 1918SOL    HW210054   2.313   2.313   0.969
 1919SOL     OW10055   1.668   4.225   0.098
 1919SOL    HW110056   1.760   4.263   0.089
 1919SOL    HW210057   1.613   4.284   0.158
 1920SOL     OW10058   2.853   0.982   0.246
 1920SOL    HW110059   2.887   1.029   0.327
 1920SOL    HW210060   2.835   0.886   0.268
 1921SOL     OW10061   1.654   3.278   0.027
 1921SOL    HW110062   1.598   3.290   0.108
 1921SOL    HW210063   1.619   3.334   6.451
 1922SOL     OW10064   3.603   2.515   5.106
 1922SOL    HW110065   3.668   2.477   5.040
 1922SOL    HW210066   3.553   2.591   5.063
 1923SOL     OW10067   3.992   0.093   0.532
 1923SOL    HW110068   4.022   0.060   0.442
 1923SOL    HW210069   3.942   0.178   0.521
 1924SOL     OW10070   4.638   0.408   0.415
 1924SOL    HW110071   4.608   0.326   0.463
 1924SOL    HW210072   4.569   0.434   0.347
 1925SOL     OW10073   5.590   2.556   1.131
 1925SOL    HW110074   0.020   2.507   1.101
 1925SOL    HW210075   5.580   2.547   1.230
 1926SOL     OW10076   5.516   5.116   5.858
 1926SOL    HW110077   5.582   5.183   5.824
 1926SOL    HW210078   5.439   5.164   5.899
 1927SOL     OW10079   3.054   5.141   0.478
 1927SOL    HW110080   3.110   5.211   0.522
 1927SOL    HW210081   3.069   5.144   0.379
 1928SOL     OW10082   4.146   1.095   1.101
 1928SOL    HW110083   4.131   1.114   1.004
 1928SOL    HW210084   4.106   1.006   1.124
 1929SOL     OW10085   5.461   1.034   6.092
 1929SOL    HW110086   5.438   1.124   6.056
 1929SOL    HW210087   5.560   1.027   6.105
 1930SOL     OW10088   0.328   0.772   0.801
 1930SOL    HW110089   0.353   0.758   0.705
 1930SOL    HW210090   0.315   0.869   0.818
 1931SOL     OW10091   3.258   0.484   5.586
 1931SOL    HW110092   3.223   0.525   5.502
 1931SOL    HW210093   3.332   0.540   5.622
 1932SOL     OW10094   4.720   3.647   1.243
 1932SOL    HW110095   4.718   3.740   1.206
 1932SOL    HW210096   4.640   3.634   1.302
 1933SOL     OW10097   2.758   3.376   1.751
 1933SOL    HW110098   2.779   3.399   1.655
 1933SOL    HW210099   2.775   3.279   1.766
 1934SOL     OW10100   0.339   2.812   0.083
 1934SOL    HW110101   0.433   2.785   0.067
 1934SOL    HW210102   0.283   2.732   0.104
 1935SOL     OW10103   1.485   3.824   0.881
 1935SOL    HW110104   1.536   3.901   0.920
 1935SOL    HW210105   1.543   3.776   0.815
 1936SOL     OW10106   0.378   2.952   1.945
 1936SOL    HW110107   0.324   2.997   2.016
 1936SOL    HW210108   0.325   2.944   1.861
 1937SOL     OW10109   2.180   0.438   6.202
 1937SOL    HW110110   2.216   0.472   6.289
 1937SOL    HW210111   2.116   0.504   6.164
 1938SOL     OW10112   4.459   1.811   6.011
 1938SOL    HW110113   4.492   1.892   6.060
 1938SOL    HW210114   4.368   1.830   5.974
 1939SOL     OW10115   4.500   1.608   0.151
 1939SOL    HW110116   4.595   1.640   0.155
 1939SOL    HW210117   4.440   1.687   0.136
 1940SOL     OW10118   1.788   0.647   0.966
 1940SOL    HW110119   1.790   0.741   1.001
 1940SOL    HW210120   1.824   0.585   1.035
 1941SOL     OW10121   1.903   3.966   0.312
 1941SOL    HW110122   1.931   3.904   0.385
 1941SOL    HW210123   1.804   3.961   0.300
 1942SOL     OW10124   0.047   4.269   0.218
 1942SOL    HW110125   5.647   4.316   0.289
 1942SOL    HW210126   0.127   4.225   0.259
 1943SOL     OW10127   4.337   5.443   0.674
 1943SOL    HW110128   4.327   5.523   0.732
 1943SOL    HW210129   4.347   5.361   0.731
 1944SOL     OW10130   4.989   4.457   6.372
 1944SOL    HW110131   5.016   4.364   6.348
 1944SOL    HW210132   4.980   4.465   6.471
 1945SOL     OW10133   5.018   0.558   0.723
 1945SOL    HW110134   5.087   0.599   0.782
 1945SOL    HW210135   5.035   0.586   0.628
 1946SOL     OW10136   1.597   5.000   1.112
 1946SOL    HW110137   1.565   5.090   1.141
 1946SOL    HW210138   1.524   4.954   1.060
 1947SOL     OW10139   0.916   0.912   5.547
 1947SOL    HW110140   0.969   0.984   5.503
 1947SOL    HW210141   0.859   0.952   5.619
 1948SOL     OW10142   2.614   2.677   0.197
 1948SOL    HW110143   2.566   2.642   0.117
 1948SOL    HW210144   2.587   2.625   0.278
 1949SOL     OW10145   0.817   4.384   1.043
 1949SOL    HW110146   0.765   4.378   1.128
 1949SOL    HW210147   0.852   4.294   1.018
 1950SOL     OW10148   4.595   3.447   6.141
 1950SOL    HW110149   4.660   3.489   6.204
 1950SOL    HW210150   4.638   3.436   6.051
 1951SOL     OW10151   1.417   0.480   1.053
 1951SOL    HW110152   1.486   0.508   1.121
 1951SOL    HW210153   1.338   0.440   1.100
 1952SOL     OW10154   4.429   4.243   0.700
 1952SOL    HW110155   4.339   4.249   0.656
 1952SOL    HW210156   4.433   4.307   0.776
 1953SOL     OW10157   4.846   0.638   0.945
 1953SOL    HW110158   4.883   0.592   0.864
 1953SOL    HW210159   4.828   0.570   1.017
 1954SOL     OW10160   4.795   0.627   0.348
 1954SOL    HW110161   4.879   0.598   0.302
 1954SOL    HW210162   4.747   0.547   0.384
 1955SOL     OW10163   3.424   2.053   0.227
 1955SOL    HW110164   3.485   2.047   0.148
 1955SOL    HW210165   3.433   1.969   0.282
 1956SOL     OW10166   3.877   1.075   0.804
 1956SOL    HW110167   3.829   1.157   0.836
 1956SOL    HW210168   3.975   1.094   0.800
 1957SOL     OW10169   2.237   0.502   0.132
 1957SOL    HW110170   2.325   0.529   0.093
 1957SOL    HW210171   2.215   0.562   0.209
 1958SOL     OW10172   2.187   4.366   5.683
 1958SOL    HW110173   2.137   4.448   5.654
 1958SOL    HW210174   2.214   4.313   5.603
 1959SOL     OW10175   0.649   5.438   5.608
 1959SOL    HW110176   0.639   5.477   5.516
 1959SOL    HW210177   0.724   5.483   5.655
 1960SOL     OW10178   2.518   4.610   1.157
 1960SOL    HW110179   2.530   4.652   1.066
 1960SOL    HW210180   2.607   4.586   1.195
 1961SOL     OW10181   4.045   1.120   0.499
 1961SOL    HW110182   4.012   1.026   0.495
 1961SOL    HW210183   3.966   1.183   0.500
 1962SOL     OW10184   2.662   3.619   6.114
 1962SOL    HW110185   2.703   3.670   6.038
 1962SOL    HW210186   2.652   3.680   6.193
 1963SOL     OW10187   0.318   4.766   0.284
 1963SOL    HW110188   0.270   4.710   0.352
 1963SOL    HW210189   0.391   4.817   0.329
 1964SOL     OW10190   3.472   2.542   1.618
 1964SOL    HW110191   3.540   2.510   1.552
 1964SOL    HW210192   3.517   2.566   1.704
 1965SOL     OW10193   3.464   4.770   5.640
 1965SOL    HW110194   3.498   4.757   5.547
 1965SOL    HW210195   3.462   4.868   5.661
 1966SOL     OW10196   4.052   5.469   1.039
 1966SOL    HW110197   4.097   5.558   1.043
 1966SOL    HW210198   3.978   5.466   1.106
 1967SOL     OW10199   2.432   3.456   5.362
 1967SOL    HW110200   2.487   3.443   5.280
 1967SOL    HW210201   2.481   3.421   5.442
 1968SOL     OW10202   2.672   3.650   5.255
 1968SOL    HW110203   2.656   3.560   5.215
 1968SOL    HW210204   2.684   3.642   5.354
 1969SOL     OW10205   1.690   5.097   0.359
 1969SOL    HW110206   1.591   5.086   0.350
 1969SOL    HW210207   1.736   5.047   0.286
 1970SOL     OW10208   4.420   0.392   5.129
 1970SOL    HW110209   4.422   0.450   5.048
 1970SOL    HW210210   4.470   0.307   5.109
 1971SOL     OW10211   1.981   2.459   5.867
 1971SOL    HW110212   1.884   2.442   5.849
 1971SOL    HW210213   2.014   2.394   5.936
 1972SOL     OW10214   2.879   1.323   1.316
 1972SOL    HW110215   2.829   1.361   1.238
 1972SOL    HW210216   2.916   1.234   1.291
 1973SOL     OW10217   4.681   1.596   5.636
 1973SOL    HW110218   4.726   1.507   5.632
 1973SOL    HW210219   4.654   1.624   5.544
 1974SOL     OW10220   1.002   4.110   2.170
 1974SOL    HW110221   0.951   4.181   2.218
 1974SOL    HW210222   1.038   4.044   2.236
 1975SOL     OW10223   4.425   1.488   5.804
 1975SOL    HW110224   4.512   1.534   5.824
 1975SOL    HW210225   4.436   1.428   5.724
 1976SOL     OW10226   0.678   3.396   5.612
 1976SOL    HW110227   0.677   3.349   5.700
 1976SOL    HW210228   0.723   3.338   5.544
 1977SOL     OW10229   5.633   0.953   0.471
 1977SOL    HW110230   5.569   0.898   0.525
 1977SOL    HW210231   0.066   0.901   0.457
 1978SOL     OW10232   5.057   2.365   6.440
 1978SOL    HW110233   5.042   2.455   6.483
 1978SOL    HW210234   4.983   2.303   6.466
 1979SOL     OW10235   4.138   2.038   6.077
 1979SOL    HW110236   4.162   1.958   6.023
 1979SOL    HW210237   4.044   2.029   6.111
 1980SOL     OW10238   0.288   3.052   6.350
 1980SOL    HW110239   0.334   3.140   6.354
 1980SOL    HW210240   0.276   3.017   6.443
 1981SOL     OW10241   2.257   5.516   6.497
 1981SOL    HW110242   2.181   5.473   6.447
 1981SOL    HW210243   2.232   0.035   0.023
 1982SOL     OW10244   4.740   1.040   1.459
 1982SOL    HW110245   4.742   0.994   1.370
 1982SOL    HW210246   4.681   1.121   1.454
 1983SOL     OW10247   4.657   4.709   0.085
 1983SOL    HW110248   4.737   4.761   0.056
 1983SOL    HW210249   4.583   4.772   0.109
 1984SOL     OW10250   4.875   0.235   1.460
 1984SOL    HW110251   4.820   0.185   1.393
 1984SOL    HW210252   4.933   0.170   1.509
 1985SOL     OW10253   2.698   2.593   5.238
 1985SOL    HW110254   2.788   2.572   5.199
 1985SOL    HW210255   2.645   2.647   5.173
 1986SOL     OW10256   3.789   3.935   1.224
 1986SOL    HW110257   3.699   3.978   1.217
 1986SOL    HW210258   3.860   4.006   1.227
 1987SOL     OW10259   5.217   0.761   1.541
 1987SOL    HW110260   5.132   0.766   1.489
 1987SOL    HW210261   5.201   0.794   1.635
 1988SOL     OW10262   4.144   4.823   0.341
 1988SOL    HW110263   4.227   4.850   0.294
 1988SOL    HW210264   4.086   4.903   0.355
 1989SOL     OW10265   3.484   5.425   6.396
 1989SOL    HW110266   3.573   5.423   6.351
 1989SOL    HW210267   3.457   5.332   6.420
 1990SOL     OW10268   4.875   3.596   6.010
 1990SOL    HW110269   4.800   3.548   5.965
 1990SOL    HW210270   4.846   3.688   6.035
 1991SOL     OW10271   0.923   1.844   6.440
 1991SOL    HW110272   0.838   1.858   6.489
 1991SOL    HW210273   0.928   1.750   6.407
 1992SOL     OW10274   2.051   2.684   5.311
 1992SOL    HW110275   1.970   2.742   5.313
 1992SOL    HW210276   2.026   2.589   5.329
 1993SOL     OW10277   4.980   4.277   5.981
 1993SOL    HW110278   4.914   4.352   5.992
 1993SOL    HW210279   4.933   4.197   5.945
 1994SOL     OW10280   0.773   1.809   0.334
 1994SOL    HW110281   0.740   1.838   0.245
 1994SOL    HW210282   0.800   1.890   0.387
 1995SOL     OW10283   1.739   0.312   5.264
 1995SOL    HW110284   1.723   0.381   5.194
 1995SOL    HW210285   1.836   0.307   5.286
 1996SOL     OW10286   3.844   1.576   6.160
 1996SOL    HW110287   3.837   1.649   6.228
 1996SOL    HW210288   3.752   1.548   6.131
 1997SOL     OW10289   3.108   2.323   5.707
 1997SOL    HW110290   3.184   2.309   5.771
 1997SOL    HW210291   3.144   2.324   5.613
 1998SOL     OW10292   5.475   0.687   0.842
 1998SOL    HW110293   5.469   0.725   0.749
 1998SOL    HW210294   5.571   0.678   0.868
 1999SOL     OW10295   5.049   2.953   5.102
 1999SOL    HW110296   4.985   2.924   5.031
 1999SOL    HW210297   5.143   2.947   5.066
 2000SOL     OW10298   1.164   4.915   1.098
 2000SOL    HW110299   1.250   4.912   1.048
 2000SOL    HW210300   1.109   4.992   1.066
 2001SOL     OW10301   5.047   4.403   1.112
 2001SOL    HW110302   5.045   4.309   1.146
 2001SOL    HW210303   5.091   4.462   1.180
 2002SOL     OW10304   5.029   5.413   0.019
 2002SOL    HW110305   5.025   5.355   0.100
 2002SOL    HW210306   4.986   5.501   0.038
 2003SOL     OW10307   5.638   4.979   1.240
 2003SOL    HW110308   0.012   5.010   1.332
 2003SOL    HW210309   5.541   4.958   1.237
 2004SOL     OW10310   1.662   4.350   1.207
 2004SOL    HW110311   1.717   4.268   1.193
 2004SOL    HW210312   1.676   4.413   1.131
 2005SOL     OW10313   1.622   0.528   1.234
 2005SOL    HW110314   1.711   0.501   1.198
 2005SOL    HW210315   1.635   0.581   1.318
 2006SOL     OW10316   4.952   1.193   2.139
 2006SOL    HW110317   4.916   1.113   2.188
 2006SOL    HW210318   5.041   1.218   2.177
 2007SOL     OW10319   3.861   0.328   0.495
 2007SOL    HW110320   3.818   0.366   0.577
 2007SOL    HW210321   3.920   0.397   0.453
 2008SOL     OW10322   0.649   1.451   0.184
 2008SOL    HW110323   0.638   1.541   0.224
 2008SOL    HW210324   0.609   1.382   0.245
 2009SOL     OW10325   2.341   2.011   0.841
 2009SOL    HW110326   2.349   2.103   0.879
 2009SOL    HW210327   2.417   1.994   0.778
 2010SOL     OW10328   2.364   4.283   5.871
 2010SOL    HW110329   2.314   4.241   5.947
 2010SOL    HW210330   2.299   4.317   5.804
 2011SOL     OW10331   1.381   3.770   1.134
 2011SOL    HW110332   1.359   3.861   1.168
 2011SOL    HW210333   1.405   3.775   1.037
 2012SOL     OW10334   4.616   3.074   5.547
 2012SOL    HW110335   4.609   3.171   5.523
 2012SOL    HW210336   4.650   3.065   5.640
 2013SOL     OW10337   0.028   5.064   1.510
 2013SOL    HW110338   5.637   5.155   1.508
 2013SOL    HW210339   0.127   5.074   1.494
 2014SOL     OW10340   2.582   4.436   5.835
 2014SOL    HW110341   2.590   4.500   5.912
 2014SOL    HW210342   2.504   4.376   5.850
 2015SOL     OW10343   5.012   1.810   4.879
 2015SOL    HW110344   4.966   1.742   4.822
 2015SOL    HW210345   4.947   1.882   4.903
 2016SOL     OW10346   1.870   3.224   0.812
 2016SOL    HW110347   1.850   3.249   0.907
 2016SOL    HW210348   1.787   3.233   0.757
 2017SOL     OW10349   2.405   1.445   1.053
 2017SOL    HW110350   2.452   1.532   1.067
 2017SOL    HW210351   2.447   1.375   1.110
 2018SOL     OW10352   1.440   5.057   5.736
 2018SOL    HW110353   1.393   5.044   5.649
 2018SOL    HW210354   1.382   5.110   5.798
 2019SOL     OW10355   4.428   0.492   1.658
 2019SOL    HW110356   4.523   0.508   1.632
 2019SOL    HW210357   4.424   0.425   1.731
 2020SOL     OW10358   1.177   4.061   0.341
 2020SOL    HW110359   1.111   4.000   0.296
 2020SOL    HW210360   1.134   4.149   0.359
 2021SOL     OW10361   0.326   0.043   0.594
 2021SOL    HW110362   0.385   0.115   0.633
 2021SOL    HW210363   0.323   5.539   0.657
 2022SOL     OW10364   3.504   0.714   5.366
 2022SOL    HW110365   3.485   0.662   5.282
 2022SOL    HW210366   3.461   0.804   5.359
 2023SOL     OW10367   4.426   0.533   4.898
 2023SOL    HW110368   4.488   0.513   4.823
 2023SOL    HW210369   4.331   0.530   4.865
 2024SOL     OW10370   4.671   1.231   1.178
 2024SOL    HW110371   4.676   1.321   1.134
 2024SOL    HW210372   4.636   1.241   1.271
 2025SOL     OW10373   3.008   1.244   6.136
 2025SOL    HW110374   3.101   1.207   6.129
 2025SOL    HW210375   2.974   1.230   6.230
 2026SOL     OW10376   4.312   0.295   5.438
 2026SOL    HW110377   4.345   0.375   5.488
 2026SOL    HW210378   4.389   0.239   5.409
 2027SOL     OW10379   2.220   2.575   6.299
 2027SOL    HW110380   2.298   2.584   6.361
 2027SOL    HW210381   2.135   2.576   6.352
 2028SOL     OW10382   4.255   5.037   1.007
 2028SOL    HW110383   4.256   4.941   0.981
 2028SOL    HW210384   4.286   5.047   1.102
 2029SOL     OW10385   4.658   2.379   0.710
 2029SOL    HW110386   4.667   2.418   0.801
 2029SOL    HW210387   4.742   2.331   0.685
 2030SOL     OW10388   3.475   5.149   6.444
 2030SOL    HW110389   3.491   5.164   0.043
 2030SOL    HW210390   3.496   5.054   6.421
 2031SOL     OW10391   0.342   2.812   6.235
 2031SOL    HW110392   0.326   2.899   6.282
 2031SOL    HW210393   0.430   2.815   6.187
 2032SOL     OW10394   3.314   2.067   5.439
 2032SOL    HW110395   3.364   2.072   5.526
 2032SOL    HW210396   3.378   2.072   5.363
 2033SOL     OW10397   4.395   0.741   0.303
 2033SOL    HW110398   4.323   0.794   0.258
 2033SOL    HW210399   4.377   0.739   0.401
 2034SOL     OW10400   0.539   1.263   0.343
 2034SOL    HW110401   0.453   1.313   0.352
 2034SOL    HW210402   0.573   1.239   0.434
 2035SOL     OW10403   2.558   2.285   1.181
 2035SOL    HW110404   2.602   2.336   1.108
 2035SOL    HW210405   2.585   2.324   1.269
 2036SOL     OW10406   5.532   2.104   1.474
 2036SOL    HW110407   5.465   2.142   1.538
 2036SOL    HW210408   5.528   2.004   1.477
 2037SOL     OW10409   5.130   1.217   5.865
 2037SOL    HW110410   5.065   1.293   5.872
 2037SOL    HW210411   5.204   1.231   5.930
 2038SOL     OW10412   4.143   3.498   6.098
 2038SOL    HW110413   4.128   3.569   6.030
 2038SOL    HW210414   4.138   3.408   6.054
 2039SOL     OW10415   4.311   4.625   5.947
 2039SOL    HW110416   4.316   4.528   5.922
 2039SOL    HW210417   4.400   4.668   5.931
 2040SOL     OW10418   3.879   2.430   1.690
 2040SOL    HW110419   3.873   2.345   1.743
 2040SOL    HW210420   3.974   2.443   1.661
 2041SOL     OW10421   4.467   1.776   0.489
 2041SOL    HW110422   4.456   1.834   0.569
 2041SOL    HW210423   4.385   1.783   0.432
 2042SOL     OW10424   4.985   4.023   1.693
 2042SOL    HW110425   5.039   4.083   1.752
 2042SOL    HW210426   4.954   3.943   1.746
 2043SOL     OW10427   0.606   2.618   0.562
 2043SOL    HW110428   0.554   2.668   0.632
 2043SOL    HW210429   0.700   2.651   0.561
 2044SOL     OW10430   2.989   0.351   5.070
 2044SOL    HW110431   2.976   0.259   5.033
 2044SOL    HW210432   2.979   0.418   4.997
 2045SOL     OW10433   3.080   5.110   0.203
 2045SOL    HW110434   3.101   5.184   0.138
 2045SOL    HW210435   3.144   5.034   0.188
 2046SOL     OW10436   1.462   5.231   2.083
 2046SOL    HW110437   1.467   5.324   2.120
 2046SOL    HW210438   1.548   5.183   2.103
 2047SOL     OW10439   1.846   2.616   1.188
 2047SOL    HW110440   1.896   2.672   1.254
 2047SOL    HW210441   1.865   2.648   1.096
 2048SOL     OW10442   1.016   3.468   1.520
 2048SOL    HW110443   1.013   3.559   1.560
 2048SOL    HW210444   1.025   3.399   1.592
 2049SOL     OW10445   0.577   1.876   5.381
 2049SOL    HW110446   0.610   1.970   5.380
 2049SOL    HW210447   0.485   1.872   5.342
 2050SOL     OW10448   3.648   0.060   0.824
 2050SOL    HW110449   3.601   0.118   0.757
 2050SOL    HW210450   3.717   0.005   0.777
 2051SOL     OW10451   5.546   3.744   0.400
 2051SOL    HW110452   5.602   3.817   0.440
 2051SOL    HW210453   5.476   3.716   0.466
 2052SOL     OW10454   2.361   4.511   0.127
 2052SOL    HW110455   2.327   4.604   0.119
 2052SOL    HW210456   2.303   4.460   0.190
 2053SOL     OW10457   3.964   0.893   5.621
 2053SOL    HW110458   3.957   0.993   5.614
 2053SOL    HW210459   3.884   0.858   5.669
 2054SOL     OW10460   0.370   0.610   1.163
 2054SOL    HW110461   0.323   0.699   1.171
 2054SOL    HW210462   0.469   0.624   1.169
 2055SOL     OW10463   1.747   3.073   5.270
 2055SOL    HW110464   1.649   3.088   5.252
 2055SOL    HW210465   1.801   3.113   5.196
 2056SOL     OW10466   1.250   4.731   2.242
 2056SOL    HW110467   1.261   4.648   2.187
 2056SOL    HW210468   1.290   4.716   2.332
 2057SOL     OW10469   3.871   2.465   6.110
 2057SOL    HW110470   3.885   2.496   6.016
 2057SOL    HW210471   3.791   2.510   6.148
 2058SOL     OW10472   3.769   0.766   5.411
 2058SOL    HW110473   3.678   0.730   5.390
 2058SOL    HW210474   3.760   0.851   5.462
 2059SOL     OW10475   4.007   3.537   0.898
 2059SOL    HW110476   3.996   3.437   0.897
 2059SOL    HW210477   4.090   3.562   0.848
 2060SOL     OW10478   3.914   3.132   5.827
 2060SOL    HW110479   3.878   3.225   5.834
 2060SOL    HW210480   3.917   3.105   5.731
 2061SOL     OW10481   0.406   2.862   1.403
 2061SOL    HW110482   0.428   2.960   1.406
 2061SOL    HW210483   0.309   2.849   1.424
 2062SOL     OW10484   0.631   0.778   5.769
 2062SOL    HW110485   0.666   0.714   5.700
 2062SOL    HW210486   0.678   0.866   5.761
 2063SOL     OW10487   1.422   3.487   5.889
 2063SOL    HW110488   1.379   3.577   5.899
 2063SOL    HW210489   1.417   3.438   5.976
 2064SOL     OW10490   0.887   5.222   6.472
 2064SOL    HW110491   0.819   5.278   6.425
 2064SOL    HW210492   0.883   5.128   6.437
 2065SOL     OW10493   1.436   2.940   0.040
 2065SOL    HW110494   1.455   2.860   6.482
 2065SOL    HW210495   1.337   2.954   0.046
 2066SOL     OW10496   0.856   3.438   0.823
 2066SOL    HW110497   0.916   3.514   0.798
 2066SOL    HW210498   0.790   3.469   0.891
 2067SOL     OW10499   0.407   3.793   6.037
 2067SOL    HW110500   0.360   3.725   6.092
 2067SOL    HW210501   0.460   3.747   5.965
 2068SOL     OW10502   4.379   1.555   5.478
 2068SOL    HW110503   4.465   1.586   5.437
 2068SOL    HW210504   4.392   1.464   5.518
 2069SOL     OW10505   3.776   3.823   0.133
 2069SOL    HW110506   3.791   3.754   0.062
 2069SOL    HW210507   3.785   3.914   0.093
 2070SOL     OW10508   3.518   2.641   1.240
 2070SOL    HW110509   3.609   2.659   1.276
 2070SOL    HW210510   3.468   2.727   1.229
 2071SOL     OW10511   3.517   3.824   1.394
 2071SOL    HW110512   3.506   3.769   1.477
 2071SOL    HW210513   3.429   3.830   1.346
 2072SOL     OW10514   2.021   3.575   1.358
 2072SOL    HW110515   2.047   3.485   1.391
 2072SOL    HW210516   2.004   3.636   1.436
 2073SOL     OW10517   0.476   0.946   4.947
 2073SOL    HW110518   0.436   0.855   4.958
 2073SOL    HW210519   0.576   0.939   4.952
 2074SOL     OW10520   0.185   1.224   5.469
 2074SOL    HW110521   0.211   1.179   5.384
 2074SOL    HW210522   0.155   1.317   5.449
 2075SOL     OW10523   0.783   2.473   1.594
 2075SOL    HW110524   0.760   2.398   1.656
 2075SOL    HW210525   0.754   2.449   1.501
 2076SOL     OW10526   0.721   3.972   5.813
 2076SOL    HW110527   0.702   3.991   5.909
 2076SOL    HW210528   0.640   3.995   5.758
 2077SOL     OW10529   1.445   1.270   6.376
 2077SOL    HW110530   1.346   1.281   6.388
 2077SOL    HW210531   1.471   1.177   6.401
 2078SOL     OW10532   3.007   5.493   1.474
 2078SOL    HW110533   2.955   5.409   1.463
 2078SOL    HW210534   3.034   5.503   1.570
 2079SOL     OW10535   2.552   5.393   0.769
 2079SOL    HW110536   2.500   5.477   0.759
 2079SOL    HW210537   2.592   5.368   0.681
 2080SOL     OW10538   2.834   0.839   5.585
 2080SOL    HW110539   2.797   0.752   5.617
 2080SOL    HW210540   2.930   0.827   5.558
 2081SOL     OW10541   4.134   3.878   1.480
 2081SOL    HW110542   4.216   3.834   1.518
 2081SOL    HW210543   4.149   3.977   1.475
 2082SOL     OW10544   2.816   3.097   1.725
 2082SOL    HW110545   2.741   3.037   1.754
 2082SOL    HW210546   2.845   3.071   1.633
 2083SOL     OW10547   1.793   2.966   1.053
 2083SOL    HW110548   1.732   2.993   1.127
 2083SOL    HW210549   1.874   3.025   1.053
 2084SOL     OW10550   1.011   0.180   6.281
 2084SOL    HW110551   1.072   0.154   6.206
 2084SOL    HW210552   1.009   0.108   6.350
 2085SOL     OW10553   3.659   1.793   0.194
 2085SOL    HW110554   3.736   1.748   0.240
 2085SOL    HW210555   3.584   1.807   0.258
 2086SOL     OW10556   5.419   1.755   0.800
 2086SOL    HW110557   5.339   1.816   0.794
 2086SOL    HW210558   5.500   1.805   0.770
 2087SOL     OW10559   2.357   2.591   5.899
 2087SOL    HW110560   2.310   2.565   5.814
 2087SOL    HW210561   2.455   2.584   5.886
 2088SOL     OW10562   4.218   1.810   0.371
 2088SOL    HW110563   4.174   1.865   0.300
 2088SOL    HW210564   4.165   1.725   0.384
 2089SOL     OW10565   0.544   2.112   4.583
 2089SOL    HW110566   0.535   2.159   4.496
 2089SOL    HW210567   0.633   2.066   4.587
 2090SOL     OW10568   0.538   2.470   1.949
 2090SOL    HW110569   0.441   2.446   1.935
 2090SOL    HW210570   0.589   2.387   1.970
 2091SOL     OW10571   2.508   3.397   0.391
 2091SOL    HW110572   2.486   3.483   0.437
 2091SOL    HW210573   2.607   3.382   0.393
 2092SOL     OW10574   1.079   4.380   0.752
 2092SOL    HW110575   1.043   4.287   0.736
 2092SOL    HW210576   1.012   4.432   0.805
 2093SOL     OW10577   3.974   1.100   1.858
 2093SOL    HW110578   3.904   1.144   1.913
 2093SOL    HW210579   3.931   1.038   1.792
 2094SOL     OW10580   2.282   1.201   6.496
 2094SOL    HW110581   2.379   1.225   0.001
 2094SOL    HW210582   2.234   1.265   6.436
 2095SOL     OW10583   1.009   3.698   1.690
 2095SOL    HW110584   0.981   3.724   1.782
 2095SOL    HW210585   0.937   3.724   1.625
 2096SOL     OW10586   2.214   3.712   1.746
 2096SOL    HW110587   2.311   3.728   1.725
 2096SOL    HW210588   2.188   3.767   1.825
 2097SOL     OW10589   3.902   0.384   5.269
 2097SOL    HW110590   3.877   0.288   5.263
 2097SOL    HW210591   3.991   0.398   5.225
 2098SOL     OW10592   5.128   3.948   6.089
 2098SOL    HW110593   5.198   3.932   6.159
 2098SOL    HW210594   5.038   3.957   6.132
 2099SOL     OW10595   4.568   4.232   5.846
 2099SOL    HW110596   4.578   4.250   5.944
 2099SOL    HW210597   4.653   4.255   5.799
 2100SOL     OW10598   2.210   5.175   6.100
 2100SOL    HW110599   2.191   5.119   6.020
 2100SOL    HW210600   2.264   5.123   6.166
 2101SOL     OW10601   0.449   1.007   5.364
 2101SOL    HW110602   0.387   1.048   5.297
 2101SOL    HW210603   0.530   0.971   5.318
 2102SOL     OW10604   3.490   1.554   1.797
 2102SOL    HW110605   3.512   1.488   1.870
 2102SOL    HW210606   3.562   1.623   1.792
 2103SOL     OW10607   1.229   4.082   6.015
 2103SOL    HW110608   1.281   4.068   5.931
 2103SOL    HW210609   1.291   4.110   6.088
 2104SOL     OW10610   1.408   5.238   0.112
 2104SOL    HW110611   1.315   5.251   0.077
 2104SOL    HW210612   1.408   5.168   0.183
 2105SOL     OW10613   3.438   4.906   0.589
 2105SOL    HW110614   3.445   4.822   0.643
 2105SOL    HW210615   3.494   4.977   0.632
 2106SOL     OW10616   4.543   2.065   1.972
 2106SOL    HW110617   4.538   2.165   1.973
 2106SOL    HW210618   4.456   2.027   2.001
 2107SOL     OW10619   4.267   3.742   0.305
 2107SOL    HW110620   4.189   3.694   0.264
 2107SOL    HW210621   4.348   3.730   0.247
 2108SOL     OW10622   2.971   2.144   1.106
 2108SOL    HW110623   3.071   2.146   1.099
 2108SOL    HW210624   2.932   2.188   1.026
 2109SOL     OW10625   2.894   4.990   5.557
 2109SOL    HW110626   2.951   5.028   5.484
 2109SOL    HW210627   2.821   4.934   5.517
 2110SOL     OW10628   0.310   2.627   0.405
 2110SOL    HW110629   0.247   2.628   0.327
 2110SOL    HW210630   0.393   2.578   0.381
 2111SOL     OW10631   3.726   4.345   0.903
 2111SOL    HW110632   3.733   4.319   0.999
 2111SOL    HW210633   3.728   4.263   0.846
 2112SOL     OW10634   0.809   3.642   5.982
 2112SOL    HW110635   0.812   3.697   6.065
 2112SOL    HW210636   0.868   3.683   5.912
 2113SOL     OW10637   5.310   4.140   1.303
 2113SOL    HW110638   5.358   4.224   1.281
 2113SOL    HW210639   5.286   4.140   1.400
 2114SOL     OW10640   3.781   4.289   1.164
 2114SOL    HW110641   3.757   4.347   1.242
 2114SOL    HW210642   3.857   4.229   1.190
 2115SOL     OW10643   1.126   2.106   5.711
 2115SOL    HW110644   1.165   2.193   5.743
 2115SOL    HW210645   1.200   2.044   5.687
 2116SOL     OW10646   5.189   0.458   6.464
 2116SOL    HW110647   5.257   0.517   6.421
 2116SOL    HW210648   5.101   0.468   6.417
 2117SOL     OW10649   2.768   0.612   5.012
 2117SOL    HW110650   2.713   0.529   5.027
 2117SOL    HW210651   2.846   0.590   4.954
 2118SOL     OW10652   4.606   3.605   0.450
 2118SOL    HW110653   4.688   3.548   0.448
 2118SOL    HW210654   4.624   3.690   0.401
 2119SOL     OW10655   5.339   2.227   1.645
 2119SOL    HW110656   5.304   2.138   1.671
 2119SOL    HW210657   5.263   2.286   1.617
 2120SOL     OW10658   2.370   2.146   1.598
 2120SOL    HW110659   2.320   2.163   1.513
 2120SOL    HW210660   2.314   2.175   1.676
 2121SOL     OW10661   3.784   1.942   5.922
 2121SOL    HW110662   3.806   1.953   6.019
 2121SOL    HW210663   3.817   2.021   5.871
 2122SOL     OW10664   3.137   5.406   1.234
 2122SOL    HW110665   3.214   5.355   1.273
 2122SOL    HW210666   3.084   5.448   1.307
 2123SOL     OW10667   1.985   4.174   5.132
 2123SOL    HW110668   1.923   4.253   5.132
 2123SOL    HW210669   2.021   4.159   5.040
 2124SOL     OW10670   0.094   2.093   5.904
 2124SOL    HW110671   0.109   2.000   5.870
 2124SOL    HW210672   0.163   2.114   5.974
 2125SOL     OW10673   3.069   3.508   5.114
 2125SOL    HW110674   3.048   3.555   5.028
 2125SOL    HW210675   3.119   3.424   5.095
 2126SOL     OW10676   4.884   0.670   5.658
 2126SOL    HW110677   4.929   0.684   5.746
 2126SOL    HW210678   4.952   0.669   5.585
 2127SOL     OW10679   5.373   5.359   0.057
 2127SOL    HW110680   5.369   5.356   6.456
 2127SOL    HW210681   5.341   5.448   0.089
 2128SOL     OW10682   0.758   4.567   0.227
 2128SOL    HW110683   0.797   4.600   0.313
 2128SOL    HW210684   0.741   4.645   0.166
 2129SOL     OW10685   1.906   0.720   5.388
 2129SOL    HW110686   1.897   0.696   5.291
 2129SOL    HW210687   1.903   0.637   5.443
 2130SOL     OW10688   3.386   4.378   1.354
 2130SOL    HW110689   3.347   4.469   1.369
 2130SOL    HW210690   3.467   4.367   1.411
 2131SOL     OW10691   4.160   4.144   0.293
 2131SOL    HW110692   4.183   4.240   0.312
 2131SOL    HW210693   4.205   4.085   0.360
 2132SOL     OW10694   3.707   0.817   5.736
 2132SOL    HW110695   3.682   0.892   5.675
 2132SOL    HW210696   3.652   0.737   5.715
 2133SOL     OW10697   3.271   2.633   6.253
 2133SOL    HW110698   3.273   2.726   6.287
 2133SOL    HW210699   3.267   2.569   6.330
 2134SOL     OW10700   3.831   3.955   5.906
 2134SOL    HW110701   3.922   3.958   5.947
 2134SOL    HW210702   3.819   4.034   5.845
 2135SOL     OW10703   0.034   4.323   5.933
 2135SOL    HW110704   5.588   4.330   5.955
 2135SOL    HW210705   0.055   4.228   5.908
 2136SOL     OW10706   4.555   1.622   0.842
 2136SOL    HW110707   4.554   1.583   0.750
 2136SOL    HW210708   4.599   1.712   0.840
 2137SOL     OW10709   4.070   3.575   0.179
 2137SOL    HW110710   3.989   3.519   0.162
 2137SOL    HW210711   4.152   3.524   0.153
 2138SOL     OW10712   1.189   2.631   1.091
 2138SOL    HW110713   1.118   2.702   1.094
 2138SOL    HW210714   1.279   2.674   1.101
 2139SOL     OW10715   0.287   4.046   6.025
 2139SOL    HW110716   0.335   3.958   6.025
 2139SOL    HW210717   0.352   4.120   6.013
 2140SOL     OW10718   1.675   1.817   0.182
 2140SOL    HW110719   1.753   1.880   0.182
 2140SOL    HW210720   1.593   1.865   0.211
 2141SOL     OW10721   4.297   3.774   1.135
 2141SOL    HW110722   4.318   3.678   1.153
 2141SOL    HW210723   4.201   3.791   1.155
 2142SOL     OW10724   4.078   4.886   6.496
 2142SOL    HW110725   4.161   4.842   6.463
 2142SOL    HW210726   4.103   4.959   0.061
 2143SOL     OW10727   1.126   3.722   0.296
 2143SOL    HW110728   1.078   3.792   0.244
 2143SOL    HW210729   1.204   3.688   0.243
 2144SOL     OW10730   1.097   2.075   0.344
 2144SOL    HW110731   1.172   2.139   0.359
 2144SOL    HW210732   1.045   2.104   0.263
 2145SOL     OW10733   5.635   2.567   6.213
 2145SOL    HW110734   5.633   2.473   6.247
 2145SOL    HW210735   5.550   2.587   6.165
 2146SOL     OW10736   3.654   3.401   5.068
 2146SOL    HW110737   3.562   3.439   5.069
 2146SOL    HW210738   3.700   3.426   4.983
 2147SOL     OW10739   2.348   1.640   0.298
 2147SOL    HW110740   2.288   1.565   0.325
 2147SOL    HW210741   2.436   1.603   0.268
 2148SOL     OW10742   0.521   3.270   0.522
 2148SOL    HW110743   0.613   3.309   0.529
 2148SOL    HW210744   0.474   3.278   0.609
 2149SOL     OW10745   3.585   5.129   0.201
 2149SOL    HW110746   3.546   5.049   0.245
 2149SOL    HW210747   3.666   5.102   0.148
 2150SOL     OW10748   1.705   4.842   1.311
 2150SOL    HW110749   1.662   4.897   1.239
 2150SOL    HW210750   1.766   4.775   1.270
 2151SOL     OW10751   2.410   1.125   0.392
 2151SOL    HW110752   2.473   1.108   0.316
 2151SOL    HW210753   2.321   1.152   0.356
 2152SOL     OW10754   0.541   2.090   6.479
 2152SOL    HW110755   0.444   2.081   6.455
 2152SOL    HW210756   0.571   2.184   6.460
 2153SOL     OW10757   3.657   2.448   5.438
 2153SOL    HW110758   3.727   2.501   5.390
 2153SOL    HW210759   3.660   2.353   5.406
 2154SOL     OW10760   0.452   1.320   1.022
 2154SOL    HW110761   0.537   1.368   1.045
 2154SOL    HW210762   0.456   1.288   0.928
 2155SOL     OW10763   4.531   3.750   6.371
 2155SOL    HW110764   4.473   3.703   6.304
 2155SOL    HW210765   4.527   3.848   6.355
 2156SOL     OW10766   1.311   2.244   0.392
 2156SOL    HW110767   1.311   2.243   0.492
 2156SOL    HW210768   1.405   2.255   0.360
 2157SOL     OW10769   2.272   1.751   1.392
 2157SOL    HW110770   2.269   1.652   1.409
 2157SOL    HW210771   2.336   1.794   1.456
 2158SOL     OW10772   3.344   3.202   5.966
 2158SOL    HW110773   3.425   3.192   5.909
 2158SOL    HW210774   3.354   3.281   6.025
 2159SOL     OW10775   2.633   5.378   0.505
 2159SOL    HW110776   2.594   5.468   0.486
 2159SOL    HW210777   2.658   5.334   0.419
 2160SOL     OW10778   0.735   1.052   6.394
 2160SOL    HW110779   0.710   1.143   6.427
 2160SOL    HW210780   0.729   1.049   6.295
 2161SOL     OW10781   0.712   4.736   1.858
 2161SOL    HW110782   0.754   4.746   1.948
 2161SOL    HW210783   0.618   4.704   1.869
 2162SOL     OW10784   0.343   0.349   1.140
 2162SOL    HW110785   0.341   0.448   1.151
 2162SOL    HW210786   0.426   0.322   1.092
 2163SOL     OW10787   5.245   0.202   0.321
 2163SOL    HW110788   5.322   0.176   0.379
 2163SOL    HW210789   5.263   0.291   0.280
 2164SOL     OW10790   1.399   1.801   4.932
 2164SOL    HW110791   1.339   1.723   4.948
 2164SOL    HW210792   1.486   1.770   4.894
 2165SOL     OW10793   4.687   5.171   1.361
 2165SOL    HW110794   4.725   5.241   1.300
 2165SOL    HW210795   4.666   5.211   1.450
 2166SOL     OW10796   4.057   2.840   4.699
 2166SOL    HW110797   3.992   2.779   4.746
 2166SOL    HW210798   4.013   2.928   4.681
 2167SOL     OW10799   4.661   5.197   6.212
 2167SOL    HW110800   4.748   5.157   6.240
 2167SOL    HW210801   4.644   5.176   6.115
 2168SOL     OW10802   1.330   1.772   5.263
 2168SOL    HW110803   1.243   1.751   5.218
 2168SOL    HW210804   1.371   1.852   5.219
 2169SOL     OW10805   1.606   3.615   1.201
 2169SOL    HW110806   1.614   3.588   1.297
 2169SOL    HW210807   1.530   3.679   1.191
 2170SOL     OW10808   1.735   4.698   5.728
 2170SOL    HW110809   1.783   4.650   5.802
 2170SOL    HW210810   1.719   4.634   5.652
 2171SOL     OW10811   2.821   3.406   5.579
 2171SOL    HW110812   2.845   3.364   5.491
 2171SOL    HW210813   2.900   3.400   5.641
 2172SOL     OW10814   5.382   2.001   6.459
 2172SOL    HW110815   5.366   2.097   6.437
 2172SOL    HW210816   5.413   1.953   6.378
 2173SOL     OW10817   1.482   0.761   0.711
 2173SOL    HW110818   1.556   0.827   0.692
 2173SOL    HW210819   1.522   0.675   0.744
 2174SOL     OW10820   4.232   1.879   1.013
 2174SOL    HW110821   4.244   1.920   0.922
 2174SOL    HW210822   4.143   1.907   1.050
 2175SOL     OW10823   0.872   2.394   0.257
 2175SOL    HW110824   0.894   2.304   0.220
 2175SOL    HW210825   0.788   2.389   0.310
 2176SOL     OW10826   1.022   0.390   6.462
 2176SOL    HW110827   1.028   0.319   6.392
 2176SOL    HW210828   1.045   0.479   6.421
 2177SOL     OW10829   0.287   2.390   1.905
 2177SOL    HW110830   0.211   2.444   1.941
 2177SOL    HW210831   0.250   2.310   1.856
 2178SOL     OW10832   2.833   0.956   1.508
 2178SOL    HW110833   2.842   0.984   1.603
 2178SOL    HW210834   2.770   1.018   1.461
 2179SOL     OW10835   1.187   2.989   4.852
 2179SOL    HW110836   1.241   3.027   4.777
 2179SOL    HW210837   1.163   3.063   4.916
 2180SOL     OW10838   5.010   1.163   6.353
 2180SOL    HW110839   5.015   1.262   6.340
 2180SOL    HW210840   5.061   1.138   6.435
 2181SOL     OW10841   3.004   3.892   0.213
 2181SOL    HW110842   2.933   3.944   0.166
 2181SOL    HW210843   3.008   3.800   0.174
 2182SOL     OW10844   2.853   1.037   1.766
 2182SOL    HW110845   2.776   1.073   1.820
 2182SOL    HW210846   2.869   0.941   1.790
 2183SOL     OW10847   2.496   0.205   0.052
 2183SOL    HW110848   2.549   0.243   6.475
 2183SOL    HW210849   2.542   0.124   0.087
 2184SOL     OW10850   0.041   5.351   1.440
 2184SOL    HW110851   5.637   5.335   1.358
 2184SOL    HW210852   0.010   5.436   1.484
 2185SOL     OW10853   0.590   0.397   1.006
 2185SOL    HW110854   0.671   0.368   0.956
 2185SOL    HW210855   0.615   0.470   1.070
 2186SOL     OW10856   0.852   2.714   0.860
 2186SOL    HW110857   0.813   2.624   0.879
 2186SOL    HW210858   0.779   2.782   0.855
 2187SOL     OW10859   4.695   0.196   1.683
 2187SOL    HW110860   4.762   0.225   1.615
 2187SOL    HW210861   4.721   0.231   1.773
 2188SOL     OW10862   1.849   5.172   5.535
 2188SOL    HW110863   1.936   5.124   5.542
 2188SOL    HW210864   1.805   5.149   5.448
 2189SOL     OW10865   3.350   3.067   0.873
 2189SOL    HW110866   3.368   3.165   0.885
 2189SOL    HW210867   3.398   3.033   0.792
 2190SOL     OW10868   1.300   5.432   6.108
 2190SOL    HW110869   1.261   5.523   6.091
 2190SOL    HW210870   1.239   5.380   6.167
 2191SOL     OW10871   0.495   3.123   1.441
 2191SOL    HW110872   0.575   3.181   1.459
 2191SOL    HW210873   0.420   3.181   1.409
 2192SOL     OW10874   2.109   3.536   5.757
 2192SOL    HW110875   2.201   3.497   5.762
 2192SOL    HW210876   2.058   3.491   5.684
 2193SOL     OW10877   3.627   0.375   0.356
 2193SOL    HW110878   3.710   0.335   0.395
 2193SOL    HW210879   3.549   0.318   0.380
 2194SOL     OW10880   4.041   2.031   5.046
 2194SOL    HW110881   4.109   2.088   4.999
 2194SOL    HW210882   4.042   1.939   5.006
 2195SOL     OW10883   0.143   4.289   6.454
 2195SOL    HW110884   0.092   4.362   6.410
 2195SOL    HW210885   0.107   4.275   0.047
 2196SOL     OW10886   1.535   0.305   0.045
 2196SOL    HW110887   1.469   0.381   0.048
 2196SOL    HW210888   1.619   0.333   0.091
 2197SOL     OW10889   1.037   1.494   1.064
 2197SOL    HW110890   1.054   1.527   0.972
 2197SOL    HW210891   0.997   1.402   1.060
 2198SOL     OW10892   2.325   3.276   0.797
 2198SOL    HW110893   2.243   3.277   0.740
 2198SOL    HW210894   2.320   3.200   0.861
 2199SOL     OW10895   2.757   0.740   1.336
 2199SOL    HW110896   2.698   0.804   1.287
 2199SOL    HW210897   2.810   0.788   1.405
 2200SOL     OW10898   5.285   1.454   6.198
 2200SOL    HW110899   5.190   1.447   6.230
 2200SOL    HW210900   5.346   1.416   6.267
 2201SOL     OW10901   0.997   1.803   1.766
 2201SOL    HW110902   0.998   1.724   1.828
 2201SOL    HW210903   0.995   1.770   1.671
 2202SOL     OW10904   0.503   5.225   0.085
 2202SOL    HW110905   0.584   5.244   0.139
 2202SOL    HW210906   0.523   5.153   0.018
 2203SOL     OW10907   5.342   3.240   5.159
 2203SOL    HW110908   5.251   3.220   5.196
 2203SOL    HW210909   5.344   3.220   5.061
 2204SOL     OW10910   0.339   5.524   0.975
 2204SOL    HW110911   0.283   0.033   0.983
 2204SOL    HW210912   0.320   5.479   0.888
 2205SOL     OW10913   2.377   5.019   6.252
 2205SOL    HW110914   2.408   4.954   6.321
 2205SOL    HW210915   2.455   5.047   6.196
 2206SOL     OW10916   1.571   4.047   1.033
 2206SOL    HW110917   1.654   4.070   1.083
 2206SOL    HW210918   1.495   4.037   1.097
 2207SOL     OW10919   4.127   0.213   0.097
 2207SOL    HW110920   4.173   0.142   0.042
 2207SOL    HW210921   4.066   0.266   0.038
 2208SOL     OW10922   1.581   2.552   1.237
 2208SOL    HW110923   1.677   2.575   1.222
 2208SOL    HW210924   1.568   2.453   1.224
 2209SOL     OW10925   5.609   3.004   1.444
 2209SOL    HW110926   0.029   3.064   1.479
 2209SOL    HW210927   5.520   3.034   1.478
 2210SOL     OW10928   4.715   0.083   6.316
 2210SOL    HW110929   4.697   0.181   6.305
 2210SOL    HW210930   4.666   0.049   6.396
 2211SOL     OW10931   5.183   2.955   1.137
 2211SOL    HW110932   5.176   2.953   1.037
 2211SOL    HW210933   5.276   2.932   1.165
 2212SOL     OW10934   0.732   1.166   0.886
 2212SOL    HW110935   0.643   1.195   0.850
 2212SOL    HW210936   0.726   1.073   0.920
 2213SOL     OW10937   5.539   5.549   5.609
 2213SOL    HW110938   5.559   5.527   5.514
 2213SOL    HW210939   5.624   0.001   5.656
 2214SOL     OW10940   1.985   3.208   1.242
 2214SOL    HW110941   1.920   3.259   1.185
 2214SOL    HW210942   2.010   3.263   1.321
 2215SOL     OW10943   5.617   1.579   1.395
 2215SOL    HW110944   5.647   1.541   1.483
 2215SOL    HW210945   0.045   1.606   1.341
 2216SOL     OW10946   4.979   4.070   2.059
 2216SOL    HW110947   4.952   3.976   2.081
 2216SOL    HW210948   5.078   4.078   2.065
 2217SOL     OW10949   0.247   1.122   5.214
 2217SOL    HW110950   0.299   1.163   5.139
 2217SOL    HW210951   0.158   1.092   5.180
 2218SOL     OW10952   4.829   1.169   0.141
 2218SOL    HW110953   4.743   1.160   0.092
 2218SOL    HW210954   4.839   1.262   0.174
 2219SOL     OW10955   0.764   1.514   5.621
 2219SOL    HW110956   0.759   1.611   5.601
 2219SOL    HW210957   0.674   1.472   5.606
 2220SOL     OW10958   5.129   4.714   0.088
 2220SOL    HW110959   5.093   4.630   0.127
 2220SOL    HW210960   5.185   4.693   0.008
 2221SOL     OW10961   4.417   0.750   1.427
 2221SOL    HW110962   4.434   0.841   1.389
 2221SOL    HW210963   4.376   0.758   1.518
 2222SOL     OW10964   0.387   5.571   1.909
 2222SOL    HW110965   0.392   5.531   2.001
 2222SOL    HW210966   0.438   0.082   1.907
 2223SOL     OW10967   0.279   4.897   5.211
 2223SOL    HW110968   0.235   4.808   5.224
 2223SOL    HW210969   0.347   4.889   5.138
 2224SOL     OW10970   3.064   3.222   0.017
 2224SOL    HW110971   3.128   3.229   0.093
 2224SOL    HW210972   3.108   3.175   6.439
 2225SOL     OW10973   5.452   3.606   5.585
 2225SOL    HW110974   5.490   3.617   5.493
 2225SOL    HW210975   5.448   3.695   5.631
 2226SOL     OW10976   2.417   5.384   1.167
 2226SOL    HW110977   2.416   5.322   1.088
 2226SOL    HW210978   2.499   5.367   1.221
 2227SOL     OW10979   4.240   0.825   0.072
 2227SOL    HW110980   4.336   0.840   0.049
 2227SOL    HW210981   4.192   0.913   0.076
 2228SOL     OW10982   2.652   1.119   1.926
 2228SOL    HW110983   2.695   1.110   2.015
 2228SOL    HW210984   2.558   1.151   1.937
 2229SOL     OW10985   0.982   2.732   6.059
 2229SOL    HW110986   0.979   2.783   6.145
 2229SOL    HW210987   1.010   2.638   6.077
 2230SOL     OW10988   2.755   4.960   5.277
 2230SOL    HW110989   2.759   4.902   5.196
 2230SOL    HW210990   2.788   5.052   5.255
 2231SOL     OW10991   3.472   4.578   0.995
 2231SOL    HW110992   3.466   4.480   1.013
 2231SOL    HW210993   3.547   4.616   1.048
 2232SOL     OW10994   3.705   3.132   0.372
 2232SOL    HW110995   3.630   3.188   0.406
 2232SOL    HW210996   3.670   3.041   0.349
 2233SOL     OW10997   4.595   1.163   0.001
 2233SOL    HW110998   4.544   1.228   0.057
 2233SOL    HW210999   4.549   1.074   0.005
 2234SOL     OW11000   2.223   0.906   5.922
 2234SOL    HW111001   2.236   0.886   6.019
 2234SOL    HW211002   2.245   1.002   5.905
 2235SOL     OW11003   0.744   4.094   6.357
 2235SOL    HW111004   0.694   4.163   6.409
 2235SOL    HW211005   0.714   4.097   6.261
 2236SOL     OW11006   4.041   4.415   5.974
 2236SOL    HW111007   4.018   4.436   5.879
 2236SOL    HW211008   4.137   4.387   5.981
 2237SOL     OW11009   5.235   3.465   1.695
 2237SOL    HW111010   5.156   3.525   1.684
 2237SOL    HW211011   5.208   3.383   1.745
 2238SOL     OW11012   2.198   3.361   0.062
 2238SOL    HW111013   2.235   3.324   0.147
 2238SOL    HW211014   2.099   3.348   0.061
 2239SOL     OW11015   3.189   3.605   5.836
 2239SOL    HW111016   3.120   3.675   5.818
 2239SOL    HW211017   3.280   3.646   5.830
 2240SOL     OW11018   3.554   4.176   0.393
 2240SOL    HW111019   3.560   4.087   0.437
 2240SOL    HW211020   3.483   4.230   0.437
 2241SOL     OW11021   1.264   3.413   6.383
 2241SOL    HW111022   1.343   3.471   6.403
 2241SOL    HW211023   1.249   3.349   6.459
 2242SOL     OW11024   2.182   5.413   2.053
 2242SOL    HW111025   2.155   5.400   2.149
 2242SOL    HW211026   2.199   5.510   2.036
 2243SOL     OW11027   3.107   1.586   5.473
 2243SOL    HW111028   3.066   1.551   5.389
 2243SOL    HW211029   3.158   1.670   5.453
 2244SOL     OW11030   3.787   4.506   5.550
 2244SOL    HW111031   3.718   4.528   5.619
 2244SOL    HW211032   3.741   4.483   5.464
 2245SOL     OW11033   5.406   1.077   6.362
 2245SOL    HW111034   5.426   1.054   6.267
 2245SOL    HW211035   5.422   1.175   6.377
 2246SOL     OW11036   3.475   3.635   0.681
 2246SOL    HW111037   3.491   3.602   0.774
 2246SOL    HW211038   3.561   3.636   0.630
 2247SOL     OW11039   1.167   0.595   1.337
 2247SOL    HW111040   1.254   0.620   1.380
 2247SOL    HW211041   1.116   0.534   1.397
 2248SOL     OW11042   2.277   3.113   5.762
 2248SOL    HW111043   2.223   3.076   5.838
 2248SOL    HW211044   2.374   3.099   5.781
 2249SOL     OW11045   1.658   5.188   0.005
 2249SOL    HW111046   1.566   5.205   0.038
 2249SOL    HW211047   1.663   5.206   6.406
 2250SOL     OW11048   0.924   3.752   0.487
 2250SOL    HW111049   0.994   3.735   0.418
 2250SOL    HW211050   0.845   3.694   0.469
 2251SOL     OW11051   4.893   3.800   1.827
 2251SOL    HW111052   4.909   3.803   1.926
 2251SOL    HW211053   4.806   3.753   1.809
 2252SOL     OW11054   5.417   4.340   5.984
 2252SOL    HW111055   5.370   4.367   5.899
 2252SOL    HW211056   5.351   4.301   6.047
 2253SOL     OW11057   1.288   5.192   5.920
 2253SOL    HW111058   1.285   5.280   5.968
 2253SOL    HW211059   1.215   5.189   5.851
 2254SOL     OW11060   5.040   5.489   0.813
 2254SOL    HW111061   5.097   5.426   0.760
 2254SOL    HW211062   5.083   0.005   0.815
 2255SOL     OW11063   1.212   1.743   5.962
 2255SOL    HW111064   1.173   1.761   5.872
 2255SOL    HW211065   1.149   1.686   6.014
 2256SOL     OW11066   5.030   5.377   1.065
 2256SOL    HW111067   5.029   5.423   0.976
 2256SOL    HW211068   5.110   5.407   1.117
 2257SOL     OW11069   1.428   4.267   5.663
 2257SOL    HW111070   1.402   4.180   5.705
 2257SOL    HW211071   1.499   4.311   5.718
 2258SOL     OW11072   3.702   0.248   6.408
 2258SOL    HW111073   3.730   0.153   6.427
 2258SOL    HW211074   3.652   0.283   6.488
 2259SOL     OW11075   5.302   3.890   5.367
 2259SOL    HW111076   5.242   3.968   5.383
 2259SOL    HW211077   5.255   3.824   5.308
 2260SOL     OW11078   3.835   5.490   0.677
 2260SOL    HW111079   3.881   5.558   0.620
 2260SOL    HW211080   3.903   5.433   0.723
 2261SOL     OW11081   4.961   4.576   0.668
 2261SOL    HW111082   4.957   4.599   0.571
 2261SOL    HW211083   5.056   4.579   0.699
 2262SOL     OW11084   2.374   0.478   5.996
 2262SOL    HW111085   2.399   0.571   6.025
 2262SOL    HW211086   2.309   0.440   6.061
 2263SOL     OW11087   0.814   3.030   5.269
 2263SOL    HW111088   0.801   3.107   5.331
 2263SOL    HW211089   0.792   3.059   5.175
 2264SOL     OW11090   3.170   3.628   1.363
 2264SOL    HW111091   3.237   3.565   1.324
 2264SOL    HW211092   3.197   3.722   1.342
 2265SOL     OW11093   3.694   4.146   6.248
 2265SOL    HW111094   3.748   4.214   6.198
 2265SOL    HW211095   3.737   4.127   6.337
 2266SOL     OW11096   1.832   2.193   1.114
 2266SOL    HW111097   1.899   2.257   1.153
 2266SOL    HW211098   1.869   2.153   1.030
 2267SOL     OW11099   0.622   0.136   5.891
 2267SOL    HW111100   0.709   0.112   5.935
 2267SOL    HW211101   0.635   0.215   5.832
 2268SOL     OW11102   0.535   2.918   5.678
 2268SOL    HW111103   0.491   2.935   5.766
 2268SOL    HW211104   0.466   2.913   5.606
 2269SOL     OW11105   3.695   0.081   1.496
 2269SOL    HW111106   3.679   5.560   1.469
 2269SOL    HW211107   3.730   0.084   1.590
 2270SOL     OW11108   4.576   0.725   5.016
 2270SOL    HW111109   4.538   0.727   5.109
 2270SOL    HW211110   4.523   0.662   4.960
 2271SOL     OW11111   3.429   4.317   1.084
 2271SOL    HW111112   3.398   4.336   1.178
 2271SOL    HW211113   3.361   4.261   1.038
 2272SOL     OW11114   1.757   1.175   6.400
 2272SOL    HW111115   1.683   1.116   6.430
 2272SOL    HW211116   1.736   1.212   6.310
 2273SOL     OW11117   0.140   3.643   0.302
 2273SOL    HW111118   0.055   3.677   0.341
 2273SOL    HW211119   0.130   3.632   0.203
 2274SOL     OW11120   1.600   0.622   0.175
 2274SOL    HW111121   1.517   0.597   0.124
 2274SOL    HW211122   1.661   0.543   0.178
 2275SOL     OW11123   3.118   1.301   0.848
 2275SOL    HW111124   3.204   1.297   0.797
 2275SOL    HW211125   3.110   1.220   0.906
 2276SOL     OW11126   0.967   4.605   0.981
 2276SOL    HW111127   1.043   4.612   1.045
 2276SOL    HW211128   0.907   4.530   1.007
 2277SOL     OW11129   0.142   4.967   2.294
 2277SOL    HW111130   0.234   4.944   2.328
 2277SOL    HW211131   0.088   4.883   2.285
 2278SOL     OW11132   5.165   1.784   1.360
 2278SOL    HW111133   5.242   1.721   1.347
 2278SOL    HW211134   5.188   1.874   1.324
 2279SOL     OW11135   2.446   2.317   0.660
 2279SOL    HW111136   2.439   2.417   0.654
 2279SOL    HW211137   2.412   2.287   0.750
 2280SOL     OW11138   4.824   0.721   6.340
 2280SOL    HW111139   4.839   0.797   6.404
 2280SOL    HW211140   4.826   0.756   6.246
 2281SOL     OW11141   4.891   0.061   0.111
 2281SOL    HW111142   4.881   0.021   0.202
 2281SOL    HW211143   4.885   0.160   0.117
 2282SOL     OW11144   2.717   3.473   0.153
 2282SOL    HW111145   2.745   3.451   0.246
 2282SOL    HW211146   2.797   3.469   0.093
 2283SOL     OW11147   4.109   2.167   5.523
 2283SOL    HW111148   4.044   2.151   5.449
 2283SOL    HW211149   4.068   2.227   5.592
 2284SOL     OW11150   0.564   0.997   0.280
 2284SOL    HW111151   0.566   1.096   0.295
 2284SOL    HW211152   0.611   0.951   0.355
 2285SOL     OW11153   1.560   4.318   6.358
 2285SOL    HW111154   1.576   4.273   6.445
 2285SOL    HW211155   1.645   4.359   6.325
 2286SOL     OW11156   5.560   3.404   0.814
 2286SOL    HW111157   5.591   3.363   0.727
 2286SOL    HW211158   5.601   3.354   0.890
 2287SOL     OW11159   0.249   4.714   5.852
 2287SOL    HW111160   0.243   4.808   5.819
 2287SOL    HW211161   0.343   4.694   5.880
 2288SOL     OW11162   5.427   4.257   0.977
 2288SOL    HW111163   5.454   4.161   0.966
 2288SOL    HW211164   5.334   4.270   0.943
 2289SOL     OW11165   3.023   0.379   1.414
 2289SOL    HW111166   2.957   0.305   1.424
 2289SOL    HW211167   3.057   0.381   1.320
 2290SOL     OW11168   3.478   4.553   0.460
 2290SOL    HW111169   3.476   4.597   0.549
 2290SOL    HW211170   3.549   4.595   0.403
 2291SOL     OW11171   0.738   1.080   6.118
 2291SOL    HW111172   0.837   1.081   6.101
 2291SOL    HW211173   0.695   1.152   6.064
 2292SOL     OW11174   0.249   1.112   0.026
 2292SOL    HW111175   0.182   1.053   6.480
 2292SOL    HW211176   0.271   1.074   0.116
 2293SOL     OW11177   2.117   3.382   4.873
 2293SOL    HW111178   2.118   3.320   4.794
 2293SOL    HW211179   2.023   3.409   4.893
 2294SOL     OW11180   0.757   4.524   1.679
 2294SOL    HW111181   0.731   4.607   1.727
 2294SOL    HW211182   0.843   4.489   1.717
 2295SOL     OW11183   2.013   3.054   4.863
 2295SOL    HW111184   2.039   3.114   4.787
 2295SOL    HW211185   2.005   2.960   4.829
 2296SOL     OW11186   5.111   4.126   0.080
 2296SOL    HW111187   5.122   4.031   0.108
 2296SOL    HW211188   5.148   4.187   0.150
 2297SOL     OW11189   0.529   0.908   0.024
 2297SOL    HW111190   0.542   0.939   0.119
 2297SOL    HW211191   0.599   0.950   6.465
 2298SOL     OW11192   1.360   4.510   6.330
 2298SOL    HW111193   1.318   4.502   6.239
 2298SOL    HW211194   1.428   4.437   6.341
 2299SOL     OW11195   0.064   4.762   0.159
 2299SOL    HW111196   0.002   4.734   0.233
 2299SOL    HW211197   0.157   4.769   0.195
 2300SOL     OW11198   1.446   1.652   5.840
 2300SOL    HW111199   1.499   1.730   5.807
 2300SOL    HW211200   1.362   1.685   5.883
 2301SOL     OW11201   1.502   4.816   1.493
 2301SOL    HW111202   1.483   4.720   1.512
 2301SOL    HW211203   1.574   4.823   1.424
 2302SOL     OW11204   2.124   5.024   5.882
 2302SOL    HW111205   2.159   4.934   5.907
 2302SOL    HW211206   2.030   5.033   5.913
 2303SOL     OW11207   1.610   5.172   5.948
 2303SOL    HW111208   1.589   5.270   5.944
 2303SOL    HW211209   1.563   5.124   5.874
 2304SOL     OW11210   4.558   1.850   6.478
 2304SOL    HW111211   4.646   1.892   6.498
 2304SOL    HW211212   4.571   1.774   6.414
 2305SOL     OW11213   2.538   0.389   1.421
 2305SOL    HW111214   2.551   0.471   1.478
 2305SOL    HW211215   2.605   0.389   1.347
 2306SOL     OW11216   3.481   5.036   5.699
 2306SOL    HW111217   3.551   5.027   5.769
 2306SOL    HW211218   3.421   5.113   5.722
 2307SOL     OW11219   4.531   4.987   0.751
 2307SOL    HW111220   4.506   4.890   0.761
 2307SOL    HW211221   4.612   4.994   0.694
 2308SOL     OW11222   1.126   5.303   6.266
 2308SOL    HW111223   1.142   5.300   6.364
 2308SOL    HW211224   1.103   5.211   6.233
 2309SOL     OW11225   3.385   0.748   5.917
 2309SOL    HW111226   3.438   0.719   5.838
 2309SOL    HW211227   3.426   0.831   5.957
 2310SOL     OW11228   0.446   0.661   1.565
 2310SOL    HW111229   0.359   0.626   1.601
 2310SOL    HW211230   0.521   0.630   1.623
 2311SOL     OW11231   3.069   3.684   1.891
 2311SOL    HW111232   2.972   3.663   1.899
 2311SOL    HW211233   3.120   3.634   1.962
 2312SOL     OW11234   2.206   1.141   0.966
 2312SOL    HW111235   2.154   1.056   0.968
 2312SOL    HW211236   2.159   1.211   1.020
 2313SOL     OW11237   3.858   2.725   0.405
 2313SOL    HW111238   3.853   2.695   0.500
 2313SOL    HW211239   3.952   2.749   0.382
 2314SOL     OW11240   4.310   1.460   1.528
 2314SOL    HW111241   4.367   1.534   1.563
 2314SOL    HW211242   4.233   1.499   1.477
 2315SOL     OW11243   4.764   0.967   1.198
 2315SOL    HW111244   4.757   0.910   1.116
 2315SOL    HW211245   4.735   1.060   1.177
 2316SOL     OW11246   3.300   1.051   1.473
 2316SOL    HW111247   3.364   0.999   1.528
 2316SOL    HW211248   3.218   0.997   1.456
 2317SOL     OW11249   0.199   5.450   5.943
 2317SOL    HW111250   0.291   5.487   5.957
 2317SOL    HW211251   0.154   5.439   6.031
 2318SOL     OW11252   4.896   0.428   1.739
 2318SOL    HW111253   4.984   0.393   1.708
 2318SOL    HW211254   4.870   0.382   1.824
 2319SOL     OW11255   0.617   1.769   0.723
 2319SOL    HW111256   0.646   1.862   0.702
 2319SOL    HW211257   0.684   1.725   0.783
 2320SOL     OW11258   1.357   3.078   1.248
 2320SOL    HW111259   1.275   3.070   1.191
 2320SOL    HW211260   1.356   3.165   1.297
 2321SOL     OW11261   3.496   3.935   5.632
 2321SOL    HW111262   3.436   4.011   5.659
 2321SOL    HW211263   3.532   3.952   5.541
 2322SOL     OW11264   0.453   5.461   5.358
 2322SOL    HW111265   0.548   5.450   5.329
 2322SOL    HW211266   0.393   5.411   5.295
 2323SOL     OW11267   2.266   1.852   5.926
 2323SOL    HW111268   2.351   1.885   5.969
 2323SOL    HW211269   2.249   1.758   5.955
 2324SOL     OW11270   0.841   0.735   5.355
 2324SOL    HW111271   0.887   0.796   5.420
 2324SOL    HW211272   0.767   0.686   5.403
 2325SOL     OW11273   2.036   1.241   5.126
 2325SOL    HW111274   1.972   1.279   5.060
 2325SOL    HW211275   2.126   1.231   5.083
 2326SOL     OW11276   4.968   4.749   5.612
 2326SOL    HW111277   4.897   4.820   5.615
 2326SOL    HW211278   5.024   4.761   5.530
 2327SOL     OW11279   3.011   3.726   5.260
 2327SOL    HW111280   3.033   3.635   5.225
 2327SOL    HW211281   2.971   3.781   5.187
 2328SOL     OW11282   0.416   3.291   6.354
 2328SOL    HW111283   0.384   3.360   6.419
 2328SOL    HW211284   0.435   3.335   6.266
 2329SOL     OW11285   1.322   0.025   2.002
 2329SOL    HW111286   1.251   0.068   2.059
 2329SOL    HW211287   1.388   5.551   2.060
 2330SOL     OW11288   2.147   2.910   0.067
 2330SOL    HW111289   2.147   2.980   6.494
 2330SOL    HW211290   2.058   2.910   0.113
 2331SOL     OW11291   0.674   5.531   0.479
 2331SOL    HW111292   0.631   0.039   0.443
 2331SOL    HW211293   0.612   5.453   0.467
 2332SOL     OW11294   1.986   3.836   0.541
 2332SOL    HW111295   1.985   3.914   0.604
 2332SOL    HW211296   1.947   3.756   0.587
 2333SOL     OW11297   5.385   2.801   6.315
 2333SOL    HW111298   5.474   2.844   6.330
 2333SOL    HW211299   5.388   2.743   6.234
 2334SOL     OW11300   1.058   2.833   5.615
 2334SOL    HW111301   0.962   2.835   5.643
 2334SOL    HW211302   1.069   2.888   5.532
 2335SOL     OW11303   0.789   1.623   0.889
 2335SOL    HW111304   0.881   1.600   0.858
 2335SOL    HW211305   0.757   1.553   0.953
 2336SOL     OW11306   2.196   2.486   0.334
 2336SOL    HW111307   2.227   2.555   0.269
 2336SOL    HW211308   2.181   2.529   0.424
 2337SOL     OW11309   0.442   1.731   5.580
 2337SOL    HW111310   0.509   1.765   5.514
 2337SOL    HW211311   0.381   1.805   5.608
 2338SOL     OW11312   1.544   4.882   1.864
 2338SOL    HW111313   1.623   4.941   1.856
 2338SOL    HW211314   1.465   4.934   1.897
 2339SOL     OW11315   4.000   5.251   6.491
 2339SOL    HW111316   4.052   5.280   6.411
 2339SOL    HW211317   4.058   5.194   0.050
 2340SOL     OW11318   3.856   2.716   5.554
 2340SOL    HW111319   3.924   2.643   5.560
 2340SOL    HW211320   3.819   2.720   5.461
 2341SOL     OW11321   4.192   4.320   0.587
 2341SOL    HW111322   4.105   4.332   0.634
 2341SOL    HW211323   4.184   4.354   0.493
 2342SOL     OW11324   1.877   4.196   0.463
 2342SOL    HW111325   1.961   4.247   0.481
 2342SOL    HW211326   1.895   4.125   0.395
 2343SOL     OW11327   1.992   2.591   6.457
 2343SOL    HW111328   1.914   2.653   6.446
 2343SOL    HW211329   1.979   2.536   0.041
 2344SOL     OW11330   1.996   3.568   0.920
 2344SOL    HW111331   1.946   3.606   0.999
 2344SOL    HW211332   2.047   3.487   0.948
 2345SOL     OW11333   1.327   3.030   5.800
 2345SOL    HW111334   1.266   2.958   5.833
 2345SOL    HW211335   1.365   3.079   5.879
 2346SOL     OW11336   4.941   3.127   6.448
 2346SOL    HW111337   4.933   3.042   0.001
 2346SOL    HW211338   4.910   3.112   6.354
 2347SOL     OW11339   1.438   2.749   1.104
 2347SOL    HW111340   1.493   2.678   1.149
 2347SOL    HW211341   1.440   2.833   1.159
 2348SOL     OW11342   0.730   4.020   1.175
 2348SOL    HW111343   0.713   3.924   1.151
 2348SOL    HW211344   0.788   4.061   1.104
 2349SOL     OW11345   5.107   0.094   1.840
 2349SOL    HW111346   5.052   0.112   1.922
 2349SOL    HW211347   5.198   0.063   1.866
 2350SOL     OW11348   5.127   2.952   0.863
 2350SOL    HW111349   5.028   2.953   0.847
 2350SOL    HW211350   5.170   3.027   0.812
 2351SOL     OW11351   2.872   0.408   6.212
 2351SOL    HW111352   2.925   0.325   6.193
 2351SOL    HW211353   2.893   0.478   6.144
 2352SOL     OW11354   0.289   5.381   0.746
 2352SOL    HW111355   0.215   5.361   0.683
 2352SOL    HW211356   0.319   5.297   0.791
 2353SOL     OW11357   0.214   2.041   4.435
 2353SOL    HW111358   0.153   2.022   4.358
 2353SOL    HW211359   0.283   1.969   4.441
 2354SOL     OW11360   0.676   1.870   0.075
 2354SOL    HW111361   0.617   1.795   0.044
 2354SOL    HW211362   0.634   1.958   0.050
 2355SOL     OW11363   1.438   2.774   0.824
 2355SOL    HW111364   1.436   2.760   0.923
 2355SOL    HW211365   1.505   2.713   0.783
 2356SOL     OW11366   0.354   0.698   5.007
 2356SOL    HW111367   0.334   0.615   4.956
 2356SOL    HW211368   0.271   0.729   5.054
 2357SOL     OW11369   3.796   4.810   0.092
 2357SOL    HW111370   3.808   4.909   0.084
 2357SOL    HW211371   3.884   4.765   0.085
 2358SOL     OW11372   4.515   3.971   1.506
 2358SOL    HW111373   4.494   3.981   1.409
 2358SOL    HW211374   4.601   4.017   1.528
 2359SOL     OW11375   2.342   0.774   0.670
 2359SOL    HW111376   2.252   0.804   0.638
 2359SOL    HW211377   2.413   0.831   0.630
 2360SOL     OW11378   2.488   1.432   5.446
 2360SOL    HW111379   2.538   1.423   5.532
 2360SOL    HW211380   2.451   1.343   5.420
 2361SOL     OW11381   0.042   0.440   0.604
 2361SOL    HW111382   0.083   0.448   0.695
 2361SOL    HW211383   0.063   0.350   0.566
 2362SOL     OW11384   4.214   5.078   6.212
 2362SOL    HW111385   4.129   5.024   6.213
 2362SOL    HW211386   4.191   5.175   6.222
 2363SOL     OW11387   1.856   0.724   6.298
 2363SOL    HW111388   1.901   0.793   6.354
 2363SOL    HW211389   1.913   0.703   6.219
 2364SOL     OW11390   3.565   3.156   5.825
 2364SOL    HW111391   3.618   3.084   5.869
 2364SOL    HW211392   3.612   3.186   5.742
 2365SOL     OW11393   2.219   0.840   5.274
 2365SOL    HW111394   2.144   0.862   5.212
 2365SOL    HW211395   2.255   0.750   5.253
 2366SOL     OW11396   1.950   0.578   0.439
 2366SOL    HW111397   1.851   0.592   0.443
 2366SOL    HW211398   1.972   0.485   0.469
 2367SOL     OW11399   3.867   0.219   5.607
 2367SOL    HW111400   3.780   0.241   5.564
 2367SOL    HW211401   3.936   0.201   5.537
 2368SOL     OW11402   4.950   0.296   0.683
 2368SOL    HW111403   4.971   0.393   0.691
 2368SOL    HW211404   4.964   0.266   0.588
 2369SOL     OW11405   2.905   3.843   6.349
 2369SOL    HW111406   2.999   3.817   6.329
 2369SOL    HW211407   2.894   3.942   6.335
 2370SOL     OW11408   5.342   1.706   6.091
 2370SOL    HW111409   5.329   1.617   6.135
 2370SOL    HW211410   5.406   1.761   6.144
 2371SOL     OW11411   1.401   4.147   6.221
 2371SOL    HW111412   1.461   4.212   6.267
 2371SOL    HW211413   1.338   4.107   6.288
 2372SOL     OW11414   0.843   3.065   5.837
 2372SOL    HW111415   0.929   3.100   5.799
 2372SOL    HW211416   0.817   2.982   5.789
 2373SOL     OW11417   3.572   3.486   0.298
 2373SOL    HW111418   3.516   3.464   0.218
 2373SOL    HW211419   3.553   3.421   0.371
 2374SOL     OW11420   1.924   3.221   6.039
 2374SOL    HW111421   1.914   3.313   6.001
 2374SOL    HW211422   1.877   3.155   5.979
 2375SOL     OW11423   3.188   2.315   5.441
 2375SOL    HW111424   3.246   2.365   5.376
 2375SOL    HW211425   3.211   2.218   5.439
 2376SOL     OW11426   2.290   1.604   6.306
 2376SOL    HW111427   2.240   1.519   6.321
 2376SOL    HW211428   2.277   1.664   6.385
 2377SOL     OW11429   1.871   3.671   1.143
 2377SOL    HW111430   1.774   3.653   1.156
 2377SOL    HW211431   1.923   3.638   1.221
 2378SOL     OW11432   2.653   2.862   0.954
 2378SOL    HW111433   2.686   2.945   1.000
 2378SOL    HW211434   2.611   2.801   1.021
 2379SOL     OW11435   1.872   4.444   5.804
 2379SOL    HW111436   1.926   4.361   5.792
 2379SOL    HW211437   1.775   4.421   5.811
 2380SOL     OW11438   0.273   1.753   1.045
 2380SOL    HW111439   0.324   1.774   0.961
 2380SOL    HW211440   0.222   1.833   1.074
 2381SOL     OW11441   0.831   4.800   6.033
 2381SOL    HW111442   0.750   4.858   6.035
 2381SOL    HW211443   0.854   4.778   5.938
 2382SOL     OW11444   5.431   2.272   0.341
 2382SOL    HW111445   5.495   2.238   0.409
 2382SOL    HW211446   5.384   2.195   0.298
 2383SOL     OW11447   1.125   5.144   5.700
 2383SOL    HW111448   1.172   5.086   5.633
 2383SOL    HW211449   1.085   5.222   5.654
 2384SOL     OW11450   2.985   4.524   0.413
 2384SOL    HW111451   2.999   4.590   0.486
 2384SOL    HW211452   2.887   4.507   0.402
 2385SOL     OW11453   1.421   3.135   6.037
 2385SOL    HW111454   1.482   3.085   6.098
 2385SOL    HW211455   1.419   3.231   6.063
 2386SOL     OW11456   0.502   4.932   0.410
 2386SOL    HW111457   0.493   4.996   0.486
 2386SOL    HW211458   0.590   4.944   0.365
 2387SOL     OW11459   1.198   0.874   1.289
 2387SOL    HW111460   1.170   0.778   1.297
 2387SOL    HW211461   1.237   0.905   1.376
 2388SOL     OW11462   3.461   1.373   0.509
 2388SOL    HW111463   3.399   1.375   0.431
 2388SOL    HW211464   3.533   1.442   0.496
 2389SOL     OW11465   1.262   1.415   0.499
 2389SOL    HW111466   1.279   1.396   0.596
 2389SOL    HW211467   1.163   1.416   0.483
 2390SOL     OW11468   0.839   4.393   5.833
 2390SOL    HW111469   0.903   4.450   5.781
 2390SOL    HW211470   0.765   4.363   5.774
 2391SOL     OW11471   4.713   3.865   0.893
 2391SOL    HW111472   4.614   3.872   0.881
 2391SOL    HW211473   4.737   3.883   0.989
 2392SOL     OW11474   3.292   0.999   0.727
 2392SOL    HW111475   3.314   1.096   0.725
 2392SOL    HW211476   3.377   0.946   0.733
 2393SOL     OW11477   3.950   2.123   5.291
 2393SOL    HW111478   3.957   2.222   5.288
 2393SOL    HW211479   3.980   2.085   5.203
 2394SOL     OW11480   1.663   2.510   5.509
 2394SOL    HW111481   1.697   2.597   5.544
 2394SOL    HW211482   1.733   2.440   5.520
 2395SOL     OW11483   3.654   2.936   5.974
 2395SOL    HW111484   3.722   2.944   6.047
 2395SOL    HW211485   3.563   2.932   6.013
 2396SOL     OW11486   5.553   3.413   5.154
 2396SOL    HW111487   5.471   3.356   5.159
 2396SOL    HW211488   5.548   3.485   5.223
 2397SOL     OW11489   1.842   2.240   0.334
 2397SOL    HW111490   1.914   2.235   0.403
 2397SOL    HW211491   1.847   2.161   0.273
 2398SOL     OW11492   4.203   1.819   5.912
 2398SOL    HW111493   4.162   1.874   5.840
 2398SOL    HW211494   4.144   1.742   5.934
 2399SOL     OW11495   4.748   1.873   1.553
 2399SOL    HW111496   4.708   1.845   1.466
 2399SOL    HW211497   4.676   1.892   1.619
 2400SOL     OW11498   2.753   1.576   0.710
 2400SOL    HW111499   2.787   1.504   0.771
 2400SOL    HW211500   2.658   1.557   0.687
 2401SOL     OW11501   4.901   2.259   6.018
 2401SOL    HW111502   4.944   2.239   5.930
 2401SOL    HW211503   4.845   2.341   6.009
 2402SOL     OW11504   3.997   2.695   6.395
 2402SOL    HW111505   4.013   2.712   6.298
 2402SOL    HW211506   3.969   2.600   6.407
 2403SOL     OW11507   5.458   1.445   1.691
 2403SOL    HW111508   5.550   1.479   1.670
 2403SOL    HW211509   5.455   1.411   1.785
 2404SOL     OW11510   3.198   5.280   0.675
 2404SOL    HW111511   3.120   5.310   0.731
 2404SOL    HW211512   3.280   5.276   0.732
 2405SOL     OW11513   0.169   3.046   0.646
 2405SOL    HW111514   0.225   2.983   0.592
 2405SOL    HW211515   0.121   3.109   0.584
 2406SOL     OW11516   1.018   1.731   1.503
 2406SOL    HW111517   0.977   1.707   1.416
 2406SOL    HW211518   1.099   1.675   1.519
 2407SOL     OW11519   5.250   5.449   1.201
 2407SOL    HW111520   5.273   5.544   1.219
 2407SOL    HW211521   5.330   5.391   1.216
 2408SOL     OW11522   2.879   0.076   0.221
 2408SOL    HW111523   2.871   0.091   0.319
 2408SOL    HW211524   2.974   0.088   0.193
 2409SOL     OW11525   4.138   1.148   0.833
 2409SOL    HW111526   4.153   1.246   0.819
 2409SOL    HW211527   4.201   1.096   0.775
 2410SOL     OW11528   3.289   0.432   0.877
 2410SOL    HW111529   3.312   0.504   0.811
 2410SOL    HW211530   3.215   0.376   0.840
 2411SOL     OW11531   4.103   1.345   1.217
 2411SOL    HW111532   4.117   1.251   1.187
 2411SOL    HW211533   4.188   1.397   1.206
 2412SOL     OW11534   1.657   3.161   5.673
 2412SOL    HW111535   1.735   3.155   5.612
 2412SOL    HW211536   1.574   3.133   5.625
 2413SOL     OW11537   5.207   0.566   2.243
 2413SOL    HW111538   5.198   0.473   2.207
 2413SOL    HW211539   5.298   0.577   2.284
 2414SOL     OW11540   2.080   4.021   5.599
 2414SOL    HW111541   2.029   4.019   5.685
 2414SOL    HW211542   2.017   4.034   5.523
 2415SOL     OW11543   1.233   4.311   4.732
 2415SOL    HW111544   1.141   4.341   4.754
 2415SOL    HW211545   1.232   4.215   4.705
 2416SOL     OW11546   1.039   3.122   6.308
 2416SOL    HW111547   1.125   3.089   6.271
 2416SOL    HW211548   0.976   3.144   6.233
 2417SOL     OW11549   5.059   3.773   6.368
 2417SOL    HW111550   4.990   3.838   6.337
 2417SOL    HW211551   5.033   3.681   6.341
 2418SOL     OW11552   5.040   4.927   6.172
 2418SOL    HW111553   4.983   4.992   6.223
 2418SOL    HW211554   4.999   4.836   6.176
 2419SOL     OW11555   1.480   2.000   5.975
 2419SOL    HW111556   1.468   2.092   5.938
 2419SOL    HW211557   1.404   1.979   6.037
 2420SOL     OW11558   0.707   2.403   1.340
 2420SOL    HW111559   0.747   2.312   1.348
 2420SOL    HW211560   0.727   2.440   1.249
 2421SOL     OW11561   4.983   5.244   0.236
 2421SOL    HW111562   4.916   5.198   0.177
 2421SOL    HW211563   4.938   5.269   0.322
 2422SOL     OW11564   4.332   3.027   6.090
 2422SOL    HW111565   4.280   3.064   6.013
 2422SOL    HW211566   4.375   3.102   6.140
 2423SOL     OW11567   0.729   0.107   0.710
 2423SOL    HW111568   0.801   0.057   0.757
 2423SOL    HW211569   0.707   0.062   0.624
 2424SOL     OW11570   0.410   1.588   5.822
 2424SOL    HW111571   0.420   1.624   5.729
 2424SOL    HW211572   0.368   1.657   5.880
 2425SOL     OW11573   4.058   5.372   0.787
 2425SOL    HW111574   4.059   5.413   0.878
 2425SOL    HW211575   4.140   5.400   0.737
 2426SOL     OW11576   5.362   2.932   5.488
 2426SOL    HW111577   5.350   2.895   5.395
 2426SOL    HW211578   5.415   2.867   5.543
 2427SOL     OW11579   5.433   0.132   6.237
 2427SOL    HW111580   5.500   0.198   6.201
 2427SOL    HW211581   5.481   0.058   6.283
 2428SOL     OW11582   3.810   3.471   0.151
 2428SOL    HW111583   3.797   3.524   0.067
 2428SOL    HW211584   3.728   3.478   0.208
 2429SOL     OW11585   4.305   5.466   0.395
 2429SOL    HW111586   4.308   5.467   0.495
 2429SOL    HW211587   4.225   5.517   0.363
 2430SOL     OW11588   5.296   5.238   5.973
 2430SOL    HW111589   5.327   5.321   5.928
 2430SOL    HW211590   5.196   5.240   5.981
 2431SOL     OW11591   0.672   2.334   5.211
 2431SOL    HW111592   0.615   2.341   5.130
 2431SOL    HW211593   0.650   2.409   5.274
 2432SOL     OW11594   2.479   2.605   1.437
 2432SOL    HW111595   2.492   2.643   1.528
 2432SOL    HW211596   2.535   2.522   1.427
 2433SOL     OW11597   1.637   2.630   0.699
 2433SOL    HW111598   1.732   2.603   0.716
 2433SOL    HW211599   1.632   2.682   0.614
 2434SOL     OW11600   3.348   2.982   1.528
 2434SOL    HW111601   3.409   3.020   1.459
 2434SOL    HW211602   3.403   2.941   1.602
 2435SOL     OW11603   5.632   3.496   5.942
 2435SOL    HW111604   5.593   3.456   6.025
 2435SOL    HW211605   5.613   3.594   5.939
 2436SOL     OW11606   5.503   3.490   1.663
 2436SOL    HW111607   5.525   3.583   1.634
 2436SOL    HW211608   5.405   3.482   1.679
 2437SOL     OW11609   0.044   0.948   6.434
 2437SOL    HW111610   5.599   0.970   6.448
 2437SOL    HW211611   0.070   0.872   6.494
 2438SOL     OW11612   3.526   1.239   0.203
 2438SOL    HW111613   3.447   1.299   0.213
 2438SOL    HW211614   3.610   1.293   0.213
 2439SOL     OW11615   4.504   0.900   0.013
 2439SOL    HW111616   4.558   0.881   0.095
 2439SOL    HW211617   4.518   0.827   6.445
 2440SOL     OW11618   3.453   1.828   0.383
 2440SOL    HW111619   3.364   1.819   0.428
 2440SOL    HW211620   3.524   1.839   0.452
 2441SOL     OW11621   1.754   2.240   1.892
 2441SOL    HW111622   1.721   2.244   1.987
 2441SOL    HW211623   1.850   2.214   1.892
 2442SOL     OW11624   0.819   0.661   0.157
 2442SOL    HW111625   0.902   0.608   0.175
 2442SOL    HW211626   0.754   0.604   0.107
 2443SOL     OW11627   0.989   3.667   0.755
 2443SOL    HW111628   1.080   3.639   0.784
 2443SOL    HW211629   0.993   3.703   0.661
 2444SOL     OW11630   0.009   3.242   1.016
 2444SOL    HW111631   0.096   3.228   0.969
 2444SOL    HW211632   5.608   3.157   1.016
 2445SOL     OW11633   2.929   2.091   1.380
 2445SOL    HW111634   2.944   2.122   1.286
 2445SOL    HW211635   2.899   1.996   1.380
 2446SOL     OW11636   5.432   1.310   0.936
 2446SOL    HW111637   5.382   1.383   0.888
 2446SOL    HW211638   5.520   1.345   0.967
 2447SOL     OW11639   2.171   0.155   1.479
 2447SOL    HW111640   2.209   0.135   1.569
 2447SOL    HW211641   2.189   0.078   1.417
 2448SOL     OW11642   1.360   5.430   1.462
 2448SOL    HW111643   1.449   5.397   1.431
 2448SOL    HW211644   1.307   5.463   1.383
 2449SOL     OW11645   5.020   2.292   0.415
 2449SOL    HW111646   5.030   2.225   0.342
 2449SOL    HW211647   5.105   2.342   0.426
 2450SOL     OW11648   4.774   1.154   0.422
 2450SOL    HW111649   4.683   1.112   0.432
 2450SOL    HW211650   4.809   1.137   0.330
 2451SOL     OW11651   5.391   4.892   5.753
 2451SOL    HW111652   5.295   4.886   5.779
 2451SOL    HW211653   5.433   4.970   5.798
 2452SOL     OW11654   4.886   0.958   0.713
 2452SOL    HW111655   4.898   1.057   0.700
 2452SOL    HW211656   4.924   0.932   0.802
 2453SOL     OW11657   2.283   1.766   0.038
 2453SOL    HW111658   2.338   1.721   0.108
 2453SOL    HW211659   2.205   1.811   0.081
 2454SOL     OW11660   3.844   4.118   1.717
 2454SOL    HW111661   3.793   4.077   1.641
 2454SOL    HW211662   3.914   4.054   1.748
 2455SOL     OW11663   2.711   0.157   5.498
 2455SOL    HW111664   2.710   0.256   5.485
 2455SOL    HW211665   2.618   0.123   5.508
 2456SOL     OW11666   0.803   0.338   0.844
 2456SOL    HW111667   0.784   0.252   0.796
 2456SOL    HW211668   0.810   0.412   0.778
 2457SOL     OW11669   3.528   5.547   0.153
 2457SOL    HW111670   3.588   5.493   0.211
 2457SOL    HW211671   3.528   5.510   0.060
 2458SOL     OW11672   1.922   3.914   1.016
 2458SOL    HW111673   1.907   3.828   1.065
 2458SOL    HW211674   1.913   3.899   0.918
 2459SOL     OW11675   4.630   4.799   5.296
 2459SOL    HW111676   4.673   4.721   5.252
 2459SOL    HW211677   4.663   4.883   5.254
 2460SOL     OW11678   2.230   4.137   6.053
 2460SOL    HW111679   2.155   4.128   6.119
 2460SOL    HW211680   2.267   4.047   6.032
 2461SOL     OW11681   3.759   4.500   2.049
 2461SOL    HW111682   3.842   4.445   2.060
 2461SOL    HW211683   3.680   4.439   2.043
 2462SOL     OW11684   0.842   1.250   5.596
 2462SOL    HW111685   0.867   1.241   5.499
 2462SOL    HW211686   0.807   1.343   5.612
 2463SOL     OW11687   2.651   1.816   5.516
 2463SOL    HW111688   2.675   1.724   5.545
 2463SOL    HW211689   2.557   1.836   5.544
 2464SOL     OW11690   0.884   2.052   1.090
 2464SOL    HW111691   0.948   2.047   1.014
 2464SOL    HW211692   0.832   1.967   1.096
 2465SOL     OW11693   4.941   5.016   5.333
 2465SOL    HW111694   5.007   5.070   5.280
 2465SOL    HW211695   4.858   5.003   5.279
 2466SOL     OW11696   2.780   0.991   0.664
 2466SOL    HW111697   2.829   0.950   0.741
 2466SOL    HW211698   2.845   1.015   0.592
 2467SOL     OW11699   3.302   1.397   0.289
 2467SOL    HW111700   3.237   1.324   0.269
 2467SOL    HW211701   3.252   1.483   0.302
 2468SOL     OW11702   5.002   0.462   1.362
 2468SOL    HW111703   4.959   0.384   1.406
 2468SOL    HW211704   5.098   0.467   1.389
 2469SOL     OW11705   1.365   1.539   0.130
 2469SOL    HW111706   1.438   1.471   0.124
 2469SOL    HW211707   1.371   1.586   0.218
 2470SOL     OW11708   2.514   4.052   5.842
 2470SOL    HW111709   2.611   4.055   5.867
 2470SOL    HW211710   2.472   4.141   5.861
 2471SOL     OW11711   3.141   5.312   0.029
 2471SOL    HW111712   3.190   5.298   6.442
 2471SOL    HW211713   3.204   5.351   0.097
 2472SOL     OW11714   3.128   2.836   1.487
 2472SOL    HW111715   3.204   2.900   1.496
 2472SOL    HW211716   3.162   2.745   1.467
 2473SOL     OW11717   4.140   4.081   6.307
 2473SOL    HW111718   4.064   4.017   6.293
 2473SOL    HW211719   4.185   4.059   6.394
 2474SOL     OW11720   2.959   0.555   5.998
 2474SOL    HW111721   2.946   0.480   5.933
 2474SOL    HW211722   3.057   0.568   6.014
 2475SOL     OW11723   3.643   0.400   6.191
 2475SOL    HW111724   3.661   0.498   6.204
 2475SOL    HW211725   3.672   0.350   6.272
 2476SOL     OW11726   2.112   4.686   0.392
 2476SOL    HW111727   2.058   4.634   0.326
 2476SOL    HW211728   2.145   4.770   0.349
 2477SOL     OW11729   2.945   0.428   5.327
 2477SOL    HW111730   3.016   0.494   5.351
 2477SOL    HW211731   2.957   0.400   5.231
 2478SOL     OW11732   2.223   3.599   1.175
 2478SOL    HW111733   2.150   3.594   1.243
 2478SOL    HW211734   2.239   3.695   1.152
 2479SOL     OW11735   5.375   5.453   5.816
 2479SOL    HW111736   5.439   5.474   5.742
 2479SOL    HW211737   5.362   5.534   5.873
 2480SOL     OW11738   0.034   2.977   2.265
 2480SOL    HW111739   0.050   2.883   2.235
 2480SOL    HW211740   5.600   2.981   2.318
 2481SOL     OW11741   0.091   2.604   1.665
 2481SOL    HW111742   0.098   2.648   1.755
 2481SOL    HW211743   0.009   2.547   1.662
 2482SOL     OW11744   3.804   4.297   0.362
 2482SOL    HW111745   3.712   4.258   0.369
 2482SOL    HW211746   3.841   4.279   0.271
 2483SOL     OW11747   2.059   0.309   0.991
 2483SOL    HW111748   2.102   0.242   0.930
 2483SOL    HW211749   2.128   0.374   1.022
 2484SOL     OW11750   0.722   2.255   1.748
 2484SOL    HW111751   0.686   2.250   1.842
 2484SOL    HW211752   0.788   2.181   1.734
 2485SOL     OW11753   1.113   4.519   6.451
 2485SOL    HW111754   1.110   4.583   0.028
 2485SOL    HW211755   1.206   4.512   6.416
 2486SOL     OW11756   0.041   4.156   1.531
 2486SOL    HW111757   0.102   4.121   1.602
 2486SOL    HW211758   5.610   4.100   1.527
 2487SOL     OW11759   4.389   4.822   0.100
 2487SOL    HW111760   4.399   4.921   0.095
 2487SOL    HW211761   4.358   4.787   0.012
 2488SOL     OW11762   4.722   4.560   0.827
 2488SOL    HW111763   4.750   4.613   0.906
 2488SOL    HW211764   4.798   4.554   0.761
 2489SOL     OW11765   1.953   1.084   5.327
 2489SOL    HW111766   1.987   1.137   5.250
 2489SOL    HW211767   1.957   0.986   5.304
 2490SOL     OW11768   0.982   0.231   1.046
 2490SOL    HW111769   0.927   0.149   1.063
 2490SOL    HW211770   0.938   0.287   0.976
 2491SOL     OW11771   1.376   1.802   1.063
 2491SOL    HW111772   1.415   1.895   1.057
 2491SOL    HW211773   1.379   1.760   0.972
 2492SOL     OW11774   2.656   4.092   0.610
 2492SOL    HW111775   2.623   4.053   0.696
 2492SOL    HW211776   2.596   4.063   0.535
 2493SOL     OW11777   4.584   1.561   1.259
 2493SOL    HW111778   4.628   1.529   1.176
 2493SOL    HW211779   4.640   1.535   1.338
 2494SOL     OW11780   4.466   3.971   5.839
 2494SOL    HW111781   4.511   4.060   5.846
 2494SOL    HW211782   4.407   3.970   5.759
 2495SOL     OW11783   1.148   5.005   0.770
 2495SOL    HW111784   1.101   5.048   0.847
 2495SOL    HW211785   1.151   4.906   0.784
 2496SOL     OW11786   1.277   2.549   6.436
 2496SOL    HW111787   1.294   2.492   0.017
 2496SOL    HW211788   1.179   2.570   6.430
 2497SOL     OW11789   0.759   1.449   1.356
 2497SOL    HW111790   0.821   1.388   1.406
 2497SOL    HW211791   0.686   1.481   1.417
 2498SOL     OW11792   5.597   5.347   0.351
 2498SOL    HW111793   5.578   5.428   0.295
 2498SOL    HW211794   5.638   5.276   0.294
 2499SOL     OW11795   4.151   1.880   1.688
 2499SOL    HW111796   4.208   1.961   1.703
 2499SOL    HW211797   4.172   1.841   1.599
 2500SOL     OW11798   1.386   0.681   1.473
 2500SOL    HW111799   1.384   0.780   1.488
 2500SOL    HW211800   1.361   0.634   1.557
 2501SOL     OW11801   4.054   2.355   5.758
 2501SOL    HW111802   4.007   2.433   5.799
 2501SOL    HW211803   4.127   2.323   5.819
 2502SOL     OW11804   0.279   3.670   0.692
 2502SOL    HW111805   0.205   3.734   0.674
 2502SOL    HW211806   0.362   3.701   0.646
 2503SOL     OW11807   4.621   1.060   1.721
 2503SOL    HW111808   4.683   1.099   1.789
 2503SOL    HW211809   4.668   1.055   1.633
 2504SOL     OW11810   5.454   4.485   0.801
 2504SOL    HW111811   5.504   4.427   0.736
 2504SOL    HW211812   5.437   4.433   0.885
 2505SOL     OW11813   1.851   1.198   1.020
 2505SOL    HW111814   1.919   1.192   1.093
 2505SOL    HW211815   1.885   1.257   0.947
 2506SOL     OW11816   4.381   5.310   6.051
 2506SOL    HW111817   4.457   5.251   6.024
 2506SOL    HW211818   4.297   5.276   6.010
 2507SOL     OW11819   2.550   3.344   5.579
 2507SOL    HW111820   2.646   3.360   5.598
 2507SOL    HW211821   2.495   3.373   5.657
 2508SOL     OW11822   1.613   1.862   5.779
 2508SOL    HW111823   1.631   1.923   5.702
 2508SOL    HW211824   1.568   1.914   5.852
 2509SOL     OW11825   1.937   2.821   6.050
 2509SOL    HW111826   1.919   2.792   5.956
 2509SOL    HW211827   2.023   2.780   6.081
 2510SOL     OW11828   3.152   5.494   0.443
 2510SOL    HW111829   3.158   0.020   0.446
 2510SOL    HW211830   3.066   5.465   0.485
 2511SOL     OW11831   3.026   2.125   6.292
 2511SOL    HW111832   3.081   2.159   6.216
 2511SOL    HW211833   2.931   2.114   6.262
 2512SOL     OW11834   4.608   5.389   0.605
 2512SOL    HW111835   4.666   5.429   0.676
 2512SOL    HW211836   4.513   5.416   0.620
 2513SOL     OW11837   3.834   1.968   0.069
 2513SOL    HW111838   3.786   1.903   0.129
 2513SOL    HW211839   3.769   2.037   0.038
 2514SOL     OW11840   2.751   3.013   0.552
 2514SOL    HW111841   2.669   3.064   0.577
 2514SOL    HW211842   2.801   2.987   0.634
 2515SOL     OW11843   3.466   1.269   1.489
 2515SOL    HW111844   3.535   1.244   1.557
 2515SOL    HW211845   3.403   1.192   1.476
 2516SOL     OW11846   3.838   3.755   0.905
 2516SOL    HW111847   3.898   3.676   0.893
 2516SOL    HW211848   3.777   3.739   0.982
 2517SOL     OW11849   4.084   4.659   0.556
 2517SOL    HW111850   4.104   4.727   0.485
 2517SOL    HW211851   4.053   4.706   0.639
 2518SOL     OW11852   1.897   2.544   0.758
 2518SOL    HW111853   1.940   2.457   0.781
 2518SOL    HW211854   1.910   2.609   0.833
 2519SOL     OW11855   5.475   5.283   1.217
 2519SOL    HW111856   5.438   5.212   1.156
 2519SOL    HW211857   5.525   5.350   1.163
 2520SOL     OW11858   1.887   3.460   5.913
 2520SOL    HW111859   1.806   3.448   5.855
 2520SOL    HW211860   1.963   3.493   5.858
 2521SOL     OW11861   0.608   1.268   5.971
 2521SOL    HW111862   0.514   1.254   5.942
 2521SOL    HW211863   0.633   1.364   5.960
 2522SOL     OW11864   3.271   3.911   0.500
 2522SOL    HW111865   3.246   3.963   0.419
 2522SOL    HW211866   3.370   3.917   0.515
 2523SOL     OW11867   3.256   2.485   0.002
 2523SOL    HW111868   3.276   2.403   6.448
 2523SOL    HW211869   3.265   2.465   0.100
 2524SOL     OW11870   5.275   4.937   0.599
 2524SOL    HW111871   5.266   4.929   0.500
 2524SOL    HW211872   5.188   4.914   0.643
 2525SOL     OW11873   1.854   0.110   5.791
 2525SOL    HW111874   1.925   0.089   5.725
 2525SOL    HW211875   1.847   0.035   5.857
 2526SOL     OW11876   0.610   0.529   0.027
 2526SOL    HW111877   0.530   0.579   0.060
 2526SOL    HW211878   0.608   0.524   6.426
 2527SOL     OW11879   3.709   3.608   0.524
 2527SOL    HW111880   3.789   3.656   0.490
 2527SOL    HW211881   3.661   3.565   0.447
 2528SOL     OW11882   4.340   2.306   0.907
 2528SOL    HW111883   4.364   2.268   0.817
 2528SOL    HW211884   4.380   2.249   0.978
 2529SOL     OW11885   3.243   2.114   1.064
 2529SOL    HW111886   3.226   2.018   1.042
 2529SOL    HW211887   3.332   2.123   1.109
 2530SOL     OW11888   0.627   3.166   6.473
 2530SOL    HW111889   0.548   3.210   6.430
 2530SOL    HW211890   0.668   3.229   0.040
 2531SOL     OW11891   5.518   3.677   0.794
 2531SOL    HW111892   5.459   3.687   0.714
 2531SOL    HW211893   5.545   3.582   0.804
 2532SOL     OW11894   0.672   4.481   6.303
 2532SOL    HW111895   0.672   4.410   6.374
 2532SOL    HW211896   0.578   4.510   6.286
 2533SOL     OW11897   2.461   5.564   5.963
 2533SOL    HW111898   2.463   0.063   5.895
 2533SOL    HW211899   2.503   0.023   6.048
 2534SOL     OW11900   5.595   4.725   0.825
 2534SOL    HW111901   5.538   4.808   0.822
 2534SOL    HW211902   5.539   4.645   0.803
 2535SOL     OW11903   4.114   1.678   6.442
 2535SOL    HW111904   4.181   1.752   6.457
 2535SOL    HW211905   4.159   1.602   6.396
 2536SOL     OW11906   2.253   0.930   6.459
 2536SOL    HW111907   2.265   1.030   6.467
 2536SOL    HW211908   2.302   0.885   0.035
 2537SOL     OW11909   2.616   1.078   5.879
 2537SOL    HW111910   2.699   1.085   5.824
 2537SOL    HW211911   2.599   1.164   5.926
 2538SOL     OW11912   3.819   0.311   5.997
 2538SOL    HW111913   3.773   0.244   5.939
 2538SOL    HW211914   3.753   0.349   6.062
 2539SOL     OW11915   3.129   2.884   6.119
 2539SOL    HW111916   3.117   2.873   6.020
 2539SOL    HW211917   3.073   2.817   6.167
 2540SOL     OW11918   1.888   3.614   0.674
 2540SOL    HW111919   1.924   3.595   0.765
 2540SOL    HW211920   1.933   3.555   0.607
 2541SOL     OW11921   4.614   2.315   0.313
 2541SOL    HW111922   4.629   2.230   0.365
 2541SOL    HW211923   4.568   2.382   0.371
 2542SOL     OW11924   3.791   3.627   6.427
 2542SOL    HW111925   3.847   3.567   6.371
 2542SOL    HW211926   3.730   3.681   6.369
 2543SOL     OW11927   2.538   0.061   0.478
 2543SOL    HW111928   2.487   0.063   0.565
 2543SOL    HW211929   2.508   0.138   0.421
 2544SOL     OW11930   4.360   1.955   1.249
 2544SOL    HW111931   4.319   1.917   1.166
 2544SOL    HW211932   4.447   1.908   1.267
 2545SOL     OW11933   3.201   4.434   6.130
 2545SOL    HW111934   3.256   4.374   6.072
 2545SOL    HW211935   3.254   4.459   6.211
 2546SOL     OW11936   3.101   0.708   5.127
 2546SOL    HW111937   3.016   0.759   5.127
 2546SOL    HW211938   3.137   0.703   5.033
 2547SOL     OW11939   3.704   1.566   1.500
 2547SOL    HW111940   3.702   1.497   1.428
 2547SOL    HW211941   3.730   1.524   1.587
 2548SOL     OW11942   3.153   4.322   0.319
 2548SOL    HW111943   3.215   4.375   0.260
 2548SOL    HW211944   3.077   4.380   0.349
 2549SOL     OW11945   0.510   4.692   5.917
 2549SOL    HW111946   0.558   4.612   5.953
 2549SOL    HW211947   0.545   4.774   5.963
 2550SOL     OW11948   4.493   2.185   5.913
 2550SOL    HW111949   4.497   2.111   5.846
 2550SOL    HW211950   4.538   2.266   5.876
 2551SOL     OW11951   1.998   3.799   6.155
 2551SOL    HW111952   1.921   3.736   6.148
 2551SOL    HW211953   2.046   3.803   6.067
 2552SOL     OW11954   0.594   5.443   1.064
 2552SOL    HW111955   0.511   5.475   1.018
 2552SOL    HW211956   0.577   5.435   1.162
 2553SOL     OW11957   3.131   5.447   6.224
 2553SOL    HW111958   3.166   5.518   6.285
 2553SOL    HW211959   3.043   5.414   6.257
 2554SOL     OW11960   3.079   2.679   0.095
 2554SOL    HW111961   3.109   2.730   0.175
 2554SOL    HW211962   3.153   2.621   0.062
 2555SOL     OW11963   2.243   5.274   0.604
 2555SOL    HW111964   2.200   5.342   0.544
 2555SOL    HW211965   2.342   5.274   0.590
 2556SOL     OW11966   2.657   2.185   1.599
 2556SOL    HW111967   2.560   2.159   1.593
 2556SOL    HW211968   2.712   2.104   1.620
 2557SOL     OW11969   0.144   3.159   1.590
 2557SOL    HW111970   0.167   3.084   1.652
 2557SOL    HW211971   0.125   3.241   1.644
 2558SOL     OW11972   4.952   2.910   0.355
 2558SOL    HW111973   5.046   2.896   0.385
 2558SOL    HW211974   4.895   2.835   0.388
 2559SOL     OW11975   0.466   2.576   1.053
 2559SOL    HW111976   0.505   2.616   1.137
 2559SOL    HW211977   0.540   2.540   0.996
 2560SOL     OW11978   2.661   2.397   0.950
 2560SOL    HW111979   2.664   2.474   0.886
 2560SOL    HW211980   2.737   2.335   0.933
 2561SOL     OW11981   2.881   2.430   0.310
 2561SOL    HW111982   2.954   2.486   0.349
 2561SOL    HW211983   2.880   2.443   0.211
 2562SOL     OW11984   2.321   5.047   5.478
 2562SOL    HW111985   2.369   4.996   5.549
 2562SOL    HW211986   2.334   5.003   5.390
 2563SOL     OW11987   0.365   3.922   0.020
 2563SOL    HW111988   0.407   3.930   6.429
 2563SOL    HW211989   0.265   3.918   0.010
 2564SOL     OW11990   3.538   1.605   5.816
 2564SOL    HW111991   3.587   1.549   5.749
 2564SOL    HW211992   3.550   1.702   5.793
 2565SOL     OW11993   2.895   2.972   1.482
 2565SOL    HW111994   2.832   2.925   1.420
 2565SOL    HW211995   2.983   2.925   1.482
 2566SOL     OW11996   3.542   4.164   0.119
 2566SOL    HW111997   3.477   4.092   0.094
 2566SOL    HW211998   3.545   4.173   0.219
 2567SOL     OW11999   4.150   2.435   1.626
 2567SOL    HW112000   4.243   2.454   1.595
 2567SOL    HW212001   4.153   2.382   1.711
 2568SOL     OW12002   1.526   1.124   1.598
 2568SOL    HW112003   1.611   1.115   1.649
 2568SOL    HW212004   1.466   1.189   1.645
 2569SOL     OW12005   3.276   5.092   2.068
 2569SOL    HW112006   3.246   5.117   2.160
 2569SOL    HW212007   3.322   5.003   2.072
 2570SOL     OW12008   5.277   1.712   5.824
 2570SOL    HW112009   5.300   1.697   5.921
 2570SOL    HW212010   5.182   1.687   5.809
 2571SOL     OW12011   1.094   2.415   1.231
 2571SOL    HW112012   1.103   2.440   1.328
 2571SOL    HW212013   1.132   2.488   1.175
 2572SOL     OW12014   3.110   0.378   1.162
 2572SOL    HW112015   3.193   0.334   1.126
 2572SOL    HW212016   3.052   0.406   1.085
 2573SOL     OW12017   0.244   3.129   6.035
 2573SOL    HW112018   0.157   3.095   6.001
 2573SOL    HW212019   0.243   3.129   6.135
 2574SOL     OW12020   2.092   1.242   6.092
 2574SOL    HW112021   2.048   1.159   6.124
 2574SOL    HW212022   2.165   1.219   6.027
 2575SOL     OW12023   5.542   4.401   0.413
 2575SOL    HW112024   5.546   4.500   0.395
 2575SOL    HW212025   5.449   4.376   0.439
 2576SOL     OW12026   3.998   1.166   5.564
 2576SOL    HW112027   3.919   1.218   5.531
 2576SOL    HW212028   4.066   1.160   5.491
 2577SOL     OW12029   3.752   5.451   5.341
 2577SOL    HW112030   3.776   5.544   5.312
 2577SOL    HW212031   3.833   5.394   5.340
 2578SOL     OW12032   2.737   2.034   5.927
 2578SOL    HW112033   2.695   1.946   5.903
 2578SOL    HW212034   2.689   2.108   5.880
 2579SOL     OW12035   2.128   4.158   6.447
 2579SOL    HW112036   2.196   4.228   6.427
 2579SOL    HW212037   2.085   4.127   6.362
 2580SOL     OW12038   3.825   0.381   1.648
 2580SOL    HW112039   3.818   0.437   1.565
 2580SOL    HW212040   3.791   0.434   1.726
 2581SOL     OW12041   3.423   0.018   0.977
 2581SOL    HW112042   3.506   0.019   0.921
 2581SOL    HW212043   3.343   0.009   0.918
 2582SOL     OW12044   5.151   2.518   0.687
 2582SOL    HW112045   5.187   2.490   0.598
 2582SOL    HW212046   5.166   2.444   0.753
 2583SOL     OW12047   2.203   4.926   1.173
 2583SOL    HW112048   2.160   4.929   1.263
 2583SOL    HW212049   2.301   4.944   1.181
 2584SOL     OW12050   3.604   0.267   5.535
 2584SOL    HW112051   3.614   0.330   5.457
 2584SOL    HW212052   3.507   0.246   5.548
 2585SOL     OW12053   2.490   2.874   6.278
 2585SOL    HW112054   2.513   2.941   6.349
 2585SOL    HW212055   2.436   2.918   6.206
 2586SOL     OW12056   0.744   5.209   1.002
 2586SOL    HW112057   0.739   5.159   1.089
 2586SOL    HW212058   0.692   5.294   1.009
 2587SOL     OW12059   2.213   0.166   5.067
 2587SOL    HW112060   2.197   0.158   4.969
 2587SOL    HW212061   2.266   0.248   5.085
 2588SOL     OW12062   4.076   1.557   1.400
 2588SOL    HW112063   4.022   1.629   1.356
 2588SOL    HW212064   4.077   1.476   1.341
 2589SOL     OW12065   1.573   2.147   1.703
 2589SOL    HW112066   1.493   2.208   1.709
 2589SOL    HW212067   1.634   2.165   1.780
 2590SOL     OW12068   0.898   0.658   5.670
 2590SOL    HW112069   0.943   0.666   5.759
 2590SOL    HW212070   0.911   0.742   5.618
 2591SOL     OW12071   3.100   2.561   1.057
 2591SOL    HW112072   3.035   2.588   0.985
 2591SOL    HW212073   3.155   2.484   1.024
 2592SOL     OW12074   3.812   1.451   1.728
 2592SOL    HW112075   3.799   1.456   1.827
 2592SOL    HW212076   3.891   1.505   1.702
 2593SOL     OW12077   2.368   4.695   6.178
 2593SOL    HW112078   2.294   4.633   6.206
 2593SOL    HW212079   2.399   4.746   6.258
 2594SOL     OW12080   3.799   5.533   6.000
 2594SOL    HW112081   3.732   5.462   6.022
 2594SOL    HW212082   3.761   0.021   5.932
 2595SOL     OW12083   0.056   2.784   5.109
 2595SOL    HW112084   0.069   2.882   5.127
 2595SOL    HW212085   0.085   2.763   5.016
 2596SOL     OW12086   0.920   0.782   1.446
 2596SOL    HW112087   0.977   0.739   1.516
 2596SOL    HW212088   0.926   0.882   1.455
 2597SOL     OW12089   5.496   3.322   1.443
 2597SOL    HW112090   5.449   3.239   1.471
 2597SOL    HW212091   5.509   3.381   1.523
 2598SOL     OW12092   1.549   4.807   6.114
 2598SOL    HW112093   1.523   4.722   6.069
 2598SOL    HW212094   1.647   4.822   6.104
 2599SOL     OW12095   5.450   4.240   0.085
 2599SOL    HW112096   5.441   4.292   0.000
 2599SOL    HW212097   5.541   4.252   0.123
 2600SOL     OW12098   4.468   1.186   0.725
 2600SOL    HW112099   4.528   1.162   0.801
 2600SOL    HW212100   4.503   1.267   0.679
 2601SOL     OW12101   3.368   0.184   0.224
 2601SOL    HW112102   3.366   0.253   0.151
 2601SOL    HW212103   3.434   0.113   0.201
 2602SOL     OW12104   0.928   2.039   5.894
 2602SOL    HW112105   0.849   2.013   5.838
 2602SOL    HW212106   1.008   2.051   5.835
 2603SOL     OW12107   3.089   3.457   0.344
 2603SOL    HW112108   3.138   3.377   0.309
 2603SOL    HW212109   3.151   3.512   0.400
 2604SOL     OW12110   1.672   0.063   0.998
 2604SOL    HW112111   1.591   0.017   1.035
 2604SOL    HW212112   1.643   0.136   0.937
 2605SOL     OW12113   3.481   4.948   1.523
 2605SOL    HW112114   3.543   4.941   1.600
 2605SOL    HW212115   3.387   4.961   1.556
 2606SOL     OW12116   1.068   4.483   1.346
 2606SOL    HW112117   0.968   4.488   1.352
 2606SOL    HW212118   1.100   4.545   1.275
 2607SOL     OW12119   2.117   2.312   1.658
 2607SOL    HW112120   2.090   2.269   1.744
 2607SOL    HW212121   2.131   2.410   1.673
 2608SOL     OW12122   3.433   0.318   1.332
 2608SOL    HW112123   3.532   0.313   1.338
 2608SOL    HW212124   3.404   0.303   1.237
 2609SOL     OW12125   1.394   1.712   0.801
 2609SOL    HW112126   1.305   1.745   0.771
 2609SOL    HW212127   1.466   1.757   0.747
 2610SOL     OW12128   3.082   0.899   1.425
 2610SOL    HW112129   3.101   0.801   1.431
 2610SOL    HW212130   2.991   0.918   1.461
 2611SOL     OW12131   1.015   0.136   5.559
 2611SOL    HW112132   1.059   0.119   5.470
 2611SOL    HW212133   0.986   0.232   5.564
 2612SOL     OW12134   4.720   0.203   0.797
 2612SOL    HW112135   4.656   0.278   0.812
 2612SOL    HW212136   4.802   0.238   0.752
 2613SOL     OW12137   0.973   2.742   4.570
 2613SOL    HW112138   1.060   2.767   4.526
 2613SOL    HW212139   0.943   2.654   4.535
 2614SOL     OW12140   4.717   2.107   0.982
 2614SOL    HW112141   4.773   2.181   1.018
 2614SOL    HW212142   4.623   2.116   1.015
 2615SOL     OW12143   4.270   0.762   4.733
 2615SOL    HW112144   4.228   0.676   4.761
 2615SOL    HW212145   4.347   0.743   4.672
 2616SOL     OW12146   4.610   1.107   0.949
 2616SOL    HW112147   4.625   1.156   1.034
 2616SOL    HW212148   4.536   1.040   0.961
 2617SOL     OW12149   0.132   5.451   6.203
 2617SOL    HW112150   0.052   5.480   6.256
 2617SOL    HW212151   0.212   5.504   6.231
 2618SOL     OW12152   2.559   5.002   0.523
 2618SOL    HW112153   2.648   5.038   0.550
 2618SOL    HW212154   2.524   5.053   0.444
 2619SOL     OW12155   2.083   5.054   0.541
 2619SOL    HW112156   2.147   5.125   0.569
 2619SOL    HW212157   1.989   5.086   0.555
 2620SOL     OW12158   1.637   1.196   0.291
 2620SOL    HW112159   1.546   1.182   0.330
 2620SOL    HW212160   1.632   1.265   0.219
 2621SOL     OW12161   1.887   3.174   5.066
 2621SOL    HW112162   1.937   3.129   4.992
 2621SOL    HW212163   1.874   3.271   5.042
 2622SOL     OW12164   5.030   4.190   6.335
 2622SOL    HW112165   4.973   4.116   6.299
 2622SOL    HW212166   5.060   4.166   6.428
 2623SOL     OW12167   0.772   4.727   0.717
 2623SOL    HW112168   0.800   4.795   0.785
 2623SOL    HW212169   0.757   4.639   0.763
 2624SOL     OW12170   1.086   0.550   0.656
 2624SOL    HW112171   1.136   0.502   0.729
 2624SOL    HW212172   1.129   0.530   0.568
 2625SOL     OW12173   2.002   0.999   6.178
 2625SOL    HW112174   2.086   0.946   6.180
 2625SOL    HW212175   1.959   0.996   6.269
 2626SOL     OW12176   3.426   1.581   1.173
 2626SOL    HW112177   3.375   1.565   1.089
 2626SOL    HW212178   3.405   1.509   1.239
 2627SOL     OW12179   0.910   3.780   5.762
 2627SOL    HW112180   0.877   3.723   5.686
 2627SOL    HW212181   0.842   3.850   5.782
 2628SOL     OW12182   0.160   5.016   0.514
 2628SOL    HW112183   0.236   5.015   0.450
 2628SOL    HW212184   0.173   4.945   0.583
 2629SOL     OW12185   1.391   5.513   5.718
 2629SOL    HW112186   1.322   0.006   5.747
 2629SOL    HW212187   1.442   5.482   5.798
 2630SOL     OW12188   0.126   1.265   5.740
 2630SOL    HW112189   0.055   1.331   5.765
 2630SOL    HW212190   0.138   1.264   5.641
 2631SOL     OW12191   1.634   0.263   5.747
 2631SOL    HW112192   1.719   0.211   5.757
 2631SOL    HW212193   1.628   0.300   5.655
 2632SOL     OW12194   1.856   3.073   0.418
 2632SOL    HW112195   1.869   3.030   0.507
 2632SOL    HW212196   1.763   3.110   0.412
 2633SOL     OW12197   2.976   1.997   0.428
 2633SOL    HW112198   2.881   2.016   0.403
 2633SOL    HW212199   3.038   2.041   0.363
 2634SOL     OW12200   1.370   0.471   5.432
 2634SOL    HW112201   1.296   0.428   5.381
 2634SOL    HW212202   1.331   0.534   5.499
 2635SOL     OW12203   4.368   5.507   6.242
 2635SOL    HW112204   4.391   5.441   6.170
 2635SOL    HW212205   4.385   0.026   6.209
 2636SOL     OW12206   3.108   2.268   0.684
 2636SOL    HW112207   3.176   2.279   0.611
 2636SOL    HW212208   3.075   2.174   0.684
 2637SOL     OW12209   1.269   2.171   0.926
 2637SOL    HW112210   1.257   2.262   0.965
 2637SOL    HW212211   1.348   2.126   0.968
 2638SOL     OW12212   4.467   2.866   0.657
 2638SOL    HW112213   4.486   2.844   0.561
 2638SOL    HW212214   4.398   2.938   0.661
 2639SOL     OW12215   0.920   4.969   6.370
 2639SOL    HW112216   0.873   4.883   6.348
 2639SOL    HW212217   0.976   4.997   6.293
 2640SOL     OW12218   2.023   4.279   1.219
 2640SOL    HW112219   2.077   4.230   1.150
 2640SOL    HW212220   2.048   4.376   1.218
 2641SOL     OW12221   0.614   2.354   6.408
 2641SOL    HW112222   0.645   2.346   6.313
 2641SOL    HW212223   0.676   2.416   6.457
 2642SOL     OW12224   1.483   2.766   4.449
 2642SOL    HW112225   1.538   2.693   4.488
 2642SOL    HW212226   1.542   2.840   4.417
 2643SOL     OW12227   3.815   1.317   5.408
 2643SOL    HW112228   3.755   1.263   5.349
 2643SOL    HW212229   3.898   1.343   5.358
 2644SOL     OW12230   4.452   4.884   1.798
 2644SOL    HW112231   4.408   4.812   1.853
 2644SOL    HW212232   4.545   4.898   1.832
 2645SOL     OW12233   4.734   4.321   6.329
 2645SOL    HW112234   4.679   4.403   6.346
 2645SOL    HW212235   4.831   4.347   6.323
 2646SOL     OW12236   5.027   4.488   0.203
 2646SOL    HW112237   5.097   4.419   0.216
 2646SOL    HW212238   5.010   4.536   0.289
 2647SOL     OW12239   5.526   2.755   5.619
 2647SOL    HW112240   5.505   2.675   5.562
 2647SOL    HW212241   5.625   2.762   5.630
 2648SOL     OW12242   4.723   1.412   6.056
 2648SOL    HW112243   4.675   1.492   6.021
 2648SOL    HW212244   4.723   1.414   6.156
 2649SOL     OW12245   4.008   4.752   0.802
 2649SOL    HW112246   3.944   4.695   0.853
 2649SOL    HW212247   4.092   4.764   0.855
 2650SOL     OW12248   0.312   1.783   5.992
 2650SOL    HW112249   0.217   1.755   6.001
 2650SOL    HW212250   0.349   1.805   6.082
 2651SOL     OW12251   1.873   0.438   1.154
 2651SOL    HW112252   1.889   0.383   1.235
 2651SOL    HW212253   1.927   0.402   1.078
 2652SOL     OW12254   5.276   1.000   0.665
 2652SOL    HW112255   5.194   0.961   0.622
 2652SOL    HW212256   5.294   1.090   0.626
 2653SOL     OW12257   2.047   4.935   0.025
 2653SOL    HW112258   2.125   4.881   0.056
 2653SOL    HW212259   2.065   5.032   0.040
 2654SOL     OW12260   4.885   3.167   0.439
 2654SOL    HW112261   4.849   3.160   0.532
 2654SOL    HW212262   4.901   3.075   0.403
 2655SOL     OW12263   4.554   4.439   1.829
 2655SOL    HW112264   4.528   4.463   1.923
 2655SOL    HW212265   4.570   4.341   1.823
 2656SOL     OW12266   3.593   4.900   6.408
 2656SOL    HW112267   3.653   4.854   6.473
 2656SOL    HW212268   3.554   4.833   6.344
 2657SOL     OW12269   4.401   0.838   6.214
 2657SOL    HW112270   4.447   0.762   6.262
 2657SOL    HW212271   4.306   0.813   6.196
 2658SOL     OW12272   5.504   5.002   6.330
 2658SOL    HW112273   5.573   5.067   6.298
 2658SOL    HW212274   5.430   4.996   6.264
 2659SOL     OW12275   0.016   3.003   5.956
 2659SOL    HW112276   5.568   3.013   5.952
 2659SOL    HW212277   0.040   2.925   6.013
 2660SOL     OW12278   5.554   3.966   6.117
 2660SOL    HW112279   5.468   3.961   6.169
 2660SOL    HW212280   5.625   4.006   6.175
 2661SOL     OW12281   1.413   4.397   5.234
 2661SOL    HW112282   1.366   4.466   5.289
 2661SOL    HW212283   1.447   4.438   5.150
 2662SOL     OW12284   5.328   3.609   6.254
 2662SOL    HW112285   5.335   3.709   6.252
 2662SOL    HW212286   5.243   3.581   6.210
 2663SOL     OW12287   1.636   3.092   1.245
 2663SOL    HW112288   1.536   3.086   1.238
 2663SOL    HW212289   1.660   3.153   1.320
 2664SOL     OW12290   2.445   4.998   1.313
 2664SOL    HW112291   2.374   4.968   1.376
 2664SOL    HW212292   2.513   5.052   1.363
 2665SOL     OW12293   3.138   3.862   1.037
 2665SOL    HW112294   3.046   3.868   0.998
 2665SOL    HW212295   3.202   3.834   0.965
 2666SOL     OW12296   5.611   2.179   0.526
 2666SOL    HW112297   0.034   2.116   0.507
 2666SOL    HW212298   5.606   2.196   0.624
 2667SOL     OW12299   1.699   3.709   1.890
 2667SOL    HW112300   1.650   3.661   1.963
 2667SOL    HW212301   1.768   3.770   1.929
 2668SOL     OW12302   1.808   4.120   1.161
 2668SOL    HW112303   1.846   4.044   1.108
 2668SOL    HW212304   1.883   4.180   1.191
 2669SOL     OW12305   1.735   1.661   0.955
 2669SOL    HW112306   1.661   1.600   0.927
 2669SOL    HW212307   1.789   1.617   1.027
 2670SOL     OW12308   1.697   3.951   0.023
 2670SOL    HW112309   1.684   4.046   0.053
 2670SOL    HW212310   1.792   3.939   6.494
 2671SOL     OW12311   3.876   1.723   5.777
 2671SOL    HW112312   3.841   1.800   5.831
 2671SOL    HW212313   3.832   1.723   5.687
 2672SOL     OW12314   2.083   2.075   5.454
 2672SOL    HW112315   2.103   2.023   5.536
 2672SOL    HW212316   2.139   2.041   5.378
 2673SOL     OW12317   3.477   1.721   2.074
 2673SOL    HW112318   3.452   1.707   2.169
 2673SOL    HW212319   3.467   1.818   2.051
 2674SOL     OW12320   5.447   0.794   0.592
 2674SOL    HW112321   5.410   0.724   0.531
 2674SOL    HW212322   5.376   0.860   0.614
 2675SOL     OW12323   0.895   3.658   1.262
 2675SOL    HW112324   0.930   3.566   1.245
 2675SOL    HW212325   0.942   3.723   1.202
 2676SOL     OW12326   0.811   0.532   0.648
 2676SOL    HW112327   0.773   0.551   0.557
 2676SOL    HW212328   0.910   0.538   0.644
 2677SOL     OW12329   1.208   0.994   0.505
 2677SOL    HW112330   1.240   1.032   0.591
 2677SOL    HW212331   1.247   0.902   0.492
 2678SOL     OW12332   1.121   2.102   4.599
 2678SOL    HW112333   1.069   2.038   4.542
 2678SOL    HW212334   1.109   2.195   4.564
 2679SOL     OW12335   0.185   4.780   1.298
 2679SOL    HW112336   0.172   4.682   1.282
 2679SOL    HW212337   0.115   4.831   1.249
 2680SOL     OW12338   3.657   2.539   1.827
 2680SOL    HW112339   3.647   2.506   1.921
 2680SOL    HW212340   3.736   2.495   1.785
 2681SOL     OW12341   2.321   3.937   0.696
 2681SOL    HW112342   2.274   4.018   0.730
 2681SOL    HW212343   2.273   3.855   0.727
 2682SOL     OW12344   1.682   0.963   0.712
 2682SOL    HW112345   1.645   0.993   0.800
 2682SOL    HW212346   1.772   0.922   0.726
 2683SOL     OW12347   2.689   1.538   2.206
 2683SOL    HW112348   2.771   1.586   2.238
 2683SOL    HW212349   2.611   1.601   2.208
 2684SOL     OW12350   2.173   2.853   0.915
 2684SOL    HW112351   2.169   2.850   0.815
 2684SOL    HW212352   2.200   2.945   0.944
 2685SOL     OW12353   0.744   2.712   5.933
 2685SOL    HW112354   0.752   2.752   5.841
 2685SOL    HW212355   0.832   2.715   5.979
 2686SOL     OW12356   4.816   4.124   1.313
 2686SOL    HW112357   4.911   4.128   1.284
 2686SOL    HW212358   4.811   4.118   1.412
 2687SOL     OW12359   1.821   1.337   5.353
 2687SOL    HW112360   1.859   1.245   5.351
 2687SOL    HW212361   1.866   1.392   5.282
 2688SOL     OW12362   5.015   3.620   1.659
 2688SOL    HW112363   4.983   3.689   1.724
 2688SOL    HW212364   4.988   3.647   1.566
 2689SOL     OW12365   4.263   3.961   0.468
 2689SOL    HW112366   4.251   3.936   0.565
 2689SOL    HW212367   4.262   3.878   0.412
 2690SOL     OW12368   3.027   3.458   1.182
 2690SOL    HW112369   3.076   3.373   1.199
 2690SOL    HW212370   3.056   3.527   1.248
 2691SOL     OW12371   5.555   4.387   1.485
 2691SOL    HW112372   5.613   4.308   1.503
 2691SOL    HW212373   5.518   4.382   1.393
 2692SOL     OW12374   2.429   4.842   0.720
 2692SOL    HW112375   2.382   4.776   0.662
 2692SOL    HW212376   2.469   4.914   0.663
 2693SOL     OW12377   3.530   2.131   0.864
 2693SOL    HW112378   3.601   2.199   0.845
 2693SOL    HW212379   3.555   2.044   0.821
 2694SOL     OW12380   4.283   3.071   0.666
 2694SOL    HW112381   4.285   3.121   0.753
 2694SOL    HW212382   4.272   3.135   0.590
 2695SOL     OW12383   3.791   5.078   0.027
 2695SOL    HW112384   3.864   5.142   0.003
 2695SOL    HW212385   3.741   5.052   6.442
 2696SOL     OW12386   3.976   3.324   0.481
 2696SOL    HW112387   3.945   3.287   0.393
 2696SOL    HW212388   3.901   3.319   0.547
 2697SOL     OW12389   3.415   3.341   0.876
 2697SOL    HW112390   3.398   3.429   0.920
 2697SOL    HW212391   3.369   3.339   0.787
 2698SOL     OW12392   4.225   3.873   0.731
 2698SOL    HW112393   4.222   3.774   0.742
 2698SOL    HW212394   4.144   3.914   0.773
 2699SOL     OW12395   5.455   1.348   6.382
 2699SOL    HW112396   5.454   1.399   6.469
 2699SOL    HW212397   5.546   1.356   6.341
 2700SOL     OW12398   5.549   2.124   6.107
 2700SOL    HW112399   5.609   2.109   6.028
 2700SOL    HW212400   5.479   2.191   6.083
 2701SOL     OW12401   3.356   2.281   6.347
 2701SOL    HW112402   3.428   2.289   6.277
 2701SOL    HW212403   3.334   2.184   6.360
 2702SOL     OW12404   0.869   4.245   6.062
 2702SOL    HW112405   0.870   4.291   5.973
 2702SOL    HW212406   0.912   4.305   6.130
 2703SOL     OW12407   2.049   0.905   0.991
 2703SOL    HW112408   2.031   0.881   0.896
 2703SOL    HW212409   1.963   0.918   1.040
 2704SOL     OW12410   3.582   1.877   5.746
 2704SOL    HW112411   3.647   1.899   5.819
 2704SOL    HW212412   3.513   1.949   5.740
 2705SOL     OW12413   3.439   3.606   0.986
 2705SOL    HW112414   3.521   3.645   1.027
 2705SOL    HW212415   3.376   3.679   0.959
 2706SOL     OW12416   1.527   4.403   0.261
 2706SOL    HW112417   1.509   4.500   0.247
 2706SOL    HW212418   1.456   4.364   0.320
 2707SOL     OW12419   0.528   3.027   0.382
 2707SOL    HW112420   0.542   3.111   0.433
 2707SOL    HW212421   0.609   3.007   0.327
 2708SOL     OW12422   5.207   4.275   6.147
 2708SOL    HW112423   5.143   4.284   6.070
 2708SOL    HW212424   5.160   4.233   6.225
 2709SOL     OW12425   4.626   4.992   0.257
 2709SOL    HW112426   4.557   5.011   0.188
 2709SOL    HW212427   4.612   5.052   0.336
 2710SOL     OW12428   1.745   2.337   5.226
 2710SOL    HW112429   1.775   2.339   5.131
 2710SOL    HW212430   1.768   2.249   5.267
 2711SOL     OW12431   5.407   1.904   0.414
 2711SOL    HW112432   5.456   1.960   0.480
 2711SOL    HW212433   5.367   1.962   0.343
 2712SOL     OW12434   4.421   0.550   6.055
 2712SOL    HW112435   4.421   0.634   6.003
 2712SOL    HW212436   4.516   0.519   6.068
 2713SOL     OW12437   4.043   1.718   5.199
 2713SOL    HW112438   4.111   1.647   5.217
 2713SOL    HW212439   4.042   1.738   5.101
 2714SOL     OW12440   1.866   1.504   1.139
 2714SOL    HW112441   1.827   1.443   1.208
 2714SOL    HW212442   1.962   1.481   1.125
 2715SOL     OW12443   2.143   3.436   1.737
 2715SOL    HW112444   2.164   3.533   1.742
 2715SOL    HW212445   2.217   3.383   1.780
 2716SOL     OW12446   1.044   2.538   0.423
 2716SOL    HW112447   0.989   2.488   0.356
 2716SOL    HW212448   1.130   2.567   0.380
 2717SOL     OW12449   3.887   2.673   4.857
 2717SOL    HW112450   3.810   2.717   4.810
 2717SOL    HW212451   3.859   2.582   4.888
 2718SOL     OW12452   1.883   2.977   0.677
 2718SOL    HW112453   1.794   2.939   0.703
 2718SOL    HW212454   1.899   3.062   0.729
 2719SOL     OW12455   5.104   0.496   6.058
 2719SOL    HW112456   5.195   0.535   6.071
 2719SOL    HW212457   5.111   0.412   6.003
 2720SOL     OW12458   2.299   0.116   1.722
 2720SOL    HW112459   2.258   0.099   1.811
 2720SOL    HW212460   2.391   0.153   1.733
 2721SOL     OW12461   1.199   0.876   6.448
 2721SOL    HW112462   1.132   0.944   6.416
 2721SOL    HW212463   1.252   0.915   0.024
 2722SOL     OW12464   0.722   1.469   6.246
 2722SOL    HW112465   0.698   1.565   6.232
 2722SOL    HW212466   0.693   1.415   6.168
 2723SOL     OW12467   2.741   3.765   5.892
 2723SOL    HW112468   2.751   3.864   5.895
 2723SOL    HW212469   2.662   3.741   5.834
 2724SOL     OW12470   0.976   3.932   0.197
 2724SOL    HW112471   0.879   3.917   0.218
 2724SOL    HW212472   0.983   3.997   0.122
 2725SOL     OW12473   4.944   4.753   1.257
 2725SOL    HW112474   5.021   4.808   1.227
 2725SOL    HW212475   4.877   4.811   1.304
 2726SOL     OW12476   4.057   0.851   1.198
 2726SOL    HW112477   3.967   0.817   1.172
 2726SOL    HW212478   4.115   0.774   1.225
 2727SOL     OW12479   4.785   1.195   4.653
 2727SOL    HW112480   4.754   1.290   4.652
 2727SOL    HW212481   4.883   1.191   4.630
 2728SOL     OW12482   4.693   0.503   6.061
 2728SOL    HW112483   4.703   0.468   5.968
 2728SOL    HW212484   4.737   0.593   6.068
 2729SOL     OW12485   3.391   0.275   6.251
 2729SOL    HW112486   3.333   0.279   6.170
 2729SOL    HW212487   3.482   0.310   6.229
 2730SOL     OW12488   3.702   3.477   5.496
 2730SOL    HW112489   3.704   3.569   5.534
 2730SOL    HW212490   3.759   3.474   5.414
 2731SOL     OW12491   0.193   3.476   5.769
 2731SOL    HW112492   0.263   3.416   5.807
 2731SOL    HW212493   0.118   3.485   5.834
 2732SOL     OW12494   4.760   1.694   0.183
 2732SOL    HW112495   4.750   1.755   0.261
 2732SOL    HW212496   4.806   1.743   0.109
 2733SOL     OW12497   4.607   3.798   5.542
 2733SOL    HW112498   4.588   3.820   5.447
 2733SOL    HW212499   4.564   3.710   5.565
 2734SOL     OW12500   0.929   4.381   0.102
 2734SOL    HW112501   0.996   4.432   0.048
 2734SOL    HW212502   0.863   4.445   0.141
 2735SOL     OW12503   3.206   4.054   0.280
 2735SOL    HW112504   3.182   4.151   0.290
 2735SOL    HW212505   3.126   4.002   0.252
 2736SOL     OW12506   1.312   4.956   6.068
 2736SOL    HW112507   1.402   4.915   6.083
 2736SOL    HW212508   1.321   5.039   6.014
 2737SOL     OW12509   3.941   3.083   5.553
 2737SOL    HW112510   3.873   3.061   5.485
 2737SOL    HW212511   3.964   3.180   5.547
 2738SOL     OW12512   4.099   3.567   0.528
 2738SOL    HW112513   4.056   3.478   0.511
 2738SOL    HW212514   4.045   3.639   0.486
 2739SOL     OW12515   0.148   2.755   5.615
 2739SOL    HW112516   0.219   2.810   5.572
 2739SOL    HW212517   0.153   2.661   5.581
 2740SOL     OW12518   0.715   2.767   5.270
 2740SOL    HW112519   0.744   2.862   5.282
 2740SOL    HW212520   0.796   2.708   5.274
 2741SOL     OW12521   3.783   1.505   0.690
 2741SOL    HW112522   3.845   1.584   0.686
 2741SOL    HW212523   3.692   1.535   0.717
 2742SOL     OW12524   2.037   4.592   5.632
 2742SOL    HW112525   1.993   4.671   5.590
 2742SOL    HW212526   1.971   4.544   5.690
 2743SOL     OW12527   4.535   5.527   2.411
 2743SOL    HW112528   4.601   5.553   2.482
 2743SOL    HW212529   4.457   5.482   2.454
 2744SOL     OW12530   4.619   1.487   1.991
 2744SOL    HW112531   4.656   1.510   2.081
 2744SOL    HW212532   4.587   1.392   1.991
 2745SOL     OW12533   0.449   0.959   1.057
 2745SOL    HW112534   0.394   1.002   0.985
 2745SOL    HW212535   0.542   0.943   1.023
 2746SOL     OW12536   3.426   4.660   0.722
 2746SOL    HW112537   3.327   4.646   0.722
 2746SOL    HW212538   3.464   4.633   0.810
 2747SOL     OW12539   1.925   2.070   0.889
 2747SOL    HW112540   1.837   2.027   0.870
 2747SOL    HW212541   1.989   2.002   0.924
 2748SOL     OW12542   1.193   0.103   6.063
 2748SOL    HW112543   1.254   0.180   6.084
 2748SOL    HW212544   1.174   0.102   5.965
 2749SOL     OW12545   2.965   2.525   5.170
 2749SOL    HW112546   3.043   2.577   5.134
 2749SOL    HW212547   2.966   2.433   5.132
 2750SOL     OW12548   2.825   5.551   6.114
 2750SOL    HW112549   2.733   0.012   6.133
 2750SOL    HW212550   2.850   5.483   6.183
 2751SOL     OW12551   2.100   3.329   6.222
 2751SOL    HW112552   2.038   3.285   6.157
 2751SOL    HW212553   2.149   3.258   6.274
 2752SOL     OW12554   5.085   2.478   1.840
 2752SOL    HW112555   5.121   2.569   1.823
 2752SOL    HW212556   5.023   2.482   1.919
 2753SOL     OW12557   3.894   3.076   4.930
 2753SOL    HW112558   3.905   3.083   4.831
 2753SOL    HW212559   3.984   3.082   4.974
 2754SOL     OW12560   4.080   4.802   1.247
 2754SOL    HW112561   4.174   4.832   1.263
 2754SOL    HW212562   4.028   4.875   1.203
 2755SOL     OW12563   2.873   3.038   0.089
 2755SOL    HW112564   2.892   2.963   0.026
 2755SOL    HW212565   2.929   3.117   0.066
 2756SOL     OW12566   3.495   2.989   0.642
 2756SOL    HW112567   3.594   3.001   0.642
 2756SOL    HW212568   3.473   2.896   0.614
 2757SOL     OW12569   5.136   5.185   6.398
 2757SOL    HW112570   5.109   5.270   6.444
 2757SOL    HW212571   5.207   5.139   6.452
 2758SOL     OW12572   1.114   4.903   1.368
 2758SOL    HW112573   1.132   4.900   1.270
 2758SOL    HW212574   1.032   4.849   1.389
 2759SOL     OW12575   1.507   2.540   1.765
 2759SOL    HW112576   1.441   2.469   1.739
 2759SOL    HW212577   1.482   2.578   1.854
 2760SOL     OW12578   0.813   2.855   1.286
 2760SOL    HW112579   0.725   2.814   1.265
 2760SOL    HW212580   0.855   2.806   1.363
 2761SOL     OW12581   5.615   0.598   6.408
 2761SOL    HW112582   0.023   0.632   6.335
 2761SOL    HW212583   5.519   0.608   6.379
 2762SOL     OW12584   0.660   1.308   6.454
 2762SOL    HW112585   0.655   1.359   0.041
 2762SOL    HW212586   0.686   1.369   6.379
 2763SOL     OW12587   0.432   3.741   1.862
 2763SOL    HW112588   0.518   3.740   1.913
 2763SOL    HW212589   0.383   3.826   1.881
 2764SOL     OW12590   2.535   0.927   0.548
 2764SOL    HW112591   2.616   0.964   0.592
 2764SOL    HW212592   2.487   1.001   0.499
 2765SOL     OW12593   4.598   1.829   1.301
 2765SOL    HW112594   4.579   1.731   1.292
 2765SOL    HW212595   4.682   1.851   1.250
 2766SOL     OW12596   2.273   2.914   1.514
 2766SOL    HW112597   2.221   2.953   1.439
 2766SOL    HW212598   2.255   2.815   1.519
 2767SOL     OW12599   0.978   4.128   0.002
 2767SOL    HW112600   0.905   4.107   6.436
 2767SOL    HW212601   0.963   4.220   0.040
 2768SOL     OW12602   1.759   2.751   6.427
 2768SOL    HW112603   1.774   2.847   6.453
 2768SOL    HW212604   1.661   2.733   6.424
 2769SOL     OW12605   2.640   3.502   0.954
 2769SOL    HW112606   2.580   3.498   1.034
 2769SOL    HW212607   2.658   3.409   0.922
 2770SOL     OW12608   5.373   1.277   5.998
 2770SOL    HW112609   5.349   1.350   6.062
 2770SOL    HW212610   5.421   1.315   5.919
 2771SOL     OW12611   0.499   4.092   0.197
 2771SOL    HW112612   0.428   4.133   0.254
 2771SOL    HW212613   0.456   4.032   0.130
 2772SOL     OW12614   2.415   3.533   0.787
 2772SOL    HW112615   2.501   3.542   0.838
 2772SOL    HW212616   2.389   3.437   0.782
 2773SOL     OW12617   0.786   2.533   0.034
 2773SOL    HW112618   0.814   2.492   0.121
 2773SOL    HW212619   0.868   2.552   6.478
 2774SOL     OW12620   4.773   4.464   6.000
 2774SOL    HW112621   4.698   4.415   6.045
 2774SOL    HW212622   4.739   4.508   5.917
 2775SOL     OW12623   3.391   5.519   0.595
 2775SOL    HW112624   3.466   5.453   0.590
 2775SOL    HW212625   3.314   5.485   0.540
 2776SOL     OW12626   5.447   1.471   0.132
 2776SOL    HW112627   5.506   1.401   0.173
 2776SOL    HW212628   5.457   1.556   0.183
 2777SOL     OW12629   0.795   3.982   0.560
 2777SOL    HW112630   0.771   4.040   0.482
 2777SOL    HW212631   0.849   3.904   0.529
 2778SOL     OW12632   5.129   3.858   0.124
 2778SOL    HW112633   5.216   3.821   0.155
 2778SOL    HW212634   5.102   3.812   0.039
 2779SOL     OW12635   0.866   0.777   1.167
 2779SOL    HW112636   0.944   0.758   1.108
 2779SOL    HW212637   0.895   0.776   1.263
 2780SOL     OW12638   1.340   3.570   2.248
 2780SOL    HW112639   1.340   3.478   2.287
 2780SOL    HW212640   1.284   3.630   2.304
 2781SOL     OW12641   3.334   1.254   6.302
 2781SOL    HW112642   3.319   1.222   6.209
 2781SOL    HW212643   3.433   1.258   6.320
 2782SOL     OW12644   5.002   5.143   0.638
 2782SOL    HW112645   5.076   5.205   0.662
 2782SOL    HW212646   5.028   5.049   0.663
 2783SOL     OW12647   3.950   0.859   0.469
 2783SOL    HW112648   3.949   0.784   0.535
 2783SOL    HW212649   3.982   0.825   0.380
 2784SOL     OW12650   1.074   3.148   5.723
 2784SOL    HW112651   1.075   3.197   5.636
 2784SOL    HW212652   1.167   3.121   5.749
 2785SOL     OW12653   3.544   1.186   0.904
 2785SOL    HW112654   3.629   1.235   0.885
 2785SOL    HW212655   3.543   1.155   0.999
 2786SOL     OW12656   0.084   2.814   6.144
 2786SOL    HW112657   0.183   2.813   6.159
 2786SOL    HW212658   0.047   2.722   6.157
 2787SOL     OW12659   4.501   1.384   4.830
 2787SOL    HW112660   4.572   1.413   4.766
 2787SOL    HW212661   4.420   1.355   4.779
 2788SOL     OW12662   2.845   5.038   6.079
 2788SOL    HW112663   2.871   5.045   6.175
 2788SOL    HW212664   2.925   5.053   6.021
 2789SOL     OW12665   3.387   3.912   0.132
 2789SOL    HW112666   3.450   3.866   0.195
 2789SOL    HW212667   3.320   3.964   0.185
 2790SOL     OW12668   3.528   3.070   1.350
 2790SOL    HW112669   3.484   3.063   1.260
 2790SOL    HW212670   3.626   3.083   1.339
 2791SOL     OW12671   3.697   3.440   1.209
 2791SOL    HW112672   3.781   3.388   1.222
 2791SOL    HW212673   3.650   3.451   1.296
 2792SOL     OW12674   1.133   0.569   6.119
 2792SOL    HW112675   1.102   0.597   6.210
 2792SOL    HW212676   1.093   0.481   6.095
 2793SOL     OW12677   4.872   2.223   0.636
 2793SOL    HW112678   4.933   2.249   0.561
 2793SOL    HW212679   4.924   2.175   0.706
 2794SOL     OW12680   3.674   2.184   5.358
 2794SOL    HW112681   3.600   2.151   5.300
 2794SOL    HW212682   3.762   2.153   5.322
 2795SOL     OW12683   0.738   4.971   0.268
 2795SOL    HW112684   0.831   4.967   0.303
 2795SOL    HW212685   0.727   4.907   0.192
 2796SOL     OW12686   1.864   5.468   5.954
 2796SOL    HW112687   1.895   5.431   6.042
 2796SOL    HW212688   1.873   5.398   5.884
 2797SOL     OW12689   5.074   3.286   0.281
 2797SOL    HW112690   5.042   3.377   0.257
 2797SOL    HW212691   5.004   3.239   0.335
 2798SOL     OW12692   0.322   4.974   6.124
 2798SOL    HW112693   0.332   5.055   6.182
 2798SOL    HW212694   0.240   4.984   6.068
 2799SOL     OW12695   2.267   5.323   0.203
 2799SOL    HW112696   2.286   5.396   0.138
 2799SOL    HW212697   2.193   5.265   0.167
 2800SOL     OW12698   2.096   3.269   0.658
 2800SOL    HW112699   2.018   3.252   0.718
 2800SOL    HW212700   2.076   3.348   0.599
 2801SOL     OW12701   3.139   4.662   0.229
 2801SOL    HW112702   3.215   4.600   0.211
 2801SOL    HW212703   3.076   4.621   0.296
 2802SOL     OW12704   4.993   0.188   0.433
 2802SOL    HW112705   4.947   0.101   0.418
 2802SOL    HW212706   5.086   0.184   0.397
 2803SOL     OW12707   1.482   2.731   6.372
 2803SOL    HW112708   1.421   2.657   6.402
 2803SOL    HW212709   1.472   2.745   6.274
 2804SOL     OW12710   2.974   4.334   6.255
 2804SOL    HW112711   3.047   4.367   6.195
 2804SOL    HW212712   2.992   4.363   6.349
 2805SOL     OW12713   2.123   2.738   5.574
 2805SOL    HW112714   2.103   2.721   5.478
 2805SOL    HW212715   2.163   2.656   5.615
 2806SOL     OW12716   1.131   4.948   2.127
 2806SOL    HW112717   1.171   4.870   2.175
 2806SOL    HW212718   1.082   5.006   2.193
 2807SOL     OW12719   0.675   0.353   5.735
 2807SOL    HW112720   0.600   0.401   5.690
 2807SOL    HW212721   0.757   0.360   5.678
 2808SOL     OW12722   3.242   3.255   0.226
 2808SOL    HW112723   3.284   3.179   0.276
 2808SOL    HW212724   3.313   3.309   0.181
 2809SOL     OW12725   3.776   2.674   1.302
 2809SOL    HW112726   3.851   2.740   1.296
 2809SOL    HW212727   3.813   2.584   1.325
 2810SOL     OW12728   2.465   1.043   0.977
 2810SOL    HW112729   2.446   0.950   1.008
 2810SOL    HW212730   2.379   1.094   0.971
 2811SOL     OW12731   4.622   4.759   6.159
 2811SOL    HW112732   4.604   4.747   6.061
 2811SOL    HW212733   4.569   4.836   6.194
 2812SOL     OW12734   4.000   3.214   5.258
 2812SOL    HW112735   4.030   3.162   5.178
 2812SOL    HW212736   4.080   3.237   5.315
 2813SOL     OW12737   1.047   0.523   0.212
 2813SOL    HW112738   1.061   0.459   0.137
 2813SOL    HW212739   1.119   0.512   0.280
 2814SOL     OW12740   0.205   0.792   0.430
 2814SOL    HW112741   0.147   0.718   0.396
 2814SOL    HW212742   0.279   0.753   0.485
 2815SOL     OW12743   0.705   5.004   2.042
 2815SOL    HW112744   0.744   4.915   2.062
 2815SOL    HW212745   0.638   5.028   2.112
 2816SOL     OW12746   3.044   3.380   5.743
 2816SOL    HW112747   3.096   3.456   5.782
 2816SOL    HW212748   3.018   3.317   5.816
 2817SOL     OW12749   1.862   2.329   5.608
 2817SOL    HW112750   1.803   2.356   5.685
 2817SOL    HW212751   1.903   2.240   5.628
 2818SOL     OW12752   5.228   4.602   6.354
 2818SOL    HW112753   5.253   4.652   6.271
 2818SOL    HW212754   5.141   4.556   6.340
 2819SOL     OW12755   2.729   4.349   0.660
 2819SOL    HW112756   2.699   4.257   0.634
 2819SOL    HW212757   2.811   4.342   0.716
 2820SOL     OW12758   2.029   1.857   1.036
 2820SOL    HW112759   2.029   1.767   0.992
 2820SOL    HW212760   1.950   1.864   1.097
 2821SOL     OW12761   2.269   3.064   0.566
 2821SOL    HW112762   2.327   3.076   0.486
 2821SOL    HW212763   2.213   3.146   0.579
 2822SOL     OW12764   0.923   2.908   0.406
 2822SOL    HW112765   0.853   2.915   0.335
 2822SOL    HW212766   0.899   2.833   0.468
 2823SOL     OW12767   5.217   2.342   0.896
 2823SOL    HW112768   5.175   2.273   0.956
 2823SOL    HW212769   5.248   2.419   0.952
 2824SOL     OW12770   1.464   4.758   6.373
 2824SOL    HW112771   1.484   4.793   6.282
 2824SOL    HW212772   1.420   4.669   6.366
 2825SOL     OW12773   0.317   5.357   1.479
 2825SOL    HW112774   0.217   5.358   1.477
 2825SOL    HW212775   0.348   5.357   1.574
 2826SOL     OW12776   0.101   2.357   0.319
 2826SOL    HW112777   0.085   2.269   0.274
 2826SOL    HW212778   0.043   2.363   0.401
 2827SOL     OW12779   4.507   4.374   0.091
 2827SOL    HW112780   4.498   4.274   0.093
 2827SOL    HW212781   4.601   4.400   0.112
 2828SOL     OW12782   3.849   1.410   1.137
 2828SOL    HW112783   3.791   1.379   1.213
 2828SOL    HW212784   3.945   1.392   1.159
 2829SOL     OW12785   1.576   3.505   6.347
 2829SOL    HW112786   1.676   3.493   6.350
 2829SOL    HW212787   1.553   3.601   6.357
 2830SOL     OW12788   5.220   5.309   0.698
 2830SOL    HW112789   5.283   5.331   0.772
 2830SOL    HW212790   5.272   5.286   0.615
 2831SOL     OW12791   1.823   1.913   1.206
 2831SOL    HW112792   1.800   2.010   1.197
 2831SOL    HW212793   1.771   1.873   1.280
 2832SOL     OW12794   4.105   2.346   1.367
 2832SOL    HW112795   4.105   2.374   1.463
 2832SOL    HW212796   4.039   2.271   1.354
 2833SOL     OW12797   4.436   3.880   0.909
 2833SOL    HW112798   4.374   3.884   0.831
 2833SOL    HW212799   4.391   3.834   0.985
 2834SOL     OW12800   2.079   3.439   5.149
 2834SOL    HW112801   2.097   3.418   5.053
 2834SOL    HW212802   1.985   3.473   5.158
 2835SOL     OW12803   2.914   1.783   0.808
 2835SOL    HW112804   2.887   1.810   0.900
 2835SOL    HW212805   2.847   1.718   0.771
 2836SOL     OW12806   5.435   4.955   0.815
 2836SOL    HW112807   5.380   4.953   0.732
 2836SOL    HW212808   5.510   5.020   0.804
 2837SOL     OW12809   3.840   1.300   0.502
 2837SOL    HW112810   3.816   1.370   0.569
 2837SOL    HW212811   3.806   1.327   0.412
 2838SOL     OW12812   2.861   2.210   5.641
 2838SOL    HW112813   2.875   2.113   5.619
 2838SOL    HW212814   2.947   2.248   5.676
 2839SOL     OW12815   1.775   3.029   6.477
 2839SOL    HW112816   1.722   3.111   6.497
 2839SOL    HW212817   1.809   3.033   6.383
 2840SOL     OW12818   4.864   2.684   1.286
 2840SOL    HW112819   4.880   2.777   1.255
 2840SOL    HW212820   4.768   2.659   1.271
 2841SOL     OW12821   0.081   4.339   0.915
 2841SOL    HW112822   0.041   4.419   0.960
 2841SOL    HW212823   0.037   4.325   0.826
 2842SOL     OW12824   1.067   1.048   0.249
 2842SOL    HW112825   1.091   1.010   0.338
 2842SOL    HW212826   0.997   0.991   0.206
 2843SOL     OW12827   3.854   3.402   5.803
 2843SOL    HW112828   3.836   3.499   5.820
 2843SOL    HW212829   3.901   3.391   5.715
 2844SOL     OW12830   3.028   1.751   5.685
 2844SOL    HW112831   3.049   1.677   5.622
 2844SOL    HW212832   2.971   1.717   5.760
 2845SOL     OW12833   3.078   0.896   0.102
 2845SOL    HW112834   2.995   0.931   0.146
 2845SOL    HW212835   3.120   0.969   0.048
 2846SOL     OW12836   0.042   3.369   1.256
 2846SOL    HW112837   0.028   3.320   1.170
 2846SOL    HW212838   5.623   3.343   1.321
 2847SOL     OW12839   0.609   5.174   1.849
 2847SOL    HW112840   0.638   5.110   1.921
 2847SOL    HW212841   0.663   5.258   1.856
 2848SOL     OW12842   1.360   2.196   0.662
 2848SOL    HW112843   1.311   2.188   0.749
 2848SOL    HW212844   1.438   2.257   0.674
 2849SOL     OW12845   0.289   2.510   4.882
 2849SOL    HW112846   0.234   2.593   4.874
 2849SOL    HW212847   0.337   2.493   4.795
 2850SOL     OW12848   1.478   0.174   0.471
 2850SOL    HW112849   1.520   0.086   0.497
 2850SOL    HW212850   1.388   0.157   0.432
 2851SOL     OW12851   0.873   2.036   0.500
 2851SOL    HW112852   0.952   2.048   0.440
 2851SOL    HW212853   0.882   2.098   0.579
 2852SOL     OW12854   4.607   2.395   5.784
 2852SOL    HW112855   4.537   2.433   5.724
 2852SOL    HW212856   4.683   2.361   5.729
 2853SOL     OW12857   3.124   5.337   5.969
 2853SOL    HW112858   3.053   5.385   5.919
 2853SOL    HW212859   3.129   5.373   6.063
 2854SOL     OW12860   4.788   2.288   5.606
 2854SOL    HW112861   4.883   2.271   5.579
 2854SOL    HW212862   4.741   2.337   5.533
 2855SOL     OW12863   0.383   3.306   5.874
 2855SOL    HW112864   0.331   3.236   5.923
 2855SOL    HW212865   0.472   3.270   5.848
 2856SOL     OW12866   0.070   5.182   2.148
 2856SOL    HW112867   0.035   5.261   2.198
 2856SOL    HW212868   0.092   5.109   2.212
 2857SOL     OW12869   4.385   0.190   1.235
 2857SOL    HW112870   4.429   0.175   1.324
 2857SOL    HW212871   4.423   0.272   1.192
 2858SOL     OW12872   5.228   0.866   6.348
 2858SOL    HW112873   5.294   0.940   6.359
 2858SOL    HW212874   5.159   0.892   6.280
 2859SOL     OW12875   2.850   4.380   5.870
 2859SOL    HW112876   2.752   4.387   5.851
 2859SOL    HW212877   2.897   4.462   5.835
 2860SOL     OW12878   3.162   4.945   0.634
 2860SOL    HW112879   3.124   5.016   0.573
 2860SOL    HW212880   3.260   4.937   0.618
 2861SOL     OW12881   0.432   3.412   5.489
 2861SOL    HW112882   0.379   3.491   5.519
 2861SOL    HW212883   0.521   3.411   5.536
 2862SOL     OW12884   4.271   1.082   6.268
 2862SOL    HW112885   4.341   1.011   6.275
 2862SOL    HW212886   4.278   1.143   6.347
 2863SOL     OW12887   1.801   4.438   6.305
 2863SOL    HW112888   1.776   4.530   6.336
 2863SOL    HW212889   1.855   4.445   6.221
 2864SOL     OW12890   4.335   4.677   1.941
 2864SOL    HW112891   4.243   4.672   1.980
 2864SOL    HW212892   4.396   4.616   1.993
 2865SOL     OW12893   1.297   3.325   1.654
 2865SOL    HW112894   1.318   3.419   1.679
 2865SOL    HW212895   1.201   3.306   1.674
 2866SOL     OW12896   3.888   1.018   6.464
 2866SOL    HW112897   3.843   0.947   0.019
 2866SOL    HW212898   3.860   1.010   6.369
 2867SOL     OW12899   1.027   5.366   5.580
 2867SOL    HW112900   0.969   5.426   5.635
 2867SOL    HW212901   1.063   5.418   5.502
 2868SOL     OW12902   2.145   1.373   6.330
 2868SOL    HW112903   2.130   1.328   6.242
 2868SOL    HW212904   2.057   1.393   6.373
 2869SOL     OW12905   5.134   3.599   0.410
 2869SOL    HW112906   5.070   3.590   0.486
 2869SOL    HW212907   5.084   3.599   0.323
 2870SOL     OW12908   3.489   5.018   0.969
 2870SOL    HW112909   3.562   5.002   1.035
 2870SOL    HW212910   3.401   4.993   1.010
 2871SOL     OW12911   1.689   0.092   6.241
 2871SOL    HW112912   1.621   0.025   6.269
 2871SOL    HW212913   1.670   0.122   6.148
 2872SOL     OW12914   4.066   1.427   2.360
 2872SOL    HW112915   4.049   1.376   2.444
 2872SOL    HW212916   4.040   1.522   2.372
 2873SOL     OW12917   5.137   2.602   6.129
 2873SOL    HW112918   5.117   2.505   6.145
 2873SOL    HW212919   5.066   2.642   6.072
 2874SOL     OW12920   3.102   0.443   0.099
 2874SOL    HW112921   3.074   0.522   0.044
 2874SOL    HW212922   3.184   0.401   0.059
 2875SOL     OW12923   5.278   3.231   5.830
 2875SOL    HW112924   5.352   3.292   5.802
 2875SOL    HW212925   5.241   3.184   5.749
 2876SOL     OW12926   0.844   0.202   0.336
 2876SOL    HW112927   0.758   0.208   0.385
 2876SOL    HW212928   0.836   0.248   0.247
 2877SOL     OW12929   0.100   5.274   0.580
 2877SOL    HW112930   0.126   5.182   0.552
 2877SOL    HW212931   0.047   5.317   0.506
 2878SOL     OW12932   5.304   3.886   6.296
 2878SOL    HW112933   5.362   3.921   6.370
 2878SOL    HW212934   5.219   3.851   6.335
 2879SOL     OW12935   3.686   4.958   1.157
 2879SOL    HW112936   3.781   4.989   1.155
 2879SOL    HW212937   3.683   4.858   1.161
 2880SOL     OW12938   2.008   0.086   5.225
 2880SOL    HW112939   1.997   0.157   5.295
 2880SOL    HW212940   2.086   0.109   5.166
 2881SOL     OW12941   2.105   1.112   5.554
 2881SOL    HW112942   2.177   1.043   5.550
 2881SOL    HW212943   2.046   1.104   5.474
 2882SOL     OW12944   3.810   2.597   5.265
 2882SOL    HW112945   3.728   2.570   5.215
 2882SOL    HW212946   3.853   2.674   5.220
 2883SOL     OW12947   2.146   0.771   1.213
 2883SOL    HW112948   2.112   0.817   1.130
 2883SOL    HW212949   2.091   0.799   1.291
 2884SOL     OW12950   5.233   4.308   0.246
 2884SOL    HW112951   5.314   4.288   0.191
 2884SOL    HW212952   5.257   4.299   0.343
 2885SOL     OW12953   1.627   4.010   0.340
 2885SOL    HW112954   1.648   4.093   0.391
 2885SOL    HW212955   1.546   3.967   0.379
 2886SOL     OW12956   5.613   5.531   1.936
 2886SOL    HW112957   0.035   5.557   1.874
 2886SOL    HW212958   5.630   5.569   2.027
 2887SOL     OW12959   4.204   0.953   1.876
 2887SOL    HW112960   4.172   0.863   1.904
 2887SOL    HW212961   4.126   1.016   1.871
 2888SOL     OW12962   3.029   2.536   0.697
 2888SOL    HW112963   3.053   2.440   0.689
 2888SOL    HW212964   2.931   2.545   0.713
 2889SOL     OW12965   4.129   2.916   5.662
 2889SOL    HW112966   4.060   2.973   5.618
 2889SOL    HW212967   4.195   2.974   5.710
 2890SOL     OW12968   4.163   5.217   5.903
 2890SOL    HW112969   4.065   5.200   5.915
 2890SOL    HW212970   4.210   5.132   5.882
 2891SOL     OW12971   4.101   1.973   0.175
 2891SOL    HW112972   4.008   1.970   0.140
 2891SOL    HW212973   4.165   1.950   0.101
 2892SOL     OW12974   4.805   3.346   0.889
 2892SOL    HW112975   4.794   3.440   0.858
 2892SOL    HW212976   4.806   3.284   0.811
 2893SOL     OW12977   1.792   4.975   0.131
 2893SOL    HW112978   1.743   5.043   0.077
 2893SOL    HW212979   1.883   4.960   0.093
 2894SOL     OW12980   3.692   2.438   1.486
 2894SOL    HW112981   3.684   2.353   1.434
 2894SOL    HW212982   3.760   2.427   1.558
 2895SOL     OW12983   0.546   0.199   6.412
 2895SOL    HW112984   0.583   0.120   6.462
 2895SOL    HW212985   0.615   0.233   6.348
 2896SOL     OW12986   3.958   1.778   1.301
 2896SOL    HW112987   3.960   1.841   1.223
 2896SOL    HW212988   3.885   1.806   1.364
 2897SOL     OW12989   0.738   2.949   0.206
 2897SOL    HW112990   0.795   3.002   0.143
 2897SOL    HW212991   0.686   2.880   0.155
 2898SOL     OW12992   0.989   2.801   4.832
 2898SOL    HW112993   0.977   2.779   4.735
 2898SOL    HW212994   1.057   2.874   4.842
 2899SOL     OW12995   0.917   5.459   6.165
 2899SOL    HW112996   0.842   5.445   6.230
 2899SOL    HW212997   0.998   5.412   6.199
 2900SOL     OW12998   2.274   4.781   0.103
 2900SOL    HW112999   2.353   4.804   0.045
 2900SOL    HW213000   2.278   4.836   0.187
 2901SOL     OW13001   0.306   4.545   1.576
 2901SOL    HW113002   0.274   4.548   1.671
 2901SOL    HW213003   0.229   4.558   1.514
 2902SOL     OW13004   2.118   4.953   1.434
 2902SOL    HW113005   2.140   4.898   1.515
 2902SOL    HW213006   2.022   4.981   1.438
 2903SOL     OW13007   4.989   1.397   1.469
 2903SOL    HW113008   4.993   1.312   1.415
 2903SOL    HW213009   5.081   1.427   1.491
 2904SOL     OW13010   3.587   2.621   0.081
 2904SOL    HW113011   3.578   2.684   0.004
 2904SOL    HW213012   3.527   2.652   0.156
 2905SOL     OW13013   0.713   0.326   5.410
 2905SOL    HW113014   0.723   0.228   5.393
 2905SOL    HW213015   0.697   0.374   5.323
 2906SOL     OW13016   1.595   2.445   6.452
 2906SOL    HW113017   1.641   2.484   6.373
 2906SOL    HW213018   1.591   2.345   6.442
 2907SOL     OW13019   2.989   5.040   0.839
 2907SOL    HW113020   3.038   5.077   0.918
 2907SOL    HW213021   3.055   5.002   0.774
 2908SOL     OW13022   0.834   5.499   0.214
 2908SOL    HW113023   0.797   5.408   0.234
 2908SOL    HW213024   0.816   5.560   0.291
 2909SOL     OW13025   0.142   4.341   5.612
 2909SOL    HW113026   0.110   4.402   5.539
 2909SOL    HW213027   0.068   4.278   5.636
 2910SOL     OW13028   0.660   1.141   0.559
 2910SOL    HW113029   0.748   1.188   0.568
 2910SOL    HW213030   0.676   1.044   0.538
 2911SOL     OW13031   4.383   3.640   1.831
 2911SOL    HW113032   4.405   3.559   1.886
 2911SOL    HW213033   4.296   3.679   1.864
 2912SOL     OW13034   2.743   1.460   6.499
 2912SOL    HW113035   2.808   1.498   6.432
 2912SOL    HW213036   2.793   1.407   0.068
 2913SOL     OW13037   3.804   3.079   0.891
 2913SOL    HW113038   3.749   3.158   0.920
 2913SOL    HW213039   3.785   3.058   0.796
 2914SOL     OW13040   0.650   2.914   1.995
 2914SOL    HW113041   0.553   2.917   1.970
 2914SOL    HW213042   0.678   2.819   2.006
 2915SOL     OW13043   0.078   4.264   4.957
 2915SOL    HW113044   0.003   4.323   4.925
 2915SOL    HW213045   0.165   4.307   4.935
 2916SOL     OW13046   0.156   2.228   6.492
 2916SOL    HW113047   0.127   2.186   0.080
 2916SOL    HW213048   0.227   2.296   0.011
 2917SOL     OW13049   0.540   5.330   6.130
 2917SOL    HW113050   0.567   5.268   6.057
 2917SOL    HW213051   0.501   5.414   6.091
 2918SOL     OW13052   0.077   1.009   6.158
 2918SOL    HW113053   0.140   1.086   6.148
 2918SOL    HW213054   0.078   0.977   6.252
 2919SOL     OW13055   1.399   1.964   0.522
 2919SOL    HW113056   1.311   1.920   0.502
 2919SOL    HW213057   1.383   2.049   0.573
 2920SOL     OW13058   2.664   4.824   5.488
 2920SOL    HW113059   2.682   4.876   5.404
 2920SOL    HW213060   2.665   4.726   5.466
 2921SOL     OW13061   0.544   5.020   6.406
 2921SOL    HW113062   0.502   4.943   6.454
 2921SOL    HW213063   0.611   4.987   6.340
 2922SOL     OW13064   1.037   2.632   5.034
 2922SOL    HW113065   1.101   2.563   4.998
 2922SOL    HW213066   1.012   2.695   4.961
 2923SOL     OW13067   2.946   2.687   6.193
 2923SOL    HW113068   2.977   2.594   6.174
 2923SOL    HW213069   2.849   2.695   6.170
 2924SOL     OW13070   2.580   2.888   5.532
 2924SOL    HW113071   2.520   2.968   5.534
 2924SOL    HW213072   2.609   2.866   5.626
 2925SOL     OW13073   1.685   1.925   0.887
 2925SOL    HW113074   1.653   1.903   0.795
 2925SOL    HW213075   1.710   1.841   0.934
 2926SOL     OW13076   2.473   2.151   6.492
 2926SOL    HW113077   2.570   2.132   0.012
 2926SOL    HW213078   2.438   2.214   0.062
 2927SOL     OW13079   2.482   5.107   5.848
 2927SOL    HW113080   2.458   5.032   5.786
 2927SOL    HW213081   2.408   5.175   5.848
 2928SOL     OW13082   5.280   0.545   1.384
 2928SOL    HW113083   5.351   0.572   1.319
 2928SOL    HW213084   5.261   0.622   1.446
 2929SOL     OW13085   1.243   5.140   1.365
 2929SOL    HW113086   1.173   5.209   1.352
 2929SOL    HW213087   1.201   5.049   1.369
 2930SOL     OW13088   0.727   2.986   6.294
 2930SOL    HW113089   0.771   3.044   6.225
 2930SOL    HW213090   0.688   3.044   6.366
 2931SOL     OW13091   5.578   1.898   0.127
 2931SOL    HW113092   5.551   1.809   0.166
 2931SOL    HW213093   5.507   1.930   0.064
 2932SOL     OW13094   2.964   4.184   6.012
 2932SOL    HW113095   2.969   4.213   6.108
 2932SOL    HW213096   2.928   4.259   5.957
 2933SOL     OW13097   3.562   0.803   0.307
 2933SOL    HW113098   3.557   0.895   0.347
 2933SOL    HW213099   3.470   0.775   0.278
 2934SOL     OW13100   4.465   0.724   5.259
 2934SOL    HW113101   4.485   0.811   5.302
 2934SOL    HW213102   4.379   0.687   5.296
 2935SOL     OW13103   2.637   2.569   5.901
 2935SOL    HW113104   2.650   2.501   5.974
 2935SOL    HW213105   2.689   2.541   5.821
 2936SOL     OW13106   1.237   4.673   5.776
 2936SOL    HW113107   1.184   4.703   5.855
 2936SOL    HW213108   1.321   4.728   5.769
 2937SOL     OW13109   1.237   0.657   5.585
 2937SOL    HW113110   1.216   0.721   5.511
 2937SOL    HW213111   1.233   0.705   5.672
 2938SOL     OW13112   2.822   5.026   0.221
 2938SOL    HW113113   2.821   4.946   0.281
 2938SOL    HW213114   2.916   5.059   0.212
 2939SOL     OW13115   2.039   3.477   0.493
 2939SOL    HW113116   2.026   3.411   0.419
 2939SOL    HW213117   2.103   3.548   0.464
 2940SOL     OW13118   1.471   0.913   5.923
 2940SOL    HW113119   1.530   0.993   5.929
 2940SOL    HW213120   1.507   0.840   5.980
 2941SOL     OW13121   4.415   2.531   1.040
 2941SOL    HW113122   4.344   2.545   1.110
 2941SOL    HW213123   4.390   2.453   0.983
 2942SOL     OW13124   2.953   2.481   5.443
 2942SOL    HW113125   3.028   2.417   5.459
 2942SOL    HW213126   2.949   2.503   5.346
 2943SOL     OW13127   4.167   0.644   6.366
 2943SOL    HW113128   4.134   0.713   6.302
 2943SOL    HW213129   4.194   0.688   6.452
 2944SOL     OW13130   1.860   5.062   5.974
 2944SOL    HW113131   1.763   5.083   5.968
 2944SOL    HW213132   1.872   4.968   6.008
 2945SOL     OW13133   1.479   0.438   0.561
 2945SOL    HW113134   1.505   0.455   0.656
 2945SOL    HW213135   1.494   0.342   0.539
 2946SOL     OW13136   2.702   0.482   1.217
 2946SOL    HW113137   2.773   0.459   1.150
 2946SOL    HW213138   2.726   0.567   1.264
 2947SOL     OW13139   1.930   3.307   0.072
 2947SOL    HW113140   1.832   3.296   0.058
 2947SOL    HW213141   1.952   3.291   0.169
 2948SOL     OW13142   3.136   1.189   0.238
 2948SOL    HW113143   3.173   1.123   0.303
 2948SOL    HW213144   3.159   1.160   0.145
 2949SOL     OW13145   1.289   2.680   5.590
 2949SOL    HW113146   1.291   2.643   5.497
 2949SOL    HW213147   1.204   2.731   5.604
 2950SOL     OW13148   0.342   2.876   0.515
 2950SOL    HW113149   0.415   2.926   0.468
 2950SOL    HW213150   0.325   2.790   0.469
 2951SOL     OW13151   5.349   0.616   6.054
 2951SOL    HW113152   5.409   0.578   5.984
 2951SOL    HW213153   5.323   0.709   6.029
 2952SOL     OW13154   0.093   3.467   6.312
 2952SOL    HW113155   0.017   3.467   6.247
 2952SOL    HW213156   0.171   3.513   6.272
 2953SOL     OW13157   4.969   0.492   6.309
 2953SOL    HW113158   4.916   0.575   6.322
 2953SOL    HW213159   5.005   0.489   6.216
 2954SOL     OW13160   3.663   1.832   0.554
 2954SOL    HW113161   3.708   1.921   0.546
 2954SOL    HW213162   3.617   1.826   0.642
 2955SOL     OW13163   4.066   2.389   0.894
 2955SOL    HW113164   4.021   2.300   0.900
 2955SOL    HW213165   4.165   2.377   0.899
 2956SOL     OW13166   3.542   3.931   0.518
 2956SOL    HW113167   3.586   3.914   0.606
 2956SOL    HW213168   3.568   3.861   0.453
 2957SOL     OW13169   4.587   5.285   6.466
 2957SOL    HW113170   4.596   5.382   6.489
 2957SOL    HW213171   4.603   5.273   6.367
 2958SOL     OW13172   3.406   3.247   6.360
 2958SOL    HW113173   3.330   3.187   6.336
 2958SOL    HW213174   3.492   3.201   6.337
 2959SOL     OW13175   3.325   2.563   5.665
 2959SOL    HW113176   3.344   2.642   5.723
 2959SOL    HW213177   3.368   2.576   5.576
 2960SOL     OW13178   5.363   3.095   1.529
 2960SOL    HW113179   5.347   3.024   1.598
 2960SOL    HW213180   5.282   3.105   1.471
 2961SOL     OW13181   1.046   2.030   0.857
 2961SOL    HW113182   0.988   2.091   0.802
 2961SOL    HW213183   1.129   2.078   0.883
 2962SOL     OW13184   2.902   2.519   1.345
 2962SOL    HW113185   2.937   2.454   1.412
 2962SOL    HW213186   2.958   2.515   1.262
 2963SOL     OW13187   1.530   1.032   6.469
 2963SOL    HW113188   1.567   0.940   6.456
 2963SOL    HW213189   1.457   1.029   0.038
 2964SOL     OW13190   2.922   5.054   6.336
 2964SOL    HW113191   2.866   5.071   6.417
 2964SOL    HW213192   3.000   4.997   6.361
 2965SOL     OW13193   3.050   5.566   1.025
 2965SOL    HW113194   3.109   5.558   0.945
 2965SOL    HW213195   3.083   5.505   1.097
 2966SOL     OW13196   1.841   3.020   6.213
 2966SOL    HW113197   1.869   3.102   6.162
 2966SOL    HW213198   1.870   2.938   6.164
 2967SOL     OW13199   3.802   1.017   6.205
 2967SOL    HW113200   3.743   1.093   6.178
 2967SOL    HW213201   3.803   0.948   6.132
 2968SOL     OW13202   2.910   1.399   5.934
 2968SOL    HW113203   2.924   1.362   5.842
 2968SOL    HW213204   2.958   1.342   6.000
 2969SOL     OW13205   0.370   1.366   1.424
 2969SOL    HW113206   0.364   1.327   1.515
 2969SOL    HW213207   0.423   1.450   1.427
 2970SOL     OW13208   2.634   4.462   0.165
 2970SOL    HW113209   2.660   4.471   0.261
 2970SOL    HW213210   2.535   4.470   0.156
 2971SOL     OW13211   3.427   3.739   5.815
 2971SOL    HW113212   3.481   3.765   5.895
 2971SOL    HW213213   3.440   3.807   5.743
 2972SOL     OW13214   3.834   0.008   6.442
 2972SOL    HW113215   3.861   5.539   0.029
 2972SOL    HW213216   3.912   0.008   6.378
 2973SOL     OW13217   4.538   1.949   1.716
 2973SOL    HW113218   4.455   2.002   1.698
 2973SOL    HW213219   4.574   1.975   1.806
 2974SOL     OW13220   4.335   4.259   6.238
 2974SOL    HW113221   4.259   4.195   6.248
 2974SOL    HW213222   4.320   4.338   6.297
 2975SOL     OW13223   0.158   0.684   6.230
 2975SOL    HW113224   0.152   0.708   6.133
 2975SOL    HW213225   0.226   0.742   6.275
 2976SOL     OW13226   0.164   2.085   0.841
 2976SOL    HW113227   0.079   2.135   0.828
 2976SOL    HW213228   0.241   2.143   0.813
 2977SOL     OW13229   3.437   1.646   6.243
 2977SOL    HW113230   3.410   1.731   6.198
 2977SOL    HW213231   3.502   1.666   6.316
 2978SOL     OW13232   1.016   3.396   1.984
 2978SOL    HW113233   0.949   3.466   1.958
 2978SOL    HW213234   0.979   3.341   2.059
 2979SOL     OW13235   1.061   2.373   5.390
 2979SOL    HW113236   0.998   2.337   5.459
 2979SOL    HW213237   1.137   2.309   5.378
 2980SOL     OW13238   3.163   3.113   6.272
 2980SOL    HW113239   3.145   3.034   6.214
 2980SOL    HW213240   3.116   3.193   6.236
 2981SOL     OW13241   3.839   0.916   1.711
 2981SOL    HW113242   3.895   0.858   1.653
 2981SOL    HW213243   3.782   0.860   1.771
 2982SOL     OW13244   3.158   1.342   5.579
 2982SOL    HW113245   3.146   1.437   5.549
 2982SOL    HW213246   3.222   1.296   5.518
 2983SOL     OW13247   0.629   4.128   6.106
 2983SOL    HW113248   0.554   4.185   6.072
 2983SOL    HW213249   0.716   4.170   6.082
 2984SOL     OW13250   0.397   1.198   5.000
 2984SOL    HW113251   0.395   1.256   4.919
 2984SOL    HW213252   0.422   1.105   4.975
 2985SOL     OW13253   3.124   0.101   0.112
 2985SOL    HW113254   3.199   0.127   0.173
 2985SOL    HW213255   3.161   0.078   0.022
 2986SOL     OW13256   2.709   4.497   0.427
 2986SOL    HW113257   2.711   4.442   0.510
 2986SOL    HW213258   2.660   4.583   0.444
 2987SOL     OW13259   3.988   2.392   5.289
 2987SOL    HW113260   4.047   2.385   5.209
 2987SOL    HW213261   3.920   2.464   5.275
 2988SOL     OW13262   2.821   3.442   0.678
 2988SOL    HW113263   2.773   3.526   0.651
 2988SOL    HW213264   2.878   3.461   0.758
 2989SOL     OW13265   2.056   1.841   0.191
 2989SOL    HW113266   2.018   1.802   0.107
 2989SOL    HW213267   2.037   1.779   0.268
 2990SOL     OW13268   4.752   4.469   0.175
 2990SOL    HW113269   4.852   4.467   0.178
 2990SOL    HW213270   4.721   4.560   0.148
 2991SOL     OW13271   3.250   3.756   0.800
 2991SOL    HW113272   3.332   3.739   0.746
 2991SOL    HW213273   3.175   3.784   0.740
 2992SOL     OW13274   2.767   3.037   5.396
 2992SOL    HW113275   2.772   3.009   5.300
 2992SOL    HW213276   2.701   2.980   5.444
 2993SOL     OW13277   5.521   3.970   5.501
 2993SOL    HW113278   5.602   3.918   5.477
 2993SOL    HW213279   5.445   3.943   5.442
 2994SOL     OW13280   3.429   2.138   6.039
 2994SOL    HW113281   3.493   2.192   6.094
 2994SOL    HW213282   3.455   2.143   5.943
 2995SOL     OW13283   2.950   3.847   5.025
 2995SOL    HW113284   2.968   3.772   4.961
 2995SOL    HW213285   2.932   3.931   4.974
 2996SOL     OW13286   0.394   4.054   0.810
 2996SOL    HW113287   0.397   4.146   0.848
 2996SOL    HW213288   0.487   4.016   0.808
 2997SOL     OW13289   0.830   4.849   0.967
 2997SOL    HW113290   0.884   4.927   0.999
 2997SOL    HW213291   0.881   4.765   0.982
 2998SOL     OW13292   0.100   1.791   6.346
 2998SOL    HW113293   0.126   1.751   6.434
 2998SOL    HW213294   0.114   1.723   6.274
 2999SOL     OW13295   2.816   0.103   0.486
 2999SOL    HW113296   2.716   0.099   0.491
 2999SOL    HW213297   2.855   0.020   0.525
 3000SOL     OW13298   0.523   0.681   5.219
 3000SOL    HW113299   0.570   0.769   5.222
 3000SOL    HW213300   0.458   0.681   5.142
 3001SOL     OW13301   2.544   3.676   0.082
 3001SOL    HW113302   2.605   3.607   0.121
 3001SOL    HW213303   2.470   3.631   0.033
 3002SOL     OW13304   4.792   1.016   5.471
 3002SOL    HW113305   4.887   0.992   5.492
 3002SOL    HW213306   4.750   1.058   5.551
 3003SOL     OW13307   2.796   4.111   6.342
 3003SOL    HW113308   2.701   4.137   6.325
 3003SOL    HW213309   2.856   4.187   6.319
 3004SOL     OW13310   3.663   1.204   6.042
 3004SOL    HW113311   3.746   1.213   5.988
 3004SOL    HW213312   3.628   1.295   6.067
 3005SOL     OW13313   5.602   1.689   5.480
 3005SOL    HW113314   5.631   1.752   5.407
 3005SOL    HW213315   5.511   1.716   5.512
 3006SOL     OW13316   5.050   1.409   0.328
 3006SOL    HW113317   4.951   1.413   0.312
 3006SOL    HW213318   5.098   1.409   0.241
 3007SOL     OW13319   5.495   1.883   5.861
 3007SOL    HW113320   5.411   1.829   5.851
 3007SOL    HW213321   5.499   1.952   5.788
 3008SOL     OW13322   2.922   4.095   4.913
 3008SOL    HW113323   2.831   4.133   4.893
 3008SOL    HW213324   2.986   4.170   4.929
 3009SOL     OW13325   0.926   2.685   1.486
 3009SOL    HW113326   1.006   2.629   1.467
 3009SOL    HW213327   0.856   2.630   1.531
 3010SOL     OW13328   4.464   2.773   0.122
 3010SOL    HW113329   4.369   2.757   0.094
 3010SOL    HW213330   4.505   2.841   0.062
 3011SOL     OW13331   5.555   1.246   0.691
 3011SOL    HW113332   5.483   1.240   0.623
 3011SOL    HW213333   5.515   1.256   0.782
 3012SOL     OW13334   2.303   0.389   5.740
 3012SOL    HW113335   2.283   0.460   5.673
 3012SOL    HW213336   2.314   0.431   5.830
 3013SOL     OW13337   3.008   2.561   5.809
 3013SOL    HW113338   3.057   2.481   5.774
 3013SOL    HW213339   2.915   2.560   5.774
 3014SOL     OW13340   0.279   2.229   1.153
 3014SOL    HW113341   0.239   2.312   1.116
 3014SOL    HW213342   0.212   2.155   1.153
 3015SOL     OW13343   4.454   3.279   1.114
 3015SOL    HW113344   4.430   3.197   1.166
 3015SOL    HW213345   4.548   3.305   1.133
 3016SOL     OW13346   4.913   0.180   5.962
 3016SOL    HW113347   4.924   0.196   6.060
 3016SOL    HW213348   4.823   0.139   5.945
 3017SOL     OW13349   4.239   5.350   1.196
 3017SOL    HW113350   4.207   5.264   1.237
 3017SOL    HW213351   4.171   5.382   1.129
 3018SOL     OW13352   1.051   0.653   6.373
 3018SOL    HW113353   0.957   0.675   6.400
 3018SOL    HW213354   1.112   0.727   6.400
 3019SOL     OW13355   0.923   3.104   0.055
 3019SOL    HW113356   0.872   3.188   0.073
 3019SOL    HW213357   0.965   3.109   6.463
 3020SOL     OW13358   4.284   4.976   5.851
 3020SOL    HW113359   4.302   4.928   5.937
 3020SOL    HW213360   4.309   4.916   5.775
 3021SOL     OW13361   4.323   1.497   1.191
 3021SOL    HW113362   4.313   1.535   1.099
 3021SOL    HW213363   4.415   1.517   1.225
 3022SOL     OW13364   3.147   1.055   0.976
 3022SOL    HW113365   3.201   1.021   0.899
 3022SOL    HW213366   3.206   1.068   1.056
 3023SOL     OW13367   4.718   4.820   1.607
 3023SOL    HW113368   4.730   4.730   1.648
 3023SOL    HW213369   4.702   4.888   1.679
 3024SOL     OW13370   4.216   2.401   0.127
 3024SOL    HW113371   4.277   2.442   0.194
 3024SOL    HW213372   4.268   2.367   0.049
 3025SOL     OW13373   1.693   3.263   1.450
 3025SOL    HW113374   1.740   3.263   1.539
 3025SOL    HW213375   1.653   3.352   1.434
 3026SOL     OW13376   0.054   3.921   0.531
 3026SOL    HW113377   0.015   3.958   0.615
 3026SOL    HW213378   0.150   3.948   0.524
 3027SOL     OW13379   0.953   4.435   6.242
 3027SOL    HW113380   1.015   4.464   6.315
 3027SOL    HW213381   0.859   4.458   6.267
 3028SOL     OW13382   1.248   5.057   0.519
 3028SOL    HW113383   1.191   5.135   0.495
 3028SOL    HW213384   1.226   5.027   0.612
 3029SOL     OW13385   0.054   5.136   0.212
 3029SOL    HW113386   5.648   5.062   0.247
 3029SOL    HW213387   0.150   5.114   0.229
 3030SOL     OW13388   4.345   4.798   1.555
 3030SOL    HW113389   4.360   4.700   1.571
 3030SOL    HW213390   4.379   4.850   1.633
 3031SOL     OW13391   1.865   0.022   0.178
 3031SOL    HW113392   1.848   5.497   0.187
 3031SOL    HW213393   1.872   0.045   0.081
 3032SOL     OW13394   0.166   0.045   1.756
 3032SOL    HW113395   0.243   0.012   1.810
 3032SOL    HW213396   0.184   0.138   1.725
 3033SOL     OW13397   0.618   0.636   5.475
 3033SOL    HW113398   0.565   0.647   5.391
 3033SOL    HW213399   0.567   0.577   5.538
 3034SOL     OW13400   5.217   5.109   0.291
 3034SOL    HW113401   5.134   5.162   0.273
 3034SOL    HW213402   5.269   5.098   0.207
 3035SOL     OW13403   4.430   4.137   1.012
 3035SOL    HW113404   4.331   4.152   1.010
 3035SOL    HW213405   4.453   4.057   0.957
 3036SOL     OW13406   0.711   5.390   6.337
 3036SOL    HW113407   0.668   5.447   6.406
 3036SOL    HW213408   0.645   5.365   6.266
 3037SOL     OW13409   0.401   0.926   5.837
 3037SOL    HW113410   0.396   0.999   5.769
 3037SOL    HW213411   0.469   0.858   5.808
 3038SOL     OW13412   4.935   3.689   1.412
 3038SOL    HW113413   4.966   3.784   1.411
 3038SOL    HW213414   4.856   3.679   1.351
 3039SOL     OW13415   1.792   3.558   1.681
 3039SOL    HW113416   1.870   3.609   1.645
 3039SOL    HW213417   1.751   3.609   1.757
 3040SOL     OW13418   5.316   1.919   1.059
 3040SOL    HW113419   5.266   1.841   1.023
 3040SOL    HW213420   5.398   1.887   1.106
 3041SOL     OW13421   3.256   1.015   0.446
 3041SOL    HW113422   3.350   1.038   0.421
 3041SOL    HW213423   3.249   1.006   0.545
 3042SOL     OW13424   0.569   3.635   5.853
 3042SOL    HW113425   0.655   3.641   5.903
 3042SOL    HW213426   0.550   3.539   5.830
 3043SOL     OW13427   2.974   4.170   0.996
 3043SOL    HW113428   2.957   4.268   0.998
 3043SOL    HW213429   2.949   4.133   0.906
 3044SOL     OW13430   5.118   2.380   1.590
 3044SOL    HW113431   5.110   2.408   1.686
 3044SOL    HW213432   5.109   2.460   1.531
 3045SOL     OW13433   3.201   1.800   0.496
 3045SOL    HW113434   3.134   1.873   0.483
 3045SOL    HW213435   3.177   1.722   0.438
 3046SOL     OW13436   3.217   0.025   0.801
 3046SOL    HW113437   3.268   5.567   0.721
 3046SOL    HW213438   3.173   0.112   0.781
 3047SOL     OW13439   5.286   4.449   5.773
 3047SOL    HW113440   5.188   4.473   5.775
 3047SOL    HW213441   5.337   4.526   5.735
 3048SOL     OW13442   2.916   3.168   1.968
 3048SOL    HW113443   2.908   3.093   2.033
 3048SOL    HW213444   2.881   3.140   1.879
 3049SOL     OW13445   4.643   1.642   5.899
 3049SOL    HW113446   4.665   1.644   5.802
 3049SOL    HW213447   4.574   1.712   5.919
 3050SOL     OW13448   2.755   3.393   6.236
 3050SOL    HW113449   2.724   3.475   6.187
 3050SOL    HW213450   2.691   3.374   6.310
 3051SOL     OW13451   2.102   4.344   0.534
 3051SOL    HW113452   2.146   4.359   0.445
 3051SOL    HW213453   2.165   4.372   0.607
 3052SOL     OW13454   4.575   4.298   6.108
 3052SOL    HW113455   4.637   4.287   6.186
 3052SOL    HW213456   4.481   4.287   6.140
 3053SOL     OW13457   4.064   4.706   5.842
 3053SOL    HW113458   4.156   4.698   5.881
 3053SOL    HW213459   4.044   4.625   5.786
 3054SOL     OW13460   0.514   2.367   4.990
 3054SOL    HW113461   0.430   2.412   4.958
 3054SOL    HW213462   0.527   2.282   4.940
 3055SOL     OW13463   0.926   2.244   6.079
 3055SOL    HW113464   0.986   2.202   6.147
 3055SOL    HW213465   0.922   2.186   5.998
 3056SOL     OW13466   4.977   1.711   5.514
 3056SOL    HW113467   4.982   1.810   5.530
 3056SOL    HW213468   4.929   1.694   5.428
 3057SOL     OW13469   3.992   1.348   6.177
 3057SOL    HW113470   3.935   1.429   6.168
 3057SOL    HW213471   3.978   1.288   6.098
 3058SOL     OW13472   4.002   3.978   0.863
 3058SOL    HW113473   3.951   3.896   0.890
 3058SOL    HW213474   3.941   4.041   0.815
 3059SOL     OW13475   3.073   4.581   4.917
 3059SOL    HW113476   3.146   4.570   4.850
 3059SOL    HW213477   3.022   4.665   4.897
 3060SOL     OW13478   4.905   5.365   1.486
 3060SOL    HW113479   4.881   5.375   1.390
 3060SOL    HW213480   4.824   5.334   1.538
 3061SOL     OW13481   5.612   5.397   2.261
 3061SOL    HW113482   5.620   5.494   2.240
 3061SOL    HW213483   5.547   5.384   2.335
 3062SOL     OW13484   0.145   0.343   0.240
 3062SOL    HW113485   0.115   0.263   0.293
 3062SOL    HW213486   0.240   0.330   0.211
 3063SOL     OW13487   3.479   4.899   0.311
 3063SOL    HW113488   3.526   4.813   0.288
 3063SOL    HW213489   3.463   4.903   0.409
 3064SOL     OW13490   2.911   0.025   5.362
 3064SOL    HW113491   2.835   0.081   5.395
 3064SOL    HW213492   2.886   5.559   5.273
 3065SOL     OW13493   2.554   1.248   6.495
 3065SOL    HW113494   2.552   1.213   6.401
 3065SOL    HW213495   2.613   1.329   6.498
 3066SOL     OW13496   2.598   4.599   6.052
 3066SOL    HW113497   2.516   4.640   6.091
 3066SOL    HW213498   2.668   4.669   6.040
 3067SOL     OW13499   5.385   3.761   0.170
 3067SOL    HW113500   5.374   3.673   0.123
 3067SOL    HW213501   5.445   3.749   0.249
 3068SOL     OW13502   4.357   3.032   1.217
 3068SOL    HW113503   4.294   2.999   1.147
 3068SOL    HW213504   4.444   2.982   1.209
 3069SOL     OW13505   0.172   2.013   0.465
 3069SOL    HW113506   0.265   2.048   0.476
 3069SOL    HW213507   0.170   1.916   0.490
 3070SOL     OW13508   4.786   2.281   1.890
 3070SOL    HW113509   4.847   2.288   1.968
 3070SOL    HW213510   4.794   2.190   1.849
 3071SOL     OW13511   2.235   0.223   0.109
 3071SOL    HW113512   2.329   0.204   0.080
 3071SOL    HW213513   2.226   0.320   0.128
 3072SOL     OW13514   2.444   3.943   6.262
 3072SOL    HW113515   2.520   3.884   6.288
 3072SOL    HW213516   2.473   4.039   6.269
 3073SOL     OW13517   2.137   2.001   6.123
 3073SOL    HW113518   2.189   1.997   6.209
 3073SOL    HW213519   2.187   1.952   6.052
 3074SOL     OW13520   2.037   2.309   0.799
 3074SOL    HW113521   2.100   2.338   0.872
 3074SOL    HW213522   1.999   2.219   0.822
 3075SOL     OW13523   0.595   1.645   0.480
 3075SOL    HW113524   0.656   1.696   0.420
 3075SOL    HW213525   0.595   1.685   0.571
 3076SOL     OW13526   2.549   3.986   0.841
 3076SOL    HW113527   2.586   3.910   0.893
 3076SOL    HW213528   2.467   3.957   0.792
 3077SOL     OW13529   5.040   2.205   5.785
 3077SOL    HW113530   5.065   2.113   5.755
 3077SOL    HW213531   5.097   2.272   5.738
 3078SOL     OW13532   0.700   4.483   0.813
 3078SOL    HW113533   0.728   4.446   0.901
 3078SOL    HW213534   0.601   4.475   0.803
 3079SOL     OW13535   0.097   3.389   1.727
 3079SOL    HW113536   0.163   3.463   1.716
 3079SOL    HW213537   0.005   3.422   1.706
 3080SOL     OW13538   2.771   3.069   1.095
 3080SOL    HW113539   2.859   3.029   1.122
 3080SOL    HW213540   2.723   3.100   1.177
 3081SOL     OW13541   2.772   2.522   5.659
 3081SOL    HW113542   2.682   2.488   5.631
 3081SOL    HW213543   2.837   2.508   5.584
 3082SOL     OW13544   2.621   5.566   0.160
 3082SOL    HW113545   2.716   0.020   0.178
 3082SOL    HW213546   2.587   5.511   0.237
 3083SOL     OW13547   4.639   5.363   1.003
 3083SOL    HW113548   4.564   5.416   1.043
 3083SOL    HW213549   4.678   5.413   0.926
 3084SOL     OW13550   0.387   5.402   5.693
 3084SOL    HW113551   0.365   5.471   5.761
 3084SOL    HW213552   0.481   5.415   5.661
 3085SOL     OW13553   4.484   2.759   5.740
 3085SOL    HW113554   4.397   2.724   5.706
 3085SOL    HW213555   4.559   2.721   5.686
 3086SOL     OW13556   0.840   5.572   1.044
 3086SOL    HW113557   0.881   5.544   0.958
 3086SOL    HW213558   0.751   5.527   1.054
 3087SOL     OW13559   3.133   0.930   6.176
 3087SOL    HW113560   3.188   1.007   6.142
 3087SOL    HW213561   3.193   0.862   6.218
 3088SOL     OW13562   1.905   2.070   5.732
 3088SOL    HW113563   1.815   2.061   5.688
 3088SOL    HW213564   1.899   2.040   5.827
 3089SOL     OW13565   5.349   1.269   5.697
 3089SOL    HW113566   5.330   1.304   5.605
 3089SOL    HW213567   5.263   1.252   5.745
 3090SOL     OW13568   4.542   1.529   0.586
 3090SOL    HW113569   4.516   1.452   0.528
 3090SOL    HW213570   4.516   1.615   0.541
 3091SOL     OW13571   5.299   4.726   6.121
 3091SOL    HW113572   5.381   4.686   6.079
 3091SOL    HW213573   5.310   4.826   6.124
 3092SOL     OW13574   1.285   2.636   0.303
 3092SOL    HW113575   1.382   2.623   0.282
 3092SOL    HW213576   1.271   2.729   0.336
 3093SOL     OW13577   3.349   0.362   0.009
 3093SOL    HW113578   3.435   0.403   0.039
 3093SOL    HW213579   3.357   0.333   6.413
 3094SOL     OW13580   4.549   0.014   0.330
 3094SOL    HW113581   4.466   5.533   0.341
 3094SOL    HW213582   4.553   0.085   0.400
 3095SOL     OW13583   4.774   4.718   1.044
 3095SOL    HW113584   4.842   4.716   1.117
 3095SOL    HW213585   4.694   4.768   1.075
 3096SOL     OW13586   2.740   1.907   4.671
 3096SOL    HW113587   2.662   1.881   4.613
 3096SOL    HW213588   2.823   1.862   4.638
 3097SOL     OW13589   3.587   2.300   6.195
 3097SOL    HW113590   3.668   2.261   6.237
 3097SOL    HW213591   3.597   2.400   6.189
 3098SOL     OW13592   3.656   2.205   5.632
 3098SOL    HW113593   3.568   2.169   5.662
 3098SOL    HW213594   3.662   2.197   5.532
 3099SOL     OW13595   0.391   0.632   0.560
 3099SOL    HW113596   0.409   0.569   0.635
 3099SOL    HW213597   0.414   0.588   0.473
 3100SOL     OW13598   5.235   2.894   0.435
 3100SOL    HW113599   5.323   2.865   0.473
 3100SOL    HW213600   5.231   2.994   0.434
 3101SOL     OW13601   4.014   0.782   1.548
 3101SOL    HW113602   4.043   0.867   1.504
 3101SOL    HW213603   4.091   0.742   1.597
 3102SOL     OW13604   2.939   4.701   0.004
 3102SOL    HW113605   2.844   4.681   6.480
 3102SOL    HW213606   2.947   4.712   0.103
 3103SOL     OW13607   0.312   5.122   0.854
 3103SOL    HW113608   0.239   5.133   0.922
 3103SOL    HW213609   0.351   5.031   0.861
 3104SOL     OW13610   4.000   1.991   1.113
 3104SOL    HW113611   3.981   2.050   1.191
 3104SOL    HW213612   3.969   2.035   1.029
 3105SOL     OW13613   3.907   3.909   6.331
 3105SOL    HW113614   3.835   3.866   6.277
 3105SOL    HW213615   3.867   3.975   6.394
 3106SOL     OW13616   0.120   3.632   0.030
 3106SOL    HW113617   0.094   3.571   6.454
 3106SOL    HW213618   0.106   3.727   0.003
 3107SOL     OW13619   1.331   2.741   6.082
 3107SOL    HW113620   1.321   2.644   6.106
 3107SOL    HW213621   1.276   2.761   6.001
 3108SOL     OW13622   4.385   0.193   6.152
 3108SOL    HW113623   4.440   0.219   6.072
 3108SOL    HW213624   4.332   0.272   6.183
 3109SOL     OW13625   2.192   3.692   0.417
 3109SOL    HW113626   2.186   3.701   0.318
 3109SOL    HW213627   2.129   3.757   0.460
 3110SOL     OW13628   4.840   1.268   0.899
 3110SOL    HW113629   4.769   1.198   0.910
 3110SOL    HW213630   4.877   1.264   0.807
 3111SOL     OW13631   2.423   3.544   5.993
 3111SOL    HW113632   2.349   3.558   6.059
 3111SOL    HW213633   2.511   3.564   6.037
 3112SOL     OW13634   3.614   1.587   0.421
 3112SOL    HW113635   3.533   1.631   0.380
 3112SOL    HW213636   3.667   1.655   0.472
 3113SOL     OW13637   3.177   2.959   2.103
 3113SOL    HW113638   3.243   2.977   2.030
 3113SOL    HW213639   3.223   2.910   2.178
 3114SOL     OW13640   0.379   4.425   0.007
 3114SOL    HW113641   0.386   4.484   6.426
 3114SOL    HW213642   0.296   4.369   0.000
 3115SOL     OW13643   3.351   0.411   0.534
 3115SOL    HW113644   3.333   0.446   0.442
 3115SOL    HW213645   3.350   0.487   0.599
 3116SOL     OW13646   4.471   3.564   5.578
 3116SOL    HW113647   4.534   3.487   5.570
 3116SOL    HW213648   4.379   3.534   5.550
 3117SOL     OW13649   2.699   0.011   1.180
 3117SOL    HW113650   2.753   0.072   1.238
 3117SOL    HW213651   2.679   5.501   1.230
 3118SOL     OW13652   3.171   1.120   6.476
 3118SOL    HW113653   3.241   1.164   6.420
 3118SOL    HW213654   3.080   1.144   6.440
 3119SOL     OW13655   4.749   4.911   1.360
 3119SOL    HW113656   4.735   4.875   1.453
 3119SOL    HW213657   4.732   5.009   1.360
 3120SOL     OW13658   0.455   2.696   1.822
 3120SOL    HW113659   0.490   2.614   1.868
 3120SOL    HW213660   0.400   2.749   1.887
 3121SOL     OW13661   1.241   0.412   0.837
 3121SOL    HW113662   1.297   0.447   0.913
 3121SOL    HW213663   1.263   0.315   0.821
 3122SOL     OW13664   2.221   2.160   1.370
 3122SOL    HW113665   2.191   2.243   1.324
 3122SOL    HW213666   2.224   2.085   1.305
 3123SOL     OW13667   3.980   5.564   6.202
 3123SOL    HW113668   4.009   0.085   6.199
 3123SOL    HW213669   3.913   5.546   6.131
 3124SOL     OW13670   1.390   2.616   1.434
 3124SOL    HW113671   1.372   2.714   1.432
 3124SOL    HW213672   1.460   2.594   1.366
 3125SOL     OW13673   4.558   0.963   5.345
 3125SOL    HW113674   4.645   0.984   5.388
 3125SOL    HW213675   4.560   0.992   5.249
 3126SOL     OW13676   5.142   0.312   1.673
 3126SOL    HW113677   5.202   0.292   1.595
 3126SOL    HW213678   5.124   0.227   1.723
 3127SOL     OW13679   0.388   0.686   0.111
 3127SOL    HW113680   0.437   0.766   0.078
 3127SOL    HW213681   0.289   0.702   0.103
 3128SOL     OW13682   1.739   2.425   1.687
 3128SOL    HW113683   1.654   2.476   1.701
 3128SOL    HW213684   1.749   2.356   1.758
 3129SOL     OW13685   2.422   0.058   0.730
 3129SOL    HW113686   2.484   0.114   0.785
 3129SOL    HW213687   2.329   0.067   0.766
 3130SOL     OW13688   2.917   3.447   6.469
 3130SOL    HW113689   2.972   3.365   6.484
 3130SOL    HW213690   2.872   3.441   6.379
 3131SOL     OW13691   1.594   2.676   5.291
 3131SOL    HW113692   1.598   2.597   5.351
 3131SOL    HW213693   1.679   2.728   5.298
 3132SOL     OW13694   3.940   2.140   0.886
 3132SOL    HW113695   3.966   2.120   0.791
 3132SOL    HW213696   3.852   2.187   0.886
 3133SOL     OW13697   2.742   0.976   6.353
 3133SOL    HW113698   2.806   0.907   6.318
 3133SOL    HW213699   2.658   0.930   6.383
 3134SOL     OW13700   3.275   1.904   4.886
 3134SOL    HW113701   3.359   1.955   4.869
 3134SOL    HW213702   3.210   1.920   4.811
 3135SOL     OW13703   4.310   3.466   0.112
 3135SOL    HW113704   4.356   3.391   0.065
 3135SOL    HW213705   4.374   3.542   0.122
 3136SOL     OW13706   4.831   2.694   0.915
 3136SOL    HW113707   4.912   2.680   0.973
 3136SOL    HW213708   4.767   2.618   0.929
 3137SOL     OW13709   0.785   2.824   5.683
 3137SOL    HW113710   0.694   2.865   5.673
 3137SOL    HW213711   0.791   2.741   5.627
 3138SOL     OW13712   4.488   4.716   0.784
 3138SOL    HW113713   4.574   4.666   0.799
 3138SOL    HW213714   4.425   4.659   0.731
 3139SOL     OW13715   4.645   1.561   1.727
 3139SOL    HW113716   4.634   1.533   1.822
 3139SOL    HW213717   4.563   1.610   1.697
 3140SOL     OW13718   3.111   2.483   6.071
 3140SOL    HW113719   3.169   2.546   6.123
 3140SOL    HW213720   3.083   2.527   5.986
 3141SOL     OW13721   5.406   4.977   5.096
 3141SOL    HW113722   5.484   4.957   5.036
 3141SOL    HW213723   5.341   5.034   5.047
 3142SOL     OW13724   1.410   4.782   0.519
 3142SOL    HW113725   1.462   4.709   0.563
 3142SOL    HW213726   1.428   4.868   0.566
 3143SOL     OW13727   1.099   5.442   0.276
 3143SOL    HW113728   1.004   5.468   0.261
 3143SOL    HW213729   1.158   5.522   0.260
 3144SOL     OW13730   4.132   0.577   5.678
 3144SOL    HW113731   4.092   0.505   5.735
 3144SOL    HW213732   4.072   0.594   5.600
 3145SOL     OW13733   1.127   3.206   5.020
 3145SOL    HW113734   1.031   3.234   5.017
 3145SOL    HW213735   1.181   3.266   4.960
 3146SOL     OW13736   0.430   4.803   0.034
 3146SOL    HW113737   0.366   4.790   6.457
 3146SOL    HW213738   0.385   4.783   0.120
 3147SOL     OW13739   5.609   1.734   5.058
 3147SOL    HW113740   0.000   1.763   5.144
 3147SOL    HW213741   5.532   1.673   5.077
 3148SOL     OW13742   4.634   1.123   5.671
 3148SOL    HW113743   4.572   1.046   5.657
 3148SOL    HW213744   4.647   1.138   5.769
 3149SOL     OW13745   3.710   1.687   1.934
 3149SOL    HW113746   3.760   1.606   1.964
 3149SOL    HW213747   3.627   1.698   1.990
 3150SOL     OW13748   5.592   2.235   0.802
 3150SOL    HW113749   5.548   2.217   0.890
 3150SOL    HW213750   5.628   2.328   0.801
 3151SOL     OW13751   2.781   4.781   5.067
 3151SOL    HW113752   2.840   4.791   4.987
 3151SOL    HW213753   2.814   4.707   5.125
 3152SOL     OW13754   4.924   1.760   0.820
 3152SOL    HW113755   5.006   1.750   0.876
 3152SOL    HW213756   4.937   1.711   0.733
 3153SOL     OW13757   3.414   2.586   6.017
 3153SOL    HW113758   3.407   2.661   5.952
 3153SOL    HW213759   3.363   2.608   6.100
 3154SOL     OW13760   3.014   2.230   0.046
 3154SOL    HW113761   3.025   2.195   6.452
 3154SOL    HW213762   2.983   2.325   0.042
 3155SOL     OW13763   5.254   4.015   5.856
 3155SOL    HW113764   5.216   4.003   5.948
 3155SOL    HW213765   5.180   4.037   5.792
 3156SOL     OW13766   4.543   2.928   5.943
 3156SOL    HW113767   4.462   2.954   5.994
 3156SOL    HW213768   4.519   2.858   5.875
 3157SOL     OW13769   0.671   0.913   5.232
 3157SOL    HW113770   0.697   0.929   5.137
 3157SOL    HW213771   0.740   0.857   5.277
 3158SOL     OW13772   2.190   2.499   5.694
 3158SOL    HW113773   2.113   2.480   5.755
 3158SOL    HW213774   2.212   2.417   5.642
 3159SOL     OW13775   0.439   4.493   0.718
 3159SOL    HW113776   0.456   4.590   0.699
 3159SOL    HW213777   0.402   4.450   0.636
 3160SOL     OW13778   0.360   5.503   0.350
 3160SOL    HW113779   0.343   5.549   0.437
 3160SOL    HW213780   0.307   5.549   0.278
 3161SOL     OW13781   2.395   0.021   4.771
 3161SOL    HW113782   2.466   0.079   4.811
 3161SOL    HW213783   2.306   0.063   4.784
 3162SOL     OW13784   3.073   4.456   6.488
 3162SOL    HW113785   3.040   4.551   6.491
 3162SOL    HW213786   3.014   4.398   0.045
 3163SOL     OW13787   1.473   3.195   4.923
 3163SOL    HW113788   1.549   3.259   4.911
 3163SOL    HW213789   1.388   3.239   4.892
 3164SOL     OW13790   4.295   3.725   5.717
 3164SOL    HW113791   4.298   3.818   5.679
 3164SOL    HW213792   4.367   3.670   5.675
 3165SOL     OW13793   3.358   1.886   6.132
 3165SOL    HW113794   3.274   1.853   6.088
 3165SOL    HW213795   3.386   1.973   6.091
 3166SOL     OW13796   4.277   0.394   0.806
 3166SOL    HW113797   4.262   0.448   0.888
 3166SOL    HW213798   4.228   0.436   0.729
 3167SOL     OW13799   1.243   2.401   0.177
 3167SOL    HW113800   1.251   2.494   0.213
 3167SOL    HW213801   1.262   2.335   0.250
 3168SOL     OW13802   5.039   0.770   2.020
 3168SOL    HW113803   5.048   0.808   2.112
 3168SOL    HW213804   5.001   0.678   2.025
 3169SOL     OW13805   2.015   4.661   1.981
 3169SOL    HW113806   1.963   4.667   2.067
 3169SOL    HW213807   2.096   4.603   1.995
 3170SOL     OW13808   2.392   0.831   0.182
 3170SOL    HW113809   2.454   0.907   0.202
 3170SOL    HW213810   2.336   0.811   0.262
 3171SOL     OW13811   3.847   3.438   5.265
 3171SOL    HW113812   3.897   3.352   5.266
 3171SOL    HW213813   3.776   3.435   5.194
 3172SOL     OW13814   0.041   5.182   6.224
 3172SOL    HW113815   0.084   5.271   6.211
 3172SOL    HW213816   0.061   5.123   6.146
 3173SOL     OW13817   4.178   1.132   5.351
 3173SOL    HW113818   4.189   1.042   5.392
 3173SOL    HW213819   4.247   1.145   5.280
 3174SOL     OW13820   5.021   5.264   5.983
 3174SOL    HW113821   4.951   5.236   6.049
 3174SOL    HW213822   5.030   5.364   5.984
 3175SOL     OW13823   3.510   0.850   6.301
 3175SOL    HW113824   3.422   0.802   6.308
 3175SOL    HW213825   3.520   0.911   6.379
 3176SOL     OW13826   4.848   2.120   1.304
 3176SOL    HW113827   4.778   2.137   1.374
 3176SOL    HW213828   4.837   2.028   1.268
 3177SOL     OW13829   3.774   1.184   2.698
 3177SOL    HW113830   3.689   1.229   2.670
 3177SOL    HW213831   3.753   1.112   2.765
 3178SOL     OW13832   4.987   2.601   0.111
 3178SOL    HW113833   4.928   2.547   0.171
 3178SOL    HW213834   5.070   2.628   0.160
 3179SOL     OW13835   1.785   2.679   0.265
 3179SOL    HW113836   1.844   2.601   0.244
 3179SOL    HW213837   1.828   2.763   0.232
 3180SOL     OW13838   4.030   1.609   5.961
 3180SOL    HW113839   3.977   1.641   5.882
 3180SOL    HW213840   3.970   1.599   6.040
 3181SOL     OW13841   3.595   1.491   6.068
 3181SOL    HW113842   3.531   1.529   6.135
 3181SOL    HW213843   3.574   1.527   5.978
 3182SOL     OW13844   5.066   4.654   5.996
 3182SOL    HW113845   5.153   4.670   6.043
 3182SOL    HW213846   4.992   4.650   6.064
 3183SOL     OW13847   4.801   0.810   1.597
 3183SOL    HW113848   4.829   0.836   1.690
 3183SOL    HW213849   4.773   0.892   1.547
 3184SOL     OW13850   5.074   5.529   6.004
 3184SOL    HW113851   5.102   5.523   6.100
 3184SOL    HW213852   5.013   0.034   5.993
 3185SOL     OW13853   2.866   0.318   5.878
 3185SOL    HW113854   2.769   0.345   5.877
 3185SOL    HW213855   2.884   0.253   5.805
 3186SOL     OW13856   0.790   3.348   0.132
 3186SOL    HW113857   0.720   3.408   0.170
 3186SOL    HW213858   0.872   3.351   0.189
 3187SOL     OW13859   4.684   2.665   5.570
 3187SOL    HW113860   4.697   2.739   5.503
 3187SOL    HW213861   4.684   2.577   5.522
 3188SOL     OW13862   4.183   0.886   5.456
 3188SOL    HW113863   4.208   0.793   5.429
 3188SOL    HW213864   4.110   0.882   5.525
 3189SOL     OW13865   1.025   3.275   0.284
 3189SOL    HW113866   1.081   3.280   0.367
 3189SOL    HW213867   0.989   3.182   0.274
 3190SOL     OW13868   2.325   0.446   0.486
 3190SOL    HW113869   2.373   0.383   0.425
 3190SOL    HW213870   2.386   0.476   0.559
 3191SOL     OW13871   2.128   2.588   0.589
 3191SOL    HW113872   2.125   2.688   0.596
 3191SOL    HW213873   2.045   2.550   0.630
 3192SOL     OW13874   5.609   1.285   0.243
 3192SOL    HW113875   5.538   1.215   0.256
 3192SOL    HW213876   0.033   1.267   0.306
 3193SOL     OW13877   3.268   1.574   5.905
 3193SOL    HW113878   3.361   1.600   5.878
 3193SOL    HW213879   3.220   1.654   5.941
 3194SOL     OW13880   3.721   3.381   6.111
 3194SOL    HW113881   3.796   3.412   6.169
 3194SOL    HW213882   3.750   3.382   6.015
 3195SOL     OW13883   4.782   2.698   0.430
 3195SOL    HW113884   4.829   2.690   0.518
 3195SOL    HW213885   4.805   2.620   0.372
 3196SOL     OW13886   4.465   5.135   1.686
 3196SOL    HW113887   4.402   5.196   1.734
 3196SOL    HW213888   4.455   5.042   1.721
 3197SOL     OW13889   5.564   0.437   1.052
 3197SOL    HW113890   5.644   0.473   1.005
 3197SOL    HW213891   5.525   0.506   1.112
 3198SOL     OW13892   3.761   0.815   0.113
 3198SOL    HW113893   3.697   0.802   0.189
 3198SOL    HW213894   3.768   0.730   0.060
 3199SOL     OW13895   1.622   0.258   0.807
 3199SOL    HW113896   1.695   0.245   0.740
 3199SOL    HW213897   1.611   0.355   0.826
 3200SOL     OW13898   0.318   5.412   0.003
 3200SOL    HW113899   0.386   5.342   0.026
 3200SOL    HW213900   0.230   5.368   6.486
 3201SOL     OW13901   2.250   3.105   1.000
 3201SOL    HW113902   2.204   3.188   1.031
 3201SOL    HW213903   2.315   3.075   1.070
 3202SOL     OW13904   3.081   5.117   1.431
 3202SOL    HW113905   3.160   5.173   1.403
 3202SOL    HW213906   2.999   5.174   1.433
 3203SOL     OW13907   5.517   5.479   0.670
 3203SOL    HW113908   5.479   5.426   0.747
 3203SOL    HW213909   5.489   5.436   0.584
 3204SOL     OW13910   1.899   1.410   6.436
 3204SOL    HW113911   1.850   1.323   6.430
 3204SOL    HW213912   1.836   1.482   6.465
 3205SOL     OW13913   3.781   1.315   0.887
 3205SOL    HW113914   3.788   1.384   0.815
 3205SOL    HW213915   3.811   1.354   0.974
 3206SOL     OW13916   5.616   2.243   1.261
 3206SOL    HW113917   5.587   2.183   1.336
 3206SOL    HW213918   5.569   2.215   1.177
 3207SOL     OW13919   3.934   2.125   1.352
 3207SOL    HW113920   3.942   2.048   1.416
 3207SOL    HW213921   3.839   2.154   1.347
 3208SOL     OW13922   4.663   4.176   0.581
 3208SOL    HW113923   4.690   4.258   0.530
 3208SOL    HW213924   4.578   4.195   0.631
 3209SOL     OW13925   3.625   2.857   5.108
 3209SOL    HW113926   3.550   2.818   5.054
 3209SOL    HW213927   3.621   2.957   5.103
 3210SOL     OW13928   1.651   0.881   1.320
 3210SOL    HW113929   1.653   0.798   1.376
 3210SOL    HW213930   1.693   0.956   1.371
 3211SOL     OW13931   4.595   5.157   5.948
 3211SOL    HW113932   4.603   5.230   5.880
 3211SOL    HW213933   4.592   5.068   5.902
 3212SOL     OW13934   3.298   1.983   0.775
 3212SOL    HW113935   3.204   2.000   0.743
 3212SOL    HW213936   3.338   2.070   0.806
 3213SOL     OW13937   3.389   2.404   1.192
 3213SOL    HW113938   3.320   2.384   1.262
 3213SOL    HW213939   3.433   2.492   1.213
 3214SOL     OW13940   1.663   5.455   0.780
 3214SOL    HW113941   1.683   5.517   0.856
 3214SOL    HW213942   1.671   5.504   0.693
 3215SOL     OW13943   0.791   4.496   1.402
 3215SOL    HW113944   0.773   4.500   1.500
 3215SOL    HW213945   0.754   4.411   1.365
 3216SOL     OW13946   5.190   1.769   0.525
 3216SOL    HW113947   5.179   1.821   0.610
 3216SOL    HW213948   5.266   1.808   0.473
 3217SOL     OW13949   1.128   0.054   0.630
 3217SOL    HW113950   1.126   0.115   0.550
 3217SOL    HW213951   1.214   0.003   0.631
 3218SOL     OW13952   2.934   0.900   0.875
 3218SOL    HW113953   2.998   0.966   0.914
 3218SOL    HW213954   2.902   0.838   0.946
 3219SOL     OW13955   2.122   0.175   6.264
 3219SOL    HW113956   2.198   0.120   6.229
 3219SOL    HW213957   2.139   0.272   6.243
 3220SOL     OW13958   1.956   5.188   5.154
 3220SOL    HW113959   1.985   5.260   5.217
 3220SOL    HW213960   1.938   5.228   5.064
 3221SOL     OW13961   2.168   1.446   0.388
 3221SOL    HW113962   2.169   1.365   0.330
 3221SOL    HW213963   2.158   1.420   0.483
 3222SOL     OW13964   2.877   0.186   0.947
 3222SOL    HW113965   2.928   0.109   0.986
 3222SOL    HW213966   2.782   0.158   0.932
 3223SOL     OW13967   4.842   2.196   6.495
 3223SOL    HW113968   4.831   2.155   6.404
 3223SOL    HW213969   4.759   2.246   0.021
 3224SOL     OW13970   5.577   0.252   5.851
 3224SOL    HW113971   5.645   0.188   5.816
 3224SOL    HW213972   5.497   0.201   5.884
 3225SOL     OW13973   4.613   0.680   5.673
 3225SOL    HW113974   4.712   0.688   5.664
 3225SOL    HW213975   4.570   0.765   5.640
 3226SOL     OW13976   3.264   0.716   6.292
 3226SOL    HW113977   3.206   0.679   6.365
 3226SOL    HW213978   3.256   0.657   6.212
 3227SOL     OW13979   3.773   3.027   0.622
 3227SOL    HW113980   3.759   3.068   0.532
 3227SOL    HW213981   3.867   2.995   0.630
 3228SOL     OW13982   0.409   2.148   0.495
 3228SOL    HW113983   0.385   2.197   0.579
 3228SOL    HW213984   0.413   2.213   0.418
 3229SOL     OW13985   3.670   2.192   1.359
 3229SOL    HW113986   3.625   2.144   1.434
 3229SOL    HW213987   3.618   2.180   1.275
 3230SOL     OW13988   0.645   4.334   5.661
 3230SOL    HW113989   0.549   4.329   5.690
 3230SOL    HW213990   0.651   4.317   5.563
 3231SOL     OW13991   5.189   1.929   0.745
 3231SOL    HW113992   5.100   1.956   0.782
 3231SOL    HW213993   5.245   2.011   0.731
 3232SOL     OW13994   2.406   2.315   0.211
 3232SOL    HW113995   2.437   2.256   0.286
 3232SOL    HW213996   2.332   2.374   0.243
 3233SOL     OW13997   0.931   2.591   5.281
 3233SOL    HW113998   0.975   2.509   5.318
 3233SOL    HW213999   0.964   2.608   5.188
 3234SOL     OW14000   0.295   2.778   0.983
 3234SOL    HW114001   0.329   2.869   1.007
 3234SOL    HW214002   0.358   2.709   1.018
 3235SOL     OW14003   3.019   3.326   6.168
 3235SOL    HW114004   2.927   3.356   6.195
 3235SOL    HW214005   3.076   3.406   6.149
 3236SOL     OW14006   3.906   0.815   0.880
 3236SOL    HW114007   3.868   0.796   0.970
 3236SOL    HW214008   3.890   0.911   0.857
 3237SOL     OW14009   1.973   3.399   5.562
 3237SOL    HW114010   2.052   3.396   5.501
 3237SOL    HW214011   1.923   3.312   5.556
 3238SOL     OW14012   2.685   2.538   6.363
 3238SOL    HW114013   2.697   2.606   6.290
 3238SOL    HW214014   2.596   2.552   6.406
 3239SOL     OW14015   2.781   0.757   6.014
 3239SOL    HW114016   2.703   0.763   5.952
 3239SOL    HW214017   2.834   0.675   5.993
 3240SOL     OW14018   2.206   2.741   6.077
 3240SOL    HW114019   2.260   2.694   6.008
 3240SOL    HW214020   2.209   2.689   6.163
 3241SOL     OW14021   4.583   0.588   0.637
 3241SOL    HW114022   4.583   0.534   0.721
 3241SOL    HW214023   4.615   0.530   0.561
 3242SOL     OW14024   4.820   2.100   6.228
 3242SOL    HW114025   4.842   2.157   6.149
 3242SOL    HW214026   4.903   2.056   6.262
 3243SOL     OW14027   4.676   1.874   0.839
 3243SOL    HW114028   4.686   1.960   0.888
 3243SOL    HW214029   4.766   1.833   0.825
 3244SOL     OW14030   1.942   1.760   6.452
 3244SOL    HW114031   1.873   1.697   6.486
 3244SOL    HW214032   1.964   1.738   6.357
 3245SOL     OW14033   0.074   0.688   1.337
 3245SOL    HW114034   0.086   0.726   1.428
 3245SOL    HW214035   0.135   0.734   1.273
 3246SOL     OW14036   1.816   4.867   0.986
 3246SOL    HW114037   1.900   4.922   0.977
 3246SOL    HW214038   1.745   4.923   1.028
 3247SOL     OW14039   5.446   4.643   5.660
 3247SOL    HW114040   5.534   4.615   5.696
 3247SOL    HW214041   5.424   4.735   5.693
 3248SOL     OW14042   0.773   3.367   0.572
 3248SOL    HW114043   0.829   3.288   0.548
 3248SOL    HW214044   0.797   3.397   0.665
 3249SOL     OW14045   3.423   2.535   0.858
 3249SOL    HW114046   3.368   2.457   0.890
 3249SOL    HW214047   3.361   2.609   0.830
 3250SOL     OW14048   2.336   4.665   1.360
 3250SOL    HW114049   2.382   4.708   1.438
 3250SOL    HW214050   2.402   4.655   1.285
 3251SOL     OW14051   2.339   4.404   1.110
 3251SOL    HW114052   2.384   4.329   1.062
 3251SOL    HW214053   2.404   4.478   1.126
 3252SOL     OW14054   1.189   3.224   0.516
 3252SOL    HW114055   1.236   3.147   0.559
 3252SOL    HW214056   1.244   3.307   0.527
 3253SOL     OW14057   2.750   2.742   0.505
 3253SOL    HW114058   2.805   2.726   0.424
 3253SOL    HW214059   2.741   2.841   0.520
 3254SOL     OW14060   3.340   5.270   5.811
 3254SOL    HW114061   3.260   5.289   5.867
 3254SOL    HW214062   3.423   5.295   5.861
 3255SOL     OW14063   3.123   1.656   0.057
 3255SOL    HW114064   3.158   1.590   6.489
 3255SOL    HW214065   3.141   1.749   0.024
 3256SOL     OW14066   3.415   2.114   5.724
 3256SOL    HW114067   3.333   2.057   5.729
 3256SOL    HW214068   3.394   2.205   5.759
 3257SOL     OW14069   1.922   1.389   0.823
 3257SOL    HW114070   1.960   1.475   0.857
 3257SOL    HW214071   1.845   1.408   0.762
 3258SOL     OW14072   5.527   1.826   1.478
 3258SOL    HW114073   5.561   1.735   1.452
 3258SOL    HW214074   5.505   1.826   1.575
 3259SOL     OW14075   4.501   0.708   4.603
 3259SOL    HW114076   4.573   0.775   4.584
 3259SOL    HW214077   4.542   0.623   4.636
 3260SOL     OW14078   2.177   2.408   1.030
 3260SOL    HW114079   2.116   2.400   1.108
 3260SOL    HW214080   2.226   2.496   1.034
 3261SOL     OW14081   0.053   4.046   5.892
 3261SOL    HW114082   5.634   4.014   5.955
 3261SOL    HW214083   0.143   4.040   5.937
 3262SOL     OW14084   2.971   2.325   1.527
 3262SOL    HW114085   2.942   2.236   1.491
 3262SOL    HW214086   2.968   2.324   1.627
 3263SOL     OW14087   4.239   2.674   5.630
 3263SOL    HW114088   4.201   2.764   5.648
 3263SOL    HW214089   4.166   2.613   5.596
 3264SOL     OW14090   2.067   0.331   0.507
 3264SOL    HW114091   2.068   0.252   0.446
 3264SOL    HW214092   2.158   0.372   0.511
 3265SOL     OW14093   4.372   2.330   6.417
 3265SOL    HW114094   4.351   2.246   6.366
 3265SOL    HW214095   4.464   2.323   6.455
 3266SOL     OW14096   2.714   2.280   5.420
 3266SOL    HW114097   2.771   2.256   5.498
 3266SOL    HW214098   2.745   2.368   5.382
 3267SOL     OW14099   1.655   5.191   0.816
 3267SOL    HW114100   1.652   5.288   0.792
 3267SOL    HW214101   1.714   5.177   0.895
 3268SOL     OW14102   1.037   5.317   1.308
 3268SOL    HW114103   1.087   5.403   1.302
 3268SOL    HW214104   1.014   5.285   1.216
 3269SOL     OW14105   1.601   5.502   0.495
 3269SOL    HW114106   1.558   5.481   0.407
 3269SOL    HW214107   1.696   5.472   0.494
 3270SOL     OW14108   3.692   0.928   1.308
 3270SOL    HW114109   3.651   0.861   1.370
 3270SOL    HW214110   3.747   0.993   1.360
 3271SOL     OW14111   4.918   1.302   1.717
 3271SOL    HW114112   4.987   1.230   1.730
 3271SOL    HW214113   4.931   1.344   1.627
 3272SOL     OW14114   0.025   4.571   5.789
 3272SOL    HW114115   0.040   4.474   5.808
 3272SOL    HW214116   0.110   4.622   5.803
 3273SOL     OW14117   4.389   4.574   0.234
 3273SOL    HW114118   4.430   4.504   0.176
 3273SOL    HW214119   4.386   4.661   0.183
 3274SOL     OW14120   1.940   2.722   5.787
 3274SOL    HW114121   1.957   2.630   5.824
 3274SOL    HW214122   2.009   2.744   5.719
 3275SOL     OW14123   0.633   2.405   0.389
 3275SOL    HW114124   0.626   2.478   0.457
 3275SOL    HW214125   0.543   2.383   0.354
 3276SOL     OW14126   2.611   3.891   0.257
 3276SOL    HW114127   2.575   3.816   0.201
 3276SOL    HW214128   2.540   3.921   0.321
 3277SOL     OW14129   1.849   3.496   6.372
 3277SOL    HW114130   1.904   3.414   6.386
 3277SOL    HW214131   1.853   3.553   6.453
 3278SOL     OW14132   0.077   5.268   5.774
 3278SOL    HW114133   0.121   5.331   5.837
 3278SOL    HW214134   0.141   5.243   5.701
 3279SOL     OW14135   0.868   2.342   1.093
 3279SOL    HW114136   0.950   2.369   1.144
 3279SOL    HW214137   0.862   2.243   1.089
 3280SOL     OW14138   5.257   0.871   6.005
 3280SOL    HW114139   5.338   0.925   6.030
 3280SOL    HW214140   5.178   0.903   6.057
 3281SOL     OW14141   4.305   0.967   0.698
 3281SOL    HW114142   4.374   1.039   0.694
 3281SOL    HW214143   4.332   0.892   0.638
 3282SOL     OW14144   2.692   0.632   0.840
 3282SOL    HW114145   2.593   0.631   0.859
 3282SOL    HW214146   2.737   0.690   0.908
 3283SOL     OW14147   3.458   1.984   1.977
 3283SOL    HW114148   3.383   1.995   2.042
 3283SOL    HW214149   3.510   2.070   1.971
 3284SOL     OW14150   0.196   1.671   1.292
 3284SOL    HW114151   0.234   1.749   1.340
 3284SOL    HW214152   0.227   1.672   1.197
 3285SOL     OW14153   0.817   3.802   6.198
 3285SOL    HW114154   0.785   3.803   6.293
 3285SOL    HW214155   0.873   3.882   6.180
 3286SOL     OW14156   1.898   4.515   0.602
 3286SOL    HW114157   1.816   4.485   0.553
 3286SOL    HW214158   1.976   4.461   0.572
 3287SOL     OW14159   0.846   5.344   5.926
 3287SOL    HW114160   0.854   5.409   5.850
 3287SOL    HW214161   0.870   5.390   6.012
 3288SOL     OW14162   2.570   1.658   1.118
 3288SOL    HW114163   2.564   1.706   1.206
 3288SOL    HW214164   2.581   1.725   1.044
 3289SOL     OW14165   3.062   4.654   6.042
 3289SOL    HW114166   3.031   4.633   5.950
 3289SOL    HW214167   3.111   4.576   6.080
 3290SOL     OW14168   3.807   4.129   0.732
 3290SOL    HW114169   3.850   4.113   0.643
 3290SOL    HW214170   3.737   4.059   0.747
 3291SOL     OW14171   1.688   4.394   0.481
 3291SOL    HW114172   1.632   4.397   0.398
 3291SOL    HW214173   1.749   4.315   0.477
 3292SOL     OW14174   3.393   5.487   6.129
 3292SOL    HW114175   3.294   5.479   6.139
 3292SOL    HW214176   3.436   5.479   6.219
 3293SOL     OW14177   0.612   5.541   0.049
 3293SOL    HW114178   0.693   5.536   0.107
 3293SOL    HW214179   0.533   5.503   0.098
 3294SOL     OW14180   3.961   2.846   5.875
 3294SOL    HW114181   3.921   2.936   5.892
 3294SOL    HW214182   4.025   2.853   5.798
 3295SOL     OW14183   2.580   3.355   6.444
 3295SOL    HW114184   2.500   3.413   6.428
 3295SOL    HW214185   2.626   3.383   0.030
 3296SOL     OW14186   1.823   2.107   5.354
 3296SOL    HW114187   1.916   2.094   5.389
 3296SOL    HW214188   1.784   2.018   5.328
 3297SOL     OW14189   0.552   2.137   4.854
 3297SOL    HW114190   0.603   2.057   4.887
 3297SOL    HW214191   0.546   2.134   4.755
 3298SOL     OW14192   0.665   3.275   5.860
 3298SOL    HW114193   0.719   3.192   5.845
 3298SOL    HW214194   0.697   3.322   5.942
 3299SOL     OW14195   4.684   1.461   1.024
 3299SOL    HW114196   4.750   1.407   0.973
 3299SOL    HW214197   4.633   1.520   0.961
 3300SOL     OW14198   0.092   0.671   0.903
 3300SOL    HW114199   0.172   0.724   0.875
 3300SOL    HW214200   0.110   0.574   0.889
 3301SOL     OW14201   0.328   3.602   6.226
 3301SOL    HW114202   0.387   3.631   6.301
 3301SOL    HW214203   0.372   3.528   6.175
 3302SOL     OW14204   2.894   3.187   5.966
 3302SOL    HW114205   2.949   3.232   6.037
 3302SOL    HW214206   2.797   3.205   5.984
 3303SOL     OW14207   5.376   2.681   0.068
 3303SOL    HW114208   5.400   2.584   0.068
 3303SOL    HW214209   5.363   2.712   6.473
 3304SOL     OW14210   3.327   4.508   6.365
 3304SOL    HW114211   3.244   4.491   6.417
 3304SOL    HW214212   3.407   4.481   6.419
 3305SOL     OW14213   3.256   3.875   1.285
 3305SOL    HW114214   3.220   3.878   1.192
 3305SOL    HW214215   3.282   3.967   1.315
   5.65159   5.57391   6.49896
