DMPC - 128 lipids & 30 H2O/lipid at 303 K
26624
    1DMPC     N    1   0.055   2.145   4.921
    1DMPC   C13    2   0.182   2.106   4.988
    1DMPC  H13A    3   0.224   2.019   4.938
    1DMPC  H13B    4   0.164   2.082   5.092
    1DMPC  H13C    5   0.252   2.188   4.981
    1DMPC   C14    6   6.254   2.027   4.926
    1DMPC  H14A    7   6.159   2.053   4.881
    1DMPC  H14B    8   6.238   1.998   5.029
    1DMPC  H14C    9   0.007   1.944   4.873
    1DMPC   C15   10   6.284   2.258   4.994
    1DMPC  H15A   11   6.265   2.230   5.097
    1DMPC  H15B   12   6.192   2.287   4.947
    1DMPC  H15C   13   0.062   2.343   4.995
    1DMPC   C12   14   0.078   2.181   4.776
    1DMPC  H12A   15   6.272   2.189   4.729
    1DMPC  H12B   16   0.129   2.098   4.729
    1DMPC   C11   17   0.156   2.310   4.742
    1DMPC  H11A   18   0.091   2.396   4.771
    1DMPC  H11B   19   0.169   2.313   4.632
    1DMPC     P   20   0.330   2.443   4.870
    1DMPC   O13   21   0.476   2.442   4.896
    1DMPC   O14   22   0.245   2.467   4.988
    1DMPC   O11   23   0.298   2.550   4.759
    1DMPC   O12   24   0.286   2.309   4.803
    1DMPC    C1   25   0.392   2.583   4.656
    1DMPC    HA   26   0.454   2.669   4.690
    1DMPC    HB   27   0.461   2.499   4.632
    1DMPC    C2   28   0.321   2.624   4.524
    1DMPC    HS   29   0.242   2.697   4.553
    1DMPC   O21   30   0.268   2.503   4.465
    1DMPC   C21   31   0.156   2.522   4.398
    1DMPC   O22   32   0.098   2.629   4.387
    1DMPC   C22   33   0.111   2.391   4.336
    1DMPC   H2R   34   0.066   2.327   4.415
    1DMPC   H2S   35   0.198   2.338   4.292
    1DMPC    C3   36   0.422   2.696   4.428
    1DMPC    HX   37   0.511   2.631   4.422
    1DMPC    HY   38   0.456   2.791   4.476
    1DMPC   O31   39   0.374   2.718   4.293
    1DMPC   C31   40   0.297   2.825   4.277
    1DMPC   O32   41   0.270   2.906   4.363
    1DMPC   C32   42   0.243   2.823   4.134
    1DMPC   H2X   43   0.204   2.721   4.113
    1DMPC   H2Y   44   0.325   2.845   4.063
    1DMPC   C23   45   0.007   2.418   4.225
    1DMPC   H3R   46   0.051   2.485   4.149
    1DMPC   H3S   47   6.209   2.469   4.269
    1DMPC   C24   48   6.249   2.290   4.155
    1DMPC   H4R   49   6.202   2.222   4.230
    1DMPC   H4S   50   0.045   2.238   4.110
    1DMPC   C25   51   6.147   2.320   4.044
    1DMPC   H5R   52   6.193   2.390   3.971
    1DMPC   H5S   53   6.059   2.371   4.088
    1DMPC   C26   54   6.099   2.196   3.967
    1DMPC   H6R   55   6.045   2.128   4.038
    1DMPC   H6S   56   6.187   2.141   3.927
    1DMPC   C27   57   6.005   2.232   3.851
    1DMPC   H7R   58   6.060   2.298   3.779
    1DMPC   H7S   59   5.920   2.292   3.892
    1DMPC   C28   60   5.946   2.113   3.774
    1DMPC   H8R   61   5.874   2.154   3.699
    1DMPC   H8S   62   5.889   2.048   3.844
    1DMPC   C29   63   6.051   2.029   3.699
    1DMPC   H9R   64   6.105   1.963   3.770
    1DMPC   H9S   65   6.125   2.099   3.655
    1DMPC  C210   66   5.992   1.946   3.584
    1DMPC  H10R   67   6.075   1.897   3.528
    1DMPC  H10S   68   5.941   2.016   3.513
    1DMPC  C211   69   5.890   1.838   3.625
    1DMPC  H11R   70   5.840   1.803   3.532
    1DMPC  H11S   71   5.813   1.881   3.691
    1DMPC  C212   72   5.954   1.715   3.692
    1DMPC  H12R   73   5.997   1.743   3.790
    1DMPC  H12S   74   6.036   1.678   3.627
    1DMPC  C213   75   5.853   1.600   3.712
    1DMPC  H13R   76   5.802   1.581   3.616
    1DMPC  H13S   77   5.776   1.632   3.786
    1DMPC  C214   78   5.917   1.469   3.759
    1DMPC  H14R   79   5.992   1.435   3.685
    1DMPC  H14S   80   5.840   1.390   3.771
    1DMPC  H14T   81   5.968   1.484   3.857
    1DMPC   C33   82   0.130   2.926   4.117
    1DMPC   H3X   83   0.175   3.028   4.108
    1DMPC   H3Y   84   0.063   2.925   4.206
    1DMPC   C34   85   0.041   2.900   3.994
    1DMPC   H4X   86   0.104   2.887   3.903
    1DMPC   H4Y   87   6.267   2.989   3.978
    1DMPC   C35   88   6.239   2.778   4.011
    1DMPC   H5X   89   6.185   2.790   4.108
    1DMPC   H5Y   90   0.008   2.684   4.017
    1DMPC   C36   91   6.133   2.762   3.901
    1DMPC   H6X   92   6.082   2.859   3.885
    1DMPC   H6Y   93   6.057   2.689   3.937
    1DMPC   C37   94   6.188   2.710   3.766
    1DMPC   H7X   95   6.239   2.613   3.785
    1DMPC   H7Y   96   6.262   2.782   3.726
    1DMPC   C38   97   6.076   2.688   3.663
    1DMPC   H8X   98   6.032   2.786   3.636
    1DMPC   H8Y   99   5.996   2.627   3.711
    1DMPC   C39  100   6.119   2.614   3.536
    1DMPC   H9X  101   6.028   2.594   3.475
    1DMPC   H9Y  102   6.163   2.516   3.564
    1DMPC  C310  103   6.219   2.691   3.447
    1DMPC  H10X  104   0.021   2.711   3.505
    1DMPC  H10Y  105   6.174   2.788   3.418
    1DMPC  C311  106   6.256   2.613   3.320
    1DMPC  H11X  107   6.163   2.582   3.267
    1DMPC  H11Y  108   0.020   2.521   3.349
    1DMPC  C312  109   0.052   2.693   3.222
    1DMPC  H12X  110   0.141   2.733   3.276
    1DMPC  H12Y  111   6.285   2.779   3.183
    1DMPC  C313  112   0.102   2.609   3.103
    1DMPC  H13X  113   0.014   2.567   3.050
    1DMPC  H13Y  114   0.161   2.523   3.143
    1DMPC  C314  115   0.189   2.686   3.003
    1DMPC  H14X  116   0.222   2.619   2.921
    1DMPC  H14Y  117   0.279   2.727   3.053
    1DMPC  H14Z  118   0.132   2.770   2.959
    2DMPC     N  119   2.944   1.078   5.393
    2DMPC   C13  120   2.873   1.167   5.489
    2DMPC  H13A  121   2.858   1.115   5.582
    2DMPC  H13B  122   2.778   1.195   5.446
    2DMPC  H13C  123   2.932   1.256   5.507
    2DMPC   C14  124   3.074   1.035   5.453
    2DMPC  H14A  125   3.135   1.122   5.474
    2DMPC  H14B  126   3.126   0.972   5.383
    2DMPC  H14C  127   3.056   0.981   5.545
    2DMPC   C15  128   2.861   0.957   5.369
    2DMPC  H15A  129   2.768   0.985   5.322
    2DMPC  H15B  130   2.840   0.910   5.464
    2DMPC  H15C  131   2.915   0.888   5.306
    2DMPC   C12  132   2.974   1.151   5.264
    2DMPC  H12A  133   3.046   1.091   5.209
    2DMPC  H12B  134   3.022   1.244   5.290
    2DMPC   C11  135   2.856   1.181   5.168
    2DMPC  H11A  136   2.822   1.084   5.126
    2DMPC  H11B  137   2.899   1.242   5.085
    2DMPC     P  138   2.625   1.275   5.142
    2DMPC   O13  139   2.520   1.353   5.212
    2DMPC   O14  140   2.582   1.143   5.089
    2DMPC   O11  141   2.682   1.360   5.022
    2DMPC   O12  142   2.752   1.253   5.233
    2DMPC    C1  143   2.611   1.472   4.966
    2DMPC    HA  144   2.672   1.513   4.883
    2DMPC    HB  145   2.598   1.553   5.042
    2DMPC    C2  146   2.470   1.439   4.904
    2DMPC    HS  147   2.403   1.421   4.991
    2DMPC   O21  148   2.482   1.318   4.825
    2DMPC   C21  149   2.365   1.262   4.803
    2DMPC   O22  150   2.258   1.309   4.836
    2DMPC   C22  151   2.383   1.126   4.735
    2DMPC   H2R  152   2.336   1.050   4.801
    2DMPC   H2S  153   2.491   1.101   4.725
    2DMPC    C3  154   2.412   1.561   4.824
    2DMPC    HX  155   2.419   1.649   4.892
    2DMPC    HY  156   2.305   1.543   4.803
    2DMPC   O31  157   2.483   1.585   4.701
    2DMPC   C31  158   2.442   1.695   4.637
    2DMPC   O32  159   2.357   1.772   4.677
    2DMPC   C32  160   2.518   1.706   4.505
    2DMPC   H2X  161   2.625   1.683   4.521
    2DMPC   H2Y  162   2.509   1.811   4.468
    2DMPC   C23  163   2.312   1.123   4.599
    2DMPC   H3R  164   2.212   1.170   4.606
    2DMPC   H3S  165   2.297   1.016   4.572
    2DMPC   C24  166   2.395   1.187   4.486
    2DMPC   H4R  167   2.494   1.136   4.482
    2DMPC   H4S  168   2.412   1.294   4.508
    2DMPC   C25  169   2.330   1.173   4.346
    2DMPC   H5R  170   2.306   1.066   4.328
    2DMPC   H5S  171   2.405   1.204   4.270
    2DMPC   C26  172   2.204   1.259   4.327
    2DMPC   H6R  173   2.231   1.365   4.347
    2DMPC   H6S  174   2.127   1.228   4.401
    2DMPC   C27  175   2.144   1.246   4.186
    2DMPC   H7R  176   2.120   1.139   4.168
    2DMPC   H7S  177   2.220   1.277   4.110
    2DMPC   C28  178   2.015   1.328   4.166
    2DMPC   H8R  179   1.948   1.307   4.252
    2DMPC   H8S  180   1.964   1.293   4.074
    2DMPC   C29  181   2.037   1.480   4.156
    2DMPC   H9R  182   2.108   1.511   4.235
    2DMPC   H9S  183   1.941   1.532   4.175
    2DMPC  C210  184   2.093   1.528   4.020
    2DMPC  H10R  185   2.175   1.460   3.988
    2DMPC  H10S  186   2.135   1.629   4.035
    2DMPC  C211  187   1.986   1.537   3.910
    2DMPC  H11R  188   1.905   1.604   3.948
    2DMPC  H11S  189   1.941   1.437   3.891
    2DMPC  C212  190   2.038   1.596   3.778
    2DMPC  H12R  191   2.094   1.689   3.800
    2DMPC  H12S  192   1.950   1.623   3.715
    2DMPC  C213  193   2.127   1.501   3.697
    2DMPC  H13R  194   2.067   1.413   3.666
    2DMPC  H13S  195   2.209   1.463   3.763
    2DMPC  C214  196   2.191   1.564   3.573
    2DMPC  H14R  197   2.253   1.651   3.602
    2DMPC  H14S  198   2.112   1.599   3.503
    2DMPC  H14T  199   2.255   1.490   3.521
    2DMPC   C33  200   2.459   1.609   4.401
    2DMPC   H3X  201   2.354   1.639   4.379
    2DMPC   H3Y  202   2.457   1.506   4.442
    2DMPC   C34  203   2.538   1.607   4.269
    2DMPC   H4X  204   2.638   1.562   4.288
    2DMPC   H4Y  205   2.553   1.711   4.233
    2DMPC   C35  206   2.466   1.527   4.159
    2DMPC   H5X  207   2.370   1.578   4.136
    2DMPC   H5Y  208   2.442   1.425   4.197
    2DMPC   C36  209   2.547   1.512   4.029
    2DMPC   H6X  210   2.635   1.447   4.047
    2DMPC   H6Y  211   2.583   1.612   3.997
    2DMPC   C37  212   2.461   1.454   3.915
    2DMPC   H7X  213   2.377   1.524   3.898
    2DMPC   H7Y  214   2.418   1.357   3.949
    2DMPC   C38  215   2.533   1.433   3.781
    2DMPC   H8X  216   2.579   1.528   3.748
    2DMPC   H8Y  217   2.456   1.405   3.706
    2DMPC   C39  218   2.639   1.321   3.783
    2DMPC   H9X  219   2.599   1.236   3.843
    2DMPC   H9Y  220   2.732   1.357   3.832
    2DMPC  C310  221   2.672   1.266   3.643
    2DMPC  H10X  222   2.578   1.229   3.597
    2DMPC  H10Y  223   2.741   1.179   3.654
    2DMPC  C311  224   2.736   1.367   3.546
    2DMPC  H11X  225   2.838   1.391   3.582
    2DMPC  H11Y  226   2.676   1.461   3.548
    2DMPC  C312  227   2.741   1.319   3.400
    2DMPC  H12X  228   2.785   1.400   3.338
    2DMPC  H12Y  229   2.637   1.302   3.364
    2DMPC  C313  230   2.823   1.191   3.378
    2DMPC  H13X  231   2.776   1.108   3.435
    2DMPC  H13Y  232   2.926   1.206   3.417
    2DMPC  C314  233   2.831   1.147   3.231
    2DMPC  H14X  234   2.881   1.226   3.170
    2DMPC  H14Y  235   2.730   1.130   3.190
    2DMPC  H14Z  236   2.890   1.053   3.222
    3DMPC     N  237   4.552   0.783   4.552
    3DMPC   C13  238   4.655   0.774   4.660
    3DMPC  H13A  239   4.637   0.685   4.719
    3DMPC  H13B  240   4.649   0.861   4.723
    3DMPC  H13C  241   4.753   0.768   4.615
    3DMPC   C14  242   4.419   0.788   4.617
    3DMPC  H14A  243   4.342   0.801   4.542
    3DMPC  H14B  244   4.415   0.870   4.687
    3DMPC  H14C  245   4.402   0.695   4.671
    3DMPC   C15  246   4.573   0.910   4.477
    3DMPC  H15A  247   4.562   0.994   4.544
    3DMPC  H15B  248   4.499   0.917   4.398
    3DMPC  H15C  249   4.673   0.910   4.435
    3DMPC   C12  250   4.557   0.663   4.461
    3DMPC  H12A  251   4.468   0.667   4.399
    3DMPC  H12B  252   4.549   0.575   4.523
    3DMPC   C11  253   4.678   0.646   4.366
    3DMPC  H11A  254   4.674   0.729   4.291
    3DMPC  H11B  255   4.664   0.551   4.311
    3DMPC     P  256   4.920   0.723   4.390
    3DMPC   O13  257   5.043   0.679   4.461
    3DMPC   O14  258   4.884   0.866   4.402
    3DMPC   O11  259   4.930   0.686   4.237
    3DMPC   O12  260   4.798   0.639   4.441
    3DMPC    C1  261   5.056   0.652   4.177
    3DMPC    HA  262   5.037   0.611   4.075
    3DMPC    HB  263   5.107   0.571   4.234
    3DMPC    C2  264   5.154   0.772   4.159
    3DMPC    HS  265   5.171   0.816   4.260
    3DMPC   O21  266   5.088   0.866   4.073
    3DMPC   C21  267   5.141   0.986   4.077
    3DMPC   O22  268   5.236   1.019   4.146
    3DMPC   C22  269   5.064   1.075   3.979
    3DMPC   H2R  270   4.957   1.076   4.008
    3DMPC   H2S  271   5.073   1.031   3.878
    3DMPC    C3  272   5.293   0.726   4.104
    3DMPC    HX  273   5.333   0.653   4.178
    3DMPC    HY  274   5.365   0.811   4.103
    3DMPC   O31  275   5.285   0.659   3.976
    3DMPC   C31  276   5.303   0.738   3.869
    3DMPC   O32  277   5.324   0.857   3.873
    3DMPC   C32  278   5.289   0.655   3.742
    3DMPC   H2X  279   5.185   0.617   3.737
    3DMPC   H2Y  280   5.358   0.568   3.747
    3DMPC   C23  281   5.118   1.219   3.980
    3DMPC   H3R  282   5.224   1.219   3.947
    3DMPC   H3S  283   5.114   1.261   4.083
    3DMPC   C24  284   5.038   1.314   3.887
    3DMPC   H4R  285   5.085   1.414   3.891
    3DMPC   H4S  286   4.934   1.324   3.927
    3DMPC   C25  287   5.030   1.267   3.741
    3DMPC   H5R  288   4.970   1.173   3.736
    3DMPC   H5S  289   5.133   1.244   3.705
    3DMPC   C26  290   4.966   1.370   3.647
    3DMPC   H6R  291   5.033   1.459   3.639
    3DMPC   H6S  292   4.870   1.403   3.691
    3DMPC   C27  293   4.937   1.316   3.506
    3DMPC   H7R  294   4.885   1.395   3.449
    3DMPC   H7S  295   4.868   1.229   3.515
    3DMPC   C28  296   5.062   1.274   3.427
    3DMPC   H8R  297   5.110   1.186   3.475
    3DMPC   H8S  298   5.134   1.359   3.429
    3DMPC   C29  299   5.033   1.241   3.279
    3DMPC   H9R  300   5.131   1.226   3.228
    3DMPC   H9S  301   4.984   1.329   3.232
    3DMPC  C210  302   4.947   1.117   3.256
    3DMPC  H10R  303   5.000   1.028   3.297
    3DMPC  H10S  304   4.850   1.128   3.311
    3DMPC  C211  305   4.915   1.092   3.108
    3DMPC  H11R  306   5.010   1.088   3.051
    3DMPC  H11S  307   4.856   1.179   3.069
    3DMPC  C212  308   4.835   0.963   3.083
    3DMPC  H12R  309   4.899   0.876   3.109
    3DMPC  H12S  310   4.747   0.962   3.151
    3DMPC  C213  311   4.785   0.948   2.938
    3DMPC  H13R  312   4.713   1.030   2.917
    3DMPC  H13S  313   4.728   0.852   2.932
    3DMPC  C214  314   4.893   0.947   2.830
    3DMPC  H14R  315   4.947   1.044   2.828
    3DMPC  H14S  316   4.847   0.932   2.730
    3DMPC  H14T  317   4.965   0.865   2.849
    3DMPC   C33  318   5.321   0.741   3.618
    3DMPC   H3X  319   5.252   0.828   3.614
    3DMPC   H3Y  320   5.425   0.780   3.628
    3DMPC   C34  321   5.312   0.664   3.485
    3DMPC   H4X  322   5.349   0.731   3.404
    3DMPC   H4Y  323   5.379   0.576   3.490
    3DMPC   C35  324   5.169   0.618   3.451
    3DMPC   H5X  325   5.104   0.707   3.439
    3DMPC   H5Y  326   5.130   0.558   3.536
    3DMPC   C36  327   5.160   0.530   3.325
    3DMPC   H6X  328   5.058   0.485   3.324
    3DMPC   H6Y  329   5.234   0.447   3.333
    3DMPC   C37  330   5.180   0.606   3.193
    3DMPC   H7X  331   5.280   0.654   3.194
    3DMPC   H7Y  332   5.103   0.686   3.185
    3DMPC   C38  333   5.171   0.515   3.068
    3DMPC   H8X  334   5.248   0.435   3.076
    3DMPC   H8Y  335   5.195   0.577   2.979
    3DMPC   C39  336   5.033   0.450   3.048
    3DMPC   H9X  337   4.957   0.530   3.043
    3DMPC   H9Y  338   5.009   0.385   3.134
    3DMPC  C310  339   5.025   0.366   2.920
    3DMPC  H10X  340   5.098   0.282   2.926
    3DMPC  H10Y  341   5.053   0.430   2.833
    3DMPC  C311  342   4.885   0.308   2.895
    3DMPC  H11X  343   4.813   0.393   2.891
    3DMPC  H11Y  344   4.855   0.242   2.979
    3DMPC  C312  345   4.875   0.229   2.763
    3DMPC  H12X  346   4.934   0.136   2.772
    3DMPC  H12Y  347   4.919   0.291   2.682
    3DMPC  C313  348   4.730   0.194   2.724
    3DMPC  H13X  349   4.670   0.288   2.722
    3DMPC  H13Y  350   4.687   0.128   2.802
    3DMPC  C314  351   4.718   0.125   2.588
    3DMPC  H14X  352   4.612   0.106   2.564
    3DMPC  H14Y  353   4.773   0.029   2.588
    3DMPC  H14Z  354   4.761   0.190   2.508
    4DMPC     N  355   1.217   6.283   5.428
    4DMPC   C13  356   1.233   6.294   5.576
    4DMPC  H13A  357   1.238   6.195   5.619
    4DMPC  H13B  358   1.149   0.016   5.618
    4DMPC  H13C  359   1.324   0.016   5.600
    4DMPC   C14  360   1.214   0.089   5.370
    4DMPC  H14A  361   1.206   0.081   5.263
    4DMPC  H14B  362   1.303   0.143   5.398
    4DMPC  H14C  363   1.126   0.142   5.407
    4DMPC   C15  364   1.336   6.209   5.377
    4DMPC  H15A  365   1.331   6.203   5.268
    4DMPC  H15B  366   1.338   6.110   5.418
    4DMPC  H15C  367   1.427   6.261   5.405
    4DMPC   C12  368   1.090   6.208   5.398
    4DMPC  H12A  369   1.007   6.272   5.426
    4DMPC  H12B  370   1.087   6.121   5.462
    4DMPC   C11  371   1.066   6.159   5.253
    4DMPC  H11A  372   0.963   6.115   5.249
    4DMPC  H11B  373   1.138   6.075   5.234
    4DMPC     P  374   1.156   6.242   5.031
    4DMPC   O13  375   1.105   6.120   4.964
    4DMPC   O14  376   1.299   6.245   5.068
    4DMPC   O11  377   1.125   0.038   4.942
    4DMPC   O12  378   1.073   6.267   5.161
    4DMPC    C1  379   1.020   0.035   4.844
    4DMPC    HA  380   0.981   0.139   4.832
    4DMPC    HB  381   0.934   6.303   4.876
    4DMPC    C2  382   1.068   6.318   4.703
    4DMPC    HS  383   1.123   6.221   4.714
    4DMPC   O21  384   1.147   0.091   4.643
    4DMPC   C21  385   1.276   0.074   4.654
    4DMPC   O22  386   1.332   6.311   4.709
    4DMPC   C22  387   1.349   0.190   4.585
    4DMPC   H2R  388   1.401   0.251   4.662
    4DMPC   H2S  389   1.275   0.255   4.533
    4DMPC    C3  390   0.946   6.286   4.611
    4DMPC    HX  391   0.869   0.033   4.631
    4DMPC    HY  392   0.905   6.187   4.641
    4DMPC   O31  393   0.983   6.288   4.471
    4DMPC   C31  394   0.880   6.268   4.391
    4DMPC   O32  395   0.768   6.235   4.428
    4DMPC   C32  396   0.921   6.295   4.245
    4DMPC   H2X  397   0.921   0.073   4.227
    4DMPC   H2Y  398   0.843   6.248   4.180
    4DMPC   C23  399   1.450   0.137   4.482
    4DMPC   H3R  400   1.399   0.065   4.415
    4DMPC   H3S  401   1.533   0.085   4.534
    4DMPC   C24  402   1.506   0.251   4.396
    4DMPC   H4R  403   1.565   0.320   4.460
    4DMPC   H4S  404   1.420   0.308   4.355
    4DMPC   C25  405   1.594   0.203   4.279
    4DMPC   H5R  406   1.533   0.138   4.212
    4DMPC   H5S  407   1.678   0.142   4.320
    4DMPC   C26  408   1.655   0.318   4.195
    4DMPC   H6R  409   1.715   0.273   4.113
    4DMPC   H6S  410   1.724   0.376   4.260
    4DMPC   C27  411   1.552   0.414   4.136
    4DMPC   H7R  412   1.490   0.456   4.218
    4DMPC   H7S  413   1.483   0.359   4.067
    4DMPC   C28  414   1.613   0.534   4.062
    4DMPC   H8R  415   1.693   0.579   4.124
    4DMPC   H8S  416   1.532   0.610   4.051
    4DMPC   C29  417   1.667   0.504   3.921
    4DMPC   H9R  418   1.588   0.451   3.863
    4DMPC   H9S  419   1.756   0.437   3.927
    4DMPC  C210  420   1.703   0.634   3.847
    4DMPC  H10R  421   1.791   0.681   3.896
    4DMPC  H10S  422   1.617   0.703   3.859
    4DMPC  C211  423   1.729   0.619   3.697
    4DMPC  H11R  424   1.645   0.561   3.651
    4DMPC  H11S  425   1.823   0.562   3.681
    4DMPC  C212  426   1.737   0.756   3.627
    4DMPC  H12R  427   1.820   0.815   3.672
    4DMPC  H12S  428   1.642   0.811   3.645
    4DMPC  C213  429   1.760   0.747   3.475
    4DMPC  H13R  430   1.678   0.687   3.430
    4DMPC  H13S  431   1.855   0.694   3.456
    4DMPC  C214  432   1.765   0.883   3.405
    4DMPC  H14R  433   1.668   0.937   3.417
    4DMPC  H14S  434   1.785   0.871   3.297
    4DMPC  H14T  435   1.845   0.946   3.449
    4DMPC   C33  436   1.059   6.236   4.209
    4DMPC   H3X  437   1.058   6.206   4.102
    4DMPC   H3Y  438   1.076   6.143   4.268
    4DMPC   C34  439   1.178   0.002   4.230
    4DMPC   H4X  440   1.270   6.272   4.241
    4DMPC   H4Y  441   1.163   0.058   4.325
    4DMPC   C35  442   1.202   0.102   4.115
    4DMPC   H5X  443   1.282   0.172   4.149
    4DMPC   H5Y  444   1.111   0.162   4.097
    4DMPC   C36  445   1.249   0.036   3.984
    4DMPC   H6X  446   1.163   6.314   3.937
    4DMPC   H6Y  447   1.326   6.290   4.009
    4DMPC   C37  448   1.311   0.134   3.883
    4DMPC   H7X  449   1.397   0.185   3.931
    4DMPC   H7Y  450   1.237   0.211   3.855
    4DMPC   C38  451   1.361   0.063   3.756
    4DMPC   H8X  452   1.273   0.021   3.701
    4DMPC   H8Y  453   1.426   6.308   3.786
    4DMPC   C39  454   1.442   0.152   3.661
    4DMPC   H9X  455   1.531   0.191   3.716
    4DMPC   H9Y  456   1.380   0.239   3.630
    4DMPC  C310  457   1.490   0.077   3.535
    4DMPC  H10X  458   1.399   0.044   3.479
    4DMPC  H10Y  459   1.546   6.317   3.565
    4DMPC  C311  460   1.577   0.161   3.440
    4DMPC  H11X  461   1.527   0.259   3.422
    4DMPC  H11Y  462   1.583   0.108   3.342
    4DMPC  C312  463   1.720   0.183   3.491
    4DMPC  H12X  464   1.766   0.083   3.509
    4DMPC  H12Y  465   1.717   0.238   3.587
    4DMPC  C313  466   1.811   0.259   3.393
    4DMPC  H13X  467   1.818   0.201   3.298
    4DMPC  H13Y  468   1.913   0.263   3.437
    4DMPC  C314  469   1.767   0.402   3.360
    4DMPC  H14X  470   1.668   0.402   3.311
    4DMPC  H14Y  471   1.841   0.450   3.292
    4DMPC  H14Z  472   1.761   0.461   3.454
    5DMPC     N  473   2.752   5.906   4.944
    5DMPC   C13  474   2.679   6.034   4.930
    5DMPC  H13A  475   2.622   6.034   4.838
    5DMPC  H13B  476   2.749   6.116   4.929
    5DMPC  H13C  477   2.610   6.047   5.014
    5DMPC   C14  478   2.653   5.795   4.956
    5DMPC  H14A  479   2.593   5.791   4.867
    5DMPC  H14B  480   2.589   5.812   5.042
    5DMPC  H14C  481   2.707   5.702   4.969
    5DMPC   C15  482   2.832   5.880   4.822
    5DMPC  H15A  483   2.885   5.787   4.833
    5DMPC  H15B  484   2.904   5.961   4.807
    5DMPC  H15C  485   2.766   5.874   4.737
    5DMPC   C12  486   2.838   5.907   5.068
    5DMPC  H12A  487   2.858   5.803   5.094
    5DMPC  H12B  488   2.780   5.950   5.148
    5DMPC   C11  489   2.974   5.979   5.059
    5DMPC  H11A  490   3.042   5.913   4.999
    5DMPC  H11B  491   3.016   5.986   5.162
    5DMPC     P  492   3.089   6.168   4.938
    5DMPC   O13  493   3.203   6.149   5.031
    5DMPC   O14  494   3.063   6.306   4.891
    5DMPC   O11  495   3.107   6.074   4.813
    5DMPC   O12  496   2.959   6.110   5.005
    5DMPC    C1  497   3.231   6.070   4.739
    5DMPC    HA  498   3.222   5.990   4.663
    5DMPC    HB  499   3.315   6.042   4.806
    5DMPC    C2  500   3.266   6.202   4.663
    5DMPC    HS  501   3.289   6.278   4.741
    5DMPC   O21  502   3.151   6.241   4.586
    5DMPC   C21  503   3.151   0.039   4.556
    5DMPC   O22  504   3.241   0.116   4.586
    5DMPC   C22  505   3.020   0.078   4.487
    5DMPC   H2R  506   2.969   0.151   4.554
    5DMPC   H2S  507   2.954   6.321   4.475
    5DMPC    C3  508   3.394   6.184   4.575
    5DMPC    HX  509   3.478   6.162   4.645
    5DMPC    HY  510   3.421   6.280   4.524
    5DMPC   O31  511   3.385   6.073   4.483
    5DMPC   C31  512   3.335   6.103   4.363
    5DMPC   O32  513   3.307   6.215   4.325
    5DMPC   C32  514   3.315   5.974   4.283
    5DMPC   H2X  515   3.279   5.894   4.351
    5DMPC   H2Y  516   3.413   5.943   4.240
    5DMPC   C23  517   3.046   0.146   4.351
    5DMPC   H3R  518   3.149   0.189   4.350
    5DMPC   H3S  519   2.976   0.231   4.340
    5DMPC   C24  520   3.026   0.053   4.230
    5DMPC   H4R  521   2.918   0.050   4.206
    5DMPC   H4S  522   3.058   6.281   4.256
    5DMPC   C25  523   3.105   0.098   4.106
    5DMPC   H5R  524   3.096   0.208   4.093
    5DMPC   H5S  525   3.212   0.075   4.123
    5DMPC   C26  526   3.063   0.029   3.975
    5DMPC   H6R  527   2.960   0.062   3.948
    5DMPC   H6S  528   3.061   6.250   3.991
    5DMPC   C27  529   3.158   0.060   3.859
    5DMPC   H7R  530   3.257   0.015   3.883
    5DMPC   H7S  531   3.172   0.170   3.850
    5DMPC   C28  532   3.110   0.005   3.724
    5DMPC   H8R  533   3.018   0.059   3.694
    5DMPC   H8S  534   3.084   6.228   3.736
    5DMPC   C29  535   3.215   0.018   3.612
    5DMPC   H9R  536   3.307   6.293   3.643
    5DMPC   H9S  537   3.242   0.125   3.600
    5DMPC  C210  538   3.166   6.292   3.478
    5DMPC  H10R  539   3.078   0.020   3.445
    5DMPC  H10S  540   3.134   6.187   3.493
    5DMPC  C211  541   3.274   6.296   3.368
    5DMPC  H11R  542   3.365   6.243   3.406
    5DMPC  H11S  543   3.303   0.071   3.349
    5DMPC  C212  544   3.232   6.230   3.236
    5DMPC  H12R  545   3.209   6.122   3.255
    5DMPC  H12S  546   3.318   6.234   3.166
    5DMPC  C213  547   3.111   6.296   3.169
    5DMPC  H13R  548   3.132   0.074   3.156
    5DMPC  H13S  549   3.023   6.286   3.236
    5DMPC  C214  550   3.075   6.236   3.032
    5DMPC  H14R  551   3.051   6.128   3.042
    5DMPC  H14S  552   3.159   6.248   2.961
    5DMPC  H14T  553   2.986   6.288   2.990
    5DMPC   C33  554   3.213   5.997   4.171
    5DMPC   H3X  555   3.252   6.073   4.100
    5DMPC   H3Y  556   3.118   6.037   4.215
    5DMPC   C34  557   3.178   5.868   4.095
    5DMPC   H4X  558   3.146   5.791   4.169
    5DMPC   H4Y  559   3.270   5.830   4.045
    5DMPC   C35  560   3.066   5.884   3.991
    5DMPC   H5X  561   2.979   5.931   4.043
    5DMPC   H5Y  562   3.034   5.784   3.955
    5DMPC   C36  563   3.103   5.972   3.870
    5DMPC   H6X  564   3.157   6.062   3.906
    5DMPC   H6Y  565   3.010   6.007   3.821
    5DMPC   C37  566   3.191   5.900   3.765
    5DMPC   H7X  567   3.266   5.837   3.818
    5DMPC   H7Y  568   3.248   5.978   3.709
    5DMPC   C38  569   3.114   5.815   3.664
    5DMPC   H8X  570   3.045   5.746   3.718
    5DMPC   H8Y  571   3.187   5.752   3.607
    5DMPC   C39  572   3.035   5.899   3.562
    5DMPC   H9X  573   3.105   5.964   3.506
    5DMPC   H9Y  574   2.964   5.964   3.617
    5DMPC  C310  575   2.954   5.816   3.461
    5DMPC  H10X  576   2.898   5.737   3.516
    5DMPC  H10Y  577   3.023   5.764   3.391
    5DMPC  C311  578   2.854   5.902   3.382
    5DMPC  H11X  579   2.911   5.976   3.322
    5DMPC  H11Y  580   2.791   5.958   3.455
    5DMPC  C312  581   2.761   5.820   3.292
    5DMPC  H12X  582   2.712   5.741   3.353
    5DMPC  H12Y  583   2.822   5.770   3.213
    5DMPC  C313  584   2.650   5.903   3.224
    5DMPC  H13X  585   2.588   5.950   3.303
    5DMPC  H13Y  586   2.585   5.834   3.167
    5DMPC  C314  587   2.701   6.012   3.129
    5DMPC  H14X  588   2.615   6.064   3.081
    5DMPC  H14Y  589   2.764   5.968   3.049
    5DMPC  H14Z  590   2.761   6.088   3.184
    6DMPC     N  591   2.110   2.037   4.892
    6DMPC   C13  592   2.069   2.098   5.021
    6DMPC  H13A  593   2.075   2.025   5.100
    6DMPC  H13B  594   1.967   2.134   5.013
    6DMPC  H13C  595   2.135   2.181   5.043
    6DMPC   C14  596   2.254   1.999   4.904
    6DMPC  H14A  597   2.265   1.930   4.987
    6DMPC  H14B  598   2.312   2.088   4.924
    6DMPC  H14C  599   2.288   1.950   4.814
    6DMPC   C15  600   2.032   1.913   4.868
    6DMPC  H15A  601   1.926   1.936   4.864
    6DMPC  H15B  602   2.049   1.844   4.949
    6DMPC  H15C  603   2.063   1.867   4.775
    6DMPC   C12  604   2.095   2.135   4.777
    6DMPC  H12A  605   2.141   2.090   4.690
    6DMPC  H12B  606   2.152   2.223   4.803
    6DMPC   C11  607   1.952   2.181   4.737
    6DMPC  H11A  608   1.894   2.092   4.703
    6DMPC  H11B  609   1.965   2.251   4.650
    6DMPC     P  610   1.740   2.297   4.820
    6DMPC   O13  611   1.729   2.441   4.855
    6DMPC   O14  612   1.649   2.206   4.893
    6DMPC   O11  613   1.720   2.280   4.665
    6DMPC   O12  614   1.888   2.247   4.845
    6DMPC    C1  615   1.592   2.295   4.601
    6DMPC    HA  616   1.611   2.316   4.494
    6DMPC    HB  617   1.536   2.382   4.641
    6DMPC    C2  618   1.503   2.167   4.608
    6DMPC    HS  619   1.466   2.161   4.713
    6DMPC   O21  620   1.587   2.056   4.570
    6DMPC   C21  621   1.563   1.946   4.638
    6DMPC   O22  622   1.482   1.934   4.728
    6DMPC   C22  623   1.654   1.835   4.585
    6DMPC   H2R  624   1.742   1.827   4.653
    6DMPC   H2S  625   1.691   1.860   4.484
    6DMPC    C3  626   1.379   2.177   4.513
    6DMPC    HX  627   1.310   2.253   4.555
    6DMPC    HY  628   1.329   2.077   4.515
    6DMPC   O31  629   1.419   2.215   4.380
    6DMPC   C31  630   1.323   2.203   4.288
    6DMPC   O32  631   1.212   2.157   4.309
    6DMPC   C32  632   1.377   2.258   4.156
    6DMPC   H2X  633   1.451   2.186   4.116
    6DMPC   H2Y  634   1.427   2.355   4.176
    6DMPC   C23  635   1.578   1.701   4.582
    6DMPC   H3R  636   1.554   1.669   4.686
    6DMPC   H3S  637   1.648   1.626   4.539
    6DMPC   C24  638   1.449   1.700   4.498
    6DMPC   H4R  639   1.371   1.758   4.552
    6DMPC   H4S  640   1.413   1.595   4.492
    6DMPC   C25  641   1.464   1.757   4.357
    6DMPC   H5R  642   1.548   1.706   4.305
    6DMPC   H5S  643   1.488   1.866   4.363
    6DMPC   C26  644   1.336   1.741   4.273
    6DMPC   H6R  645   1.251   1.785   4.330
    6DMPC   H6S  646   1.316   1.633   4.259
    6DMPC   C27  647   1.344   1.810   4.136
    6DMPC   H7R  648   1.432   1.771   4.081
    6DMPC   H7S  649   1.358   1.919   4.151
    6DMPC   C28  650   1.218   1.787   4.052
    6DMPC   H8R  651   1.129   1.816   4.112
    6DMPC   H8S  652   1.209   1.678   4.030
    6DMPC   C29  653   1.217   1.865   3.919
    6DMPC   H9R  654   1.313   1.845   3.866
    6DMPC   H9S  655   1.213   1.973   3.941
    6DMPC  C210  656   1.101   1.827   3.826
    6DMPC  H10R  657   1.109   1.719   3.801
    6DMPC  H10S  658   1.113   1.885   3.731
    6DMPC  C211  659   0.962   1.855   3.883
    6DMPC  H11R  660   0.952   1.963   3.905
    6DMPC  H11S  661   0.949   1.799   3.979
    6DMPC  C212  662   0.849   1.812   3.788
    6DMPC  H12R  663   0.862   1.704   3.766
    6DMPC  H12S  664   0.859   1.868   3.693
    6DMPC  C213  665   0.708   1.832   3.845
    6DMPC  H13R  666   0.693   1.941   3.865
    6DMPC  H13S  667   0.701   1.779   3.942
    6DMPC  C214  668   0.596   1.782   3.754
    6DMPC  H14R  669   0.596   1.839   3.658
    6DMPC  H14S  670   0.498   1.796   3.803
    6DMPC  H14T  671   0.610   1.674   3.731
    6DMPC   C33  672   1.264   2.279   4.054
    6DMPC   H3X  673   1.181   2.334   4.103
    6DMPC   H3Y  674   1.225   2.181   4.020
    6DMPC   C34  675   1.308   2.362   3.931
    6DMPC   H4X  676   1.325   2.467   3.964
    6DMPC   H4Y  677   1.224   2.364   3.858
    6DMPC   C35  678   1.435   2.314   3.859
    6DMPC   H5X  679   1.521   2.322   3.928
    6DMPC   H5Y  680   1.454   2.383   3.774
    6DMPC   C36  681   1.428   2.170   3.805
    6DMPC   H6X  682   1.343   2.161   3.734
    6DMPC   H6Y  683   1.408   2.102   3.890
    6DMPC   C37  684   1.557   2.123   3.736
    6DMPC   H7X  685   1.551   2.013   3.724
    6DMPC   H7Y  686   1.643   2.145   3.802
    6DMPC   C38  687   1.582   2.186   3.598
    6DMPC   H8X  688   1.580   2.297   3.606
    6DMPC   H8Y  689   1.500   2.155   3.530
    6DMPC   C39  690   1.716   2.146   3.534
    6DMPC   H9X  691   1.799   2.193   3.591
    6DMPC   H9Y  692   1.720   2.188   3.431
    6DMPC  C310  693   1.741   1.994   3.526
    6DMPC  H10X  694   1.651   1.945   3.484
    6DMPC  H10Y  695   1.757   1.955   3.629
    6DMPC  C311  696   1.863   1.957   3.439
    6DMPC  H11X  697   1.950   2.017   3.474
    6DMPC  H11Y  698   1.842   1.985   3.334
    6DMPC  C312  699   1.901   1.808   3.446
    6DMPC  H12X  700   1.920   1.781   3.552
    6DMPC  H12Y  701   1.996   1.794   3.390
    6DMPC  C313  702   1.795   1.713   3.388
    6DMPC  H13X  703   1.779   1.740   3.281
    6DMPC  H13Y  704   1.699   1.728   3.442
    6DMPC  C314  705   1.833   1.565   3.397
    6DMPC  H14X  706   1.845   1.535   3.503
    6DMPC  H14Y  707   1.928   1.546   3.344
    6DMPC  H14Z  708   1.753   1.502   3.351
    7DMPC     N  709   1.509   0.208   4.987
    7DMPC   C13  710   1.365   0.239   4.966
    7DMPC  H13A  711   1.354   0.304   4.880
    7DMPC  H13B  712   1.326   0.290   5.053
    7DMPC  H13C  713   1.309   0.148   4.951
    7DMPC   C14  714   1.581   0.337   5.006
    7DMPC  H14A  715   1.568   0.398   4.918
    7DMPC  H14B  716   1.687   0.316   5.019
    7DMPC  H14C  717   1.542   0.387   5.093
    7DMPC   C15  718   1.520   0.127   5.111
    7DMPC  H15A  719   1.483   0.185   5.194
    7DMPC  H15B  720   1.623   0.100   5.128
    7DMPC  H15C  721   1.460   0.037   5.100
    7DMPC   C12  722   1.562   0.135   4.867
    7DMPC  H12A  723   1.573   0.207   4.787
    7DMPC  H12B  724   1.487   0.063   4.837
    7DMPC   C11  725   1.695   0.059   4.884
    7DMPC  H11A  726   1.729   0.023   4.784
    7DMPC  H11B  727   1.671   6.301   4.947
    7DMPC     P  728   1.914   0.073   5.013
    7DMPC   O13  729   1.907   6.257   4.991
    7DMPC   O14  730   1.914   0.118   5.154
    7DMPC   O11  731   2.039   0.133   4.939
    7DMPC   O12  732   1.794   0.144   4.941
    7DMPC    C1  733   2.078   0.270   4.951
    7DMPC    HA  734   2.189   0.275   4.955
    7DMPC    HB  735   2.041   0.318   5.045
    7DMPC    C2  736   2.033   0.357   4.830
    7DMPC    HS  737   1.921   0.359   4.833
    7DMPC   O21  738   2.081   0.294   4.710
    7DMPC   C21  739   2.021   0.338   4.602
    7DMPC   O22  740   1.925   0.414   4.601
    7DMPC   C22  741   2.093   0.283   4.480
    7DMPC   H2R  742   2.107   0.173   4.491
    7DMPC   H2S  743   2.194   0.330   4.475
    7DMPC    C3  744   2.086   0.504   4.843
    7DMPC    HX  745   2.045   0.545   4.939
    7DMPC    HY  746   2.044   0.564   4.759
    7DMPC   O31  747   2.230   0.508   4.845
    7DMPC   C31  748   2.279   0.631   4.840
    7DMPC   O32  749   2.211   0.732   4.832
    7DMPC   C32  750   2.432   0.628   4.843
    7DMPC   H2X  751   2.469   0.539   4.788
    7DMPC   H2Y  752   2.463   0.618   4.949
    7DMPC   C23  753   2.017   0.313   4.350
    7DMPC   H3R  754   1.991   0.421   4.345
    7DMPC   H3S  755   1.923   0.254   4.348
    7DMPC   C24  756   2.101   0.279   4.225
    7DMPC   H4R  757   2.136   0.174   4.232
    7DMPC   H4S  758   2.190   0.346   4.223
    7DMPC   C25  759   2.023   0.297   4.093
    7DMPC   H5R  760   1.972   0.396   4.096
    7DMPC   H5S  761   1.945   0.219   4.086
    7DMPC   C26  762   2.112   0.292   3.967
    7DMPC   H6R  763   2.190   0.371   3.975
    7DMPC   H6S  764   2.047   0.316   3.880
    7DMPC   C27  765   2.181   0.157   3.944
    7DMPC   H7R  766   2.103   0.077   3.941
    7DMPC   H7S  767   2.249   0.134   4.029
    7DMPC   C28  768   2.263   0.148   3.813
    7DMPC   H8R  769   2.301   0.044   3.804
    7DMPC   H8S  770   2.351   0.216   3.820
    7DMPC   C29  771   2.182   0.185   3.688
    7DMPC   H9R  772   2.164   0.295   3.688
    7DMPC   H9S  773   2.084   0.134   3.692
    7DMPC  C210  774   2.249   0.148   3.554
    7DMPC  H10R  775   2.351   0.192   3.549
    7DMPC  H10S  776   2.188   0.193   3.473
    7DMPC  C211  777   2.256   6.327   3.527
    7DMPC  H11R  778   2.159   6.280   3.556
    7DMPC  H11S  779   2.336   6.282   3.590
    7DMPC  C212  780   2.283   6.295   3.379
    7DMPC  H12R  781   2.376   0.016   3.347
    7DMPC  H12S  782   2.199   0.005   3.319
    7DMPC  C213  783   2.296   6.145   3.349
    7DMPC  H13R  784   2.204   6.093   3.384
    7DMPC  H13S  785   2.382   6.105   3.408
    7DMPC  C214  786   2.319   6.114   3.201
    7DMPC  H14R  787   2.232   6.148   3.141
    7DMPC  H14S  788   2.331   6.005   3.186
    7DMPC  H14T  789   2.410   6.165   3.164
    7DMPC   C33  790   2.490   0.757   4.785
    7DMPC   H3X  791   2.600   0.758   4.804
    7DMPC   H3Y  792   2.448   0.845   4.838
    7DMPC   C34  793   2.470   0.775   4.633
    7DMPC   H4X  794   2.507   0.875   4.604
    7DMPC   H4Y  795   2.361   0.772   4.609
    7DMPC   C35  796   2.543   0.670   4.548
    7DMPC   H5X  797   2.507   0.568   4.574
    7DMPC   H5Y  798   2.651   0.676   4.571
    7DMPC   C36  799   2.525   0.691   4.397
    7DMPC   H6X  800   2.551   0.797   4.373
    7DMPC   H6Y  801   2.418   0.676   4.369
    7DMPC   C37  802   2.614   0.601   4.311
    7DMPC   H7X  803   2.720   0.612   4.345
    7DMPC   H7Y  804   2.608   0.636   4.206
    7DMPC   C38  805   2.577   0.451   4.313
    7DMPC   H8X  806   2.477   0.438   4.267
    7DMPC   H8Y  807   2.571   0.417   4.419
    7DMPC   C39  808   2.680   0.362   4.241
    7DMPC   H9X  809   2.648   0.255   4.252
    7DMPC   H9Y  810   2.778   0.373   4.293
    7DMPC  C310  811   2.699   0.393   4.092
    7DMPC  H10X  812   2.725   0.500   4.080
    7DMPC  H10Y  813   2.603   0.374   4.038
    7DMPC  C311  814   2.811   0.310   4.028
    7DMPC  H11X  815   2.786   0.202   4.033
    7DMPC  H11Y  816   2.903   0.327   4.088
    7DMPC  C312  817   2.843   0.349   3.882
    7DMPC  H12X  818   2.940   0.302   3.854
    7DMPC  H12Y  819   2.856   0.459   3.877
    7DMPC  C313  820   2.737   0.305   3.781
    7DMPC  H13X  821   2.639   0.347   3.810
    7DMPC  H13Y  822   2.728   0.194   3.785
    7DMPC  C314  823   2.768   0.346   3.637
    7DMPC  H14X  824   2.686   0.313   3.569
    7DMPC  H14Y  825   2.863   0.300   3.603
    7DMPC  H14Z  826   2.777   0.457   3.629
    8DMPC     N  827   0.931   2.655   5.109
    8DMPC   C13  828   0.938   2.768   5.207
    8DMPC  H13A  829   0.937   2.728   5.307
    8DMPC  H13B  830   0.851   2.832   5.194
    8DMPC  H13C  831   1.029   2.824   5.190
    8DMPC   C14  832   0.804   2.582   5.133
    8DMPC  H14A  833   0.720   2.648   5.121
    8DMPC  H14B  834   0.804   2.541   5.233
    8DMPC  H14C  835   0.795   2.499   5.063
    8DMPC   C15  836   0.929   2.713   4.972
    8DMPC  H15A  837   0.847   2.782   4.962
    8DMPC  H15B  838   0.920   2.633   4.900
    8DMPC  H15C  839   1.023   2.765   4.955
    8DMPC   C12  840   1.050   2.566   5.129
    8DMPC  H12A  841   1.056   2.541   5.234
    8DMPC  H12B  842   1.138   2.624   5.104
    8DMPC   C11  843   1.057   2.434   5.049
    8DMPC  H11A  844   0.978   2.364   5.087
    8DMPC  H11B  845   1.157   2.389   5.071
    8DMPC     P  846   1.069   2.341   4.813
    8DMPC   O13  847   0.986   2.362   4.691
    8DMPC   O14  848   1.052   2.211   4.882
    8DMPC   O11  849   1.221   2.358   4.776
    8DMPC   O12  850   1.040   2.459   4.911
    8DMPC    C1  851   1.294   2.480   4.796
    8DMPC    HA  852   1.402   2.456   4.783
    8DMPC    HB  853   1.283   2.518   4.900
    8DMPC    C2  854   1.260   2.594   4.695
    8DMPC    HS  855   1.170   2.644   4.738
    8DMPC   O21  856   1.232   2.537   4.566
    8DMPC   C21  857   1.162   2.619   4.491
    8DMPC   O22  858   1.113   2.724   4.529
    8DMPC   C22  859   1.163   2.569   4.346
    8DMPC   H2R  860   1.110   2.472   4.340
    8DMPC   H2S  861   1.269   2.554   4.315
    8DMPC    C3  862   1.376   2.699   4.685
    8DMPC    HX  863   1.399   2.735   4.787
    8DMPC    HY  864   1.338   2.785   4.625
    8DMPC   O31  865   1.495   2.640   4.626
    8DMPC   C31  866   1.581   2.729   4.577
    8DMPC   O32  867   1.569   2.850   4.585
    8DMPC   C32  868   1.697   2.657   4.507
    8DMPC   H2X  869   1.695   2.548   4.528
    8DMPC   H2Y  870   1.792   2.698   4.549
    8DMPC   C23  871   1.097   2.673   4.254
    8DMPC   H3R  872   1.122   2.777   4.288
    8DMPC   H3S  873   0.987   2.661   4.259
    8DMPC   C24  874   1.144   2.665   4.108
    8DMPC   H4R  875   1.126   2.563   4.069
    8DMPC   H4S  876   1.254   2.684   4.105
    8DMPC   C25  877   1.073   2.766   4.018
    8DMPC   H5R  878   1.083   2.868   4.063
    8DMPC   H5S  879   0.965   2.741   4.015
    8DMPC   C26  880   1.130   2.770   3.875
    8DMPC   H6R  881   1.237   2.798   3.881
    8DMPC   H6S  882   1.123   2.669   3.830
    8DMPC   C27  883   1.059   2.871   3.783
    8DMPC   H7R  884   1.110   2.869   3.684
    8DMPC   H7S  885   1.069   2.973   3.825
    8DMPC   C28  886   0.909   2.841   3.761
    8DMPC   H8R  887   0.854   2.854   3.856
    8DMPC   H8S  888   0.899   2.735   3.730
    8DMPC   C29  889   0.846   2.932   3.654
    8DMPC   H9R  890   0.904   2.921   3.560
    8DMPC   H9S  891   0.855   3.038   3.688
    8DMPC  C210  892   0.698   2.903   3.625
    8DMPC  H10R  893   0.661   2.978   3.552
    8DMPC  H10S  894   0.640   2.915   3.719
    8DMPC  C211  895   0.671   2.763   3.569
    8DMPC  H11R  896   0.698   2.686   3.645
    8DMPC  H11S  897   0.734   2.747   3.479
    8DMPC  C212  898   0.524   2.740   3.529
    8DMPC  H12R  899   0.495   2.815   3.451
    8DMPC  H12S  900   0.459   2.756   3.618
    8DMPC  C213  901   0.498   2.599   3.474
    8DMPC  H13R  902   0.523   2.525   3.553
    8DMPC  H13S  903   0.568   2.581   3.389
    8DMPC  C214  904   0.355   2.574   3.426
    8DMPC  H14R  905   0.344   2.470   3.389
    8DMPC  H14S  906   0.330   2.644   3.343
    8DMPC  H14T  907   0.283   2.590   3.509
    8DMPC   C33  908   1.694   2.683   4.356
    8DMPC   H3X  909   1.791   2.650   4.313
    8DMPC   H3Y  910   1.685   2.792   4.336
    8DMPC   C34  911   1.581   2.608   4.282
    8DMPC   H4X  912   1.485   2.630   4.333
    8DMPC   H4Y  913   1.599   2.498   4.289
    8DMPC   C35  914   1.566   2.649   4.134
    8DMPC   H5X  915   1.555   2.759   4.131
    8DMPC   H5Y  916   1.472   2.604   4.094
    8DMPC   C36  917   1.682   2.606   4.043
    8DMPC   H6X  918   1.682   2.495   4.036
    8DMPC   H6Y  919   1.778   2.638   4.088
    8DMPC   C37  920   1.676   2.665   3.900
    8DMPC   H7X  921   1.584   2.630   3.849
    8DMPC   H7Y  922   1.763   2.626   3.844
    8DMPC   C38  923   1.681   2.819   3.897
    8DMPC   H8X  924   1.757   2.853   3.971
    8DMPC   H8Y  925   1.582   2.860   3.928
    8DMPC   C39  926   1.721   2.878   3.761
    8DMPC   H9X  927   1.823   2.842   3.735
    8DMPC   H9Y  928   1.727   2.989   3.772
    8DMPC  C310  929   1.627   2.847   3.643
    8DMPC  H10X  930   1.628   2.738   3.623
    8DMPC  H10Y  931   1.668   2.899   3.553
    8DMPC  C311  932   1.482   2.894   3.664
    8DMPC  H11X  933   1.483   2.994   3.712
    8DMPC  H11Y  934   1.430   2.824   3.732
    8DMPC  C312  935   1.402   2.907   3.533
    8DMPC  H12X  936   1.446   2.989   3.472
    8DMPC  H12Y  937   1.298   2.936   3.558
    8DMPC  C313  938   1.399   2.780   3.446
    8DMPC  H13X  939   1.358   2.696   3.507
    8DMPC  H13Y  940   1.503   2.753   3.418
    8DMPC  C314  941   1.317   2.794   3.318
    8DMPC  H14X  942   1.324   2.702   3.257
    8DMPC  H14Y  943   1.354   2.879   3.258
    8DMPC  H14Z  944   1.210   2.812   3.343
    9DMPC     N  945   4.140   2.709   4.765
    9DMPC   C13  946   4.263   2.789   4.743
    9DMPC  H13A  947   4.253   2.887   4.789
    9DMPC  H13B  948   4.278   2.803   4.636
    9DMPC  H13C  949   4.349   2.740   4.786
    9DMPC   C14  950   4.124   2.688   4.912
    9DMPC  H14A  951   4.207   2.631   4.950
    9DMPC  H14B  952   4.032   2.635   4.931
    9DMPC  H14C  953   4.121   2.783   4.962
    9DMPC   C15  954   4.023   2.786   4.714
    9DMPC  H15A  955   3.933   2.727   4.726
    9DMPC  H15B  956   4.038   2.809   4.610
    9DMPC  H15C  957   4.013   2.878   4.769
    9DMPC   C12  958   4.155   2.578   4.692
    9DMPC  H12A  959   4.257   2.544   4.709
    9DMPC  H12B  960   4.145   2.598   4.586
    9DMPC   C11  961   4.061   2.462   4.730
    9DMPC  H11A  962   4.092   2.428   4.832
    9DMPC  H11B  963   4.080   2.377   4.660
    9DMPC     P  964   3.826   2.456   4.832
    9DMPC   O13  965   3.810   2.568   4.928
    9DMPC   O14  966   3.872   2.327   4.890
    9DMPC   O11  967   3.691   2.434   4.755
    9DMPC   O12  968   3.925   2.502   4.719
    9DMPC    C1  969   3.666   2.321   4.671
    9DMPC    HA  970   3.557   2.318   4.650
    9DMPC    HB  971   3.691   2.225   4.722
    9DMPC    C2  972   3.738   2.325   4.532
    9DMPC    HS  973   3.840   2.284   4.550
    9DMPC   O21  974   3.743   2.462   4.486
    9DMPC   C21  975   3.845   2.485   4.406
    9DMPC   O22  976   3.924   2.400   4.369
    9DMPC   C22  977   3.849   2.633   4.371
    9DMPC   H2R  978   3.827   2.692   4.463
    9DMPC   H2S  979   3.771   2.655   4.295
    9DMPC    C3  980   3.666   2.233   4.428
    9DMPC    HX  981   3.665   2.131   4.472
    9DMPC    HY  982   3.725   2.232   4.334
    9DMPC   O31  983   3.530   2.277   4.402
    9DMPC   C31  984   3.464   2.198   4.318
    9DMPC   O32  985   3.513   2.099   4.264
    9DMPC   C32  986   3.320   2.246   4.302
    9DMPC   H2X  987   3.307   2.345   4.349
    9DMPC   H2Y  988   3.254   2.173   4.353
    9DMPC   C23  989   3.987   2.673   4.318
    9DMPC   H3R  990   4.067   2.632   4.383
    9DMPC   H3S  991   3.995   2.784   4.324
    9DMPC   C24  992   4.013   2.634   4.171
    9DMPC   H4R  993   3.938   2.685   4.106
    9DMPC   H4S  994   3.998   2.524   4.160
    9DMPC   C25  995   4.154   2.670   4.125
    9DMPC   H5R  996   4.228   2.616   4.188
    9DMPC   H5S  997   4.169   2.779   4.141
    9DMPC   C26  998   4.183   2.639   3.977
    9DMPC   H6R  999   4.290   2.664   3.957
    9DMPC   H6S 1000   4.120   2.704   3.913
    9DMPC   C27 1001   4.158   2.492   3.937
    9DMPC   H7R 1002   4.049   2.471   3.939
    9DMPC   H7S 1003   4.208   2.426   4.011
    9DMPC   C28 1004   4.213   2.456   3.797
    9DMPC   H8R 1005   4.192   2.349   3.778
    9DMPC   H8S 1006   4.323   2.470   3.797
    9DMPC   C29 1007   4.152   2.539   3.683
    9DMPC   H9R 1008   4.173   2.647   3.700
    9DMPC   H9S 1009   4.042   2.525   3.682
    9DMPC  C210 1010   4.208   2.502   3.545
    9DMPC  H10R 1011   4.186   2.394   3.526
    9DMPC  H10S 1012   4.319   2.515   3.547
    9DMPC  C211 1013   4.150   2.587   3.431
    9DMPC  H11R 1014   4.157   2.694   3.462
    9DMPC  H11S 1015   4.042   2.562   3.420
    9DMPC  C212 1016   4.221   2.573   3.295
    9DMPC  H12R 1017   4.327   2.603   3.305
    9DMPC  H12S 1018   4.172   2.646   3.226
    9DMPC  C213 1019   4.213   2.434   3.229
    9DMPC  H13R 1020   4.221   2.450   3.119
    9DMPC  H13S 1021   4.113   2.389   3.249
    9DMPC  C214 1022   4.324   2.336   3.268
    9DMPC  H14R 1023   4.424   2.381   3.250
    9DMPC  H14S 1024   4.316   2.243   3.208
    9DMPC  H14T 1025   4.317   2.308   3.375
    9DMPC   C33 1026   3.281   2.253   4.153
    9DMPC   H3X 1027   3.308   2.158   4.102
    9DMPC   H3Y 1028   3.337   2.335   4.103
    9DMPC   C34 1029   3.130   2.274   4.134
    9DMPC   H4X 1030   3.099   2.369   4.182
    9DMPC   H4Y 1031   3.078   2.191   4.186
    9DMPC   C35 1032   3.084   2.274   3.987
    9DMPC   H5X 1033   2.976   2.248   3.986
    9DMPC   H5Y 1034   3.138   2.194   3.931
    9DMPC   C36 1035   3.099   2.408   3.914
    9DMPC   H6X 1036   3.207   2.437   3.908
    9DMPC   H6Y 1037   3.046   2.486   3.974
    9DMPC   C37 1038   3.038   2.406   3.773
    9DMPC   H7X 1039   2.937   2.360   3.780
    9DMPC   H7Y 1040   3.101   2.342   3.707
    9DMPC   C38 1041   3.021   2.545   3.710
    9DMPC   H8X 1042   3.121   2.593   3.695
    9DMPC   H8Y 1043   2.963   2.609   3.780
    9DMPC   C39 1044   2.946   2.540   3.576
    9DMPC   H9X 1045   2.854   2.479   3.590
    9DMPC   H9Y 1046   3.010   2.489   3.500
    9DMPC  C310 1047   2.904   2.678   3.523
    9DMPC  H10X 1048   2.994   2.740   3.503
    9DMPC  H10Y 1049   2.845   2.728   3.603
    9DMPC  C311 1050   2.819   2.669   3.395
    9DMPC  H11X 1051   2.734   2.599   3.413
    9DMPC  H11Y 1052   2.882   2.626   3.314
    9DMPC  C312 1053   2.763   2.804   3.347
    9DMPC  H12X 1054   2.709   2.787   3.251
    9DMPC  H12Y 1055   2.848   2.873   3.326
    9DMPC  C313 1056   2.665   2.874   3.444
    9DMPC  H13X 1057   2.630   2.968   3.396
    9DMPC  H13Y 1058   2.721   2.903   3.536
    9DMPC  C314 1059   2.543   2.792   3.484
    9DMPC  H14X 1060   2.486   2.761   3.394
    9DMPC  H14Y 1061   2.476   2.852   3.549
    9DMPC  H14Z 1062   2.573   2.700   3.539
   10DMPC     N 1063   2.661   3.896   5.323
   10DMPC   C13 1064   2.520   3.926   5.289
   10DMPC  H13A 1065   2.459   3.919   5.378
   10DMPC  H13B 1066   2.485   3.853   5.216
   10DMPC  H13C 1067   2.513   4.025   5.247
   10DMPC   C14 1068   2.711   4.000   5.418
   10DMPC  H14A 1069   2.813   3.978   5.445
   10DMPC  H14B 1070   2.649   4.000   5.507
   10DMPC  H14C 1071   2.707   4.097   5.371
   10DMPC   C15 1072   2.667   3.764   5.391
   10DMPC  H15A 1073   2.610   3.767   5.483
   10DMPC  H15B 1074   2.770   3.740   5.414
   10DMPC  H15C 1075   2.627   3.687   5.326
   10DMPC   C12 1076   2.749   3.892   5.201
   10DMPC  H12A 1077   2.742   3.792   5.160
   10DMPC  H12B 1078   2.851   3.906   5.234
   10DMPC   C11 1079   2.722   3.990   5.085
   10DMPC  H11A 1080   2.630   3.958   5.031
   10DMPC  H11B 1081   2.809   3.980   5.016
   10DMPC     P 1082   2.705   4.237   5.024
   10DMPC   O13 1083   2.835   4.307   5.027
   10DMPC   O14 1084   2.583   4.320   5.045
   10DMPC   O11 1085   2.691   4.160   4.885
   10DMPC   O12 1086   2.707   4.123   5.132
   10DMPC    C1 1087   2.802   4.162   4.793
   10DMPC    HA 1088   2.892   4.111   4.836
   10DMPC    HB 1089   2.831   4.268   4.770
   10DMPC    C2 1090   2.771   4.095   4.656
   10DMPC    HS 1091   2.852   4.123   4.585
   10DMPC   O21 1092   2.641   4.134   4.607
   10DMPC   C21 1093   2.642   4.256   4.556
   10DMPC   O22 1094   2.742   4.325   4.541
   10DMPC   C22 1095   2.501   4.296   4.513
   10DMPC   H2R 1096   2.501   4.402   4.481
   10DMPC   H2S 1097   2.436   4.288   4.603
   10DMPC    C3 1098   2.775   3.939   4.665
   10DMPC    HX 1099   2.694   3.908   4.734
   10DMPC    HY 1100   2.871   3.905   4.709
   10DMPC   O31 1101   2.751   3.878   4.536
   10DMPC   C31 1102   2.856   3.881   4.454
   10DMPC   O32 1103   2.969   3.913   4.487
   10DMPC   C32 1104   2.808   3.851   4.312
   10DMPC   H2X 1105   2.716   3.909   4.292
   10DMPC   H2Y 1106   2.784   3.743   4.304
   10DMPC   C23 1107   2.446   4.205   4.402
   10DMPC   H3R 1108   2.335   4.202   4.415
   10DMPC   H3S 1109   2.482   4.100   4.413
   10DMPC   C24 1110   2.471   4.255   4.259
   10DMPC   H4R 1111   2.433   4.359   4.250
   10DMPC   H4S 1112   2.413   4.191   4.189
   10DMPC   C25 1113   2.618   4.252   4.213
   10DMPC   H5R 1114   2.658   4.149   4.224
   10DMPC   H5S 1115   2.678   4.319   4.278
   10DMPC   C26 1116   2.635   4.297   4.068
   10DMPC   H6R 1117   2.594   4.400   4.058
   10DMPC   H6S 1118   2.575   4.230   4.002
   10DMPC   C27 1119   2.780   4.298   4.019
   10DMPC   H7R 1120   2.822   4.195   4.029
   10DMPC   H7S 1121   2.840   4.366   4.083
   10DMPC   C28 1122   2.793   4.342   3.872
   10DMPC   H8R 1123   2.748   4.443   3.861
   10DMPC   H8S 1124   2.736   4.271   3.808
   10DMPC   C29 1125   2.939   4.346   3.824
   10DMPC   H9R 1126   2.985   4.247   3.847
   10DMPC   H9S 1127   2.995   4.423   3.881
   10DMPC  C210 1128   2.956   4.371   3.673
   10DMPC  H10R 1129   2.906   4.288   3.619
   10DMPC  H10S 1130   3.064   4.366   3.649
   10DMPC  C211 1131   2.899   4.503   3.620
   10DMPC  H11R 1132   2.788   4.503   3.630
   10DMPC  H11S 1133   2.922   4.508   3.511
   10DMPC  C212 1134   2.956   4.629   3.687
   10DMPC  H12R 1135   3.066   4.617   3.698
   10DMPC  H12S 1136   2.913   4.639   3.789
   10DMPC  C213 1137   2.930   4.758   3.608
   10DMPC  H13R 1138   2.981   4.751   3.510
   10DMPC  H13S 1139   2.976   4.843   3.664
   10DMPC  C214 1140   2.782   4.791   3.584
   10DMPC  H14R 1141   2.734   4.712   3.522
   10DMPC  H14S 1142   2.773   4.888   3.530
   10DMPC  H14T 1143   2.727   4.799   3.680
   10DMPC   C33 1144   2.915   3.889   4.208
   10DMPC   H3X 1145   3.007   3.830   4.225
   10DMPC   H3Y 1146   2.941   3.997   4.220
   10DMPC   C34 1147   2.867   3.867   4.064
   10DMPC   H4X 1148   2.775   3.927   4.046
   10DMPC   H4Y 1149   2.840   3.759   4.052
   10DMPC   C35 1150   2.973   3.903   3.958
   10DMPC   H5X 1151   3.068   3.851   3.983
   10DMPC   H5Y 1152   2.992   4.013   3.964
   10DMPC   C36 1153   2.936   3.866   3.814
   10DMPC   H6X 1154   2.932   3.756   3.804
   10DMPC   H6Y 1155   3.017   3.904   3.747
   10DMPC   C37 1156   2.801   3.924   3.766
   10DMPC   H7X 1157   2.798   4.033   3.787
   10DMPC   H7Y 1158   2.719   3.875   3.825
   10DMPC   C38 1159   2.772   3.901   3.617
   10DMPC   H8X 1160   2.666   3.927   3.598
   10DMPC   H8Y 1161   2.786   3.793   3.592
   10DMPC   C39 1162   2.860   3.986   3.523
   10DMPC   H9X 1163   2.965   3.950   3.529
   10DMPC   H9Y 1164   2.857   4.091   3.559
   10DMPC  C310 1165   2.814   3.983   3.376
   10DMPC  H10X 1166   2.711   4.025   3.369
   10DMPC  H10Y 1167   2.810   3.877   3.343
   10DMPC  C311 1168   2.907   4.061   3.282
   10DMPC  H11X 1169   2.884   4.033   3.177
   10DMPC  H11Y 1170   3.012   4.030   3.303
   10DMPC  C312 1171   2.896   4.214   3.295
   10DMPC  H12X 1172   2.889   4.241   3.403
   10DMPC  H12Y 1173   2.802   4.247   3.246
   10DMPC  C313 1174   3.016   4.291   3.236
   10DMPC  H13X 1175   3.105   4.267   3.297
   10DMPC  H13Y 1176   2.996   4.400   3.247
   10DMPC  C314 1177   3.047   4.261   3.090
   10DMPC  H14X 1178   3.134   4.321   3.056
   10DMPC  H14Y 1179   2.960   4.285   3.025
   10DMPC  H14Z 1180   3.072   4.153   3.076
   11DMPC     N 1181   2.832   4.705   4.556
   11DMPC   C13 1182   2.823   4.601   4.450
   11DMPC  H13A 1183   2.902   4.615   4.379
   11DMPC  H13B 1184   2.727   4.608   4.402
   11DMPC  H13C 1185   2.832   4.502   4.496
   11DMPC   C14 1186   2.727   4.677   4.659
   11DMPC  H14A 1187   2.734   4.750   4.738
   11DMPC  H14B 1188   2.743   4.579   4.702
   11DMPC  H14C 1189   2.629   4.682   4.613
   11DMPC   C15 1190   2.965   4.696   4.620
   11DMPC  H15A 1191   2.974   4.602   4.673
   11DMPC  H15B 1192   2.977   4.777   4.690
   11DMPC  H15C 1193   3.044   4.702   4.546
   11DMPC   C12 1194   2.809   4.840   4.493
   11DMPC  H12A 1195   2.719   4.833   4.434
   11DMPC  H12B 1196   2.892   4.859   4.426
   11DMPC   C11 1197   2.794   4.962   4.587
   11DMPC  H11A 1198   2.698   4.951   4.644
   11DMPC  H11B 1199   2.784   5.051   4.520
   11DMPC     P 1200   2.900   5.094   4.772
   11DMPC   O13 1201   3.034   5.115   4.833
   11DMPC   O14 1202   2.790   5.070   4.868
   11DMPC   O11 1203   2.865   5.215   4.677
   11DMPC   O12 1204   2.906   4.973   4.673
   11DMPC    C1 1205   2.810   5.338   4.725
   11DMPC    HA 1206   2.844   5.418   4.656
   11DMPC    HB 1207   2.849   5.365   4.826
   11DMPC    C2 1208   2.654   5.341   4.728
   11DMPC    HS 1209   2.624   5.282   4.818
   11DMPC   O21 1210   2.603   5.279   4.607
   11DMPC   C21 1211   2.477   5.242   4.620
   11DMPC   O22 1212   2.409   5.258   4.720
   11DMPC   C22 1213   2.429   5.169   4.494
   11DMPC   H2R 1214   2.327   5.131   4.515
   11DMPC   H2S 1215   2.496   5.083   4.474
   11DMPC    C3 1216   2.604   5.489   4.747
   11DMPC    HX 1217   2.638   5.519   4.848
   11DMPC    HY 1218   2.493   5.494   4.749
   11DMPC   O31 1219   2.664   5.581   4.653
   11DMPC   C31 1220   2.593   5.601   4.542
   11DMPC   O32 1221   2.487   5.548   4.516
   11DMPC   C32 1222   2.668   5.696   4.449
   11DMPC   H2X 1223   2.702   5.784   4.507
   11DMPC   H2Y 1224   2.600   5.730   4.369
   11DMPC   C23 1225   2.424   5.263   4.373
   11DMPC   H3R 1226   2.527   5.285   4.339
   11DMPC   H3S 1227   2.376   5.359   4.402
   11DMPC   C24 1228   2.342   5.209   4.253
   11DMPC   H4R 1229   2.350   5.284   4.171
   11DMPC   H4S 1230   2.235   5.202   4.282
   11DMPC   C25 1231   2.391   5.073   4.201
   11DMPC   H5R 1232   2.360   4.994   4.272
   11DMPC   H5S 1233   2.502   5.074   4.197
   11DMPC   C26 1234   2.339   5.039   4.060
   11DMPC   H6R 1235   2.379   4.938   4.033
   11DMPC   H6S 1236   2.380   5.112   3.987
   11DMPC   C27 1237   2.186   5.036   4.046
   11DMPC   H7R 1238   2.145   5.139   4.056
   11DMPC   H7S 1239   2.144   4.974   4.128
   11DMPC   C28 1240   2.141   4.976   3.912
   11DMPC   H8R 1241   2.186   4.875   3.903
   11DMPC   H8S 1242   2.181   5.037   3.828
   11DMPC   C29 1243   1.988   4.962   3.896
   11DMPC   H9R 1244   1.946   5.060   3.867
   11DMPC   H9S 1245   1.944   4.933   3.994
   11DMPC  C210 1246   1.951   4.854   3.793
   11DMPC  H10R 1247   1.982   4.756   3.835
   11DMPC  H10S 1248   2.009   4.870   3.699
   11DMPC  C211 1249   1.801   4.846   3.759
   11DMPC  H11R 1250   1.741   4.850   3.852
   11DMPC  H11S 1251   1.784   4.747   3.712
   11DMPC  C212 1252   1.755   4.955   3.661
   11DMPC  H12R 1253   1.821   4.952   3.571
   11DMPC  H12S 1254   1.768   5.055   3.710
   11DMPC  C213 1255   1.609   4.942   3.614
   11DMPC  H13R 1256   1.588   5.027   3.545
   11DMPC  H13S 1257   1.542   4.954   3.703
   11DMPC  C214 1258   1.575   4.811   3.543
   11DMPC  H14R 1259   1.643   4.795   3.457
   11DMPC  H14S 1260   1.470   4.814   3.505
   11DMPC  H14T 1261   1.584   4.725   3.612
   11DMPC   C33 1262   2.790   5.624   4.389
   11DMPC   H3X 1263   2.855   5.586   4.471
   11DMPC   H3Y 1264   2.849   5.699   4.332
   11DMPC   C34 1265   2.753   5.508   4.296
   11DMPC   H4X 1266   2.697   5.548   4.208
   11DMPC   H4Y 1267   2.685   5.438   4.350
   11DMPC   C35 1268   2.873   5.425   4.247
   11DMPC   H5X 1269   2.835   5.339   4.188
   11DMPC   H5Y 1270   2.926   5.385   4.336
   11DMPC   C36 1271   2.972   5.505   4.162
   11DMPC   H6X 1272   3.005   5.596   4.218
   11DMPC   H6Y 1273   2.921   5.539   4.069
   11DMPC   C37 1274   3.098   5.427   4.124
   11DMPC   H7X 1275   3.153   5.401   4.218
   11DMPC   H7Y 1276   3.164   5.493   4.065
   11DMPC   C38 1277   3.075   5.297   4.045
   11DMPC   H8X 1278   3.018   5.225   4.107
   11DMPC   H8Y 1279   3.175   5.253   4.026
   11DMPC   C39 1280   3.004   5.314   3.909
   11DMPC   H9X 1281   2.899   5.346   3.926
   11DMPC   H9Y 1282   3.002   5.215   3.860
   11DMPC  C310 1283   3.073   5.416   3.816
   11DMPC  H10X 1284   3.182   5.393   3.813
   11DMPC  H10Y 1285   3.061   5.517   3.860
   11DMPC  C311 1286   3.020   5.420   3.672
   11DMPC  H11X 1287   3.053   5.518   3.630
   11DMPC  H11Y 1288   2.909   5.420   3.671
   11DMPC  C312 1289   3.076   5.311   3.579
   11DMPC  H12X 1290   3.177   5.281   3.614
   11DMPC  H12Y 1291   3.088   5.356   3.477
   11DMPC  C313 1292   2.987   5.187   3.563
   11DMPC  H13X 1293   2.889   5.219   3.523
   11DMPC  H13Y 1294   2.970   5.140   3.662
   11DMPC  C314 1295   3.047   5.082   3.468
   11DMPC  H14X 1296   3.071   5.128   3.370
   11DMPC  H14Y 1297   2.974   5.000   3.452
   11DMPC  H14Z 1298   3.140   5.039   3.511
   12DMPC     N 1299   3.516   0.529   5.087
   12DMPC   C13 1300   3.537   0.570   5.228
   12DMPC  H13A 1301   3.475   0.656   5.251
   12DMPC  H13B 1302   3.642   0.596   5.242
   12DMPC  H13C 1303   3.512   0.488   5.294
   12DMPC   C14 1304   3.556   0.642   4.999
   12DMPC  H14A 1305   3.548   0.612   4.895
   12DMPC  H14B 1306   3.657   0.671   5.020
   12DMPC  H14C 1307   3.490   0.726   5.016
   12DMPC   C15 1308   3.604   0.412   5.059
   12DMPC  H15A 1309   3.587   0.378   4.957
   12DMPC  H15B 1310   3.580   0.331   5.126
   12DMPC  H15C 1311   3.707   0.441   5.071
   12DMPC   C12 1312   3.372   0.491   5.063
   12DMPC  H12A 1313   3.357   0.391   5.103
   12DMPC  H12B 1314   3.358   0.485   4.956
   12DMPC   C11 1315   3.260   0.581   5.122
   12DMPC  H11A 1316   3.249   0.556   5.230
   12DMPC  H11B 1317   3.166   0.553   5.069
   12DMPC     P 1318   3.175   0.820   5.130
   12DMPC   O13 1319   3.235   0.947   5.179
   12DMPC   O14 1320   3.068   0.761   5.214
   12DMPC   O11 1321   3.119   0.842   4.985
   12DMPC   O12 1322   3.292   0.718   5.107
   12DMPC    C1 1323   3.194   0.907   4.881
   12DMPC    HA 1324   3.184   0.848   4.788
   12DMPC    HB 1325   3.303   0.913   4.904
   12DMPC    C2 1326   3.141   1.051   4.853
   12DMPC    HS 1327   3.151   1.107   4.949
   12DMPC   O21 1328   3.002   1.040   4.815
   12DMPC   C21 1329   2.939   1.155   4.819
   12DMPC   O22 1330   2.987   1.260   4.858
   12DMPC   C22 1331   2.796   1.139   4.766
   12DMPC   H2R 1332   2.739   1.228   4.798
   12DMPC   H2S 1333   2.749   1.049   4.810
   12DMPC    C3 1334   3.227   1.124   4.745
   12DMPC    HX 1335   3.332   1.123   4.784
   12DMPC    HY 1336   3.196   1.230   4.738
   12DMPC   O31 1337   3.215   1.064   4.613
   12DMPC   C31 1338   3.327   1.036   4.548
   12DMPC   O32 1339   3.440   1.053   4.592
   12DMPC   C32 1340   3.294   0.981   4.409
   12DMPC   H2X 1341   3.185   0.986   4.392
   12DMPC   H2Y 1342   3.327   0.875   4.403
   12DMPC   C23 1343   2.797   1.132   4.612
   12DMPC   H3R 1344   2.871   1.204   4.572
   12DMPC   H3S 1345   2.697   1.164   4.575
   12DMPC   C24 1346   2.824   0.991   4.556
   12DMPC   H4R 1347   2.734   0.928   4.572
   12DMPC   H4S 1348   2.907   0.945   4.612
   12DMPC   C25 1349   2.864   0.988   4.407
   12DMPC   H5R 1350   2.883   0.882   4.381
   12DMPC   H5S 1351   2.959   1.043   4.394
   12DMPC   C26 1352   2.760   1.046   4.309
   12DMPC   H6R 1353   2.757   1.156   4.321
   12DMPC   H6S 1354   2.659   1.007   4.335
   12DMPC   C27 1355   2.791   1.012   4.162
   12DMPC   H7R 1356   2.899   1.031   4.144
   12DMPC   H7S 1357   2.732   1.079   4.096
   12DMPC   C28 1358   2.757   0.866   4.126
   12DMPC   H8R 1359   2.647   0.855   4.120
   12DMPC   H8S 1360   2.793   0.800   4.207
   12DMPC   C29 1361   2.821   0.814   3.996
   12DMPC   H9R 1362   2.797   0.706   3.987
   12DMPC   H9S 1363   2.932   0.823   4.004
   12DMPC  C210 1364   2.775   0.884   3.867
   12DMPC  H10R 1365   2.813   0.989   3.866
   12DMPC  H10S 1366   2.664   0.887   3.865
   12DMPC  C211 1367   2.826   0.810   3.742
   12DMPC  H11R 1368   2.781   0.708   3.741
   12DMPC  H11S 1369   2.936   0.799   3.749
   12DMPC  C212 1370   2.791   0.882   3.611
   12DMPC  H12R 1371   2.850   0.976   3.605
   12DMPC  H12S 1372   2.683   0.909   3.612
   12DMPC  C213 1373   2.818   0.798   3.484
   12DMPC  H13R 1374   2.792   0.859   3.396
   12DMPC  H13S 1375   2.750   0.710   3.485
   12DMPC  C214 1376   2.962   0.749   3.468
   12DMPC  H14R 1377   2.975   0.698   3.371
   12DMPC  H14S 1378   2.989   0.677   3.549
   12DMPC  H14T 1379   3.033   0.834   3.473
   12DMPC   C33 1380   3.366   1.064   4.301
   12DMPC   H3X 1381   3.476   1.047   4.309
   12DMPC   H3Y 1382   3.347   1.172   4.317
   12DMPC   C34 1383   3.320   1.029   4.158
   12DMPC   H4X 1384   3.211   1.052   4.150
   12DMPC   H4Y 1385   3.333   0.920   4.141
   12DMPC   C35 1386   3.395   1.106   4.048
   12DMPC   H5X 1387   3.501   1.072   4.046
   12DMPC   H5Y 1388   3.394   1.214   4.074
   12DMPC   C36 1389   3.333   1.088   3.909
   12DMPC   H6X 1390   3.227   1.121   3.914
   12DMPC   H6Y 1391   3.334   0.981   3.881
   12DMPC   C37 1392   3.404   1.170   3.800
   12DMPC   H7X 1393   3.504   1.126   3.779
   12DMPC   H7Y 1394   3.420   1.273   3.839
   12DMPC   C38 1395   3.324   1.183   3.669
   12DMPC   H8X 1396   3.372   1.261   3.606
   12DMPC   H8Y 1397   3.221   1.218   3.693
   12DMPC   C39 1398   3.315   1.053   3.587
   12DMPC   H9X 1399   3.284   0.970   3.654
   12DMPC   H9Y 1400   3.416   1.028   3.547
   12DMPC  C310 1401   3.214   1.058   3.471
   12DMPC  H10X 1402   3.112   1.073   3.515
   12DMPC  H10Y 1403   3.214   0.960   3.419
   12DMPC  C311 1404   3.238   1.169   3.367
   12DMPC  H11X 1405   3.241   1.268   3.418
   12DMPC  H11Y 1406   3.151   1.171   3.298
   12DMPC  C312 1407   3.365   1.150   3.283
   12DMPC  H12X 1408   3.357   1.054   3.228
   12DMPC  H12Y 1409   3.453   1.144   3.350
   12DMPC  C313 1410   3.386   1.264   3.183
   12DMPC  H13X 1411   3.400   1.359   3.239
   12DMPC  H13Y 1412   3.295   1.275   3.121
   12DMPC  C314 1413   3.507   1.245   3.090
   12DMPC  H14X 1414   3.493   1.153   3.028
   12DMPC  H14Y 1415   3.600   1.235   3.149
   12DMPC  H14Z 1416   3.517   1.332   3.022
   13DMPC     N 1417   3.638   3.386   4.603
   13DMPC   C13 1418   3.532   3.326   4.516
   13DMPC  H13A 1419   3.554   3.345   4.413
   13DMPC  H13B 1420   3.436   3.370   4.541
   13DMPC  H13C 1421   3.528   3.219   4.534
   13DMPC   C14 1422   3.603   3.356   4.745
   13DMPC  H14A 1423   3.681   3.392   4.810
   13DMPC  H14B 1424   3.595   3.248   4.757
   13DMPC  H14C 1425   3.509   3.402   4.770
   13DMPC   C15 1426   3.767   3.320   4.571
   13DMPC  H15A 1427   3.845   3.361   4.635
   13DMPC  H15B 1428   3.793   3.336   4.468
   13DMPC  H15C 1429   3.760   3.214   4.590
   13DMPC   C12 1430   3.643   3.535   4.579
   13DMPC  H12A 1431   3.541   3.571   4.579
   13DMPC  H12B 1432   3.683   3.550   4.480
   13DMPC   C11 1433   3.724   3.623   4.678
   13DMPC  H11A 1434   3.668   3.623   4.775
   13DMPC  H11B 1435   3.723   3.727   4.640
   13DMPC     P 1436   3.922   3.573   4.830
   13DMPC   O13 1437   3.871   3.452   4.898
   13DMPC   O14 1438   3.896   3.701   4.900
   13DMPC   O11 1439   4.077   3.559   4.801
   13DMPC   O12 1440   3.859   3.578   4.687
   13DMPC    C1 1441   4.165   3.672   4.801
   13DMPC    HA 1442   4.267   3.636   4.775
   13DMPC    HB 1443   4.172   3.717   4.903
   13DMPC    C2 1444   4.130   3.785   4.698
   13DMPC    HS 1445   4.045   3.841   4.743
   13DMPC   O21 1446   4.094   3.722   4.574
   13DMPC   C21 1447   4.008   3.791   4.503
   13DMPC   O22 1448   3.962   3.900   4.533
   13DMPC   C22 1449   3.971   3.710   4.380
   13DMPC   H2R 1450   3.948   3.606   4.411
   13DMPC   H2S 1451   4.058   3.708   4.311
   13DMPC    C3 1452   4.248   3.886   4.678
   13DMPC    HX 1453   4.280   3.918   4.780
   13DMPC    HY 1454   4.209   3.974   4.624
   13DMPC   O31 1455   4.358   3.827   4.604
   13DMPC   C31 1456   4.467   3.903   4.602
   13DMPC   O32 1457   4.480   4.008   4.663
   13DMPC   C32 1458   4.573   3.845   4.509
   13DMPC   H2X 1459   4.534   3.757   4.454
   13DMPC   H2Y 1460   4.660   3.813   4.571
   13DMPC   C23 1461   3.850   3.773   4.310
   13DMPC   H3R 1462   3.877   3.875   4.275
   13DMPC   H3S 1463   3.765   3.783   4.381
   13DMPC   C24 1464   3.801   3.692   4.188
   13DMPC   H4R 1465   3.886   3.676   4.119
   13DMPC   H4S 1466   3.725   3.753   4.134
   13DMPC   C25 1467   3.739   3.557   4.226
   13DMPC   H5R 1468   3.653   3.574   4.295
   13DMPC   H5S 1469   3.814   3.495   4.279
   13DMPC   C26 1470   3.689   3.477   4.105
   13DMPC   H6R 1471   3.774   3.463   4.034
   13DMPC   H6S 1472   3.610   3.535   4.052
   13DMPC   C27 1473   3.633   3.340   4.143
   13DMPC   H7R 1474   3.542   3.353   4.207
   13DMPC   H7S 1475   3.710   3.287   4.204
   13DMPC   C28 1476   3.597   3.254   4.021
   13DMPC   H8R 1477   3.687   3.246   3.957
   13DMPC   H8S 1478   3.518   3.306   3.962
   13DMPC   C29 1479   3.548   3.112   4.054
   13DMPC   H9R 1480   3.526   3.059   3.959
   13DMPC   H9S 1481   3.452   3.120   4.111
   13DMPC  C210 1482   3.646   3.026   4.137
   13DMPC  H10R 1483   3.604   2.923   4.143
   13DMPC  H10S 1484   3.650   3.066   4.241
   13DMPC  C211 1485   3.789   3.018   4.083
   13DMPC  H11R 1486   3.848   2.952   4.150
   13DMPC  H11S 1487   3.836   3.119   4.087
   13DMPC  C212 1488   3.800   2.964   3.939
   13DMPC  H12R 1489   3.742   3.028   3.870
   13DMPC  H12S 1490   3.757   2.861   3.936
   13DMPC  C213 1491   3.945   2.958   3.889
   13DMPC  H13R 1492   4.004   2.894   3.958
   13DMPC  H13S 1493   3.988   3.061   3.894
   13DMPC  C214 1494   3.960   2.906   3.746
   13DMPC  H14R 1495   3.905   2.971   3.675
   13DMPC  H14S 1496   3.920   2.802   3.738
   13DMPC  H14T 1497   4.068   2.904   3.717
   13DMPC   C33 1498   4.620   3.954   4.411
   13DMPC   H3X 1499   4.644   4.047   4.468
   13DMPC   H3Y 1500   4.539   3.978   4.340
   13DMPC   C34 1501   4.748   3.916   4.333
   13DMPC   H4X 1502   4.829   3.897   4.407
   13DMPC   H4Y 1503   4.778   4.004   4.271
   13DMPC   C35 1504   4.735   3.794   4.241
   13DMPC   H5X 1505   4.716   3.703   4.302
   13DMPC   H5Y 1506   4.832   3.779   4.190
   13DMPC   C36 1507   4.625   3.807   4.135
   13DMPC   H6X 1508   4.637   3.903   4.080
   13DMPC   H6Y 1509   4.525   3.808   4.185
   13DMPC   C37 1510   4.627   3.691   4.033
   13DMPC   H7X 1511   4.623   3.595   4.089
   13DMPC   H7Y 1512   4.723   3.695   3.977
   13DMPC   C38 1513   4.509   3.695   3.935
   13DMPC   H8X 1514   4.512   3.790   3.877
   13DMPC   H8Y 1515   4.414   3.696   3.994
   13DMPC   C39 1516   4.504   3.576   3.839
   13DMPC   H9X 1517   4.413   3.586   3.775
   13DMPC   H9Y 1518   4.493   3.482   3.898
   13DMPC  C310 1519   4.625   3.562   3.745
   13DMPC  H10X 1520   4.604   3.479   3.674
   13DMPC  H10Y 1521   4.715   3.532   3.804
   13DMPC  C311 1522   4.657   3.689   3.664
   13DMPC  H11X 1523   4.702   3.764   3.733
   13DMPC  H11Y 1524   4.562   3.730   3.624
   13DMPC  C312 1525   4.754   3.663   3.548
   13DMPC  H12X 1526   4.702   3.601   3.472
   13DMPC  H12Y 1527   4.841   3.604   3.586
   13DMPC  C313 1528   4.807   3.791   3.481
   13DMPC  H13X 1529   4.873   3.760   3.396
   13DMPC  H13Y 1530   4.870   3.845   3.554
   13DMPC  C314 1531   4.700   3.886   3.428
   13DMPC  H14X 1532   4.638   3.926   3.511
   13DMPC  H14Y 1533   4.633   3.834   3.356
   13DMPC  H14Z 1534   4.747   3.972   3.375
   14DMPC     N 1535   1.992   5.801   5.057
   14DMPC   C13 1536   1.878   5.796   5.152
   14DMPC  H13A 1537   1.821   5.706   5.137
   14DMPC  H13B 1538   1.815   5.883   5.137
   14DMPC  H13C 1539   1.915   5.799   5.254
   14DMPC   C14 1540   2.071   5.924   5.084
   14DMPC  H14A 1541   2.112   5.920   5.184
   14DMPC  H14B 1542   2.007   6.011   5.076
   14DMPC  H14C 1543   2.152   5.931   5.013
   14DMPC   C15 1544   2.081   5.684   5.082
   14DMPC  H15A 1545   2.117   5.687   5.184
   14DMPC  H15B 1546   2.165   5.687   5.014
   14DMPC  H15C 1547   2.026   5.593   5.066
   14DMPC   C12 1548   1.943   5.805   4.915
   14DMPC  H12A 1549   2.030   5.812   4.851
   14DMPC  H12B 1550   1.887   5.897   4.903
   14DMPC   C11 1551   1.854   5.690   4.864
   14DMPC  H11A 1552   1.822   5.717   4.761
   14DMPC  H11B 1553   1.764   5.682   4.929
   14DMPC     P 1554   1.854   5.440   4.820
   14DMPC   O13 1555   1.718   5.475   4.772
   14DMPC   O14 1556   1.861   5.343   4.932
   14DMPC   O11 1557   1.938   5.386   4.698
   14DMPC   O12 1558   1.930   5.570   4.863
   14DMPC    C1 1559   2.064   5.441   4.657
   14DMPC    HA 1560   2.116   5.364   4.597
   14DMPC    HB 1561   2.129   5.463   4.745
   14DMPC    C2 1562   2.052   5.569   4.567
   14DMPC    HS 1563   2.025   5.652   4.636
   14DMPC   O21 1564   1.951   5.545   4.468
   14DMPC   C21 1565   1.893   5.657   4.427
   14DMPC   O22 1566   1.918   5.769   4.469
   14DMPC   C22 1567   1.789   5.626   4.319
   14DMPC   H2R 1568   1.696   5.682   4.345
   14DMPC   H2S 1569   1.765   5.518   4.317
   14DMPC    C3 1570   2.191   5.603   4.502
   14DMPC    HX 1571   2.228   5.509   4.457
   14DMPC    HY 1572   2.262   5.629   4.584
   14DMPC   O31 1573   2.185   5.702   4.397
   14DMPC   C31 1574   2.230   5.824   4.427
   14DMPC   O32 1575   2.280   5.857   4.533
   14DMPC   C32 1576   2.207   5.916   4.308
   14DMPC   H2X 1577   2.169   6.014   4.345
   14DMPC   H2Y 1578   2.131   5.872   4.241
   14DMPC   C23 1579   1.838   5.672   4.181
   14DMPC   H3R 1580   1.880   5.775   4.185
   14DMPC   H3S 1581   1.748   5.675   4.114
   14DMPC   C24 1582   1.938   5.576   4.116
   14DMPC   H4R 1583   1.899   5.472   4.125
   14DMPC   H4S 1584   2.035   5.580   4.171
   14DMPC   C25 1585   1.961   5.606   3.967
   14DMPC   H5R 1586   2.007   5.706   3.957
   14DMPC   H5S 1587   1.861   5.609   3.917
   14DMPC   C26 1588   2.047   5.502   3.893
   14DMPC   H6R 1589   2.045   5.528   3.784
   14DMPC   H6S 1590   2.000   5.401   3.903
   14DMPC   C27 1591   2.193   5.495   3.938
   14DMPC   H7R 1592   2.199   5.455   4.041
   14DMPC   H7S 1593   2.234   5.598   3.939
   14DMPC   C28 1594   2.279   5.408   3.844
   14DMPC   H8R 1595   2.266   5.444   3.740
   14DMPC   H8S 1596   2.240   5.303   3.849
   14DMPC   C29 1597   2.429   5.406   3.876
   14DMPC   H9R 1598   2.477   5.332   3.808
   14DMPC   H9S 1599   2.445   5.371   3.980
   14DMPC  C210 1600   2.500   5.541   3.856
   14DMPC  H10R 1601   2.460   5.614   3.930
   14DMPC  H10S 1602   2.476   5.578   3.754
   14DMPC  C211 1603   2.653   5.532   3.872
   14DMPC  H11R 1604   2.694   5.470   3.790
   14DMPC  H11S 1605   2.674   5.480   3.968
   14DMPC  C212 1606   2.726   5.668   3.875
   14DMPC  H12R 1607   2.833   5.645   3.897
   14DMPC  H12S 1608   2.688   5.730   3.959
   14DMPC  C213 1609   2.723   5.749   3.744
   14DMPC  H13R 1610   2.730   5.679   3.658
   14DMPC  H13S 1611   2.815   5.812   3.744
   14DMPC  C214 1612   2.604   5.843   3.726
   14DMPC  H14R 1613   2.594   5.911   3.814
   14DMPC  H14S 1614   2.509   5.786   3.715
   14DMPC  H14T 1615   2.618   5.905   3.635
   14DMPC   C33 1616   2.339   5.940   4.232
   14DMPC   H3X 1617   2.395   5.844   4.222
   14DMPC   H3Y 1618   2.402   6.010   4.291
   14DMPC   C34 1619   2.319   5.997   4.090
   14DMPC   H4X 1620   2.419   6.026   4.050
   14DMPC   H4Y 1621   2.256   6.089   4.095
   14DMPC   C35 1622   2.258   5.896   3.993
   14DMPC   H5X 1623   2.155   5.869   4.026
   14DMPC   H5Y 1624   2.320   5.803   3.998
   14DMPC   C36 1625   2.253   5.942   3.847
   14DMPC   H6X 1626   2.353   5.982   3.818
   14DMPC   H6Y 1627   2.178   6.023   3.835
   14DMPC   C37 1628   2.219   5.825   3.754
   14DMPC   H7X 1629   2.118   5.785   3.780
   14DMPC   H7Y 1630   2.293   5.744   3.771
   14DMPC   C38 1631   2.220   5.859   3.604
   14DMPC   H8X 1632   2.312   5.917   3.579
   14DMPC   H8Y 1633   2.131   5.921   3.580
   14DMPC   C39 1634   2.219   5.731   3.519
   14DMPC   H9X 1635   2.140   5.662   3.558
   14DMPC   H9Y 1636   2.317   5.680   3.530
   14DMPC  C310 1637   2.191   5.756   3.370
   14DMPC  H10X 1638   2.259   5.835   3.333
   14DMPC  H10Y 1639   2.086   5.792   3.360
   14DMPC  C311 1640   2.209   5.630   3.285
   14DMPC  H11X 1641   2.166   5.543   3.340
   14DMPC  H11Y 1642   2.318   5.610   3.272
   14DMPC  C312 1643   2.142   5.637   3.147
   14DMPC  H12X 1644   2.031   5.633   3.161
   14DMPC  H12Y 1645   2.171   5.547   3.088
   14DMPC  C313 1646   2.176   5.763   3.067
   14DMPC  H13X 1647   2.286   5.772   3.058
   14DMPC  H13Y 1648   2.139   5.852   3.122
   14DMPC  C314 1649   2.114   5.764   2.927
   14DMPC  H14X 1650   2.132   5.862   2.878
   14DMPC  H14Y 1651   2.005   5.747   2.933
   14DMPC  H14Z 1652   2.160   5.684   2.865
   15DMPC     N 1653   0.511   1.471   5.522
   15DMPC   C13 1654   0.379   1.535   5.498
   15DMPC  H13A 1655   0.369   1.623   5.560
   15DMPC  H13B 1656   0.299   1.466   5.524
   15DMPC  H13C 1657   0.369   1.564   5.395
   15DMPC   C14 1658   0.618   1.570   5.492
   15DMPC  H14A 1659   0.715   1.524   5.510
   15DMPC  H14B 1660   0.607   1.657   5.555
   15DMPC  H14C 1661   0.612   1.599   5.388
   15DMPC   C15 1662   0.521   1.433   5.665
   15DMPC  H15A 1663   0.616   1.387   5.686
   15DMPC  H15B 1664   0.441   1.365   5.691
   15DMPC  H15C 1665   0.511   1.521   5.727
   15DMPC   C12 1666   0.523   1.349   5.434
   15DMPC  H12A 1667   0.509   1.381   5.331
   15DMPC  H12B 1668   0.441   1.283   5.459
   15DMPC   C11 1669   0.654   1.267   5.441
   15DMPC  H11A 1670   0.640   1.169   5.389
   15DMPC  H11B 1671   0.674   1.241   5.548
   15DMPC     P 1672   0.784   1.354   5.238
   15DMPC   O13 1673   0.928   1.373   5.212
   15DMPC   O14 1674   0.693   1.459   5.188
   15DMPC   O11 1675   0.737   1.216   5.179
   15DMPC   O12 1676   0.766   1.339   5.393
   15DMPC    C1 1677   0.829   1.110   5.149
   15DMPC    HA 1678   0.769   1.016   5.141
   15DMPC    HB 1679   0.903   1.094   5.230
   15DMPC    C2 1680   0.904   1.125   5.012
   15DMPC    HS 1681   0.985   1.199   5.030
   15DMPC   O21 1682   0.809   1.169   4.913
   15DMPC   C21 1683   0.862   1.247   4.821
   15DMPC   O22 1684   0.975   1.294   4.825
   15DMPC   C22 1685   0.762   1.268   4.707
   15DMPC   H2R 1686   0.677   1.329   4.744
   15DMPC   H2S 1687   0.724   1.168   4.675
   15DMPC    C3 1688   0.968   0.990   4.970
   15DMPC    HX 1689   0.887   0.914   4.971
   15DMPC    HY 1690   1.041   0.958   5.048
   15DMPC   O31 1691   1.025   0.989   4.836
   15DMPC   C31 1692   1.155   1.012   4.829
   15DMPC   O32 1693   1.226   1.046   4.922
   15DMPC   C32 1694   1.204   0.986   4.687
   15DMPC   H2X 1695   1.171   0.884   4.655
   15DMPC   H2Y 1696   1.315   0.988   4.686
   15DMPC   C23 1697   0.830   1.338   4.588
   15DMPC   H3R 1698   0.919   1.280   4.556
   15DMPC   H3S 1699   0.862   1.440   4.617
   15DMPC   C24 1700   0.736   1.348   4.466
   15DMPC   H4R 1701   0.649   1.411   4.494
   15DMPC   H4S 1702   0.698   1.246   4.442
   15DMPC   C25 1703   0.801   1.407   4.340
   15DMPC   H5R 1704   0.833   1.511   4.361
   15DMPC   H5S 1705   0.891   1.347   4.315
   15DMPC   C26 1706   0.706   1.406   4.219
   15DMPC   H6R 1707   0.617   1.467   4.243
   15DMPC   H6S 1708   0.672   1.302   4.201
   15DMPC   C27 1709   0.771   1.460   4.091
   15DMPC   H7R 1710   0.857   1.396   4.062
   15DMPC   H7S 1711   0.811   1.562   4.112
   15DMPC   C28 1712   0.675   1.472   3.971
   15DMPC   H8R 1713   0.728   1.527   3.890
   15DMPC   H8S 1714   0.587   1.532   4.001
   15DMPC   C29 1715   0.627   1.337   3.914
   15DMPC   H9R 1716   0.572   1.281   3.993
   15DMPC   H9S 1717   0.716   1.277   3.885
   15DMPC  C210 1718   0.535   1.353   3.792
   15DMPC  H10R 1719   0.587   1.416   3.716
   15DMPC  H10S 1720   0.443   1.407   3.824
   15DMPC  C211 1721   0.495   1.219   3.728
   15DMPC  H11R 1722   0.457   1.153   3.809
   15DMPC  H11S 1723   0.585   1.170   3.685
   15DMPC  C212 1724   0.385   1.230   3.621
   15DMPC  H12R 1725   0.295   1.275   3.668
   15DMPC  H12S 1726   0.357   1.127   3.588
   15DMPC  C213 1727   0.420   1.313   3.496
   15DMPC  H13R 1728   0.452   1.415   3.528
   15DMPC  H13S 1729   0.328   1.325   3.436
   15DMPC  C214 1730   0.528   1.252   3.407
   15DMPC  H14R 1731   0.624   1.241   3.463
   15DMPC  H14S 1732   0.547   1.317   3.319
   15DMPC  H14T 1733   0.497   1.152   3.371
   15DMPC   C33 1734   1.150   1.091   4.589
   15DMPC   H3X 1735   1.186   1.192   4.619
   15DMPC   H3Y 1736   1.038   1.092   4.594
   15DMPC   C34 1737   1.191   1.064   4.444
   15DMPC   H4X 1738   1.156   0.963   4.415
   15DMPC   H4Y 1739   1.302   1.064   4.438
   15DMPC   C35 1740   1.136   1.166   4.343
   15DMPC   H5X 1741   1.168   1.268   4.373
   15DMPC   H5Y 1742   1.025   1.162   4.345
   15DMPC   C36 1743   1.186   1.138   4.200
   15DMPC   H6X 1744   1.164   1.033   4.174
   15DMPC   H6Y 1745   1.296   1.151   4.199
   15DMPC   C37 1746   1.125   1.230   4.092
   15DMPC   H7X 1747   1.137   1.336   4.123
   15DMPC   H7Y 1748   1.016   1.208   4.083
   15DMPC   C38 1749   1.194   1.210   3.956
   15DMPC   H8X 1750   1.186   1.103   3.926
   15DMPC   H8Y 1751   1.302   1.232   3.970
   15DMPC   C39 1752   1.141   1.299   3.843
   15DMPC   H9X 1753   1.223   1.310   3.769
   15DMPC   H9Y 1754   1.117   1.400   3.882
   15DMPC  C310 1755   1.020   1.239   3.769
   15DMPC  H10X 1756   0.932   1.238   3.836
   15DMPC  H10Y 1757   1.045   1.134   3.744
   15DMPC  C311 1758   0.986   1.312   3.638
   15DMPC  H11X 1759   0.914   1.248   3.581
   15DMPC  H11Y 1760   1.079   1.321   3.577
   15DMPC  C312 1761   0.924   1.451   3.657
   15DMPC  H12X 1762   0.985   1.509   3.729
   15DMPC  H12Y 1763   0.822   1.438   3.700
   15DMPC  C313 1764   0.913   1.533   3.527
   15DMPC  H13X 1765   1.016   1.559   3.494
   15DMPC  H13Y 1766   0.861   1.628   3.549
   15DMPC  C314 1767   0.842   1.463   3.410
   15DMPC  H14X 1768   0.737   1.441   3.438
   15DMPC  H14Y 1769   0.892   1.368   3.383
   15DMPC  H14Z 1770   0.841   1.529   3.321
   16DMPC     N 1771   5.915   5.536   5.064
   16DMPC   C13 1772   5.842   5.488   5.184
   16DMPC  H13A 1773   5.781   5.567   5.224
   16DMPC  H13B 1774   5.913   5.455   5.260
   16DMPC  H13C 1775   5.778   5.405   5.157
   16DMPC   C14 1776   6.000   5.650   5.106
   16DMPC  H14A 1777   6.056   5.689   5.021
   16DMPC  H14B 1778   6.068   5.619   5.184
   16DMPC  H14C 1779   5.937   5.730   5.144
   16DMPC   C15 1780   6.001   5.426   5.012
   16DMPC  H15A 1781   6.050   5.457   4.921
   16DMPC  H15B 1782   5.939   5.339   4.991
   16DMPC  H15C 1783   6.074   5.399   5.087
   16DMPC   C12 1784   5.818   5.582   4.957
   16DMPC  H12A 1785   5.875   5.635   4.882
   16DMPC  H12B 1786   5.750   5.653   5.003
   16DMPC   C11 1787   5.734   5.475   4.883
   16DMPC  H11A 1788   5.800   5.414   4.817
   16DMPC  H11B 1789   5.663   5.530   4.817
   16DMPC     P 1790   5.522   5.346   4.956
   16DMPC   O13 1791   5.441   5.458   4.903
   16DMPC   O14 1792   5.475   5.288   5.084
   16DMPC   O11 1793   5.529   5.234   4.847
   16DMPC   O12 1794   5.670   5.389   4.976
   16DMPC    C1 1795   5.604   5.112   4.863
   16DMPC    HA 1796   5.535   5.027   4.841
   16DMPC    HB 1797   5.641   5.098   4.966
   16DMPC    C2 1798   5.725   5.100   4.765
   16DMPC    HS 1799   5.804   5.166   4.807
   16DMPC   O21 1800   5.682   5.148   4.636
   16DMPC   C21 1801   5.785   5.176   4.557
   16DMPC   O22 1802   5.902   5.168   4.591
   16DMPC   C22 1803   5.733   5.227   4.423
   16DMPC   H2R 1804   5.710   5.335   4.432
   16DMPC   H2S 1805   5.640   5.172   4.395
   16DMPC    C3 1806   5.779   4.953   4.761
   16DMPC    HX 1807   5.813   4.929   4.864
   16DMPC    HY 1808   5.869   4.946   4.697
   16DMPC   O31 1809   5.677   4.857   4.725
   16DMPC   C31 1810   5.666   4.832   4.594
   16DMPC   O32 1811   5.739   4.879   4.508
   16DMPC   C32 1812   5.546   4.741   4.569
   16DMPC   H2X 1813   5.458   4.782   4.622
   16DMPC   H2Y 1814   5.569   4.640   4.608
   16DMPC   C23 1815   5.839   5.206   4.313
   16DMPC   H3R 1816   5.858   5.096   4.301
   16DMPC   H3S 1817   5.934   5.254   4.342
   16DMPC   C24 1818   5.796   5.263   4.177
   16DMPC   H4R 1819   5.785   5.374   4.186
   16DMPC   H4S 1820   5.696   5.221   4.150
   16DMPC   C25 1821   5.895   5.232   4.064
   16DMPC   H5R 1822   5.904   5.121   4.055
   16DMPC   H5S 1823   5.995   5.272   4.092
   16DMPC   C26 1824   5.854   5.290   3.928
   16DMPC   H6R 1825   5.845   5.401   3.938
   16DMPC   H6S 1826   5.754   5.251   3.900
   16DMPC   C27 1827   5.954   5.260   3.814
   16DMPC   H7R 1828   6.055   5.292   3.846
   16DMPC   H7S 1829   5.925   5.320   3.726
   16DMPC   C28 1830   5.958   5.112   3.772
   16DMPC   H8R 1831   5.856   5.082   3.740
   16DMPC   H8S 1832   5.987   5.049   3.859
   16DMPC   C29 1833   6.056   5.085   3.657
   16DMPC   H9R 1834   6.156   5.123   3.688
   16DMPC   H9S 1835   6.025   5.144   3.568
   16DMPC  C210 1836   6.071   4.937   3.619
   16DMPC  H10R 1837   6.103   4.880   3.710
   16DMPC  H10S 1838   6.151   4.928   3.543
   16DMPC  C211 1839   5.944   4.870   3.563
   16DMPC  H11R 1840   5.861   4.882   3.636
   16DMPC  H11S 1841   5.963   4.761   3.553
   16DMPC  C212 1842   5.900   4.924   3.426
   16DMPC  H12R 1843   5.980   4.904   3.352
   16DMPC  H12S 1844   5.886   5.034   3.433
   16DMPC  C213 1845   5.768   4.863   3.376
   16DMPC  H13R 1846   5.688   4.884   3.451
   16DMPC  H13S 1847   5.780   4.752   3.370
   16DMPC  C214 1848   5.722   4.915   3.240
   16DMPC  H14R 1849   5.626   4.867   3.210
   16DMPC  H14S 1850   5.798   4.894   3.162
   16DMPC  H14T 1851   5.706   5.025   3.245
   16DMPC   C33 1852   5.518   4.734   4.418
   16DMPC   H3X 1853   5.609   4.700   4.366
   16DMPC   H3Y 1854   5.492   4.836   4.381
   16DMPC   C34 1855   5.404   4.638   4.378
   16DMPC   H4X 1856   5.309   4.673   4.425
   16DMPC   H4Y 1857   5.427   4.537   4.417
   16DMPC   C35 1858   5.385   4.632   4.226
   16DMPC   H5X 1859   5.480   4.596   4.180
   16DMPC   H5Y 1860   5.365   4.735   4.188
   16DMPC   C36 1861   5.271   4.540   4.181
   16DMPC   H6X 1862   5.178   4.572   4.233
   16DMPC   H6Y 1863   5.293   4.435   4.212
   16DMPC   C37 1864   5.246   4.543   4.029
   16DMPC   H7X 1865   5.338   4.511   3.976
   16DMPC   H7Y 1866   5.225   4.649   4.000
   16DMPC   C38 1867   5.128   4.455   3.986
   16DMPC   H8X 1868   5.043   4.478   4.054
   16DMPC   H8Y 1869   5.154   4.348   4.000
   16DMPC   C39 1870   5.079   4.479   3.842
   16DMPC   H9X 1871   5.059   4.587   3.828
   16DMPC   H9Y 1872   4.983   4.425   3.830
   16DMPC  C310 1873   5.176   4.430   3.733
   16DMPC  H10X 1874   5.198   4.322   3.753
   16DMPC  H10Y 1875   5.271   4.486   3.738
   16DMPC  C311 1876   5.117   4.440   3.591
   16DMPC  H11X 1877   5.016   4.395   3.590
   16DMPC  H11Y 1878   5.182   4.381   3.523
   16DMPC  C312 1879   5.110   4.584   3.537
   16DMPC  H12X 1880   5.214   4.625   3.534
   16DMPC  H12Y 1881   5.049   4.647   3.604
   16DMPC  C313 1882   5.052   4.592   3.395
   16DMPC  H13X 1883   5.103   4.517   3.331
   16DMPC  H13Y 1884   4.944   4.564   3.399
   16DMPC  C314 1885   5.065   4.729   3.329
   16DMPC  H14X 1886   5.015   4.807   3.391
   16DMPC  H14Y 1887   5.019   4.729   3.228
   16DMPC  H14Z 1888   5.173   4.756   3.319
   17DMPC     N 1889   0.159   0.557   4.807
   17DMPC   C13 1890   0.059   0.628   4.723
   17DMPC  H13A 1891   0.053   0.581   4.626
   17DMPC  H13B 1892   0.089   0.731   4.709
   17DMPC  H13C 1893   6.253   0.624   4.770
   17DMPC   C14 1894   0.292   0.564   4.740
   17DMPC  H14A 1895   0.324   0.667   4.729
   17DMPC  H14B 1896   0.286   0.518   4.642
   17DMPC  H14C 1897   0.365   0.508   4.798
   17DMPC   C15 1898   0.170   0.627   4.939
   17DMPC  H15A 1899   0.074   0.623   4.989
   17DMPC  H15B 1900   0.201   0.729   4.923
   17DMPC  H15C 1901   0.244   0.576   5.000
   17DMPC   C12 1902   0.116   0.415   4.831
   17DMPC  H12A 1903   0.020   0.419   4.883
   17DMPC  H12B 1904   0.187   0.370   4.899
   17DMPC   C11 1905   0.099   0.321   4.710
   17DMPC  H11A 1906   0.028   0.369   4.638
   17DMPC  H11B 1907   0.049   0.227   4.741
   17DMPC     P 1908   0.325   0.201   4.707
   17DMPC   O13 1909   0.255   0.095   4.785
   17DMPC   O14 1910   0.421   0.282   4.786
   17DMPC   O11 1911   0.399   0.136   4.582
   17DMPC   O12 1912   0.220   0.298   4.642
   17DMPC    C1 1913   0.365   0.183   4.450
   17DMPC    HA 1914   0.362   0.295   4.445
   17DMPC    HB 1915   0.264   0.146   4.423
   17DMPC    C2 1916   0.465   0.138   4.340
   17DMPC    HS 1917   0.422   0.161   4.240
   17DMPC   O21 1918   0.497   6.329   4.351
   17DMPC   C21 1919   0.397   6.251   4.314
   17DMPC   O22 1920   0.294   6.289   4.262
   17DMPC   C22 1921   0.431   6.105   4.346
   17DMPC   H2R 1922   0.373   6.077   4.436
   17DMPC   H2S 1923   0.539   6.094   4.369
   17DMPC    C3 1924   0.599   0.219   4.351
   17DMPC    HX 1925   0.645   0.188   4.447
   17DMPC    HY 1926   0.576   0.327   4.360
   17DMPC   O31 1927   0.693   0.192   4.244
   17DMPC   C31 1928   0.668   0.257   4.131
   17DMPC   O32 1929   0.572   0.330   4.113
   17DMPC   C32 1930   0.777   0.226   4.029
   17DMPC   H2X 1931   0.769   0.119   4.000
   17DMPC   H2Y 1932   0.876   0.243   4.076
   17DMPC   C23 1933   0.391   6.013   4.229
   17DMPC   H3R 1934   0.284   6.028   4.204
   17DMPC   H3S 1935   0.401   5.907   4.264
   17DMPC   C24 1936   0.476   6.029   4.101
   17DMPC   H4R 1937   0.466   6.133   4.065
   17DMPC   H4S 1938   0.433   5.961   4.023
   17DMPC   C25 1939   0.625   5.995   4.118
   17DMPC   H5R 1940   0.635   5.892   4.158
   17DMPC   H5S 1941   0.671   6.065   4.191
   17DMPC   C26 1942   0.703   6.004   3.985
   17DMPC   H6R 1943   0.690   6.107   3.945
   17DMPC   H6S 1944   0.659   5.933   3.912
   17DMPC   C27 1945   0.853   5.976   4.001
   17DMPC   H7R 1946   0.867   5.873   4.039
   17DMPC   H7S 1947   0.893   6.046   4.078
   17DMPC   C28 1948   0.934   5.995   3.872
   17DMPC   H8R 1949   1.042   5.999   3.899
   17DMPC   H8S 1950   0.908   6.093   3.826
   17DMPC   C29 1951   0.915   5.882   3.770
   17DMPC   H9R 1952   0.807   5.874   3.744
   17DMPC   H9S 1953   0.946   5.787   3.818
   17DMPC  C210 1954   0.996   5.903   3.641
   17DMPC  H10R 1955   1.103   5.917   3.667
   17DMPC  H10S 1956   0.960   5.997   3.593
   17DMPC  C211 1957   0.982   5.788   3.539
   17DMPC  H11R 1958   1.036   5.817   3.446
   17DMPC  H11S 1959   0.874   5.777   3.513
   17DMPC  C212 1960   1.034   5.651   3.587
   17DMPC  H12R 1961   1.020   5.578   3.505
   17DMPC  H12S 1962   0.973   5.617   3.673
   17DMPC  C213 1963   1.183   5.649   3.629
   17DMPC  H13R 1964   1.207   5.545   3.662
   17DMPC  H13S 1965   1.196   5.715   3.716
   17DMPC  C214 1966   1.282   5.690   3.520
   17DMPC  H14R 1967   1.266   5.795   3.490
   17DMPC  H14S 1968   1.271   5.625   3.430
   17DMPC  H14T 1969   1.386   5.680   3.558
   17DMPC   C33 1970   0.761   0.316   3.906
   17DMPC   H3X 1971   0.763   0.423   3.938
   17DMPC   H3Y 1972   0.662   0.296   3.859
   17DMPC   C34 1973   0.871   0.298   3.801
   17DMPC   H4X 1974   0.970   0.316   3.848
   17DMPC   H4Y 1975   0.856   0.375   3.722
   17DMPC   C35 1976   0.873   0.159   3.733
   17DMPC   H5X 1977   0.772   0.138   3.692
   17DMPC   H5Y 1978   0.897   0.081   3.809
   17DMPC   C36 1979   0.975   0.153   3.619
   17DMPC   H6X 1980   1.077   0.173   3.660
   17DMPC   H6Y 1981   0.951   0.233   3.546
   17DMPC   C37 1982   0.977   0.019   3.544
   17DMPC   H7X 1983   0.874   6.328   3.506
   17DMPC   H7Y 1984   1.006   6.268   3.614
   17DMPC   C38 1985   1.074   0.022   3.425
   17DMPC   H8X 1986   1.177   0.039   3.463
   17DMPC   H8Y 1987   1.046   0.109   3.361
   17DMPC   C39 1988   1.073   6.225   3.339
   17DMPC   H9X 1989   0.970   6.209   3.299
   17DMPC   H9Y 1990   1.098   6.138   3.404
   17DMPC  C310 1991   1.173   6.229   3.222
   17DMPC  H10X 1992   1.159   6.137   3.161
   17DMPC  H10Y 1993   1.276   6.226   3.263
   17DMPC  C311 1994   1.162   0.022   3.130
   17DMPC  H11X 1995   1.236   0.011   3.048
   17DMPC  H11Y 1996   1.190   0.112   3.188
   17DMPC  C312 1997   1.023   0.044   3.068
   17DMPC  H12X 1998   0.946   0.043   3.148
   17DMPC  H12Y 1999   1.001   6.291   2.998
   17DMPC  C313 2000   1.010   0.178   2.994
   17DMPC  H13X 2001   1.088   0.183   2.915
   17DMPC  H13Y 2002   1.030   0.261   3.066
   17DMPC  C314 2003   0.873   0.201   2.929
   17DMPC  H14X 2004   0.871   0.299   2.876
   17DMPC  H14Y 2005   0.794   0.201   3.006
   17DMPC  H14Z 2006   0.852   0.121   2.856
   18DMPC     N 2007   5.638   3.671   5.096
   18DMPC   C13 2008   5.706   3.674   4.963
   18DMPC  H13A 2009   5.695   3.578   4.915
   18DMPC  H13B 2010   5.811   3.696   4.977
   18DMPC  H13C 2011   5.662   3.751   4.901
   18DMPC   C14 2012   5.699   3.562   5.177
   18DMPC  H14A 2013   5.649   3.557   5.273
   18DMPC  H14B 2014   5.804   3.583   5.193
   18DMPC  H14C 2015   5.687   3.468   5.125
   18DMPC   C15 2016   5.664   3.800   5.165
   18DMPC  H15A 2017   5.771   3.817   5.171
   18DMPC  H15B 2018   5.623   3.796   5.265
   18DMPC  H15C 2019   5.617   3.880   5.110
   18DMPC   C12 2020   5.491   3.644   5.081
   18DMPC  H12A 2021   5.448   3.646   5.181
   18DMPC  H12B 2022   5.479   3.544   5.042
   18DMPC   C11 2023   5.407   3.739   4.993
   18DMPC  H11A 2024   5.301   3.704   5.000
   18DMPC  H11B 2025   5.440   3.729   4.887
   18DMPC     P 2026   5.342   3.983   4.961
   18DMPC   O13 2027   5.314   4.093   5.057
   18DMPC   O14 2028   5.225   3.924   4.892
   18DMPC   O11 2029   5.448   4.028   4.853
   18DMPC   O12 2030   5.420   3.872   5.039
   18DMPC    C1 2031   5.438   4.154   4.783
   18DMPC    HA 2032   5.532   4.169   4.727
   18DMPC    HB 2033   5.428   4.239   4.855
   18DMPC    C2 2034   5.322   4.162   4.678
   18DMPC    HS 2035   5.228   4.174   4.738
   18DMPC   O21 2036   5.323   4.040   4.600
   18DMPC   C21 2037   5.202   4.010   4.555
   18DMPC   O22 2038   5.099   4.064   4.590
   18DMPC   C22 2039   5.211   3.899   4.451
   18DMPC   H2R 2040   5.175   3.805   4.499
   18DMPC   H2S 2041   5.315   3.883   4.418
   18DMPC    C3 2042   5.337   4.286   4.584
   18DMPC    HX 2043   5.437   4.279   4.536
   18DMPC    HY 2044   5.338   4.378   4.647
   18DMPC   O31 2045   5.238   4.288   4.479
   18DMPC   C31 2046   5.144   4.382   4.485
   18DMPC   O32 2047   5.150   4.483   4.553
   18DMPC   C32 2048   5.029   4.342   4.394
   18DMPC   H2X 2049   4.986   4.246   4.432
   18DMPC   H2Y 2050   5.067   4.325   4.291
   18DMPC   C23 2051   5.119   3.931   4.331
   18DMPC   H3R 2052   5.028   3.986   4.364
   18DMPC   H3S 2053   5.082   3.835   4.289
   18DMPC   C24 2054   5.184   4.009   4.215
   18DMPC   H4R 2055   5.231   4.102   4.254
   18DMPC   H4S 2056   5.102   4.038   4.147
   18DMPC   C25 2057   5.287   3.926   4.136
   18DMPC   H5R 2058   5.247   3.823   4.121
   18DMPC   H5S 2059   5.380   3.917   4.197
   18DMPC   C26 2060   5.323   3.984   3.998
   18DMPC   H6R 2061   5.407   3.923   3.957
   18DMPC   H6S 2062   5.359   4.088   4.009
   18DMPC   C27 2063   5.207   3.980   3.897
   18DMPC   H7R 2064   5.129   4.053   3.929
   18DMPC   H7S 2065   5.162   3.879   3.896
   18DMPC   C28 2066   5.250   4.015   3.753
   18DMPC   H8R 2067   5.322   3.939   3.716
   18DMPC   H8S 2068   5.303   4.113   3.755
   18DMPC   C29 2069   5.132   4.027   3.656
   18DMPC   H9R 2070   5.063   4.104   3.694
   18DMPC   H9S 2071   5.077   3.930   3.653
   18DMPC  C210 2072   5.174   4.065   3.512
   18DMPC  H10R 2073   5.241   4.154   3.517
   18DMPC  H10S 2074   5.232   3.981   3.468
   18DMPC  C211 2075   5.054   4.098   3.423
   18DMPC  H11R 2076   4.997   4.181   3.471
   18DMPC  H11S 2077   4.986   4.011   3.417
   18DMPC  C212 2078   5.091   4.145   3.281
   18DMPC  H12R 2079   4.999   4.183   3.232
   18DMPC  H12S 2080   5.163   4.230   3.289
   18DMPC  C213 2081   5.151   4.037   3.189
   18DMPC  H13R 2082   5.246   4.000   3.234
   18DMPC  H13S 2083   5.176   4.084   3.092
   18DMPC  C214 2084   5.060   3.916   3.162
   18DMPC  H14R 2085   4.963   3.949   3.120
   18DMPC  H14S 2086   5.041   3.860   3.256
   18DMPC  H14T 2087   5.109   3.847   3.089
   18DMPC   C33 2088   4.918   4.449   4.392
   18DMPC   H3X 2089   4.895   4.480   4.497
   18DMPC   H3Y 2090   4.955   4.538   4.338
   18DMPC   C34 2091   4.786   4.401   4.329
   18DMPC   H4X 2092   4.745   4.318   4.391
   18DMPC   H4Y 2093   4.713   4.485   4.332
   18DMPC   C35 2094   4.800   4.352   4.184
   18DMPC   H5X 2095   4.868   4.264   4.181
   18DMPC   H5Y 2096   4.844   4.433   4.123
   18DMPC   C36 2097   4.666   4.311   4.121
   18DMPC   H6X 2098   4.599   4.400   4.117
   18DMPC   H6Y 2099   4.617   4.235   4.185
   18DMPC   C37 2100   4.681   4.253   3.979
   18DMPC   H7X 2101   4.741   4.160   3.985
   18DMPC   H7Y 2102   4.736   4.326   3.915
   18DMPC   C38 2103   4.546   4.221   3.913
   18DMPC   H8X 2104   4.491   4.317   3.895
   18DMPC   H8Y 2105   4.485   4.160   3.983
   18DMPC   C39 2106   4.560   4.144   3.781
   18DMPC   H9X 2107   4.612   4.048   3.803
   18DMPC   H9Y 2108   4.623   4.202   3.710
   18DMPC  C310 2109   4.425   4.111   3.715
   18DMPC  H10X 2110   4.356   4.070   3.792
   18DMPC  H10Y 2111   4.442   4.032   3.638
   18DMPC  C311 2112   4.358   4.231   3.645
   18DMPC  H11X 2113   4.427   4.267   3.565
   18DMPC  H11Y 2114   4.344   4.313   3.718
   18DMPC  C312 2115   4.223   4.195   3.582
   18DMPC  H12X 2116   4.148   4.179   3.663
   18DMPC  H12Y 2117   4.233   4.099   3.526
   18DMPC  C313 2118   4.170   4.301   3.484
   18DMPC  H13X 2119   4.075   4.263   3.438
   18DMPC  H13Y 2120   4.243   4.313   3.401
   18DMPC  C314 2121   4.142   4.438   3.546
   18DMPC  H14X 2122   4.064   4.428   3.624
   18DMPC  H14Y 2123   4.107   4.509   3.468
   18DMPC  H14Z 2124   4.234   4.480   3.592
   19DMPC     N 2125   5.572   1.726   4.993
   19DMPC   C13 2126   5.656   1.605   4.978
   19DMPC  H13A 2127   5.702   1.580   5.073
   19DMPC  H13B 2128   5.734   1.622   4.905
   19DMPC  H13C 2129   5.596   1.521   4.945
   19DMPC   C14 2130   5.468   1.700   5.097
   19DMPC  H14A 2131   5.404   1.620   5.065
   19DMPC  H14B 2132   5.408   1.789   5.112
   19DMPC  H14C 2133   5.516   1.673   5.190
   19DMPC   C15 2134   5.660   1.837   5.041
   19DMPC  H15A 2135   5.704   1.809   5.136
   19DMPC  H15B 2136   5.601   1.927   5.052
   19DMPC  H15C 2137   5.739   1.853   4.969
   19DMPC   C12 2138   5.508   1.761   4.861
   19DMPC  H12A 2139   5.471   1.669   4.817
   19DMPC  H12B 2140   5.586   1.799   4.796
   19DMPC   C11 2141   5.391   1.862   4.863
   19DMPC  H11A 2142   5.300   1.812   4.904
   19DMPC  H11B 2143   5.371   1.891   4.757
   19DMPC     P 2144   5.336   2.101   4.934
   19DMPC   O13 2145   5.361   2.180   5.058
   19DMPC   O14 2146   5.195   2.063   4.907
   19DMPC   O11 2147   5.397   2.179   4.811
   19DMPC   O12 2148   5.425   1.973   4.944
   19DMPC    C1 2149   5.528   2.148   4.762
   19DMPC    HA 2150   5.525   2.059   4.696
   19DMPC    HB 2151   5.600   2.127   4.845
   19DMPC    C2 2152   5.590   2.265   4.679
   19DMPC    HS 2153   5.595   2.353   4.748
   19DMPC   O21 2154   5.509   2.285   4.562
   19DMPC   C21 2155   5.472   2.410   4.542
   19DMPC   O22 2156   5.492   2.503   4.618
   19DMPC   C22 2157   5.408   2.421   4.403
   19DMPC   H2R 2158   5.374   2.322   4.367
   19DMPC   H2S 2159   5.486   2.459   4.334
   19DMPC    C3 2160   5.735   2.229   4.635
   19DMPC    HX 2161   5.728   2.140   4.570
   19DMPC    HY 2162   5.795   2.197   4.724
   19DMPC   O31 2163   5.801   2.335   4.561
   19DMPC   C31 2164   5.858   2.427   4.638
   19DMPC   O32 2165   5.845   2.432   4.760
   19DMPC   C32 2166   5.941   2.523   4.553
   19DMPC   H2X 2167   5.995   2.467   4.474
   19DMPC   H2Y 2168   6.017   2.569   4.620
   19DMPC   C23 2169   5.290   2.520   4.404
   19DMPC   H3R 2170   5.311   2.604   4.474
   19DMPC   H3S 2171   5.199   2.468   4.439
   19DMPC   C24 2172   5.264   2.586   4.267
   19DMPC   H4R 2173   5.354   2.646   4.241
   19DMPC   H4S 2174   5.178   2.655   4.278
   19DMPC   C25 2175   5.236   2.489   4.151
   19DMPC   H5R 2176   5.139   2.438   4.169
   19DMPC   H5S 2177   5.315   2.410   4.149
   19DMPC   C26 2178   5.235   2.558   4.014
   19DMPC   H6R 2179   5.225   2.480   3.935
   19DMPC   H6S 2180   5.333   2.608   4.000
   19DMPC   C27 2181   5.124   2.663   3.996
   19DMPC   H7R 2182   5.126   2.733   4.082
   19DMPC   H7S 2183   5.026   2.612   3.996
   19DMPC   C28 2184   5.140   2.749   3.869
   19DMPC   H8R 2185   5.239   2.798   3.873
   19DMPC   H8S 2186   5.062   2.828   3.870
   19DMPC   C29 2187   5.130   2.672   3.736
   19DMPC   H9R 2188   5.030   2.623   3.728
   19DMPC   H9S 2189   5.208   2.593   3.733
   19DMPC  C210 2190   5.149   2.765   3.615
   19DMPC  H10R 2191   5.245   2.821   3.628
   19DMPC  H10S 2192   5.066   2.839   3.612
   19DMPC  C211 2193   5.156   2.690   3.480
   19DMPC  H11R 2194   5.059   2.639   3.462
   19DMPC  H11S 2195   5.236   2.613   3.486
   19DMPC  C212 2196   5.187   2.783   3.362
   19DMPC  H12R 2197   5.283   2.836   3.382
   19DMPC  H12S 2198   5.107   2.861   3.355
   19DMPC  C213 2199   5.197   2.710   3.227
   19DMPC  H13R 2200   5.101   2.659   3.207
   19DMPC  H13S 2201   5.276   2.631   3.236
   19DMPC  C214 2202   5.231   2.801   3.109
   19DMPC  H14R 2203   5.237   2.741   3.015
   19DMPC  H14S 2204   5.329   2.850   3.125
   19DMPC  H14T 2205   5.154   2.879   3.097
   19DMPC   C33 2206   5.855   2.634   4.491
   19DMPC   H3X 2207   5.925   2.714   4.457
   19DMPC   H3Y 2208   5.788   2.679   4.568
   19DMPC   C34 2209   5.772   2.589   4.370
   19DMPC   H4X 2210   5.698   2.514   4.404
   19DMPC   H4Y 2211   5.839   2.539   4.296
   19DMPC   C35 2212   5.696   2.702   4.298
   19DMPC   H5X 2213   5.632   2.757   4.371
   19DMPC   H5Y 2214   5.629   2.656   4.223
   19DMPC   C36 2215   5.787   2.802   4.225
   19DMPC   H6X 2216   5.864   2.744   4.169
   19DMPC   H6Y 2217   5.840   2.866   4.299
   19DMPC   C37 2218   5.712   2.891   4.125
   19DMPC   H7X 2219   5.637   2.952   4.179
   19DMPC   H7Y 2220   5.659   2.826   4.053
   19DMPC   C38 2221   5.806   2.984   4.046
   19DMPC   H8X 2222   5.889   2.923   4.004
   19DMPC   H8Y 2223   5.851   3.059   4.116
   19DMPC   C39 2224   5.737   3.058   3.931
   19DMPC   H9X 2225   5.656   3.122   3.972
   19DMPC   H9Y 2226   5.691   2.983   3.863
   19DMPC  C310 2227   5.834   3.146   3.849
   19DMPC  H10X 2228   5.919   3.082   3.815
   19DMPC  H10Y 2229   5.876   3.225   3.915
   19DMPC  C311 2230   5.769   3.211   3.727
   19DMPC  H11X 2231   5.686   3.277   3.761
   19DMPC  H11Y 2232   5.726   3.131   3.662
   19DMPC  C312 2233   5.868   3.293   3.643
   19DMPC  H12X 2234   5.953   3.227   3.615
   19DMPC  H12Y 2235   5.909   3.376   3.705
   19DMPC  C313 2236   5.808   3.352   3.514
   19DMPC  H13X 2237   5.768   3.269   3.452
   19DMPC  H13Y 2238   5.891   3.400   3.456
   19DMPC  C314 2239   5.698   3.455   3.535
   19DMPC  H14X 2240   5.665   3.497   3.438
   19DMPC  H14Y 2241   5.735   3.539   3.598
   19DMPC  H14Z 2242   5.610   3.409   3.585
   20DMPC     N 2243   1.344   1.732   5.081
   20DMPC   C13 2244   1.213   1.802   5.071
   20DMPC  H13A 2245   1.169   1.812   5.169
   20DMPC  H13B 2246   1.146   1.745   5.008
   20DMPC  H13C 2247   1.227   1.901   5.029
   20DMPC   C14 2248   1.398   1.711   4.943
   20DMPC  H14A 2249   1.330   1.647   4.888
   20DMPC  H14B 2250   1.495   1.665   4.949
   20DMPC  H14C 2251   1.406   1.806   4.892
   20DMPC   C15 2252   1.437   1.820   5.159
   20DMPC  H15A 2253   1.452   1.913   5.106
   20DMPC  H15B 2254   1.531   1.769   5.172
   20DMPC  H15C 2255   1.392   1.839   5.256
   20DMPC   C12 2256   1.324   1.600   5.150
   20DMPC  H12A 2257   1.245   1.548   5.098
   20DMPC  H12B 2258   1.287   1.621   5.250
   20DMPC   C11 2259   1.444   1.504   5.162
   20DMPC  H11A 2260   1.479   1.476   5.060
   20DMPC  H11B 2261   1.404   1.412   5.211
   20DMPC     P 2262   1.647   1.467   5.312
   20DMPC   O13 2263   1.587   1.432   5.443
   20DMPC   O14 2264   1.782   1.526   5.312
   20DMPC   O11 2265   1.646   1.335   5.224
   20DMPC   O12 2266   1.550   1.563   5.234
   20DMPC    C1 2267   1.766   1.281   5.166
   20DMPC    HA 2268   1.754   1.170   5.158
   20DMPC    HB 2269   1.856   1.299   5.229
   20DMPC    C2 2270   1.791   1.335   5.022
   20DMPC    HS 2271   1.801   1.445   5.032
   20DMPC   O21 2272   1.679   1.294   4.941
   20DMPC   C21 2273   1.642   1.385   4.853
   20DMPC   O22 2274   1.683   1.500   4.848
   20DMPC   C22 2275   1.545   1.323   4.753
   20DMPC   H2R 2276   1.456   1.389   4.745
   20DMPC   H2S 2277   1.511   1.223   4.788
   20DMPC    C3 2278   1.923   1.278   4.961
   20DMPC    HX 2279   1.916   1.168   4.967
   20DMPC    HY 2280   2.010   1.309   5.023
   20DMPC   O31 2281   1.940   1.314   4.821
   20DMPC   C31 2282   1.989   1.437   4.803
   20DMPC   O32 2283   2.018   1.515   4.892
   20DMPC   C32 2284   2.002   1.464   4.653
   20DMPC   H2X 2285   1.911   1.428   4.601
   20DMPC   H2Y 2286   2.090   1.409   4.614
   20DMPC   C23 2287   1.614   1.310   4.616
   20DMPC   H3R 2288   1.703   1.244   4.625
   20DMPC   H3S 2289   1.649   1.411   4.586
   20DMPC   C24 2290   1.521   1.255   4.507
   20DMPC   H4R 2291   1.427   1.314   4.507
   20DMPC   H4S 2292   1.495   1.150   4.533
   20DMPC   C25 2293   1.580   1.258   4.365
   20DMPC   H5R 2294   1.504   1.214   4.296
   20DMPC   H5S 2295   1.671   1.194   4.360
   20DMPC   C26 2296   1.617   1.399   4.316
   20DMPC   H6R 2297   1.708   1.433   4.371
   20DMPC   H6S 2298   1.534   1.469   4.342
   20DMPC   C27 2299   1.643   1.411   4.165
   20DMPC   H7R 2300   1.712   1.330   4.134
   20DMPC   H7S 2301   1.695   1.508   4.148
   20DMPC   C28 2302   1.515   1.408   4.080
   20DMPC   H8R 2303   1.449   1.493   4.109
   20DMPC   H8S 2304   1.461   1.314   4.102
   20DMPC   C29 2305   1.541   1.416   3.928
   20DMPC   H9R 2306   1.445   1.396   3.876
   20DMPC   H9S 2307   1.612   1.336   3.900
   20DMPC  C210 2308   1.595   1.552   3.881
   20DMPC  H10R 2309   1.687   1.575   3.938
   20DMPC  H10S 2310   1.520   1.630   3.904
   20DMPC  C211 2311   1.631   1.557   3.731
   20DMPC  H11R 2312   1.707   1.479   3.711
   20DMPC  H11S 2313   1.678   1.656   3.710
   20DMPC  C212 2314   1.512   1.537   3.635
   20DMPC  H12R 2315   1.466   1.438   3.654
   20DMPC  H12S 2316   1.552   1.536   3.531
   20DMPC  C213 2317   1.404   1.646   3.644
   20DMPC  H13R 2318   1.452   1.745   3.629
   20DMPC  H13S 2319   1.361   1.645   3.747
   20DMPC  C214 2320   1.291   1.629   3.543
   20DMPC  H14R 2321   1.240   1.532   3.559
   20DMPC  H14S 2322   1.331   1.631   3.439
   20DMPC  H14T 2323   1.217   1.710   3.554
   20DMPC   C33 2324   2.019   1.615   4.628
   20DMPC   H3X 2325   2.107   1.652   4.685
   20DMPC   H3Y 2326   1.929   1.670   4.664
   20DMPC   C34 2327   2.041   1.647   4.479
   20DMPC   H4X 2328   1.952   1.615   4.420
   20DMPC   H4Y 2329   2.129   1.588   4.445
   20DMPC   C35 2330   2.069   1.796   4.452
   20DMPC   H5X 2331   2.150   1.828   4.520
   20DMPC   H5Y 2332   1.979   1.856   4.475
   20DMPC   C36 2333   2.114   1.824   4.307
   20DMPC   H6X 2334   2.029   1.808   4.238
   20DMPC   H6Y 2335   2.194   1.750   4.281
   20DMPC   C37 2336   2.172   1.965   4.289
   20DMPC   H7X 2337   2.243   1.984   4.373
   20DMPC   H7Y 2338   2.090   2.040   4.296
   20DMPC   C38 2339   2.249   1.985   4.158
   20DMPC   H8X 2340   2.330   1.908   4.151
   20DMPC   H8Y 2341   2.298   2.085   4.163
   20DMPC   C39 2342   2.163   1.981   4.031
   20DMPC   H9X 2343   2.081   2.054   4.043
   20DMPC   H9Y 2344   2.119   1.879   4.019
   20DMPC  C310 2345   2.245   2.016   3.905
   20DMPC  H10X 2346   2.326   1.941   3.893
   20DMPC  H10Y 2347   2.293   2.115   3.920
   20DMPC  C311 2348   2.163   2.021   3.774
   20DMPC  H11X 2349   2.126   1.918   3.751
   20DMPC  H11Y 2350   2.231   2.051   3.692
   20DMPC  C312 2351   2.042   2.117   3.775
   20DMPC  H12X 2352   1.966   2.078   3.846
   20DMPC  H12Y 2353   1.998   2.116   3.673
   20DMPC  C313 2354   2.076   2.262   3.813
   20DMPC  H13X 2355   2.154   2.300   3.743
   20DMPC  H13Y 2356   2.118   2.264   3.916
   20DMPC  C314 2357   1.955   2.356   3.808
   20DMPC  H14X 2358   1.983   2.457   3.843
   20DMPC  H14Y 2359   1.873   2.318   3.873
   20DMPC  H14Z 2360   1.916   2.364   3.704
   21DMPC     N 2361   3.421   5.013   5.190
   21DMPC   C13 2362   3.401   4.999   5.337
   21DMPC  H13A 2363   3.297   4.980   5.358
   21DMPC  H13B 2364   3.430   5.090   5.387
   21DMPC  H13C 2365   3.461   4.917   5.376
   21DMPC   C14 2366   3.380   4.886   5.124
   21DMPC  H14A 2367   3.282   4.857   5.158
   21DMPC  H14B 2368   3.452   4.809   5.147
   21DMPC  H14C 2369   3.375   4.901   5.017
   21DMPC   C15 2370   3.333   5.121   5.140
   21DMPC  H15A 2371   3.230   5.098   5.162
   21DMPC  H15B 2372   3.344   5.132   5.033
   21DMPC  H15C 2373   3.358   5.215   5.188
   21DMPC   C12 2374   3.564   5.049   5.160
   21DMPC  H12A 2375   3.584   5.145   5.207
   21DMPC  H12B 2376   3.573   5.063   5.053
   21DMPC   C11 2377   3.675   4.951   5.204
   21DMPC  H11A 2378   3.671   4.939   5.315
   21DMPC  H11B 2379   3.772   4.998   5.177
   21DMPC     P 2380   3.758   4.714   5.175
   21DMPC   O13 2381   3.709   4.645   5.296
   21DMPC   O14 2382   3.895   4.773   5.182
   21DMPC   O11 2383   3.749   4.618   5.051
   21DMPC   O12 2384   3.658   4.828   5.136
   21DMPC    C1 2385   3.836   4.630   4.937
   21DMPC    HA 2386   3.805   4.552   4.863
   21DMPC    HB 2387   3.941   4.607   4.965
   21DMPC    C2 2388   3.831   4.768   4.863
   21DMPC    HS 2389   3.880   4.840   4.932
   21DMPC   O21 2390   3.693   4.803   4.843
   21DMPC   C21 2391   3.676   4.931   4.820
   21DMPC   O22 2392   3.766   5.015   4.822
   21DMPC   C22 2393   3.530   4.961   4.791
   21DMPC   H2R 2394   3.493   5.037   4.863
   21DMPC   H2S 2395   3.469   4.869   4.803
   21DMPC    C3 2396   3.913   4.768   4.730
   21DMPC    HX 2397   4.016   4.733   4.755
   21DMPC    HY 2398   3.924   4.873   4.696
   21DMPC   O31 2399   3.850   4.692   4.624
   21DMPC   C31 2400   3.907   4.577   4.591
   21DMPC   O32 2401   4.005   4.529   4.644
   21DMPC   C32 2402   3.833   4.517   4.471
   21DMPC   H2X 2403   3.826   4.594   4.391
   21DMPC   H2Y 2404   3.730   4.489   4.503
   21DMPC   C23 2405   3.517   5.014   4.648
   21DMPC   H3R 2406   3.561   4.942   4.577
   21DMPC   H3S 2407   3.575   5.109   4.640
   21DMPC   C24 2408   3.372   5.043   4.606
   21DMPC   H4R 2409   3.323   5.103   4.685
   21DMPC   H4S 2410   3.317   4.947   4.597
   21DMPC   C25 2411   3.364   5.121   4.474
   21DMPC   H5R 2412   3.412   5.062   4.393
   21DMPC   H5S 2413   3.424   5.214   4.486
   21DMPC   C26 2414   3.222   5.161   4.433
   21DMPC   H6R 2415   3.230   5.227   4.343
   21DMPC   H6S 2416   3.176   5.221   4.514
   21DMPC   C27 2417   3.128   5.044   4.398
   21DMPC   H7R 2418   3.032   5.088   4.364
   21DMPC   H7S 2419   3.107   4.985   4.489
   21DMPC   C28 2420   3.184   4.951   4.289
   21DMPC   H8R 2421   3.268   4.892   4.333
   21DMPC   H8S 2422   3.226   5.012   4.206
   21DMPC   C29 2423   3.081   4.853   4.231
   21DMPC   H9R 2424   3.027   4.803   4.313
   21DMPC   H9S 2425   3.136   4.775   4.173
   21DMPC  C210 2426   2.982   4.921   4.135
   21DMPC  H10R 2427   3.040   4.967   4.052
   21DMPC  H10S 2428   2.928   5.003   4.188
   21DMPC  C211 2429   2.878   4.825   4.075
   21DMPC  H11R 2430   2.803   4.800   4.153
   21DMPC  H11S 2431   2.929   4.730   4.046
   21DMPC  C212 2432   2.807   4.880   3.950
   21DMPC  H12R 2433   2.733   4.805   3.916
   21DMPC  H12S 2434   2.883   4.892   3.870
   21DMPC  C213 2435   2.737   5.015   3.970
   21DMPC  H13R 2436   2.812   5.091   4.003
   21DMPC  H13S 2437   2.662   5.005   4.051
   21DMPC  C214 2438   2.668   5.068   3.844
   21DMPC  H14R 2439   2.622   5.167   3.865
   21DMPC  H14S 2440   2.589   4.998   3.811
   21DMPC  H14T 2441   2.742   5.080   3.762
   21DMPC   C33 2442   3.907   4.393   4.419
   21DMPC   H3X 2443   3.913   4.317   4.500
   21DMPC   H3Y 2444   4.011   4.421   4.390
   21DMPC   C34 2445   3.837   4.329   4.298
   21DMPC   H4X 2446   3.835   4.403   4.215
   21DMPC   H4Y 2447   3.732   4.305   4.325
   21DMPC   C35 2448   3.907   4.200   4.252
   21DMPC   H5X 2449   3.909   4.129   4.337
   21DMPC   H5Y 2450   4.012   4.224   4.224
   21DMPC   C36 2451   3.839   4.131   4.132
   21DMPC   H6X 2452   3.732   4.114   4.155
   21DMPC   H6Y 2453   3.887   4.032   4.118
   21DMPC   C37 2454   3.852   4.208   4.000
   21DMPC   H7X 2455   3.960   4.230   3.982
   21DMPC   H7Y 2456   3.799   4.305   4.010
   21DMPC   C38 2457   3.797   4.132   3.879
   21DMPC   H8X 2458   3.689   4.111   3.895
   21DMPC   H8Y 2459   3.850   4.034   3.871
   21DMPC   C39 2460   3.815   4.210   3.747
   21DMPC   H9X 2461   3.922   4.237   3.735
   21DMPC   H9Y 2462   3.757   4.305   3.755
   21DMPC  C310 2463   3.769   4.135   3.621
   21DMPC  H10X 2464   3.774   4.207   3.537
   21DMPC  H10Y 2465   3.663   4.103   3.633
   21DMPC  C311 2466   3.854   4.012   3.586
   21DMPC  H11X 2467   3.831   3.931   3.660
   21DMPC  H11Y 2468   3.962   4.038   3.597
   21DMPC  C312 2469   3.830   3.958   3.444
   21DMPC  H12X 2470   3.721   3.949   3.426
   21DMPC  H12Y 2471   3.874   3.856   3.438
   21DMPC  C313 2472   3.894   4.044   3.334
   21DMPC  H13X 2473   4.004   4.050   3.354
   21DMPC  H13Y 2474   3.854   4.147   3.340
   21DMPC  C314 2475   3.874   3.991   3.192
   21DMPC  H14X 2476   3.925   4.056   3.119
   21DMPC  H14Y 2477   3.766   3.988   3.167
   21DMPC  H14Z 2478   3.915   3.888   3.183
   22DMPC     N 2479   3.857   4.262   5.332
   22DMPC   C13 2480   3.952   4.173   5.405
   22DMPC  H13A 2481   3.984   4.221   5.496
   22DMPC  H13B 2482   4.038   4.153   5.343
   22DMPC  H13C 2483   3.902   4.080   5.430
   22DMPC   C14 2484   3.740   4.284   5.421
   22DMPC  H14A 2485   3.770   4.336   5.511
   22DMPC  H14B 2486   3.695   4.189   5.447
   22DMPC  H14C 2487   3.667   4.344   5.367
   22DMPC   C15 2488   3.925   4.392   5.306
   22DMPC  H15A 2489   3.853   4.461   5.264
   22DMPC  H15B 2490   4.006   4.376   5.236
   22DMPC  H15C 2491   3.963   4.432   5.398
   22DMPC   C12 2492   3.817   4.196   5.203
   22DMPC  H12A 2493   3.761   4.106   5.228
   22DMPC  H12B 2494   3.908   4.164   5.153
   22DMPC   C11 2495   3.734   4.277   5.101
   22DMPC  H11A 2496   3.714   4.208   5.015
   22DMPC  H11B 2497   3.796   4.361   5.062
   22DMPC     P 2498   3.482   4.315   5.089
   22DMPC   O13 2499   3.386   4.413   5.146
   22DMPC   O14 2500   3.439   4.173   5.097
   22DMPC   O11 2501   3.515   4.351   4.939
   22DMPC   O12 2502   3.618   4.330   5.162
   22DMPC    C1 2503   3.485   4.480   4.884
   22DMPC    HA 2504   3.561   4.505   4.806
   22DMPC    HB 2505   3.492   4.561   4.961
   22DMPC    C2 2506   3.345   4.486   4.817
   22DMPC    HS 2507   3.271   4.461   4.896
   22DMPC   O21 2508   3.343   4.390   4.710
   22DMPC   C21 2509   3.220   4.363   4.669
   22DMPC   O22 2510   3.118   4.396   4.727
   22DMPC   C22 2511   3.229   4.294   4.532
   22DMPC   H2R 2512   3.294   4.204   4.540
   22DMPC   H2S 2513   3.278   4.367   4.463
   22DMPC    C3 2514   3.315   4.630   4.764
   22DMPC    HX 2515   3.330   4.698   4.851
   22DMPC    HY 2516   3.207   4.639   4.738
   22DMPC   O31 2517   3.404   4.671   4.658
   22DMPC   C31 2518   3.356   4.660   4.534
   22DMPC   O32 2519   3.243   4.626   4.505
   22DMPC   C32 2520   3.466   4.695   4.434
   22DMPC   H2X 2521   3.563   4.656   4.470
   22DMPC   H2Y 2522   3.472   4.805   4.424
   22DMPC   C23 2523   3.091   4.255   4.475
   22DMPC   H3R 2524   3.010   4.314   4.523
   22DMPC   H3S 2525   3.073   4.148   4.497
   22DMPC   C24 2526   3.078   4.280   4.323
   22DMPC   H4R 2527   3.077   4.390   4.307
   22DMPC   H4S 2528   2.980   4.240   4.289
   22DMPC   C25 2529   3.191   4.220   4.237
   22DMPC   H5R 2530   3.190   4.109   4.244
   22DMPC   H5S 2531   3.289   4.256   4.276
   22DMPC   C26 2532   3.181   4.263   4.090
   22DMPC   H6R 2533   3.159   4.372   4.087
   22DMPC   H6S 2534   3.097   4.209   4.042
   22DMPC   C27 2535   3.311   4.239   4.011
   22DMPC   H7R 2536   3.333   4.130   4.008
   22DMPC   H7S 2537   3.395   4.289   4.064
   22DMPC   C28 2538   3.305   4.295   3.867
   22DMPC   H8R 2539   3.274   4.401   3.871
   22DMPC   H8S 2540   3.228   4.238   3.811
   22DMPC   C29 2541   3.439   4.283   3.793
   22DMPC   H9R 2542   3.473   4.177   3.804
   22DMPC   H9S 2543   3.516   4.347   3.841
   22DMPC  C210 2544   3.432   4.313   3.643
   22DMPC  H10R 2545   3.335   4.277   3.602
   22DMPC  H10S 2546   3.513   4.255   3.593
   22DMPC  C211 2547   3.454   4.460   3.601
   22DMPC  H11R 2548   3.470   4.459   3.491
   22DMPC  H11S 2549   3.546   4.500   3.648
   22DMPC  C212 2550   3.335   4.552   3.631
   22DMPC  H12R 2551   3.333   4.574   3.740
   22DMPC  H12S 2552   3.241   4.499   3.605
   22DMPC  C213 2553   3.336   4.686   3.554
   22DMPC  H13R 2554   3.431   4.739   3.575
   22DMPC  H13S 2555   3.252   4.748   3.593
   22DMPC  C214 2556   3.317   4.672   3.402
   22DMPC  H14R 2557   3.225   4.614   3.380
   22DMPC  H14S 2558   3.307   4.772   3.355
   22DMPC  H14T 2559   3.404   4.620   3.356
   22DMPC   C33 2560   3.433   4.633   4.296
   22DMPC   H3X 2561   3.335   4.671   4.261
   22DMPC   H3Y 2562   3.426   4.523   4.305
   22DMPC   C34 2563   3.539   4.668   4.190
   22DMPC   H4X 2564   3.636   4.625   4.221
   22DMPC   H4Y 2565   3.549   4.778   4.186
   22DMPC   C35 2566   3.502   4.618   4.049
   22DMPC   H5X 2567   3.403   4.659   4.023
   22DMPC   H5Y 2568   3.494   4.507   4.050
   22DMPC   C36 2569   3.603   4.661   3.942
   22DMPC   H6X 2570   3.624   4.770   3.954
   22DMPC   H6Y 2571   3.557   4.646   3.841
   22DMPC   C37 2572   3.736   4.585   3.946
   22DMPC   H7X 2573   3.716   4.479   3.920
   22DMPC   H7Y 2574   3.777   4.589   4.049
   22DMPC   C38 2575   3.840   4.643   3.848
   22DMPC   H8X 2576   3.862   4.748   3.877
   22DMPC   H8Y 2577   3.796   4.643   3.746
   22DMPC   C39 2578   3.972   4.564   3.844
   22DMPC   H9X 2579   4.035   4.608   3.763
   22DMPC   H9Y 2580   3.950   4.459   3.817
   22DMPC  C310 2581   4.053   4.567   3.974
   22DMPC  H10X 2582   3.994   4.521   4.056
   22DMPC  H10Y 2583   4.072   4.673   4.001
   22DMPC  C311 2584   4.187   4.491   3.962
   22DMPC  H11X 2585   4.245   4.533   3.877
   22DMPC  H11Y 2586   4.164   4.385   3.940
   22DMPC  C312 2587   4.273   4.498   4.089
   22DMPC  H12X 2588   4.358   4.427   4.078
   22DMPC  H12Y 2589   4.212   4.465   4.176
   22DMPC  C313 2590   4.331   4.637   4.118
   22DMPC  H13X 2591   4.248   4.710   4.128
   22DMPC  H13Y 2592   4.392   4.668   4.031
   22DMPC  C314 2593   4.417   4.645   4.244
   22DMPC  H14X 2594   4.460   4.747   4.256
   22DMPC  H14Y 2595   4.501   4.573   4.238
   22DMPC  H14Z 2596   4.357   4.622   4.334
   23DMPC     N 2597   0.292   3.377   4.712
   23DMPC   C13 2598   0.365   3.503   4.683
   23DMPC  H13A 2599   0.413   3.538   4.773
   23DMPC  H13B 2600   0.295   3.578   4.649
   23DMPC  H13C 2601   0.439   3.485   4.607
   23DMPC   C14 2602   0.384   3.282   4.779
   23DMPC  H14A 2603   0.461   3.251   4.710
   23DMPC  H14B 2604   0.331   3.195   4.815
   23DMPC  H14C 2605   0.432   3.331   4.863
   23DMPC   C15 2606   0.181   3.411   4.805
   23DMPC  H15A 2607   0.222   3.458   4.894
   23DMPC  H15B 2608   0.126   3.322   4.832
   23DMPC  H15C 2609   0.114   3.481   4.757
   23DMPC   C12 2610   0.234   3.316   4.586
   23DMPC  H12A 2611   0.177   3.394   4.536
   23DMPC  H12B 2612   0.164   3.239   4.615
   23DMPC   C11 2613   0.332   3.254   4.483
   23DMPC  H11A 2614   0.275   3.230   4.391
   23DMPC  H11B 2615   0.369   3.158   4.526
   23DMPC     P 2616   0.579   3.291   4.427
   23DMPC   O13 2617   0.617   3.207   4.543
   23DMPC   O14 2618   0.669   3.405   4.394
   23DMPC   O11 2619   0.561   3.200   4.300
   23DMPC   O12 2620   0.435   3.347   4.452
   23DMPC    C1 2621   0.593   3.060   4.301
   23DMPC    HA 2622   0.538   3.011   4.218
   23DMPC    HB 2623   0.560   3.010   4.395
   23DMPC    C2 2624   0.745   3.031   4.278
   23DMPC    HS 2625   0.799   3.072   4.367
   23DMPC   O21 2626   0.786   3.101   4.158
   23DMPC   C21 2627   0.916   3.116   4.150
   23DMPC   O22 2628   0.996   3.076   4.233
   23DMPC   C22 2629   0.951   3.192   4.022
   23DMPC   H2R 2630   0.888   3.284   4.017
   23DMPC   H2S 2631   0.928   3.128   3.935
   23DMPC    C3 2632   0.772   2.877   4.271
   23DMPC    HX 2633   0.738   2.836   4.369
   23DMPC    HY 2634   0.881   2.859   4.263
   23DMPC   O31 2635   0.703   2.816   4.159
   23DMPC   C31 2636   0.685   2.684   4.170
   23DMPC   O32 2637   0.723   2.616   4.264
   23DMPC   C32 2638   0.612   2.633   4.047
   23DMPC   H2X 2639   0.686   2.612   3.967
   23DMPC   H2Y 2640   0.540   2.710   4.012
   23DMPC   C23 2641   1.100   3.232   4.022
   23DMPC   H3R 2642   1.163   3.141   4.025
   23DMPC   H3S 2643   1.121   3.291   4.114
   23DMPC   C24 2644   1.143   3.318   3.902
   23DMPC   H4R 2645   1.245   3.358   3.922
   23DMPC   H4S 2646   1.074   3.406   3.893
   23DMPC   C25 2647   1.147   3.243   3.768
   23DMPC   H5R 2648   1.046   3.205   3.743
   23DMPC   H5S 2649   1.215   3.155   3.779
   23DMPC   C26 2650   1.198   3.329   3.651
   23DMPC   H6R 2651   1.299   3.369   3.676
   23DMPC   H6S 2652   1.130   3.416   3.637
   23DMPC   C27 2653   1.207   3.251   3.518
   23DMPC   H7R 2654   1.109   3.202   3.498
   23DMPC   H7S 2655   1.284   3.172   3.529
   23DMPC   C28 2656   1.242   3.340   3.398
   23DMPC   H8R 2657   1.335   3.398   3.422
   23DMPC   H8S 2658   1.160   3.412   3.381
   23DMPC   C29 2659   1.268   3.259   3.269
   23DMPC   H9R 2660   1.354   3.191   3.288
   23DMPC   H9S 2661   1.179   3.196   3.246
   23DMPC  C210 2662   1.302   3.346   3.147
   23DMPC  H10R 2663   1.348   3.282   3.069
   23DMPC  H10S 2664   1.379   3.420   3.177
   23DMPC  C211 2665   1.183   3.422   3.085
   23DMPC  H11R 2666   1.222   3.493   3.009
   23DMPC  H11S 2667   1.133   3.482   3.164
   23DMPC  C212 2668   1.078   3.333   3.016
   23DMPC  H12R 2669   0.994   3.398   2.983
   23DMPC  H12S 2670   1.036   3.260   3.089
   23DMPC  C213 2671   1.130   3.257   2.892
   23DMPC  H13R 2672   1.211   3.188   2.924
   23DMPC  H13S 2673   1.175   3.332   2.823
   23DMPC  C214 2674   1.024   3.177   2.817
   23DMPC  H14R 2675   0.941   3.243   2.785
   23DMPC  H14S 2676   0.982   3.097   2.882
   23DMPC  H14T 2677   1.068   3.129   2.727
   23DMPC   C33 2678   0.535   2.504   4.082
   23DMPC   H3X 2679   0.464   2.524   4.165
   23DMPC   H3Y 2680   0.606   2.425   4.117
   23DMPC   C34 2681   0.455   2.449   3.963
   23DMPC   H4X 2682   0.525   2.422   3.881
   23DMPC   H4Y 2683   0.388   2.529   3.926
   23DMPC   C35 2684   0.371   2.325   4.000
   23DMPC   H5X 2685   0.302   2.353   4.083
   23DMPC   H5Y 2686   0.439   2.245   4.037
   23DMPC   C36 2687   0.288   2.269   3.883
   23DMPC   H6X 2688   0.233   2.179   3.920
   23DMPC   H6Y 2689   0.357   2.236   3.802
   23DMPC   C37 2690   0.185   2.368   3.826
   23DMPC   H7X 2691   0.239   2.454   3.781
   23DMPC   H7Y 2692   0.123   2.407   3.910
   23DMPC   C38 2693   0.092   2.308   3.720
   23DMPC   H8X 2694   0.019   2.386   3.691
   23DMPC   H8Y 2695   0.035   2.223   3.764
   23DMPC   C39 2696   0.165   2.260   3.594
   23DMPC   H9X 2697   0.224   2.168   3.617
   23DMPC   H9Y 2698   0.235   2.339   3.561
   23DMPC  C310 2699   0.069   2.230   3.477
   23DMPC  H10X 2700   0.011   2.322   3.455
   23DMPC  H10Y 2701   6.289   2.150   3.508
   23DMPC  C311 2702   0.142   2.186   3.349
   23DMPC  H11X 2703   0.185   2.084   3.365
   23DMPC  H11Y 2704   0.226   2.256   3.330
   23DMPC  C312 2705   0.052   2.185   3.223
   23DMPC  H12X 2706   0.113   2.148   3.138
   23DMPC  H12Y 2707   0.024   2.290   3.200
   23DMPC  C313 2708   6.215   2.102   3.234
   23DMPC  H13X 2709   6.161   2.108   3.136
   23DMPC  H13Y 2710   6.149   2.147   3.311
   23DMPC  C314 2711   6.235   1.954   3.268
   23DMPC  H14X 2712   6.282   1.943   3.368
   23DMPC  H14Y 2713   0.010   1.905   3.193
   23DMPC  H14Z 2714   6.138   1.900   3.269
   24DMPC     N 2715   3.909   1.379   5.132
   24DMPC   C13 2716   3.862   1.461   5.247
   24DMPC  H13A 2717   3.829   1.397   5.327
   24DMPC  H13B 2718   3.781   1.525   5.216
   24DMPC  H13C 2719   3.945   1.522   5.282
   24DMPC   C14 2720   4.021   1.293   5.180
   24DMPC  H14A 2721   3.987   1.224   5.255
   24DMPC  H14B 2722   4.098   1.357   5.223
   24DMPC  H14C 2723   4.064   1.239   5.097
   24DMPC   C15 2724   3.796   1.293   5.086
   24DMPC  H15A 2725   3.716   1.357   5.050
   24DMPC  H15B 2726   3.759   1.233   5.169
   24DMPC  H15C 2727   3.829   1.228   5.007
   24DMPC   C12 2728   3.955   1.471   5.021
   24DMPC  H12A 2729   4.040   1.526   5.059
   24DMPC  H12B 2730   3.875   1.542   5.003
   24DMPC   C11 2731   3.993   1.409   4.885
   24DMPC  H11A 2732   4.025   1.492   4.818
   24DMPC  H11B 2733   3.901   1.362   4.841
   24DMPC     P 2734   4.141   1.235   4.774
   24DMPC   O13 2735   4.231   1.125   4.816
   24DMPC   O14 2736   4.196   1.329   4.674
   24DMPC   O11 2737   4.004   1.178   4.720
   24DMPC   O12 2738   4.097   1.314   4.902
   24DMPC    C1 2739   3.974   1.038   4.719
   24DMPC    HA 2740   3.865   1.027   4.700
   24DMPC    HB 2741   3.994   0.991   4.818
   24DMPC    C2 2742   4.049   0.958   4.608
   24DMPC    HS 2743   4.155   0.950   4.641
   24DMPC   O21 2744   4.040   1.034   4.486
   24DMPC   C21 2745   4.131   1.000   4.397
   24DMPC   O22 2746   4.215   0.914   4.413
   24DMPC   C22 2747   4.114   1.084   4.270
   24DMPC   H2R 2748   4.178   1.041   4.190
   24DMPC   H2S 2749   4.149   1.188   4.291
   24DMPC    C3 2750   3.991   0.813   4.593
   24DMPC    HX 2751   3.995   0.767   4.694
   24DMPC    HY 2752   4.058   0.752   4.528
   24DMPC   O31 2753   3.853   0.813   4.549
   24DMPC   C31 2754   3.834   0.793   4.419
   24DMPC   O32 2755   3.922   0.766   4.338
   24DMPC   C32 2756   3.686   0.813   4.385
   24DMPC   H2X 2757   3.656   0.914   4.420
   24DMPC   H2Y 2758   3.624   0.737   4.438
   24DMPC   C23 2759   3.967   1.088   4.224
   24DMPC   H3R 2760   3.904   1.127   4.307
   24DMPC   H3S 2761   3.933   0.985   4.200
   24DMPC   C24 2762   3.943   1.177   4.101
   24DMPC   H4R 2763   3.993   1.133   4.013
   24DMPC   H4S 2764   3.988   1.277   4.120
   24DMPC   C25 2765   3.793   1.196   4.073
   24DMPC   H5R 2766   3.745   1.238   4.164
   24DMPC   H5S 2767   3.746   1.096   4.053
   24DMPC   C26 2768   3.761   1.290   3.956
   24DMPC   H6R 2769   3.815   1.386   3.970
   24DMPC   H6S 2770   3.651   1.312   3.959
   24DMPC   C27 2771   3.793   1.232   3.817
   24DMPC   H7R 2772   3.743   1.133   3.809
   24DMPC   H7S 2773   3.903   1.215   3.808
   24DMPC   C28 2774   3.745   1.321   3.702
   24DMPC   H8R 2775   3.804   1.415   3.701
   24DMPC   H8S 2776   3.638   1.348   3.721
   24DMPC   C29 2777   3.753   1.253   3.565
   24DMPC   H9R 2778   3.699   1.155   3.573
   24DMPC   H9S 2779   3.859   1.231   3.539
   24DMPC  C210 2780   3.686   1.333   3.451
   24DMPC  H10R 2781   3.591   1.374   3.490
   24DMPC  H10S 2782   3.661   1.264   3.368
   24DMPC  C211 2783   3.772   1.448   3.395
   24DMPC  H11R 2784   3.832   1.494   3.476
   24DMPC  H11S 2785   3.703   1.526   3.356
   24DMPC  C212 2786   3.863   1.406   3.278
   24DMPC  H12R 2787   3.799   1.359   3.200
   24DMPC  H12S 2788   3.937   1.331   3.313
   24DMPC  C213 2789   3.936   1.525   3.214
   24DMPC  H13R 2790   4.005   1.569   3.290
   24DMPC  H13S 2791   3.861   1.603   3.188
   24DMPC  C214 2792   4.016   1.490   3.088
   24DMPC  H14R 2793   4.064   1.581   3.046
   24DMPC  H14S 2794   3.949   1.447   3.011
   24DMPC  H14T 2795   4.095   1.416   3.112
   24DMPC   C33 2796   3.663   0.803   4.233
   24DMPC   H3X 2797   3.742   0.860   4.179
   24DMPC   H3Y 2798   3.566   0.852   4.208
   24DMPC   C34 2799   3.655   0.659   4.179
   24DMPC   H4X 2800   3.550   0.624   4.187
   24DMPC   H4Y 2801   3.718   0.593   4.244
   24DMPC   C35 2802   3.705   0.643   4.035
   24DMPC   H5X 2803   3.664   0.726   3.973
   24DMPC   H5Y 2804   3.666   0.547   3.994
   24DMPC   C36 2805   3.859   0.640   4.025
   24DMPC   H6X 2806   3.894   0.553   4.084
   24DMPC   H6Y 2807   3.901   0.732   4.072
   24DMPC   C37 2808   3.914   0.628   3.883
   24DMPC   H7X 2809   3.864   0.544   3.830
   24DMPC   H7Y 2810   4.023   0.603   3.891
   24DMPC   C38 2811   3.900   0.758   3.801
   24DMPC   H8X 2812   3.946   0.841   3.859
   24DMPC   H8Y 2813   3.792   0.781   3.789
   24DMPC   C39 2814   3.964   0.752   3.661
   24DMPC   H9X 2815   3.945   0.850   3.611
   24DMPC   H9Y 2816   3.913   0.673   3.602
   24DMPC  C310 2817   4.116   0.725   3.658
   24DMPC  H10X 2818   4.151   0.734   3.553
   24DMPC  H10Y 2819   4.134   0.620   3.690
   24DMPC  C311 2820   4.202   0.818   3.747
   24DMPC  H11X 2821   4.309   0.791   3.732
   24DMPC  H11Y 2822   4.177   0.799   3.853
   24DMPC  C312 2823   4.184   0.968   3.717
   24DMPC  H12X 2824   4.078   0.996   3.731
   24DMPC  H12Y 2825   4.212   0.987   3.611
   24DMPC  C313 2826   4.269   1.057   3.809
   24DMPC  H13X 2827   4.377   1.034   3.792
   24DMPC  H13Y 2828   4.245   1.032   3.915
   24DMPC  C314 2829   4.246   1.207   3.787
   24DMPC  H14X 2830   4.139   1.232   3.803
   24DMPC  H14Y 2831   4.274   1.236   3.684
   24DMPC  H14Z 2832   4.306   1.266   3.858
   25DMPC     N 2833   4.278   3.413   5.211
   25DMPC   C13 2834   4.262   3.538   5.290
   25DMPC  H13A 2835   4.341   3.543   5.365
   25DMPC  H13B 2836   4.167   3.539   5.341
   25DMPC  H13C 2837   4.270   3.625   5.226
   25DMPC   C14 2838   4.272   3.297   5.303
   25DMPC  H14A 2839   4.354   3.303   5.374
   25DMPC  H14B 2840   4.282   3.205   5.247
   25DMPC  H14C 2841   4.178   3.297   5.358
   25DMPC   C15 2842   4.165   3.404   5.114
   25DMPC  H15A 2843   4.071   3.398   5.166
   25DMPC  H15B 2844   4.178   3.315   5.053
   25DMPC  H15C 2845   4.165   3.490   5.049
   25DMPC   C12 2846   4.411   3.418   5.140
   25DMPC  H12A 2847   4.486   3.445   5.214
   25DMPC  H12B 2848   4.407   3.499   5.067
   25DMPC   C11 2849   4.461   3.291   5.068
   25DMPC  H11A 2850   4.483   3.212   5.144
   25DMPC  H11B 2851   4.557   3.319   5.018
   25DMPC     P 2852   4.409   3.147   4.864
   25DMPC   O13 2853   4.288   3.081   4.812
   25DMPC   O14 2854   4.519   3.061   4.912
   25DMPC   O11 2855   4.466   3.245   4.754
   25DMPC   O12 2856   4.363   3.245   4.977
   25DMPC    C1 2857   4.388   3.356   4.706
   25DMPC    HA 2858   4.446   3.449   4.724
   25DMPC    HB 2859   4.291   3.370   4.760
   25DMPC    C2 2860   4.355   3.347   4.554
   25DMPC    HS 2861   4.272   3.272   4.545
   25DMPC   O21 2862   4.462   3.294   4.474
   25DMPC   C21 2863   4.571   3.367   4.467
   25DMPC   O22 2864   4.593   3.470   4.529
   25DMPC   C22 2865   4.666   3.307   4.364
   25DMPC   H2R 2866   4.686   3.200   4.389
   25DMPC   H2S 2867   4.761   3.363   4.368
   25DMPC    C3 2868   4.296   3.481   4.498
   25DMPC    HX 2869   4.356   3.564   4.542
   25DMPC    HY 2870   4.192   3.493   4.537
   25DMPC   O31 2871   4.301   3.495   4.354
   25DMPC   C31 2872   4.209   3.426   4.288
   25DMPC   O32 2873   4.128   3.350   4.337
   25DMPC   C32 2874   4.221   3.462   4.140
   25DMPC   H2X 2875   4.321   3.433   4.102
   25DMPC   H2Y 2876   4.209   3.572   4.130
   25DMPC   C23 2877   4.604   3.319   4.223
   25DMPC   H3R 2878   4.563   3.422   4.211
   25DMPC   H3S 2879   4.520   3.248   4.212
   25DMPC   C24 2880   4.704   3.298   4.108
   25DMPC   H4R 2881   4.788   3.370   4.119
   25DMPC   H4S 2882   4.652   3.321   4.013
   25DMPC   C25 2883   4.761   3.155   4.099
   25DMPC   H5R 2884   4.678   3.083   4.084
   25DMPC   H5S 2885   4.811   3.130   4.195
   25DMPC   C26 2886   4.864   3.135   3.986
   25DMPC   H6R 2887   4.907   3.033   3.995
   25DMPC   H6S 2888   4.947   3.208   3.999
   25DMPC   C27 2889   4.807   3.151   3.844
   25DMPC   H7R 2890   4.763   3.252   3.832
   25DMPC   H7S 2891   4.727   3.076   3.828
   25DMPC   C28 2892   4.915   3.133   3.735
   25DMPC   H8R 2893   4.965   3.035   3.750
   25DMPC   H8S 2894   4.991   3.212   3.748
   25DMPC   C29 2895   4.860   3.139   3.592
   25DMPC   H9R 2896   4.803   3.233   3.578
   25DMPC   H9S 2897   4.790   3.054   3.577
   25DMPC  C210 2898   4.971   3.132   3.485
   25DMPC  H10R 2899   5.038   3.046   3.510
   25DMPC  H10S 2900   5.032   3.224   3.491
   25DMPC  C211 2901   4.920   3.112   3.341
   25DMPC  H11R 2902   4.865   3.015   3.337
   25DMPC  H11S 2903   5.008   3.103   3.274
   25DMPC  C212 2904   4.828   3.222   3.288
   25DMPC  H12R 2905   4.738   3.229   3.353
   25DMPC  H12S 2906   4.794   3.193   3.186
   25DMPC  C213 2907   4.893   3.361   3.278
   25DMPC  H13R 2908   4.985   3.353   3.216
   25DMPC  H13S 2909   4.924   3.395   3.380
   25DMPC  C214 2910   4.803   3.468   3.216
   25DMPC  H14R 2911   4.855   3.566   3.212
   25DMPC  H14S 2912   4.710   3.480   3.277
   25DMPC  H14T 2913   4.773   3.439   3.113
   25DMPC   C33 2914   4.111   3.392   4.058
   25DMPC   H3X 2915   4.012   3.406   4.107
   25DMPC   H3Y 2916   4.133   3.283   4.054
   25DMPC   C34 2917   4.101   3.448   3.915
   25DMPC   H4X 2918   4.202   3.448   3.868
   25DMPC   H4Y 2919   4.065   3.553   3.921
   25DMPC   C35 2920   4.005   3.367   3.827
   25DMPC   H5X 2921   3.909   3.355   3.882
   25DMPC   H5Y 2922   4.048   3.266   3.811
   25DMPC   C36 2923   3.978   3.432   3.691
   25DMPC   H6X 2924   4.075   3.453   3.641
   25DMPC   H6Y 2925   3.926   3.530   3.706
   25DMPC   C37 2926   3.893   3.344   3.597
   25DMPC   H7X 2927   3.942   3.245   3.587
   25DMPC   H7Y 2928   3.889   3.391   3.497
   25DMPC   C38 2929   3.749   3.324   3.648
   25DMPC   H8X 2930   3.698   3.422   3.649
   25DMPC   H8Y 2931   3.751   3.285   3.752
   25DMPC   C39 2932   3.667   3.225   3.563
   25DMPC   H9X 2933   3.713   3.124   3.573
   25DMPC   H9Y 2934   3.672   3.254   3.456
   25DMPC  C310 2935   3.520   3.219   3.607
   25DMPC  H10X 2936   3.475   3.319   3.586
   25DMPC  H10Y 2937   3.514   3.201   3.716
   25DMPC  C311 2938   3.438   3.112   3.534
   25DMPC  H11X 2939   3.458   3.119   3.424
   25DMPC  H11Y 2940   3.330   3.134   3.550
   25DMPC  C312 2941   3.465   2.969   3.583
   25DMPC  H12X 2942   3.438   2.963   3.691
   25DMPC  H12Y 2943   3.573   2.946   3.573
   25DMPC  C313 2944   3.385   2.863   3.506
   25DMPC  H13X 2945   3.417   2.865   3.399
   25DMPC  H13Y 2946   3.277   2.889   3.509
   25DMPC  C314 2947   3.402   2.720   3.559
   25DMPC  H14X 2948   3.509   2.691   3.558
   25DMPC  H14Y 2949   3.344   2.649   3.497
   25DMPC  H14Z 2950   3.365   2.714   3.664
   26DMPC     N 2951   6.087   1.479   4.541
   26DMPC   C13 2952   6.058   1.400   4.663
   26DMPC  H13A 2953   6.005   1.309   4.637
   26DMPC  H13B 2954   5.996   1.458   4.731
   26DMPC  H13C 2955   6.150   1.374   4.713
   26DMPC   C14 2956   6.174   1.399   4.451
   26DMPC  H14A 2957   6.266   1.373   4.501
   26DMPC  H14B 2958   6.199   1.456   4.362
   26DMPC  H14C 2959   6.124   1.308   4.421
   26DMPC   C15 2960   5.961   1.506   4.467
   26DMPC  H15A 2961   5.984   1.558   4.375
   26DMPC  H15B 2962   5.897   1.569   4.529
   26DMPC  H15C 2963   5.910   1.414   4.445
   26DMPC   C12 2964   6.158   1.608   4.577
   26DMPC  H12A 2965   6.172   1.664   4.486
   26DMPC  H12B 2966   6.257   1.581   4.614
   26DMPC   C11 2967   6.094   1.701   4.682
   26DMPC  H11A 2968   6.164   1.788   4.692
   26DMPC  H11B 2969   6.090   1.649   4.781
   26DMPC     P 2970   5.908   1.872   4.705
   26DMPC   O13 2971   5.989   1.985   4.653
   26DMPC   O14 2972   5.903   1.859   4.852
   26DMPC   O11 2973   5.761   1.884   4.647
   26DMPC   O12 2974   5.963   1.739   4.642
   26DMPC    C1 2975   5.722   1.815   4.527
   26DMPC    HA 2976   5.611   1.814   4.521
   26DMPC    HB 2977   5.754   1.709   4.529
   26DMPC    C2 2978   5.774   1.880   4.394
   26DMPC    HS 2979   5.882   1.903   4.411
   26DMPC   O21 2980   5.700   2.001   4.370
   26DMPC   C21 2981   5.759   2.078   4.280
   26DMPC   O22 2982   5.871   2.058   4.235
   26DMPC   C22 2983   5.668   2.194   4.243
   26DMPC   H2R 2984   5.669   2.268   4.326
   26DMPC   H2S 2985   5.565   2.156   4.229
   26DMPC    C3 2986   5.767   1.780   4.273
   26DMPC    HX 2987   5.839   1.698   4.298
   26DMPC    HY 2988   5.808   1.826   4.181
   26DMPC   O31 2989   5.638   1.719   4.252
   26DMPC   C31 2990   5.560   1.781   4.164
   26DMPC   O32 2991   5.581   1.892   4.117
   26DMPC   C32 2992   5.441   1.693   4.127
   26DMPC   H2X 2993   5.350   1.756   4.125
   26DMPC   H2Y 2994   5.428   1.614   4.203
   26DMPC   C23 2995   5.718   2.258   4.113
   26DMPC   H3R 2996   5.725   2.180   4.034
   26DMPC   H3S 2997   5.820   2.301   4.129
   26DMPC   C24 2998   5.625   2.369   4.062
   26DMPC   H4R 2999   5.619   2.449   4.139
   26DMPC   H4S 3000   5.523   2.327   4.048
   26DMPC   C25 3001   5.673   2.430   3.929
   26DMPC   H5R 3002   5.683   2.348   3.854
   26DMPC   H5S 3003   5.773   2.476   3.944
   26DMPC   C26 3004   5.576   2.535   3.874
   26DMPC   H6R 3005   5.566   2.618   3.948
   26DMPC   H6S 3006   5.476   2.489   3.860
   26DMPC   C27 3007   5.621   2.594   3.740
   26DMPC   H7R 3008   5.723   2.638   3.753
   26DMPC   H7S 3009   5.629   2.512   3.665
   26DMPC   C28 3010   5.526   2.702   3.687
   26DMPC   H8R 3011   5.521   2.785   3.762
   26DMPC   H8S 3012   5.424   2.659   3.679
   26DMPC   C29 3013   5.565   2.760   3.551
   26DMPC   H9R 3014   5.494   2.842   3.526
   26DMPC   H9S 3015   5.554   2.682   3.473
   26DMPC  C210 3016   5.708   2.815   3.546
   26DMPC  H10R 3017   5.779   2.730   3.549
   26DMPC  H10S 3018   5.726   2.879   3.635
   26DMPC  C211 3019   5.737   2.898   3.420
   26DMPC  H11R 3020   5.677   2.992   3.425
   26DMPC  H11S 3021   5.704   2.841   3.330
   26DMPC  C212 3022   5.886   2.933   3.405
   26DMPC  H12R 3023   5.943   2.838   3.394
   26DMPC  H12S 3024   5.921   2.984   3.497
   26DMPC  C213 3025   5.915   3.023   3.284
   26DMPC  H13R 3026   5.873   2.976   3.193
   26DMPC  H13S 3027   5.864   3.120   3.298
   26DMPC  C214 3028   6.064   3.047   3.261
   26DMPC  H14R 3029   6.117   2.951   3.242
   26DMPC  H14S 3030   6.110   3.096   3.349
   26DMPC  H14T 3031   6.079   3.112   3.172
   26DMPC   C33 3032   5.465   1.631   3.989
   26DMPC   H3X 3033   5.562   1.576   3.990
   26DMPC   H3Y 3034   5.472   1.711   3.912
   26DMPC   C34 3035   5.355   1.532   3.948
   26DMPC   H4X 3036   5.259   1.587   3.935
   26DMPC   H4Y 3037   5.342   1.459   4.031
   26DMPC   C35 3038   5.386   1.453   3.820
   26DMPC   H5X 3039   5.306   1.377   3.806
   26DMPC   H5Y 3040   5.482   1.398   3.833
   26DMPC   C36 3041   5.394   1.538   3.693
   26DMPC   H6X 3042   5.482   1.605   3.699
   26DMPC   H6Y 3043   5.303   1.602   3.686
   26DMPC   C37 3044   5.403   1.452   3.566
   26DMPC   H7X 3045   5.313   1.388   3.561
   26DMPC   H7Y 3046   5.492   1.385   3.575
   26DMPC   C38 3047   5.416   1.531   3.435
   26DMPC   H8X 3048   5.331   1.602   3.426
   26DMPC   H8Y 3049   5.408   1.459   3.350
   26DMPC   C39 3050   5.549   1.606   3.422
   26DMPC   H9X 3051   5.632   1.535   3.441
   26DMPC   H9Y 3052   5.554   1.687   3.498
   26DMPC  C310 3053   5.571   1.669   3.283
   26DMPC  H10X 3054   5.490   1.741   3.261
   26DMPC  H10Y 3055   5.567   1.588   3.206
   26DMPC  C311 3056   5.707   1.740   3.272
   26DMPC  H11X 3057   5.787   1.668   3.301
   26DMPC  H11Y 3058   5.709   1.824   3.344
   26DMPC  C312 3059   5.738   1.793   3.132
   26DMPC  H12X 3060   5.663   1.871   3.105
   26DMPC  H12Y 3061   5.729   1.710   3.059
   26DMPC  C313 3062   5.879   1.854   3.121
   26DMPC  H13X 3063   5.953   1.776   3.150
   26DMPC  H13Y 3064   5.887   1.938   3.193
   26DMPC  C314 3065   5.914   1.904   2.981
   26DMPC  H14X 3066   5.911   1.821   2.907
   26DMPC  H14Y 3067   6.016   1.948   2.981
   26DMPC  H14Z 3068   5.842   1.983   2.949
   27DMPC     N 3069   0.579   2.108   4.699
   27DMPC   C13 3070   0.481   2.158   4.600
   27DMPC  H13A 3071   0.532   2.209   4.520
   27DMPC  H13B 3072   0.413   2.227   4.649
   27DMPC  H13C 3073   0.424   2.075   4.562
   27DMPC   C14 3074   0.672   2.013   4.634
   27DMPC  H14A 3075   0.746   1.981   4.707
   27DMPC  H14B 3076   0.724   2.061   4.553
   27DMPC  H14C 3077   0.619   1.926   4.598
   27DMPC   C15 3078   0.659   2.225   4.748
   27DMPC  H15A 3079   0.711   2.270   4.665
   27DMPC  H15B 3080   0.731   2.191   4.821
   27DMPC  H15C 3081   0.594   2.298   4.794
   27DMPC   C12 3082   0.511   2.042   4.817
   27DMPC  H12A 3083   0.452   2.118   4.867
   27DMPC  H12B 3084   0.589   2.012   4.886
   27DMPC   C11 3085   0.420   1.921   4.790
   27DMPC  H11A 3086   0.392   1.878   4.889
   27DMPC  H11B 3087   0.477   1.843   4.734
   27DMPC     P 3088   0.201   1.852   4.682
   27DMPC   O13 3089   0.095   1.913   4.599
   27DMPC   O14 3090   0.157   1.783   4.805
   27DMPC   O11 3091   0.286   1.753   4.595
   27DMPC   O12 3092   0.305   1.964   4.719
   27DMPC    C1 3093   0.230   1.676   4.487
   27DMPC    HA 3094   0.120   1.665   4.492
   27DMPC    HB 3095   0.273   1.573   4.495
   27DMPC    C2 3096   0.270   1.728   4.345
   27DMPC    HS 3097   0.254   1.642   4.276
   27DMPC   O21 3098   0.407   1.771   4.351
   27DMPC   C21 3099   0.475   1.748   4.242
   27DMPC   O22 3100   0.432   1.690   4.143
   27DMPC   C22 3101   0.614   1.807   4.254
   27DMPC   H2R 3102   0.686   1.740   4.203
   27DMPC   H2S 3103   0.643   1.815   4.361
   27DMPC    C3 3104   0.178   1.846   4.300
   27DMPC    HX 3105   0.195   1.929   4.372
   27DMPC    HY 3106   0.072   1.816   4.309
   27DMPC   O31 3107   0.208   1.896   4.167
   27DMPC   C31 3108   0.161   1.821   4.068
   27DMPC   O32 3109   0.095   1.719   4.083
   27DMPC   C32 3110   0.201   1.884   3.935
   27DMPC   H2X 3111   0.307   1.918   3.941
   27DMPC   H2Y 3112   0.136   1.973   3.918
   27DMPC   C23 3113   0.615   1.945   4.188
   27DMPC   H3R 3114   0.542   2.012   4.240
   27DMPC   H3S 3115   0.582   1.935   4.082
   27DMPC   C24 3116   0.752   2.013   4.191
   27DMPC   H4R 3117   0.828   1.942   4.150
   27DMPC   H4S 3118   0.779   2.036   4.296
   27DMPC   C25 3119   0.755   2.142   4.107
   27DMPC   H5R 3120   0.676   2.210   4.144
   27DMPC   H5S 3121   0.731   2.116   4.002
   27DMPC   C26 3122   0.890   2.214   4.111
   27DMPC   H6R 3123   0.972   2.143   4.086
   27DMPC   H6S 3124   0.907   2.250   4.215
   27DMPC   C27 3125   0.896   2.335   4.016
   27DMPC   H7R 3126   0.982   2.399   4.046
   27DMPC   H7S 3127   0.804   2.395   4.028
   27DMPC   C28 3128   0.915   2.297   3.868
   27DMPC   H8R 3129   0.831   2.233   3.835
   27DMPC   H8S 3130   1.009   2.238   3.858
   27DMPC   C29 3131   0.923   2.421   3.778
   27DMPC   H9R 3132   1.000   2.489   3.820
   27DMPC   H9S 3133   0.826   2.474   3.781
   27DMPC  C210 3134   0.960   2.389   3.632
   27DMPC  H10R 3135   0.884   2.321   3.589
   27DMPC  H10S 3136   1.059   2.338   3.630
   27DMPC  C211 3137   0.967   2.517   3.547
   27DMPC  H11R 3138   1.044   2.585   3.589
   27DMPC  H11S 3139   0.869   2.568   3.554
   27DMPC  C212 3140   0.997   2.495   3.398
   27DMPC  H12R 3141   0.991   2.593   3.346
   27DMPC  H12S 3142   0.919   2.428   3.355
   27DMPC  C213 3143   1.136   2.434   3.369
   27DMPC  H13R 3144   1.138   2.330   3.407
   27DMPC  H13S 3145   1.212   2.493   3.425
   27DMPC  C214 3146   1.172   2.435   3.221
   27DMPC  H14R 3147   1.269   2.382   3.204
   27DMPC  H14S 3148   1.181   2.539   3.184
   27DMPC  H14T 3149   1.093   2.383   3.162
   27DMPC   C33 3150   0.185   1.786   3.819
   27DMPC   H3X 3151   0.079   1.749   3.816
   27DMPC   H3Y 3152   0.251   1.698   3.835
   27DMPC   C34 3153   0.219   1.850   3.683
   27DMPC   H4X 3154   0.322   1.892   3.688
   27DMPC   H4Y 3155   0.149   1.935   3.666
   27DMPC   C35 3156   0.211   1.754   3.563
   27DMPC   H5X 3157   0.286   1.674   3.575
   27DMPC   H5Y 3158   0.236   1.812   3.471
   27DMPC   C36 3159   0.072   1.691   3.546
   27DMPC   H6X 3160   6.287   1.773   3.551
   27DMPC   H6Y 3161   0.052   1.621   3.630
   27DMPC   C37 3162   0.053   1.616   3.413
   27DMPC   H7X 3163   0.127   1.533   3.407
   27DMPC   H7Y 3164   0.073   1.686   3.329
   27DMPC   C38 3165   6.202   1.561   3.400
   27DMPC   H8X 3166   6.130   1.644   3.417
   27DMPC   H8Y 3167   6.186   1.485   3.480
   27DMPC   C39 3168   6.171   1.498   3.263
   27DMPC   H9X 3169   6.244   1.417   3.242
   27DMPC   H9Y 3170   6.183   1.577   3.185
   27DMPC  C310 3171   6.028   1.443   3.257
   27DMPC  H10X 3172   5.958   1.522   3.293
   27DMPC  H10Y 3173   6.019   1.357   3.326
   27DMPC  C311 3174   5.985   1.401   3.116
   27DMPC  H11X 3175   6.056   1.325   3.076
   27DMPC  H11Y 3176   5.990   1.490   3.050
   27DMPC  C312 3177   5.842   1.342   3.114
   27DMPC  H12X 3178   5.774   1.413   3.167
   27DMPC  H12Y 3179   5.843   1.247   3.171
   27DMPC  C313 3180   5.786   1.317   2.974
   27DMPC  H13X 3181   5.688   1.265   2.985
   27DMPC  H13Y 3182   5.855   1.248   2.919
   27DMPC  C314 3183   5.765   1.443   2.890
   27DMPC  H14X 3184   5.702   1.516   2.945
   27DMPC  H14Y 3185   5.714   1.418   2.794
   27DMPC  H14Z 3186   5.862   1.492   2.866
   28DMPC     N 3187   1.519   4.423   4.621
   28DMPC   C13 3188   1.479   4.290   4.676
   28DMPC  H13A 3189   1.372   4.277   4.667
   28DMPC  H13B 3190   1.505   4.285   4.781
   28DMPC  H13C 3191   1.531   4.211   4.624
   28DMPC   C14 3192   1.474   4.430   4.479
   28DMPC  H14A 3193   1.367   4.415   4.475
   28DMPC  H14B 3194   1.523   4.353   4.421
   28DMPC  H14C 3195   1.497   4.527   4.437
   28DMPC   C15 3196   1.448   4.527   4.699
   28DMPC  H15A 3197   1.341   4.516   4.688
   28DMPC  H15B 3198   1.477   4.625   4.664
   28DMPC  H15C 3199   1.474   4.519   4.804
   28DMPC   C12 3200   1.669   4.437   4.630
   28DMPC  H12A 3201   1.713   4.357   4.571
   28DMPC  H12B 3202   1.697   4.420   4.733
   28DMPC   C11 3203   1.733   4.571   4.586
   28DMPC  H11A 3204   1.701   4.594   4.482
   28DMPC  H11B 3205   1.844   4.558   4.581
   28DMPC     P 3206   1.772   4.694   4.806
   28DMPC   O13 3207   1.792   4.561   4.868
   28DMPC   O14 3208   1.704   4.794   4.890
   28DMPC   O11 3209   1.913   4.750   4.762
   28DMPC   O12 3210   1.695   4.679   4.670
   28DMPC    C1 3211   1.932   4.890   4.736
   28DMPC    HA 3212   2.032   4.920   4.776
   28DMPC    HB 3213   1.857   4.955   4.787
   28DMPC    C2 3214   1.932   4.926   4.584
   28DMPC    HS 3215   1.829   4.901   4.547
   28DMPC   O21 3216   2.035   4.847   4.523
   28DMPC   C21 3217   2.005   4.806   4.401
   28DMPC   O22 3218   1.901   4.831   4.343
   28DMPC   C22 3219   2.120   4.723   4.345
   28DMPC   H2R 3220   2.165   4.661   4.425
   28DMPC   H2S 3221   2.198   4.793   4.307
   28DMPC    C3 3222   1.958   5.078   4.561
   28DMPC    HX 3223   2.061   5.100   4.600
   28DMPC    HY 3224   1.888   5.137   4.625
   28DMPC   O31 3225   1.953   5.115   4.422
   28DMPC   C31 3226   1.835   5.159   4.378
   28DMPC   O32 3227   1.738   5.181   4.449
   28DMPC   C32 3228   1.842   5.177   4.226
   28DMPC   H2X 3229   1.866   5.079   4.180
   28DMPC   H2Y 3230   1.923   5.249   4.202
   28DMPC   C23 3231   2.068   4.633   4.232
   28DMPC   H3R 3232   2.016   4.696   4.155
   28DMPC   H3S 3233   1.994   4.562   4.274
   28DMPC   C24 3234   2.177   4.553   4.158
   28DMPC   H4R 3235   2.125   4.494   4.079
   28DMPC   H4S 3236   2.225   4.481   4.228
   28DMPC   C25 3237   2.284   4.642   4.094
   28DMPC   H5R 3238   2.364   4.663   4.169
   28DMPC   H5S 3239   2.237   4.739   4.068
   28DMPC   C26 3240   2.348   4.587   3.965
   28DMPC   H6R 3241   2.401   4.492   3.986
   28DMPC   H6S 3242   2.425   4.661   3.932
   28DMPC   C27 3243   2.247   4.566   3.850
   28DMPC   H7R 3244   2.168   4.643   3.857
   28DMPC   H7S 3245   2.199   4.467   3.864
   28DMPC   C28 3246   2.308   4.572   3.709
   28DMPC   H8R 3247   2.231   4.535   3.638
   28DMPC   H8S 3248   2.396   4.505   3.702
   28DMPC   C29 3249   2.348   4.714   3.665
   28DMPC   H9R 3250   2.437   4.747   3.723
   28DMPC   H9S 3251   2.264   4.784   3.687
   28DMPC  C210 3252   2.380   4.723   3.515
   28DMPC  H10R 3253   2.290   4.693   3.457
   28DMPC  H10S 3254   2.462   4.652   3.490
   28DMPC  C211 3255   2.422   4.864   3.470
   28DMPC  H11R 3256   2.517   4.891   3.522
   28DMPC  H11S 3257   2.344   4.937   3.502
   28DMPC  C212 3258   2.442   4.876   3.319
   28DMPC  H12R 3259   2.344   4.860   3.268
   28DMPC  H12S 3260   2.511   4.795   3.285
   28DMPC  C213 3261   2.500   5.011   3.275
   28DMPC  H13R 3262   2.600   5.024   3.322
   28DMPC  H13S 3263   2.435   5.092   3.313
   28DMPC  C214 3264   2.515   5.026   3.123
   28DMPC  H14R 3265   2.416   5.020   3.074
   28DMPC  H14S 3266   2.580   4.946   3.083
   28DMPC  H14T 3267   2.561   5.124   3.099
   28DMPC   C33 3268   1.708   5.228   4.170
   28DMPC   H3X 3269   1.684   5.326   4.216
   28DMPC   H3Y 3270   1.627   5.157   4.197
   28DMPC   C34 3271   1.710   5.244   4.017
   28DMPC   H4X 3272   1.728   5.144   3.971
   28DMPC   H4Y 3273   1.795   5.310   3.990
   28DMPC   C35 3274   1.580   5.302   3.962
   28DMPC   H5X 3275   1.562   5.402   4.008
   28DMPC   H5Y 3276   1.496   5.235   3.991
   28DMPC   C36 3277   1.578   5.319   3.808
   28DMPC   H6X 3278   1.474   5.347   3.778
   28DMPC   H6Y 3279   1.601   5.221   3.761
   28DMPC   C37 3280   1.674   5.426   3.755
   28DMPC   H7X 3281   1.778   5.399   3.783
   28DMPC   H7Y 3282   1.649   5.523   3.804
   28DMPC   C38 3283   1.668   5.442   3.603
   28DMPC   H8X 3284   1.563   5.467   3.573
   28DMPC   H8Y 3285   1.694   5.344   3.556
   28DMPC   C39 3286   1.763   5.549   3.547
   28DMPC   H9X 3287   1.763   5.540   3.436
   28DMPC   H9Y 3288   1.866   5.530   3.583
   28DMPC  C310 3289   1.722   5.693   3.582
   28DMPC  H10X 3290   1.726   5.708   3.692
   28DMPC  H10Y 3291   1.616   5.709   3.550
   28DMPC  C311 3292   1.809   5.800   3.514
   28DMPC  H11X 3293   1.810   5.780   3.405
   28DMPC  H11Y 3294   1.914   5.790   3.551
   28DMPC  C312 3295   1.760   5.943   3.540
   28DMPC  H12X 3296   1.755   5.960   3.650
   28DMPC  H12Y 3297   1.657   5.953   3.499
   28DMPC  C313 3298   1.848   6.053   3.478
   28DMPC  H13X 3299   1.948   6.050   3.526
   28DMPC  H13Y 3300   1.802   6.152   3.503
   28DMPC  C314 3301   1.866   6.046   3.326
   28DMPC  H14X 3302   1.767   6.049   3.275
   28DMPC  H14Y 3303   1.918   5.952   3.297
   28DMPC  H14Z 3304   1.927   6.132   3.290
   29DMPC     N 3305   5.033   3.443   5.401
   29DMPC   C13 3306   5.035   3.297   5.431
   29DMPC  H13A 3307   4.952   3.272   5.496
   29DMPC  H13B 3308   5.128   3.270   5.478
   29DMPC  H13C 3309   5.025   3.242   5.339
   29DMPC   C14 3310   5.045   3.519   5.529
   29DMPC  H14A 3311   5.136   3.491   5.581
   29DMPC  H14B 3312   4.960   3.498   5.592
   29DMPC  H14C 3313   5.048   3.625   5.508
   29DMPC   C15 3314   5.151   3.478   5.316
   29DMPC  H15A 3315   5.242   3.446   5.365
   29DMPC  H15B 3316   5.153   3.584   5.299
   29DMPC  H15C 3317   5.142   3.427   5.221
   29DMPC   C12 3318   4.904   3.481   5.333
   29DMPC  H12A 3319   4.909   3.586   5.309
   29DMPC  H12B 3320   4.824   3.468   5.405
   29DMPC   C11 3321   4.863   3.404   5.206
   29DMPC  H11A 3322   4.763   3.440   5.171
   29DMPC  H11B 3323   4.848   3.297   5.231
   29DMPC     P 3324   4.954   3.531   5.004
   29DMPC   O13 3325   5.076   3.532   4.920
   29DMPC   O14 3326   4.922   3.657   5.076
   29DMPC   O11 3327   4.831   3.493   4.912
   29DMPC   O12 3328   4.964   3.412   5.105
   29DMPC    C1 3329   4.799   3.358   4.876
   29DMPC    HA 3330   4.694   3.356   4.839
   29DMPC    HB 3331   4.803   3.288   4.963
   29DMPC    C2 3332   4.887   3.299   4.761
   29DMPC    HS 3333   4.985   3.274   4.806
   29DMPC   O21 3334   4.896   3.400   4.658
   29DMPC   C21 3335   5.014   3.405   4.599
   29DMPC   O22 3336   5.111   3.337   4.630
   29DMPC   C22 3337   5.009   3.504   4.484
   29DMPC   H2R 3338   5.071   3.593   4.510
   29DMPC   H2S 3339   4.905   3.538   4.466
   29DMPC    C3 3340   4.823   3.169   4.702
   29DMPC    HX 3341   4.716   3.194   4.680
   29DMPC    HY 3342   4.820   3.090   4.780
   29DMPC   O31 3343   4.883   3.123   4.579
   29DMPC   C31 3344   4.991   3.047   4.593
   29DMPC   O32 3345   5.039   3.013   4.701
   29DMPC   C32 3346   5.046   3.010   4.455
   29DMPC   H2X 3347   5.003   3.078   4.379
   29DMPC   H2Y 3348   5.014   2.906   4.432
   29DMPC   C23 3349   5.065   3.437   4.357
   29DMPC   H3R 3350   5.012   3.340   4.340
   29DMPC   H3S 3351   5.173   3.416   4.370
   29DMPC   C24 3352   5.046   3.524   4.231
   29DMPC   H4R 3353   4.937   3.540   4.215
   29DMPC   H4S 3354   5.093   3.623   4.248
   29DMPC   C25 3355   5.108   3.462   4.105
   29DMPC   H5R 3356   5.067   3.359   4.091
   29DMPC   H5S 3357   5.217   3.453   4.120
   29DMPC   C26 3358   5.081   3.544   3.978
   29DMPC   H6R 3359   5.115   3.648   3.996
   29DMPC   H6S 3360   4.972   3.546   3.958
   29DMPC   C27 3361   5.155   3.490   3.855
   29DMPC   H7R 3362   5.118   3.388   3.831
   29DMPC   H7S 3363   5.263   3.481   3.880
   29DMPC   C28 3364   5.142   3.580   3.731
   29DMPC   H8R 3365   5.164   3.685   3.762
   29DMPC   H8S 3366   5.038   3.576   3.693
   29DMPC   C29 3367   5.241   3.542   3.620
   29DMPC   H9R 3368   5.218   3.439   3.583
   29DMPC   H9S 3369   5.343   3.541   3.664
   29DMPC  C210 3370   5.241   3.640   3.501
   29DMPC  H10R 3371   5.244   3.744   3.541
   29DMPC  H10S 3372   5.146   3.628   3.444
   29DMPC  C211 3373   5.362   3.621   3.409
   29DMPC  H11R 3374   5.361   3.517   3.368
   29DMPC  H11S 3375   5.454   3.633   3.469
   29DMPC  C212 3376   5.366   3.721   3.293
   29DMPC  H12R 3377   5.347   3.823   3.334
   29DMPC  H12S 3378   5.284   3.697   3.221
   29DMPC  C213 3379   5.500   3.725   3.217
   29DMPC  H13R 3380   5.578   3.762   3.287
   29DMPC  H13S 3381   5.490   3.800   3.135
   29DMPC  C214 3382   5.546   3.592   3.158
   29DMPC  H14R 3383   5.639   3.606   3.099
   29DMPC  H14S 3384   5.468   3.551   3.090
   29DMPC  H14T 3385   5.566   3.518   3.238
   29DMPC   C33 3386   5.199   3.019   4.453
   29DMPC   H3X 3387   5.240   2.950   4.530
   29DMPC   H3Y 3388   5.231   3.123   4.480
   29DMPC   C34 3389   5.262   2.982   4.318
   29DMPC   H4X 3390   5.227   2.881   4.288
   29DMPC   H4Y 3391   5.372   2.975   4.332
   29DMPC   C35 3392   5.234   3.080   4.203
   29DMPC   H5X 3393   5.263   3.183   4.235
   29DMPC   H5Y 3394   5.125   3.081   4.181
   29DMPC   C36 3395   5.311   3.045   4.075
   29DMPC   H6X 3396   5.287   2.940   4.047
   29DMPC   H6Y 3397   5.421   3.049   4.097
   29DMPC   C37 3398   5.281   3.136   3.955
   29DMPC   H7X 3399   5.309   3.240   3.980
   29DMPC   H7Y 3400   5.172   3.133   3.934
   29DMPC   C38 3401   5.356   3.092   3.828
   29DMPC   H8X 3402   5.329   2.987   3.804
   29DMPC   H8Y 3403   5.466   3.095   3.848
   29DMPC   C39 3404   5.327   3.179   3.704
   29DMPC   H9X 3405   5.362   3.283   3.723
   29DMPC   H9Y 3406   5.217   3.181   3.687
   29DMPC  C310 3407   5.396   3.124   3.578
   29DMPC  H10X 3408   5.361   3.020   3.561
   29DMPC  H10Y 3409   5.506   3.122   3.594
   29DMPC  C311 3410   5.366   3.206   3.451
   29DMPC  H11X 3411   5.399   3.311   3.467
   29DMPC  H11Y 3412   5.256   3.207   3.434
   29DMPC  C312 3413   5.437   3.150   3.326
   29DMPC  H12X 3414   5.408   3.044   3.312
   29DMPC  H12Y 3415   5.547   3.154   3.344
   29DMPC  C313 3416   5.407   3.228   3.196
   29DMPC  H13X 3417   5.471   3.186   3.116
   29DMPC  H13Y 3418   5.437   3.334   3.211
   29DMPC  C314 3419   5.261   3.224   3.150
   29DMPC  H14X 3420   5.195   3.271   3.225
   29DMPC  H14Y 3421   5.229   3.119   3.134
   29DMPC  H14Z 3422   5.250   3.279   3.054
   30DMPC     N 3423   5.566   0.518   4.518
   30DMPC   C13 3424   5.519   0.393   4.586
   30DMPC  H13A 3425   5.415   0.375   4.559
   30DMPC  H13B 3426   5.526   0.405   4.693
   30DMPC  H13C 3427   5.581   0.310   4.554
   30DMPC   C14 3428   5.483   0.631   4.568
   30DMPC  H14A 3429   5.379   0.612   4.544
   30DMPC  H14B 3430   5.514   0.722   4.519
   30DMPC  H14C 3431   5.494   0.641   4.675
   30DMPC   C15 3432   5.709   0.541   4.555
   30DMPC  H15A 3433   5.743   0.632   4.509
   30DMPC  H15B 3434   5.769   0.458   4.520
   30DMPC  H15C 3435   5.718   0.551   4.662
   30DMPC   C12 3436   5.551   0.503   4.369
   30DMPC  H12A 3437   5.445   0.502   4.348
   30DMPC  H12B 3438   5.590   0.405   4.342
   30DMPC   C11 3439   5.619   0.608   4.278
   30DMPC  H11A 3440   5.583   0.590   4.175
   30DMPC  H11B 3441   5.729   0.586   4.281
   30DMPC     P 3442   5.693   0.850   4.296
   30DMPC   O13 3443   5.811   0.819   4.379
   30DMPC   O14 3444   5.633   0.984   4.320
   30DMPC   O11 3445   5.730   0.834   4.145
   30DMPC   O12 3446   5.584   0.740   4.319
   30DMPC    C1 3447   5.850   0.891   4.090
   30DMPC    HA 3448   5.890   0.819   4.015
   30DMPC    HB 3449   5.930   0.907   4.166
   30DMPC    C2 3450   5.826   1.026   4.015
   30DMPC    HS 3451   5.796   1.100   4.092
   30DMPC   O21 3452   5.720   1.004   3.920
   30DMPC   C21 3453   5.666   1.116   3.878
   30DMPC   O22 3454   5.693   1.228   3.921
   30DMPC   C22 3455   5.569   1.087   3.763
   30DMPC   H2R 3456   5.476   1.145   3.779
   30DMPC   H2S 3457   5.545   0.979   3.761
   30DMPC    C3 3458   5.956   1.077   3.945
   30DMPC    HX 3459   6.032   1.098   4.024
   30DMPC    HY 3460   5.935   1.175   3.897
   30DMPC   O31 3461   6.004   0.986   3.843
   30DMPC   C31 3462   6.112   0.914   3.872
   30DMPC   O32 3463   6.177   0.921   3.974
   30DMPC   C32 3464   6.140   0.818   3.756
   30DMPC   H2X 3465   6.231   0.852   3.703
   30DMPC   H2Y 3466   6.055   0.819   3.685
   30DMPC   C23 3467   5.635   1.129   3.631
   30DMPC   H3R 3468   5.735   1.080   3.622
   30DMPC   H3S 3469   5.651   1.239   3.630
   30DMPC   C24 3470   5.552   1.089   3.507
   30DMPC   H4R 3471   5.450   1.133   3.517
   30DMPC   H4S 3472   5.542   0.979   3.506
   30DMPC   C25 3473   5.615   1.135   3.375
   30DMPC   H5R 3474   5.723   1.110   3.375
   30DMPC   H5S 3475   5.607   1.246   3.368
   30DMPC   C26 3476   5.552   1.072   3.249
   30DMPC   H6R 3477   5.577   0.964   3.248
   30DMPC   H6S 3478   5.598   1.119   3.160
   30DMPC   C27 3479   5.399   1.086   3.242
   30DMPC   H7R 3480   5.371   1.193   3.253
   30DMPC   H7S 3481   5.354   1.031   3.327
   30DMPC   C28 3482   5.338   1.029   3.112
   30DMPC   H8R 3483   5.228   1.021   3.126
   30DMPC   H8S 3484   5.377   0.926   3.097
   30DMPC   C29 3485   5.364   1.112   2.986
   30DMPC   H9R 3486   5.324   1.055   2.899
   30DMPC   H9S 3487   5.473   1.125   2.970
   30DMPC  C210 3488   5.296   1.250   2.986
   30DMPC  H10R 3489   5.342   1.314   3.064
   30DMPC  H10S 3490   5.188   1.237   3.010
   30DMPC  C211 3491   5.304   1.322   2.850
   30DMPC  H11R 3492   5.263   1.254   2.772
   30DMPC  H11S 3493   5.411   1.341   2.825
   30DMPC  C212 3494   5.225   1.453   2.843
   30DMPC  H12R 3495   5.117   1.431   2.862
   30DMPC  H12S 3496   5.233   1.493   2.739
   30DMPC  C213 3497   5.269   1.563   2.941
   30DMPC  H13R 3498   5.247   1.530   3.045
   30DMPC  H13S 3499   5.207   1.653   2.920
   30DMPC  C214 3500   5.417   1.602   2.932
   30DMPC  H14R 3501   5.443   1.633   2.829
   30DMPC  H14S 3502   5.481   1.517   2.962
   30DMPC  H14T 3503   5.438   1.687   3.001
   30DMPC   C33 3504   6.161   0.675   3.809
   30DMPC   H3X 3505   6.083   0.650   3.884
   30DMPC   H3Y 3506   6.260   0.670   3.860
   30DMPC   C34 3507   6.155   0.569   3.698
   30DMPC   H4X 3508   6.215   0.604   3.612
   30DMPC   H4Y 3509   6.051   0.557   3.664
   30DMPC   C35 3510   6.210   0.433   3.743
   30DMPC   H5X 3511   6.155   0.396   3.832
   30DMPC   H5Y 3512   0.025   0.449   3.773
   30DMPC   C36 3513   6.209   0.326   3.633
   30DMPC   H6X 3514   6.280   0.246   3.663
   30DMPC   H6Y 3515   6.246   0.370   3.538
   30DMPC   C37 3516   6.071   0.261   3.610
   30DMPC   H7X 3517   6.037   0.215   3.705
   30DMPC   H7Y 3518   5.998   0.341   3.584
   30DMPC   C38 3519   6.070   0.155   3.499
   30DMPC   H8X 3520   6.098   0.204   3.404
   30DMPC   H8Y 3521   5.966   0.116   3.488
   30DMPC   C39 3522   6.165   0.036   3.524
   30DMPC   H9X 3523   6.137   6.317   3.620
   30DMPC   H9Y 3524   6.269   0.074   3.534
   30DMPC  C310 3525   6.163   6.264   3.411
   30DMPC  H10X 3526   6.181   6.317   3.315
   30DMPC  H10Y 3527   6.062   6.217   3.405
   30DMPC  C311 3528   6.269   6.154   3.426
   30DMPC  H11X 3529   6.251   6.097   3.520
   30DMPC  H11Y 3530   0.078   6.203   3.435
   30DMPC  C312 3531   6.270   6.057   3.307
   30DMPC  H12X 3532   6.285   6.116   3.214
   30DMPC  H12Y 3533   6.171   6.008   3.300
   30DMPC  C313 3534   0.088   5.948   3.314
   30DMPC  H13X 3535   0.071   5.878   3.229
   30DMPC  H13Y 3536   0.074   5.891   3.408
   30DMPC  C314 3537   0.232   5.999   3.307
   30DMPC  H14X 3538   0.303   5.913   3.309
   30DMPC  H14Y 3539   0.255   6.065   3.393
   30DMPC  H14Z 3540   0.249   6.056   3.213
   31DMPC     N 3541   5.733   4.273   5.199
   31DMPC   C13 3542   5.588   4.284   5.170
   31DMPC  H13A 3543   5.556   4.201   5.108
   31DMPC  H13B 3544   5.568   4.377   5.117
   31DMPC  H13C 3545   5.532   4.283   5.262
   31DMPC   C14 3546   5.773   4.387   5.286
   31DMPC  H14A 3547   5.715   4.385   5.377
   31DMPC  H14B 3548   5.755   4.480   5.235
   31DMPC  H14C 3549   5.878   4.380   5.311
   31DMPC   C15 3550   5.759   4.146   5.274
   31DMPC  H15A 3551   5.863   4.142   5.302
   31DMPC  H15B 3552   5.737   4.062   5.209
   31DMPC  H15C 3553   5.697   4.143   5.362
   31DMPC   C12 3554   5.812   4.278   5.071
   31DMPC  H12A 3555   5.917   4.271   5.096
   31DMPC  H12B 3556   5.796   4.376   5.027
   31DMPC   C11 3557   5.781   4.173   4.963
   31DMPC  H11A 3558   5.830   4.206   4.868
   31DMPC  H11B 3559   5.672   4.172   4.940
   31DMPC     P 3560   5.953   3.985   4.950
   31DMPC   O13 3561   5.978   3.852   5.012
   31DMPC   O14 3562   6.060   4.087   4.964
   31DMPC   O11 3563   5.923   3.966   4.796
   31DMPC   O12 3564   5.818   4.042   5.006
   31DMPC    C1 3565   5.967   3.851   4.723
   31DMPC    HA 3566   5.890   3.827   4.646
   31DMPC    HB 3567   5.976   3.760   4.787
   31DMPC    C2 3568   6.103   3.872   4.648
   31DMPC    HS 3569   6.177   3.906   4.724
   31DMPC   O21 3570   6.081   3.970   4.545
   31DMPC   C21 3571   6.192   4.030   4.507
   31DMPC   O22 3572   0.008   4.024   4.565
   31DMPC   C22 3573   6.169   4.103   4.375
   31DMPC   H2R 3574   6.224   4.199   4.378
   31DMPC   H2S 3575   6.061   4.124   4.361
   31DMPC    C3 3576   6.151   3.736   4.586
   31DMPC    HX 3577   6.065   3.696   4.529
   31DMPC    HY 3578   6.169   3.663   4.669
   31DMPC   O31 3579   6.263   3.747   4.495
   31DMPC   C31 3580   0.092   3.732   4.551
   31DMPC   O32 3581   0.112   3.714   4.670
   31DMPC   C32 3582   0.200   3.741   4.444
   31DMPC   H2X 3583   0.299   3.729   4.494
   31DMPC   H2Y 3584   0.197   3.841   4.395
   31DMPC   C23 3585   6.220   4.016   4.259
   31DMPC   H3R 3586   6.159   3.923   4.255
   31DMPC   H3S 3587   0.035   3.987   4.277
   31DMPC   C24 3588   6.212   4.087   4.122
   31DMPC   H4R 3589   0.002   4.163   4.114
   31DMPC   H4S 3590   6.114   4.141   4.118
   31DMPC   C25 3591   6.216   3.991   4.002
   31DMPC   H5R 3592   6.194   4.048   3.910
   31DMPC   H5S 3593   6.135   3.916   4.016
   31DMPC   C26 3594   0.058   3.916   3.982
   31DMPC   H6R 3595   0.092   3.871   4.078
   31DMPC   H6S 3596   0.136   3.989   3.949
   31DMPC   C27 3597   0.045   3.804   3.878
   31DMPC   H7R 3598   6.291   3.845   3.785
   31DMPC   H7S 3599   6.266   3.727   3.919
   31DMPC   C28 3600   0.177   3.734   3.841
   31DMPC   H8R 3601   0.236   3.713   3.933
   31DMPC   H8S 3602   0.237   3.804   3.778
   31DMPC   C29 3603   0.154   3.602   3.766
   31DMPC   H9R 3604   0.075   3.617   3.689
   31DMPC   H9S 3605   0.114   3.528   3.839
   31DMPC  C210 3606   0.279   3.542   3.699
   31DMPC  H10R 3607   0.257   3.436   3.673
   31DMPC  H10S 3608   0.362   3.541   3.773
   31DMPC  C211 3609   0.326   3.614   3.571
   31DMPC  H11R 3610   0.424   3.571   3.542
   31DMPC  H11S 3611   0.341   3.722   3.594
   31DMPC  C212 3612   0.229   3.601   3.452
   31DMPC  H12R 3613   0.130   3.643   3.481
   31DMPC  H12S 3614   0.214   3.493   3.429
   31DMPC  C213 3615   0.275   3.674   3.324
   31DMPC  H13R 3616   0.289   3.781   3.348
   31DMPC  H13S 3617   0.192   3.667   3.250
   31DMPC  C214 3618   0.402   3.619   3.260
   31DMPC  H14R 3619   0.389   3.512   3.233
   31DMPC  H14S 3620   0.489   3.628   3.329
   31DMPC  H14T 3621   0.426   3.676   3.167
   31DMPC   C33 3622   0.180   3.629   4.341
   31DMPC   H3X 3623   0.090   3.650   4.280
   31DMPC   H3Y 3624   0.164   3.533   4.394
   31DMPC   C34 3625   0.301   3.610   4.248
   31DMPC   H4X 3626   0.392   3.598   4.310
   31DMPC   H4Y 3627   0.314   3.700   4.184
   31DMPC   C35 3628   0.286   3.485   4.160
   31DMPC   H5X 3629   0.200   3.498   4.091
   31DMPC   H5Y 3630   0.263   3.398   4.227
   31DMPC   C36 3631   0.412   3.451   4.080
   31DMPC   H6X 3632   0.500   3.456   4.148
   31DMPC   H6Y 3633   0.426   3.527   3.999
   31DMPC   C37 3634   0.407   3.310   4.019
   31DMPC   H7X 3635   0.319   3.303   3.951
   31DMPC   H7Y 3636   0.394   3.237   4.101
   31DMPC   C38 3637   0.535   3.274   3.941
   31DMPC   H8X 3638   0.623   3.304   4.001
   31DMPC   H8Y 3639   0.536   3.331   3.846
   31DMPC   C39 3640   0.548   3.123   3.911
   31DMPC   H9X 3641   0.566   3.070   4.007
   31DMPC   H9Y 3642   0.638   3.108   3.847
   31DMPC  C310 3643   0.426   3.059   3.844
   31DMPC  H10X 3644   0.336   3.070   3.910
   31DMPC  H10Y 3645   0.445   2.950   3.835
   31DMPC  C311 3646   0.393   3.114   3.705
   31DMPC  H11X 3647   0.484   3.106   3.641
   31DMPC  H11Y 3648   0.367   3.222   3.712
   31DMPC  C312 3649   0.278   3.039   3.637
   31DMPC  H12X 3650   0.185   3.055   3.696
   31DMPC  H12Y 3651   0.301   2.930   3.639
   31DMPC  C313 3652   0.255   3.080   3.492
   31DMPC  H13X 3653   0.349   3.065   3.435
   31DMPC  H13Y 3654   0.230   3.189   3.488
   31DMPC  C314 3655   0.143   3.001   3.424
   31DMPC  H14X 3656   0.166   2.892   3.428
   31DMPC  H14Y 3657   0.133   3.030   3.317
   31DMPC  H14Z 3658   0.046   3.018   3.475
   32DMPC     N 3659   5.229   1.226   4.482
   32DMPC   C13 3660   5.151   1.257   4.605
   32DMPC  H13A 3661   5.184   1.193   4.686
   32DMPC  H13B 3662   5.046   1.240   4.587
   32DMPC  H13C 3663   5.166   1.361   4.632
   32DMPC   C14 3664   5.374   1.242   4.511
   32DMPC  H14A 3665   5.393   1.343   4.543
   32DMPC  H14B 3666   5.431   1.221   4.421
   32DMPC  H14C 3667   5.403   1.173   4.589
   32DMPC   C15 3668   5.203   1.084   4.447
   32DMPC  H15A 3669   5.259   1.058   4.358
   32DMPC  H15B 3670   5.098   1.071   4.425
   32DMPC  H15C 3671   5.230   1.020   4.529
   32DMPC   C12 3672   5.187   1.314   4.366
   32DMPC  H12A 3673   5.080   1.307   4.357
   32DMPC  H12B 3674   5.230   1.269   4.277
   32DMPC   C11 3675   5.229   1.462   4.368
   32DMPC  H11A 3676   5.190   1.510   4.276
   32DMPC  H11B 3677   5.340   1.466   4.361
   32DMPC     P 3678   5.269   1.626   4.560
   32DMPC   O13 3679   5.375   1.543   4.623
   32DMPC   O14 3680   5.189   1.713   4.649
   32DMPC   O11 3681   5.335   1.711   4.446
   32DMPC   O12 3682   5.174   1.529   4.482
   32DMPC    C1 3683   5.302   1.849   4.424
   32DMPC    HA 3684   5.375   1.890   4.351
   32DMPC    HB 3685   5.315   1.909   4.517
   32DMPC    C2 3686   5.159   1.875   4.366
   32DMPC    HS 3687   5.088   1.861   4.450
   32DMPC   O21 3688   5.134   1.776   4.264
   32DMPC   C21 3689   5.005   1.763   4.236
   32DMPC   O22 3690   4.916   1.826   4.291
   32DMPC   C22 3691   4.988   1.651   4.134
   32DMPC   H2R 3692   4.981   1.555   4.190
   32DMPC   H2S 3693   5.076   1.646   4.067
   32DMPC    C3 3694   5.146   2.022   4.314
   32DMPC    HX 3695   5.160   2.087   4.402
   32DMPC    HY 3696   5.042   2.040   4.278
   32DMPC   O31 3697   5.246   2.058   4.215
   32DMPC   C31 3698   5.212   2.033   4.089
   32DMPC   O32 3699   5.106   1.984   4.054
   32DMPC   C32 3700   5.325   2.072   3.995
   32DMPC   H2X 3701   5.377   1.980   3.961
   32DMPC   H2Y 3702   5.398   2.136   4.048
   32DMPC   C23 3703   4.858   1.668   4.052
   32DMPC   H3R 3704   4.772   1.685   4.119
   32DMPC   H3S 3705   4.839   1.571   3.999
   32DMPC   C24 3706   4.863   1.778   3.944
   32DMPC   H4R 3707   4.882   1.876   3.992
   32DMPC   H4S 3708   4.763   1.784   3.897
   32DMPC   C25 3709   4.967   1.753   3.833
   32DMPC   H5R 3710   4.954   1.649   3.796
   32DMPC   H5S 3711   5.070   1.763   3.874
   32DMPC   C26 3712   4.950   1.849   3.714
   32DMPC   H6R 3713   4.970   1.953   3.747
   32DMPC   H6S 3714   4.845   1.843   3.679
   32DMPC   C27 3715   5.041   1.815   3.594
   32DMPC   H7R 3716   5.033   1.707   3.572
   32DMPC   H7S 3717   5.147   1.837   3.621
   32DMPC   C28 3718   5.002   1.893   3.468
   32DMPC   H8R 3719   5.009   2.002   3.488
   32DMPC   H8S 3720   4.896   1.870   3.445
   32DMPC   C29 3721   5.087   1.860   3.343
   32DMPC   H9R 3722   5.089   1.750   3.330
   32DMPC   H9S 3723   5.191   1.896   3.359
   32DMPC  C210 3724   5.028   1.924   3.217
   32DMPC  H10R 3725   5.022   2.034   3.231
   32DMPC  H10S 3726   4.924   1.886   3.204
   32DMPC  C211 3727   5.104   1.895   3.087
   32DMPC  H11R 3728   5.043   1.935   3.003
   32DMPC  H11S 3729   5.114   1.786   3.073
   32DMPC  C212 3730   5.243   1.962   3.079
   32DMPC  H12R 3731   5.315   1.905   3.143
   32DMPC  H12S 3732   5.234   2.065   3.120
   32DMPC  C213 3733   5.297   1.972   2.935
   32DMPC  H13R 3734   5.224   2.029   2.874
   32DMPC  H13S 3735   5.304   1.870   2.892
   32DMPC  C214 3736   5.434   2.039   2.924
   32DMPC  H14R 3737   5.510   1.981   2.979
   32DMPC  H14S 3738   5.430   2.142   2.966
   32DMPC  H14T 3739   5.465   2.046   2.817
   32DMPC   C33 3740   5.269   2.147   3.873
   32DMPC   H3X 3741   5.213   2.237   3.908
   32DMPC   H3Y 3742   5.198   2.081   3.818
   32DMPC   C34 3743   5.380   2.193   3.777
   32DMPC   H4X 3744   5.434   2.104   3.738
   32DMPC   H4Y 3745   5.453   2.253   3.835
   32DMPC   C35 3746   5.331   2.278   3.659
   32DMPC   H5X 3747   5.421   2.318   3.609
   32DMPC   H5Y 3748   5.272   2.364   3.697
   32DMPC   C36 3749   5.247   2.200   3.556
   32DMPC   H6X 3750   5.153   2.165   3.605
   32DMPC   H6Y 3751   5.303   2.110   3.525
   32DMPC   C37 3752   5.209   2.281   3.431
   32DMPC   H7X 3753   5.140   2.363   3.461
   32DMPC   H7Y 3754   5.153   2.214   3.362
   32DMPC   C38 3755   5.327   2.343   3.354
   32DMPC   H8X 3756   5.374   2.421   3.418
   32DMPC   H8Y 3757   5.288   2.394   3.264
   32DMPC   C39 3758   5.435   2.242   3.311
   32DMPC   H9X 3759   5.391   2.169   3.240
   32DMPC   H9Y 3760   5.471   2.186   3.400
   32DMPC  C310 3761   5.557   2.309   3.246
   32DMPC  H10X 3762   5.598   2.384   3.318
   32DMPC  H10Y 3763   5.526   2.363   3.154
   32DMPC  C311 3764   5.668   2.208   3.211
   32DMPC  H11X 3765   5.629   2.139   3.132
   32DMPC  H11Y 3766   5.690   2.145   3.300
   32DMPC  C312 3767   5.799   2.271   3.160
   32DMPC  H12X 3768   5.778   2.327   3.067
   32DMPC  H12Y 3769   5.869   2.189   3.136
   32DMPC  C313 3770   5.869   2.366   3.260
   32DMPC  H13X 3771   5.808   2.458   3.271
   32DMPC  H13Y 3772   5.966   2.396   3.216
   32DMPC  C314 3773   5.894   2.307   3.399
   32DMPC  H14X 3774   5.951   2.212   3.391
   32DMPC  H14Y 3775   5.798   2.286   3.452
   32DMPC  H14Z 3776   5.953   2.377   3.461
   33DMPC     N 3777   3.514   2.418   5.211
   33DMPC   C13 3778   3.658   2.451   5.192
   33DMPC  H13A 3779   3.677   2.473   5.088
   33DMPC  H13B 3780   3.720   2.369   5.224
   33DMPC  H13C 3781   3.682   2.539   5.250
   33DMPC   C14 3782   3.488   2.398   5.356
   33DMPC  H14A 3783   3.383   2.377   5.372
   33DMPC  H14B 3784   3.515   2.487   5.412
   33DMPC  H14C 3785   3.547   2.315   5.394
   33DMPC   C15 3786   3.434   2.535   5.166
   33DMPC  H15A 3787   3.328   2.514   5.179
   33DMPC  H15B 3788   3.454   2.553   5.061
   33DMPC  H15C 3789   3.462   2.623   5.222
   33DMPC   C12 3790   3.477   2.292   5.137
   33DMPC  H12A 3791   3.374   2.269   5.160
   33DMPC  H12B 3792   3.538   2.212   5.176
   33DMPC   C11 3793   3.492   2.292   4.983
   33DMPC  H11A 3794   3.480   2.189   4.943
   33DMPC  H11B 3795   3.597   2.320   4.959
   33DMPC     P 3796   3.254   2.345   4.911
   33DMPC   O13 3797   3.185   2.378   5.039
   33DMPC   O14 3798   3.240   2.204   4.867
   33DMPC   O11 3799   3.198   2.439   4.798
   33DMPC   O12 3800   3.405   2.384   4.921
   33DMPC    C1 3801   3.280   2.481   4.687
   33DMPC    HA 3802   3.217   2.481   4.595
   33DMPC    HB 3803   3.364   2.411   4.667
   33DMPC    C2 3804   3.339   2.625   4.702
   33DMPC    HS 3805   3.391   2.630   4.800
   33DMPC   O21 3806   3.232   2.721   4.692
   33DMPC   C21 3807   3.173   2.751   4.804
   33DMPC   O22 3808   3.212   2.721   4.916
   33DMPC   C22 3809   3.045   2.831   4.777
   33DMPC   H2R 3810   3.071   2.939   4.780
   33DMPC   H2S 3811   2.971   2.810   4.857
   33DMPC    C3 3812   3.445   2.659   4.593
   33DMPC    HX 3813   3.529   2.586   4.602
   33DMPC    HY 3814   3.484   2.760   4.619
   33DMPC   O31 3815   3.390   2.655   4.459
   33DMPC   C31 3816   3.453   2.730   4.370
   33DMPC   O32 3817   3.559   2.788   4.389
   33DMPC   C32 3818   3.374   2.732   4.239
   33DMPC   H2X 3819   3.342   2.629   4.214
   33DMPC   H2Y 3820   3.440   2.769   4.158
   33DMPC   C23 3821   2.983   2.799   4.639
   33DMPC   H3R 3822   3.058   2.816   4.558
   33DMPC   H3S 3823   2.901   2.872   4.621
   33DMPC   C24 3824   2.923   2.658   4.626
   33DMPC   H4R 3825   2.835   2.650   4.693
   33DMPC   H4S 3826   2.998   2.583   4.659
   33DMPC   C25 3827   2.882   2.625   4.482
   33DMPC   H5R 3828   2.972   2.635   4.416
   33DMPC   H5S 3829   2.807   2.699   4.447
   33DMPC   C26 3830   2.825   2.483   4.464
   33DMPC   H6R 3831   2.732   2.474   4.525
   33DMPC   H6S 3832   2.898   2.409   4.502
   33DMPC   C27 3833   2.792   2.452   4.317
   33DMPC   H7R 3834   2.885   2.457   4.257
   33DMPC   H7S 3835   2.722   2.530   4.279
   33DMPC   C28 3836   2.727   2.314   4.296
   33DMPC   H8R 3837   2.636   2.309   4.360
   33DMPC   H8S 3838   2.796   2.234   4.329
   33DMPC   C29 3839   2.686   2.290   4.150
   33DMPC   H9R 3840   2.777   2.281   4.087
   33DMPC   H9S 3841   2.630   2.380   4.114
   33DMPC  C210 3842   2.595   2.168   4.129
   33DMPC  H10R 3843   2.567   2.163   4.021
   33DMPC  H10S 3844   2.501   2.183   4.187
   33DMPC  C211 3845   2.655   2.032   4.169
   33DMPC  H11R 3846   2.578   1.954   4.148
   33DMPC  H11S 3847   2.675   2.031   4.278
   33DMPC  C212 3848   2.783   1.995   4.093
   33DMPC  H12R 3849   2.866   2.063   4.124
   33DMPC  H12S 3850   2.767   2.010   3.984
   33DMPC  C213 3851   2.827   1.849   4.116
   33DMPC  H13R 3852   2.745   1.782   4.080
   33DMPC  H13S 3853   2.837   1.833   4.225
   33DMPC  C214 3854   2.957   1.810   4.047
   33DMPC  H14R 3855   3.041   1.873   4.084
   33DMPC  H14S 3856   2.949   1.824   3.937
   33DMPC  H14T 3857   2.981   1.703   4.067
   33DMPC   C33 3858   3.251   2.823   4.253
   33DMPC   H3X 3859   3.283   2.926   4.280
   33DMPC   H3Y 3860   3.188   2.785   4.336
   33DMPC   C34 3861   3.162   2.831   4.127
   33DMPC   H4X 3862   3.068   2.882   4.157
   33DMPC   H4Y 3863   3.136   2.728   4.095
   33DMPC   C35 3864   3.225   2.908   4.009
   33DMPC   H5X 3865   3.318   2.856   3.978
   33DMPC   H5Y 3866   3.252   3.010   4.044
   33DMPC   C36 3867   3.134   2.921   3.885
   33DMPC   H6X 3868   3.107   2.820   3.850
   33DMPC   H6Y 3869   3.192   2.971   3.805
   33DMPC   C37 3870   3.005   3.002   3.910
   33DMPC   H7X 3871   3.031   3.104   3.946
   33DMPC   H7Y 3872   2.948   2.951   3.992
   33DMPC   C38 3873   2.909   3.012   3.790
   33DMPC   H8X 3874   2.810   3.040   3.832
   33DMPC   H8Y 3875   2.897   2.913   3.741
   33DMPC   C39 3876   2.944   3.119   3.685
   33DMPC   H9X 3877   2.996   3.204   3.733
   33DMPC   H9Y 3878   2.848   3.157   3.644
   33DMPC  C310 3879   3.025   3.067   3.565
   33DMPC  H10X 3880   2.974   2.978   3.524
   33DMPC  H10Y 3881   3.126   3.036   3.599
   33DMPC  C311 3882   3.038   3.171   3.453
   33DMPC  H11X 3883   3.099   3.257   3.490
   33DMPC  H11Y 3884   2.936   3.209   3.429
   33DMPC  C312 3885   3.103   3.116   3.325
   33DMPC  H12X 3886   3.044   3.027   3.292
   33DMPC  H12Y 3887   3.206   3.082   3.348
   33DMPC  C313 3888   3.109   3.216   3.208
   33DMPC  H13X 3889   3.165   3.169   3.125
   33DMPC  H13Y 3890   3.166   3.306   3.241
   33DMPC  C314 3891   2.972   3.261   3.155
   33DMPC  H14X 3892   2.914   3.313   3.234
   33DMPC  H14Y 3893   2.913   3.173   3.121
   33DMPC  H14Z 3894   2.984   3.330   3.069
   34DMPC     N 3895   5.868   3.099   5.435
   34DMPC   C13 3896   5.999   3.108   5.366
   34DMPC  H13A 3897   6.073   3.149   5.434
   34DMPC  H13B 3898   5.990   3.172   5.279
   34DMPC  H13C 3899   6.030   3.009   5.335
   34DMPC   C14 3900   5.886   3.010   5.553
   34DMPC  H14A 3901   5.965   3.048   5.615
   34DMPC  H14B 3902   5.912   2.911   5.518
   34DMPC  H14C 3903   5.794   3.004   5.610
   34DMPC   C15 3904   5.829   3.235   5.483
   34DMPC  H15A 3905   5.906   3.273   5.548
   34DMPC  H15B 3906   5.735   3.229   5.537
   34DMPC  H15C 3907   5.819   3.301   5.398
   34DMPC   C12 3908   5.762   3.042   5.344
   34DMPC  H12A 3909   5.677   3.013   5.407
   34DMPC  H12B 3910   5.802   2.950   5.303
   34DMPC   C11 3911   5.707   3.128   5.229
   34DMPC  H11A 3912   5.640   3.206   5.271
   34DMPC  H11B 3913   5.645   3.060   5.164
   34DMPC     P 3914   5.787   3.234   5.011
   34DMPC   O13 3915   5.906   3.309   4.964
   34DMPC   O14 3916   5.656   3.303   5.002
   34DMPC   O11 3917   5.778   3.096   4.935
   34DMPC   O12 3918   5.813   3.190   5.158
   34DMPC    C1 3919   5.894   3.039   4.872
   34DMPC    HA 3920   5.886   2.929   4.880
   34DMPC    HB 3921   5.989   3.067   4.922
   34DMPC    C2 3922   5.905   3.073   4.719
   34DMPC    HS 3923   5.947   3.176   4.715
   34DMPC   O21 3924   5.773   3.064   4.662
   34DMPC   C21 3925   5.754   3.147   4.561
   34DMPC   O22 3926   5.838   3.225   4.518
   34DMPC   C22 3927   5.612   3.131   4.509
   34DMPC   H2R 3928   5.540   3.170   4.584
   34DMPC   H2S 3929   5.592   3.023   4.494
   34DMPC    C3 3930   6.005   2.975   4.649
   34DMPC    HX 3931   5.966   2.872   4.666
   34DMPC    HY 3932   6.104   2.980   4.699
   34DMPC   O31 3933   6.017   2.993   4.506
   34DMPC   C31 3934   6.100   3.089   4.468
   34DMPC   O32 3935   6.164   3.161   4.544
   34DMPC   C32 3936   6.095   3.101   4.316
   34DMPC   H2X 3937   5.989   3.095   4.284
   34DMPC   H2Y 3938   6.150   3.016   4.270
   34DMPC   C23 3939   5.591   3.204   4.374
   34DMPC   H3R 3940   5.492   3.170   4.335
   34DMPC   H3S 3941   5.668   3.173   4.301
   34DMPC   C24 3942   5.585   3.358   4.384
   34DMPC   H4R 3943   5.688   3.397   4.398
   34DMPC   H4S 3944   5.525   3.387   4.472
   34DMPC   C25 3945   5.524   3.426   4.260
   34DMPC   H5R 3946   5.540   3.536   4.269
   34DMPC   H5S 3947   5.414   3.408   4.260
   34DMPC   C26 3948   5.580   3.376   4.125
   34DMPC   H6R 3949   5.544   3.272   4.110
   34DMPC   H6S 3950   5.691   3.374   4.129
   34DMPC   C27 3951   5.535   3.460   4.004
   34DMPC   H7R 3952   5.430   3.493   4.019
   34DMPC   H7S 3953   5.539   3.395   3.914
   34DMPC   C28 3954   5.625   3.582   3.978
   34DMPC   H8R 3955   5.730   3.546   3.968
   34DMPC   H8S 3956   5.620   3.652   4.064
   34DMPC   C29 3957   5.588   3.660   3.850
   34DMPC   H9R 3958   5.490   3.710   3.864
   34DMPC   H9S 3959   5.577   3.587   3.767
   34DMPC  C210 3960   5.695   3.764   3.812
   34DMPC  H10R 3961   5.792   3.712   3.804
   34DMPC  H10S 3962   5.703   3.839   3.893
   34DMPC  C211 3963   5.664   3.836   3.679
   34DMPC  H11R 3964   5.567   3.889   3.693
   34DMPC  H11S 3965   5.651   3.763   3.597
   34DMPC  C212 3966   5.769   3.941   3.638
   34DMPC  H12R 3967   5.810   3.992   3.728
   34DMPC  H12S 3968   5.716   4.019   3.577
   34DMPC  C213 3969   5.885   3.890   3.550
   34DMPC  H13R 3970   5.943   3.979   3.515
   34DMPC  H13S 3971   5.842   3.842   3.459
   34DMPC  C214 3972   5.983   3.792   3.616
   34DMPC  H14R 3973   5.933   3.696   3.639
   34DMPC  H14S 3974   6.023   3.835   3.710
   34DMPC  H14T 3975   6.068   3.772   3.548
   34DMPC   C33 3976   6.153   3.235   4.268
   34DMPC   H3X 3977   6.264   3.234   4.279
   34DMPC   H3Y 3978   6.113   3.317   4.331
   34DMPC   C34 3979   6.116   3.266   4.122
   34DMPC   H4X 3980   6.005   3.269   4.114
   34DMPC   H4Y 3981   6.151   3.182   4.058
   34DMPC   C35 3982   6.174   3.397   4.067
   34DMPC   H5X 3983   6.135   3.411   3.963
   34DMPC   H5Y 3984   6.284   3.388   4.060
   34DMPC   C36 3985   6.141   3.524   4.148
   34DMPC   H6X 3986   6.177   3.612   4.091
   34DMPC   H6Y 3987   6.196   3.521   4.245
   34DMPC   C37 3988   5.991   3.543   4.179
   34DMPC   H7X 3989   5.960   3.467   4.253
   34DMPC   H7Y 3990   5.932   3.527   4.086
   34DMPC   C38 3991   5.958   3.683   4.234
   34DMPC   H8X 3992   5.959   3.756   4.150
   34DMPC   H8Y 3993   6.038   3.713   4.306
   34DMPC   C39 3994   5.823   3.687   4.307
   34DMPC   H9X 3995   5.830   3.621   4.397
   34DMPC   H9Y 3996   5.745   3.644   4.241
   34DMPC  C310 3997   5.778   3.826   4.354
   34DMPC  H10X 3998   5.857   3.872   4.418
   34DMPC  H10Y 3999   5.687   3.813   4.416
   34DMPC  C311 4000   5.744   3.922   4.239
   34DMPC  H11X 4001   5.677   3.870   4.167
   34DMPC  H11Y 4002   5.837   3.951   4.186
   34DMPC  C312 4003   5.671   4.049   4.287
   34DMPC  H12X 4004   5.734   4.102   4.361
   34DMPC  H12Y 4005   5.576   4.019   4.337
   34DMPC  C313 4006   5.638   4.146   4.172
   34DMPC  H13X 4007   5.582   4.091   4.094
   34DMPC  H13Y 4008   5.733   4.182   4.127
   34DMPC  C314 4009   5.555   4.268   4.215
   34DMPC  H14X 4010   5.457   4.235   4.257
   34DMPC  H14Y 4011   5.535   4.334   4.128
   34DMPC  H14Z 4012   5.609   4.326   4.293
   35DMPC     N 4013   4.875   6.164   4.554
   35DMPC   C13 4014   4.846   6.018   4.538
   35DMPC  H13A 4015   4.930   5.961   4.574
   35DMPC  H13B 4016   4.832   5.995   4.433
   35DMPC  H13C 4017   4.758   5.992   4.595
   35DMPC   C14 4018   4.752   6.240   4.521
   35DMPC  H14A 4019   4.726   6.228   4.416
   35DMPC  H14B 4020   4.770   0.015   4.539
   35DMPC  H14C 4021   4.670   6.206   4.582
   35DMPC   C15 4022   4.910   6.188   4.696
   35DMPC  H15A 4023   4.994   6.128   4.724
   35DMPC  H15B 4024   4.825   6.163   4.759
   35DMPC  H15C 4025   4.934   6.293   4.709
   35DMPC   C12 4026   4.989   6.203   4.462
   35DMPC  H12A 4027   4.973   6.153   4.368
   35DMPC  H12B 4028   5.080   6.164   4.505
   35DMPC   C11 4029   5.008   0.023   4.432
   35DMPC  H11A 4030   4.921   0.059   4.374
   35DMPC  H11B 4031   5.096   0.037   4.364
   35DMPC     P 4032   5.157   0.128   4.613
   35DMPC   O13 4033   5.149   0.105   4.759
   35DMPC   O14 4034   5.202   0.262   4.571
   35DMPC   O11 4035   5.251   0.016   4.550
   35DMPC   O12 4036   5.016   0.099   4.551
   35DMPC    C1 4037   5.393   0.034   4.542
   35DMPC    HA 4038   5.444   6.276   4.586
   35DMPC    HB 4039   5.429   0.122   4.601
   35DMPC    C2 4040   5.444   0.053   4.396
   35DMPC    HS 4041   5.546   0.097   4.403
   35DMPC   O21 4042   5.350   0.136   4.326
   35DMPC   C21 4043   5.404   0.212   4.234
   35DMPC   O22 4044   5.523   0.226   4.214
   35DMPC   C22 4045   5.292   0.274   4.150
   35DMPC   H2R 4046   5.316   0.381   4.129
   35DMPC   H2S 4047   5.197   0.270   4.207
   35DMPC    C3 4048   5.456   6.246   4.322
   35DMPC    HX 4049   5.357   6.196   4.333
   35DMPC    HY 4050   5.529   6.181   4.375
   35DMPC   O31 4051   5.485   6.256   4.180
   35DMPC   C31 4052   5.615   6.271   4.152
   35DMPC   O32 4053   5.704   6.272   4.235
   35DMPC   C32 4054   5.633   6.289   4.001
   35DMPC   H2X 4055   5.598   0.060   3.974
   35DMPC   H2Y 4056   5.571   6.215   3.947
   35DMPC   C23 4057   5.277   0.195   4.018
   35DMPC   H3R 4058   5.173   0.208   3.982
   35DMPC   H3S 4059   5.291   0.086   4.037
   35DMPC   C24 4060   5.371   0.243   3.906
   35DMPC   H4R 4061   5.475   0.240   3.943
   35DMPC   H4S 4062   5.346   0.348   3.881
   35DMPC   C25 4063   5.362   0.157   3.779
   35DMPC   H5R 4064   5.256   0.158   3.743
   35DMPC   H5S 4065   5.389   0.052   3.803
   35DMPC   C26 4066   5.453   0.208   3.666
   35DMPC   H6R 4067   5.559   0.207   3.702
   35DMPC   H6S 4068   5.426   0.314   3.643
   35DMPC   C27 4069   5.443   0.126   3.537
   35DMPC   H7R 4070   5.337   0.122   3.505
   35DMPC   H7S 4071   5.477   0.021   3.557
   35DMPC   C28 4072   5.527   0.184   3.422
   35DMPC   H8R 4073   5.634   0.187   3.452
   35DMPC   H8S 4074   5.493   0.289   3.405
   35DMPC   C29 4075   5.512   0.107   3.290
   35DMPC   H9R 4076   5.403   0.089   3.274
   35DMPC   H9S 4077   5.561   0.008   3.299
   35DMPC  C210 4078   5.564   0.182   3.167
   35DMPC  H10R 4079   5.514   0.282   3.164
   35DMPC  H10S 4080   5.534   0.127   3.075
   35DMPC  C211 4081   5.717   0.204   3.163
   35DMPC  H11R 4082   5.752   0.249   3.258
   35DMPC  H11S 4083   5.738   0.278   3.082
   35DMPC  C212 4084   5.797   0.077   3.132
   35DMPC  H12R 4085   5.755   0.030   3.041
   35DMPC  H12S 4086   5.787   0.005   3.216
   35DMPC  C213 4087   5.946   0.106   3.107
   35DMPC  H13R 4088   5.991   0.147   3.201
   35DMPC  H13S 4089   5.955   0.185   3.029
   35DMPC  C214 4090   6.028   6.315   3.062
   35DMPC  H14R 4091   6.023   6.235   3.139
   35DMPC  H14S 4092   6.134   0.013   3.048
   35DMPC  H14T 4093   5.988   6.275   2.966
   35DMPC   C33 4094   5.781   6.273   3.961
   35DMPC   H3X 4095   5.809   6.166   3.964
   35DMPC   H3Y 4096   5.845   6.327   4.034
   35DMPC   C34 4097   5.814   0.002   3.822
   35DMPC   H4X 4098   5.923   6.322   3.804
   35DMPC   H4Y 4099   5.791   0.111   3.825
   35DMPC   C35 4100   5.739   6.271   3.703
   35DMPC   H5X 4101   5.763   0.001   3.613
   35DMPC   H5Y 4102   5.629   6.279   3.720
   35DMPC   C36 4103   5.776   6.125   3.675
   35DMPC   H6X 4104   5.746   6.062   3.761
   35DMPC   H6Y 4105   5.887   6.117   3.663
   35DMPC   C37 4106   5.709   6.071   3.548
   35DMPC   H7X 4107   5.749   6.126   3.460
   35DMPC   H7Y 4108   5.600   6.091   3.554
   35DMPC   C38 4109   5.729   5.920   3.528
   35DMPC   H8X 4110   5.693   5.867   3.620
   35DMPC   H8Y 4111   5.838   5.899   3.518
   35DMPC   C39 4112   5.654   5.861   3.407
   35DMPC   H9X 4113   5.545   5.873   3.424
   35DMPC   H9Y 4114   5.676   5.752   3.403
   35DMPC  C310 4115   5.690   5.923   3.271
   35DMPC  H10X 4116   5.656   6.029   3.269
   35DMPC  H10Y 4117   5.634   5.868   3.193
   35DMPC  C311 4118   5.840   5.919   3.238
   35DMPC  H11X 4119   5.876   5.814   3.250
   35DMPC  H11Y 4120   5.895   5.982   3.312
   35DMPC  C312 4121   5.876   5.968   3.097
   35DMPC  H12X 4122   5.987   5.977   3.091
   35DMPC  H12Y 4123   5.833   6.069   3.082
   35DMPC  C313 4124   5.831   5.874   2.984
   35DMPC  H13X 4125   5.720   5.866   2.986
   35DMPC  H13Y 4126   5.873   5.773   3.002
   35DMPC  C314 4127   5.873   5.921   2.845
   35DMPC  H14X 4128   5.838   5.849   2.767
   35DMPC  H14Y 4129   5.984   5.928   2.838
   35DMPC  H14Z 4130   5.830   6.021   2.822
   36DMPC     N 4131   5.018   4.715   5.159
   36DMPC   C13 4132   5.018   4.743   5.305
   36DMPC  H13A 4133   4.929   4.703   5.351
   36DMPC  H13B 4134   5.023   4.850   5.321
   36DMPC  H13C 4135   5.105   4.696   5.350
   36DMPC   C14 4136   5.021   4.567   5.139
   36DMPC  H14A 4137   5.010   4.544   5.034
   36DMPC  H14B 4138   4.941   4.520   5.195
   36DMPC  H14C 4139   5.115   4.527   5.174
   36DMPC   C15 4140   4.891   4.767   5.100
   36DMPC  H15A 4141   4.889   4.744   4.994
   36DMPC  H15B 4142   4.888   4.874   5.112
   36DMPC  H15C 4143   4.806   4.722   5.149
   36DMPC   C12 4144   5.138   4.776   5.091
   36DMPC  H12A 4145   5.124   4.768   4.984
   36DMPC  H12B 4146   5.224   4.715   5.117
   36DMPC   C11 4147   5.175   4.922   5.125
   36DMPC  H11A 4148   5.264   4.953   5.066
   36DMPC  H11B 4149   5.206   4.928   5.231
   36DMPC     P 4150   5.046   5.086   4.972
   36DMPC   O13 4151   5.110   5.218   4.986
   36DMPC   O14 4152   4.902   5.086   4.938
   36DMPC   O11 4153   5.126   5.000   4.866
   36DMPC   O12 4154   5.064   5.009   5.108
   36DMPC    C1 4155   5.242   5.053   4.799
   36DMPC    HA 4156   5.303   4.967   4.764
   36DMPC    HB 4157   5.307   5.111   4.868
   36DMPC    C2 4158   5.206   5.142   4.675
   36DMPC    HS 4159   5.177   5.241   4.717
   36DMPC   O21 4160   5.090   5.095   4.605
   36DMPC   C21 4161   5.101   4.977   4.549
   36DMPC   O22 4162   5.198   4.903   4.554
   36DMPC   C22 4163   4.970   4.945   4.476
   36DMPC   H2R 4164   4.920   5.039   4.445
   36DMPC   H2S 4165   4.903   4.890   4.546
   36DMPC    C3 4166   5.328   5.170   4.580
   36DMPC    HX 4167   5.383   5.075   4.567
   36DMPC    HY 4168   5.398   5.241   4.630
   36DMPC   O31 4169   5.288   5.216   4.449
   36DMPC   C31 4170   5.251   5.344   4.441
   36DMPC   O32 4171   5.255   5.424   4.534
   36DMPC   C32 4172   5.202   5.374   4.300
   36DMPC   H2X 4173   5.170   5.480   4.296
   36DMPC   H2Y 4174   5.114   5.310   4.278
   36DMPC   C23 4175   4.996   4.858   4.351
   36DMPC   H3R 4176   5.049   4.765   4.379
   36DMPC   H3S 4177   5.061   4.915   4.281
   36DMPC   C24 4178   4.865   4.821   4.279
   36DMPC   H4R 4179   4.805   4.913   4.266
   36DMPC   H4S 4180   4.807   4.751   4.344
   36DMPC   C25 4181   4.884   4.758   4.141
   36DMPC   H5R 4182   4.947   4.666   4.149
   36DMPC   H5S 4183   4.938   4.830   4.076
   36DMPC   C26 4184   4.750   4.721   4.075
   36DMPC   H6R 4185   4.684   4.811   4.079
   36DMPC   H6S 4186   4.701   4.641   4.134
   36DMPC   C27 4187   4.762   4.677   3.929
   36DMPC   H7R 4188   4.824   4.586   3.922
   36DMPC   H7S 4189   4.812   4.758   3.872
   36DMPC   C28 4190   4.624   4.648   3.865
   36DMPC   H8R 4191   4.557   4.735   3.884
   36DMPC   H8S 4192   4.580   4.560   3.916
   36DMPC   C29 4193   4.628   4.622   3.714
   36DMPC   H9R 4194   4.528   4.587   3.682
   36DMPC   H9S 4195   4.701   4.541   3.692
   36DMPC  C210 4196   4.664   4.747   3.631
   36DMPC  H10R 4197   4.766   4.781   3.659
   36DMPC  H10S 4198   4.593   4.828   3.656
   36DMPC  C211 4199   4.660   4.722   3.480
   36DMPC  H11R 4200   4.558   4.691   3.451
   36DMPC  H11S 4201   4.730   4.640   3.456
   36DMPC  C212 4202   4.700   4.847   3.399
   36DMPC  H12R 4203   4.801   4.879   3.431
   36DMPC  H12S 4204   4.629   4.929   3.422
   36DMPC  C213 4205   4.702   4.822   3.247
   36DMPC  H13R 4206   4.599   4.792   3.215
   36DMPC  H13S 4207   4.770   4.736   3.226
   36DMPC  C214 4208   4.748   4.942   3.165
   36DMPC  H14R 4209   4.851   4.972   3.194
   36DMPC  H14S 4210   4.680   5.029   3.181
   36DMPC  H14T 4211   4.747   4.917   3.057
   36DMPC   C33 4212   5.313   5.348   4.196
   36DMPC   H3X 4213   5.348   5.243   4.204
   36DMPC   H3Y 4214   5.400   5.415   4.217
   36DMPC   C34 4215   5.264   5.372   4.053
   36DMPC   H4X 4216   5.231   5.478   4.045
   36DMPC   H4Y 4217   5.176   5.307   4.034
   36DMPC   C35 4218   5.369   5.346   3.944
   36DMPC   H5X 4219   5.407   5.242   3.954
   36DMPC   H5Y 4220   5.455   5.415   3.959
   36DMPC   C36 4221   5.312   5.365   3.802
   36DMPC   H6X 4222   5.270   5.467   3.794
   36DMPC   H6Y 4223   5.228   5.293   3.789
   36DMPC   C37 4224   5.413   5.343   3.688
   36DMPC   H7X 4225   5.358   5.354   3.592
   36DMPC   H7Y 4226   5.453   5.240   3.693
   36DMPC   C38 4227   5.529   5.444   3.688
   36DMPC   H8X 4228   5.599   5.419   3.772
   36DMPC   H8Y 4229   5.488   5.546   3.707
   36DMPC   C39 4230   5.609   5.449   3.556
   36DMPC   H9X 4231   5.691   5.523   3.568
   36DMPC   H9Y 4232   5.541   5.486   3.476
   36DMPC  C310 4233   5.670   5.314   3.513
   36DMPC  H10X 4234   5.588   5.243   3.490
   36DMPC  H10Y 4235   5.727   5.273   3.599
   36DMPC  C311 4236   5.764   5.324   3.392
   36DMPC  H11X 4237   5.805   5.224   3.372
   36DMPC  H11Y 4238   5.848   5.392   3.417
   36DMPC  C312 4239   5.696   5.376   3.264
   36DMPC  H12X 4240   5.657   5.479   3.283
   36DMPC  H12Y 4241   5.610   5.311   3.239
   36DMPC  C313 4242   5.790   5.384   3.142
   36DMPC  H13X 4243   5.876   5.448   3.168
   36DMPC  H13Y 4244   5.735   5.435   3.059
   36DMPC  C314 4245   5.842   5.250   3.089
   36DMPC  H14X 4246   5.758   5.184   3.061
   36DMPC  H14Y 4247   5.903   5.199   3.167
   36DMPC  H14Z 4248   5.906   5.266   3.000
   37DMPC     N 4249   6.279   6.173   4.701
   37DMPC   C13 4250   6.266   6.284   4.798
   37DMPC  H13A 4251   6.215   0.036   4.750
   37DMPC  H13B 4252   0.073   6.319   4.827
   37DMPC  H13C 4253   6.210   6.253   4.885
   37DMPC   C14 4254   0.060   6.063   4.770
   37DMPC  H14A 4255   0.076   5.980   4.702
   37DMPC  H14B 4256   0.001   6.028   4.854
   37DMPC  H14C 4257   0.156   6.098   4.806
   37DMPC   C15 4258   6.144   6.127   4.660
   37DMPC  H15A 4259   6.153   6.046   4.589
   37DMPC  H15B 4260   6.091   6.209   4.614
   37DMPC  H15C 4261   6.089   6.093   4.747
   37DMPC   C12 4262   0.069   6.218   4.582
   37DMPC  H12A 4263   0.102   6.130   4.528
   37DMPC  H12B 4264   0.157   6.269   4.620
   37DMPC   C11 4265   0.000   6.312   4.479
   37DMPC  H11A 4266   6.222   6.249   4.418
   37DMPC  H11B 4267   0.080   0.020   4.412
   37DMPC     P 4268   6.128   0.172   4.453
   37DMPC   O13 4269   6.112   0.307   4.512
   37DMPC   O14 4270   6.003   0.096   4.431
   37DMPC   O11 4271   6.208   0.181   4.318
   37DMPC   O12 4272   6.223   0.087   4.545
   37DMPC    C1 4273   6.286   0.294   4.281
   37DMPC    HA 4274   0.073   0.259   4.210
   37DMPC    HB 4275   0.049   0.340   4.368
   37DMPC    C2 4276   6.203   0.404   4.208
   37DMPC    HS 4277   6.147   0.458   4.287
   37DMPC   O21 4278   6.113   0.336   4.118
   37DMPC   C21 4279   6.003   0.402   4.090
   37DMPC   O22 4280   5.978   0.516   4.124
   37DMPC   C22 4281   5.911   0.308   4.012
   37DMPC   H2R 4282   5.913   0.210   4.063
   37DMPC   H2S 4283   5.950   0.294   3.909
   37DMPC    C3 4284   0.004   0.505   4.133
   37DMPC    HX 4285   0.069   0.552   4.210
   37DMPC    HY 4286   6.232   0.585   4.088
   37DMPC   O31 4287   0.079   0.438   4.029
   37DMPC   C31 4288   0.205   0.476   4.011
   37DMPC   O32 4289   0.261   0.566   4.073
   37DMPC   C32 4290   0.270   0.390   3.903
   37DMPC   H2X 4291   0.197   0.314   3.868
   37DMPC   H2Y 4292   0.358   0.338   3.946
   37DMPC   C23 4293   5.764   0.355   4.007
   37DMPC   H3R 4294   5.734   0.407   4.101
   37DMPC   H3S 4295   5.703   0.261   4.003
   37DMPC   C24 4296   5.724   0.436   3.882
   37DMPC   H4R 4297   5.616   0.418   3.864
   37DMPC   H4S 4298   5.780   0.398   3.794
   37DMPC   C25 4299   5.742   0.587   3.896
   37DMPC   H5R 4300   5.849   0.611   3.912
   37DMPC   H5S 4301   5.686   0.621   3.986
   37DMPC   C26 4302   5.690   0.667   3.775
   37DMPC   H6R 4303   5.683   0.774   3.805
   37DMPC   H6S 4304   5.588   0.632   3.749
   37DMPC   C27 4305   5.782   0.657   3.653
   37DMPC   H7R 4306   5.787   0.552   3.618
   37DMPC   H7S 4307   5.883   0.688   3.685
   37DMPC   C28 4308   5.740   0.748   3.536
   37DMPC   H8R 4309   5.720   0.849   3.578
   37DMPC   H8S 4310   5.646   0.711   3.492
   37DMPC   C29 4311   5.849   0.764   3.428
   37DMPC   H9R 4312   5.941   0.800   3.479
   37DMPC   H9S 4313   5.818   0.843   3.356
   37DMPC  C210 4314   5.884   0.636   3.350
   37DMPC  H10R 4315   5.869   0.546   3.413
   37DMPC  H10S 4316   5.993   0.641   3.325
   37DMPC  C211 4317   5.809   0.619   3.216
   37DMPC  H11R 4318   5.848   0.528   3.166
   37DMPC  H11S 4319   5.834   0.706   3.151
   37DMPC  C212 4320   5.657   0.607   3.229
   37DMPC  H12R 4321   5.615   0.701   3.269
   37DMPC  H12S 4322   5.633   0.525   3.301
   37DMPC  C213 4323   5.586   0.576   3.096
   37DMPC  H13R 4324   5.477   0.566   3.116
   37DMPC  H13S 4325   5.622   0.478   3.058
   37DMPC  C214 4326   5.606   0.681   2.986
   37DMPC  H14R 4327   5.547   0.655   2.896
   37DMPC  H14S 4328   5.713   0.687   2.957
   37DMPC  H14T 4329   5.572   0.781   3.022
   37DMPC   C33 4330   0.312   0.480   3.786
   37DMPC   H3X 4331   0.402   0.539   3.814
   37DMPC   H3Y 4332   0.230   0.552   3.764
   37DMPC   C34 4333   0.339   0.402   3.656
   37DMPC   H4X 4334   0.353   0.475   3.573
   37DMPC   H4Y 4335   0.249   0.341   3.632
   37DMPC   C35 4336   0.462   0.311   3.661
   37DMPC   H5X 4337   0.454   0.245   3.750
   37DMPC   H5Y 4338   0.553   0.373   3.674
   37DMPC   C36 4339   0.477   0.220   3.537
   37DMPC   H6X 4340   0.385   0.159   3.527
   37DMPC   H6Y 4341   0.562   0.151   3.555
   37DMPC   C37 4342   0.503   0.295   3.405
   37DMPC   H7X 4343   0.420   0.366   3.385
   37DMPC   H7Y 4344   0.502   0.219   3.323
   37DMPC   C38 4345   0.638   0.369   3.401
   37DMPC   H8X 4346   0.718   0.296   3.425
   37DMPC   H8Y 4347   0.639   0.449   3.478
   37DMPC   C39 4348   0.668   0.431   3.264
   37DMPC   H9X 4349   0.593   0.511   3.243
   37DMPC   H9Y 4350   0.656   0.353   3.186
   37DMPC  C310 4351   0.810   0.489   3.254
   37DMPC  H10X 4352   0.882   0.408   3.277
   37DMPC  H10Y 4353   0.822   0.569   3.331
   37DMPC  C311 4354   0.842   0.547   3.116
   37DMPC  H11X 4355   0.776   0.634   3.096
   37DMPC  H11Y 4356   0.820   0.469   3.039
   37DMPC  C312 4357   0.989   0.590   3.101
   37DMPC  H12X 4358   1.054   0.503   3.126
   37DMPC  H12Y 4359   1.010   0.671   3.174
   37DMPC  C313 4360   1.023   0.638   2.959
   37DMPC  H13X 4361   0.960   0.726   2.935
   37DMPC  H13Y 4362   0.998   0.557   2.887
   37DMPC  C314 4363   1.170   0.677   2.941
   37DMPC  H14X 4364   1.198   0.759   3.011
   37DMPC  H14Y 4365   1.189   0.711   2.837
   37DMPC  H14Z 4366   1.236   0.590   2.961
   38DMPC     N 4367   4.761   1.727   4.651
   38DMPC   C13 4368   4.835   1.832   4.727
   38DMPC  H13A 4369   4.885   1.786   4.811
   38DMPC  H13B 4370   4.764   1.905   4.764
   38DMPC  H13C 4371   4.908   1.880   4.664
   38DMPC   C14 4372   4.668   1.661   4.745
   38DMPC  H14A 4373   4.614   1.582   4.693
   38DMPC  H14B 4374   4.598   1.732   4.785
   38DMPC  H14C 4375   4.724   1.616   4.827
   38DMPC   C15 4376   4.685   1.793   4.542
   38DMPC  H15A 4377   4.625   1.719   4.490
   38DMPC  H15B 4378   4.752   1.839   4.471
   38DMPC  H15C 4379   4.619   1.868   4.584
   38DMPC   C12 4380   4.861   1.629   4.594
   38DMPC  H12A 4381   4.907   1.578   4.677
   38DMPC  H12B 4382   4.938   1.686   4.544
   38DMPC   C11 4383   4.809   1.522   4.495
   38DMPC  H11A 4384   4.898   1.462   4.465
   38DMPC  H11B 4385   4.772   1.572   4.403
   38DMPC     P 4386   4.710   1.291   4.542
   38DMPC   O13 4387   4.580   1.229   4.573
   38DMPC   O14 4388   4.826   1.244   4.622
   38DMPC   O11 4389   4.742   1.267   4.388
   38DMPC   O12 4390   4.702   1.447   4.552
   38DMPC    C1 4391   4.653   1.317   4.286
   38DMPC    HA 4392   4.713   1.364   4.206
   38DMPC    HB 4393   4.582   1.394   4.324
   38DMPC    C2 4394   4.568   1.204   4.221
   38DMPC    HS 4395   4.513   1.154   4.304
   38DMPC   O21 4396   4.660   1.112   4.159
   38DMPC   C21 4397   4.604   0.997   4.129
   38DMPC   O22 4398   4.491   0.963   4.160
   38DMPC   C22 4399   4.703   0.911   4.050
   38DMPC   H2R 4400   4.787   0.882   4.117
   38DMPC   H2S 4401   4.744   0.971   3.966
   38DMPC    C3 4402   4.462   1.259   4.119
   38DMPC    HX 4403   4.405   1.341   4.169
   38DMPC    HY 4404   4.388   1.179   4.100
   38DMPC   O31 4405   4.520   1.297   3.992
   38DMPC   C31 4406   4.541   1.427   3.972
   38DMPC   O32 4407   4.521   1.514   4.055
   38DMPC   C32 4408   4.599   1.449   3.833
   38DMPC   H2X 4409   4.563   1.369   3.764
   38DMPC   H2Y 4410   4.709   1.443   3.840
   38DMPC   C23 4411   4.632   0.785   3.998
   38DMPC   H3R 4412   4.548   0.813   3.930
   38DMPC   H3S 4413   4.588   0.731   4.085
   38DMPC   C24 4414   4.724   0.686   3.926
   38DMPC   H4R 4415   4.681   0.584   3.940
   38DMPC   H4S 4416   4.825   0.686   3.973
   38DMPC   C25 4417   4.737   0.707   3.774
   38DMPC   H5R 4418   4.635   0.711   3.729
   38DMPC   H5S 4419   4.789   0.617   3.732
   38DMPC   C26 4420   4.818   0.830   3.731
   38DMPC   H6R 4421   4.915   0.830   3.787
   38DMPC   H6S 4422   4.763   0.923   3.759
   38DMPC   C27 4423   4.850   0.834   3.580
   38DMPC   H7R 4424   4.908   0.742   3.555
   38DMPC   H7S 4425   4.914   0.922   3.559
   38DMPC   C28 4426   4.727   0.839   3.488
   38DMPC   H8R 4427   4.662   0.751   3.506
   38DMPC   H8S 4428   4.763   0.833   3.383
   38DMPC   C29 4429   4.643   0.968   3.502
   38DMPC   H9R 4430   4.709   1.055   3.481
   38DMPC   H9S 4431   4.606   0.977   3.606
   38DMPC  C210 4432   4.524   0.972   3.406
   38DMPC  H10R 4433   4.451   0.893   3.435
   38DMPC  H10S 4434   4.559   0.950   3.303
   38DMPC  C211 4435   4.452   1.108   3.404
   38DMPC  H11R 4436   4.525   1.185   3.369
   38DMPC  H11S 4437   4.421   1.134   3.508
   38DMPC  C212 4438   4.329   1.110   3.312
   38DMPC  H12R 4439   4.251   1.044   3.355
   38DMPC  H12S 4440   4.359   1.068   3.213
   38DMPC  C213 4441   4.270   1.250   3.288
   38DMPC  H13R 4442   4.183   1.239   3.220
   38DMPC  H13S 4443   4.346   1.312   3.234
   38DMPC  C214 4444   4.226   1.326   3.413
   38DMPC  H14R 4445   4.182   1.424   3.386
   38DMPC  H14S 4446   4.313   1.345   3.480
   38DMPC  H14T 4447   4.151   1.267   3.469
   38DMPC   C33 4448   4.558   1.587   3.778
   38DMPC   H3X 4449   4.581   1.665   3.855
   38DMPC   H3Y 4450   4.448   1.589   3.760
   38DMPC   C34 4451   4.632   1.627   3.649
   38DMPC   H4X 4452   4.741   1.623   3.668
   38DMPC   H4Y 4453   4.606   1.732   3.625
   38DMPC   C35 4454   4.599   1.539   3.528
   38DMPC   H5X 4455   4.629   1.434   3.550
   38DMPC   H5Y 4456   4.489   1.541   3.510
   38DMPC   C36 4457   4.671   1.584   3.400
   38DMPC   H6X 4458   4.780   1.593   3.422
   38DMPC   H6Y 4459   4.635   1.685   3.370
   38DMPC   C37 4460   4.653   1.486   3.283
   38DMPC   H7X 4461   4.547   1.488   3.249
   38DMPC   H7Y 4462   4.674   1.383   3.320
   38DMPC   C38 4463   4.745   1.512   3.163
   38DMPC   H8X 4464   4.733   1.428   3.092
   38DMPC   H8Y 4465   4.851   1.512   3.198
   38DMPC   C39 4466   4.719   1.645   3.089
   38DMPC   H9X 4467   4.732   1.729   3.161
   38DMPC   H9Y 4468   4.613   1.646   3.055
   38DMPC  C310 4469   4.811   1.669   2.969
   38DMPC  H10X 4470   4.917   1.670   3.003
   38DMPC  H10Y 4471   4.788   1.770   2.927
   38DMPC  C311 4472   4.796   1.565   2.856
   38DMPC  H11X 4473   4.689   1.559   2.828
   38DMPC  H11Y 4474   4.828   1.466   2.894
   38DMPC  C312 4475   4.878   1.600   2.730
   38DMPC  H12X 4476   4.986   1.604   2.756
   38DMPC  H12Y 4477   4.847   1.701   2.696
   38DMPC  C313 4478   4.857   1.502   2.614
   38DMPC  H13X 4479   4.911   1.542   2.525
   38DMPC  H13Y 4480   4.749   1.499   2.589
   38DMPC  C314 4481   4.906   1.358   2.638
   38DMPC  H14X 4482   4.853   1.313   2.725
   38DMPC  H14Y 4483   5.015   1.358   2.659
   38DMPC  H14Z 4484   4.887   1.296   2.549
   39DMPC     N 4485   4.887   5.495   5.307
   39DMPC   C13 4486   4.947   5.410   5.201
   39DMPC  H13A 4487   5.055   5.416   5.205
   39DMPC  H13B 4488   4.913   5.444   5.104
   39DMPC  H13C 4489   4.916   5.307   5.214
   39DMPC   C14 4490   4.740   5.475   5.310
   39DMPC  H14A 4491   4.698   5.509   5.216
   39DMPC  H14B 4492   4.697   5.536   5.389
   39DMPC  H14C 4493   4.715   5.371   5.325
   39DMPC   C15 4494   4.942   5.451   5.439
   39DMPC  H15A 4495   4.918   5.347   5.456
   39DMPC  H15B 4496   4.901   5.513   5.517
   39DMPC  H15C 4497   5.050   5.463   5.438
   39DMPC   C12 4498   4.921   5.640   5.285
   39DMPC  H12A 4499   5.027   5.653   5.307
   39DMPC  H12B 4500   4.866   5.697   5.359
   39DMPC   C11 4501   4.893   5.701   5.146
   39DMPC  H11A 4502   4.968   5.659   5.075
   39DMPC  H11B 4503   4.912   5.811   5.153
   39DMPC     P 4504   4.725   5.654   4.958
   39DMPC   O13 4505   4.752   5.778   4.882
   39DMPC   O14 4506   4.587   5.600   4.950
   39DMPC   O11 4507   4.832   5.545   4.919
   39DMPC   O12 4508   4.758   5.680   5.108
   39DMPC    C1 4509   4.800   5.412   4.876
   39DMPC    HA 4510   4.694   5.385   4.894
   39DMPC    HB 4511   4.862   5.340   4.935
   39DMPC    C2 4512   4.831   5.387   4.726
   39DMPC    HS 4513   4.943   5.387   4.716
   39DMPC   O21 4514   4.773   5.495   4.651
   39DMPC   C21 4515   4.835   5.519   4.537
   39DMPC   O22 4516   4.931   5.457   4.494
   39DMPC   C22 4517   4.768   5.638   4.470
   39DMPC   H2R 4518   4.779   5.726   4.537
   39DMPC   H2S 4519   4.660   5.617   4.456
   39DMPC    C3 4520   4.778   5.245   4.683
   39DMPC    HX 4521   4.700   5.212   4.755
   39DMPC    HY 4522   4.862   5.174   4.695
   39DMPC   O31 4523   4.730   5.236   4.546
   39DMPC   C31 4524   4.603   5.273   4.530
   39DMPC   O32 4525   4.531   5.317   4.618
   39DMPC   C32 4526   4.561   5.254   4.385
   39DMPC   H2X 4527   4.603   5.336   4.323
   39DMPC   H2Y 4528   4.450   5.258   4.380
   39DMPC   C23 4529   4.832   5.672   4.334
   39DMPC   H3R 4530   4.942   5.669   4.340
   39DMPC   H3S 4531   4.804   5.778   4.310
   39DMPC   C24 4532   4.780   5.586   4.217
   39DMPC   H4R 4533   4.669   5.591   4.217
   39DMPC   H4S 4534   4.809   5.479   4.233
   39DMPC   C25 4535   4.829   5.633   4.079
   39DMPC   H5R 4536   4.815   5.743   4.072
   39DMPC   H5S 4537   4.767   5.585   4.001
   39DMPC   C26 4538   4.977   5.600   4.051
   39DMPC   H6R 4539   4.986   5.489   4.038
   39DMPC   H6S 4540   5.038   5.629   4.139
   39DMPC   C27 4541   5.036   5.670   3.927
   39DMPC   H7R 4542   5.140   5.635   3.914
   39DMPC   H7S 4543   5.040   5.779   3.947
   39DMPC   C28 4544   4.960   5.647   3.796
   39DMPC   H8R 4545   4.860   5.695   3.802
   39DMPC   H8S 4546   4.944   5.537   3.781
   39DMPC   C29 4547   5.037   5.702   3.675
   39DMPC   H9R 4548   5.133   5.646   3.667
   39DMPC   H9S 4549   5.060   5.809   3.692
   39DMPC  C210 4550   4.963   5.689   3.540
   39DMPC  H10R 4551   4.919   5.588   3.531
   39DMPC  H10S 4552   5.038   5.702   3.459
   39DMPC  C211 4553   4.853   5.795   3.520
   39DMPC  H11R 4554   4.898   5.896   3.533
   39DMPC  H11S 4555   4.775   5.782   3.599
   39DMPC  C212 4556   4.788   5.788   3.382
   39DMPC  H12R 4557   4.738   5.689   3.370
   39DMPC  H12S 4558   4.867   5.796   3.304
   39DMPC  C213 4559   4.685   5.899   3.357
   39DMPC  H13R 4560   4.735   5.998   3.371
   39DMPC  H13S 4561   4.604   5.892   3.434
   39DMPC  C214 4562   4.621   5.896   3.218
   39DMPC  H14R 4563   4.548   5.979   3.208
   39DMPC  H14S 4564   4.568   5.800   3.202
   39DMPC  H14T 4565   4.699   5.908   3.140
   39DMPC   C33 4566   4.609   5.117   4.332
   39DMPC   H3X 4567   4.580   5.038   4.405
   39DMPC   H3Y 4568   4.720   5.116   4.324
   39DMPC   C34 4569   4.548   5.079   4.197
   39DMPC   H4X 4570   4.437   5.084   4.205
   39DMPC   H4Y 4571   4.574   4.973   4.174
   39DMPC   C35 4572   4.593   5.166   4.078
   39DMPC   H5X 4573   4.562   5.272   4.094
   39DMPC   H5Y 4574   4.539   5.129   3.988
   39DMPC   C36 4575   4.744   5.162   4.050
   39DMPC   H6X 4576   4.780   5.057   4.060
   39DMPC   H6Y 4577   4.797   5.223   4.126
   39DMPC   C37 4578   4.783   5.212   3.909
   39DMPC   H7X 4579   4.894   5.221   3.907
   39DMPC   H7Y 4580   4.741   5.314   3.893
   39DMPC   C38 4581   4.738   5.119   3.796
   39DMPC   H8X 4582   4.627   5.114   3.794
   39DMPC   H8Y 4583   4.776   5.016   3.817
   39DMPC   C39 4584   4.786   5.160   3.655
   39DMPC   H9X 4585   4.744   5.259   3.630
   39DMPC   H9Y 4586   4.745   5.086   3.583
   39DMPC  C310 4587   4.939   5.163   3.640
   39DMPC  H10X 4588   4.981   5.072   3.688
   39DMPC  H10Y 4589   4.980   5.251   3.694
   39DMPC  C311 4590   4.988   5.166   3.494
   39DMPC  H11X 4591   4.956   5.072   3.443
   39DMPC  H11Y 4592   5.099   5.169   3.494
   39DMPC  C312 4593   4.937   5.286   3.413
   39DMPC  H12X 4594   4.963   5.379   3.467
   39DMPC  H12Y 4595   4.826   5.281   3.403
   39DMPC  C313 4596   4.999   5.292   3.272
   39DMPC  H13X 4597   4.973   5.198   3.218
   39DMPC  H13Y 4598   5.110   5.296   3.282
   39DMPC  C314 4599   4.953   5.412   3.189
   39DMPC  H14X 4600   4.843   5.409   3.173
   39DMPC  H14Y 4601   5.003   5.411   3.089
   39DMPC  H14Z 4602   4.979   5.507   3.240
   40DMPC     N 4603   0.429   0.970   5.148
   40DMPC   C13 4604   0.455   1.113   5.118
   40DMPC  H13A 4605   0.411   1.138   5.022
   40DMPC  H13B 4606   0.561   1.132   5.115
   40DMPC  H13C 4607   0.409   1.176   5.193
   40DMPC   C14 4608   0.492   0.935   5.279
   40DMPC  H14A 4609   0.467   0.833   5.304
   40DMPC  H14B 4610   0.454   1.000   5.357
   40DMPC  H14C 4611   0.599   0.943   5.272
   40DMPC   C15 4612   0.283   0.947   5.158
   40DMPC  H15A 4613   0.239   1.014   5.231
   40DMPC  H15B 4614   0.266   0.844   5.189
   40DMPC  H15C 4615   0.237   0.963   5.061
   40DMPC   C12 4616   0.491   0.882   5.042
   40DMPC  H12A 4617   0.460   0.780   5.062
   40DMPC  H12B 4618   0.599   0.885   5.056
   40DMPC   C11 4619   0.461   0.915   4.895
   40DMPC  H11A 4620   0.515   0.841   4.832
   40DMPC  H11B 4621   0.505   1.016   4.873
   40DMPC     P 4622   0.269   0.989   4.747
   40DMPC   O13 4623   0.165   0.913   4.674
   40DMPC   O14 4624   0.227   1.121   4.799
   40DMPC   O11 4625   0.394   1.008   4.652
   40DMPC   O12 4626   0.322   0.905   4.868
   40DMPC    C1 4627   0.420   1.132   4.585
   40DMPC    HA 4628   0.528   1.137   4.562
   40DMPC    HB 4629   0.397   1.220   4.649
   40DMPC    C2 4630   0.344   1.148   4.448
   40DMPC    HS 4631   0.236   1.130   4.470
   40DMPC   O21 4632   0.399   1.052   4.356
   40DMPC   C21 4633   0.313   1.022   4.259
   40DMPC   O22 4634   0.196   1.059   4.257
   40DMPC   C22 4635   0.381   0.944   4.148
   40DMPC   H2R 4636   0.405   0.842   4.183
   40DMPC   H2S 4637   0.475   0.996   4.119
   40DMPC    C3 4638   0.361   1.295   4.396
   40DMPC    HX 4639   0.466   1.324   4.420
   40DMPC    HY 4640   0.296   1.361   4.458
   40DMPC   O31 4641   0.344   1.311   4.254
   40DMPC   C31 4642   0.232   1.370   4.213
   40DMPC   O32 4643   0.146   1.414   4.286
   40DMPC   C32 4644   0.232   1.374   4.060
   40DMPC   H2X 4645   0.302   1.297   4.022
   40DMPC   H2Y 4646   0.266   1.474   4.026
   40DMPC   C23 4647   0.286   0.939   4.027
   40DMPC   H3R 4648   0.253   1.042   4.001
   40DMPC   H3S 4649   0.196   0.880   4.054
   40DMPC   C24 4650   0.347   0.879   3.899
   40DMPC   H4R 4651   0.382   0.775   3.921
   40DMPC   H4S 4652   0.434   0.939   3.868
   40DMPC   C25 4653   0.244   0.874   3.785
   40DMPC   H5R 4654   0.202   0.975   3.769
   40DMPC   H5S 4655   0.161   0.808   3.819
   40DMPC   C26 4656   0.296   0.820   3.651
   40DMPC   H6R 4657   0.361   0.732   3.670
   40DMPC   H6S 4658   0.358   0.897   3.600
   40DMPC   C27 4659   0.180   0.775   3.560
   40DMPC   H7R 4660   0.114   0.862   3.539
   40DMPC   H7S 4661   0.122   0.701   3.618
   40DMPC   C28 4662   0.221   0.709   3.428
   40DMPC   H8R 4663   0.245   0.787   3.353
   40DMPC   H8S 4664   0.313   0.648   3.444
   40DMPC   C29 4665   0.110   0.616   3.375
   40DMPC   H9R 4666   0.091   0.538   3.452
   40DMPC   H9S 4667   0.017   0.675   3.361
   40DMPC  C210 4668   0.144   0.546   3.243
   40DMPC  H10R 4669   0.157   0.622   3.163
   40DMPC  H10S 4670   0.240   0.491   3.255
   40DMPC  C211 4671   0.034   0.447   3.199
   40DMPC  H11R 4672   6.229   0.503   3.192
   40DMPC  H11S 4673   0.022   0.369   3.277
   40DMPC  C212 4674   0.059   0.380   3.062
   40DMPC  H12R 4675   0.062   0.459   2.984
   40DMPC  H12S 4676   6.264   0.314   3.040
   40DMPC  C213 4677   0.188   0.297   3.053
   40DMPC  H13R 4678   0.276   0.365   3.063
   40DMPC  H13S 4679   0.193   0.253   2.950
   40DMPC  C214 4680   0.201   0.183   3.155
   40DMPC  H14R 4681   0.205   0.224   3.258
   40DMPC  H14S 4682   0.293   0.125   3.137
   40DMPC  H14T 4683   0.114   0.115   3.147
   40DMPC   C33 4684   0.091   1.345   4.004
   40DMPC   H3X 4685   0.027   1.434   4.016
   40DMPC   H3Y 4686   0.045   1.260   4.060
   40DMPC   C34 4687   0.097   1.304   3.855
   40DMPC   H4X 4688   0.156   1.210   3.848
   40DMPC   H4Y 4689   0.151   1.383   3.798
   40DMPC   C35 4690   6.251   1.281   3.791
   40DMPC   H5X 4691   6.202   1.379   3.774
   40DMPC   H5Y 4692   6.188   1.222   3.861
   40DMPC   C36 4693   6.259   1.204   3.657
   40DMPC   H6X 4694   0.009   1.103   3.679
   40DMPC   H6Y 4695   0.038   1.256   3.588
   40DMPC   C37 4696   6.122   1.189   3.589
   40DMPC   H7X 4697   6.093   1.285   3.541
   40DMPC   H7Y 4698   6.046   1.166   3.667
   40DMPC   C38 4699   6.115   1.076   3.485
   40DMPC   H8X 4700   6.010   1.066   3.451
   40DMPC   H8Y 4701   6.144   0.980   3.533
   40DMPC   C39 4702   6.204   1.095   3.361
   40DMPC   H9X 4703   0.020   1.105   3.391
   40DMPC   H9Y 4704   6.174   1.189   3.309
   40DMPC  C310 4705   6.191   0.977   3.262
   40DMPC  H10X 4706   6.082   0.961   3.244
   40DMPC  H10Y 4707   6.232   0.886   3.311
   40DMPC  C311 4708   6.262   1.000   3.128
   40DMPC  H11X 4709   0.077   1.026   3.147
   40DMPC  H11Y 4710   6.214   1.086   3.077
   40DMPC  C312 4711   6.258   0.878   3.034
   40DMPC  H12X 4712   0.027   0.796   3.079
   40DMPC  H12Y 4713   0.015   0.906   2.938
   40DMPC  C313 4714   6.117   0.825   3.005
   40DMPC  H13X 4715   6.054   0.910   2.969
   40DMPC  H13Y 4716   6.072   0.787   3.099
   40DMPC  C314 4717   6.112   0.712   2.901
   40DMPC  H14X 4718   6.152   0.747   2.804
   40DMPC  H14Y 4719   6.007   0.679   2.887
   40DMPC  H14Z 4720   6.173   0.626   2.936
   41DMPC     N 4721   5.205   2.531   4.879
   41DMPC   C13 4722   5.166   2.633   4.980
   41DMPC  H13A 4723   5.066   2.667   4.958
   41DMPC  H13B 4724   5.233   2.717   4.974
   41DMPC  H13C 4725   5.169   2.590   5.079
   41DMPC   C14 4726   5.343   2.486   4.912
   41DMPC  H14A 4727   5.376   2.413   4.839
   41DMPC  H14B 4728   5.344   2.442   5.011
   41DMPC  H14C 4729   5.410   2.571   4.912
   41DMPC   C15 4730   5.113   2.415   4.887
   41DMPC  H15A 4731   5.012   2.447   4.865
   41DMPC  H15B 4732   5.114   2.372   4.986
   41DMPC  H15C 4733   5.142   2.340   4.814
   41DMPC   C12 4734   5.204   2.589   4.740
   41DMPC  H12A 4735   5.258   2.520   4.675
   41DMPC  H12B 4736   5.260   2.681   4.743
   41DMPC   C11 4737   5.067   2.617   4.674
   41DMPC  H11A 4738   5.021   2.519   4.646
   41DMPC  H11B 4739   5.085   2.673   4.579
   41DMPC     P 4740   4.837   2.666   4.775
   41DMPC   O13 4741   4.786   2.749   4.887
   41DMPC   O14 4742   4.818   2.519   4.789
   41DMPC   O11 4743   4.778   2.717   4.638
   41DMPC   O12 4744   4.989   2.696   4.760
   41DMPC    C1 4745   4.663   2.651   4.583
   41DMPC    HA 4746   4.582   2.642   4.659
   41DMPC    HB 4747   4.689   2.549   4.548
   41DMPC    C2 4748   4.601   2.728   4.462
   41DMPC    HS 4749   4.506   2.674   4.440
   41DMPC   O21 4750   4.694   2.727   4.352
   41DMPC   C21 4751   4.635   2.714   4.234
   41DMPC   O22 4752   4.517   2.690   4.217
   41DMPC   C22 4753   4.737   2.735   4.122
   41DMPC   H2R 4754   4.818   2.660   4.133
   41DMPC   H2S 4755   4.781   2.837   4.132
   41DMPC    C3 4756   4.566   2.875   4.502
   41DMPC    HX 4757   4.662   2.924   4.529
   41DMPC    HY 4758   4.505   2.874   4.595
   41DMPC   O31 4759   4.503   2.953   4.397
   41DMPC   C31 4760   4.373   2.926   4.381
   41DMPC   O32 4761   4.311   2.843   4.445
   41DMPC   C32 4762   4.315   3.016   4.271
   41DMPC   H2X 4763   4.333   3.122   4.297
   41DMPC   H2Y 4764   4.206   2.998   4.265
   41DMPC   C23 4765   4.670   2.721   3.984
   41DMPC   H3R 4766   4.587   2.795   3.975
   41DMPC   H3S 4767   4.627   2.619   3.975
   41DMPC   C24 4768   4.769   2.743   3.868
   41DMPC   H4R 4769   4.855   2.675   3.883
   41DMPC   H4S 4770   4.806   2.847   3.871
   41DMPC   C25 4771   4.713   2.713   3.727
   41DMPC   H5R 4772   4.678   2.608   3.724
   41DMPC   H5S 4773   4.796   2.724   3.655
   41DMPC   C26 4774   4.597   2.805   3.684
   41DMPC   H6R 4775   4.631   2.911   3.686
   41DMPC   H6S 4776   4.515   2.794   3.758
   41DMPC   C27 4777   4.540   2.772   3.545
   41DMPC   H7R 4778   4.446   2.831   3.531
   41DMPC   H7S 4779   4.512   2.665   3.543
   41DMPC   C28 4780   4.634   2.802   3.427
   41DMPC   H8R 4781   4.730   2.748   3.442
   41DMPC   H8S 4782   4.655   2.911   3.423
   41DMPC   C29 4783   4.573   2.756   3.293
   41DMPC   H9R 4784   4.476   2.809   3.278
   41DMPC   H9S 4785   4.552   2.647   3.302
   41DMPC  C210 4786   4.663   2.781   3.171
   41DMPC  H10R 4787   4.760   2.729   3.186
   41DMPC  H10S 4788   4.683   2.890   3.164
   41DMPC  C211 4789   4.601   2.733   3.038
   41DMPC  H11R 4790   4.666   2.767   2.955
   41DMPC  H11S 4791   4.502   2.783   3.026
   41DMPC  C212 4792   4.583   2.581   3.028
   41DMPC  H12R 4793   4.525   2.544   3.116
   41DMPC  H12S 4794   4.683   2.532   3.030
   41DMPC  C213 4795   4.507   2.534   2.903
   41DMPC  H13R 4796   4.405   2.578   2.905
   41DMPC  H13S 4797   4.496   2.423   2.908
   41DMPC  C214 4798   4.573   2.569   2.769
   41DMPC  H14R 4799   4.675   2.525   2.764
   41DMPC  H14S 4800   4.581   2.679   2.757
   41DMPC  H14T 4801   4.513   2.529   2.685
   41DMPC   C33 4802   4.381   2.981   4.137
   41DMPC   H3X 4803   4.363   2.874   4.114
   41DMPC   H3Y 4804   4.491   2.996   4.144
   41DMPC   C34 4805   4.329   3.064   4.018
   41DMPC   H4X 4806   4.360   3.170   4.031
   41DMPC   H4Y 4807   4.218   3.059   4.017
   41DMPC   C35 4808   4.382   3.009   3.884
   41DMPC   H5X 4809   4.350   2.903   3.876
   41DMPC   H5Y 4810   4.494   3.011   3.885
   41DMPC   C36 4811   4.332   3.083   3.759
   41DMPC   H6X 4812   4.222   3.095   3.765
   41DMPC   H6Y 4813   4.355   3.020   3.671
   41DMPC   C37 4814   4.397   3.221   3.738
   41DMPC   H7X 4815   4.507   3.209   3.729
   41DMPC   H7Y 4816   4.376   3.284   3.827
   41DMPC   C38 4817   4.344   3.295   3.613
   41DMPC   H8X 4818   4.386   3.398   3.613
   41DMPC   H8Y 4819   4.234   3.303   3.622
   41DMPC   C39 4820   4.378   3.229   3.479
   41DMPC   H9X 4821   4.335   3.127   3.476
   41DMPC   H9Y 4822   4.489   3.220   3.470
   41DMPC  C310 4823   4.323   3.308   3.359
   41DMPC  H10X 4824   4.372   3.407   3.355
   41DMPC  H10Y 4825   4.214   3.324   3.375
   41DMPC  C311 4826   4.340   3.238   3.223
   41DMPC  H11X 4827   4.290   3.301   3.146
   41DMPC  H11Y 4828   4.287   3.140   3.226
   41DMPC  C312 4829   4.486   3.215   3.181
   41DMPC  H12X 4830   4.535   3.150   3.257
   41DMPC  H12Y 4831   4.539   3.312   3.180
   41DMPC  C313 4832   4.503   3.148   3.043
   41DMPC  H13X 4833   4.455   3.048   3.047
   41DMPC  H13Y 4834   4.612   3.132   3.026
   41DMPC  C314 4835   4.447   3.226   2.925
   41DMPC  H14X 4836   4.496   3.326   2.917
   41DMPC  H14Y 4837   4.337   3.241   2.935
   41DMPC  H14Z 4838   4.464   3.171   2.830
   42DMPC     N 4839   2.833   2.306   4.966
   42DMPC   C13 4840   2.913   2.221   4.875
   42DMPC  H13A 4841   2.879   2.233   4.772
   42DMPC  H13B 4842   2.899   2.117   4.903
   42DMPC  H13C 4843   3.017   2.246   4.881
   42DMPC   C14 4844   2.878   2.286   5.106
   42DMPC  H14A 4845   2.821   2.349   5.172
   42DMPC  H14B 4846   2.983   2.312   5.113
   42DMPC  H14C 4847   2.865   2.182   5.133
   42DMPC   C15 4848   2.856   2.449   4.929
   42DMPC  H15A 4849   2.803   2.512   4.998
   42DMPC  H15B 4850   2.822   2.466   4.828
   42DMPC  H15C 4851   2.962   2.470   4.936
   42DMPC   C12 4852   2.686   2.275   4.951
   42DMPC  H12A 4853   2.664   2.274   4.845
   42DMPC  H12B 4854   2.630   2.356   4.996
   42DMPC   C11 4855   2.633   2.143   5.013
   42DMPC  H11A 4856   2.528   2.132   4.975
   42DMPC  H11B 4857   2.630   2.156   5.123
   42DMPC     P 4858   2.661   1.892   5.024
   42DMPC   O13 4859   2.530   1.907   5.092
   42DMPC   O14 4860   2.768   1.827   5.104
   42DMPC   O11 4861   2.645   1.813   4.888
   42DMPC   O12 4862   2.714   2.032   4.977
   42DMPC    C1 4863   2.756   1.795   4.798
   42DMPC    HA 4864   2.735   1.706   4.735
   42DMPC    HB 4865   2.851   1.775   4.852
   42DMPC    C2 4866   2.779   1.915   4.700
   42DMPC    HS 4867   2.820   1.996   4.764
   42DMPC   O21 4868   2.652   1.951   4.642
   42DMPC   C21 4869   2.644   2.080   4.617
   42DMPC   O22 4870   2.735   2.160   4.632
   42DMPC   C22 4871   2.505   2.115   4.566
   42DMPC   H2R 4872   2.434   2.031   4.580
   42DMPC   H2S 4873   2.513   2.136   4.457
   42DMPC    C3 4874   2.887   1.884   4.591
   42DMPC    HX 4875   2.985   1.881   4.644
   42DMPC    HY 4876   2.889   1.968   4.518
   42DMPC   O31 4877   2.863   1.758   4.523
   42DMPC   C31 4878   2.966   1.719   4.448
   42DMPC   O32 4879   3.064   1.788   4.425
   42DMPC   C32 4880   2.943   1.579   4.393
   42DMPC   H2X 4881   2.920   1.587   4.285
   42DMPC   H2Y 4882   2.856   1.531   4.444
   42DMPC   C23 4883   2.453   2.239   4.641
   42DMPC   H3R 4884   2.532   2.317   4.649
   42DMPC   H3S 4885   2.426   2.209   4.745
   42DMPC   C24 4886   2.331   2.305   4.575
   42DMPC   H4R 4887   2.287   2.378   4.646
   42DMPC   H4S 4888   2.255   2.227   4.554
   42DMPC   C25 4889   2.366   2.380   4.445
   42DMPC   H5R 4890   2.409   2.308   4.371
   42DMPC   H5S 4891   2.445   2.455   4.468
   42DMPC   C26 4892   2.248   2.451   4.379
   42DMPC   H6R 4893   2.287   2.509   4.292
   42DMPC   H6S 4894   2.203   2.523   4.451
   42DMPC   C27 4895   2.139   2.356   4.328
   42DMPC   H7R 4896   2.094   2.302   4.414
   42DMPC   H7S 4897   2.187   2.281   4.261
   42DMPC   C28 4898   2.029   2.428   4.250
   42DMPC   H8R 4899   2.076   2.487   4.168
   42DMPC   H8S 4900   1.976   2.499   4.317
   42DMPC   C29 4901   1.927   2.332   4.186
   42DMPC   H9R 4902   1.982   2.262   4.119
   42DMPC   H9S 4903   1.857   2.391   4.124
   42DMPC  C210 4904   1.846   2.251   4.288
   42DMPC  H10R 4905   1.798   2.321   4.360
   42DMPC  H10S 4906   1.913   2.184   4.346
   42DMPC  C211 4907   1.736   2.164   4.224
   42DMPC  H11R 4908   1.664   2.232   4.173
   42DMPC  H11S 4909   1.681   2.111   4.305
   42DMPC  C212 4910   1.788   2.062   4.123
   42DMPC  H12R 4911   1.865   1.998   4.172
   42DMPC  H12S 4912   1.838   2.116   4.039
   42DMPC  C213 4913   1.678   1.973   4.063
   42DMPC  H13R 4914   1.599   2.039   4.021
   42DMPC  H13S 4915   1.632   1.913   4.145
   42DMPC  C214 4916   1.728   1.879   3.953
   42DMPC  H14R 4917   1.643   1.824   3.909
   42DMPC  H14S 4918   1.801   1.806   3.994
   42DMPC  H14T 4919   1.778   1.937   3.872
   42DMPC   C33 4920   3.069   1.494   4.416
   42DMPC   H3X 4921   3.089   1.488   4.525
   42DMPC   H3Y 4922   3.157   1.544   4.368
   42DMPC   C34 4923   3.060   1.350   4.361
   42DMPC   H4X 4924   2.982   1.296   4.419
   42DMPC   H4Y 4925   3.157   1.299   4.380
   42DMPC   C35 4926   3.024   1.338   4.212
   42DMPC   H5X 4927   2.922   1.378   4.196
   42DMPC   H5Y 4928   3.023   1.230   4.185
   42DMPC   C36 4929   3.121   1.411   4.118
   42DMPC   H6X 4930   3.222   1.365   4.127
   42DMPC   H6Y 4931   3.129   1.517   4.149
   42DMPC   C37 4932   3.076   1.409   3.971
   42DMPC   H7X 4933   2.974   1.452   3.966
   42DMPC   H7Y 4934   3.072   1.305   3.934
   42DMPC   C38 4935   3.169   1.493   3.881
   42DMPC   H8X 4936   3.268   1.443   3.874
   42DMPC   H8Y 4937   3.183   1.592   3.929
   42DMPC   C39 4938   3.111   1.516   3.740
   42DMPC   H9X 4939   3.012   1.564   3.751
   42DMPC   H9Y 4940   3.097   1.418   3.690
   42DMPC  C310 4941   3.201   1.606   3.654
   42DMPC  H10X 4942   3.293   1.552   3.626
   42DMPC  H10Y 4943   3.230   1.694   3.715
   42DMPC  C311 4944   3.131   1.659   3.527
   42DMPC  H11X 4945   3.198   1.732   3.477
   42DMPC  H11Y 4946   3.040   1.714   3.559
   42DMPC  C312 4947   3.093   1.549   3.427
   42DMPC  H12X 4948   3.024   1.477   3.475
   42DMPC  H12Y 4949   3.185   1.494   3.398
   42DMPC  C313 4950   3.026   1.602   3.299
   42DMPC  H13X 4951   3.002   1.515   3.234
   42DMPC  H13Y 4952   3.099   1.666   3.244
   42DMPC  C314 4953   2.898   1.683   3.321
   42DMPC  H14X 4954   2.826   1.626   3.383
   42DMPC  H14Y 4955   2.850   1.707   3.224
   42DMPC  H14Z 4956   2.920   1.779   3.373
   43DMPC     N 4957   0.954   3.274   5.183
   43DMPC   C13 4958   0.985   3.257   5.327
   43DMPC  H13A 4959   0.906   3.199   5.375
   43DMPC  H13B 4960   0.993   3.353   5.376
   43DMPC  H13C 4961   1.079   3.204   5.338
   43DMPC   C14 4962   0.946   3.139   5.120
   43DMPC  H14A 4963   1.041   3.090   5.130
   43DMPC  H14B 4964   0.921   3.149   5.015
   43DMPC  H14C 4965   0.868   3.081   5.169
   43DMPC   C15 4966   0.822   3.342   5.171
   43DMPC  H15A 4967   0.745   3.281   5.217
   43DMPC  H15B 4968   0.797   3.355   5.066
   43DMPC  H15C 4969   0.825   3.439   5.218
   43DMPC   C12 4970   1.064   3.355   5.119
   43DMPC  H12A 4971   1.158   3.308   5.146
   43DMPC  H12B 4972   1.063   3.454   5.163
   43DMPC   C11 4973   1.063   3.371   4.965
   43DMPC  H11A 4974   1.070   3.271   4.918
   43DMPC  H11B 4975   1.155   3.425   4.933
   43DMPC     P 4976   0.940   3.588   4.900
   43DMPC   O13 4977   1.037   3.654   4.991
   43DMPC   O14 4978   0.800   3.633   4.908
   43DMPC   O11 4979   0.990   3.607   4.752
   43DMPC   O12 4980   0.944   3.433   4.921
   43DMPC    C1 4981   0.953   3.518   4.645
   43DMPC    HA 4982   0.911   3.578   4.561
   43DMPC    HB 4983   0.874   3.445   4.674
   43DMPC    C2 4984   1.076   3.440   4.591
   43DMPC    HS 4985   1.117   3.383   4.677
   43DMPC   O21 4986   1.168   3.538   4.539
   43DMPC   C21 4987   1.294   3.500   4.544
   43DMPC   O22 4988   1.337   3.407   4.611
   43DMPC   C22 4989   1.377   3.585   4.448
   43DMPC   H2R 4990   1.477   3.538   4.437
   43DMPC   H2S 4991   1.388   3.687   4.490
   43DMPC    C3 4992   1.037   3.338   4.479
   43DMPC    HX 4993   0.992   3.396   4.396
   43DMPC    HY 4994   0.958   3.269   4.516
   43DMPC   O31 4995   1.152   3.267   4.426
   43DMPC   C31 4996   1.187   3.159   4.495
   43DMPC   O32 4997   1.124   3.113   4.590
   43DMPC   C32 4998   1.322   3.107   4.447
   43DMPC   H2X 4999   1.355   3.025   4.515
   43DMPC   H2Y 5000   1.396   3.189   4.452
   43DMPC   C23 5001   1.307   3.591   4.310
   43DMPC   H3R 5002   1.210   3.645   4.321
   43DMPC   H3S 5003   1.286   3.488   4.275
   43DMPC   C24 5004   1.391   3.662   4.203
   43DMPC   H4R 5005   1.486   3.606   4.189
   43DMPC   H4S 5006   1.416   3.764   4.239
   43DMPC   C25 5007   1.320   3.674   4.066
   43DMPC   H5R 5008   1.296   3.572   4.029
   43DMPC   H5S 5009   1.392   3.720   3.995
   43DMPC   C26 5010   1.193   3.760   4.069
   43DMPC   H6R 5011   1.217   3.857   4.117
   43DMPC   H6S 5012   1.114   3.710   4.130
   43DMPC   C27 5013   1.136   3.788   3.929
   43DMPC   H7R 5014   1.100   3.694   3.882
   43DMPC   H7S 5015   1.218   3.829   3.866
   43DMPC   C28 5016   1.022   3.891   3.930
   43DMPC   H8R 5017   1.052   3.974   3.998
   43DMPC   H8S 5018   0.930   3.845   3.972
   43DMPC   C29 5019   0.992   3.952   3.793
   43DMPC   H9R 5020   0.949   3.875   3.725
   43DMPC   H9S 5021   1.089   3.986   3.749
   43DMPC  C210 5022   0.898   4.074   3.798
   43DMPC  H10R 5023   0.926   4.136   3.887
   43DMPC  H10S 5024   0.793   4.040   3.812
   43DMPC  C211 5025   0.909   4.163   3.674
   43DMPC  H11R 5026   0.873   4.107   3.585
   43DMPC  H11S 5027   1.016   4.188   3.658
   43DMPC  C212 5028   0.831   4.295   3.686
   43DMPC  H12R 5029   0.859   4.343   3.783
   43DMPC  H12S 5030   0.722   4.274   3.689
   43DMPC  C213 5031   0.861   4.396   3.573
   43DMPC  H13R 5032   0.970   4.417   3.573
   43DMPC  H13S 5033   0.809   4.491   3.597
   43DMPC  C214 5034   0.818   4.350   3.434
   43DMPC  H14R 5035   0.841   4.429   3.359
   43DMPC  H14S 5036   0.709   4.330   3.431
   43DMPC  H14T 5037   0.872   4.258   3.404
   43DMPC   C33 5038   1.312   3.053   4.303
   43DMPC   H3X 5039   1.282   3.134   4.234
   43DMPC   H3Y 5040   1.232   2.975   4.300
   43DMPC   C34 5041   1.442   2.988   4.253
   43DMPC   H4X 5042   1.421   2.939   4.156
   43DMPC   H4Y 5043   1.471   2.908   4.326
   43DMPC   C35 5044   1.561   3.084   4.236
   43DMPC   H5X 5045   1.652   3.023   4.217
   43DMPC   H5Y 5046   1.578   3.142   4.329
   43DMPC   C36 5047   1.544   3.181   4.117
   43DMPC   H6X 5048   1.456   3.246   4.134
   43DMPC   H6Y 5049   1.524   3.119   4.027
   43DMPC   C37 5050   1.668   3.269   4.093
   43DMPC   H7X 5051   1.758   3.204   4.091
   43DMPC   H7Y 5052   1.678   3.340   4.179
   43DMPC   C38 5053   1.663   3.350   3.962
   43DMPC   H8X 5054   1.752   3.416   3.959
   43DMPC   H8Y 5055   1.572   3.414   3.961
   43DMPC   C39 5056   1.664   3.262   3.836
   43DMPC   H9X 5057   1.572   3.199   3.834
   43DMPC   H9Y 5058   1.752   3.194   3.842
   43DMPC  C310 5059   1.673   3.339   3.704
   43DMPC  H10X 5060   1.768   3.397   3.702
   43DMPC  H10Y 5061   1.588   3.411   3.698
   43DMPC  C311 5062   1.668   3.246   3.582
   43DMPC  H11X 5063   1.570   3.194   3.580
   43DMPC  H11Y 5064   1.748   3.169   3.592
   43DMPC  C312 5065   1.689   3.319   3.448
   43DMPC  H12X 5066   1.788   3.369   3.451
   43DMPC  H12Y 5067   1.611   3.398   3.437
   43DMPC  C313 5068   1.684   3.226   3.326
   43DMPC  H13X 5069   1.586   3.175   3.324
   43DMPC  H13Y 5070   1.763   3.148   3.338
   43DMPC  C314 5071   1.706   3.298   3.192
   43DMPC  H14X 5072   1.628   3.375   3.177
   43DMPC  H14Y 5073   1.701   3.225   3.108
   43DMPC  H14Z 5074   1.806   3.347   3.190
   44DMPC     N 5075   1.752   4.301   5.389
   44DMPC   C13 5076   1.710   4.178   5.317
   44DMPC  H13A 5077   1.784   4.156   5.241
   44DMPC  H13B 5078   1.614   4.194   5.271
   44DMPC  H13C 5079   1.704   4.096   5.387
   44DMPC   C14 5080   1.757   4.415   5.294
   44DMPC  H14A 5081   1.832   4.396   5.218
   44DMPC  H14B 5082   1.781   4.506   5.348
   44DMPC  H14C 5083   1.661   4.427   5.245
   44DMPC   C15 5084   1.647   4.330   5.491
   44DMPC  H15A 5085   1.665   4.426   5.537
   44DMPC  H15B 5086   1.646   4.253   5.567
   44DMPC  H15C 5087   1.550   4.332   5.443
   44DMPC   C12 5088   1.885   4.282   5.458
   44DMPC  H12A 5089   1.875   4.199   5.527
   44DMPC  H12B 5090   1.903   4.371   5.518
   44DMPC   C11 5091   2.011   4.257   5.372
   44DMPC  H11A 5092   2.096   4.250   5.445
   44DMPC  H11B 5093   2.029   4.345   5.306
   44DMPC     P 5094   2.129   4.081   5.232
   44DMPC   O13 5095   2.239   4.178   5.239
   44DMPC   O14 5096   2.156   3.947   5.289
   44DMPC   O11 5097   2.091   4.062   5.080
   44DMPC   O12 5098   1.997   4.139   5.294
   44DMPC    C1 5099   2.192   4.022   4.986
   44DMPC    HA 5100   2.146   3.951   4.913
   44DMPC    HB 5101   2.276   3.968   5.034
   44DMPC    C2 5102   2.251   4.141   4.905
   44DMPC    HS 5103   2.285   4.217   4.980
   44DMPC   O21 5104   2.144   4.193   4.824
   44DMPC   C21 5105   2.173   4.311   4.770
   44DMPC   O22 5106   2.277   4.372   4.787
   44DMPC   C22 5107   2.057   4.354   4.679
   44DMPC   H2R 5108   2.047   4.464   4.682
   44DMPC   H2S 5109   1.963   4.310   4.718
   44DMPC    C3 5110   2.376   4.097   4.820
   44DMPC    HX 5111   2.439   4.029   4.880
   44DMPC    HY 5112   2.438   4.188   4.803
   44DMPC   O31 5113   2.341   4.043   4.690
   44DMPC   C31 5114   2.325   3.912   4.683
   44DMPC   O32 5115   2.337   3.834   4.777
   44DMPC   C32 5116   2.284   3.873   4.541
   44DMPC   H2X 5117   2.260   3.963   4.482
   44DMPC   H2Y 5118   2.192   3.811   4.548
   44DMPC   C23 5119   2.083   4.305   4.535
   44DMPC   H3R 5120   2.129   4.204   4.539
   44DMPC   H3S 5121   2.155   4.373   4.485
   44DMPC   C24 5122   1.954   4.292   4.452
   44DMPC   H4R 5123   1.911   4.393   4.433
   44DMPC   H4S 5124   1.881   4.234   4.512
   44DMPC   C25 5125   1.975   4.219   4.319
   44DMPC   H5R 5126   2.042   4.132   4.337
   44DMPC   H5S 5127   2.027   4.286   4.247
   44DMPC   C26 5128   1.845   4.164   4.257
   44DMPC   H6R 5129   1.798   4.094   4.331
   44DMPC   H6S 5130   1.871   4.104   4.167
   44DMPC   C27 5131   1.740   4.270   4.219
   44DMPC   H7R 5132   1.710   4.327   4.310
   44DMPC   H7S 5133   1.649   4.216   4.182
   44DMPC   C28 5134   1.783   4.369   4.110
   44DMPC   H8R 5135   1.697   4.436   4.087
   44DMPC   H8S 5136   1.865   4.433   4.149
   44DMPC   C29 5137   1.829   4.304   3.979
   44DMPC   H9R 5138   1.751   4.232   3.945
   44DMPC   H9S 5139   1.923   4.247   3.997
   44DMPC  C210 5140   1.855   4.406   3.866
   44DMPC  H10R 5141   1.759   4.458   3.844
   44DMPC  H10S 5142   1.928   4.481   3.902
   44DMPC  C211 5143   1.908   4.341   3.738
   44DMPC  H11R 5144   1.838   4.261   3.706
   44DMPC  H11S 5145   2.007   4.294   3.759
   44DMPC  C212 5146   1.925   4.441   3.622
   44DMPC  H12R 5147   1.991   4.524   3.655
   44DMPC  H12S 5148   1.825   4.485   3.598
   44DMPC  C213 5149   1.984   4.377   3.495
   44DMPC  H13R 5150   1.918   4.293   3.465
   44DMPC  H13S 5151   2.084   4.336   3.520
   44DMPC  C214 5152   1.998   4.474   3.377
   44DMPC  H14R 5153   1.899   4.515   3.349
   44DMPC  H14S 5154   2.041   4.421   3.289
   44DMPC  H14T 5155   2.065   4.558   3.404
   44DMPC   C33 5156   2.396   3.793   4.473
   44DMPC   H3X 5157   2.426   3.708   4.538
   44DMPC   H3Y 5158   2.485   3.859   4.461
   44DMPC   C34 5159   2.355   3.738   4.336
   44DMPC   H4X 5160   2.317   3.822   4.274
   44DMPC   H4Y 5161   2.272   3.665   4.350
   44DMPC   C35 5162   2.470   3.669   4.261
   44DMPC   H5X 5163   2.518   3.596   4.329
   44DMPC   H5Y 5164   2.546   3.745   4.234
   44DMPC   C36 5165   2.426   3.592   4.134
   44DMPC   H6X 5166   2.365   3.505   4.166
   44DMPC   H6Y 5167   2.517   3.552   4.084
   44DMPC   C37 5168   2.345   3.674   4.033
   44DMPC   H7X 5169   2.251   3.708   4.080
   44DMPC   H7Y 5170   2.318   3.607   3.948
   44DMPC   C38 5171   2.419   3.796   3.976
   44DMPC   H8X 5172   2.510   3.762   3.922
   44DMPC   H8Y 5173   2.452   3.862   4.059
   44DMPC   C39 5174   2.331   3.879   3.880
   44DMPC   H9X 5175   2.241   3.914   3.936
   44DMPC   H9Y 5176   2.297   3.814   3.797
   44DMPC  C310 5177   2.404   4.001   3.822
   44DMPC  H10X 5178   2.493   3.965   3.765
   44DMPC  H10Y 5179   2.440   4.065   3.906
   44DMPC  C311 5180   2.314   4.085   3.730
   44DMPC  H11X 5181   2.223   4.114   3.787
   44DMPC  H11Y 5182   2.282   4.023   3.644
   44DMPC  C312 5183   2.381   4.213   3.678
   44DMPC  H12X 5184   2.410   4.277   3.764
   44DMPC  H12Y 5185   2.307   4.270   3.618
   44DMPC  C313 5186   2.506   4.189   3.590
   44DMPC  H13X 5187   2.584   4.140   3.652
   44DMPC  H13Y 5188   2.478   4.119   3.508
   44DMPC  C314 5189   2.564   4.316   3.529
   44DMPC  H14X 5190   2.654   4.292   3.468
   44DMPC  H14Y 5191   2.594   4.387   3.609
   44DMPC  H14Z 5192   2.490   4.366   3.463
   45DMPC     N 5193   3.035   1.541   5.129
   45DMPC   C13 5194   2.939   1.565   5.019
   45DMPC  H13A 5195   2.994   1.589   4.929
   45DMPC  H13B 5196   2.873   1.647   5.045
   45DMPC  H13C 5197   2.881   1.475   5.001
   45DMPC   C14 5198   3.107   1.667   5.160
   45DMPC  H14A 5199   3.172   1.653   5.245
   45DMPC  H14B 5200   3.036   1.745   5.183
   45DMPC  H14C 5201   3.166   1.697   5.074
   45DMPC   C15 5202   2.958   1.500   5.250
   45DMPC  H15A 5203   3.026   1.481   5.332
   45DMPC  H15B 5204   2.901   1.411   5.230
   45DMPC  H15C 5205   2.891   1.580   5.278
   45DMPC   C12 5206   3.132   1.431   5.092
   45DMPC  H12A 5207   3.075   1.350   5.048
   45DMPC  H12B 5208   3.179   1.395   5.182
   45DMPC   C11 5209   3.245   1.468   4.993
   45DMPC  H11A 5210   3.297   1.374   4.962
   45DMPC  H11B 5211   3.318   1.530   5.050
   45DMPC     P 5212   3.286   1.625   4.794
   45DMPC   O13 5213   3.414   1.644   4.864
   45DMPC   O14 5214   3.212   1.749   4.759
   45DMPC   O11 5215   3.313   1.539   4.664
   45DMPC   O12 5216   3.192   1.534   4.880
   45DMPC    C1 5217   3.411   1.433   4.663
   45DMPC    HA 5218   3.364   1.342   4.620
   45DMPC    HB 5219   3.447   1.407   4.765
   45DMPC    C2 5220   3.535   1.466   4.574
   45DMPC    HS 5221   3.576   1.564   4.608
   45DMPC   O21 5222   3.492   1.464   4.437
   45DMPC   C21 5223   3.504   1.578   4.373
   45DMPC   O22 5224   3.545   1.683   4.420
   45DMPC   C22 5225   3.462   1.557   4.227
   45DMPC   H2R 5226   3.354   1.579   4.217
   45DMPC   H2S 5227   3.480   1.452   4.197
   45DMPC    C3 5228   3.647   1.359   4.595
   45DMPC    HX 5229   3.597   1.260   4.589
   45DMPC    HY 5230   3.688   1.368   4.698
   45DMPC   O31 5231   3.751   1.360   4.495
   45DMPC   C31 5232   3.849   1.449   4.514
   45DMPC   O32 5233   3.845   1.538   4.598
   45DMPC   C32 5234   3.963   1.418   4.418
   45DMPC   H2X 5235   3.923   1.403   4.315
   45DMPC   H2Y 5236   4.008   1.321   4.451
   45DMPC   C23 5237   3.543   1.651   4.136
   45DMPC   H3R 5238   3.651   1.635   4.153
   45DMPC   H3S 5239   3.518   1.756   4.162
   45DMPC   C24 5240   3.514   1.629   3.986
   45DMPC   H4R 5241   3.407   1.651   3.966
   45DMPC   H4S 5242   3.531   1.522   3.962
   45DMPC   C25 5243   3.603   1.714   3.893
   45DMPC   H5R 5244   3.575   1.692   3.787
   45DMPC   H5S 5245   3.709   1.682   3.907
   45DMPC   C26 5246   3.596   1.866   3.916
   45DMPC   H6R 5247   3.669   1.916   3.849
   45DMPC   H6S 5248   3.627   1.888   4.021
   45DMPC   C27 5249   3.458   1.929   3.892
   45DMPC   H7R 5250   3.459   2.032   3.934
   45DMPC   H7S 5251   3.379   1.873   3.945
   45DMPC   C28 5252   3.422   1.941   3.742
   45DMPC   H8R 5253   3.419   1.840   3.696
   45DMPC   H8S 5254   3.505   1.998   3.693
   45DMPC   C29 5255   3.289   2.013   3.717
   45DMPC   H9R 5256   3.284   2.104   3.781
   45DMPC   H9S 5257   3.206   1.945   3.748
   45DMPC  C210 5258   3.267   2.055   3.571
   45DMPC  H10R 5259   3.160   2.086   3.559
   45DMPC  H10S 5260   3.284   1.968   3.504
   45DMPC  C211 5261   3.357   2.172   3.527
   45DMPC  H11R 5262   3.463   2.145   3.544
   45DMPC  H11S 5263   3.334   2.261   3.591
   45DMPC  C212 5264   3.343   2.211   3.379
   45DMPC  H12R 5265   3.362   2.122   3.316
   45DMPC  H12S 5266   3.422   2.286   3.356
   45DMPC  C213 5267   3.207   2.273   3.341
   45DMPC  H13R 5268   3.187   2.358   3.410
   45DMPC  H13S 5269   3.127   2.197   3.356
   45DMPC  C214 5270   3.202   2.324   3.197
   45DMPC  H14R 5271   3.103   2.370   3.176
   45DMPC  H14S 5272   3.219   2.240   3.126
   45DMPC  H14T 5273   3.281   2.400   3.180
   45DMPC   C33 5274   4.073   1.525   4.419
   45DMPC   H3X 5275   4.166   1.478   4.378
   45DMPC   H3Y 5276   4.097   1.555   4.524
   45DMPC   C34 5277   4.046   1.650   4.334
   45DMPC   H4X 5278   4.135   1.717   4.342
   45DMPC   H4Y 5279   3.959   1.705   4.375
   45DMPC   C35 5280   4.022   1.621   4.184
   45DMPC   H5X 5281   3.920   1.580   4.172
   45DMPC   H5Y 5282   4.094   1.543   4.151
   45DMPC   C36 5283   4.039   1.743   4.091
   45DMPC   H6X 5284   4.003   1.714   3.990
   45DMPC   H6Y 5285   4.146   1.770   4.083
   45DMPC   C37 5286   3.961   1.867   4.138
   45DMPC   H7X 5287   4.013   1.912   4.226
   45DMPC   H7Y 5288   3.860   1.834   4.171
   45DMPC   C38 5289   3.941   1.975   4.030
   45DMPC   H8X 5290   3.878   1.932   3.950
   45DMPC   H8Y 5291   4.039   2.002   3.985
   45DMPC   C39 5292   3.875   2.102   4.085
   45DMPC   H9X 5293   3.949   2.159   4.144
   45DMPC   H9Y 5294   3.792   2.073   4.153
   45DMPC  C310 5295   3.816   2.195   3.977
   45DMPC  H10X 5296   3.737   2.139   3.922
   45DMPC  H10Y 5297   3.896   2.223   3.905
   45DMPC  C311 5298   3.754   2.322   4.037
   45DMPC  H11X 5299   3.835   2.382   4.084
   45DMPC  H11Y 5300   3.682   2.293   4.116
   45DMPC  C312 5301   3.680   2.409   3.934
   45DMPC  H12X 5302   3.596   2.351   3.891
   45DMPC  H12Y 5303   3.750   2.434   3.851
   45DMPC  C313 5304   3.626   2.540   3.994
   45DMPC  H13X 5305   3.711   2.599   4.033
   45DMPC  H13Y 5306   3.560   2.514   4.081
   45DMPC  C314 5307   3.546   2.626   3.896
   45DMPC  H14X 5308   3.514   2.720   3.944
   45DMPC  H14Y 5309   3.456   2.571   3.860
   45DMPC  H14Z 5310   3.609   2.651   3.807
   46DMPC     N 5311   3.267   5.821   5.325
   46DMPC   C13 5312   3.122   5.813   5.357
   46DMPC  H13A 5313   3.066   5.802   5.266
   46DMPC  H13B 5314   3.091   5.902   5.411
   46DMPC  H13C 5315   3.104   5.726   5.419
   46DMPC   C14 5316   3.296   5.948   5.253
   46DMPC  H14A 5317   3.401   5.955   5.232
   46DMPC  H14B 5318   3.266   6.032   5.315
   46DMPC  H14C 5319   3.241   5.953   5.160
   46DMPC   C15 5320   3.342   5.824   5.454
   46DMPC  H15A 5321   3.309   5.908   5.514
   46DMPC  H15B 5322   3.448   5.833   5.435
   46DMPC  H15C 5323   3.324   5.732   5.509
   46DMPC   C12 5324   3.311   5.703   5.244
   46DMPC  H12A 5325   3.290   5.614   5.302
   46DMPC  H12B 5326   3.418   5.709   5.231
   46DMPC   C11 5327   3.248   5.682   5.103
   46DMPC  H11A 5328   3.299   5.590   5.064
   46DMPC  H11B 5329   3.274   5.768   5.038
   46DMPC     P 5330   3.038   5.590   4.993
   46DMPC   O13 5331   2.891   5.596   5.006
   46DMPC   O14 5332   3.098   5.455   4.983
   46DMPC   O11 5333   3.082   5.676   4.867
   46DMPC   O12 5334   3.106   5.668   5.111
   46DMPC    C1 5335   3.139   5.617   4.749
   46DMPC    HA 5336   3.114   5.680   4.661
   46DMPC    HB 5337   3.097   5.516   4.729
   46DMPC    C2 5338   3.294   5.606   4.755
   46DMPC    HS 5339   3.317   5.553   4.851
   46DMPC   O21 5340   3.351   5.738   4.752
   46DMPC   C21 5341   3.475   5.741   4.798
   46DMPC   O22 5342   3.524   5.654   4.868
   46DMPC   C22 5343   3.548   5.864   4.748
   46DMPC   H2R 5344   3.555   5.937   4.832
   46DMPC   H2S 5345   3.494   5.912   4.664
   46DMPC    C3 5346   3.353   5.518   4.640
   46DMPC    HX 5347   3.303   5.419   4.641
   46DMPC    HY 5348   3.460   5.502   4.667
   46DMPC   O31 5349   3.338   5.579   4.510
   46DMPC   C31 5350   3.425   5.534   4.420
   46DMPC   O32 5351   3.510   5.450   4.442
   46DMPC   C32 5352   3.404   5.605   4.287
   46DMPC   H2X 5353   3.459   5.701   4.288
   46DMPC   H2Y 5354   3.296   5.625   4.272
   46DMPC   C23 5355   3.691   5.825   4.704
   46DMPC   H3R 5356   3.741   5.768   4.784
   46DMPC   H3S 5357   3.749   5.919   4.688
   46DMPC   C24 5358   3.696   5.744   4.573
   46DMPC   H4R 5359   3.654   5.806   4.490
   46DMPC   H4S 5360   3.632   5.654   4.584
   46DMPC   C25 5361   3.838   5.698   4.537
   46DMPC   H5R 5362   3.877   5.638   4.623
   46DMPC   H5S 5363   3.903   5.787   4.525
   46DMPC   C26 5364   3.848   5.610   4.411
   46DMPC   H6R 5365   3.780   5.523   4.420
   46DMPC   H6S 5366   3.952   5.571   4.406
   46DMPC   C27 5367   3.820   5.685   4.280
   46DMPC   H7R 5368   3.882   5.777   4.277
   46DMPC   H7S 5369   3.713   5.715   4.276
   46DMPC   C28 5370   3.853   5.600   4.156
   46DMPC   H8R 5371   3.792   5.507   4.158
   46DMPC   H8S 5372   3.960   5.570   4.161
   46DMPC   C29 5373   3.828   5.673   4.023
   46DMPC   H9R 5374   3.890   5.765   4.020
   46DMPC   H9S 5375   3.721   5.702   4.018
   46DMPC  C210 5376   3.862   5.586   3.900
   46DMPC  H10R 5377   3.807   5.490   3.908
   46DMPC  H10S 5378   3.971   5.565   3.901
   46DMPC  C211 5379   3.823   5.654   3.767
   46DMPC  H11R 5380   3.879   5.749   3.757
   46DMPC  H11S 5381   3.715   5.678   3.771
   46DMPC  C212 5382   3.848   5.567   3.643
   46DMPC  H12R 5383   3.803   5.618   3.555
   46DMPC  H12S 5384   3.796   5.470   3.656
   46DMPC  C213 5385   3.996   5.541   3.612
   46DMPC  H13R 5386   4.042   5.487   3.698
   46DMPC  H13S 5387   4.048   5.639   3.603
   46DMPC  C214 5388   4.020   5.460   3.485
   46DMPC  H14R 5389   3.974   5.360   3.493
   46DMPC  H14S 5390   4.129   5.447   3.468
   46DMPC  H14T 5391   3.977   5.512   3.397
   46DMPC   C33 5392   3.456   5.517   4.172
   46DMPC   H3X 5393   3.402   5.420   4.174
   46DMPC   H3Y 5394   3.565   5.496   4.187
   46DMPC   C34 5395   3.437   5.580   4.034
   46DMPC   H4X 5396   3.502   5.670   4.024
   46DMPC   H4Y 5397   3.332   5.615   4.025
   46DMPC   C35 5398   3.464   5.483   3.918
   46DMPC   H5X 5399   3.403   5.392   3.932
   46DMPC   H5Y 5400   3.571   5.453   3.919
   46DMPC   C36 5401   3.430   5.546   3.782
   46DMPC   H6X 5402   3.492   5.637   3.769
   46DMPC   H6Y 5403   3.323   5.578   3.784
   46DMPC   C37 5404   3.450   5.452   3.662
   46DMPC   H7X 5405   3.398   5.355   3.683
   46DMPC   H7Y 5406   3.558   5.431   3.650
   46DMPC   C38 5407   3.394   5.509   3.530
   46DMPC   H8X 5408   3.284   5.520   3.541
   46DMPC   H8Y 5409   3.413   5.436   3.448
   46DMPC   C39 5410   3.453   5.646   3.492
   46DMPC   H9X 5411   3.562   5.635   3.475
   46DMPC   H9Y 5412   3.439   5.715   3.578
   46DMPC  C310 5413   3.387   5.714   3.371
   46DMPC  H10X 5414   3.420   5.820   3.371
   46DMPC  H10Y 5415   3.277   5.713   3.384
   46DMPC  C311 5416   3.424   5.652   3.235
   46DMPC  H11X 5417   3.378   5.551   3.228
   46DMPC  H11Y 5418   3.534   5.640   3.229
   46DMPC  C312 5419   3.376   5.737   3.116
   46DMPC  H12X 5420   3.269   5.762   3.131
   46DMPC  H12Y 5421   3.385   5.676   3.024
   46DMPC  C313 5422   3.456   5.867   3.095
   46DMPC  H13X 5423   3.563   5.841   3.080
   46DMPC  H13Y 5424   3.449   5.931   3.186
   46DMPC  C314 5425   3.409   5.950   2.975
   46DMPC  H14X 5426   3.470   6.042   2.964
   46DMPC  H14Y 5427   3.302   5.980   2.988
   46DMPC  H14Z 5428   3.418   5.891   2.881
   47DMPC     N 5429   4.226   1.935   4.664
   47DMPC   C13 5430   4.277   1.982   4.532
   47DMPC  H13A 5431   4.353   2.056   4.547
   47DMPC  H13B 5432   4.196   2.025   4.475
   47DMPC  H13C 5433   4.318   1.897   4.478
   47DMPC   C14 5434   4.123   1.831   4.639
   47DMPC  H14A 5435   4.085   1.794   4.733
   47DMPC  H14B 5436   4.168   1.750   4.584
   47DMPC  H14C 5437   4.042   1.873   4.581
   47DMPC   C15 5438   4.337   1.871   4.739
   47DMPC  H15A 5439   4.301   1.833   4.833
   47DMPC  H15B 5440   4.417   1.943   4.756
   47DMPC  H15C 5441   4.375   1.788   4.680
   47DMPC   C12 5442   4.166   2.049   4.742
   47DMPC  H12A 5443   4.119   2.007   4.830
   47DMPC  H12B 5444   4.087   2.093   4.681
   47DMPC   C11 5445   4.260   2.163   4.787
   47DMPC  H11A 5446   4.336   2.118   4.855
   47DMPC  H11B 5447   4.199   2.235   4.847
   47DMPC     P 5448   4.440   2.321   4.707
   47DMPC   O13 5449   4.563   2.240   4.689
   47DMPC   O14 5450   4.421   2.381   4.841
   47DMPC   O11 5451   4.432   2.435   4.599
   47DMPC   O12 5452   4.317   2.229   4.675
   47DMPC    C1 5453   4.365   2.421   4.473
   47DMPC    HA 5454   4.354   2.522   4.428
   47DMPC    HB 5455   4.262   2.380   4.485
   47DMPC    C2 5456   4.442   2.334   4.369
   47DMPC    HS 5457   4.422   2.228   4.400
   47DMPC   O21 5458   4.582   2.367   4.376
   47DMPC   C21 5459   4.660   2.265   4.349
   47DMPC   O22 5460   4.622   2.151   4.325
   47DMPC   C22 5461   4.806   2.309   4.350
   47DMPC   H2R 5462   4.855   2.263   4.439
   47DMPC   H2S 5463   4.815   2.419   4.359
   47DMPC    C3 5464   4.387   2.356   4.224
   47DMPC    HX 5465   4.426   2.453   4.188
   47DMPC    HY 5466   4.276   2.367   4.228
   47DMPC   O31 5467   4.428   2.252   4.131
   47DMPC   C31 5468   4.353   2.142   4.138
   47DMPC   O32 5469   4.253   2.131   4.208
   47DMPC   C32 5470   4.412   2.031   4.052
   47DMPC   H2X 5471   4.387   1.934   4.100
   47DMPC   H2Y 5472   4.523   2.041   4.049
   47DMPC   C23 5473   4.876   2.259   4.223
   47DMPC   H3R 5474   4.850   2.153   4.203
   47DMPC   H3S 5475   4.986   2.263   4.239
   47DMPC   C24 5476   4.847   2.344   4.098
   47DMPC   H4R 5477   4.903   2.439   4.106
   47DMPC   H4S 5478   4.738   2.368   4.094
   47DMPC   C25 5479   4.885   2.272   3.967
   47DMPC   H5R 5480   4.810   2.193   3.948
   47DMPC   H5S 5481   4.984   2.223   3.980
   47DMPC   C26 5482   4.893   2.367   3.846
   47DMPC   H6R 5483   4.987   2.425   3.855
   47DMPC   H6S 5484   4.808   2.438   3.848
   47DMPC   C27 5485   4.893   2.293   3.711
   47DMPC   H7R 5486   4.951   2.199   3.721
   47DMPC   H7S 5487   4.944   2.357   3.636
   47DMPC   C28 5488   4.751   2.263   3.660
   47DMPC   H8R 5489   4.700   2.360   3.639
   47DMPC   H8S 5490   4.694   2.211   3.740
   47DMPC   C29 5491   4.748   2.177   3.533
   47DMPC   H9R 5492   4.782   2.074   3.559
   47DMPC   H9S 5493   4.819   2.219   3.458
   47DMPC  C210 5494   4.608   2.169   3.470
   47DMPC  H10R 5495   4.583   2.268   3.426
   47DMPC  H10S 5496   4.534   2.151   3.552
   47DMPC  C211 5497   4.591   2.059   3.365
   47DMPC  H11R 5498   4.487   2.061   3.327
   47DMPC  H11S 5499   4.606   1.960   3.415
   47DMPC  C212 5500   4.688   2.067   3.245
   47DMPC  H12R 5501   4.671   1.978   3.181
   47DMPC  H12S 5502   4.792   2.063   3.283
   47DMPC  C213 5503   4.671   2.193   3.159
   47DMPC  H13R 5504   4.688   2.283   3.221
   47DMPC  H13S 5505   4.566   2.197   3.121
   47DMPC  C214 5506   4.766   2.199   3.039
   47DMPC  H14R 5507   4.750   2.111   2.972
   47DMPC  H14S 5508   4.872   2.197   3.073
   47DMPC  H14T 5509   4.750   2.292   2.980
   47DMPC   C33 5510   4.354   2.035   3.910
   47DMPC   H3X 5511   4.390   2.127   3.859
   47DMPC   H3Y 5512   4.243   2.039   3.915
   47DMPC   C34 5513   4.396   1.912   3.827
   47DMPC   H4X 5514   4.353   1.821   3.874
   47DMPC   H4Y 5515   4.507   1.904   3.832
   47DMPC   C35 5516   4.355   1.917   3.679
   47DMPC   H5X 5517   4.400   1.830   3.628
   47DMPC   H5Y 5518   4.398   2.009   3.634
   47DMPC   C36 5519   4.204   1.916   3.654
   47DMPC   H6X 5520   4.157   2.002   3.708
   47DMPC   H6Y 5521   4.160   1.822   3.695
   47DMPC   C37 5522   4.166   1.929   3.505
   47DMPC   H7X 5523   4.211   2.023   3.465
   47DMPC   H7Y 5524   4.056   1.938   3.498
   47DMPC   C38 5525   4.210   1.810   3.418
   47DMPC   H8X 5526   4.164   1.718   3.460
   47DMPC   H8Y 5527   4.320   1.798   3.422
   47DMPC   C39 5528   4.168   1.823   3.270
   47DMPC   H9X 5529   4.060   1.848   3.265
   47DMPC   H9Y 5530   4.182   1.724   3.221
   47DMPC  C310 5531   4.249   1.927   3.191
   47DMPC  H10X 5532   4.356   1.896   3.192
   47DMPC  H10Y 5533   4.241   2.026   3.240
   47DMPC  C311 5534   4.203   1.940   3.045
   47DMPC  H11X 5535   4.100   1.984   3.043
   47DMPC  H11Y 5536   4.197   1.839   2.999
   47DMPC  C312 5537   4.297   2.027   2.959
   47DMPC  H12X 5538   4.399   1.982   2.962
   47DMPC  H12Y 5539   4.303   2.129   3.003
   47DMPC  C313 5540   4.252   2.039   2.813
   47DMPC  H13X 5541   4.152   2.087   2.810
   47DMPC  H13Y 5542   4.242   1.936   2.770
   47DMPC  C314 5543   4.348   2.119   2.724
   47DMPC  H14X 5544   4.448   2.071   2.723
   47DMPC  H14Y 5545   4.358   2.223   2.762
   47DMPC  H14Z 5546   4.310   2.123   2.620
   48DMPC     N 5547   2.836   0.034   5.317
   48DMPC   C13 5548   2.947   0.069   5.408
   48DMPC  H13A 5549   3.041   0.035   5.367
   48DMPC  H13B 5550   2.931   0.023   5.505
   48DMPC  H13C 5551   2.952   0.177   5.420
   48DMPC   C14 5552   2.864   0.090   5.183
   48DMPC  H14A 5553   2.960   0.055   5.148
   48DMPC  H14B 5554   2.868   0.198   5.189
   48DMPC  H14C 5555   2.787   0.060   5.113
   48DMPC   C15 5556   2.830   6.216   5.306
   48DMPC  H15A 5557   2.921   6.180   5.260
   48DMPC  H15B 5558   2.745   6.189   5.246
   48DMPC  H15C 5559   2.819   6.173   5.404
   48DMPC   C12 5560   2.708   0.090   5.375
   48DMPC  H12A 5561   2.724   0.196   5.392
   48DMPC  H12B 5562   2.694   0.044   5.472
   48DMPC   C11 5563   2.577   0.074   5.296
   48DMPC  H11A 5564   2.588   0.127   5.198
   48DMPC  H11B 5565   2.496   0.124   5.354
   48DMPC     P 5566   2.419   6.227   5.205
   48DMPC   O13 5567   2.305   6.237   5.300
   48DMPC   O14 5568   2.444   6.095   5.144
   48DMPC   O11 5569   2.402   0.007   5.093
   48DMPC   O12 5570   2.550   6.267   5.279
   48DMPC    C1 5571   2.340   6.311   4.967
   48DMPC    HA 5572   2.257   0.053   4.953
   48DMPC    HB 5573   2.297   6.209   4.959
   48DMPC    C2 5574   2.437   0.001   4.847
   48DMPC    HS 5575   2.515   6.252   4.854
   48DMPC   O21 5576   2.490   0.135   4.849
   48DMPC   C21 5577   2.609   0.142   4.904
   48DMPC   O22 5578   2.673   0.047   4.948
   48DMPC   C22 5579   2.662   0.285   4.897
   48DMPC   H2R 5580   2.758   0.287   4.953
   48DMPC   H2S 5581   2.591   0.354   4.946
   48DMPC    C3 5582   2.366   6.309   4.709
   48DMPC    HX 5583   2.286   0.056   4.701
   48DMPC    HY 5584   2.316   6.210   4.709
   48DMPC   O31 5585   2.456   6.324   4.596
   48DMPC   C31 5586   2.537   6.219   4.579
   48DMPC   O32 5587   2.541   6.122   4.653
   48DMPC   C32 5588   2.623   6.237   4.454
   48DMPC   H2X 5589   2.702   6.312   4.475
   48DMPC   H2Y 5590   2.558   6.275   4.373
   48DMPC   C23 5591   2.686   0.325   4.750
   48DMPC   H3R 5592   2.587   0.346   4.703
   48DMPC   H3S 5593   2.733   0.241   4.694
   48DMPC   C24 5594   2.777   0.448   4.733
   48DMPC   H4R 5595   2.741   0.529   4.800
   48DMPC   H4S 5596   2.767   0.483   4.628
   48DMPC   C25 5597   2.925   0.420   4.761
   48DMPC   H5R 5598   2.962   0.345   4.688
   48DMPC   H5S 5599   2.936   0.375   4.862
   48DMPC   C26 5600   3.016   0.544   4.756
   48DMPC   H6R 5601   3.121   0.511   4.776
   48DMPC   H6S 5602   2.986   0.613   4.838
   48DMPC   C27 5603   3.014   0.622   4.623
   48DMPC   H7R 5604   3.087   0.706   4.632
   48DMPC   H7S 5605   2.913   0.667   4.608
   48DMPC   C28 5606   3.051   0.539   4.499
   48DMPC   H8R 5607   2.968   0.468   4.476
   48DMPC   H8S 5608   3.142   0.480   4.521
   48DMPC   C29 5609   3.078   0.628   4.376
   48DMPC   H9R 5610   3.164   0.695   4.400
   48DMPC   H9S 5611   2.989   0.691   4.356
   48DMPC  C210 5612   3.112   0.549   4.249
   48DMPC  H10R 5613   3.022   0.493   4.217
   48DMPC  H10S 5614   3.192   0.476   4.272
   48DMPC  C211 5615   3.160   0.640   4.135
   48DMPC  H11R 5616   3.256   0.686   4.164
   48DMPC  H11S 5617   3.085   0.722   4.122
   48DMPC  C212 5618   3.177   0.567   4.001
   48DMPC  H12R 5619   3.079   0.521   3.972
   48DMPC  H12S 5620   3.251   0.485   4.013
   48DMPC  C213 5621   3.223   0.660   3.887
   48DMPC  H13R 5622   3.321   0.705   3.915
   48DMPC  H13S 5623   3.150   0.743   3.878
   48DMPC  C214 5624   3.237   0.591   3.751
   48DMPC  H14R 5625   3.140   0.548   3.719
   48DMPC  H14S 5626   3.312   0.510   3.756
   48DMPC  H14T 5627   3.270   0.664   3.674
   48DMPC   C33 5628   2.685   6.102   4.415
   48DMPC   H3X 5629   2.605   6.026   4.405
   48DMPC   H3Y 5630   2.754   6.068   4.496
   48DMPC   C34 5631   2.765   6.104   4.283
   48DMPC   H4X 5632   2.799   6.000   4.262
   48DMPC   H4Y 5633   2.854   6.168   4.295
   48DMPC   C35 5634   2.683   6.154   4.163
   48DMPC   H5X 5635   2.661   6.262   4.176
   48DMPC   H5Y 5636   2.586   6.100   4.162
   48DMPC   C36 5637   2.752   6.135   4.027
   48DMPC   H6X 5638   2.770   6.026   4.010
   48DMPC   H6Y 5639   2.850   6.186   4.031
   48DMPC   C37 5640   2.670   6.192   3.910
   48DMPC   H7X 5641   2.641   6.296   3.935
   48DMPC   H7Y 5642   2.577   6.132   3.898
   48DMPC   C38 5643   2.747   6.193   3.777
   48DMPC   H8X 5644   2.781   6.091   3.752
   48DMPC   H8Y 5645   2.837   6.257   3.791
   48DMPC   C39 5646   2.664   6.250   3.661
   48DMPC   H9X 5647   2.614   0.013   3.696
   48DMPC   H9Y 5648   2.584   6.177   3.634
   48DMPC  C310 5649   2.748   6.284   3.537
   48DMPC  H10X 5650   2.794   6.192   3.497
   48DMPC  H10Y 5651   2.830   0.022   3.569
   48DMPC  C311 5652   2.666   0.023   3.427
   48DMPC  H11X 5653   2.613   0.109   3.474
   48DMPC  H11Y 5654   2.590   6.283   3.388
   48DMPC  C312 5655   2.753   0.074   3.311
   48DMPC  H12X 5656   2.799   6.316   3.261
   48DMPC  H12Y 5657   2.835   0.136   3.351
   48DMPC  C313 5658   2.675   0.156   3.206
   48DMPC  H13X 5659   2.592   0.093   3.167
   48DMPC  H13Y 5660   2.744   0.177   3.121
   48DMPC  C314 5661   2.619   0.289   3.257
   48DMPC  H14X 5662   2.571   0.345   3.174
   48DMPC  H14Y 5663   2.700   0.352   3.300
   48DMPC  H14Z 5664   2.542   0.272   3.336
   49DMPC     N 5665   0.036   5.399   4.319
   49DMPC   C13 5666   6.178   5.406   4.329
   49DMPC  H13A 5667   6.151   5.478   4.405
   49DMPC  H13B 5668   6.139   5.309   4.356
   49DMPC  H13C 5669   6.136   5.438   4.234
   49DMPC   C14 5670   0.089   5.352   4.450
   49DMPC  H14A 5671   0.196   5.336   4.442
   49DMPC  H14B 5672   0.042   5.257   4.474
   49DMPC  H14C 5673   0.066   5.424   4.527
   49DMPC   C15 5674   0.070   5.298   4.216
   49DMPC  H15A 5675   0.023   5.204   4.243
   49DMPC  H15B 5676   0.178   5.283   4.215
   49DMPC  H15C 5677   0.035   5.330   4.120
   49DMPC   C12 5678   0.096   5.531   4.279
   49DMPC  H12A 5679   0.042   5.565   4.191
   49DMPC  H12B 5680   0.198   5.514   4.250
   49DMPC   C11 5681   0.095   5.645   4.383
   49DMPC  H11A 5682   0.132   5.737   4.332
   49DMPC  H11B 5683   0.167   5.619   4.464
   49DMPC     P 5684   6.237   5.780   4.536
   49DMPC   O13 5685   0.059   5.780   4.631
   49DMPC   O14 5686   6.101   5.774   4.594
   49DMPC   O11 5687   6.250   5.907   4.445
   49DMPC   O12 5688   6.255   5.662   4.434
   49DMPC    C1 5689   6.143   5.955   4.362
   49DMPC    HA 5690   6.153   6.065   4.354
   49DMPC    HB 5691   6.044   5.936   4.408
   49DMPC    C2 5692   6.142   5.901   4.216
   49DMPC    HS 5693   6.114   5.794   4.222
   49DMPC   O21 5694   6.275   5.916   4.161
   49DMPC   C21 5695   6.289   5.848   4.049
   49DMPC   O22 5696   6.212   5.761   4.010
   49DMPC   C22 5697   0.127   5.892   3.979
   49DMPC   H2R 5698   0.214   5.839   4.023
   49DMPC   H2S 5699   0.140   6.001   3.998
   49DMPC    C3 5700   6.035   5.979   4.131
   49DMPC    HX 5701   5.937   5.959   4.179
   49DMPC    HY 5702   6.028   5.936   4.028
   49DMPC   O31 5703   6.058   6.122   4.133
   49DMPC   C31 5704   6.130   6.170   4.032
   49DMPC   O32 5705   6.163   6.106   3.934
   49DMPC   C32 5706   6.168   6.315   4.061
   49DMPC   H2X 5707   6.250   6.316   4.136
   49DMPC   H2Y 5708   6.080   0.035   4.106
   49DMPC   C23 5709   0.122   5.870   3.827
   49DMPC   H3R 5710   0.188   5.947   3.781
   49DMPC   H3S 5711   0.019   5.888   3.787
   49DMPC   C24 5712   0.174   5.734   3.780
   49DMPC   H4R 5713   0.107   5.653   3.816
   49DMPC   H4S 5714   0.275   5.718   3.824
   49DMPC   C25 5715   0.187   5.726   3.627
   49DMPC   H5R 5716   0.249   5.812   3.592
   49DMPC   H5S 5717   0.086   5.737   3.582
   49DMPC   C26 5718   0.251   5.597   3.574
   49DMPC   H6R 5719   0.191   5.509   3.609
   49DMPC   H6S 5720   0.353   5.587   3.617
   49DMPC   C27 5721   0.260   5.594   3.421
   49DMPC   H7R 5722   0.314   5.685   3.388
   49DMPC   H7S 5723   0.157   5.598   3.379
   49DMPC   C28 5724   0.331   5.470   3.364
   49DMPC   H8R 5725   0.282   5.379   3.407
   49DMPC   H8S 5726   0.437   5.470   3.397
   49DMPC   C29 5727   0.325   5.460   3.211
   49DMPC   H9R 5728   0.219   5.453   3.179
   49DMPC   H9S 5729   0.376   5.365   3.180
   49DMPC  C210 5730   0.391   5.577   3.136
   49DMPC  H10R 5731   0.498   5.584   3.167
   49DMPC  H10S 5732   0.341   5.671   3.167
   49DMPC  C211 5733   0.384   5.564   2.983
   49DMPC  H11R 5734   0.277   5.558   2.953
   49DMPC  H11S 5735   0.433   5.469   2.953
   49DMPC  C212 5736   0.450   5.680   2.907
   49DMPC  H12R 5737   0.439   5.660   2.798
   49DMPC  H12S 5738   0.559   5.682   2.930
   49DMPC  C213 5739   0.391   5.819   2.937
   49DMPC  H13R 5740   0.409   5.844   3.044
   49DMPC  H13S 5741   0.281   5.815   2.922
   49DMPC  C214 5742   0.448   5.932   2.851
   49DMPC  H14R 5743   0.426   5.914   2.744
   49DMPC  H14S 5744   0.558   5.939   2.864
   49DMPC  H14T 5745   0.403   6.029   2.881
   49DMPC   C33 5746   6.209   0.061   3.934
   49DMPC   H3X 5747   6.219   0.168   3.963
   49DMPC   H3Y 5748   6.128   0.055   3.858
   49DMPC   C34 5749   0.052   0.020   3.869
   49DMPC   H4X 5750   0.074   0.092   3.788
   49DMPC   H4Y 5751   0.040   6.250   3.822
   49DMPC   C35 5752   0.172   0.017   3.965
   49DMPC   H5X 5753   0.161   6.263   4.036
   49DMPC   H5Y 5754   0.173   0.112   4.024
   49DMPC   C36 5755   0.307   0.004   3.892
   49DMPC   H6X 5756   0.389   0.011   3.966
   49DMPC   H6Y 5757   0.317   0.090   3.822
   49DMPC   C37 5758   0.322   6.205   3.811
   49DMPC   H7X 5759   0.237   6.195   3.740
   49DMPC   H7Y 5760   0.318   6.119   3.881
   49DMPC   C38 5761   0.452   6.197   3.730
   49DMPC   H8X 5762   0.540   6.208   3.797
   49DMPC   H8Y 5763   0.452   6.283   3.659
   49DMPC   C39 5764   0.463   6.066   3.651
   49DMPC   H9X 5765   0.367   6.050   3.596
   49DMPC   H9Y 5766   0.476   5.982   3.722
   49DMPC  C310 5767   0.577   6.062   3.547
   49DMPC  H10X 5768   0.571   5.963   3.496
   49DMPC  H10Y 5769   0.675   6.068   3.598
   49DMPC  C311 5770   0.568   6.173   3.441
   49DMPC  H11X 5771   0.608   6.268   3.483
   49DMPC  H11Y 5772   0.461   6.189   3.415
   49DMPC  C312 5773   0.643   6.139   3.311
   49DMPC  H12X 5774   0.599   6.047   3.268
   49DMPC  H12Y 5775   0.750   6.119   3.334
   49DMPC  C313 5776   0.634   6.251   3.205
   49DMPC  H13X 5777   0.685   0.011   3.245
   49DMPC  H13Y 5778   0.527   6.276   3.190
   49DMPC  C314 5779   0.695   6.213   3.070
   49DMPC  H14X 5780   0.642   6.126   3.026
   49DMPC  H14Y 5781   0.802   6.186   3.083
   49DMPC  H14Z 5782   0.689   6.298   3.000
   50DMPC     N 5783   1.496   0.755   5.709
   50DMPC   C13 5784   1.408   0.699   5.815
   50DMPC  H13A 5785   1.321   0.654   5.770
   50DMPC  H13B 5786   1.375   0.778   5.881
   50DMPC  H13C 5787   1.461   0.624   5.872
   50DMPC   C14 5788   1.416   0.856   5.634
   50DMPC  H14A 5789   1.476   0.898   5.555
   50DMPC  H14B 5790   1.384   0.935   5.701
   50DMPC  H14C 5791   1.329   0.809   5.592
   50DMPC   C15 5792   1.612   0.824   5.773
   50DMPC  H15A 5793   1.575   0.902   5.838
   50DMPC  H15B 5794   1.674   0.868   5.697
   50DMPC  H15C 5795   1.669   0.752   5.830
   50DMPC   C12 5796   1.543   0.643   5.620
   50DMPC  H12A 5797   1.455   0.597   5.576
   50DMPC  H12B 5798   1.590   0.569   5.683
   50DMPC   C11 5799   1.641   0.677   5.505
   50DMPC  H11A 5800   1.669   0.582   5.454
   50DMPC  H11B 5801   1.734   0.719   5.551
   50DMPC     P 5802   1.668   0.862   5.334
   50DMPC   O13 5803   1.784   0.789   5.276
   50DMPC   O14 5804   1.700   0.976   5.422
   50DMPC   O11 5805   1.576   0.913   5.217
   50DMPC   O12 5806   1.577   0.762   5.412
   50DMPC    C1 5807   1.472   0.836   5.154
   50DMPC    HA 5808   1.429   0.758   5.221
   50DMPC    HB 5809   1.389   0.906   5.129
   50DMPC    C2 5810   1.516   0.770   5.020
   50DMPC    HS 5811   1.573   0.678   5.049
   50DMPC   O21 5812   1.597   0.865   4.948
   50DMPC   C21 5813   1.699   0.812   4.884
   50DMPC   O22 5814   1.729   0.693   4.886
   50DMPC   C22 5815   1.778   0.922   4.814
   50DMPC   H2R 5816   1.856   0.958   4.884
   50DMPC   H2S 5817   1.711   1.006   4.787
   50DMPC    C3 5818   1.392   0.725   4.936
   50DMPC    HX 5819   1.314   0.803   4.951
   50DMPC    HY 5820   1.352   0.632   4.982
   50DMPC   O31 5821   1.415   0.716   4.793
   50DMPC   C31 5822   1.385   0.600   4.735
   50DMPC   O32 5823   1.365   0.495   4.793
   50DMPC   C32 5824   1.364   0.621   4.585
   50DMPC   H2X 5825   1.268   0.675   4.571
   50DMPC   H2Y 5826   1.355   0.522   4.536
   50DMPC   C23 5827   1.845   0.867   4.686
   50DMPC   H3R 5828   1.767   0.839   4.613
   50DMPC   H3S 5829   1.904   0.776   4.710
   50DMPC   C24 5830   1.942   0.969   4.623
   50DMPC   H4R 5831   2.022   0.990   4.697
   50DMPC   H4S 5832   1.888   1.065   4.604
   50DMPC   C25 5833   2.007   0.921   4.492
   50DMPC   H5R 5834   2.045   0.818   4.506
   50DMPC   H5S 5835   2.093   0.988   4.470
   50DMPC   C26 5836   1.913   0.927   4.371
   50DMPC   H6R 5837   1.875   1.031   4.362
   50DMPC   H6S 5838   1.825   0.860   4.386
   50DMPC   C27 5839   1.982   0.891   4.238
   50DMPC   H7R 5840   2.086   0.929   4.240
   50DMPC   H7S 5841   1.929   0.943   4.155
   50DMPC   C28 5842   1.982   0.741   4.206
   50DMPC   H8R 5843   1.876   0.707   4.200
   50DMPC   H8S 5844   2.031   0.684   4.288
   50DMPC   C29 5845   2.051   0.707   4.073
   50DMPC   H9R 5846   2.014   0.776   3.994
   50DMPC   H9S 5847   2.021   0.604   4.043
   50DMPC  C210 5848   2.204   0.713   4.080
   50DMPC  H10R 5849   2.238   0.642   4.159
   50DMPC  H10S 5850   2.237   0.815   4.108
   50DMPC  C211 5851   2.272   0.674   3.947
   50DMPC  H11R 5852   2.248   0.750   3.870
   50DMPC  H11S 5853   2.230   0.576   3.913
   50DMPC  C212 5854   2.424   0.659   3.960
   50DMPC  H12R 5855   2.446   0.594   4.048
   50DMPC  H12S 5856   2.469   0.759   3.978
   50DMPC  C213 5857   2.492   0.594   3.837
   50DMPC  H13R 5858   2.453   0.491   3.826
   50DMPC  H13S 5859   2.601   0.587   3.857
   50DMPC  C214 5860   2.471   0.668   3.705
   50DMPC  H14R 5861   2.528   0.618   3.623
   50DMPC  H14S 5862   2.508   0.773   3.713
   50DMPC  H14T 5863   2.364   0.670   3.677
   50DMPC   C33 5864   1.478   0.702   4.519
   50DMPC   H3X 5865   1.569   0.639   4.513
   50DMPC   H3Y 5866   1.502   0.792   4.579
   50DMPC   C34 5867   1.439   0.750   4.378
   50DMPC   H4X 5868   1.352   0.819   4.387
   50DMPC   H4Y 5869   1.408   0.663   4.316
   50DMPC   C35 5870   1.553   0.824   4.306
   50DMPC   H5X 5871   1.633   0.751   4.284
   50DMPC   H5Y 5872   1.594   0.902   4.374
   50DMPC   C36 5873   1.509   0.892   4.175
   50DMPC   H6X 5874   1.443   0.978   4.201
   50DMPC   H6Y 5875   1.449   0.820   4.115
   50DMPC   C37 5876   1.628   0.942   4.092
   50DMPC   H7X 5877   1.683   0.853   4.054
   50DMPC   H7Y 5878   1.697   0.999   4.159
   50DMPC   C38 5879   1.591   1.033   3.974
   50DMPC   H8X 5880   1.684   1.050   3.914
   50DMPC   H8Y 5881   1.558   1.132   4.014
   50DMPC   C39 5882   1.481   0.980   3.881
   50DMPC   H9X 5883   1.383   0.985   3.933
   50DMPC   H9Y 5884   1.501   0.873   3.858
   50DMPC  C310 5885   1.473   1.056   3.748
   50DMPC  H10X 5886   1.571   1.044   3.695
   50DMPC  H10Y 5887   1.457   1.164   3.768
   50DMPC  C311 5888   1.361   1.005   3.655
   50DMPC  H11X 5889   1.263   1.033   3.700
   50DMPC  H11Y 5890   1.366   0.893   3.652
   50DMPC  C312 5891   1.369   1.056   3.511
   50DMPC  H12X 5892   1.277   1.022   3.457
   50DMPC  H12Y 5893   1.456   1.009   3.461
   50DMPC  C313 5894   1.381   1.209   3.498
   50DMPC  H13X 5895   1.477   1.241   3.544
   50DMPC  H13Y 5896   1.298   1.256   3.554
   50DMPC  C314 5897   1.379   1.259   3.353
   50DMPC  H14X 5898   1.390   1.370   3.351
   50DMPC  H14Y 5899   1.283   1.233   3.304
   50DMPC  H14Z 5900   1.462   1.215   3.295
   51DMPC     N 5901   1.855   3.695   5.356
   51DMPC   C13 5902   1.928   3.800   5.432
   51DMPC  H13A 5903   1.981   3.865   5.363
   51DMPC  H13B 5904   1.998   3.755   5.500
   51DMPC  H13C 5905   1.856   3.859   5.488
   51DMPC   C14 5906   1.951   3.623   5.268
   51DMPC  H14A 5907   2.033   3.584   5.326
   51DMPC  H14B 5908   1.990   3.693   5.195
   51DMPC  H14C 5909   1.901   3.542   5.217
   51DMPC   C15 5910   1.799   3.598   5.455
   51DMPC  H15A 5911   1.728   3.650   5.519
   51DMPC  H15B 5912   1.877   3.557   5.517
   51DMPC  H15C 5913   1.747   3.518   5.403
   51DMPC   C12 5914   1.741   3.754   5.278
   51DMPC  H12A 5915   1.673   3.797   5.351
   51DMPC  H12B 5916   1.689   3.674   5.228
   51DMPC   C11 5917   1.771   3.864   5.174
   51DMPC  H11A 5918   1.829   3.946   5.221
   51DMPC  H11B 5919   1.672   3.906   5.143
   51DMPC     P 5920   1.809   3.854   4.922
   51DMPC   O13 5921   1.922   3.822   4.831
   51DMPC   O14 5922   1.761   3.994   4.920
   51DMPC   O11 5923   1.686   3.761   4.886
   51DMPC   O12 5924   1.847   3.810   5.067
   51DMPC    C1 5925   1.700   3.618   4.877
   51DMPC    HA 5926   1.598   3.575   4.887
   51DMPC    HB 5927   1.761   3.576   4.960
   51DMPC    C2 5928   1.757   3.566   4.740
   51DMPC    HS 5929   1.868   3.567   4.752
   51DMPC   O21 5930   1.712   3.654   4.635
   51DMPC   C21 5931   1.798   3.660   4.534
   51DMPC   O22 5932   1.905   3.603   4.530
   51DMPC   C22 5933   1.744   3.751   4.424
   51DMPC   H2R 5934   1.790   3.852   4.436
   51DMPC   H2S 5935   1.634   3.761   4.432
   51DMPC    C3 5936   1.709   3.419   4.716
   51DMPC    HX 5937   1.598   3.424   4.715
   51DMPC    HY 5938   1.738   3.356   4.803
   51DMPC   O31 5939   1.750   3.361   4.591
   51DMPC   C31 5940   1.872   3.307   4.591
   51DMPC   O32 5941   1.950   3.313   4.685
   51DMPC   C32 5942   1.896   3.237   4.458
   51DMPC   H2X 5943   1.823   3.276   4.383
   51DMPC   H2Y 5944   1.877   3.128   4.471
   51DMPC   C23 5945   1.782   3.693   4.287
   51DMPC   H3R 5946   1.727   3.598   4.271
   51DMPC   H3S 5947   1.891   3.670   4.284
   51DMPC   C24 5948   1.753   3.788   4.169
   51DMPC   H4R 5949   1.811   3.882   4.185
   51DMPC   H4S 5950   1.645   3.814   4.167
   51DMPC   C25 5951   1.795   3.727   4.034
   51DMPC   H5R 5952   1.730   3.639   4.013
   51DMPC   H5S 5953   1.899   3.691   4.043
   51DMPC   C26 5954   1.787   3.825   3.916
   51DMPC   H6R 5955   1.847   3.916   3.941
   51DMPC   H6S 5956   1.682   3.857   3.901
   51DMPC   C27 5957   1.842   3.764   3.786
   51DMPC   H7R 5958   1.781   3.675   3.761
   51DMPC   H7S 5959   1.947   3.731   3.803
   51DMPC   C28 5960   1.841   3.862   3.668
   51DMPC   H8R 5961   1.894   3.955   3.698
   51DMPC   H8S 5962   1.736   3.889   3.644
   51DMPC   C29 5963   1.908   3.809   3.540
   51DMPC   H9R 5964   2.014   3.785   3.563
   51DMPC   H9S 5965   1.907   3.890   3.464
   51DMPC  C210 5966   1.840   3.684   3.480
   51DMPC  H10R 5967   1.735   3.709   3.454
   51DMPC  H10S 5968   1.839   3.604   3.556
   51DMPC  C211 5969   1.911   3.629   3.355
   51DMPC  H11R 5970   1.861   3.533   3.327
   51DMPC  H11S 5971   2.017   3.606   3.379
   51DMPC  C212 5972   1.906   3.721   3.232
   51DMPC  H12R 5973   1.962   3.814   3.254
   51DMPC  H12S 5974   1.800   3.749   3.213
   51DMPC  C213 5975   1.963   3.656   3.106
   51DMPC  H13R 5976   1.906   3.563   3.085
   51DMPC  H13S 5977   2.069   3.627   3.126
   51DMPC  C214 5978   1.959   3.745   2.981
   51DMPC  H14R 5979   1.855   3.776   2.959
   51DMPC  H14S 5980   1.999   3.690   2.893
   51DMPC  H14T 5981   2.021   3.836   2.997
   51DMPC   C33 5982   2.038   3.260   4.405
   51DMPC   H3X 5983   2.111   3.207   4.471
   51DMPC   H3Y 5984   2.062   3.369   4.408
   51DMPC   C34 5985   2.055   3.212   4.260
   51DMPC   H4X 5986   1.987   3.272   4.196
   51DMPC   H4Y 5987   2.024   3.106   4.253
   51DMPC   C35 5988   2.199   3.226   4.208
   51DMPC   H5X 5989   2.266   3.165   4.272
   51DMPC   H5Y 5990   2.231   3.332   4.218
   51DMPC   C36 5991   2.219   3.182   4.061
   51DMPC   H6X 5992   2.192   3.075   4.051
   51DMPC   H6Y 5993   2.327   3.192   4.037
   51DMPC   C37 5994   2.139   3.265   3.959
   51DMPC   H7X 5995   2.155   3.373   3.981
   51DMPC   H7Y 5996   2.031   3.243   3.970
   51DMPC   C38 5997   2.180   3.239   3.813
   51DMPC   H8X 5998   2.165   3.132   3.788
   51DMPC   H8Y 5999   2.289   3.262   3.803
   51DMPC   C39 6000   2.102   3.327   3.713
   51DMPC   H9X 6001   2.105   3.432   3.750
   51DMPC   H9Y 6002   1.996   3.294   3.710
   51DMPC  C310 6003   2.160   3.328   3.570
   51DMPC  H10X 6004   2.268   3.357   3.575
   51DMPC  H10Y 6005   2.107   3.407   3.512
   51DMPC  C311 6006   2.148   3.196   3.493
   51DMPC  H11X 6007   2.040   3.167   3.488
   51DMPC  H11Y 6008   2.202   3.116   3.548
   51DMPC  C312 6009   2.203   3.206   3.350
   51DMPC  H12X 6010   2.312   3.229   3.354
   51DMPC  H12Y 6011   2.152   3.291   3.299
   51DMPC  C313 6012   2.182   3.080   3.264
   51DMPC  H13X 6013   2.217   3.103   3.160
   51DMPC  H13Y 6014   2.073   3.059   3.258
   51DMPC  C314 6015   2.255   2.955   3.313
   51DMPC  H14X 6016   2.364   2.973   3.317
   51DMPC  H14Y 6017   2.236   2.870   3.244
   51DMPC  H14Z 6018   2.220   2.926   3.414
   52DMPC     N 6019   5.038   0.471   4.841
   52DMPC   C13 6020   5.022   0.342   4.913
   52DMPC  H13A 6021   5.066   0.349   5.011
   52DMPC  H13B 6022   5.072   0.262   4.858
   52DMPC  H13C 6023   4.917   0.319   4.923
   52DMPC   C14 6024   4.968   0.577   4.918
   52DMPC  H14A 6025   5.009   0.582   5.018
   52DMPC  H14B 6026   4.863   0.554   4.924
   52DMPC  H14C 6027   4.982   0.672   4.869
   52DMPC   C15 6028   5.184   0.503   4.836
   52DMPC  H15A 6029   5.223   0.511   4.936
   52DMPC  H15B 6030   5.199   0.596   4.783
   52DMPC  H15C 6031   5.236   0.423   4.783
   52DMPC   C12 6032   4.986   0.462   4.700
   52DMPC  H12A 6033   5.057   0.402   4.643
   52DMPC  H12B 6034   4.987   0.561   4.657
   52DMPC   C11 6035   4.846   0.400   4.676
   52DMPC  H11A 6036   4.851   0.292   4.703
   52DMPC  H11B 6037   4.827   0.408   4.566
   52DMPC     P 6038   4.604   0.402   4.749
   52DMPC   O13 6039   4.499   0.505   4.757
   52DMPC   O14 6040   4.602   0.297   4.854
   52DMPC   O11 6041   4.597   0.331   4.608
   52DMPC   O12 6042   4.746   0.470   4.749
   52DMPC    C1 6043   4.471   0.286   4.555
   52DMPC    HA 6044   4.411   0.373   4.519
   52DMPC    HB 6045   4.412   0.232   4.633
   52DMPC    C2 6046   4.492   0.189   4.436
   52DMPC    HS 6047   4.558   0.109   4.475
   52DMPC   O21 6048   4.551   0.263   4.327
   52DMPC   C21 6049   4.637   0.193   4.257
   52DMPC   O22 6050   4.668   0.076   4.278
   52DMPC   C22 6051   4.693   0.277   4.142
   52DMPC   H2R 6052   4.658   0.382   4.150
   52DMPC   H2S 6053   4.655   0.234   4.047
   52DMPC    C3 6054   4.356   0.124   4.392
   52DMPC    HX 6055   4.291   0.206   4.357
   52DMPC    HY 6056   4.307   0.079   4.481
   52DMPC   O31 6057   4.369   0.027   4.284
   52DMPC   C31 6058   4.417   6.239   4.323
   52DMPC   O32 6059   4.450   6.211   4.437
   52DMPC   C32 6060   4.427   6.145   4.203
   52DMPC   H2X 6061   4.424   6.204   4.109
   52DMPC   H2Y 6062   4.341   6.076   4.205
   52DMPC   C23 6063   4.846   0.273   4.144
   52DMPC   H3R 6064   4.882   0.167   4.139
   52DMPC   H3S 6065   4.882   0.316   4.241
   52DMPC   C24 6066   4.911   0.352   4.029
   52DMPC   H4R 6067   5.021   0.356   4.048
   52DMPC   H4S 6068   4.873   0.456   4.031
   52DMPC   C25 6069   4.887   0.291   3.890
   52DMPC   H5R 6070   4.780   0.300   3.864
   52DMPC   H5S 6071   4.913   0.182   3.893
   52DMPC   C26 6072   4.972   0.357   3.781
   52DMPC   H6R 6073   5.080   0.343   3.805
   52DMPC   H6S 6074   4.953   0.467   3.781
   52DMPC   C27 6075   4.948   0.303   3.639
   52DMPC   H7R 6076   4.966   0.194   3.636
   52DMPC   H7S 6077   5.022   0.352   3.571
   52DMPC   C28 6078   4.807   0.332   3.584
   52DMPC   H8R 6079   4.782   0.438   3.607
   52DMPC   H8S 6080   4.732   0.268   3.635
   52DMPC   C29 6081   4.796   0.314   3.432
   52DMPC   H9R 6082   4.814   0.208   3.405
   52DMPC   H9S 6083   4.875   0.376   3.384
   52DMPC  C210 6084   4.660   0.359   3.374
   52DMPC  H10R 6085   4.633   0.456   3.422
   52DMPC  H10S 6086   4.582   0.285   3.401
   52DMPC  C211 6087   4.663   0.381   3.222
   52DMPC  H11R 6088   4.692   0.286   3.172
   52DMPC  H11S 6089   4.742   0.456   3.200
   52DMPC  C212 6090   4.529   0.430   3.165
   52DMPC  H12R 6091   4.494   0.518   3.224
   52DMPC  H12S 6092   4.454   0.349   3.178
   52DMPC  C213 6093   4.534   0.470   3.017
   52DMPC  H13R 6094   4.429   0.490   2.983
   52DMPC  H13S 6095   4.572   0.384   2.957
   52DMPC  C214 6096   4.618   0.595   2.986
   52DMPC  H14R 6097   4.724   0.578   3.012
   52DMPC  H14S 6098   4.580   0.681   3.045
   52DMPC  H14T 6099   4.611   0.620   2.878
   52DMPC   C33 6100   4.560   6.067   4.210
   52DMPC   H3X 6101   4.563   6.004   4.302
   52DMPC   H3Y 6102   4.644   6.140   4.216
   52DMPC   C34 6103   4.584   5.979   4.087
   52DMPC   H4X 6104   4.690   5.947   4.086
   52DMPC   H4Y 6105   4.566   6.040   3.996
   52DMPC   C35 6106   4.496   5.852   4.082
   52DMPC   H5X 6107   4.389   5.878   4.096
   52DMPC   H5Y 6108   4.527   5.787   4.167
   52DMPC   C36 6109   4.512   5.774   3.951
   52DMPC   H6X 6110   4.482   5.668   3.968
   52DMPC   H6Y 6111   4.620   5.774   3.923
   52DMPC   C37 6112   4.429   5.831   3.835
   52DMPC   H7X 6113   4.433   5.942   3.838
   52DMPC   H7Y 6114   4.323   5.801   3.849
   52DMPC   C38 6115   4.478   5.787   3.696
   52DMPC   H8X 6116   4.576   5.836   3.678
   52DMPC   H8Y 6117   4.407   5.826   3.619
   52DMPC   C39 6118   4.495   5.635   3.677
   52DMPC   H9X 6119   4.570   5.597   3.749
   52DMPC   H9Y 6120   4.536   5.620   3.574
   52DMPC  C310 6121   4.365   5.555   3.691
   52DMPC  H10X 6122   4.291   5.595   3.618
   52DMPC  H10Y 6123   4.324   5.570   3.793
   52DMPC  C311 6124   4.381   5.404   3.667
   52DMPC  H11X 6125   4.281   5.356   3.681
   52DMPC  H11Y 6126   4.449   5.361   3.744
   52DMPC  C312 6127   4.433   5.368   3.528
   52DMPC  H12X 6128   4.539   5.401   3.518
   52DMPC  H12Y 6129   4.373   5.422   3.452
   52DMPC  C313 6130   4.426   5.217   3.496
   52DMPC  H13X 6131   4.320   5.184   3.505
   52DMPC  H13Y 6132   4.485   5.162   3.572
   52DMPC  C314 6133   4.477   5.181   3.356
   52DMPC  H14X 6134   4.420   5.236   3.279
   52DMPC  H14Y 6135   4.467   5.073   3.338
   52DMPC  H14Z 6136   4.585   5.208   3.346
   53DMPC     N 6137   2.475   3.400   4.731
   53DMPC   C13 6138   2.450   3.522   4.812
   53DMPC  H13A 6139   2.544   3.573   4.830
   53DMPC  H13B 6140   2.408   3.494   4.908
   53DMPC  H13C 6141   2.381   3.587   4.760
   53DMPC   C14 6142   2.570   3.312   4.804
   53DMPC  H14A 6143   2.668   3.358   4.805
   53DMPC  H14B 6144   2.575   3.216   4.755
   53DMPC  H14C 6145   2.536   3.298   4.906
   53DMPC   C15 6146   2.346   3.326   4.717
   53DMPC  H15A 6147   2.364   3.231   4.669
   53DMPC  H15B 6148   2.276   3.384   4.658
   53DMPC  H15C 6149   2.304   3.308   4.815
   53DMPC   C12 6150   2.527   3.438   4.594
   53DMPC  H12A 6151   2.447   3.491   4.543
   53DMPC  H12B 6152   2.545   3.346   4.540
   53DMPC   C11 6153   2.654   3.524   4.587
   53DMPC  H11A 6154   2.636   3.623   4.637
   53DMPC  H11B 6155   2.675   3.543   4.479
   53DMPC     P 6156   2.899   3.528   4.657
   53DMPC   O13 6157   3.004   3.424   4.673
   53DMPC   O14 6158   2.892   3.631   4.763
   53DMPC   O11 6159   2.917   3.595   4.515
   53DMPC   O12 6160   2.762   3.455   4.647
   53DMPC    C1 6161   2.949   3.516   4.399
   53DMPC    HA 6162   2.895   3.559   4.312
   53DMPC    HB 6163   2.915   3.410   4.409
   53DMPC    C2 6164   3.101   3.515   4.362
   53DMPC    HS 6165   3.153   3.466   4.448
   53DMPC   O21 6166   3.145   3.651   4.346
   53DMPC   C21 6167   3.276   3.664   4.357
   53DMPC   O22 6168   3.352   3.572   4.382
   53DMPC   C22 6169   3.318   3.809   4.334
   53DMPC   H2R 6170   3.368   3.845   4.426
   53DMPC   H2S 6171   3.230   3.873   4.314
   53DMPC    C3 6172   3.129   3.429   4.233
   53DMPC    HX 6173   3.118   3.322   4.260
   53DMPC    HY 6174   3.236   3.441   4.206
   53DMPC   O31 6175   3.049   3.469   4.119
   53DMPC   C31 6176   2.944   3.390   4.092
   53DMPC   O32 6177   2.912   3.292   4.157
   53DMPC   C32 6178   2.868   3.447   3.972
   53DMPC   H2X 6179   2.937   3.449   3.885
   53DMPC   H2Y 6180   2.836   3.550   3.995
   53DMPC   C23 6181   3.418   3.818   4.218
   53DMPC   H3R 6182   3.500   3.743   4.231
   53DMPC   H3S 6183   3.465   3.919   4.220
   53DMPC   C24 6184   3.352   3.800   4.080
   53DMPC   H4R 6185   3.274   3.877   4.068
   53DMPC   H4S 6186   3.303   3.700   4.077
   53DMPC   C25 6187   3.451   3.811   3.963
   53DMPC   H5R 6188   3.527   3.730   3.971
   53DMPC   H5S 6189   3.505   3.909   3.971
   53DMPC   C26 6190   3.385   3.804   3.824
   53DMPC   H6R 6191   3.463   3.816   3.746
   53DMPC   H6S 6192   3.313   3.889   3.815
   53DMPC   C27 6193   3.309   3.672   3.798
   53DMPC   H7R 6194   3.230   3.659   3.875
   53DMPC   H7S 6195   3.379   3.587   3.805
   53DMPC   C28 6196   3.240   3.671   3.660
   53DMPC   H8R 6197   3.318   3.677   3.581
   53DMPC   H8S 6198   3.176   3.762   3.653
   53DMPC   C29 6199   3.152   3.547   3.637
   53DMPC   H9R 6200   3.094   3.527   3.730
   53DMPC   H9S 6201   3.216   3.459   3.617
   53DMPC  C210 6202   3.051   3.565   3.522
   53DMPC  H10R 6203   2.982   3.648   3.549
   53DMPC  H10S 6204   2.990   3.472   3.512
   53DMPC  C211 6205   3.116   3.598   3.386
   53DMPC  H11R 6206   3.180   3.513   3.354
   53DMPC  H11S 6207   3.180   3.688   3.397
   53DMPC  C212 6208   3.012   3.629   3.277
   53DMPC  H12R 6209   2.944   3.709   3.314
   53DMPC  H12S 6210   2.951   3.538   3.257
   53DMPC  C213 6211   3.077   3.677   3.146
   53DMPC  H13R 6212   3.145   3.597   3.109
   53DMPC  H13S 6213   3.138   3.767   3.167
   53DMPC  C214 6214   2.976   3.711   3.036
   53DMPC  H14R 6215   3.029   3.744   2.944
   53DMPC  H14S 6216   2.908   3.792   3.069
   53DMPC  H14T 6217   2.915   3.621   3.010
   53DMPC   C33 6218   2.744   3.361   3.940
   53DMPC   H3X 6219   2.681   3.351   4.031
   53DMPC   H3Y 6220   2.778   3.259   3.910
   53DMPC   C34 6221   2.654   3.417   3.828
   53DMPC   H4X 6222   2.603   3.509   3.863
   53DMPC   H4Y 6223   2.576   3.341   3.807
   53DMPC   C35 6224   2.728   3.449   3.696
   53DMPC   H5X 6225   2.816   3.382   3.688
   53DMPC   H5Y 6226   2.766   3.554   3.700
   53DMPC   C36 6227   2.644   3.428   3.569
   53DMPC   H6X 6228   2.617   3.320   3.563
   53DMPC   H6Y 6229   2.707   3.452   3.481
   53DMPC   C37 6230   2.513   3.509   3.559
   53DMPC   H7X 6231   2.447   3.484   3.644
   53DMPC   H7Y 6232   2.462   3.478   3.466
   53DMPC   C38 6233   2.534   3.661   3.555
   53DMPC   H8X 6234   2.613   3.686   3.481
   53DMPC   H8Y 6235   2.571   3.693   3.655
   53DMPC   C39 6236   2.407   3.742   3.523
   53DMPC   H9X 6237   2.428   3.849   3.545
   53DMPC   H9Y 6238   2.326   3.709   3.591
   53DMPC  C310 6239   2.357   3.733   3.378
   53DMPC  H10X 6240   2.262   3.792   3.371
   53DMPC  H10Y 6241   2.333   3.627   3.353
   53DMPC  C311 6242   2.456   3.789   3.274
   53DMPC  H11X 6243   2.545   3.723   3.269
   53DMPC  H11Y 6244   2.488   3.890   3.306
   53DMPC  C312 6245   2.395   3.800   3.132
   53DMPC  H12X 6246   2.307   3.868   3.137
   53DMPC  H12Y 6247   2.360   3.700   3.100
   53DMPC  C313 6248   2.495   3.855   3.029
   53DMPC  H13X 6249   2.581   3.785   3.022
   53DMPC  H13Y 6250   2.533   3.953   3.065
   53DMPC  C314 6251   2.436   3.874   2.888
   53DMPC  H14X 6252   2.396   3.777   2.850
   53DMPC  H14Y 6253   2.514   3.910   2.818
   53DMPC  H14Z 6254   2.353   3.948   2.891
   54DMPC     N 6255   5.342   5.813   5.039
   54DMPC   C13 6256   5.230   5.747   4.967
   54DMPC  H13A 6257   5.250   5.748   4.860
   54DMPC  H13B 6258   5.138   5.801   4.986
   54DMPC  H13C 6259   5.220   5.644   4.998
   54DMPC   C14 6260   5.314   5.807   5.185
   54DMPC  H14A 6261   5.224   5.864   5.207
   54DMPC  H14B 6262   5.396   5.852   5.239
   54DMPC  H14C 6263   5.302   5.705   5.217
   54DMPC   C15 6264   5.468   5.740   5.011
   54DMPC  H15A 6265   5.494   5.754   4.906
   54DMPC  H15B 6266   5.454   5.634   5.028
   54DMPC  H15C 6267   5.547   5.778   5.073
   54DMPC   C12 6268   5.354   5.957   4.995
   54DMPC  H12A 6269   5.444   5.998   5.038
   54DMPC  H12B 6270   5.270   6.011   5.038
   54DMPC   C11 6271   5.354   5.986   4.843
   54DMPC  H11A 6272   5.365   6.097   4.831
   54DMPC  H11B 6273   5.255   5.960   4.800
   54DMPC     P 6274   5.543   5.981   4.670
   54DMPC   O13 6275   5.642   5.888   4.612
   54DMPC   O14 6276   5.600   6.103   4.733
   54DMPC   O11 6277   5.439   6.024   4.559
   54DMPC   O12 6278   5.454   5.908   4.777
   54DMPC    C1 6279   5.340   5.936   4.506
   54DMPC    HA 6280   5.260   5.999   4.461
   54DMPC    HB 6281   5.291   5.874   4.585
   54DMPC    C2 6282   5.391   5.840   4.393
   54DMPC    HS 6283   5.448   5.760   4.446
   54DMPC   O21 6284   5.477   5.916   4.306
   54DMPC   C21 6285   5.545   5.838   4.224
   54DMPC   O22 6286   5.552   5.716   4.232
   54DMPC   C22 6287   5.611   5.924   4.116
   54DMPC   H2R 6288   5.706   5.964   4.157
   54DMPC   H2S 6289   5.546   6.010   4.091
   54DMPC    C3 6290   5.273   5.774   4.314
   54DMPC    HX 6291   5.190   5.751   4.384
   54DMPC    HY 6292   5.309   5.677   4.275
   54DMPC   O31 6293   5.231   5.854   4.200
   54DMPC   C31 6294   5.127   5.935   4.217
   54DMPC   O32 6295   5.054   5.937   4.314
   54DMPC   C32 6296   5.121   6.033   4.100
   54DMPC   H2X 6297   5.181   5.994   4.015
   54DMPC   H2Y 6298   5.166   6.130   4.133
   54DMPC   C23 6299   5.641   5.841   3.990
   54DMPC   H3R 6300   5.691   5.746   4.017
   54DMPC   H3S 6301   5.713   5.899   3.928
   54DMPC   C24 6302   5.518   5.812   3.902
   54DMPC   H4R 6303   5.442   5.755   3.960
   54DMPC   H4S 6304   5.552   5.747   3.818
   54DMPC   C25 6305   5.453   5.938   3.842
   54DMPC   H5R 6306   5.534   6.002   3.800
   54DMPC   H5S 6307   5.400   5.996   3.921
   54DMPC   C26 6308   5.355   5.905   3.728
   54DMPC   H6R 6309   5.267   5.852   3.768
   54DMPC   H6S 6310   5.408   5.836   3.658
   54DMPC   C27 6311   5.311   6.028   3.647
   54DMPC   H7R 6312   5.400   6.093   3.632
   54DMPC   H7S 6313   5.236   6.087   3.704
   54DMPC   C28 6314   5.256   5.991   3.508
   54DMPC   H8R 6315   5.153   5.952   3.517
   54DMPC   H8S 6316   5.320   5.910   3.467
   54DMPC   C29 6317   5.260   6.107   3.406
   54DMPC   H9R 6318   5.361   6.154   3.411
   54DMPC   H9S 6319   5.185   6.184   3.434
   54DMPC  C210 6320   5.237   6.058   3.262
   54DMPC  H10R 6321   5.311   5.977   3.242
   54DMPC  H10S 6322   5.135   6.015   3.254
   54DMPC  C211 6323   5.254   6.168   3.156
   54DMPC  H11R 6324   5.356   6.211   3.165
   54DMPC  H11S 6325   5.181   6.249   3.176
   54DMPC  C212 6326   5.234   6.118   3.011
   54DMPC  H12R 6327   5.134   6.072   3.003
   54DMPC  H12S 6328   5.237   6.206   2.943
   54DMPC  C213 6329   5.340   6.018   2.964
   54DMPC  H13R 6330   5.338   5.928   3.030
   54DMPC  H13S 6331   5.441   6.064   2.974
   54DMPC  C214 6332   5.322   5.971   2.819
   54DMPC  H14R 6333   5.329   6.057   2.749
   54DMPC  H14S 6334   5.223   5.922   2.806
   54DMPC  H14T 6335   5.401   5.897   2.792
   54DMPC   C33 6336   4.977   6.056   4.053
   54DMPC   H3X 6337   4.933   5.958   4.023
   54DMPC   H3Y 6338   4.915   6.098   4.135
   54DMPC   C34 6339   4.971   6.151   3.931
   54DMPC   H4X 6340   4.990   6.255   3.965
   54DMPC   H4Y 6341   5.053   6.122   3.862
   54DMPC   C35 6342   4.839   6.144   3.853
   54DMPC   H5X 6343   4.755   6.174   3.918
   54DMPC   H5Y 6344   4.824   6.039   3.821
   54DMPC   C36 6345   4.841   6.233   3.727
   54DMPC   H6X 6346   4.940   6.222   3.677
   54DMPC   H6Y 6347   4.831   0.009   3.757
   54DMPC   C37 6348   4.734   6.197   3.623
   54DMPC   H7X 6349   4.752   6.092   3.589
   54DMPC   H7Y 6350   4.746   6.263   3.534
   54DMPC   C38 6351   4.589   6.207   3.672
   54DMPC   H8X 6352   4.574   6.141   3.760
   54DMPC   H8Y 6353   4.523   6.168   3.590
   54DMPC   C39 6354   4.542   0.019   3.706
   54DMPC   H9X 6355   4.562   0.085   3.619
   54DMPC   H9Y 6356   4.601   0.057   3.793
   54DMPC  C310 6357   4.393   0.024   3.740
   54DMPC  H10X 6358   4.374   6.292   3.829
   54DMPC  H10Y 6359   4.337   6.310   3.654
   54DMPC  C311 6360   4.336   0.165   3.764
   54DMPC  H11X 6361   4.225   0.157   3.767
   54DMPC  H11Y 6362   4.363   0.230   3.678
   54DMPC  C312 6363   4.383   0.230   3.894
   54DMPC  H12X 6364   4.493   0.246   3.890
   54DMPC  H12Y 6365   4.361   0.162   3.979
   54DMPC  C313 6366   4.314   0.365   3.921
   54DMPC  H13X 6367   4.204   0.350   3.922
   54DMPC  H13Y 6368   4.338   0.434   3.837
   54DMPC  C314 6369   4.355   0.432   4.053
   54DMPC  H14X 6370   4.464   0.453   4.054
   54DMPC  H14Y 6371   4.331   0.366   4.139
   54DMPC  H14Z 6372   4.301   0.528   4.065
   55DMPC     N 6373   1.054   3.938   4.679
   55DMPC   C13 6374   1.062   3.848   4.562
   55DMPC  H13A 6375   0.995   3.882   4.484
   55DMPC  H13B 6376   1.032   3.748   4.591
   55DMPC  H13C 6377   1.163   3.845   4.524
   55DMPC   C14 6378   1.141   3.885   4.787
   55DMPC  H14A 6379   1.134   3.950   4.874
   55DMPC  H14B 6380   1.244   3.881   4.753
   55DMPC  H14C 6381   1.108   3.786   4.814
   55DMPC   C15 6382   1.106   4.072   4.642
   55DMPC  H15A 6383   1.208   4.063   4.605
   55DMPC  H15B 6384   1.104   4.137   4.728
   55DMPC  H15C 6385   1.044   4.114   4.564
   55DMPC   C12 6386   0.912   3.947   4.732
   55DMPC  H12A 6387   0.913   4.017   4.815
   55DMPC  H12B 6388   0.887   3.849   4.772
   55DMPC   C11 6389   0.799   3.988   4.635
   55DMPC  H11A 6390   0.702   3.991   4.691
   55DMPC  H11B 6391   0.787   3.908   4.559
   55DMPC     P 6392   0.795   4.246   4.639
   55DMPC   O13 6393   0.899   4.343   4.598
   55DMPC   O14 6394   0.780   4.224   4.785
   55DMPC   O11 6395   0.659   4.295   4.579
   55DMPC   O12 6396   0.826   4.110   4.568
   55DMPC    C1 6397   0.555   4.208   4.534
   55DMPC    HA 6398   0.460   4.267   4.531
   55DMPC    HB 6399   0.539   4.124   4.606
   55DMPC    C2 6400   0.577   4.150   4.391
   55DMPC    HS 6401   0.666   4.084   4.397
   55DMPC   O21 6402   0.595   4.261   4.301
   55DMPC   C21 6403   0.684   4.239   4.206
   55DMPC   O22 6404   0.757   4.141   4.200
   55DMPC   C22 6405   0.678   4.348   4.100
   55DMPC   H2R 6406   0.781   4.367   4.064
   55DMPC   H2S 6407   0.636   4.442   4.142
   55DMPC    C3 6408   0.456   4.062   4.348
   55DMPC    HX 6409   0.365   4.127   4.354
   55DMPC    HY 6410   0.442   3.980   4.422
   55DMPC   O31 6411   0.465   4.011   4.213
   55DMPC   C31 6412   0.543   3.906   4.198
   55DMPC   O32 6413   0.603   3.848   4.287
   55DMPC   C32 6414   0.547   3.869   4.050
   55DMPC   H2X 6415   0.583   3.957   3.992
   55DMPC   H2Y 6416   0.444   3.844   4.016
   55DMPC   C23 6417   0.591   4.297   3.983
   55DMPC   H3R 6418   0.626   4.196   3.952
   55DMPC   H3S 6419   0.606   4.365   3.896
   55DMPC   C24 6420   0.441   4.293   4.016
   55DMPC   H4R 6421   0.401   4.397   4.016
   55DMPC   H4S 6422   0.428   4.253   4.119
   55DMPC   C25 6423   0.357   4.205   3.924
   55DMPC   H5R 6424   0.395   4.101   3.925
   55DMPC   H5S 6425   0.253   4.203   3.965
   55DMPC   C26 6426   0.350   4.255   3.779
   55DMPC   H6R 6427   0.448   4.238   3.729
   55DMPC   H6S 6428   0.330   4.365   3.780
   55DMPC   C27 6429   0.238   4.187   3.698
   55DMPC   H7R 6430   0.141   4.209   3.748
   55DMPC   H7S 6431   0.253   4.077   3.699
   55DMPC   C28 6432   0.233   4.236   3.553
   55DMPC   H8R 6433   0.328   4.205   3.503
   55DMPC   H8S 6434   0.230   4.348   3.553
   55DMPC   C29 6435   0.114   4.184   3.472
   55DMPC   H9R 6436   0.113   4.073   3.471
   55DMPC   H9S 6437   0.130   4.219   3.367
   55DMPC  C210 6438   6.269   4.238   3.519
   55DMPC  H10R 6439   6.281   4.345   3.544
   55DMPC  H10S 6440   6.236   4.184   3.610
   55DMPC  C211 6441   6.162   4.227   3.409
   55DMPC  H11R 6442   6.137   4.120   3.391
   55DMPC  H11S 6443   6.205   4.268   3.315
   55DMPC  C212 6444   6.034   4.307   3.440
   55DMPC  H12R 6445   6.063   4.409   3.471
   55DMPC  H12S 6446   5.979   4.259   3.523
   55DMPC  C213 6447   5.943   4.319   3.317
   55DMPC  H13R 6448   5.905   4.218   3.290
   55DMPC  H13S 6449   6.005   4.355   3.232
   55DMPC  C214 6450   5.825   4.414   3.335
   55DMPC  H14R 6451   5.861   4.516   3.363
   55DMPC  H14S 6452   5.757   4.377   3.414
   55DMPC  H14T 6453   5.767   4.423   3.240
   55DMPC   C33 6454   0.640   3.750   4.026
   55DMPC   H3X 6455   0.606   3.663   4.087
   55DMPC   H3Y 6456   0.743   3.776   4.059
   55DMPC   C34 6457   0.644   3.708   3.879
   55DMPC   H4X 6458   0.678   3.794   3.816
   55DMPC   H4Y 6459   0.541   3.680   3.847
   55DMPC   C35 6460   0.737   3.588   3.854
   55DMPC   H5X 6461   0.712   3.508   3.926
   55DMPC   H5Y 6462   0.842   3.619   3.872
   55DMPC   C36 6463   0.725   3.532   3.711
   55DMPC   H6X 6464   0.749   3.613   3.638
   55DMPC   H6Y 6465   0.619   3.501   3.694
   55DMPC   C37 6466   0.817   3.411   3.687
   55DMPC   H7X 6467   0.800   3.337   3.768
   55DMPC   H7Y 6468   0.922   3.446   3.694
   55DMPC   C38 6469   0.794   3.341   3.553
   55DMPC   H8X 6470   0.690   3.302   3.551
   55DMPC   H8Y 6471   0.863   3.254   3.546
   55DMPC   C39 6472   0.816   3.431   3.430
   55DMPC   H9X 6473   0.918   3.474   3.436
   55DMPC   H9Y 6474   0.743   3.514   3.431
   55DMPC  C310 6475   0.803   3.357   3.295
   55DMPC  H10X 6476   0.880   3.277   3.290
   55DMPC  H10Y 6477   0.825   3.430   3.214
   55DMPC  C311 6478   0.664   3.295   3.272
   55DMPC  H11X 6479   0.587   3.375   3.279
   55DMPC  H11Y 6480   0.644   3.221   3.351
   55DMPC  C312 6481   0.649   3.223   3.136
   55DMPC  H12X 6482   0.553   3.168   3.137
   55DMPC  H12Y 6483   0.731   3.149   3.127
   55DMPC  C313 6484   0.651   3.316   3.014
   55DMPC  H13X 6485   0.748   3.370   3.010
   55DMPC  H13Y 6486   0.570   3.392   3.026
   55DMPC  C314 6487   0.631   3.242   2.882
   55DMPC  H14X 6488   0.535   3.186   2.883
   55DMPC  H14Y 6489   0.713   3.170   2.865
   55DMPC  H14Z 6490   0.629   3.314   2.797
   56DMPC     N 6491   3.943   6.283   5.078
   56DMPC   C13 6492   3.820   6.249   5.155
   56DMPC  H13A 6493   3.828   6.288   5.256
   56DMPC  H13B 6494   3.807   6.142   5.159
   56DMPC  H13C 6495   3.734   6.294   5.106
   56DMPC   C14 6496   3.961   0.100   5.076
   56DMPC  H14A 6497   4.052   0.124   5.022
   56DMPC  H14B 6498   3.969   0.137   5.177
   56DMPC  H14C 6499   3.878   0.145   5.025
   56DMPC   C15 6500   4.060   6.222   5.147
   56DMPC  H15A 6501   4.051   6.114   5.148
   56DMPC  H15B 6502   4.064   6.258   5.249
   56DMPC  H15C 6503   4.151   6.251   5.097
   56DMPC   C12 6504   3.934   6.229   4.937
   56DMPC  H12A 6505   3.952   6.122   4.942
   56DMPC  H12B 6506   4.015   6.273   4.880
   56DMPC   C11 6507   3.802   6.250   4.859
   56DMPC  H11A 6508   3.726   6.182   4.904
   56DMPC  H11B 6509   3.821   6.216   4.754
   56DMPC     P 6510   3.624   0.087   4.794
   56DMPC   O13 6511   3.594   0.231   4.810
   56DMPC   O14 6512   3.522   6.324   4.846
   56DMPC   O11 6513   3.650   0.059   4.640
   56DMPC   O12 6514   3.762   0.055   4.863
   56DMPC    C1 6515   3.726   0.154   4.562
   56DMPC    HA 6516   3.774   0.100   4.478
   56DMPC    HB 6517   3.809   0.199   4.621
   56DMPC    C2 6518   3.641   0.270   4.500
   56DMPC    HS 6519   3.580   0.312   4.583
   56DMPC   O21 6520   3.557   0.212   4.398
   56DMPC   C21 6521   3.464   0.296   4.358
   56DMPC   O22 6522   3.438   0.403   4.409
   56DMPC   C22 6523   3.393   0.239   4.236
   56DMPC   H2R 6524   3.293   0.287   4.231
   56DMPC   H2S 6525   3.379   0.130   4.248
   56DMPC    C3 6526   3.730   0.387   4.444
   56DMPC    HX 6527   3.808   0.412   4.518
   56DMPC    HY 6528   3.666   0.477   4.437
   56DMPC   O31 6529   3.782   0.359   4.311
   56DMPC   C31 6530   3.906   0.313   4.306
   56DMPC   O32 6531   3.980   0.300   4.403
   56DMPC   C32 6532   3.941   0.269   4.165
   56DMPC   H2X 6533   4.008   0.344   4.118
   56DMPC   H2Y 6534   3.848   0.260   4.104
   56DMPC   C23 6535   3.467   0.271   4.105
   56DMPC   H3R 6536   3.523   0.367   4.112
   56DMPC   H3S 6537   3.388   0.284   4.027
   56DMPC   C24 6538   3.560   0.158   4.056
   56DMPC   H4R 6539   3.501   0.064   4.052
   56DMPC   H4S 6540   3.642   0.144   4.130
   56DMPC   C25 6541   3.622   0.182   3.917
   56DMPC   H5R 6542   3.683   0.092   3.891
   56DMPC   H5S 6543   3.691   0.269   3.922
   56DMPC   C26 6544   3.519   0.207   3.806
   56DMPC   H6R 6545   3.468   0.304   3.826
   56DMPC   H6S 6546   3.442   0.127   3.810
   56DMPC   C27 6547   3.576   0.213   3.663
   56DMPC   H7R 6548   3.658   0.288   3.659
   56DMPC   H7S 6549   3.494   0.247   3.596
   56DMPC   C28 6550   3.626   0.077   3.611
   56DMPC   H8R 6551   3.549   6.330   3.634
   56DMPC   H8S 6552   3.719   0.048   3.664
   56DMPC   C29 6553   3.649   0.074   3.459
   56DMPC   H9R 6554   3.552   0.093   3.408
   56DMPC   H9S 6555   3.683   6.303   3.429
   56DMPC  C210 6556   3.752   0.175   3.405
   56DMPC  H10R 6557   3.717   0.279   3.425
   56DMPC  H10S 6558   3.758   0.161   3.295
   56DMPC  C211 6559   3.893   0.158   3.464
   56DMPC  H11R 6560   3.926   0.053   3.449
   56DMPC  H11S 6561   3.890   0.178   3.573
   56DMPC  C212 6562   3.996   0.251   3.399
   56DMPC  H12R 6563   3.961   0.357   3.410
   56DMPC  H12S 6564   4.001   0.229   3.290
   56DMPC  C213 6565   4.136   0.238   3.459
   56DMPC  H13R 6566   4.170   0.133   3.449
   56DMPC  H13S 6567   4.130   0.262   3.568
   56DMPC  C214 6568   4.241   0.330   3.395
   56DMPC  H14R 6569   4.249   0.308   3.286
   56DMPC  H14S 6570   4.340   0.315   3.442
   56DMPC  H14T 6571   4.211   0.437   3.407
   56DMPC   C33 6572   4.010   0.133   4.176
   56DMPC   H3X 6573   3.952   0.067   4.245
   56DMPC   H3Y 6574   4.111   0.146   4.219
   56DMPC   C34 6575   4.021   0.057   4.043
   56DMPC   H4X 6576   4.079   0.119   3.971
   56DMPC   H4Y 6577   3.920   0.041   4.001
   56DMPC   C35 6578   4.091   6.252   4.062
   56DMPC   H5X 6579   4.033   6.189   4.132
   56DMPC   H5Y 6580   4.190   6.272   4.108
   56DMPC   C36 6581   4.113   6.175   3.931
   56DMPC   H6X 6582   4.186   6.092   3.951
   56DMPC   H6Y 6583   4.160   6.243   3.858
   56DMPC   C37 6584   3.986   6.113   3.872
   56DMPC   H7X 6585   3.911   6.192   3.850
   56DMPC   H7Y 6586   3.942   6.045   3.948
   56DMPC   C38 6587   4.013   6.032   3.744
   56DMPC   H8X 6588   3.923   5.971   3.719
   56DMPC   H8Y 6589   4.097   5.961   3.766
   56DMPC   C39 6590   4.050   6.118   3.623
   56DMPC   H9X 6591   4.107   6.207   3.655
   56DMPC   H9Y 6592   3.956   6.154   3.575
   56DMPC  C310 6593   4.136   6.044   3.520
   56DMPC  H10X 6594   4.084   5.951   3.487
   56DMPC  H10Y 6595   4.231   6.013   3.569
   56DMPC  C311 6596   4.169   6.130   3.398
   56DMPC  H11X 6597   4.213   6.226   3.433
   56DMPC  H11Y 6598   4.075   6.153   3.343
   56DMPC  C312 6599   4.268   6.062   3.301
   56DMPC  H12X 6600   4.232   5.960   3.278
   56DMPC  H12Y 6601   4.367   6.052   3.353
   56DMPC  C313 6602   4.288   6.138   3.169
   56DMPC  H13X 6603   4.191   6.136   3.115
   56DMPC  H13Y 6604   4.362   6.084   3.107
   56DMPC  C314 6605   4.332   6.284   3.183
   56DMPC  H14X 6606   4.351   6.328   3.083
   56DMPC  H14Y 6607   4.426   6.290   3.242
   56DMPC  H14Z 6608   4.254   0.014   3.234
   57DMPC     N 6609   3.890   5.407   4.989
   57DMPC   C13 6610   3.825   5.277   5.020
   57DMPC  H13A 6611   3.816   5.218   4.929
   57DMPC  H13B 6612   3.726   5.295   5.060
   57DMPC  H13C 6613   3.885   5.223   5.092
   57DMPC   C14 6614   4.024   5.381   4.930
   57DMPC  H14A 6615   4.013   5.320   4.841
   57DMPC  H14B 6616   4.086   5.329   5.002
   57DMPC  H14C 6617   4.071   5.475   4.904
   57DMPC   C15 6618   3.806   5.479   4.889
   57DMPC  H15A 6619   3.706   5.492   4.927
   57DMPC  H15B 6620   3.802   5.422   4.797
   57DMPC  H15C 6621   3.850   5.576   4.869
   57DMPC   C12 6622   3.902   5.487   5.117
   57DMPC  H12A 6623   3.942   5.420   5.193
   57DMPC  H12B 6624   3.802   5.514   5.147
   57DMPC   C11 6625   3.989   5.614   5.116
   57DMPC  H11A 6626   4.096   5.585   5.110
   57DMPC  H11B 6627   3.975   5.664   5.216
   57DMPC     P 6628   3.934   5.848   5.027
   57DMPC   O13 6629   4.038   5.902   5.117
   57DMPC   O14 6630   3.793   5.869   5.066
   57DMPC   O11 6631   3.961   5.907   4.882
   57DMPC   O12 6632   3.958   5.696   5.005
   57DMPC    C1 6633   4.066   5.847   4.803
   57DMPC    HA 6634   4.025   5.762   4.744
   57DMPC    HB 6635   4.150   5.808   4.866
   57DMPC    C2 6636   4.132   5.946   4.703
   57DMPC    HS 6637   4.166   6.033   4.765
   57DMPC   O21 6638   4.033   5.987   4.606
   57DMPC   C21 6639   4.073   6.095   4.541
   57DMPC   O22 6640   4.171   6.162   4.571
   57DMPC   C22 6641   3.984   6.120   4.419
   57DMPC   H2R 6642   4.001   6.038   4.345
   57DMPC   H2S 6643   4.015   6.216   4.373
   57DMPC    C3 6644   4.257   5.881   4.635
   57DMPC    HX 6645   4.325   5.855   4.719
   57DMPC    HY 6646   4.308   5.954   4.570
   57DMPC   O31 6647   4.224   5.761   4.561
   57DMPC   C31 6648   4.332   5.692   4.525
   57DMPC   O32 6649   4.447   5.729   4.544
   57DMPC   C32 6650   4.291   5.562   4.457
   57DMPC   H2X 6651   4.191   5.530   4.494
   57DMPC   H2Y 6652   4.365   5.483   4.483
   57DMPC   C23 6653   3.835   6.127   4.457
   57DMPC   H3R 6654   3.823   6.203   4.538
   57DMPC   H3S 6655   3.800   6.029   4.496
   57DMPC   C24 6656   3.744   6.170   4.340
   57DMPC   H4R 6657   3.783   6.264   4.297
   57DMPC   H4S 6658   3.642   6.191   4.380
   57DMPC   C25 6659   3.730   6.064   4.229
   57DMPC   H5R 6660   3.675   5.977   4.269
   57DMPC   H5S 6661   3.832   6.030   4.198
   57DMPC   C26 6662   3.659   6.118   4.104
   57DMPC   H6R 6663   3.720   6.201   4.061
   57DMPC   H6S 6664   3.560   6.160   4.132
   57DMPC   C27 6665   3.639   6.011   3.996
   57DMPC   H7R 6666   3.564   5.936   4.032
   57DMPC   H7S 6667   3.735   5.957   3.979
   57DMPC   C28 6668   3.592   6.068   3.861
   57DMPC   H8R 6669   3.670   6.136   3.822
   57DMPC   H8S 6670   3.499   6.127   3.877
   57DMPC   C29 6671   3.564   5.958   3.757
   57DMPC   H9R 6672   3.483   5.893   3.798
   57DMPC   H9S 6673   3.654   5.894   3.745
   57DMPC  C210 6674   3.518   6.012   3.621
   57DMPC  H10R 6675   3.456   6.102   3.637
   57DMPC  H10S 6676   3.453   5.936   3.572
   57DMPC  C211 6677   3.632   6.046   3.523
   57DMPC  H11R 6678   3.702   6.118   3.570
   57DMPC  H11S 6679   3.586   6.095   3.435
   57DMPC  C212 6680   3.711   5.923   3.473
   57DMPC  H12R 6681   3.638   5.845   3.441
   57DMPC  H12S 6682   3.772   5.881   3.556
   57DMPC  C213 6683   3.801   5.954   3.353
   57DMPC  H13R 6684   3.874   6.033   3.382
   57DMPC  H13S 6685   3.738   5.995   3.271
   57DMPC  C214 6686   3.878   5.833   3.299
   57DMPC  H14R 6687   3.807   5.755   3.264
   57DMPC  H14S 6688   3.942   5.789   3.379
   57DMPC  H14T 6689   3.942   5.863   3.214
   57DMPC   C33 6690   4.287   5.580   4.304
   57DMPC   H3X 6691   4.389   5.603   4.266
   57DMPC   H3Y 6692   4.221   5.666   4.279
   57DMPC   C34 6693   4.234   5.456   4.230
   57DMPC   H4X 6694   4.131   5.434   4.268
   57DMPC   H4Y 6695   4.299   5.369   4.253
   57DMPC   C35 6696   4.227   5.475   4.077
   57DMPC   H5X 6697   4.330   5.489   4.038
   57DMPC   H5Y 6698   4.169   5.568   4.056
   57DMPC   C36 6699   4.160   5.358   4.002
   57DMPC   H6X 6700   4.153   5.386   3.894
   57DMPC   H6Y 6701   4.056   5.345   4.040
   57DMPC   C37 6702   4.236   5.225   4.013
   57DMPC   H7X 6703   4.231   5.188   4.118
   57DMPC   H7Y 6704   4.342   5.245   3.988
   57DMPC   C38 6705   4.184   5.116   3.918
   57DMPC   H8X 6706   4.190   5.155   3.814
   57DMPC   H8Y 6707   4.077   5.095   3.941
   57DMPC   C39 6708   4.265   4.985   3.928
   57DMPC   H9X 6709   4.251   4.943   4.030
   57DMPC   H9Y 6710   4.373   5.009   3.916
   57DMPC  C310 6711   4.228   4.878   3.824
   57DMPC  H10X 6712   4.120   4.853   3.833
   57DMPC  H10Y 6713   4.286   4.786   3.847
   57DMPC  C311 6714   4.260   4.919   3.679
   57DMPC  H11X 6715   4.366   4.950   3.673
   57DMPC  H11Y 6716   4.197   5.006   3.651
   57DMPC  C312 6717   4.236   4.806   3.577
   57DMPC  H12X 6718   4.129   4.774   3.582
   57DMPC  H12Y 6719   4.299   4.719   3.605
   57DMPC  C313 6720   4.269   4.848   3.433
   57DMPC  H13X 6721   4.376   4.879   3.429
   57DMPC  H13Y 6722   4.207   4.937   3.407
   57DMPC  C314 6723   4.245   4.739   3.328
   57DMPC  H14X 6724   4.272   4.777   3.227
   57DMPC  H14Y 6725   4.138   4.709   3.328
   57DMPC  H14Z 6726   4.308   4.650   3.350
   58DMPC     N 6727   0.118   5.186   4.862
   58DMPC   C13 6728   0.197   5.161   4.986
   58DMPC  H13A 6729   0.130   5.148   5.070
   58DMPC  H13B 6730   0.264   5.244   5.005
   58DMPC  H13C 6731   0.254   5.069   4.972
   58DMPC   C14 6732   0.027   5.070   4.840
   58DMPC  H14A 6733   6.253   5.058   4.926
   58DMPC  H14B 6734   0.088   4.981   4.829
   58DMPC  H14C 6735   6.259   5.087   4.751
   58DMPC   C15 6736   0.036   5.309   4.881
   58DMPC  H15A 6737   6.260   5.321   4.796
   58DMPC  H15B 6738   0.101   5.394   4.888
   58DMPC  H15C 6739   6.269   5.299   4.972
   58DMPC   C12 6740   0.208   5.201   4.742
   58DMPC  H12A 6741   0.147   5.233   4.659
   58DMPC  H12B 6742   0.246   5.102   4.718
   58DMPC   C11 6743   0.330   5.295   4.753
   58DMPC  H11A 6744   0.377   5.303   4.653
   58DMPC  H11B 6745   0.405   5.245   4.820
   58DMPC     P 6746   0.376   5.495   4.906
   58DMPC   O13 6747   0.351   5.425   5.035
   58DMPC   O14 6748   0.346   5.640   4.905
   58DMPC   O11 6749   0.523   5.468   4.857
   58DMPC   O12 6750   0.289   5.425   4.796
   58DMPC    C1 6751   0.611   5.576   4.819
   58DMPC    HA 6752   0.712   5.533   4.798
   58DMPC    HB 6753   0.623   5.648   4.903
   58DMPC    C2 6754   0.568   5.653   4.690
   58DMPC    HS 6755   0.467   5.696   4.710
   58DMPC   O21 6756   0.560   5.559   4.581
   58DMPC   C21 6757   0.499   5.606   4.475
   58DMPC   O22 6758   0.442   5.713   4.468
   58DMPC   C22 6759   0.505   5.503   4.363
   58DMPC   H2R 6760   0.460   5.545   4.271
   58DMPC   H2S 6761   0.444   5.416   4.395
   58DMPC    C3 6762   0.661   5.776   4.660
   58DMPC    HX 6763   0.680   5.824   4.760
   58DMPC    HY 6764   0.605   5.849   4.598
   58DMPC   O31 6765   0.783   5.739   4.592
   58DMPC   C31 6766   0.877   5.834   4.598
   58DMPC   O32 6767   0.869   5.935   4.667
   58DMPC   C32 6768   0.989   5.800   4.502
   58DMPC   H2X 6769   0.948   5.790   4.399
   58DMPC   H2Y 6770   1.036   5.704   4.531
   58DMPC   C23 6771   0.649   5.456   4.335
   58DMPC   H3R 6772   0.644   5.363   4.275
   58DMPC   H3S 6773   0.702   5.431   4.430
   58DMPC   C24 6774   0.733   5.557   4.255
   58DMPC   H4R 6775   0.732   5.656   4.306
   58DMPC   H4S 6776   0.686   5.569   4.155
   58DMPC   C25 6777   0.879   5.512   4.237
   58DMPC   H5R 6778   0.880   5.405   4.205
   58DMPC   H5S 6779   0.931   5.519   4.335
   58DMPC   C26 6780   0.956   5.594   4.133
   58DMPC   H6R 6781   0.950   5.702   4.159
   58DMPC   H6S 6782   0.907   5.580   4.034
   58DMPC   C27 6783   1.104   5.555   4.122
   58DMPC   H7R 6784   1.111   5.444   4.117
   58DMPC   H7S 6785   1.157   5.589   4.213
   58DMPC   C28 6786   1.172   5.612   3.997
   58DMPC   H8R 6787   1.158   5.722   3.994
   58DMPC   H8S 6788   1.119   5.570   3.908
   58DMPC   C29 6789   1.321   5.577   3.986
   58DMPC   H9R 6790   1.352   5.579   3.879
   58DMPC   H9S 6791   1.333   5.472   4.022
   58DMPC  C210 6792   1.414   5.669   4.066
   58DMPC  H10R 6793   1.496   5.606   4.108
   58DMPC  H10S 6794   1.360   5.714   4.152
   58DMPC  C211 6795   1.481   5.780   3.983
   58DMPC  H11R 6796   1.538   5.732   3.900
   58DMPC  H11S 6797   1.554   5.833   4.048
   58DMPC  C212 6798   1.384   5.883   3.923
   58DMPC  H12R 6799   1.335   5.939   4.005
   58DMPC  H12S 6800   1.304   5.829   3.866
   58DMPC  C213 6801   1.449   5.982   3.825
   58DMPC  H13R 6802   1.370   6.050   3.787
   58DMPC  H13S 6803   1.490   5.925   3.739
   58DMPC  C214 6804   1.562   6.067   3.885
   58DMPC  H14R 6805   1.600   6.138   3.809
   58DMPC  H14S 6806   1.646   6.003   3.918
   58DMPC  H14T 6807   1.525   6.125   3.972
   58DMPC   C33 6808   1.093   5.913   4.505
   58DMPC   H3X 6809   1.132   5.925   4.608
   58DMPC   H3Y 6810   1.045   6.009   4.475
   58DMPC   C34 6811   1.213   5.889   4.411
   58DMPC   H4X 6812   1.177   5.882   4.306
   58DMPC   H4Y 6813   1.260   5.791   4.438
   58DMPC   C35 6814   1.318   6.000   4.423
   58DMPC   H5X 6815   1.349   6.008   4.529
   58DMPC   H5Y 6816   1.271   6.097   4.394
   58DMPC   C36 6817   1.442   5.976   4.337
   58DMPC   H6X 6818   1.413   5.967   4.230
   58DMPC   H6Y 6819   1.489   5.879   4.368
   58DMPC   C37 6820   1.545   6.088   4.352
   58DMPC   H7X 6821   1.566   6.104   4.460
   58DMPC   H7Y 6822   1.502   6.183   4.312
   58DMPC   C38 6823   1.677   6.058   4.280
   58DMPC   H8X 6824   1.657   6.042   4.172
   58DMPC   H8Y 6825   1.720   5.965   4.322
   58DMPC   C39 6826   1.780   6.171   4.297
   58DMPC   H9X 6827   1.791   6.194   4.405
   58DMPC   H9Y 6828   1.742   6.263   4.247
   58DMPC  C310 6829   1.919   6.136   4.242
   58DMPC  H10X 6830   1.956   6.047   4.296
   58DMPC  H10Y 6831   1.988   6.221   4.264
   58DMPC  C311 6832   1.924   6.108   4.091
   58DMPC  H11X 6833   1.866   6.017   4.067
   58DMPC  H11Y 6834   2.030   6.088   4.063
   58DMPC  C312 6835   1.873   6.225   4.005
   58DMPC  H12X 6836   1.920   6.319   4.040
   58DMPC  H12Y 6837   1.763   6.235   4.018
   58DMPC  C313 6838   1.904   6.208   3.855
   58DMPC  H13X 6839   1.861   6.111   3.820
   58DMPC  H13Y 6840   2.015   6.202   3.843
   58DMPC  C314 6841   1.850   6.321   3.768
   58DMPC  H14X 6842   1.888   0.089   3.804
   58DMPC  H14Y 6843   1.739   6.323   3.771
   58DMPC  H14Z 6844   1.883   6.307   3.663
   59DMPC     N 6845   4.831   3.997   4.847
   59DMPC   C13 6846   4.710   4.012   4.933
   59DMPC  H13A 6847   4.624   3.971   4.882
   59DMPC  H13B 6848   4.694   4.116   4.955
   59DMPC  H13C 6849   4.724   3.957   5.025
   59DMPC   C14 6850   4.949   4.055   4.916
   59DMPC  H14A 6851   4.959   4.011   5.014
   59DMPC  H14B 6852   4.938   4.162   4.923
   59DMPC  H14C 6853   5.039   4.032   4.859
   59DMPC   C15 6854   4.858   3.852   4.826
   59DMPC  H15A 6855   4.876   3.805   4.922
   59DMPC  H15B 6856   4.947   3.841   4.765
   59DMPC  H15C 6857   4.774   3.805   4.778
   59DMPC   C12 6858   4.809   4.064   4.713
   59DMPC  H12A 6859   4.736   4.005   4.658
   59DMPC  H12B 6860   4.903   4.060   4.659
   59DMPC   C11 6861   4.760   4.210   4.712
   59DMPC  H11A 6862   4.655   4.213   4.751
   59DMPC  H11B 6863   4.759   4.245   4.606
   59DMPC     P 6864   4.801   4.437   4.819
   59DMPC   O13 6865   4.921   4.519   4.845
   59DMPC   O14 6866   4.699   4.435   4.927
   59DMPC   O11 6867   4.731   4.485   4.686
   59DMPC   O12 6868   4.846   4.291   4.790
   59DMPC    C1 6869   4.626   4.583   4.685
   59DMPC    HA 6870   4.640   4.649   4.596
   59DMPC    HB 6871   4.628   4.649   4.774
   59DMPC    C2 6872   4.484   4.518   4.672
   59DMPC    HS 6873   4.475   4.447   4.758
   59DMPC   O21 6874   4.481   4.449   4.547
   59DMPC   C21 6875   4.393   4.352   4.540
   59DMPC   O22 6876   4.317   4.319   4.630
   59DMPC   C22 6877   4.403   4.289   4.401
   59DMPC   H2R 6878   4.506   4.251   4.387
   59DMPC   H2S 6879   4.385   4.369   4.326
   59DMPC    C3 6880   4.370   4.624   4.684
   59DMPC    HX 6881   4.380   4.668   4.787
   59DMPC    HY 6882   4.272   4.573   4.678
   59DMPC   O31 6883   4.379   4.728   4.583
   59DMPC   C31 6884   4.302   4.834   4.608
   59DMPC   O32 6885   4.232   4.847   4.707
   59DMPC   C32 6886   4.317   4.937   4.497
   59DMPC   H2X 6887   4.376   4.896   4.412
   59DMPC   H2Y 6888   4.372   5.025   4.538
   59DMPC   C23 6889   4.303   4.175   4.376
   59DMPC   H3R 6890   4.199   4.209   4.400
   59DMPC   H3S 6891   4.328   4.089   4.442
   59DMPC   C24 6892   4.308   4.129   4.229
   59DMPC   H4R 6893   4.413   4.109   4.201
   59DMPC   H4S 6894   4.271   4.213   4.166
   59DMPC   C25 6895   4.225   4.003   4.197
   59DMPC   H5R 6896   4.123   4.016   4.238
   59DMPC   H5S 6897   4.271   3.915   4.247
   59DMPC   C26 6898   4.215   3.978   4.045
   59DMPC   H6R 6899   4.316   3.959   4.004
   59DMPC   H6S 6900   4.175   4.071   3.998
   59DMPC   C27 6901   4.122   3.862   4.009
   59DMPC   H7R 6902   4.027   3.875   4.066
   59DMPC   H7S 6903   4.167   3.765   4.040
   59DMPC   C28 6904   4.085   3.855   3.859
   59DMPC   H8R 6905   4.059   3.958   3.823
   59DMPC   H8S 6906   3.994   3.792   3.849
   59DMPC   C29 6907   4.194   3.795   3.769
   59DMPC   H9R 6908   4.218   3.693   3.806
   59DMPC   H9S 6909   4.286   3.856   3.775
   59DMPC  C210 6910   4.150   3.785   3.622
   59DMPC  H10R 6911   4.131   3.887   3.582
   59DMPC  H10S 6912   4.054   3.729   3.619
   59DMPC  C211 6913   4.253   3.714   3.532
   59DMPC  H11R 6914   4.272   3.613   3.572
   59DMPC  H11S 6915   4.348   3.772   3.536
   59DMPC  C212 6916   4.210   3.702   3.385
   59DMPC  H12R 6917   4.294   3.657   3.328
   59DMPC  H12S 6918   4.192   3.804   3.343
   59DMPC  C213 6919   4.084   3.616   3.362
   59DMPC  H13R 6920   3.997   3.664   3.412
   59DMPC  H13S 6921   4.100   3.517   3.410
   59DMPC  C214 6922   4.049   3.594   3.215
   59DMPC  H14R 6923   4.132   3.541   3.163
   59DMPC  H14S 6924   4.032   3.691   3.164
   59DMPC  H14T 6925   3.957   3.532   3.206
   59DMPC   C33 6926   4.179   4.984   4.447
   59DMPC   H3X 6927   4.196   5.072   4.379
   59DMPC   H3Y 6928   4.117   5.019   4.532
   59DMPC   C34 6929   4.103   4.878   4.366
   59DMPC   H4X 6930   4.075   4.794   4.433
   59DMPC   H4Y 6931   4.172   4.837   4.289
   59DMPC   C35 6932   3.978   4.930   4.294
   59DMPC   H5X 6933   3.934   4.846   4.235
   59DMPC   H5Y 6934   4.008   5.009   4.222
   59DMPC   C36 6935   3.870   4.985   4.388
   59DMPC   H6X 6936   3.911   5.074   4.442
   59DMPC   H6Y 6937   3.845   4.907   4.464
   59DMPC   C37 6938   3.739   5.027   4.318
   59DMPC   H7X 6939   3.670   5.064   4.397
   59DMPC   H7Y 6940   3.693   4.938   4.271
   59DMPC   C38 6941   3.757   5.138   4.213
   59DMPC   H8X 6942   3.806   5.097   4.123
   59DMPC   H8Y 6943   3.824   5.216   4.256
   59DMPC   C39 6944   3.625   5.208   4.175
   59DMPC   H9X 6945   3.648   5.292   4.106
   59DMPC   H9Y 6946   3.581   5.251   4.267
   59DMPC  C310 6947   3.519   5.119   4.108
   59DMPC  H10X 6948   3.424   5.177   4.105
   59DMPC  H10Y 6949   3.501   5.028   4.170
   59DMPC  C311 6950   3.555   5.077   3.964
   59DMPC  H11X 6951   3.652   5.022   3.966
   59DMPC  H11Y 6952   3.568   5.168   3.902
   59DMPC  C312 6953   3.450   4.986   3.897
   59DMPC  H12X 6954   3.439   4.893   3.957
   59DMPC  H12Y 6955   3.488   4.958   3.796
   59DMPC  C313 6956   3.311   5.049   3.882
   59DMPC  H13X 6957   3.320   5.147   3.831
   59DMPC  H13Y 6958   3.269   5.066   3.983
   59DMPC  C314 6959   3.212   4.962   3.804
   59DMPC  H14X 6960   3.247   4.947   3.700
   59DMPC  H14Y 6961   3.112   5.011   3.801
   59DMPC  H14Z 6962   3.200   4.863   3.853
   60DMPC     N 6963   0.322   4.358   4.904
   60DMPC   C13 6964   0.439   4.280   4.856
   60DMPC  H13A 6965   0.460   4.200   4.926
   60DMPC  H13B 6966   0.525   4.344   4.847
   60DMPC  H13C 6967   0.415   4.237   4.759
   60DMPC   C14 6968   0.207   4.264   4.916
   60DMPC  H14A 6969   0.118   4.320   4.944
   60DMPC  H14B 6970   0.228   4.189   4.991
   60DMPC  H14C 6971   0.190   4.216   4.820
   60DMPC   C15 6972   0.355   4.412   5.039
   60DMPC  H15A 6973   0.271   4.468   5.077
   60DMPC  H15B 6974   0.441   4.477   5.032
   60DMPC  H15C 6975   0.377   4.330   5.105
   60DMPC   C12 6976   0.293   4.470   4.807
   60DMPC  H12A 6977   0.266   4.425   4.713
   60DMPC  H12B 6978   0.384   4.526   4.793
   60DMPC   C11 6979   0.182   4.572   4.844
   60DMPC  H11A 6980   0.175   4.644   4.760
   60DMPC  H11B 6981   0.213   4.627   4.936
   60DMPC     P 6982   6.221   4.588   4.875
   60DMPC   O13 6983   6.239   4.702   4.967
   60DMPC   O14 6984   6.109   4.494   4.902
   60DMPC   O11 6985   6.205   4.645   4.728
   60DMPC   O12 6986   0.061   4.503   4.867
   60DMPC    C1 6987   6.100   4.740   4.701
   60DMPC    HA 6988   6.127   4.840   4.742
   60DMPC    HB 6989   6.004   4.709   4.749
   60DMPC    C2 6990   6.071   4.754   4.549
   60DMPC    HS 6991   5.969   4.795   4.534
   60DMPC   O21 6992   6.087   4.629   4.481
   60DMPC   C21 6993   5.992   4.542   4.508
   60DMPC   O22 6994   5.895   4.562   4.580
   60DMPC   C22 6995   6.019   4.413   4.432
   60DMPC   H2R 6996   6.019   4.331   4.506
   60DMPC   H2S 6997   6.119   4.415   4.384
   60DMPC    C3 6998   6.169   4.857   4.484
   60DMPC    HX 6999   6.273   4.829   4.514
   60DMPC    HY 7000   6.146   4.956   4.531
   60DMPC   O31 7001   6.160   4.858   4.340
   60DMPC   C31 7002   6.172   4.976   4.282
   60DMPC   O32 7003   6.183   5.083   4.340
   60DMPC   C32 7004   6.171   4.960   4.130
   60DMPC   H2X 7005   6.120   5.049   4.087
   60DMPC   H2Y 7006   6.115   4.869   4.101
   60DMPC   C23 7007   5.910   4.387   4.327
   60DMPC   H3R 7008   5.812   4.431   4.356
   60DMPC   H3S 7009   5.895   4.276   4.323
   60DMPC   C24 7010   5.948   4.430   4.184
   60DMPC   H4R 7011   5.873   4.388   4.113
   60DMPC   H4S 7012   6.046   4.383   4.161
   60DMPC   C25 7013   5.959   4.581   4.161
   60DMPC   H5R 7014   6.010   4.598   4.064
   60DMPC   H5S 7015   6.023   4.627   4.239
   60DMPC   C26 7016   5.823   4.653   4.156
   60DMPC   H6R 7017   5.770   4.635   4.251
   60DMPC   H6S 7018   5.764   4.608   4.074
   60DMPC   C27 7019   5.837   4.804   4.133
   60DMPC   H7R 7020   5.897   4.822   4.041
   60DMPC   H7S 7021   5.893   4.848   4.218
   60DMPC   C28 7022   5.703   4.880   4.119
   60DMPC   H8R 7023   5.726   4.988   4.104
   60DMPC   H8S 7024   5.647   4.871   4.214
   60DMPC   C29 7025   5.612   4.834   4.003
   60DMPC   H9R 7026   5.522   4.899   4.003
   60DMPC   H9S 7027   5.579   4.730   4.021
   60DMPC  C210 7028   5.680   4.842   3.865
   60DMPC  H10R 7029   5.767   4.773   3.865
   60DMPC  H10S 7030   5.718   4.945   3.849
   60DMPC  C211 7031   5.587   4.803   3.749
   60DMPC  H11R 7032   5.533   4.710   3.775
   60DMPC  H11S 7033   5.650   4.781   3.660
   60DMPC  C212 7034   5.487   4.913   3.711
   60DMPC  H12R 7035   5.543   5.005   3.682
   60DMPC  H12S 7036   5.424   4.937   3.799
   60DMPC  C213 7037   5.396   4.872   3.594
   60DMPC  H13R 7038   5.341   4.780   3.623
   60DMPC  H13S 7039   5.459   4.847   3.506
   60DMPC  C214 7040   5.295   4.980   3.554
   60DMPC  H14R 7041   5.348   5.072   3.520
   60DMPC  H14S 7042   5.230   5.006   3.640
   60DMPC  H14T 7043   5.231   4.943   3.471
   60DMPC   C33 7044   0.024   4.954   4.077
   60DMPC   H3X 7045   0.070   4.857   4.107
   60DMPC   H3Y 7046   0.084   5.035   4.122
   60DMPC   C34 7047   0.031   4.970   3.925
   60DMPC   H4X 7048   6.269   5.064   3.896
   60DMPC   H4Y 7049   6.268   4.885   3.877
   60DMPC   C35 7050   0.174   4.976   3.871
   60DMPC   H5X 7051   0.227   4.882   3.900
   60DMPC   H5Y 7052   0.227   5.061   3.920
   60DMPC   C36 7053   0.182   4.993   3.719
   60DMPC   H6X 7054   0.124   5.084   3.689
   60DMPC   H6Y 7055   0.134   4.905   3.671
   60DMPC   C37 7056   0.325   5.007   3.666
   60DMPC   H7X 7057   0.385   4.923   3.707
   60DMPC   H7Y 7058   0.370   5.102   3.705
   60DMPC   C38 7059   0.334   5.004   3.513
   60DMPC   H8X 7060   0.278   5.089   3.470
   60DMPC   H8Y 7061   0.285   4.910   3.479
   60DMPC   C39 7062   0.478   5.004   3.460
   60DMPC   H9X 7063   0.476   4.964   3.356
   60DMPC   H9Y 7064   0.540   4.935   3.520
   60DMPC  C310 7065   0.543   5.143   3.455
   60DMPC  H10X 7066   0.550   5.185   3.558
   60DMPC  H10Y 7067   0.477   5.209   3.395
   60DMPC  C311 7068   0.683   5.141   3.391
   60DMPC  H11X 7069   0.678   5.081   3.297
   60DMPC  H11Y 7070   0.754   5.091   3.460
   60DMPC  C312 7071   0.736   5.280   3.356
   60DMPC  H12X 7072   0.745   5.341   3.448
   60DMPC  H12Y 7073   0.663   5.330   3.288
   60DMPC  C313 7074   0.873   5.275   3.286
   60DMPC  H13X 7075   0.865   5.208   3.197
   60DMPC  H13Y 7076   0.947   5.230   3.355
   60DMPC  C314 7077   0.925   5.412   3.239
   60DMPC  H14X 7078   0.935   5.481   3.325
   60DMPC  H14Y 7079   0.854   5.457   3.166
   60DMPC  H14Z 7080   1.024   5.401   3.190
   61DMPC     N 7081   1.952   2.544   5.162
   61DMPC   C13 7082   1.966   2.688   5.128
   61DMPC  H13A 7083   1.929   2.749   5.209
   61DMPC  H13B 7084   1.910   2.709   5.037
   61DMPC  H13C 7085   2.071   2.710   5.111
   61DMPC   C14 7086   2.035   2.513   5.282
   61DMPC  H14A 7087   2.139   2.530   5.258
   61DMPC  H14B 7088   2.021   2.409   5.309
   61DMPC  H14C 7089   2.006   2.576   5.365
   61DMPC   C15 7090   1.810   2.515   5.195
   61DMPC  H15A 7091   1.800   2.411   5.223
   61DMPC  H15B 7092   1.748   2.534   5.109
   61DMPC  H15C 7093   1.777   2.577   5.277
   61DMPC   C12 7094   1.993   2.457   5.046
   61DMPC  H12A 7095   1.914   2.462   4.972
   61DMPC  H12B 7096   1.997   2.355   5.081
   61DMPC   C11 7097   2.125   2.490   4.973
   61DMPC  H11A 7098   2.113   2.586   4.918
   61DMPC  H11B 7099   2.139   2.411   4.895
   61DMPC     P 7100   2.363   2.425   5.037
   61DMPC   O13 7101   2.333   2.280   5.035
   61DMPC   O14 7102   2.466   2.471   5.132
   61DMPC   O11 7103   2.400   2.476   4.891
   61DMPC   O12 7104   2.231   2.503   5.066
   61DMPC    C1 7105   2.484   2.590   4.870
   61DMPC    HA 7106   2.520   2.588   4.765
   61DMPC    HB 7107   2.574   2.587   4.936
   61DMPC    C2 7108   2.414   2.729   4.891
   61DMPC    HS 7109   2.369   2.727   4.993
   61DMPC   O21 7110   2.313   2.744   4.790
   61DMPC   C21 7111   2.227   2.842   4.816
   61DMPC   O22 7112   2.223   2.903   4.921
   61DMPC   C22 7113   2.136   2.868   4.695
   61DMPC   H2R 7114   2.108   2.976   4.695
   61DMPC   H2S 7115   2.044   2.808   4.707
   61DMPC    C3 7116   2.519   2.845   4.887
   61DMPC    HX 7117   2.596   2.820   4.964
   61DMPC    HY 7118   2.472   2.940   4.922
   61DMPC   O31 7119   2.586   2.857   4.759
   61DMPC   C31 7120   2.542   2.956   4.681
   61DMPC   O32 7121   2.455   3.035   4.710
   61DMPC   C32 7122   2.615   2.953   4.546
   61DMPC   H2X 7123   2.611   2.849   4.507
   61DMPC   H2Y 7124   2.720   2.983   4.561
   61DMPC   C23 7125   2.203   2.832   4.561
   61DMPC   H3R 7126   2.237   2.726   4.563
   61DMPC   H3S 7127   2.293   2.896   4.547
   61DMPC   C24 7128   2.111   2.849   4.439
   61DMPC   H4R 7129   2.069   2.952   4.437
   61DMPC   H4S 7130   2.027   2.777   4.448
   61DMPC   C25 7131   2.186   2.823   4.307
   61DMPC   H5R 7132   2.243   2.728   4.317
   61DMPC   H5S 7133   2.259   2.905   4.289
   61DMPC   C26 7134   2.094   2.809   4.184
   61DMPC   H6R 7135   2.044   2.906   4.165
   61DMPC   H6S 7136   2.016   2.733   4.205
   61DMPC   C27 7137   2.170   2.766   4.058
   61DMPC   H7R 7138   2.254   2.838   4.039
   61DMPC   H7S 7139   2.215   2.666   4.075
   61DMPC   C28 7140   2.081   2.761   3.933
   61DMPC   H8R 7141   2.044   2.863   3.910
   61DMPC   H8S 7142   1.993   2.697   3.954
   61DMPC   C29 7143   2.153   2.705   3.809
   61DMPC   H9R 7144   2.183   2.600   3.830
   61DMPC   H9S 7145   2.245   2.764   3.789
   61DMPC  C210 7146   2.064   2.707   3.683
   61DMPC  H10R 7147   2.044   2.813   3.656
   61DMPC  H10S 7148   1.967   2.659   3.709
   61DMPC  C211 7149   2.124   2.634   3.562
   61DMPC  H11R 7150   2.133   2.526   3.586
   61DMPC  H11S 7151   2.226   2.674   3.544
   61DMPC  C212 7152   2.042   2.651   3.433
   61DMPC  H12R 7153   2.092   2.595   3.351
   61DMPC  H12S 7154   2.042   2.759   3.405
   61DMPC  C213 7155   1.896   2.604   3.443
   61DMPC  H13R 7156   1.894   2.497   3.473
   61DMPC  H13S 7157   1.844   2.662   3.524
   61DMPC  C214 7158   1.815   2.622   3.314
   61DMPC  H14R 7159   1.710   2.589   3.330
   61DMPC  H14S 7160   1.860   2.561   3.233
   61DMPC  H14T 7161   1.815   2.728   3.283
   61DMPC   C33 7162   2.546   3.051   4.449
   61DMPC   H3X 7163   2.558   3.155   4.486
   61DMPC   H3Y 7164   2.437   3.029   4.444
   61DMPC   C34 7165   2.600   3.044   4.305
   61DMPC   H4X 7166   2.707   3.075   4.303
   61DMPC   H4Y 7167   2.543   3.117   4.243
   61DMPC   C35 7168   2.588   2.905   4.241
   61DMPC   H5X 7169   2.483   2.869   4.253
   61DMPC   H5Y 7170   2.654   2.834   4.295
   61DMPC   C36 7171   2.623   2.901   4.092
   61DMPC   H6X 7172   2.728   2.937   4.079
   61DMPC   H6Y 7173   2.556   2.969   4.036
   61DMPC   C37 7174   2.611   2.759   4.034
   61DMPC   H7X 7175   2.507   2.724   4.049
   61DMPC   H7Y 7176   2.679   2.692   4.091
   61DMPC   C38 7177   2.648   2.751   3.885
   61DMPC   H8X 7178   2.749   2.793   3.871
   61DMPC   H8Y 7179   2.576   2.812   3.827
   61DMPC   C39 7180   2.648   2.607   3.830
   61DMPC   H9X 7181   2.725   2.548   3.884
   61DMPC   H9Y 7182   2.678   2.612   3.723
   61DMPC  C310 7183   2.513   2.535   3.842
   61DMPC  H10X 7184   2.433   2.596   3.795
   61DMPC  H10Y 7185   2.488   2.523   3.950
   61DMPC  C311 7186   2.513   2.394   3.779
   61DMPC  H11X 7187   2.422   2.340   3.813
   61DMPC  H11Y 7188   2.601   2.339   3.818
   61DMPC  C312 7189   2.514   2.396   3.625
   61DMPC  H12X 7190   2.600   2.455   3.589
   61DMPC  H12Y 7191   2.421   2.446   3.590
   61DMPC  C313 7192   2.522   2.256   3.562
   61DMPC  H13X 7193   2.505   2.266   3.453
   61DMPC  H13Y 7194   2.440   2.194   3.604
   61DMPC  C314 7195   2.656   2.184   3.584
   61DMPC  H14X 7196   2.655   2.086   3.531
   61DMPC  H14Y 7197   2.674   2.165   3.692
   61DMPC  H14Z 7198   2.739   2.245   3.544
   62DMPC     N 7199   0.674   5.129   5.073
   62DMPC   C13 7200   0.801   5.167   5.143
   62DMPC  H13A 7201   0.799   5.132   5.245
   62DMPC  H13B 7202   0.813   5.274   5.142
   62DMPC  H13C 7203   0.884   5.120   5.092
   62DMPC   C14 7204   0.560   5.193   5.143
   62DMPC  H14A 7205   0.552   5.155   5.244
   62DMPC  H14B 7206   0.468   5.172   5.091
   62DMPC  H14C 7207   0.574   5.300   5.146
   62DMPC   C15 7208   0.683   5.180   4.934
   62DMPC  H15A 7209   0.771   5.139   4.886
   62DMPC  H15B 7210   0.688   5.288   4.934
   62DMPC  H15C 7211   0.596   5.147   4.879
   62DMPC   C12 7212   0.661   4.978   5.076
   62DMPC  H12A 7213   0.667   4.947   5.179
   62DMPC  H12B 7214   0.748   4.938   5.025
   62DMPC   C11 7215   0.535   4.913   5.013
   62DMPC  H11A 7216   0.446   4.945   5.071
   62DMPC  H11B 7217   0.547   4.802   5.024
   62DMPC     P 7218   0.406   4.886   4.796
   62DMPC   O13 7219   0.398   4.954   4.665
   62DMPC   O14 7220   0.284   4.890   4.880
   62DMPC   O11 7221   0.450   4.735   4.775
   62DMPC   O12 7222   0.524   4.950   4.876
   62DMPC    C1 7223   0.541   4.693   4.672
   62DMPC    HA 7224   0.578   4.592   4.699
   62DMPC    HB 7225   0.630   4.760   4.666
   62DMPC    C2 7226   0.476   4.682   4.530
   62DMPC    HS 7227   0.460   4.787   4.496
   62DMPC   O21 7228   0.352   4.608   4.541
   62DMPC   C21 7229   0.260   4.647   4.455
   62DMPC   O22 7230   0.268   4.745   4.382
   62DMPC   C22 7231   0.139   4.554   4.460
   62DMPC   H2R 7232   0.052   4.604   4.413
   62DMPC   H2S 7233   0.113   4.533   4.566
   62DMPC    C3 7234   0.571   4.612   4.427
   62DMPC    HX 7235   0.582   4.507   4.460
   62DMPC    HY 7236   0.672   4.658   4.433
   62DMPC   O31 7237   0.517   4.613   4.293
   62DMPC   C31 7238   0.541   4.725   4.225
   62DMPC   O32 7239   0.611   4.817   4.263
   62DMPC   C32 7240   0.463   4.721   4.093
   62DMPC   H2X 7241   0.358   4.753   4.115
   62DMPC   H2Y 7242   0.461   4.618   4.053
   62DMPC   C23 7243   0.171   4.421   4.388
   62DMPC   H3R 7244   0.083   4.354   4.401
   62DMPC   H3S 7245   0.257   4.372   4.437
   62DMPC   C24 7246   0.200   4.433   4.237
   62DMPC   H4R 7247   0.221   4.331   4.198
   62DMPC   H4S 7248   0.292   4.494   4.223
   62DMPC   C25 7249   0.087   4.494   4.152
   62DMPC   H5R 7250   0.061   4.595   4.191
   62DMPC   H5S 7251   6.288   4.429   4.160
   62DMPC   C26 7252   0.127   4.509   4.004
   62DMPC   H6R 7253   0.158   4.410   3.964
   62DMPC   H6S 7254   0.216   4.576   3.999
   62DMPC   C27 7255   0.017   4.567   3.913
   62DMPC   H7R 7256   0.064   4.599   3.817
   62DMPC   H7S 7257   6.266   4.657   3.962
   62DMPC   C28 7258   6.196   4.468   3.881
   62DMPC   H8R 7259   6.152   4.432   3.977
   62DMPC   H8S 7260   6.237   4.379   3.828
   62DMPC   C29 7261   6.083   4.529   3.797
   62DMPC   H9R 7262   6.118   4.545   3.693
   62DMPC   H9S 7263   6.057   4.629   3.839
   62DMPC  C210 7264   5.955   4.444   3.794
   62DMPC  H10R 7265   5.919   4.432   3.899
   62DMPC  H10S 7266   5.979   4.343   3.755
   62DMPC  C211 7267   5.843   4.508   3.711
   62DMPC  H11R 7268   5.867   4.497   3.603
   62DMPC  H11S 7269   5.840   4.617   3.734
   62DMPC  C212 7270   5.703   4.450   3.739
   62DMPC  H12R 7271   5.630   4.501   3.674
   62DMPC  H12S 7272   5.676   4.472   3.845
   62DMPC  C213 7273   5.692   4.298   3.717
   62DMPC  H13R 7274   5.760   4.245   3.787
   62DMPC  H13S 7275   5.725   4.275   3.613
   62DMPC  C214 7276   5.550   4.244   3.737
   62DMPC  H14R 7277   5.479   4.293   3.666
   62DMPC  H14S 7278   5.515   4.264   3.840
   62DMPC  H14T 7279   5.547   4.135   3.719
   62DMPC   C33 7280   0.525   4.817   3.990
   62DMPC   H3X 7281   0.539   4.918   4.032
   62DMPC   H3Y 7282   0.452   4.826   3.906
   62DMPC   C34 7283   0.656   4.765   3.930
   62DMPC   H4X 7284   0.641   4.661   3.894
   62DMPC   H4Y 7285   0.735   4.763   4.008
   62DMPC   C35 7286   0.705   4.851   3.812
   62DMPC   H5X 7287   0.723   4.955   3.846
   62DMPC   H5Y 7288   0.624   4.854   3.736
   62DMPC   C36 7289   0.832   4.797   3.745
   62DMPC   H6X 7290   0.817   4.689   3.722
   62DMPC   H6Y 7291   0.917   4.805   3.816
   62DMPC   C37 7292   0.865   4.871   3.615
   62DMPC   H7X 7293   0.879   4.979   3.638
   62DMPC   H7Y 7294   0.779   4.861   3.546
   62DMPC   C38 7295   0.992   4.819   3.545
   62DMPC   H8X 7296   0.981   4.710   3.524
   62DMPC   H8Y 7297   1.078   4.831   3.614
   62DMPC   C39 7298   1.024   4.894   3.415
   62DMPC   H9X 7299   1.127   4.869   3.383
   62DMPC   H9Y 7300   1.022   5.003   3.437
   62DMPC  C310 7301   0.927   4.869   3.298
   62DMPC  H10X 7302   0.952   4.941   3.216
   62DMPC  H10Y 7303   0.823   4.891   3.330
   62DMPC  C311 7304   0.931   4.727   3.239
   62DMPC  H11X 7305   0.852   4.721   3.161
   62DMPC  H11Y 7306   0.905   4.653   3.317
   62DMPC  C312 7307   1.066   4.689   3.176
   62DMPC  H12X 7308   1.142   4.682   3.257
   62DMPC  H12Y 7309   1.098   4.770   3.107
   62DMPC  C313 7310   1.065   4.556   3.099
   62DMPC  H13X 7311   1.029   4.476   3.167
   62DMPC  H13Y 7312   1.170   4.532   3.071
   62DMPC  C314 7313   0.981   4.555   2.971
   62DMPC  H14X 7314   1.013   4.637   2.903
   62DMPC  H14Y 7315   0.873   4.570   2.995
   62DMPC  H14Z 7316   0.992   4.458   2.918
   63DMPC     N 7317   0.601   6.308   5.132
   63DMPC   C13 7318   0.497   0.082   5.148
   63DMPC  H13A 7319   0.407   0.053   5.096
   63DMPC  H13B 7320   0.534   0.176   5.109
   63DMPC  H13C 7321   0.476   0.096   5.253
   63DMPC   C14 7322   0.548   6.182   5.193
   63DMPC  H14A 7323   0.529   6.199   5.298
   63DMPC  H14B 7324   0.620   6.102   5.182
   63DMPC  H14C 7325   0.456   6.155   5.144
   63DMPC   C15 7326   0.628   6.284   4.988
   63DMPC  H15A 7327   0.664   0.045   4.942
   63DMPC  H15B 7328   0.536   6.254   4.939
   63DMPC  H15C 7329   0.701   6.206   4.976
   63DMPC   C12 7330   0.729   0.014   5.204
   63DMPC  H12A 7331   0.796   6.260   5.197
   63DMPC  H12B 7332   0.704   0.028   5.309
   63DMPC   C11 7333   0.806   0.140   5.158
   63DMPC  H11A 7334   0.840   0.125   5.053
   63DMPC  H11B 7335   0.897   0.146   5.223
   63DMPC     P 7336   0.797   0.392   5.141
   63DMPC   O13 7337   0.925   0.395   5.216
   63DMPC   O14 7338   0.704   0.506   5.164
   63DMPC   O11 7339   0.828   0.381   4.987
   63DMPC   O12 7340   0.724   0.256   5.170
   63DMPC    C1 7341   0.732   0.333   4.891
   63DMPC    HA 7342   0.631   0.314   4.936
   63DMPC    HB 7343   0.767   0.237   4.849
   63DMPC    C2 7344   0.710   0.434   4.774
   63DMPC    HS 7345   0.637   0.390   4.702
   63DMPC   O21 7346   0.834   0.466   4.709
   63DMPC   C21 7347   0.875   0.372   4.627
   63DMPC   O22 7348   0.816   0.267   4.606
   63DMPC   C22 7349   1.002   0.416   4.556
   63DMPC   H2R 7350   1.077   0.335   4.567
   63DMPC   H2S 7351   1.043   0.509   4.602
   63DMPC    C3 7352   0.646   0.566   4.826
   63DMPC    HX 7353   0.710   0.609   4.906
   63DMPC    HY 7354   0.550   0.539   4.874
   63DMPC   O31 7355   0.620   0.659   4.718
   63DMPC   C31 7356   0.720   0.743   4.691
   63DMPC   O32 7357   0.820   0.757   4.758
   63DMPC   C32 7358   0.691   0.815   4.560
   63DMPC   H2X 7359   0.619   0.898   4.579
   63DMPC   H2Y 7360   0.645   0.743   4.489
   63DMPC   C23 7361   0.972   0.439   4.407
   63DMPC   H3R 7362   0.899   0.522   4.397
   63DMPC   H3S 7363   0.927   0.347   4.363
   63DMPC   C24 7364   1.098   0.474   4.325
   63DMPC   H4R 7365   1.168   0.387   4.328
   63DMPC   H4S 7366   1.148   0.561   4.371
   63DMPC   C25 7367   1.065   0.508   4.178
   63DMPC   H5R 7368   1.001   0.599   4.176
   63DMPC   H5S 7369   1.008   0.424   4.134
   63DMPC   C26 7370   1.191   0.533   4.093
   63DMPC   H6R 7371   1.251   0.439   4.091
   63DMPC   H6S 7372   1.252   0.613   4.140
   63DMPC   C27 7373   1.157   0.574   3.949
   63DMPC   H7R 7374   1.103   0.670   3.950
   63DMPC   H7S 7375   1.090   0.497   3.905
   63DMPC   C28 7376   1.282   0.588   3.860
   63DMPC   H8R 7377   1.332   0.489   3.852
   63DMPC   H8S 7378   1.352   0.659   3.908
   63DMPC   C29 7379   1.253   0.640   3.718
   63DMPC   H9R 7380   1.350   0.647   3.664
   63DMPC   H9S 7381   1.210   0.742   3.725
   63DMPC  C210 7382   1.156   0.552   3.636
   63DMPC  H10R 7383   1.057   0.553   3.686
   63DMPC  H10S 7384   1.193   0.447   3.636
   63DMPC  C211 7385   1.136   0.600   3.491
   63DMPC  H11R 7386   1.099   0.705   3.493
   63DMPC  H11S 7387   1.056   0.538   3.444
   63DMPC  C212 7388   1.261   0.596   3.401
   63DMPC  H12R 7389   1.335   0.671   3.438
   63DMPC  H12S 7390   1.231   0.627   3.299
   63DMPC  C213 7391   1.330   0.459   3.393
   63DMPC  H13R 7392   1.375   0.436   3.492
   63DMPC  H13S 7393   1.414   0.467   3.320
   63DMPC  C214 7394   1.239   0.343   3.351
   63DMPC  H14R 7395   1.157   0.329   3.424
   63DMPC  H14S 7396   1.298   0.249   3.346
   63DMPC  H14T 7397   1.195   0.362   3.251
   63DMPC   C33 7398   0.822   0.871   4.503
   63DMPC   H3X 7399   0.896   0.788   4.494
   63DMPC   H3Y 7400   0.863   0.947   4.573
   63DMPC   C34 7401   0.808   0.936   4.364
   63DMPC   H4X 7402   0.908   0.972   4.333
   63DMPC   H4Y 7403   0.740   1.023   4.371
   63DMPC   C35 7404   0.756   0.840   4.255
   63DMPC   H5X 7405   0.650   0.815   4.275
   63DMPC   H5Y 7406   0.816   0.746   4.260
   63DMPC   C36 7407   0.769   0.898   4.114
   63DMPC   H6X 7408   0.875   0.922   4.094
   63DMPC   H6Y 7409   0.711   0.993   4.108
   63DMPC   C37 7410   0.718   0.802   4.005
   63DMPC   H7X 7411   0.611   0.780   4.022
   63DMPC   H7Y 7412   0.775   0.706   4.013
   63DMPC   C38 7413   0.736   0.858   3.863
   63DMPC   H8X 7414   0.844   0.883   3.850
   63DMPC   H8Y 7415   0.678   0.953   3.854
   63DMPC   C39 7416   0.692   0.761   3.753
   63DMPC   H9X 7417   0.585   0.735   3.769
   63DMPC   H9Y 7418   0.751   0.667   3.762
   63DMPC  C310 7419   0.709   0.817   3.611
   63DMPC  H10X 7420   0.643   0.906   3.599
   63DMPC  H10Y 7421   0.675   0.739   3.539
   63DMPC  C311 7422   0.854   0.855   3.578
   63DMPC  H11X 7423   0.919   0.770   3.605
   63DMPC  H11Y 7424   0.884   0.943   3.639
   63DMPC  C312 7425   0.879   0.890   3.430
   63DMPC  H12X 7426   0.854   0.802   3.367
   63DMPC  H12Y 7427   0.987   0.912   3.417
   63DMPC  C313 7428   0.799   1.011   3.380
   63DMPC  H13X 7429   0.815   1.096   3.451
   63DMPC  H13Y 7430   0.690   0.987   3.382
   63DMPC  C314 7431   0.837   1.058   3.240
   63DMPC  H14X 7432   0.775   1.145   3.210
   63DMPC  H14Y 7433   0.821   0.976   3.166
   63DMPC  H14Z 7434   0.944   1.088   3.236
   64DMPC     N 7435   0.902   4.993   4.324
   64DMPC   C13 7436   0.853   4.903   4.431
   64DMPC  H13A 7437   0.757   4.862   4.401
   64DMPC  H13B 7438   0.841   4.959   4.523
   64DMPC  H13C 7439   0.924   4.823   4.447
   64DMPC   C14 7440   0.803   5.104   4.309
   64DMPC  H14A 7441   0.794   5.156   4.404
   64DMPC  H14B 7442   0.707   5.063   4.284
   64DMPC  H14C 7443   0.836   5.173   4.233
   64DMPC   C15 7444   1.033   5.051   4.365
   64DMPC  H15A 7445   1.023   5.101   4.460
   64DMPC  H15B 7446   1.069   5.120   4.291
   64DMPC  H15C 7447   1.105   4.971   4.375
   64DMPC   C12 7448   0.912   4.920   4.192
   64DMPC  H12A 7449   0.963   4.985   4.122
   64DMPC  H12B 7450   0.811   4.904   4.156
   64DMPC   C11 7451   0.982   4.782   4.192
   64DMPC  H11A 7452   0.993   4.749   4.086
   64DMPC  H11B 7453   0.915   4.710   4.245
   64DMPC     P 7454   1.177   4.659   4.297
   64DMPC   O13 7455   1.094   4.596   4.403
   64DMPC   O14 7456   1.319   4.683   4.329
   64DMPC   O11 7457   1.169   4.570   4.167
   64DMPC   O12 7458   1.110   4.793   4.254
   64DMPC    C1 7459   1.184   4.427   4.176
   64DMPC    HA 7460   1.082   4.382   4.186
   64DMPC    HB 7461   1.244   4.395   4.265
   64DMPC    C2 7462   1.252   4.360   4.051
   64DMPC    HS 7463   1.361   4.347   4.073
   64DMPC   O21 7464   1.229   4.438   3.933
   64DMPC   C21 7465   1.316   4.537   3.921
   64DMPC   O22 7466   1.417   4.550   3.987
   64DMPC   C22 7467   1.266   4.633   3.814
   64DMPC   H2R 7468   1.157   4.650   3.826
   64DMPC   H2S 7469   1.284   4.587   3.714
   64DMPC    C3 7470   1.197   4.216   4.028
   64DMPC    HX 7471   1.087   4.226   4.012
   64DMPC    HY 7472   1.210   4.154   4.119
   64DMPC   O31 7473   1.253   4.151   3.911
   64DMPC   C31 7474   1.370   4.092   3.931
   64DMPC   O32 7475   1.431   4.091   4.037
   64DMPC   C32 7476   1.414   4.024   3.802
   64DMPC   H2X 7477   1.325   4.001   3.740
   64DMPC   H2Y 7478   1.465   3.928   3.827
   64DMPC   C23 7479   1.340   4.768   3.822
   64DMPC   H3R 7480   1.304   4.829   3.736
   64DMPC   H3S 7481   1.449   4.754   3.809
   64DMPC   C24 7482   1.313   4.846   3.952
   64DMPC   H4R 7483   1.389   4.817   4.027
   64DMPC   H4S 7484   1.213   4.818   3.992
   64DMPC   C25 7485   1.316   4.999   3.934
   64DMPC   H5R 7486   1.402   5.028   3.871
   64DMPC   H5S 7487   1.329   5.045   4.034
   64DMPC   C26 7488   1.185   5.053   3.873
   64DMPC   H6R 7489   1.101   5.020   3.938
   64DMPC   H6S 7490   1.170   5.009   3.772
   64DMPC   C27 7491   1.183   5.207   3.862
   64DMPC   H7R 7492   1.265   5.238   3.794
   64DMPC   H7S 7493   1.201   5.252   3.962
   64DMPC   C28 7494   1.050   5.262   3.806
   64DMPC   H8R 7495   1.030   5.214   3.708
   64DMPC   H8S 7496   1.062   5.371   3.789
   64DMPC   C29 7497   0.930   5.239   3.899
   64DMPC   H9R 7498   0.951   5.287   3.997
   64DMPC   H9S 7499   0.915   5.130   3.916
   64DMPC  C210 7500   0.799   5.297   3.843
   64DMPC  H10R 7501   0.777   5.248   3.745
   64DMPC  H10S 7502   0.813   5.406   3.823
   64DMPC  C211 7503   0.679   5.278   3.937
   64DMPC  H11R 7504   0.700   5.330   4.033
   64DMPC  H11S 7505   0.667   5.170   3.958
   64DMPC  C212 7506   0.548   5.332   3.877
   64DMPC  H12R 7507   0.527   5.279   3.782
   64DMPC  H12S 7508   0.562   5.440   3.853
   64DMPC  C213 7509   0.427   5.317   3.970
   64DMPC  H13R 7510   0.448   5.372   4.065
   64DMPC  H13S 7511   0.414   5.210   3.995
   64DMPC  C214 7512   0.297   5.371   3.911
   64DMPC  H14R 7513   0.307   5.479   3.886
   64DMPC  H14S 7514   0.213   5.358   3.982
   64DMPC  H14T 7515   0.272   5.316   3.817
   64DMPC   C33 7516   1.509   4.115   3.722
   64DMPC   H3X 7517   1.610   4.114   3.769
   64DMPC   H3Y 7518   1.471   4.220   3.721
   64DMPC   C34 7519   1.520   4.068   3.576
   64DMPC   H4X 7520   1.422   4.083   3.526
   64DMPC   H4Y 7521   1.541   3.959   3.576
   64DMPC   C35 7522   1.629   4.139   3.494
   64DMPC   H5X 7523   1.727   4.125   3.545
   64DMPC   H5Y 7524   1.608   4.248   3.489
   64DMPC   C36 7525   1.639   4.083   3.351
   64DMPC   H6X 7526   1.544   4.103   3.297
   64DMPC   H6Y 7527   1.651   3.972   3.357
   64DMPC   C37 7528   1.757   4.139   3.271
   64DMPC   H7X 7529   1.851   4.119   3.327
   64DMPC   H7Y 7530   1.746   4.250   3.261
   64DMPC   C38 7531   1.768   4.077   3.131
   64DMPC   H8X 7532   1.674   4.095   3.075
   64DMPC   H8Y 7533   1.780   3.967   3.142
   64DMPC   C39 7534   1.886   4.129   3.046
   64DMPC   H9X 7535   1.869   4.236   3.021
   64DMPC   H9Y 7536   1.888   4.071   2.951
   64DMPC  C310 7537   2.023   4.116   3.115
   64DMPC  H10X 7538   2.027   4.017   3.166
   64DMPC  H10Y 7539   2.033   4.194   3.193
   64DMPC  C311 7540   2.143   4.124   3.019
   64DMPC  H11X 7541   2.139   4.037   2.949
   64DMPC  H11Y 7542   2.236   4.115   3.078
   64DMPC  C312 7543   2.150   4.252   2.935
   64DMPC  H12X 7544   2.149   4.341   3.003
   64DMPC  H12Y 7545   2.060   4.259   2.870
   64DMPC  C313 7546   2.275   4.258   2.847
   64DMPC  H13X 7547   2.280   4.164   2.786
   64DMPC  H13Y 7548   2.365   4.259   2.912
   64DMPC  C314 7549   2.281   4.378   2.752
   64DMPC  H14X 7550   2.375   4.376   2.693
   64DMPC  H14Y 7551   2.277   4.472   2.809
   64DMPC  H14Z 7552   2.195   4.375   2.681
   65DMPC     N 7553   5.611   2.082   1.176
   65DMPC   C13 7554   5.609   2.058   1.029
   65DMPC  H13A 7555   5.513   2.086   0.990
   65DMPC  H13B 7556   5.625   1.953   1.010
   65DMPC  H13C 7557   5.686   2.116   0.980
   65DMPC   C14 7558   5.745   2.044   1.231
   65DMPC  H14A 7559   5.822   2.106   1.187
   65DMPC  H14B 7560   5.766   1.940   1.208
   65DMPC  H14C 7561   5.747   2.058   1.338
   65DMPC   C15 7562   5.591   2.227   1.200
   65DMPC  H15A 7563   5.493   2.256   1.164
   65DMPC  H15B 7564   5.666   2.285   1.148
   65DMPC  H15C 7565   5.599   2.249   1.306
   65DMPC   C12 7566   5.501   2.007   1.247
   65DMPC  H12A 7567   5.407   2.038   1.202
   65DMPC  H12B 7568   5.500   2.040   1.350
   65DMPC   C11 7569   5.506   1.853   1.246
   65DMPC  H11A 7570   5.419   1.816   1.305
   65DMPC  H11B 7571   5.599   1.822   1.299
   65DMPC     P 7572   5.548   1.658   1.092
   65DMPC   O13 7573   5.689   1.650   1.134
   65DMPC   O14 7574   5.517   1.616   0.953
   65DMPC   O11 7575   5.458   1.573   1.192
   65DMPC   O12 7576   5.498   1.804   1.113
   65DMPC    C1 7577   5.320   1.552   1.158
   65DMPC    HA 7578   5.312   1.489   1.066
   65DMPC    HB 7579   5.270   1.648   1.136
   65DMPC    C2 7580   5.239   1.477   1.270
   65DMPC    HS 7581   5.131   1.475   1.241
   65DMPC   O21 7582   5.256   1.540   1.398
   65DMPC   C21 7583   5.189   1.653   1.407
   65DMPC   O22 7584   5.126   1.706   1.316
   65DMPC   C22 7585   5.201   1.710   1.548
   65DMPC   H2R 7586   5.294   1.674   1.596
   65DMPC   H2S 7587   5.114   1.674   1.606
   65DMPC    C3 7588   5.285   1.328   1.277
   65DMPC    HX 7589   5.396   1.326   1.270
   65DMPC    HY 7590   5.248   1.279   1.185
   65DMPC   O31 7591   5.231   1.256   1.391
   65DMPC   C31 7592   5.320   1.223   1.485
   65DMPC   O32 7593   5.439   1.250   1.483
   65DMPC   C32 7594   5.252   1.141   1.594
   65DMPC   H2X 7595   5.329   1.102   1.663
   65DMPC   H2Y 7596   5.202   1.054   1.546
   65DMPC   C23 7597   5.202   1.864   1.541
   65DMPC   H3R 7598   5.114   1.900   1.483
   65DMPC   H3S 7599   5.293   1.897   1.487
   65DMPC   C24 7600   5.198   1.934   1.677
   65DMPC   H4R 7601   5.204   2.043   1.659
   65DMPC   H4S 7602   5.287   1.904   1.737
   65DMPC   C25 7603   5.071   1.905   1.758
   65DMPC   H5R 7604   5.070   1.797   1.786
   65DMPC   H5S 7605   4.981   1.925   1.696
   65DMPC   C26 7606   5.059   1.986   1.888
   65DMPC   H6R 7607   5.154   1.977   1.945
   65DMPC   H6S 7608   4.978   1.942   1.950
   65DMPC   C27 7609   5.027   2.135   1.866
   65DMPC   H7R 7610   4.936   2.145   1.804
   65DMPC   H7S 7611   5.111   2.183   1.811
   65DMPC   C28 7612   5.006   2.210   1.998
   65DMPC   H8R 7613   5.091   2.188   2.067
   65DMPC   H8S 7614   4.913   2.173   2.047
   65DMPC   C29 7615   4.996   2.362   1.981
   65DMPC   H9R 7616   4.910   2.385   1.915
   65DMPC   H9S 7617   5.088   2.398   1.930
   65DMPC  C210 7618   4.981   2.437   2.114
   65DMPC  H10R 7619   5.068   2.410   2.179
   65DMPC  H10S 7620   4.889   2.404   2.165
   65DMPC  C211 7621   4.978   2.590   2.099
   65DMPC  H11R 7622   5.068   2.622   2.043
   65DMPC  H11S 7623   4.984   2.634   2.201
   65DMPC  C212 7624   4.853   2.644   2.029
   65DMPC  H12R 7625   4.763   2.619   2.091
   65DMPC  H12S 7626   4.841   2.594   1.930
   65DMPC  C213 7627   4.856   2.796   2.004
   65DMPC  H13R 7628   4.761   2.825   1.953
   65DMPC  H13S 7629   4.940   2.818   1.934
   65DMPC  C214 7630   4.873   2.882   2.130
   65DMPC  H14R 7631   4.873   2.990   2.101
   65DMPC  H14S 7632   4.969   2.860   2.181
   65DMPC  H14T 7633   4.789   2.864   2.201
   65DMPC   C33 7634   5.148   1.224   1.671
   65DMPC   H3X 7635   5.090   1.154   1.735
   65DMPC   H3Y 7636   5.076   1.271   1.601
   65DMPC   C34 7637   5.209   1.331   1.763
   65DMPC   H4X 7638   5.262   1.406   1.700
   65DMPC   H4Y 7639   5.283   1.283   1.830
   65DMPC   C35 7640   5.104   1.403   1.849
   65DMPC   H5X 7641   5.052   1.328   1.912
   65DMPC   H5Y 7642   5.028   1.450   1.782
   65DMPC   C36 7643   5.163   1.512   1.939
   65DMPC   H6X 7644   5.210   1.590   1.875
   65DMPC   H6Y 7645   5.243   1.467   2.003
   65DMPC   C37 7646   5.059   1.578   2.031
   65DMPC   H7X 7647   5.017   1.502   2.100
   65DMPC   H7Y 7648   4.976   1.617   1.967
   65DMPC   C38 7649   5.116   1.695   2.113
   65DMPC   H8X 7650   5.159   1.769   2.042
   65DMPC   H8Y 7651   5.198   1.658   2.178
   65DMPC   C39 7652   5.011   1.766   2.201
   65DMPC   H9X 7653   4.983   1.698   2.285
   65DMPC   H9Y 7654   4.920   1.784   2.140
   65DMPC  C310 7655   5.061   1.900   2.256
   65DMPC  H10X 7656   5.082   1.967   2.169
   65DMPC  H10Y 7657   5.156   1.886   2.310
   65DMPC  C311 7658   4.961   1.973   2.348
   65DMPC  H11X 7659   4.860   1.972   2.301
   65DMPC  H11Y 7660   4.994   2.079   2.355
   65DMPC  C312 7661   4.954   1.914   2.489
   65DMPC  H12X 7662   5.055   1.917   2.535
   65DMPC  H12Y 7663   4.923   1.807   2.483
   65DMPC  C313 7664   4.856   1.987   2.584
   65DMPC  H13X 7665   4.858   1.934   2.682
   65DMPC  H13Y 7666   4.753   1.976   2.542
   65DMPC  C314 7667   4.885   2.135   2.607
   65DMPC  H14X 7668   4.875   2.193   2.513
   65DMPC  H14Y 7669   4.988   2.149   2.646
   65DMPC  H14Z 7670   4.814   2.177   2.682
   66DMPC     N 7671   3.091   0.073   1.885
   66DMPC   C13 7672   3.059   0.045   2.028
   66DMPC  H13A 7673   2.957   0.011   2.037
   66DMPC  H13B 7674   3.072   0.136   2.085
   66DMPC  H13C 7675   3.126   6.299   2.066
   66DMPC   C14 7676   3.230   0.125   1.876
   66DMPC  H14A 7677   3.300   0.049   1.905
   66DMPC  H14B 7678   3.241   0.212   1.939
   66DMPC  H14C 7679   3.251   0.154   1.773
   66DMPC   C15 7680   3.080   6.278   1.808
   66DMPC  H15A 7681   2.976   6.249   1.801
   66DMPC  H15B 7682   3.136   6.199   1.855
   66DMPC  H15C 7683   3.118   6.294   1.708
   66DMPC   C12 7684   2.997   0.178   1.831
   66DMPC  H12A 7685   3.020   0.192   1.726
   66DMPC  H12B 7686   3.021   0.271   1.882
   66DMPC   C11 7687   2.845   0.156   1.845
   66DMPC  H11A 7688   2.794   0.240   1.793
   66DMPC  H11B 7689   2.821   0.162   1.954
   66DMPC     P 7690   2.660   6.318   1.811
   66DMPC   O13 7691   2.646   6.176   1.773
   66DMPC   O14 7692   2.572   0.084   1.743
   66DMPC   O11 7693   2.644   0.002   1.967
   66DMPC   O12 7694   2.809   0.030   1.789
   66DMPC    C1 7695   2.705   6.242   2.060
   66DMPC    HA 7696   2.732   6.300   2.151
   66DMPC    HB 7697   2.798   6.196   2.020
   66DMPC    C2 7698   2.607   6.129   2.105
   66DMPC    HS 7699   2.587   6.070   2.012
   66DMPC   O21 7700   2.486   6.191   2.153
   66DMPC   C21 7701   2.383   6.110   2.145
   66DMPC   O22 7702   2.389   5.992   2.113
   66DMPC   C22 7703   2.254   6.186   2.177
   66DMPC   H2R 7704   2.188   6.180   2.088
   66DMPC   H2S 7705   2.275   6.293   2.198
   66DMPC    C3 7706   2.673   6.032   2.209
   66DMPC    HX 7707   2.756   5.980   2.157
   66DMPC    HY 7708   2.599   5.954   2.235
   66DMPC   O31 7709   2.714   6.097   2.332
   66DMPC   C31 7710   2.844   6.121   2.345
   66DMPC   O32 7711   2.929   6.103   2.259
   66DMPC   C32 7712   2.872   6.172   2.486
   66DMPC   H2X 7713   2.777   6.211   2.530
   66DMPC   H2Y 7714   2.946   6.254   2.483
   66DMPC   C23 7715   2.183   6.121   2.297
   66DMPC   H3R 7716   2.174   6.011   2.282
   66DMPC   H3S 7717   2.080   6.162   2.302
   66DMPC   C24 7718   2.253   6.150   2.431
   66DMPC   H4R 7719   2.258   6.260   2.445
   66DMPC   H4S 7720   2.357   6.111   2.427
   66DMPC   C25 7721   2.179   6.088   2.551
   66DMPC   H5R 7722   2.174   5.978   2.541
   66DMPC   H5S 7723   2.074   6.127   2.548
   66DMPC   C26 7724   2.239   6.126   2.687
   66DMPC   H6R 7725   2.155   6.129   2.761
   66DMPC   H6S 7726   2.282   6.229   2.682
   66DMPC   C27 7727   2.343   6.027   2.743
   66DMPC   H7R 7728   2.295   5.927   2.749
   66DMPC   H7S 7729   2.368   6.059   2.847
   66DMPC   C28 7730   2.473   6.015   2.663
   66DMPC   H8R 7731   2.515   6.117   2.646
   66DMPC   H8S 7732   2.452   5.969   2.564
   66DMPC   C29 7733   2.581   5.931   2.734
   66DMPC   H9R 7734   2.608   5.980   2.830
   66DMPC   H9S 7735   2.672   5.928   2.670
   66DMPC  C210 7736   2.537   5.786   2.764
   66DMPC  H10R 7737   2.508   5.737   2.668
   66DMPC  H10S 7738   2.448   5.788   2.830
   66DMPC  C211 7739   2.646   5.702   2.832
   66DMPC  H11R 7740   2.672   5.748   2.930
   66DMPC  H11S 7741   2.737   5.705   2.768
   66DMPC  C212 7742   2.607   5.555   2.854
   66DMPC  H12R 7743   2.694   5.501   2.896
   66DMPC  H12S 7744   2.582   5.509   2.755
   66DMPC  C213 7745   2.487   5.535   2.949
   66DMPC  H13R 7746   2.398   5.587   2.906
   66DMPC  H13S 7747   2.511   5.583   3.046
   66DMPC  C214 7748   2.451   5.388   2.973
   66DMPC  H14R 7749   2.538   5.334   3.016
   66DMPC  H14S 7750   2.423   5.339   2.877
   66DMPC  H14T 7751   2.366   5.381   3.043
   66DMPC   C33 7752   2.923   6.056   2.574
   66DMPC   H3X 7753   2.870   5.962   2.547
   66DMPC   H3Y 7754   2.897   6.078   2.679
   66DMPC   C34 7755   3.075   6.033   2.567
   66DMPC   H4X 7756   3.125   6.114   2.624
   66DMPC   H4Y 7757   3.108   6.041   2.461
   66DMPC   C35 7758   3.120   5.897   2.621
   66DMPC   H5X 7759   3.231   5.894   2.625
   66DMPC   H5Y 7760   3.087   5.818   2.549
   66DMPC   C36 7761   3.063   5.861   2.760
   66DMPC   H6X 7762   2.952   5.859   2.754
   66DMPC   H6Y 7763   3.092   5.940   2.833
   66DMPC   C37 7764   3.111   5.725   2.811
   66DMPC   H7X 7765   3.221   5.729   2.827
   66DMPC   H7Y 7766   3.090   5.648   2.734
   66DMPC   C38 7767   3.042   5.682   2.942
   66DMPC   H8X 7768   2.932   5.681   2.927
   66DMPC   H8Y 7769   3.065   5.758   3.020
   66DMPC   C39 7770   3.088   5.544   2.991
   66DMPC   H9X 7771   3.200   5.544   2.994
   66DMPC   H9Y 7772   3.056   5.467   2.919
   66DMPC  C310 7773   3.038   5.508   3.132
   66DMPC  H10X 7774   3.064   5.590   3.202
   66DMPC  H10Y 7775   3.090   5.416   3.166
   66DMPC  C311 7776   2.886   5.482   3.139
   66DMPC  H11X 7777   2.861   5.398   3.071
   66DMPC  H11Y 7778   2.832   5.572   3.104
   66DMPC  C312 7779   2.838   5.448   3.281
   66DMPC  H12X 7780   2.869   5.529   3.350
   66DMPC  H12Y 7781   2.889   5.354   3.314
   66DMPC  C313 7782   2.686   5.429   3.291
   66DMPC  H13X 7783   2.656   5.345   3.224
   66DMPC  H13Y 7784   2.637   5.522   3.253
   66DMPC  C314 7785   2.635   5.400   3.432
   66DMPC  H14X 7786   2.663   5.483   3.501
   66DMPC  H14Y 7787   2.679   5.305   3.470
   66DMPC  H14Z 7788   2.525   5.390   3.432
   67DMPC     N 7789   3.992   5.637   1.677
   67DMPC   C13 7790   3.890   5.640   1.568
   67DMPC  H13A 7791   3.798   5.681   1.606
   67DMPC  H13B 7792   3.874   5.539   1.532
   67DMPC  H13C 7793   3.926   5.700   1.486
   67DMPC   C14 7794   3.943   5.544   1.783
   67DMPC  H14A 7795   4.018   5.534   1.860
   67DMPC  H14B 7796   3.923   5.447   1.739
   67DMPC  H14C 7797   3.851   5.582   1.826
   67DMPC   C15 7798   4.119   5.584   1.623
   67DMPC  H15A 7799   4.194   5.576   1.700
   67DMPC  H15B 7800   4.156   5.652   1.546
   67DMPC  H15C 7801   4.102   5.487   1.577
   67DMPC   C12 7802   4.009   5.775   1.736
   67DMPC  H12A 7803   4.090   5.769   1.808
   67DMPC  H12B 7804   3.918   5.799   1.789
   67DMPC   C11 7805   4.038   5.891   1.639
   67DMPC  H11A 7806   4.054   5.982   1.702
   67DMPC  H11B 7807   3.949   5.908   1.575
   67DMPC     P 7808   4.193   5.971   1.454
   67DMPC   O13 7809   4.084   5.986   1.357
   67DMPC   O14 7810   4.327   5.935   1.402
   67DMPC   O11 7811   4.202   6.104   1.539
   67DMPC   O12 7812   4.154   5.863   1.562
   67DMPC    C1 7813   4.326   6.166   1.575
   67DMPC    HA 7814   4.303   6.266   1.619
   67DMPC    HB 7815   4.390   6.183   1.486
   67DMPC    C2 7816   4.407   6.086   1.682
   67DMPC    HS 7817   4.442   5.995   1.629
   67DMPC   O21 7818   4.319   6.053   1.791
   67DMPC   C21 7819   4.365   5.951   1.862
   67DMPC   O22 7820   4.461   5.881   1.830
   67DMPC   C22 7821   4.279   5.934   1.987
   67DMPC   H2R 7822   4.176   5.904   1.955
   67DMPC   H2S 7823   4.273   6.030   2.041
   67DMPC    C3 7824   4.533   6.165   1.730
   67DMPC    HX 7825   4.599   6.177   1.641
   67DMPC    HY 7826   4.591   6.104   1.803
   67DMPC   O31 7827   4.503   6.297   1.782
   67DMPC   C31 7828   4.475   6.304   1.911
   67DMPC   O32 7829   4.469   6.209   1.987
   67DMPC   C32 7830   4.457   0.120   1.952
   67DMPC   H2X 7831   4.449   0.182   1.860
   67DMPC   H2Y 7832   4.546   0.152   2.009
   67DMPC   C23 7833   4.339   5.826   2.078
   67DMPC   H3R 7834   4.444   5.854   2.103
   67DMPC   H3S 7835   4.341   5.729   2.025
   67DMPC   C24 7836   4.263   5.806   2.211
   67DMPC   H4R 7837   4.270   5.900   2.271
   67DMPC   H4S 7838   4.315   5.726   2.268
   67DMPC   C25 7839   4.116   5.767   2.193
   67DMPC   H5R 7840   4.110   5.684   2.119
   67DMPC   H5S 7841   4.059   5.853   2.152
   67DMPC   C26 7842   4.048   5.719   2.322
   67DMPC   H6R 7843   4.100   5.628   2.359
   67DMPC   H6S 7844   3.943   5.690   2.298
   67DMPC   C27 7845   4.044   5.823   2.435
   67DMPC   H7R 7846   3.995   5.916   2.397
   67DMPC   H7S 7847   4.147   5.849   2.466
   67DMPC   C28 7848   3.966   5.774   2.559
   67DMPC   H8R 7849   4.015   5.682   2.598
   67DMPC   H8S 7850   3.864   5.746   2.527
   67DMPC   C29 7851   3.957   5.877   2.672
   67DMPC   H9R 7852   3.915   5.972   2.631
   67DMPC   H9S 7853   4.059   5.898   2.710
   67DMPC  C210 7854   3.868   5.829   2.788
   67DMPC  H10R 7855   3.907   5.732   2.824
   67DMPC  H10S 7856   3.765   5.813   2.750
   67DMPC  C211 7857   3.862   5.926   2.908
   67DMPC  H11R 7858   3.965   5.943   2.946
   67DMPC  H11S 7859   3.803   5.876   2.988
   67DMPC  C212 7860   3.795   6.061   2.876
   67DMPC  H12R 7861   3.699   6.041   2.824
   67DMPC  H12S 7862   3.860   6.119   2.806
   67DMPC  C213 7863   3.766   6.147   3.000
   67DMPC  H13R 7864   3.700   6.088   3.068
   67DMPC  H13S 7865   3.709   6.237   2.968
   67DMPC  C214 7866   3.889   6.193   3.079
   67DMPC  H14R 7867   3.956   6.254   3.014
   67DMPC  H14S 7868   3.947   6.105   3.116
   67DMPC  H14T 7869   3.859   6.254   3.166
   67DMPC   C33 7870   4.329   0.141   2.036
   67DMPC   H3X 7871   4.242   0.091   1.990
   67DMPC   H3Y 7872   4.309   0.251   2.035
   67DMPC   C34 7873   4.342   0.102   2.184
   67DMPC   H4X 7874   4.440   0.139   2.223
   67DMPC   H4Y 7875   4.341   6.322   2.194
   67DMPC   C35 7876   4.231   0.163   2.272
   67DMPC   H5X 7877   4.234   0.274   2.260
   67DMPC   H5Y 7878   4.132   0.128   2.236
   67DMPC   C36 7879   4.246   0.130   2.421
   67DMPC   H6X 7880   4.351   0.150   2.451
   67DMPC   H6Y 7881   4.226   0.022   2.437
   67DMPC   C37 7882   4.154   0.214   2.512
   67DMPC   H7X 7883   4.048   0.195   2.484
   67DMPC   H7Y 7884   4.175   0.322   2.494
   67DMPC   C38 7885   4.174   0.183   2.661
   67DMPC   H8X 7886   4.282   0.182   2.684
   67DMPC   H8Y 7887   4.134   0.080   2.679
   67DMPC   C39 7888   4.103   0.279   2.757
   67DMPC   H9X 7889   4.099   0.230   2.857
   67DMPC   H9Y 7890   3.999   0.296   2.723
   67DMPC  C310 7891   4.174   0.415   2.773
   67DMPC  H10X 7892   4.176   0.466   2.674
   67DMPC  H10Y 7893   4.279   0.398   2.805
   67DMPC  C311 7894   4.106   0.510   2.874
   67DMPC  H11X 7895   4.000   0.524   2.844
   67DMPC  H11Y 7896   4.157   0.608   2.867
   67DMPC  C312 7897   4.110   0.461   3.020
   67DMPC  H12X 7898   4.216   0.443   3.050
   67DMPC  H12Y 7899   4.057   0.364   3.028
   67DMPC  C313 7900   4.046   0.559   3.121
   67DMPC  H13X 7901   4.044   0.509   3.220
   67DMPC  H13Y 7902   3.941   0.578   3.090
   67DMPC  C314 7903   4.118   0.693   3.136
   67DMPC  H14X 7904   4.068   0.754   3.214
   67DMPC  H14Y 7905   4.117   0.750   3.041
   67DMPC  H14Z 7906   4.224   0.677   3.166
   68DMPC     N 7907   5.991   6.074   1.522
   68DMPC   C13 7908   5.952   5.954   1.602
   68DMPC  H13A 7909   5.849   5.963   1.631
   68DMPC  H13B 7910   6.014   5.948   1.691
   68DMPC  H13C 7911   5.964   5.864   1.543
   68DMPC   C14 7912   6.130   6.054   1.472
   68DMPC  H14A 7913   6.158   6.137   1.408
   68DMPC  H14B 7914   6.137   5.962   1.416
   68DMPC  H14C 7915   6.200   6.050   1.555
   68DMPC   C15 7916   5.899   6.084   1.406
   68DMPC  H15A 7917   5.797   6.093   1.440
   68DMPC  H15B 7918   5.907   5.995   1.344
   68DMPC  H15C 7919   5.924   6.171   1.347
   68DMPC   C12 7920   5.983   6.196   1.609
   68DMPC  H12A 7921   6.039   6.175   1.700
   68DMPC  H12B 7922   5.879   6.210   1.637
   68DMPC   C11 7923   6.036   6.330   1.553
   68DMPC  H11A 7924   6.145   6.318   1.535
   68DMPC  H11B 7925   6.024   0.077   1.633
   68DMPC     P 7926   6.038   0.132   1.336
   68DMPC   O13 7927   5.945   0.174   1.228
   68DMPC   O14 7928   6.162   0.064   1.291
   68DMPC   O11 7929   6.081   0.256   1.419
   68DMPC   O12 7930   5.963   0.038   1.437
   68DMPC    C1 7931   5.997   0.339   1.498
   68DMPC    HA 7932   5.935   0.279   1.568
   68DMPC    HB 7933   5.929   0.399   1.433
   68DMPC    C2 7934   6.085   0.437   1.582
   68DMPC    HS 7935   6.140   0.498   1.507
   68DMPC   O21 7936   6.172   0.357   1.664
   68DMPC   C21 7937   0.006   0.399   1.668
   68DMPC   O22 7938   0.050   0.498   1.611
   68DMPC   C22 7939   0.089   0.307   1.758
   68DMPC   H2R 7940   0.150   0.242   1.692
   68DMPC   H2S 7941   0.023   0.243   1.819
   68DMPC    C3 7942   6.000   0.532   1.671
   68DMPC    HX 7943   5.935   0.467   1.734
   68DMPC    HY 7944   5.931   0.592   1.607
   68DMPC   O31 7945   6.081   0.614   1.759
   68DMPC   C31 7946   6.126   0.727   1.705
   68DMPC   O32 7947   6.092   0.770   1.596
   68DMPC   C32 7948   6.230   0.790   1.797
   68DMPC   H2X 7949   6.264   0.886   1.752
   68DMPC   H2Y 7950   0.026   0.721   1.803
   68DMPC   C23 7951   0.182   0.390   1.848
   68DMPC   H3R 7952   0.123   0.438   1.929
   68DMPC   H3S 7953   0.230   0.471   1.788
   68DMPC   C24 7954   0.297   0.308   1.909
   68DMPC   H4R 7955   0.359   0.374   1.973
   68DMPC   H4S 7956   0.362   0.272   1.826
   68DMPC   C25 7957   0.254   0.185   1.991
   68DMPC   H5R 7958   0.345   0.125   2.014
   68DMPC   H5S 7959   0.186   0.121   1.930
   68DMPC   C26 7960   0.184   0.220   2.124
   68DMPC   H6R 7961   0.100   0.289   2.104
   68DMPC   H6S 7962   0.257   0.273   2.189
   68DMPC   C27 7963   0.130   0.097   2.199
   68DMPC   H7R 7964   0.045   0.053   2.142
   68DMPC   H7S 7965   0.089   0.133   2.296
   68DMPC   C28 7966   0.234   6.318   2.224
   68DMPC   H8R 7967   0.325   0.033   2.269
   68DMPC   H8S 7968   0.263   6.273   2.127
   68DMPC   C29 7969   0.186   6.205   2.317
   68DMPC   H9R 7970   0.263   6.124   2.316
   68DMPC   H9S 7971   0.091   6.162   2.278
   68DMPC  C210 7972   0.166   6.250   2.462
   68DMPC  H10R 7973   0.082   6.323   2.468
   68DMPC  H10S 7974   0.259   6.302   2.497
   68DMPC  C211 7975   0.136   6.135   2.559
   68DMPC  H11R 7976   0.219   6.060   2.553
   68DMPC  H11S 7977   0.043   6.085   2.527
   68DMPC  C212 7978   0.122   6.181   2.704
   68DMPC  H12R 7979   0.043   6.259   2.710
   68DMPC  H12S 7980   0.218   6.226   2.737
   68DMPC  C213 7981   0.085   6.067   2.800
   68DMPC  H13R 7982   0.161   5.986   2.788
   68DMPC  H13S 7983   6.278   6.026   2.769
   68DMPC  C214 7984   0.079   6.107   2.947
   68DMPC  H14R 7985   0.052   6.019   3.009
   68DMPC  H14S 7986   0.003   6.186   2.962
   68DMPC  H14T 7987   0.177   6.145   2.981
   68DMPC   C33 7988   6.175   0.817   1.938
   68DMPC   H3X 7989   6.261   0.827   2.008
   68DMPC   H3Y 7990   6.115   0.730   1.972
   68DMPC   C34 7991   6.091   0.944   1.948
   68DMPC   H4X 7992   6.031   0.954   1.854
   68DMPC   H4Y 7993   6.157   1.033   1.954
   68DMPC   C35 7994   5.992   0.942   2.065
   68DMPC   H5X 7995   5.928   0.851   2.055
   68DMPC   H5Y 7996   5.925   1.031   2.057
   68DMPC   C36 7997   6.055   0.940   2.205
   68DMPC   H6X 7998   6.106   1.037   2.223
   68DMPC   H6Y 7999   6.131   0.859   2.212
   68DMPC   C37 8000   5.948   0.918   2.313
   68DMPC   H7X 8001   5.906   0.815   2.301
   68DMPC   H7Y 8002   5.865   0.990   2.295
   68DMPC   C38 8003   5.998   0.936   2.457
   68DMPC   H8X 8004   6.035   1.040   2.467
   68DMPC   H8Y 8005   6.082   0.867   2.478
   68DMPC   C39 8006   5.885   0.912   2.558
   68DMPC   H9X 8007   5.872   0.803   2.573
   68DMPC   H9Y 8008   5.791   0.952   2.514
   68DMPC  C310 8009   5.908   0.981   2.694
   68DMPC  H10X 8010   5.917   1.090   2.677
   68DMPC  H10Y 8011   6.004   0.945   2.737
   68DMPC  C311 8012   5.795   0.955   2.796
   68DMPC  H11X 8013   5.812   1.020   2.885
   68DMPC  H11Y 8014   5.803   0.849   2.829
   68DMPC  C312 8015   5.652   0.978   2.742
   68DMPC  H12X 8016   5.580   0.959   2.824
   68DMPC  H12Y 8017   5.632   0.903   2.663
   68DMPC  C313 8018   5.626   1.119   2.686
   68DMPC  H13X 8019   5.707   1.147   2.615
   68DMPC  H13Y 8020   5.628   1.192   2.769
   68DMPC  C314 8021   5.493   1.132   2.612
   68DMPC  H14X 8022   5.478   1.236   2.577
   68DMPC  H14Y 8023   5.409   1.103   2.678
   68DMPC  H14Z 8024   5.491   1.065   2.523
   69DMPC     N 8025   4.971   2.878   0.805
   69DMPC   C13 8026   5.040   2.819   0.687
   69DMPC  H13A 8027   5.114   2.889   0.650
   69DMPC  H13B 8028   4.968   2.798   0.609
   69DMPC  H13C 8029   5.088   2.727   0.715
   69DMPC   C14 8030   5.072   2.916   0.907
   69DMPC  H14A 8031   5.145   2.982   0.863
   69DMPC  H14B 8032   5.121   2.827   0.944
   69DMPC  H14C 8033   5.023   2.965   0.990
   69DMPC   C15 8034   4.901   3.002   0.761
   69DMPC  H15A 8035   4.974   3.074   0.725
   69DMPC  H15B 8036   4.846   3.045   0.844
   69DMPC  H15C 8037   4.831   2.980   0.682
   69DMPC   C12 8038   4.869   2.781   0.861
   69DMPC  H12A 8039   4.796   2.762   0.783
   69DMPC  H12B 8040   4.816   2.832   0.941
   69DMPC   C11 8041   4.918   2.645   0.915
   69DMPC  H11A 8042   4.974   2.592   0.835
   69DMPC  H11B 8043   4.829   2.581   0.937
   69DMPC     P 8044   4.937   2.660   1.169
   69DMPC   O13 8045   4.893   2.521   1.199
   69DMPC   O14 8046   4.834   2.766   1.173
   69DMPC   O11 8047   5.054   2.695   1.268
   69DMPC   O12 8048   5.005   2.661   1.027
   69DMPC    C1 8049   5.192   2.689   1.229
   69DMPC    HA 8050   5.224   2.787   1.187
   69DMPC    HB 8051   5.211   2.610   1.151
   69DMPC    C2 8052   5.285   2.655   1.349
   69DMPC    HS 8053   5.389   2.661   1.309
   69DMPC   O21 8054   5.252   2.522   1.395
   69DMPC   C21 8055   5.356   2.462   1.452
   69DMPC   O22 8056   5.468   2.509   1.459
   69DMPC   C22 8057   5.313   2.326   1.507
   69DMPC   H2R 8058   5.271   2.266   1.423
   69DMPC   H2S 8059   5.234   2.339   1.583
   69DMPC    C3 8060   5.270   2.760   1.464
   69DMPC    HX 8061   5.161   2.779   1.475
   69DMPC    HY 8062   5.318   2.854   1.430
   69DMPC   O31 8063   5.326   2.716   1.590
   69DMPC   C31 8064   5.294   2.792   1.694
   69DMPC   O32 8065   5.232   2.897   1.688
   69DMPC   C32 8066   5.351   2.727   1.820
   69DMPC   H2X 8067   5.462   2.731   1.815
   69DMPC   H2Y 8068   5.319   2.621   1.824
   69DMPC   C23 8069   5.434   2.250   1.566
   69DMPC   H3R 8070   5.517   2.247   1.492
   69DMPC   H3S 8071   5.403   2.144   1.583
   69DMPC   C24 8072   5.487   2.304   1.701
   69DMPC   H4R 8073   5.514   2.411   1.692
   69DMPC   H4S 8074   5.580   2.248   1.725
   69DMPC   C25 8075   5.389   2.286   1.818
   69DMPC   H5R 8076   5.359   2.179   1.822
   69DMPC   H5S 8077   5.298   2.347   1.802
   69DMPC   C26 8078   5.451   2.323   1.954
   69DMPC   H6R 8079   5.469   2.433   1.959
   69DMPC   H6S 8080   5.549   2.272   1.963
   69DMPC   C27 8081   5.363   2.280   2.073
   69DMPC   H7R 8082   5.332   2.174   2.056
   69DMPC   H7S 8083   5.271   2.342   2.074
   69DMPC   C28 8084   5.432   2.288   2.210
   69DMPC   H8R 8085   5.459   2.394   2.231
   69DMPC   H8S 8086   5.525   2.228   2.207
   69DMPC   C29 8087   5.343   2.234   2.323
   69DMPC   H9R 8088   5.310   2.131   2.295
   69DMPC   H9S 8089   5.251   2.297   2.331
   69DMPC  C210 8090   5.411   2.226   2.460
   69DMPC  H10R 8091   5.503   2.164   2.452
   69DMPC  H10S 8092   5.342   2.175   2.531
   69DMPC  C211 8093   5.447   2.363   2.521
   69DMPC  H11R 8094   5.357   2.427   2.521
   69DMPC  H11S 8095   5.524   2.412   2.457
   69DMPC  C212 8096   5.500   2.352   2.665
   69DMPC  H12R 8097   5.593   2.291   2.665
   69DMPC  H12S 8098   5.424   2.299   2.726
   69DMPC  C213 8099   5.529   2.488   2.732
   69DMPC  H13R 8100   5.560   2.469   2.837
   69DMPC  H13S 8101   5.435   2.547   2.735
   69DMPC  C214 8102   5.638   2.572   2.664
   69DMPC  H14R 8103   5.607   2.599   2.560
   69DMPC  H14S 8104   5.733   2.515   2.659
   69DMPC  H14T 8105   5.655   2.665   2.721
   69DMPC   C33 8106   5.303   2.800   1.947
   69DMPC   H3X 8107   5.192   2.796   1.951
   69DMPC   H3Y 8108   5.335   2.906   1.944
   69DMPC   C34 8109   5.360   2.735   2.074
   69DMPC   H4X 8110   5.470   2.747   2.075
   69DMPC   H4Y 8111   5.337   2.626   2.072
   69DMPC   C35 8112   5.301   2.793   2.204
   69DMPC   H5X 8113   5.191   2.776   2.202
   69DMPC   H5Y 8114   5.319   2.903   2.206
   69DMPC   C36 8115   5.360   2.730   2.330
   69DMPC   H6X 8116   5.468   2.759   2.336
   69DMPC   H6Y 8117   5.356   2.619   2.323
   69DMPC   C37 8118   5.290   2.774   2.460
   69DMPC   H7X 8119   5.272   2.884   2.456
   69DMPC   H7Y 8120   5.357   2.754   2.546
   69DMPC   C38 8121   5.157   2.701   2.484
   69DMPC   H8X 8122   5.180   2.593   2.498
   69DMPC   H8Y 8123   5.091   2.711   2.395
   69DMPC   C39 8124   5.080   2.753   2.607
   69DMPC   H9X 8125   5.047   2.857   2.585
   69DMPC   H9Y 8126   5.149   2.758   2.694
   69DMPC  C310 8127   4.957   2.668   2.644
   69DMPC  H10X 8128   4.888   2.664   2.556
   69DMPC  H10Y 8129   4.903   2.719   2.727
   69DMPC  C311 8130   4.988   2.524   2.688
   69DMPC  H11X 8131   5.033   2.467   2.603
   69DMPC  H11Y 8132   4.892   2.473   2.714
   69DMPC  C312 8133   5.082   2.515   2.809
   69DMPC  H12X 8134   5.039   2.574   2.893
   69DMPC  H12Y 8135   5.181   2.559   2.783
   69DMPC  C313 8136   5.106   2.371   2.858
   69DMPC  H13X 8137   5.150   2.312   2.775
   69DMPC  H13Y 8138   5.007   2.325   2.883
   69DMPC  C314 8139   5.197   2.362   2.980
   69DMPC  H14X 8140   5.154   2.419   3.065
   69DMPC  H14Y 8141   5.298   2.404   2.957
   69DMPC  H14Z 8142   5.210   2.256   3.012
   70DMPC     N 8143   3.646   6.030   1.287
   70DMPC   C13 8144   3.584   5.896   1.308
   70DMPC  H13A 8145   3.663   5.821   1.313
   70DMPC  H13B 8146   3.518   5.872   1.226
   70DMPC  H13C 8147   3.529   5.896   1.401
   70DMPC   C14 8148   3.737   6.061   1.400
   70DMPC  H14A 8149   3.680   6.063   1.492
   70DMPC  H14B 8150   3.781   6.159   1.384
   70DMPC  H14C 8151   3.815   5.987   1.405
   70DMPC   C15 8152   3.726   6.026   1.162
   70DMPC  H15A 8153   3.662   6.007   1.077
   70DMPC  H15B 8154   3.802   5.949   1.168
   70DMPC  H15C 8155   3.774   6.122   1.148
   70DMPC   C12 8156   3.539   6.135   1.271
   70DMPC  H12A 8157   3.495   6.122   1.173
   70DMPC  H12B 8158   3.588   6.231   1.271
   70DMPC   C11 8159   3.424   6.139   1.373
   70DMPC  H11A 8160   3.361   6.047   1.361
   70DMPC  H11B 8161   3.362   6.228   1.346
   70DMPC     P 8162   3.367   6.174   1.615
   70DMPC   O13 8163   3.306   6.044   1.654
   70DMPC   O14 8164   3.272   6.278   1.570
   70DMPC   O11 8165   3.451   6.229   1.736
   70DMPC   O12 8166   3.476   6.148   1.505
   70DMPC    C1 8167   3.542   6.145   1.809
   70DMPC    HA 8168   3.640   6.198   1.820
   70DMPC    HB 8169   3.563   6.049   1.757
   70DMPC    C2 8170   3.489   6.114   1.951
   70DMPC    HS 8171   3.385   6.075   1.936
   70DMPC   O21 8172   3.494   6.236   2.029
   70DMPC   C21 8173   3.392   6.248   2.112
   70DMPC   O22 8174   3.296   6.174   2.116
   70DMPC   C22 8175   3.409   0.042   2.198
   70DMPC   H2R 8176   3.375   0.131   2.141
   70DMPC   H2S 8177   3.515   0.056   2.226
   70DMPC    C3 8178   3.572   6.001   2.020
   70DMPC    HX 8179   3.679   6.025   2.010
   70DMPC    HY 8180   3.552   5.907   1.963
   70DMPC   O31 8181   3.536   5.986   2.160
   70DMPC   C31 8182   3.586   5.877   2.217
   70DMPC   O32 8183   3.666   5.801   2.165
   70DMPC   C32 8184   3.527   5.864   2.357
   70DMPC   H2X 8185   3.416   5.870   2.350
   70DMPC   H2Y 8186   3.563   5.949   2.418
   70DMPC   C23 8187   3.322   0.027   2.325
   70DMPC   H3R 8188   3.364   6.275   2.387
   70DMPC   H3S 8189   3.218   6.330   2.296
   70DMPC   C24 8190   3.312   0.154   2.411
   70DMPC   H4R 8191   3.414   0.188   2.440
   70DMPC   H4S 8192   3.264   0.234   2.351
   70DMPC   C25 8193   3.229   0.129   2.538
   70DMPC   H5R 8194   3.281   0.053   2.601
   70DMPC   H5S 8195   3.131   0.085   2.508
   70DMPC   C26 8196   3.201   0.254   2.623
   70DMPC   H6R 8197   3.149   0.329   2.560
   70DMPC   H6S 8198   3.298   0.299   2.656
   70DMPC   C27 8199   3.115   0.223   2.746
   70DMPC   H7R 8200   3.171   0.155   2.814
   70DMPC   H7S 8201   3.023   0.169   2.712
   70DMPC   C28 8202   3.071   0.347   2.825
   70DMPC   H8R 8203   3.017   0.416   2.755
   70DMPC   H8S 8204   3.160   0.400   2.863
   70DMPC   C29 8205   2.977   0.313   2.942
   70DMPC   H9R 8206   3.032   0.252   3.017
   70DMPC   H9S 8207   2.894   0.250   2.903
   70DMPC  C210 8208   2.914   0.436   3.011
   70DMPC  H10R 8209   2.842   0.400   3.088
   70DMPC  H10S 8210   2.855   0.492   2.935
   70DMPC  C211 8211   3.013   0.533   3.077
   70DMPC  H11R 8212   2.954   0.614   3.125
   70DMPC  H11S 8213   3.077   0.579   2.999
   70DMPC  C212 8214   3.105   0.471   3.184
   70DMPC  H12R 8215   3.166   0.552   3.228
   70DMPC  H12S 8216   3.174   0.399   3.136
   70DMPC  C213 8217   3.031   0.398   3.298
   70DMPC  H13R 8218   2.979   0.309   3.257
   70DMPC  H13S 8219   2.954   0.466   3.340
   70DMPC  C214 8220   3.123   0.352   3.412
   70DMPC  H14R 8221   3.065   0.298   3.489
   70DMPC  H14S 8222   3.173   0.439   3.459
   70DMPC  H14T 8223   3.201   0.284   3.372
   70DMPC   C33 8224   3.568   5.732   2.423
   70DMPC   H3X 8225   3.679   5.723   2.422
   70DMPC   H3Y 8226   3.526   5.646   2.366
   70DMPC   C34 8227   3.520   5.724   2.569
   70DMPC   H4X 8228   3.409   5.726   2.570
   70DMPC   H4Y 8229   3.556   5.814   2.623
   70DMPC   C35 8230   3.568   5.599   2.645
   70DMPC   H5X 8231   3.680   5.598   2.647
   70DMPC   H5Y 8232   3.534   5.508   2.590
   70DMPC   C36 8233   3.514   5.595   2.788
   70DMPC   H6X 8234   3.402   5.595   2.782
   70DMPC   H6Y 8235   3.545   5.687   2.842
   70DMPC   C37 8236   3.556   5.472   2.870
   70DMPC   H7X 8237   3.536   5.379   2.812
   70DMPC   H7Y 8238   3.492   5.470   2.961
   70DMPC   C38 8239   3.702   5.474   2.918
   70DMPC   H8X 8240   3.720   5.571   2.971
   70DMPC   H8Y 8241   3.770   5.469   2.831
   70DMPC   C39 8242   3.733   5.359   3.015
   70DMPC   H9X 8243   3.722   5.263   2.961
   70DMPC   H9Y 8244   3.658   5.360   3.097
   70DMPC  C310 8245   3.873   5.368   3.078
   70DMPC  H10X 8246   3.883   5.467   3.128
   70DMPC  H10Y 8247   3.949   5.363   2.998
   70DMPC  C311 8248   3.902   5.259   3.183
   70DMPC  H11X 8249   3.827   5.269   3.265
   70DMPC  H11Y 8250   4.002   5.278   3.227
   70DMPC  C312 8251   3.896   5.114   3.130
   70DMPC  H12X 8252   3.794   5.095   3.092
   70DMPC  H12Y 8253   3.914   5.045   3.216
   70DMPC  C313 8254   3.997   5.081   3.019
   70DMPC  H13X 8255   3.978   5.146   2.931
   70DMPC  H13Y 8256   3.978   4.976   2.987
   70DMPC  C314 8257   4.144   5.093   3.059
   70DMPC  H14X 8258   4.210   5.063   2.974
   70DMPC  H14Y 8259   4.167   5.027   3.145
   70DMPC  H14Z 8260   4.169   5.197   3.086
   71DMPC     N 8261   2.885   5.048   1.809
   71DMPC   C13 8262   2.953   5.138   1.712
   71DMPC  H13A 8263   2.895   5.229   1.700
   71DMPC  H13B 8264   2.961   5.089   1.617
   71DMPC  H13C 8265   3.051   5.164   1.750
   71DMPC   C14 8266   2.750   5.013   1.755
   71DMPC  H14A 8267   2.693   5.104   1.738
   71DMPC  H14B 8268   2.698   4.950   1.826
   71DMPC  H14C 8269   2.761   4.960   1.662
   71DMPC   C15 8270   2.964   4.922   1.821
   71DMPC  H15A 8271   2.914   4.854   1.890
   71DMPC  H15B 8272   3.063   4.942   1.858
   71DMPC  H15C 8273   2.971   4.873   1.725
   71DMPC   C12 8274   2.868   5.112   1.944
   71DMPC  H12A 8275   2.814   5.042   2.007
   71DMPC  H12B 8276   2.806   5.200   1.931
   71DMPC   C11 8277   2.995   5.156   2.021
   71DMPC  H11A 8278   3.060   5.067   2.036
   71DMPC  H11B 8279   2.962   5.191   2.122
   71DMPC     P 8280   3.213   5.276   1.969
   71DMPC   O13 8281   3.258   5.408   1.920
   71DMPC   O14 8282   3.276   5.158   1.906
   71DMPC   O11 8283   3.234   5.270   2.126
   71DMPC   O12 8284   3.058   5.264   1.952
   71DMPC    C1 8285   3.181   5.374   2.210
   71DMPC    HA 8286   3.071   5.362   2.222
   71DMPC    HB 8287   3.201   5.475   2.168
   71DMPC    C2 8288   3.244   5.371   2.353
   71DMPC    HS 8289   3.354   5.366   2.336
   71DMPC   O21 8290   3.198   5.252   2.419
   71DMPC   C21 8291   3.272   5.220   2.523
   71DMPC   O22 8292   3.371   5.281   2.560
   71DMPC   C22 8293   3.217   5.093   2.588
   71DMPC   H2R 8294   3.265   5.006   2.538
   71DMPC   H2S 8295   3.107   5.086   2.573
   71DMPC    C3 8296   3.216   5.502   2.435
   71DMPC    HX 8297   3.239   5.590   2.371
   71DMPC    HY 8298   3.289   5.506   2.518
   71DMPC   O31 8299   3.084   5.510   2.494
   71DMPC   C31 8300   2.991   5.572   2.422
   71DMPC   O32 8301   3.006   5.611   2.307
   71DMPC   C32 8302   2.866   5.594   2.506
   71DMPC   H2X 8303   2.812   5.682   2.463
   71DMPC   H2Y 8304   2.894   5.619   2.611
   71DMPC   C23 8305   3.250   5.089   2.738
   71DMPC   H3R 8306   3.357   5.113   2.756
   71DMPC   H3S 8307   3.233   4.985   2.774
   71DMPC   C24 8308   3.160   5.181   2.823
   71DMPC   H4R 8309   3.054   5.152   2.805
   71DMPC   H4S 8310   3.173   5.287   2.791
   71DMPC   C25 8311   3.188   5.171   2.974
   71DMPC   H5R 8312   3.188   5.063   3.003
   71DMPC   H5S 8313   3.104   5.221   3.028
   71DMPC   C26 8314   3.319   5.237   3.018
   71DMPC   H6R 8315   3.312   5.345   2.993
   71DMPC   H6S 8316   3.404   5.195   2.961
   71DMPC   C27 8317   3.350   5.224   3.168
   71DMPC   H7R 8318   3.265   5.264   3.228
   71DMPC   H7S 8319   3.440   5.287   3.189
   71DMPC   C28 8320   3.379   5.079   3.212
   71DMPC   H8R 8321   3.456   5.036   3.145
   71DMPC   H8S 8322   3.287   5.019   3.201
   71DMPC   C29 8323   3.428   5.065   3.357
   71DMPC   H9R 8324   3.440   4.956   3.378
   71DMPC   H9S 8325   3.352   5.105   3.427
   71DMPC  C210 8326   3.563   5.133   3.384
   71DMPC  H10R 8327   3.551   5.243   3.381
   71DMPC  H10S 8328   3.635   5.104   3.304
   71DMPC  C211 8329   3.625   5.093   3.519
   71DMPC  H11R 8330   3.638   4.983   3.521
   71DMPC  H11S 8331   3.554   5.120   3.601
   71DMPC  C212 8332   3.760   5.162   3.545
   71DMPC  H12R 8333   3.743   5.272   3.547
   71DMPC  H12S 8334   3.828   5.140   3.461
   71DMPC  C213 8335   3.828   5.121   3.676
   71DMPC  H13R 8336   3.760   5.143   3.761
   71DMPC  H13S 8337   3.919   5.185   3.689
   71DMPC  C214 8338   3.871   4.974   3.683
   71DMPC  H14R 8339   3.924   4.954   3.778
   71DMPC  H14S 8340   3.783   4.907   3.677
   71DMPC  H14T 8341   3.940   4.951   3.599
   71DMPC   C33 8342   2.774   5.471   2.502
   71DMPC   H3X 8343   2.763   5.434   2.398
   71DMPC   H3Y 8344   2.673   5.505   2.535
   71DMPC   C34 8345   2.816   5.356   2.595
   71DMPC   H4X 8346   2.833   5.396   2.697
   71DMPC   H4Y 8347   2.911   5.312   2.558
   71DMPC   C35 8348   2.708   5.247   2.601
   71DMPC   H5X 8349   2.690   5.209   2.498
   71DMPC   H5Y 8350   2.614   5.293   2.638
   71DMPC   C36 8351   2.742   5.127   2.691
   71DMPC   H6X 8352   2.764   5.162   2.794
   71DMPC   H6Y 8353   2.832   5.076   2.652
   71DMPC   C37 8354   2.625   5.027   2.696
   71DMPC   H7X 8355   2.598   4.998   2.592
   71DMPC   H7Y 8356   2.537   5.077   2.741
   71DMPC   C38 8357   2.653   4.898   2.775
   71DMPC   H8X 8358   2.683   4.924   2.879
   71DMPC   H8Y 8359   2.738   4.845   2.727
   71DMPC   C39 8360   2.531   4.805   2.778
   71DMPC   H9X 8361   2.495   4.793   2.673
   71DMPC   H9Y 8362   2.449   4.853   2.836
   71DMPC  C310 8363   2.558   4.664   2.834
   71DMPC  H10X 8364   2.647   4.621   2.784
   71DMPC  H10Y 8365   2.470   4.600   2.808
   71DMPC  C311 8366   2.576   4.659   2.986
   71DMPC  H11X 8367   2.489   4.707   3.035
   71DMPC  H11Y 8368   2.667   4.716   3.014
   71DMPC  C312 8369   2.587   4.515   3.039
   71DMPC  H12X 8370   2.678   4.467   2.996
   71DMPC  H12Y 8371   2.499   4.457   3.003
   71DMPC  C313 8372   2.592   4.503   3.192
   71DMPC  H13X 8373   2.592   4.395   3.219
   71DMPC  H13Y 8374   2.499   4.548   3.234
   71DMPC  C314 8375   2.714   4.568   3.259
   71DMPC  H14X 8376   2.714   4.678   3.242
   71DMPC  H14Y 8377   2.807   4.526   3.217
   71DMPC  H14Z 8378   2.712   4.549   3.368
   72DMPC     N 8379   1.083   1.816   1.600
   72DMPC   C13 8380   1.033   1.731   1.712
   72DMPC  H13A 8381   0.943   1.680   1.680
   72DMPC  H13B 8382   1.012   1.793   1.798
   72DMPC  H13C 8383   1.108   1.657   1.737
   72DMPC   C14 8384   1.209   1.882   1.644
   72DMPC  H14A 8385   1.250   1.939   1.562
   72DMPC  H14B 8386   1.280   1.805   1.673
   72DMPC  H14C 8387   1.188   1.947   1.728
   72DMPC   C15 8388   1.116   1.728   1.484
   72DMPC  H15A 8389   1.027   1.679   1.448
   72DMPC  H15B 8390   1.187   1.653   1.516
   72DMPC  H15C 8391   1.160   1.787   1.405
   72DMPC   C12 8392   0.982   1.921   1.563
   72DMPC  H12A 8393   1.032   1.994   1.500
   72DMPC  H12B 8394   0.955   1.972   1.655
   72DMPC   C11 8395   0.852   1.878   1.491
   72DMPC  H11A 8396   0.878   1.845   1.388
   72DMPC  H11B 8397   0.791   1.972   1.484
   72DMPC     P 8398   0.631   1.764   1.538
   72DMPC   O13 8399   0.582   1.628   1.571
   72DMPC   O14 8400   0.600   1.810   1.400
   72DMPC   O11 8401   0.573   1.865   1.643
   72DMPC   O12 8402   0.786   1.773   1.561
   72DMPC    C1 8403   0.635   1.888   1.770
   72DMPC    HA 8404   0.590   1.979   1.815
   72DMPC    HB 8405   0.743   1.910   1.760
   72DMPC    C2 8406   0.619   1.770   1.874
   72DMPC    HS 8407   0.691   1.692   1.839
   72DMPC   O21 8408   0.489   1.709   1.871
   72DMPC   C21 8409   0.388   1.787   1.901
   72DMPC   O22 8410   0.396   1.903   1.936
   72DMPC   C22 8411   0.256   1.713   1.883
   72DMPC   H2R 8412   0.273   1.607   1.852
   72DMPC   H2S 8413   0.200   1.764   1.802
   72DMPC    C3 8414   0.668   1.809   2.017
   72DMPC    HX 8415   0.598   1.882   2.062
   72DMPC    HY 8416   0.764   1.864   2.005
   72DMPC   O31 8417   0.682   1.697   2.108
   72DMPC   C31 8418   0.798   1.632   2.099
   72DMPC   O32 8419   0.886   1.656   2.018
   72DMPC   C32 8420   0.808   1.527   2.209
   72DMPC   H2X 8421   0.843   1.432   2.163
   72DMPC   H2Y 8422   0.709   1.510   2.256
   72DMPC   C23 8423   0.173   1.719   2.013
   72DMPC   H3R 8424   0.191   1.816   2.065
   72DMPC   H3S 8425   0.206   1.637   2.080
   72DMPC   C24 8426   0.021   1.711   1.990
   72DMPC   H4R 8427   6.280   1.803   1.935
   72DMPC   H4S 8428   6.262   1.713   2.089
   72DMPC   C25 8429   6.263   1.589   1.911
   72DMPC   H5R 8430   0.013   1.593   1.808
   72DMPC   H5S 8431   6.152   1.596   1.902
   72DMPC   C26 8432   0.007   1.452   1.972
   72DMPC   H6R 8433   0.117   1.438   1.970
   72DMPC   H6S 8434   6.252   1.373   1.909
   72DMPC   C27 8435   6.248   1.433   2.117
   72DMPC   H7R 8436   6.143   1.469   2.123
   72DMPC   H7S 8437   0.018   1.497   2.185
   72DMPC   C28 8438   6.252   1.287   2.164
   72DMPC   H8R 8439   6.184   1.228   2.099
   72DMPC   H8S 8440   6.211   1.282   2.268
   72DMPC   C29 8441   0.100   1.221   2.162
   72DMPC   H9R 8442   0.142   1.226   2.059
   72DMPC   H9S 8443   0.088   1.114   2.188
   72DMPC  C210 8444   0.200   1.284   2.261
   72DMPC  H10R 8445   0.159   1.273   2.364
   72DMPC  H10S 8446   0.209   1.393   2.239
   72DMPC  C211 8447   0.340   1.222   2.255
   72DMPC  H11R 8448   0.384   1.242   2.155
   72DMPC  H11S 8449   0.332   1.112   2.268
   72DMPC  C212 8450   0.434   1.279   2.363
   72DMPC  H12R 8451   0.397   1.246   2.463
   72DMPC  H12S 8452   0.428   1.390   2.360
   72DMPC  C213 8453   0.581   1.239   2.347
   72DMPC  H13R 8454   0.639   1.282   2.432
   72DMPC  H13S 8455   0.620   1.285   2.254
   72DMPC  C214 8456   0.607   1.088   2.340
   72DMPC  H14R 8457   0.567   1.038   2.431
   72DMPC  H14S 8458   0.717   1.069   2.335
   72DMPC  H14T 8459   0.560   1.044   2.250
   72DMPC   C33 8460   0.909   1.574   2.315
   72DMPC   H3X 8461   0.870   1.668   2.362
   72DMPC   H3Y 8462   1.007   1.599   2.267
   72DMPC   C34 8463   0.934   1.472   2.426
   72DMPC   H4X 8464   0.837   1.435   2.465
   72DMPC   H4Y 8465   0.986   1.524   2.510
   72DMPC   C35 8466   1.021   1.352   2.382
   72DMPC   H5X 8467   1.121   1.390   2.352
   72DMPC   H5Y 8468   0.975   1.304   2.293
   72DMPC   C36 8469   1.039   1.244   2.490
   72DMPC   H6X 8470   1.110   1.168   2.451
   72DMPC   H6Y 8471   0.942   1.194   2.508
   72DMPC   C37 8472   1.093   1.298   2.624
   72DMPC   H7X 8473   1.014   1.357   2.675
   72DMPC   H7Y 8474   1.178   1.367   2.603
   72DMPC   C38 8475   1.143   1.187   2.719
   72DMPC   H8X 8476   1.222   1.130   2.665
   72DMPC   H8Y 8477   1.060   1.118   2.742
   72DMPC   C39 8478   1.201   1.243   2.850
   72DMPC   H9X 8479   1.122   1.303   2.901
   72DMPC   H9Y 8480   1.284   1.313   2.824
   72DMPC  C310 8481   1.254   1.137   2.947
   72DMPC  H10X 8482   1.169   1.078   2.988
   72DMPC  H10Y 8483   1.302   1.191   3.033
   72DMPC  C311 8484   1.356   1.041   2.885
   72DMPC  H11X 8485   1.427   1.099   2.823
   72DMPC  H11Y 8486   1.303   0.969   2.819
   72DMPC  C312 8487   1.437   0.962   2.990
   72DMPC  H12X 8488   1.366   0.906   3.055
   72DMPC  H12Y 8489   1.493   1.033   3.054
   72DMPC  C313 8490   1.536   0.863   2.926
   72DMPC  H13X 8491   1.606   0.921   2.861
   72DMPC  H13Y 8492   1.479   0.794   2.861
   72DMPC  C314 8493   1.617   0.782   3.027
   72DMPC  H14X 8494   1.678   0.849   3.091
   72DMPC  H14Y 8495   1.685   0.712   2.974
   72DMPC  H14Z 8496   1.549   0.723   3.093
   73DMPC     N 8497   0.454   0.065   1.493
   73DMPC   C13 8498   0.388   6.292   1.409
   73DMPC  H13A 8499   0.295   6.262   1.456
   73DMPC  H13B 8500   0.452   6.204   1.402
   73DMPC  H13C 8501   0.369   0.000   1.311
   73DMPC   C14 8502   0.583   0.101   1.429
   73DMPC  H14A 8503   0.564   0.137   1.328
   73DMPC  H14B 8504   0.647   0.014   1.425
   73DMPC  H14C 8505   0.632   0.179   1.486
   73DMPC   C15 8506   0.369   0.186   1.495
   73DMPC  H15A 8507   0.270   0.161   1.532
   73DMPC  H15B 8508   0.359   0.223   1.394
   73DMPC  H15C 8509   0.414   0.262   1.557
   73DMPC   C12 8510   0.480   0.015   1.634
   73DMPC  H12A 8511   0.534   0.092   1.686
   73DMPC  H12B 8512   0.545   6.259   1.625
   73DMPC   C11 8513   0.359   6.304   1.720
   73DMPC  H11A 8514   0.294   0.064   1.733
   73DMPC  H11B 8515   0.397   6.274   1.820
   73DMPC     P 8516   0.141   6.176   1.697
   73DMPC   O13 8517   0.096   6.045   1.644
   73DMPC   O14 8518   0.067   6.295   1.651
   73DMPC   O11 8519   0.145   6.174   1.854
   73DMPC   O12 8520   0.292   6.195   1.659
   73DMPC    C1 8521   0.141   6.050   1.927
   73DMPC    HA 8522   0.185   6.067   2.028
   73DMPC    HB 8523   0.201   5.971   1.877
   73DMPC    C2 8524   6.288   5.996   1.947
   73DMPC    HS 8525   6.250   5.972   1.845
   73DMPC   O21 8526   6.210   6.099   2.011
   73DMPC   C21 8527   6.084   6.096   1.975
   73DMPC   O22 8528   6.034   6.014   1.899
   73DMPC   C22 8529   6.008   6.210   2.041
   73DMPC   H2R 8530   6.028   6.211   2.150
   73DMPC   H2S 8531   5.900   6.191   2.026
   73DMPC    C3 8532   6.287   5.864   2.031
   73DMPC    HX 8533   0.053   5.789   1.971
   73DMPC    HY 8534   6.182   5.829   2.041
   73DMPC   O31 8535   0.057   5.882   2.161
   73DMPC   C31 8536   0.072   5.768   2.229
   73DMPC   O32 8537   0.034   5.659   2.191
   73DMPC   C32 8538   0.149   5.798   2.358
   73DMPC   H2X 8539   0.100   5.881   2.412
   73DMPC   H2Y 8540   0.251   5.830   2.329
   73DMPC   C23 8541   6.045   0.015   1.979
   73DMPC   H3R 8542   6.059   0.004   1.869
   73DMPC   H3S 8543   6.141   0.048   2.022
   73DMPC   C24 8544   5.936   0.120   2.001
   73DMPC   H4R 8545   5.900   0.114   2.106
   73DMPC   H4S 8546   5.850   0.096   1.935
   73DMPC   C25 8547   5.981   0.264   1.974
   73DMPC   H5R 8548   5.890   0.328   1.965
   73DMPC   H5S 8549   6.035   0.269   1.877
   73DMPC   C26 8550   6.068   0.321   2.087
   73DMPC   H6R 8551   6.163   0.264   2.092
   73DMPC   H6S 8552   6.013   0.304   2.182
   73DMPC   C27 8553   6.100   0.470   2.073
   73DMPC   H7R 8554   6.005   0.527   2.061
   73DMPC   H7S 8555   6.160   0.485   1.981
   73DMPC   C28 8556   6.177   0.527   2.193
   73DMPC   H8R 8557   6.210   0.631   2.170
   73DMPC   H8S 8558   6.269   0.466   2.207
   73DMPC   C29 8559   6.096   0.530   2.324
   73DMPC   H9R 8560   6.056   0.428   2.344
   73DMPC   H9S 8561   6.009   0.598   2.310
   73DMPC  C210 8562   6.175   0.573   2.448
   73DMPC  H10R 8563   6.107   0.569   2.535
   73DMPC  H10S 8564   6.209   0.678   2.436
   73DMPC  C211 8565   0.006   0.483   2.476
   73DMPC  H11R 8566   0.087   0.510   2.406
   73DMPC  H11S 8567   6.267   0.378   2.456
   73DMPC  C212 8568   0.057   0.493   2.620
   73DMPC  H12R 8569   6.272   0.450   2.689
   73DMPC  H12S 8570   0.071   0.600   2.647
   73DMPC  C213 8571   0.191   0.420   2.643
   73DMPC  H13R 8572   0.216   0.423   2.751
   73DMPC  H13S 8573   0.270   0.476   2.588
   73DMPC  C214 8574   0.195   0.274   2.595
   73DMPC  H14R 8575   0.117   0.214   2.646
   73DMPC  H14S 8576   0.294   0.230   2.618
   73DMPC  H14T 8577   0.180   0.268   2.485
   73DMPC   C33 8578   0.161   5.673   2.448
   73DMPC   H3X 8579   0.251   5.688   2.514
   73DMPC   H3Y 8580   0.181   5.582   2.388
   73DMPC   C34 8581   0.041   5.648   2.542
   73DMPC   H4X 8582   0.059   5.550   2.592
   73DMPC   H4Y 8583   6.239   5.640   2.482
   73DMPC   C35 8584   0.024   5.756   2.650
   73DMPC   H5X 8585   6.283   5.851   2.601
   73DMPC   H5Y 8586   0.123   5.774   2.698
   73DMPC   C36 8587   6.214   5.723   2.762
   73DMPC   H6X 8588   6.115   5.701   2.716
   73DMPC   H6Y 8589   6.202   5.813   2.826
   73DMPC   C37 8590   6.256   5.605   2.851
   73DMPC   H7X 8591   0.067   5.623   2.891
   73DMPC   H7Y 8592   6.260   5.514   2.788
   73DMPC   C38 8593   6.160   5.577   2.968
   73DMPC   H8X 8594   6.173   5.470   2.996
   73DMPC   H8Y 8595   6.055   5.591   2.934
   73DMPC   C39 8596   6.186   5.660   3.095
   73DMPC   H9X 8597   6.168   5.768   3.073
   73DMPC   H9Y 8598   0.002   5.648   3.124
   73DMPC  C310 8599   6.097   5.615   3.212
   73DMPC  H10X 8600   6.111   5.506   3.227
   73DMPC  H10Y 8601   5.991   5.633   3.183
   73DMPC  C311 8602   6.125   5.686   3.345
   73DMPC  H11X 8603   6.111   5.795   3.332
   73DMPC  H11Y 8604   6.231   5.668   3.374
   73DMPC  C312 8605   6.033   5.638   3.459
   73DMPC  H12X 8606   6.047   5.528   3.472
   73DMPC  H12Y 8607   5.928   5.656   3.429
   73DMPC  C313 8608   6.060   5.707   3.593
   73DMPC  H13X 8609   6.051   5.817   3.579
   73DMPC  H13Y 8610   6.164   5.686   3.624
   73DMPC  C314 8611   5.965   5.665   3.706
   73DMPC  H14X 8612   5.989   5.720   3.799
   73DMPC  H14Y 8613   5.975   5.556   3.725
   73DMPC  H14Z 8614   5.860   5.687   3.678
   74DMPC     N 8615   4.071   2.498   1.482
   74DMPC   C13 8616   4.219   2.514   1.475
   74DMPC  H13A 8617   4.257   2.472   1.383
   74DMPC  H13B 8618   4.265   2.464   1.560
   74DMPC  H13C 8619   4.244   2.619   1.478
   74DMPC   C14 8620   4.007   2.568   1.367
   74DMPC  H14A 8621   3.901   2.548   1.368
   74DMPC  H14B 8622   4.050   2.534   1.274
   74DMPC  H14C 8623   4.024   2.674   1.377
   74DMPC   C15 8624   4.039   2.353   1.470
   74DMPC  H15A 8625   3.932   2.339   1.477
   74DMPC  H15B 8626   4.088   2.298   1.549
   74DMPC  H15C 8627   4.074   2.315   1.375
   74DMPC   C12 8628   4.018   2.551   1.612
   74DMPC  H12A 8629   4.047   2.482   1.690
   74DMPC  H12B 8630   3.910   2.551   1.605
   74DMPC   C11 8631   4.063   2.692   1.657
   74DMPC  H11A 8632   4.170   2.683   1.691
   74DMPC  H11B 8633   4.001   2.720   1.745
   74DMPC     P 8634   4.109   2.927   1.580
   74DMPC   O13 8635   4.081   3.016   1.464
   74DMPC   O14 8636   4.253   2.912   1.613
   74DMPC   O11 8637   4.031   2.975   1.708
   74DMPC   O12 8638   4.049   2.786   1.551
   74DMPC    C1 8639   4.018   3.113   1.744
   74DMPC    HA 8640   3.945   3.121   1.827
   74DMPC    HB 8641   3.977   3.173   1.659
   74DMPC    C2 8642   4.151   3.179   1.793
   74DMPC    HS 8643   4.219   3.176   1.705
   74DMPC   O21 8644   4.203   3.101   1.903
   74DMPC   C21 8645   4.333   3.114   1.917
   74DMPC   O22 8646   4.406   3.176   1.841
   74DMPC   C22 8647   4.380   3.042   2.043
   74DMPC   H2R 8648   4.364   2.933   2.029
   74DMPC   H2S 8649   4.320   3.075   2.131
   74DMPC    C3 8650   4.133   3.329   1.832
   74DMPC    HX 8651   4.089   3.381   1.744
   74DMPC    HY 8652   4.233   3.373   1.852
   74DMPC   O31 8653   4.047   3.346   1.948
   74DMPC   C31 8654   4.032   3.474   1.983
   74DMPC   O32 8655   4.083   3.568   1.924
   74DMPC   C32 8656   3.946   3.483   2.108
   74DMPC   H2X 8657   3.994   3.424   2.188
   74DMPC   H2Y 8658   3.846   3.441   2.087
   74DMPC   C23 8659   4.530   3.068   2.069
   74DMPC   H3R 8660   4.589   3.048   1.976
   74DMPC   H3S 8661   4.565   2.994   2.145
   74DMPC   C24 8662   4.563   3.209   2.122
   74DMPC   H4R 8663   4.515   3.221   2.222
   74DMPC   H4S 8664   4.520   3.285   2.054
   74DMPC   C25 8665   4.714   3.233   2.136
   74DMPC   H5R 8666   4.761   3.228   2.035
   74DMPC   H5S 8667   4.757   3.151   2.198
   74DMPC   C26 8668   4.753   3.367   2.202
   74DMPC   H6R 8669   4.865   3.372   2.205
   74DMPC   H6S 8670   4.716   3.367   2.307
   74DMPC   C27 8671   4.702   3.492   2.129
   74DMPC   H7R 8672   4.591   3.495   2.139
   74DMPC   H7S 8673   4.727   3.483   2.021
   74DMPC   C28 8674   4.759   3.624   2.183
   74DMPC   H8R 8675   4.714   3.707   2.124
   74DMPC   H8S 8676   4.869   3.626   2.166
   74DMPC   C29 8677   4.729   3.649   2.331
   74DMPC   H9R 8678   4.787   3.577   2.394
   74DMPC   H9S 8679   4.621   3.630   2.348
   74DMPC  C210 8680   4.760   3.793   2.377
   74DMPC  H10R 8681   4.706   3.863   2.311
   74DMPC  H10S 8682   4.869   3.812   2.367
   74DMPC  C211 8683   4.717   3.820   2.522
   74DMPC  H11R 8684   4.773   3.751   2.590
   74DMPC  H11S 8685   4.609   3.797   2.532
   74DMPC  C212 8686   4.741   3.965   2.566
   74DMPC  H12R 8687   4.695   4.032   2.490
   74DMPC  H12S 8688   4.851   3.985   2.567
   74DMPC  C213 8689   4.682   4.000   2.703
   74DMPC  H13R 8690   4.572   3.981   2.700
   74DMPC  H13S 8691   4.697   4.109   2.721
   74DMPC  C214 8692   4.741   3.923   2.822
   74DMPC  H14R 8693   4.851   3.940   2.828
   74DMPC  H14S 8694   4.721   3.814   2.812
   74DMPC  H14T 8695   4.695   3.958   2.917
   74DMPC   C33 8696   3.932   3.629   2.155
   74DMPC   H3X 8697   3.876   3.688   2.078
   74DMPC   H3Y 8698   4.033   3.675   2.167
   74DMPC   C34 8699   3.858   3.641   2.289
   74DMPC   H4X 8700   3.917   3.587   2.366
   74DMPC   H4Y 8701   3.759   3.592   2.280
   74DMPC   C35 8702   3.837   3.786   2.336
   74DMPC   H5X 8703   3.780   3.840   2.257
   74DMPC   H5Y 8704   3.936   3.837   2.344
   74DMPC   C36 8705   3.760   3.799   2.468
   74DMPC   H6X 8706   3.661   3.750   2.456
   74DMPC   H6Y 8707   3.742   3.907   2.488
   74DMPC   C37 8708   3.830   3.739   2.592
   74DMPC   H7X 8709   3.845   3.630   2.576
   74DMPC   H7Y 8710   3.762   3.751   2.679
   74DMPC   C38 8711   3.965   3.802   2.627
   74DMPC   H8X 8712   3.953   3.912   2.638
   74DMPC   H8Y 8713   4.035   3.784   2.543
   74DMPC   C39 8714   4.028   3.745   2.755
   74DMPC   H9X 8715   4.030   3.634   2.747
   74DMPC   H9Y 8716   3.965   3.773   2.842
   74DMPC  C310 8717   4.172   3.795   2.778
   74DMPC  H10X 8718   4.172   3.906   2.784
   74DMPC  H10Y 8719   4.234   3.766   2.691
   74DMPC  C311 8720   4.237   3.738   2.905
   74DMPC  H11X 8721   4.226   3.627   2.905
   74DMPC  H11Y 8722   4.184   3.778   2.994
   74DMPC  C312 8723   4.387   3.773   2.916
   74DMPC  H12X 8724   4.397   3.883   2.901
   74DMPC  H12Y 8725   4.443   3.723   2.834
   74DMPC  C313 8726   4.451   3.737   3.051
   74DMPC  H13X 8727   4.392   3.786   3.132
   74DMPC  H13Y 8728   4.553   3.780   3.053
   74DMPC  C314 8729   4.459   3.587   3.081
   74DMPC  H14X 8730   4.521   3.536   3.004
   74DMPC  H14Y 8731   4.358   3.541   3.081
   74DMPC  H14Z 8732   4.505   3.571   3.181
   75DMPC     N 8733   1.882   0.436   1.303
   75DMPC   C13 8734   1.878   0.290   1.334
   75DMPC  H13A 8735   1.969   0.262   1.386
   75DMPC  H13B 8736   1.871   0.233   1.243
   75DMPC  H13C 8737   1.793   0.270   1.398
   75DMPC   C14 8738   2.001   0.465   1.218
   75DMPC  H14A 8739   1.999   0.403   1.130
   75DMPC  H14B 8740   2.090   0.445   1.275
   75DMPC  H14C 8741   2.000   0.569   1.189
   75DMPC   C15 8742   1.760   0.469   1.224
   75DMPC  H15A 8743   1.672   0.440   1.279
   75DMPC  H15B 8744   1.762   0.416   1.130
   75DMPC  H15C 8745   1.757   0.576   1.204
   75DMPC   C12 8746   1.883   0.518   1.430
   75DMPC  H12A 8747   1.787   0.503   1.478
   75DMPC  H12B 8748   1.891   0.622   1.402
   75DMPC   C11 8749   1.992   0.488   1.536
   75DMPC  H11A 8750   1.976   0.385   1.575
   75DMPC  H11B 8751   1.975   0.561   1.619
   75DMPC     P 8752   2.243   0.477   1.578
   75DMPC   O13 8753   2.361   0.545   1.520
   75DMPC   O14 8754   2.256   0.332   1.602
   75DMPC   O11 8755   2.200   0.549   1.711
   75DMPC   O12 8756   2.122   0.502   1.480
   75DMPC    C1 8757   2.284   0.645   1.776
   75DMPC    HA 8758   2.224   0.694   1.856
   75DMPC    HB 8759   2.316   0.726   1.707
   75DMPC    C2 8760   2.410   0.586   1.849
   75DMPC    HS 8761   2.486   0.567   1.769
   75DMPC   O21 8762   2.371   0.464   1.913
   75DMPC   C21 8763   2.473   0.388   1.947
   75DMPC   O22 8764   2.591   0.415   1.930
   75DMPC   C22 8765   2.421   0.260   2.013
   75DMPC   H2R 8766   2.504   0.187   2.020
   75DMPC   H2S 8767   2.342   0.216   1.948
   75DMPC    C3 8768   2.469   0.690   1.950
   75DMPC    HX 8769   2.493   0.782   1.893
   75DMPC    HY 8770   2.566   0.651   1.988
   75DMPC   O31 8771   2.373   0.724   2.053
   75DMPC   C31 8772   2.415   0.714   2.179
   75DMPC   O32 8773   2.528   0.686   2.214
   75DMPC   C32 8774   2.297   0.740   2.274
   75DMPC   H2X 8775   2.208   0.688   2.233
   75DMPC   H2Y 8776   2.276   0.849   2.277
   75DMPC   C23 8777   2.362   0.289   2.152
   75DMPC   H3R 8778   2.312   0.196   2.187
   75DMPC   H3S 8779   2.284   0.368   2.144
   75DMPC   C24 8780   2.463   0.330   2.260
   75DMPC   H4R 8781   2.407   0.350   2.354
   75DMPC   H4S 8782   2.513   0.424   2.230
   75DMPC   C25 8783   2.572   0.225   2.289
   75DMPC   H5R 8784   2.631   0.208   2.196
   75DMPC   H5S 8785   2.525   0.128   2.316
   75DMPC   C26 8786   2.670   0.268   2.399
   75DMPC   H6R 8787   2.708   0.369   2.375
   75DMPC   H6S 8788   2.758   0.199   2.398
   75DMPC   C27 8789   2.612   0.269   2.542
   75DMPC   H7R 8790   2.520   0.331   2.546
   75DMPC   H7S 8791   2.688   0.317   2.608
   75DMPC   C28 8792   2.584   0.128   2.598
   75DMPC   H8R 8793   2.675   0.066   2.580
   75DMPC   H8S 8794   2.499   0.081   2.545
   75DMPC   C29 8795   2.558   0.126   2.750
   75DMPC   H9R 8796   2.636   0.188   2.800
   75DMPC   H9S 8797   2.568   0.022   2.787
   75DMPC  C210 8798   2.419   0.177   2.791
   75DMPC  H10R 8799   2.343   0.105   2.756
   75DMPC  H10S 8800   2.399   0.275   2.743
   75DMPC  C211 8801   2.406   0.195   2.943
   75DMPC  H11R 8802   2.472   0.279   2.974
   75DMPC  H11S 8803   2.443   0.102   2.994
   75DMPC  C212 8804   2.263   0.222   2.991
   75DMPC  H12R 8805   2.203   0.130   2.978
   75DMPC  H12S 8806   2.218   0.302   2.928
   75DMPC  C213 8807   2.256   0.266   3.138
   75DMPC  H13R 8808   2.307   0.364   3.148
   75DMPC  H13S 8809   2.313   0.192   3.200
   75DMPC  C214 8810   2.114   0.277   3.194
   75DMPC  H14R 8811   2.054   0.348   3.135
   75DMPC  H14S 8812   2.117   0.313   3.299
   75DMPC  H14T 8813   2.064   0.178   3.192
   75DMPC   C33 8814   2.326   0.686   2.415
   75DMPC   H3X 8815   2.367   0.583   2.408
   75DMPC   H3Y 8816   2.229   0.680   2.470
   75DMPC   C34 8817   2.420   0.775   2.498
   75DMPC   H4X 8818   2.370   0.871   2.521
   75DMPC   H4Y 8819   2.511   0.798   2.438
   75DMPC   C35 8820   2.466   0.710   2.630
   75DMPC   H5X 8821   2.503   0.607   2.607
   75DMPC   H5Y 8822   2.380   0.701   2.699
   75DMPC   C36 8823   2.580   0.788   2.697
   75DMPC   H6X 8824   2.545   0.890   2.725
   75DMPC   H6Y 8825   2.662   0.801   2.622
   75DMPC   C37 8826   2.640   0.719   2.820
   75DMPC   H7X 8827   2.737   0.769   2.844
   75DMPC   H7Y 8828   2.662   0.613   2.797
   75DMPC   C38 8829   2.551   0.727   2.945
   75DMPC   H8X 8830   2.455   0.673   2.926
   75DMPC   H8Y 8831   2.527   0.835   2.962
   75DMPC   C39 8832   2.618   0.670   3.070
   75DMPC   H9X 8833   2.718   0.718   3.083
   75DMPC   H9Y 8834   2.635   0.561   3.055
   75DMPC  C310 8835   2.538   0.689   3.200
   75DMPC  H10X 8836   2.594   0.639   3.283
   75DMPC  H10Y 8837   2.439   0.639   3.191
   75DMPC  C311 8838   2.517   0.836   3.239
   75DMPC  H11X 8839   2.450   0.885   3.164
   75DMPC  H11Y 8840   2.615   0.889   3.236
   75DMPC  C312 8841   2.456   0.854   3.379
   75DMPC  H12X 8842   2.523   0.806   3.453
   75DMPC  H12Y 8843   2.357   0.802   3.382
   75DMPC  C313 8844   2.436   1.002   3.417
   75DMPC  H13X 8845   2.368   1.049   3.342
   75DMPC  H13Y 8846   2.534   1.054   3.412
   75DMPC  C314 8847   2.377   1.023   3.557
   75DMPC  H14X 8848   2.446   0.984   3.634
   75DMPC  H14Y 8849   2.280   0.970   3.566
   75DMPC  H14Z 8850   2.360   1.131   3.576
   76DMPC     N 8851   1.252   3.293   1.275
   76DMPC   C13 8852   1.378   3.225   1.315
   76DMPC  H13A 8853   1.393   3.139   1.251
   76DMPC  H13B 8854   1.370   3.193   1.418
   76DMPC  H13C 8855   1.461   3.293   1.306
   76DMPC   C14 8856   1.236   3.418   1.355
   76DMPC  H14A 8857   1.233   3.393   1.460
   76DMPC  H14B 8858   1.143   3.466   1.327
   76DMPC  H14C 8859   1.318   3.485   1.335
   76DMPC   C15 8860   1.264   3.331   1.131
   76DMPC  H15A 8861   1.176   3.384   1.099
   76DMPC  H15B 8862   1.277   3.241   1.072
   76DMPC  H15C 8863   1.350   3.394   1.117
   76DMPC   C12 8864   1.133   3.202   1.294
   76DMPC  H12A 8865   1.154   3.110   1.241
   76DMPC  H12B 8866   1.049   3.249   1.245
   76DMPC   C11 8867   1.090   3.168   1.438
   76DMPC  H11A 8868   1.000   3.103   1.434
   76DMPC  H11B 8869   1.057   3.262   1.489
   76DMPC     P 8870   1.202   2.960   1.539
   76DMPC   O13 8871   1.341   2.925   1.577
   76DMPC   O14 8872   1.143   2.885   1.427
   76DMPC   O11 8873   1.110   2.941   1.666
   76DMPC   O12 8874   1.198   3.113   1.513
   76DMPC    C1 8875   1.087   3.042   1.764
   76DMPC    HA 8876   1.009   3.003   1.833
   76DMPC    HB 8877   1.045   3.134   1.717
   76DMPC    C2 8878   1.210   3.081   1.853
   76DMPC    HS 8879   1.276   3.143   1.788
   76DMPC   O21 8880   1.278   2.960   1.890
   76DMPC   C21 8881   1.401   2.979   1.934
   76DMPC   O22 8882   1.456   3.087   1.944
   76DMPC   C22 8883   1.461   2.843   1.968
   76DMPC   H2R 8884   1.478   2.788   1.873
   76DMPC   H2S 8885   1.388   2.786   2.029
   76DMPC    C3 8886   1.169   3.168   1.977
   76DMPC    HX 8887   1.121   3.260   1.940
   76DMPC    HY 8888   1.261   3.202   2.029
   76DMPC   O31 8889   1.089   3.096   2.075
   76DMPC   C31 8890   0.958   3.123   2.078
   76DMPC   O32 8891   0.901   3.204   2.006
   76DMPC   C32 8892   0.890   3.035   2.182
   76DMPC   H2X 8893   0.941   2.936   2.185
   76DMPC   H2Y 8894   0.785   3.019   2.152
   76DMPC   C23 8895   1.594   2.851   2.044
   76DMPC   H3R 8896   1.578   2.904   2.140
   76DMPC   H3S 8897   1.669   2.908   1.985
   76DMPC   C24 8898   1.650   2.710   2.072
   76DMPC   H4R 8899   1.676   2.664   1.974
   76DMPC   H4S 8900   1.570   2.648   2.117
   76DMPC   C25 8901   1.773   2.705   2.163
   76DMPC   H5R 8902   1.850   2.775   2.125
   76DMPC   H5S 8903   1.815   2.602   2.156
   76DMPC   C26 8904   1.744   2.733   2.311
   76DMPC   H6R 8905   1.656   2.672   2.342
   76DMPC   H6S 8906   1.717   2.840   2.324
   76DMPC   C27 8907   1.862   2.698   2.402
   76DMPC   H7R 8908   1.949   2.763   2.378
   76DMPC   H7S 8909   1.892   2.593   2.381
   76DMPC   C28 8910   1.832   2.707   2.553
   76DMPC   H8R 8911   1.918   2.663   2.608
   76DMPC   H8S 8912   1.742   2.646   2.575
   76DMPC   C29 8913   1.811   2.851   2.604
   76DMPC   H9R 8914   1.718   2.893   2.560
   76DMPC   H9S 8915   1.896   2.913   2.570
   76DMPC  C210 8916   1.804   2.861   2.758
   76DMPC  H10R 8917   1.794   2.968   2.785
   76DMPC  H10S 8918   1.899   2.823   2.800
   76DMPC  C211 8919   1.687   2.782   2.821
   76DMPC  H11R 8920   1.697   2.675   2.794
   76DMPC  H11S 8921   1.591   2.819   2.779
   76DMPC  C212 8922   1.682   2.790   2.975
   76DMPC  H12R 8923   1.779   2.753   3.016
   76DMPC  H12S 8924   1.603   2.721   3.011
   76DMPC  C213 8925   1.654   2.930   3.034
   76DMPC  H13R 8926   1.735   2.999   3.003
   76DMPC  H13S 8927   1.657   2.921   3.145
   76DMPC  C214 8928   1.519   2.990   2.994
   76DMPC  H14R 8929   1.514   3.007   2.884
   76DMPC  H14S 8930   1.504   3.088   3.045
   76DMPC  H14T 8931   1.436   2.923   3.023
   76DMPC   C33 8932   0.894   3.100   2.322
   76DMPC   H3X 8933   0.828   3.189   2.321
   76DMPC   H3Y 8934   0.997   3.134   2.345
   76DMPC   C34 8935   0.849   3.006   2.436
   76DMPC   H4X 8936   0.846   3.065   2.530
   76DMPC   H4Y 8937   0.926   2.926   2.448
   76DMPC   C35 8938   0.713   2.940   2.411
   76DMPC   H5X 8939   0.721   2.872   2.324
   76DMPC   H5Y 8940   0.639   3.019   2.386
   76DMPC   C36 8941   0.658   2.858   2.529
   76DMPC   H6X 8942   0.732   2.781   2.560
   76DMPC   H6Y 8943   0.567   2.804   2.493
   76DMPC   C37 8944   0.616   2.942   2.651
   76DMPC   H7X 8945   0.569   3.036   2.613
   76DMPC   H7Y 8946   0.706   2.971   2.709
   76DMPC   C38 8947   0.512   2.874   2.742
   76DMPC   H8X 8948   0.424   2.849   2.678
   76DMPC   H8Y 8949   0.478   2.946   2.819
   76DMPC   C39 8950   0.558   2.744   2.811
   76DMPC   H9X 8951   0.637   2.694   2.752
   76DMPC   H9Y 8952   0.471   2.676   2.815
   76DMPC  C310 8953   0.605   2.763   2.957
   76DMPC  H10X 8954   0.617   2.662   3.002
   76DMPC  H10Y 8955   0.525   2.816   3.014
   76DMPC  C311 8956   0.737   2.839   2.973
   76DMPC  H11X 8957   0.726   2.941   2.931
   76DMPC  H11Y 8958   0.816   2.786   2.916
   76DMPC  C312 8959   0.781   2.852   3.120
   76DMPC  H12X 8960   0.791   2.750   3.164
   76DMPC  H12Y 8961   0.702   2.907   3.176
   76DMPC  C313 8962   0.915   2.926   3.137
   76DMPC  H13X 8963   0.908   3.024   3.084
   76DMPC  H13Y 8964   0.995   2.867   3.087
   76DMPC  C314 8965   0.955   2.951   3.282
   76DMPC  H14X 8966   0.964   2.854   3.337
   76DMPC  H14Y 8967   0.878   3.013   3.333
   76DMPC  H14Z 8968   1.052   3.004   3.287
   77DMPC     N 8969   0.253   2.153   1.753
   77DMPC   C13 8970   0.346   2.215   1.851
   77DMPC  H13A 8971   0.421   2.271   1.797
   77DMPC  H13B 8972   0.394   2.136   1.907
   77DMPC  H13C 8973   0.292   2.281   1.917
   77DMPC   C14 8974   0.154   2.072   1.829
   77DMPC  H14A 8975   0.085   2.025   1.760
   77DMPC  H14B 8976   0.097   2.135   1.896
   77DMPC  H14C 8977   0.206   1.996   1.885
   77DMPC   C15 8978   0.180   2.259   1.679
   77DMPC  H15A 8979   0.117   2.315   1.746
   77DMPC  H15B 8980   0.117   2.214   1.603
   77DMPC  H15C 8981   0.251   2.327   1.632
   77DMPC   C12 8982   0.327   2.063   1.657
   77DMPC  H12A 8983   0.253   2.007   1.602
   77DMPC  H12B 8984   0.385   1.993   1.716
   77DMPC   C11 8985   0.423   2.129   1.555
   77DMPC  H11A 8986   0.361   2.193   1.487
   77DMPC  H11B 8987   0.468   2.048   1.493
   77DMPC     P 8988   0.588   2.320   1.546
   77DMPC   O13 8989   0.483   2.423   1.533
   77DMPC   O14 8990   0.650   2.271   1.420
   77DMPC   O11 8991   0.699   2.373   1.644
   77DMPC   O12 8992   0.527   2.199   1.623
   77DMPC    C1 8993   0.820   2.300   1.673
   77DMPC    HA 8994   0.904   2.373   1.666
   77DMPC    HB 8995   0.842   2.220   1.598
   77DMPC    C2 8996   0.826   2.238   1.816
   77DMPC    HS 8997   0.782   2.136   1.808
   77DMPC   O21 8998   0.747   2.322   1.902
   77DMPC   C21 8999   0.697   2.261   2.007
   77DMPC   O22 9000   0.704   2.141   2.028
   77DMPC   C22 9001   0.623   2.363   2.093
   77DMPC   H2R 9002   0.526   2.388   2.044
   77DMPC   H2S 9003   0.683   2.456   2.100
   77DMPC    C3 9004   0.975   2.228   1.865
   77DMPC    HX 9005   1.015   2.331   1.866
   77DMPC    HY 9006   1.034   2.172   1.789
   77DMPC   O31 9007   0.992   2.173   1.998
   77DMPC   C31 9008   0.986   2.040   2.003
   77DMPC   O32 9009   0.977   1.968   1.904
   77DMPC   C32 9010   0.986   1.989   2.148
   77DMPC   H2X 9011   1.070   1.917   2.160
   77DMPC   H2Y 9012   0.891   1.934   2.164
   77DMPC   C23 9013   0.597   2.308   2.234
   77DMPC   H3R 9014   0.694   2.284   2.282
   77DMPC   H3S 9015   0.537   2.214   2.227
   77DMPC   C24 9016   0.521   2.408   2.323
   77DMPC   H4R 9017   0.582   2.500   2.335
   77DMPC   H4S 9018   0.426   2.436   2.273
   77DMPC   C25 9019   0.488   2.351   2.462
   77DMPC   H5R 9020   0.583   2.322   2.513
   77DMPC   H5S 9021   0.427   2.259   2.449
   77DMPC   C26 9022   0.412   2.450   2.552
   77DMPC   H6R 9023   0.320   2.483   2.499
   77DMPC   H6S 9024   0.477   2.540   2.567
   77DMPC   C27 9025   0.373   2.394   2.689
   77DMPC   H7R 9026   0.332   2.477   2.751
   77DMPC   H7S 9027   0.464   2.356   2.740
   77DMPC   C28 9028   0.268   2.282   2.683
   77DMPC   H8R 9029   0.307   2.199   2.620
   77DMPC   H8S 9030   0.176   2.321   2.635
   77DMPC   C29 9031   0.231   2.226   2.822
   77DMPC   H9R 9032   0.198   2.311   2.886
   77DMPC   H9S 9033   0.322   2.182   2.868
   77DMPC  C210 9034   0.120   2.120   2.820
   77DMPC  H10R 9035   0.029   2.166   2.775
   77DMPC  H10S 9036   0.096   2.093   2.925
   77DMPC  C211 9037   0.154   1.992   2.742
   77DMPC  H11R 9038   0.245   1.946   2.786
   77DMPC  H11S 9039   0.177   2.019   2.637
   77DMPC  C212 9040   0.040   1.889   2.738
   77DMPC  H12R 9041   0.072   1.804   2.674
   77DMPC  H12S 9042   6.242   1.936   2.691
   77DMPC  C213 9043   6.289   1.831   2.875
   77DMPC  H13R 9044   6.207   1.759   2.858
   77DMPC  H13S 9045   6.248   1.913   2.938
   77DMPC  C214 9046   0.110   1.761   2.952
   77DMPC  H14R 9047   0.191   1.832   2.980
   77DMPC  H14S 9048   0.155   1.680   2.891
   77DMPC  H14T 9049   0.070   1.716   3.046
   77DMPC   C33 9050   0.997   2.102   2.252
   77DMPC   H3X 9051   0.924   2.183   2.229
   77DMPC   H3Y 9052   1.099   2.146   2.247
   77DMPC   C34 9053   0.969   2.058   2.397
   77DMPC   H4X 9054   0.991   2.145   2.463
   77DMPC   H4Y 9055   1.037   1.975   2.426
   77DMPC   C35 9056   0.823   2.016   2.419
   77DMPC   H5X 9057   0.807   1.913   2.381
   77DMPC   H5Y 9058   0.758   2.084   2.359
   77DMPC   C36 9059   0.776   2.026   2.565
   77DMPC   H6X 9060   0.798   2.128   2.602
   77DMPC   H6Y 9061   0.832   1.954   2.628
   77DMPC   C37 9062   0.625   2.000   2.579
   77DMPC   H7X 9063   0.604   1.893   2.557
   77DMPC   H7Y 9064   0.573   2.061   2.501
   77DMPC   C38 9065   0.564   2.037   2.715
   77DMPC   H8X 9066   0.454   2.025   2.707
   77DMPC   H8Y 9067   0.584   2.144   2.736
   77DMPC   C39 9068   0.613   1.952   2.833
   77DMPC   H9X 9069   0.720   1.974   2.852
   77DMPC   H9Y 9070   0.604   1.844   2.805
   77DMPC  C310 9071   0.531   1.977   2.961
   77DMPC  H10X 9072   0.426   1.947   2.943
   77DMPC  H10Y 9073   0.532   2.086   2.982
   77DMPC  C311 9074   0.583   1.902   3.085
   77DMPC  H11X 9075   0.523   1.937   3.172
   77DMPC  H11Y 9076   0.689   1.931   3.103
   77DMPC  C312 9077   0.574   1.749   3.074
   77DMPC  H12X 9078   0.635   1.716   2.988
   77DMPC  H12Y 9079   0.468   1.721   3.054
   77DMPC  C313 9080   0.622   1.674   3.200
   77DMPC  H13X 9081   0.728   1.701   3.217
   77DMPC  H13Y 9082   0.618   1.565   3.178
   77DMPC  C314 9083   0.542   1.701   3.328
   77DMPC  H14X 9084   0.435   1.676   3.312
   77DMPC  H14Y 9085   0.550   1.808   3.358
   77DMPC  H14Z 9086   0.581   1.638   3.411
   78DMPC     N 9087   2.623   3.718   1.612
   78DMPC   C13 9088   2.563   3.693   1.746
   78DMPC  H13A 9089   2.584   3.776   1.811
   78DMPC  H13B 9090   2.604   3.602   1.787
   78DMPC  H13C 9091   2.456   3.684   1.735
   78DMPC   C14 9092   2.583   3.607   1.521
   78DMPC  H14A 9093   2.620   3.513   1.560
   78DMPC  H14B 9094   2.626   3.623   1.423
   78DMPC  H14C 9095   2.475   3.603   1.513
   78DMPC   C15 9096   2.567   3.845   1.558
   78DMPC  H15A 9097   2.601   3.859   1.456
   78DMPC  H15B 9098   2.601   3.927   1.618
   78DMPC  H15C 9099   2.459   3.841   1.561
   78DMPC   C12 9100   2.773   3.723   1.619
   78DMPC  H12A 9101   2.810   3.739   1.518
   78DMPC  H12B 9102   2.806   3.625   1.651
   78DMPC   C11 9103   2.841   3.826   1.711
   78DMPC  H11A 9104   2.951   3.804   1.707
   78DMPC  H11B 9105   2.807   3.812   1.816
   78DMPC     P 9106   2.911   4.072   1.702
   78DMPC   O13 9107   3.021   4.072   1.603
   78DMPC   O14 9108   2.834   4.198   1.717
   78DMPC   O11 9109   2.969   4.031   1.843
   78DMPC   O12 9110   2.810   3.958   1.668
   78DMPC    C1 9111   2.896   4.053   1.964
   78DMPC    HA 9112   2.882   3.955   2.016
   78DMPC    HB 9113   2.794   4.095   1.946
   78DMPC    C2 9114   2.969   4.149   2.062
   78DMPC    HS 9115   2.998   4.239   2.002
   78DMPC   O21 9116   3.085   4.081   2.113
   78DMPC   C21 9117   3.172   4.163   2.169
   78DMPC   O22 9118   3.165   4.285   2.164
   78DMPC   C22 9119   3.279   4.082   2.240
   78DMPC   H2R 9120   3.323   4.010   2.167
   78DMPC   H2S 9121   3.233   4.023   2.322
   78DMPC    C3 9122   2.875   4.197   2.179
   78DMPC    HX 9123   2.784   4.245   2.134
   78DMPC    HY 9124   2.927   4.278   2.234
   78DMPC   O31 9125   2.843   4.092   2.273
   78DMPC   C31 9126   2.732   4.024   2.249
   78DMPC   O32 9127   2.656   4.045   2.155
   78DMPC   C32 9128   2.716   3.912   2.352
   78DMPC   H2X 9129   2.676   3.957   2.445
   78DMPC   H2Y 9130   2.815   3.867   2.374
   78DMPC   C23 9131   3.392   4.173   2.294
   78DMPC   H3R 9132   3.425   4.243   2.215
   78DMPC   H3S 9133   3.479   4.108   2.318
   78DMPC   C24 9134   3.357   4.253   2.421
   78DMPC   H4R 9135   3.271   4.320   2.400
   78DMPC   H4S 9136   3.444   4.317   2.446
   78DMPC   C25 9137   3.323   4.169   2.546
   78DMPC   H5R 9138   3.230   4.111   2.528
   78DMPC   H5S 9139   3.303   4.239   2.630
   78DMPC   C26 9140   3.435   4.073   2.588
   78DMPC   H6R 9141   3.530   4.130   2.595
   78DMPC   H6S 9142   3.448   3.994   2.511
   78DMPC   C27 9143   3.409   4.004   2.724
   78DMPC   H7R 9144   3.317   3.944   2.717
   78DMPC   H7S 9145   3.394   4.083   2.801
   78DMPC   C28 9146   3.526   3.915   2.767
   78DMPC   H8R 9147   3.540   3.834   2.692
   78DMPC   H8S 9148   3.619   3.976   2.770
   78DMPC   C29 9149   3.506   3.851   2.906
   78DMPC   H9R 9150   3.418   3.782   2.902
   78DMPC   H9S 9151   3.483   3.931   2.979
   78DMPC  C210 9152   3.630   3.774   2.954
   78DMPC  H10R 9153   3.650   3.688   2.887
   78DMPC  H10S 9154   3.717   3.843   2.947
   78DMPC  C211 9155   3.620   3.725   3.100
   78DMPC  H11R 9156   3.591   3.811   3.165
   78DMPC  H11S 9157   3.722   3.692   3.131
   78DMPC  C212 9158   3.522   3.609   3.121
   78DMPC  H12R 9159   3.558   3.522   3.063
   78DMPC  H12S 9160   3.422   3.638   3.081
   78DMPC  C213 9161   3.503   3.568   3.268
   78DMPC  H13R 9162   3.437   3.479   3.271
   78DMPC  H13S 9163   3.451   3.650   3.321
   78DMPC  C214 9164   3.633   3.537   3.344
   78DMPC  H14R 9165   3.609   3.504   3.448
   78DMPC  H14S 9166   3.698   3.627   3.351
   78DMPC  H14T 9167   3.689   3.456   3.293
   78DMPC   C33 9168   2.619   3.804   2.302
   78DMPC   H3X 9169   2.524   3.851   2.268
   78DMPC   H3Y 9170   2.595   3.738   2.388
   78DMPC   C34 9171   2.676   3.715   2.190
   78DMPC   H4X 9172   2.774   3.674   2.224
   78DMPC   H4Y 9173   2.695   3.777   2.099
   78DMPC   C35 9174   2.585   3.597   2.152
   78DMPC   H5X 9175   2.573   3.531   2.241
   78DMPC   H5Y 9176   2.636   3.538   2.072
   78DMPC   C36 9177   2.445   3.637   2.101
   78DMPC   H6X 9178   2.456   3.709   2.018
   78DMPC   H6Y 9179   2.389   3.687   2.183
   78DMPC   C37 9180   2.365   3.516   2.052
   78DMPC   H7X 9181   2.353   3.444   2.136
   78DMPC   H7Y 9182   2.424   3.466   1.972
   78DMPC   C38 9183   2.226   3.548   1.995
   78DMPC   H8X 9184   2.181   3.452   1.959
   78DMPC   H8Y 9185   2.236   3.615   1.908
   78DMPC   C39 9186   2.129   3.611   2.097
   78DMPC   H9X 9187   2.162   3.715   2.119
   78DMPC   H9Y 9188   2.135   3.552   2.192
   78DMPC  C310 9189   1.983   3.612   2.049
   78DMPC  H10X 9190   1.948   3.507   2.039
   78DMPC  H10Y 9191   1.979   3.658   1.948
   78DMPC  C311 9192   1.886   3.688   2.141
   78DMPC  H11X 9193   1.783   3.674   2.101
   78DMPC  H11Y 9194   1.909   3.797   2.136
   78DMPC  C312 9195   1.891   3.645   2.288
   78DMPC  H12X 9196   1.992   3.670   2.328
   78DMPC  H12Y 9197   1.878   3.534   2.295
   78DMPC  C313 9198   1.786   3.713   2.379
   78DMPC  H13X 9199   1.794   3.823   2.365
   78DMPC  H13Y 9200   1.812   3.690   2.484
   78DMPC  C314 9201   1.641   3.669   2.355
   78DMPC  H14X 9202   1.609   3.694   2.251
   78DMPC  H14Y 9203   1.573   3.720   2.426
   78DMPC  H14Z 9204   1.631   3.559   2.369
   79DMPC     N 9205   5.769   1.322   0.915
   79DMPC   C13 9206   5.711   1.276   0.786
   79DMPC  H13A 9207   5.784   1.286   0.707
   79DMPC  H13B 9208   5.624   1.336   0.762
   79DMPC  H13C 9209   5.680   1.172   0.793
   79DMPC   C14 9210   5.801   1.466   0.902
   79DMPC  H14A 9211   5.847   1.501   0.994
   79DMPC  H14B 9212   5.710   1.523   0.887
   79DMPC  H14C 9213   5.869   1.483   0.820
   79DMPC   C15 9214   5.667   1.302   1.022
   79DMPC  H15A 9215   5.708   1.336   1.116
   79DMPC  H15B 9216   5.641   1.197   1.029
   79DMPC  H15C 9217   5.579   1.360   0.998
   79DMPC   C12 9218   5.894   1.243   0.944
   79DMPC  H12A 9219   5.969   1.273   0.872
   79DMPC  H12B 9220   5.872   1.138   0.924
   79DMPC   C11 9221   5.956   1.252   1.085
   79DMPC  H11A 9222   6.054   1.198   1.081
   79DMPC  H11B 9223   5.888   1.197   1.155
   79DMPC     P 9224   6.021   1.408   1.273
   79DMPC   O13 9225   6.032   1.553   1.299
   79DMPC   O14 9226   6.144   1.327   1.296
   79DMPC   O11 9227   5.903   1.346   1.357
   79DMPC   O12 9228   5.973   1.387   1.125
   79DMPC    C1 9229   5.775   1.411   1.368
   79DMPC    HA 9230   5.697   1.332   1.377
   79DMPC    HB 9231   5.751   1.470   1.277
   79DMPC    C2 9232   5.762   1.502   1.494
   79DMPC    HS 9233   5.832   1.587   1.479
   79DMPC   O21 9234   5.796   1.421   1.608
   79DMPC   C21 9235   5.852   1.488   1.706
   79DMPC   O22 9236   5.883   1.606   1.702
   79DMPC   C22 9237   5.870   1.396   1.827
   79DMPC   H2R 9238   5.973   1.355   1.825
   79DMPC   H2S 9239   5.798   1.312   1.821
   79DMPC    C3 9240   5.616   1.558   1.506
   79DMPC    HX 9241   5.548   1.471   1.494
   79DMPC    HY 9242   5.596   1.625   1.421
   79DMPC   O31 9243   5.587   1.618   1.635
   79DMPC   C31 9244   5.615   1.747   1.644
   79DMPC   O32 9245   5.655   1.818   1.553
   79DMPC   C32 9246   5.591   1.793   1.788
   79DMPC   H2X 9247   5.635   1.718   1.858
   79DMPC   H2Y 9248   5.481   1.798   1.806
   79DMPC   C23 9249   5.848   1.475   1.957
   79DMPC   H3R 9250   5.746   1.520   1.958
   79DMPC   H3S 9251   5.921   1.559   1.962
   79DMPC   C24 9252   5.867   1.390   2.084
   79DMPC   H4R 9253   5.869   1.459   2.172
   79DMPC   H4S 9254   5.966   1.341   2.078
   79DMPC   C25 9255   5.761   1.281   2.109
   79DMPC   H5R 9256   5.791   1.225   2.200
   79DMPC   H5S 9257   5.762   1.209   2.024
   79DMPC   C26 9258   5.617   1.331   2.129
   79DMPC   H6R 9259   5.553   1.243   2.154
   79DMPC   H6S 9260   5.579   1.374   2.034
   79DMPC   C27 9261   5.601   1.436   2.241
   79DMPC   H7R 9262   5.652   1.530   2.208
   79DMPC   H7S 9263   5.652   1.399   2.332
   79DMPC   C28 9264   5.454   1.466   2.275
   79DMPC   H8R 9265   5.409   1.372   2.315
   79DMPC   H8S 9266   5.400   1.492   2.182
   79DMPC   C29 9267   5.435   1.578   2.378
   79DMPC   H9R 9268   5.495   1.556   2.469
   79DMPC   H9S 9269   5.327   1.580   2.407
   79DMPC  C210 9270   5.471   1.718   2.324
   79DMPC  H10R 9271   5.418   1.732   2.227
   79DMPC  H10S 9272   5.580   1.723   2.303
   79DMPC  C211 9273   5.430   1.834   2.416
   79DMPC  H11R 9274   5.322   1.824   2.438
   79DMPC  H11S 9275   5.446   1.929   2.362
   79DMPC  C212 9276   5.506   1.842   2.550
   79DMPC  H12R 9277   5.489   1.748   2.608
   79DMPC  H12S 9278   5.462   1.925   2.609
   79DMPC  C213 9279   5.657   1.867   2.535
   79DMPC  H13R 9280   5.671   1.957   2.471
   79DMPC  H13S 9281   5.703   1.780   2.484
   79DMPC  C214 9282   5.729   1.889   2.668
   79DMPC  H14R 9283   5.838   1.904   2.651
   79DMPC  H14S 9284   5.716   1.801   2.735
   79DMPC  H14T 9285   5.689   1.979   2.720
   79DMPC   C33 9286   5.655   1.930   1.811
   79DMPC   H3X 9287   5.618   2.002   1.734
   79DMPC   H3Y 9288   5.765   1.922   1.800
   79DMPC   C34 9289   5.622   1.991   1.949
   79DMPC   H4X 9290   5.512   2.009   1.954
   79DMPC   H4Y 9291   5.673   2.090   1.955
   79DMPC   C35 9292   5.664   1.908   2.070
   79DMPC   H5X 9293   5.609   1.811   2.072
   79DMPC   H5Y 9294   5.635   1.965   2.161
   79DMPC   C36 9295   5.815   1.880   2.078
   79DMPC   H6X 9296   5.870   1.974   2.052
   79DMPC   H6Y 9297   5.844   1.803   2.003
   79DMPC   C37 9298   5.860   1.836   2.218
   79DMPC   H7X 9299   5.816   1.736   2.241
   79DMPC   H7Y 9300   5.820   1.909   2.292
   79DMPC   C38 9301   6.012   1.830   2.236
   79DMPC   H8X 9302   6.054   1.929   2.206
   79DMPC   H8Y 9303   6.055   1.753   2.169
   79DMPC   C39 9304   6.056   1.803   2.381
   79DMPC   H9X 9305   6.000   1.872   2.449
   79DMPC   H9Y 9306   6.164   1.826   2.391
   79DMPC  C310 9307   6.034   1.658   2.427
   79DMPC  H10X 9308   6.102   1.592   2.369
   79DMPC  H10Y 9309   5.929   1.628   2.404
   79DMPC  C311 9310   6.059   1.638   2.577
   79DMPC  H11X 9311   5.978   1.687   2.634
   79DMPC  H11Y 9312   6.154   1.688   2.604
   79DMPC  C312 9313   6.069   1.490   2.622
   79DMPC  H12X 9314   6.084   1.491   2.732
   79DMPC  H12Y 9315   6.159   1.443   2.577
   79DMPC  C313 9316   5.946   1.403   2.591
   79DMPC  H13X 9317   5.854   1.466   2.598
   79DMPC  H13Y 9318   5.940   1.326   2.671
   79DMPC  C314 9319   5.949   1.330   2.457
   79DMPC  H14X 9320   6.040   1.267   2.450
   79DMPC  H14Y 9321   5.950   1.401   2.373
   79DMPC  H14Z 9322   5.860   1.264   2.447
   80DMPC     N 9323   3.211   2.213   1.640
   80DMPC   C13 9324   3.107   2.268   1.549
   80DMPC  H13A 9325   3.015   2.212   1.560
   80DMPC  H13B 9326   3.141   2.262   1.447
   80DMPC  H13C 9327   3.088   2.372   1.574
   80DMPC   C14 9328   3.340   2.284   1.618
   80DMPC  H14A 9329   3.378   2.259   1.520
   80DMPC  H14B 9330   3.411   2.252   1.694
   80DMPC  H14C 9331   3.324   2.390   1.626
   80DMPC   C15 9332   3.168   2.239   1.780
   80DMPC  H15A 9333   3.245   2.206   1.848
   80DMPC  H15B 9334   3.076   2.186   1.799
   80DMPC  H15C 9335   3.152   2.345   1.794
   80DMPC   C12 9336   3.224   2.064   1.618
   80DMPC  H12A 9337   3.132   2.018   1.652
   80DMPC  H12B 9338   3.304   2.028   1.682
   80DMPC   C11 9339   3.250   2.013   1.474
   80DMPC  H11A 9340   3.165   2.045   1.409
   80DMPC  H11B 9341   3.247   1.901   1.474
   80DMPC     P 9342   3.501   1.984   1.438
   80DMPC   O13 9343   3.613   2.078   1.459
   80DMPC   O14 9344   3.517   1.891   1.323
   80DMPC   O11 9345   3.479   1.901   1.571
   80DMPC   O12 9346   3.370   2.067   1.421
   80DMPC    C1 9347   3.550   1.929   1.693
   80DMPC    HA 9348   3.481   1.918   1.779
   80DMPC    HB 9349   3.589   2.033   1.697
   80DMPC    C2 9350   3.669   1.830   1.714
   80DMPC    HS 9351   3.718   1.821   1.614
   80DMPC   O21 9352   3.612   1.704   1.755
   80DMPC   C21 9353   3.695   1.603   1.740
   80DMPC   O22 9354   3.807   1.611   1.692
   80DMPC   C22 9355   3.628   1.473   1.784
   80DMPC   H2R 9356   3.610   1.412   1.692
   80DMPC   H2S 9357   3.530   1.494   1.830
   80DMPC    C3 9358   3.778   1.883   1.813
   80DMPC    HX 9359   3.797   1.991   1.791
   80DMPC    HY 9360   3.872   1.831   1.788
   80DMPC   O31 9361   3.751   1.859   1.953
   80DMPC   C31 9362   3.684   1.954   2.017
   80DMPC   O32 9363   3.637   2.054   1.965
   80DMPC   C32 9364   3.682   1.924   2.166
   80DMPC   H2X 9365   3.770   1.973   2.212
   80DMPC   H2Y 9366   3.690   1.814   2.182
   80DMPC   C23 9367   3.719   1.395   1.879
   80DMPC   H3R 9368   3.818   1.377   1.832
   80DMPC   H3S 9369   3.672   1.295   1.895
   80DMPC   C24 9370   3.739   1.458   2.018
   80DMPC   H4R 9371   3.800   1.551   2.008
   80DMPC   H4S 9372   3.797   1.387   2.080
   80DMPC   C25 9373   3.608   1.493   2.091
   80DMPC   H5R 9374   3.538   1.407   2.081
   80DMPC   H5S 9375   3.562   1.582   2.043
   80DMPC   C26 9376   3.629   1.522   2.241
   80DMPC   H6R 9377   3.709   1.599   2.252
   80DMPC   H6S 9378   3.665   1.429   2.290
   80DMPC   C27 9379   3.503   1.571   2.314
   80DMPC   H7R 9380   3.475   1.672   2.277
   80DMPC   H7S 9381   3.528   1.580   2.422
   80DMPC   C28 9382   3.382   1.477   2.300
   80DMPC   H8R 9383   3.418   1.372   2.302
   80DMPC   H8S 9384   3.334   1.494   2.201
   80DMPC   C29 9385   3.277   1.492   2.412
   80DMPC   H9R 9386   3.195   1.420   2.394
   80DMPC   H9S 9387   3.326   1.464   2.508
   80DMPC  C210 9388   3.218   1.633   2.425
   80DMPC  H10R 9389   3.173   1.662   2.327
   80DMPC  H10S 9390   3.299   1.706   2.448
   80DMPC  C211 9391   3.109   1.645   2.533
   80DMPC  H11R 9392   3.026   1.575   2.508
   80DMPC  H11S 9393   3.067   1.748   2.529
   80DMPC  C212 9394   3.158   1.617   2.675
   80DMPC  H12R 9395   3.243   1.685   2.698
   80DMPC  H12S 9396   3.196   1.512   2.682
   80DMPC  C213 9397   3.049   1.635   2.782
   80DMPC  H13R 9398   2.964   1.569   2.757
   80DMPC  H13S 9399   3.013   1.740   2.777
   80DMPC  C214 9400   3.096   1.605   2.925
   80DMPC  H14R 9401   3.131   1.500   2.932
   80DMPC  H14S 9402   3.012   1.619   2.996
   80DMPC  H14T 9403   3.179   1.673   2.954
   80DMPC   C33 9404   3.554   1.976   2.232
   80DMPC   H3X 9405   3.466   1.921   2.190
   80DMPC   H3Y 9406   3.540   2.084   2.210
   80DMPC   C34 9407   3.556   1.958   2.385
   80DMPC   H4X 9408   3.641   2.017   2.426
   80DMPC   H4Y 9409   3.576   1.851   2.408
   80DMPC   C35 9410   3.427   2.001   2.454
   80DMPC   H5X 9411   3.343   1.937   2.419
   80DMPC   H5Y 9412   3.404   2.106   2.426
   80DMPC   C36 9413   3.436   1.992   2.607
   80DMPC   H6X 9414   3.519   2.058   2.640
   80DMPC   H6Y 9415   3.463   1.888   2.637
   80DMPC   C37 9416   3.307   2.034   2.680
   80DMPC   H7X 9417   3.232   1.953   2.670
   80DMPC   H7Y 9418   3.267   2.125   2.629
   80DMPC   C38 9419   3.329   2.069   2.828
   80DMPC   H8X 9420   3.232   2.101   2.872
   80DMPC   H8Y 9421   3.399   2.155   2.833
   80DMPC   C39 9422   3.386   1.956   2.914
   80DMPC   H9X 9423   3.484   1.923   2.871
   80DMPC   H9Y 9424   3.317   1.869   2.912
   80DMPC  C310 9425   3.410   2.001   3.059
   80DMPC  H10X 9426   3.312   2.028   3.104
   80DMPC  H10Y 9427   3.473   2.092   3.057
   80DMPC  C311 9428   3.479   1.897   3.148
   80DMPC  H11X 9429   3.507   1.948   3.243
   80DMPC  H11Y 9430   3.572   1.862   3.099
   80DMPC  C312 9431   3.391   1.775   3.181
   80DMPC  H12X 9432   3.363   1.724   3.087
   80DMPC  H12Y 9433   3.297   1.811   3.229
   80DMPC  C313 9434   3.457   1.672   3.275
   80DMPC  H13X 9435   3.545   1.629   3.222
   80DMPC  H13Y 9436   3.384   1.590   3.292
   80DMPC  C314 9437   3.502   1.727   3.411
   80DMPC  H14X 9438   3.539   1.644   3.475
   80DMPC  H14Y 9439   3.418   1.777   3.462
   80DMPC  H14Z 9440   3.585   1.800   3.398
   81DMPC     N 9441   2.844   2.504   1.188
   81DMPC   C13 9442   2.765   2.435   1.081
   81DMPC  H13A 9443   2.737   2.506   1.005
   81DMPC  H13B 9444   2.676   2.391   1.125
   81DMPC  H13C 9445   2.826   2.356   1.038
   81DMPC   C14 9446   2.884   2.403   1.289
   81DMPC  H14A 9447   2.943   2.450   1.367
   81DMPC  H14B 9448   2.943   2.325   1.241
   81DMPC  H14C 9449   2.796   2.357   1.332
   81DMPC   C15 9450   2.966   2.562   1.124
   81DMPC  H15A 9451   3.027   2.484   1.083
   81DMPC  H15B 9452   3.022   2.617   1.198
   81DMPC  H15C 9453   2.936   2.630   1.046
   81DMPC   C12 9454   2.760   2.613   1.250
   81DMPC  H12A 9455   2.666   2.568   1.280
   81DMPC  H12B 9456   2.738   2.686   1.172
   81DMPC   C11 9457   2.817   2.689   1.372
   81DMPC  H11A 9458   2.827   2.616   1.456
   81DMPC  H11B 9459   2.743   2.766   1.401
   81DMPC     P 9460   3.030   2.796   1.458
   81DMPC   O13 9461   3.112   2.913   1.416
   81DMPC   O14 9462   3.105   2.678   1.506
   81DMPC   O11 9463   2.927   2.840   1.568
   81DMPC   O12 9464   2.940   2.751   1.338
   81DMPC    C1 9465   2.885   2.976   1.585
   81DMPC    HA 9466   2.778   2.975   1.616
   81DMPC    HB 9467   2.890   3.034   1.490
   81DMPC    C2 9468   2.965   3.052   1.695
   81DMPC    HS 9469   3.068   3.065   1.656
   81DMPC   O21 9470   2.957   2.973   1.816
   81DMPC   C21 9471   3.073   2.950   1.873
   81DMPC   O22 9472   3.180   2.997   1.838
   81DMPC   C22 9473   3.056   2.850   1.987
   81DMPC   H2R 9474   3.158   2.822   2.022
   81DMPC   H2S 9475   3.005   2.759   1.949
   81DMPC    C3 9476   2.903   3.193   1.718
   81DMPC    HX 9477   2.796   3.179   1.747
   81DMPC    HY 9478   2.907   3.243   1.619
   81DMPC   O31 9479   2.972   3.270   1.820
   81DMPC   C31 9480   2.936   3.398   1.818
   81DMPC   O32 9481   2.853   3.446   1.743
   81DMPC   C32 9482   3.015   3.479   1.921
   81DMPC   H2X 9483   3.006   3.586   1.893
   81DMPC   H2Y 9484   3.122   3.450   1.918
   81DMPC   C23 9485   2.976   2.910   2.104
   81DMPC   H3R 9486   2.871   2.929   2.072
   81DMPC   H3S 9487   3.021   3.008   2.134
   81DMPC   C24 9488   2.977   2.816   2.225
   81DMPC   H4R 9489   3.083   2.803   2.259
   81DMPC   H4S 9490   2.940   2.716   2.192
   81DMPC   C25 9491   2.892   2.863   2.344
   81DMPC   H5R 9492   2.786   2.865   2.313
   81DMPC   H5S 9493   2.922   2.965   2.375
   81DMPC   C26 9494   2.908   2.767   2.464
   81DMPC   H6R 9495   3.008   2.782   2.509
   81DMPC   H6S 9496   2.904   2.663   2.424
   81DMPC   C27 9497   2.800   2.779   2.572
   81DMPC   H7R 9498   2.700   2.768   2.524
   81DMPC   H7S 9499   2.804   2.879   2.619
   81DMPC   C28 9500   2.815   2.669   2.679
   81DMPC   H8R 9501   2.912   2.684   2.732
   81DMPC   H8S 9502   2.820   2.571   2.627
   81DMPC   C29 9503   2.701   2.663   2.781
   81DMPC   H9R 9504   2.605   2.653   2.727
   81DMPC   H9S 9505   2.699   2.758   2.839
   81DMPC  C210 9506   2.717   2.545   2.878
   81DMPC  H10R 9507   2.810   2.557   2.937
   81DMPC  H10S 9508   2.726   2.452   2.818
   81DMPC  C211 9509   2.599   2.528   2.975
   81DMPC  H11R 9510   2.505   2.518   2.915
   81DMPC  H11S 9511   2.590   2.619   3.038
   81DMPC  C212 9512   2.613   2.404   3.064
   81DMPC  H12R 9513   2.701   2.417   3.131
   81DMPC  H12S 9514   2.632   2.315   3.000
   81DMPC  C213 9515   2.488   2.373   3.150
   81DMPC  H13R 9516   2.508   2.279   3.207
   81DMPC  H13S 9517   2.402   2.354   3.082
   81DMPC  C214 9518   2.449   2.483   3.249
   81DMPC  H14R 9519   2.422   2.577   3.196
   81DMPC  H14S 9520   2.533   2.505   3.318
   81DMPC  H14T 9521   2.361   2.451   3.309
   81DMPC   C33 9522   2.958   3.459   2.063
   81DMPC   H3X 9523   2.848   3.440   2.060
   81DMPC   H3Y 9524   2.973   3.555   2.119
   81DMPC   C34 9525   3.030   3.349   2.141
   81DMPC   H4X 9526   3.138   3.373   2.145
   81DMPC   H4Y 9527   3.018   3.252   2.088
   81DMPC   C35 9528   2.979   3.334   2.286
   81DMPC   H5X 9529   2.875   3.296   2.284
   81DMPC   H5Y 9530   2.978   3.434   2.335
   81DMPC   C36 9531   3.067   3.240   2.369
   81DMPC   H6X 9532   3.169   3.283   2.375
   81DMPC   H6Y 9533   3.074   3.142   2.316
   81DMPC   C37 9534   3.014   3.215   2.510
   81DMPC   H7X 9535   2.911   3.173   2.503
   81DMPC   H7Y 9536   3.008   3.311   2.565
   81DMPC   C38 9537   3.102   3.117   2.589
   81DMPC   H8X 9538   3.203   3.163   2.603
   81DMPC   H8Y 9539   3.115   3.024   2.530
   81DMPC   C39 9540   3.043   3.079   2.726
   81DMPC   H9X 9541   2.945   3.031   2.709
   81DMPC   H9Y 9542   3.027   3.171   2.786
   81DMPC  C310 9543   3.134   2.983   2.804
   81DMPC  H10X 9544   3.225   3.037   2.836
   81DMPC  H10Y 9545   3.165   2.899   2.737
   81DMPC  C311 9546   3.065   2.922   2.928
   81DMPC  H11X 9547   2.980   2.858   2.893
   81DMPC  H11Y 9548   3.023   3.004   2.990
   81DMPC  C312 9549   3.161   2.838   3.013
   81DMPC  H12X 9550   3.238   2.905   3.056
   81DMPC  H12Y 9551   3.212   2.764   2.948
   81DMPC  C313 9552   3.090   2.762   3.126
   81DMPC  H13X 9553   3.021   2.687   3.082
   81DMPC  H13Y 9554   3.029   2.834   3.185
   81DMPC  C314 9555   3.186   2.691   3.222
   81DMPC  H14X 9556   3.130   2.634   3.299
   81DMPC  H14Y 9557   3.251   2.765   3.273
   81DMPC  H14Z 9558   3.251   2.620   3.165
   82DMPC     N 9559   2.505   3.144   0.690
   82DMPC   C13 9560   2.510   3.006   0.636
   82DMPC  H13A 9561   2.542   2.937   0.714
   82DMPC  H13B 9562   2.580   3.002   0.554
   82DMPC  H13C 9563   2.413   2.976   0.600
   82DMPC   C14 9564   2.640   3.185   0.737
   82DMPC  H14A 9565   2.712   3.172   0.657
   82DMPC  H14B 9566   2.668   3.124   0.822
   82DMPC  H14C 9567   2.638   3.288   0.768
   82DMPC   C15 9568   2.465   3.237   0.581
   82DMPC  H15A 9569   2.539   3.234   0.502
   82DMPC  H15B 9570   2.459   3.338   0.620
   82DMPC  H15C 9571   2.369   3.207   0.540
   82DMPC   C12 9572   2.404   3.154   0.802
   82DMPC  H12A 9573   2.306   3.137   0.760
   82DMPC  H12B 9574   2.407   3.256   0.839
   82DMPC   C11 9575   2.421   3.059   0.923
   82DMPC  H11A 9576   2.408   2.954   0.888
   82DMPC  H11B 9577   2.340   3.083   0.995
   82DMPC     P 9578   2.588   2.981   1.097
   82DMPC   O13 9579   2.695   3.045   1.177
   82DMPC   O14 9580   2.616   2.848   1.037
   82DMPC   O11 9581   2.456   2.973   1.184
   82DMPC   O12 9582   2.548   3.079   0.982
   82DMPC    C1 9583   2.444   2.877   1.290
   82DMPC    HA 9584   2.542   2.857   1.340
   82DMPC    HB 9585   2.406   2.782   1.248
   82DMPC    C2 9586   2.345   2.923   1.401
   82DMPC    HS 9587   2.248   2.941   1.349
   82DMPC   O21 9588   2.396   3.045   1.460
   82DMPC   C21 9589   2.305   3.111   1.528
   82DMPC   O22 9590   2.186   3.081   1.535
   82DMPC   C22 9591   2.368   3.234   1.594
   82DMPC   H2R 9592   2.309   3.322   1.560
   82DMPC   H2S 9593   2.473   3.247   1.562
   82DMPC    C3 9594   2.324   2.810   1.507
   82DMPC    HX 9595   2.299   2.717   1.452
   82DMPC    HY 9596   2.235   2.836   1.568
   82DMPC   O31 9597   2.436   2.794   1.597
   82DMPC   C31 9598   2.513   2.687   1.580
   82DMPC   O32 9599   2.503   2.606   1.489
   82DMPC   C32 9600   2.617   2.682   1.691
   82DMPC   H2X 9601   2.685   2.769   1.679
   82DMPC   H2Y 9602   2.678   2.590   1.681
   82DMPC   C23 9603   2.358   3.226   1.748
   82DMPC   H3R 9604   2.266   3.172   1.779
   82DMPC   H3S 9605   2.350   3.330   1.786
   82DMPC   C24 9606   2.481   3.163   1.816
   82DMPC   H4R 9607   2.569   3.228   1.795
   82DMPC   H4S 9608   2.502   3.063   1.772
   82DMPC   C25 9609   2.465   3.148   1.968
   82DMPC   H5R 9610   2.396   3.063   1.988
   82DMPC   H5S 9611   2.418   3.240   2.008
   82DMPC   C26 9612   2.597   3.125   2.044
   82DMPC   H6R 9613   2.663   3.213   2.030
   82DMPC   H6S 9614   2.648   3.037   1.998
   82DMPC   C27 9615   2.579   3.097   2.194
   82DMPC   H7R 9616   2.678   3.069   2.237
   82DMPC   H7S 9617   2.511   3.011   2.206
   82DMPC   C28 9618   2.524   3.217   2.275
   82DMPC   H8R 9619   2.425   3.247   2.234
   82DMPC   H8S 9620   2.594   3.302   2.262
   82DMPC   C29 9621   2.508   3.190   2.426
   82DMPC   H9R 9622   2.482   3.286   2.475
   82DMPC   H9S 9623   2.605   3.155   2.467
   82DMPC  C210 9624   2.398   3.087   2.459
   82DMPC  H10R 9625   2.425   2.988   2.416
   82DMPC  H10S 9626   2.303   3.120   2.412
   82DMPC  C211 9627   2.374   3.070   2.610
   82DMPC  H11R 9628   2.349   3.169   2.654
   82DMPC  H11S 9629   2.469   3.034   2.657
   82DMPC  C212 9630   2.260   2.972   2.642
   82DMPC  H12R 9631   2.285   2.872   2.599
   82DMPC  H12S 9632   2.168   3.008   2.593
   82DMPC  C213 9633   2.231   2.955   2.792
   82DMPC  H13R 9634   2.141   2.891   2.803
   82DMPC  H13S 9635   2.206   3.055   2.835
   82DMPC  C214 9636   2.345   2.893   2.875
   82DMPC  H14R 9637   2.372   2.793   2.834
   82DMPC  H14S 9638   2.313   2.880   2.980
   82DMPC  H14T 9639   2.435   2.958   2.873
   82DMPC   C33 9640   2.550   2.688   1.830
   82DMPC   H3X 9641   2.499   2.592   1.851
   82DMPC   H3Y 9642   2.474   2.768   1.831
   82DMPC   C34 9643   2.649   2.720   1.944
   82DMPC   H4X 9644   2.707   2.810   1.912
   82DMPC   H4Y 9645   2.721   2.637   1.958
   82DMPC   C35 9646   2.579   2.756   2.076
   82DMPC   H5X 9647   2.491   2.820   2.053
   82DMPC   H5Y 9648   2.649   2.816   2.138
   82DMPC   C36 9649   2.532   2.635   2.160
   82DMPC   H6X 9650   2.485   2.560   2.094
   82DMPC   H6Y 9651   2.455   2.673   2.231
   82DMPC   C37 9652   2.646   2.572   2.241
   82DMPC   H7X 9653   2.693   2.651   2.303
   82DMPC   H7Y 9654   2.723   2.533   2.172
   82DMPC   C38 9655   2.603   2.458   2.335
   82DMPC   H8X 9656   2.694   2.421   2.388
   82DMPC   H8Y 9657   2.561   2.374   2.275
   82DMPC   C39 9658   2.499   2.499   2.442
   82DMPC   H9X 9659   2.402   2.520   2.391
   82DMPC   H9Y 9660   2.533   2.592   2.492
   82DMPC  C310 9661   2.479   2.391   2.549
   82DMPC  H10X 9662   2.576   2.377   2.603
   82DMPC  H10Y 9663   2.454   2.294   2.499
   82DMPC  C311 9664   2.370   2.423   2.653
   82DMPC  H11X 9665   2.394   2.520   2.701
   82DMPC  H11Y 9666   2.373   2.343   2.731
   82DMPC  C312 9667   2.228   2.427   2.595
   82DMPC  H12X 9668   2.212   2.335   2.534
   82DMPC  H12Y 9669   2.219   2.515   2.527
   82DMPC  C313 9670   2.117   2.434   2.701
   82DMPC  H13X 9671   2.120   2.341   2.761
   82DMPC  H13Y 9672   2.019   2.437   2.648
   82DMPC  C314 9673   2.125   2.554   2.796
   82DMPC  H14X 9674   2.217   2.550   2.857
   82DMPC  H14Y 9675   2.037   2.554   2.865
   82DMPC  H14Z 9676   2.124   2.649   2.738
   83DMPC     N 9677   4.128   0.017   1.211
   83DMPC   C13 9678   4.090   6.319   1.352
   83DMPC  H13A 9679   4.082   6.212   1.366
   83DMPC  H13B 9680   3.995   0.035   1.374
   83DMPC  H13C 9681   4.165   0.028   1.419
   83DMPC   C14 9682   4.140   0.164   1.193
   83DMPC  H14A 9683   4.215   0.203   1.260
   83DMPC  H14B 9684   4.045   0.211   1.214
   83DMPC  H14C 9685   4.169   0.186   1.091
   83DMPC   C15 9686   4.262   6.286   1.188
   83DMPC  H15A 9687   4.334   6.330   1.256
   83DMPC  H15B 9688   4.293   6.304   1.086
   83DMPC  H15C 9689   4.257   6.180   1.205
   83DMPC   C12 9690   4.029   6.290   1.114
   83DMPC  H12A 9691   4.021   6.184   1.134
   83DMPC  H12B 9692   4.072   6.300   1.014
   83DMPC   C11 9693   3.886   0.019   1.109
   83DMPC  H11A 9694   3.831   6.296   1.029
   83DMPC  H11B 9695   3.892   0.126   1.077
   83DMPC     P 9696   3.759   0.119   1.309
   83DMPC   O13 9697   3.624   0.149   1.255
   83DMPC   O14 9698   3.858   0.229   1.305
   83DMPC   O11 9699   3.752   0.060   1.455
   83DMPC   O12 9700   3.819   6.327   1.232
   83DMPC    C1 9701   3.684   0.123   1.564
   83DMPC    HA 9702   3.605   0.054   1.600
   83DMPC    HB 9703   3.634   0.218   1.534
   83DMPC    C2 9704   3.777   0.155   1.686
   83DMPC    HS 9705   3.844   0.237   1.652
   83DMPC   O21 9706   3.850   0.035   1.720
   83DMPC   C21 9707   3.970   0.059   1.770
   83DMPC   O22 9708   4.022   0.169   1.782
   83DMPC   C22 9709   4.039   6.259   1.807
   83DMPC   H2R 9710   4.143   6.279   1.839
   83DMPC   H2S 9711   4.043   6.196   1.715
   83DMPC    C3 9712   3.693   0.205   1.808
   83DMPC    HX 9713   3.626   0.121   1.837
   83DMPC    HY 9714   3.626   0.288   1.775
   83DMPC   O31 9715   3.772   0.242   1.924
   83DMPC   C31 9716   3.815   0.368   1.923
   83DMPC   O32 9717   3.797   0.447   1.832
   83DMPC   C32 9718   3.891   0.401   2.052
   83DMPC   H2X 9719   3.898   0.511   2.060
   83DMPC   H2Y 9720   3.994   0.359   2.045
   83DMPC   C23 9721   3.962   6.183   1.917
   83DMPC   H3R 9722   4.003   6.080   1.923
   83DMPC   H3S 9723   3.855   6.174   1.889
   83DMPC   C24 9724   3.973   6.246   2.057
   83DMPC   H4R 9725   3.943   0.022   2.051
   83DMPC   H4S 9726   4.078   6.242   2.092
   83DMPC   C25 9727   3.882   6.175   2.159
   83DMPC   H5R 9728   3.912   6.069   2.168
   83DMPC   H5S 9729   3.778   6.179   2.118
   83DMPC   C26 9730   3.878   6.240   2.298
   83DMPC   H6R 9731   3.859   0.018   2.283
   83DMPC   H6S 9732   3.977   6.230   2.348
   83DMPC   C27 9733   3.767   6.180   2.386
   83DMPC   H7R 9734   3.793   6.074   2.410
   83DMPC   H7S 9735   3.673   6.180   2.328
   83DMPC   C28 9736   3.740   6.256   2.518
   83DMPC   H8R 9737   3.828   6.247   2.585
   83DMPC   H8S 9738   3.654   6.207   2.568
   83DMPC   C29 9739   3.707   0.074   2.496
   83DMPC   H9R 9740   3.638   0.083   2.409
   83DMPC   H9S 9741   3.802   0.127   2.470
   83DMPC  C210 9742   3.642   0.145   2.616
   83DMPC  H10R 9743   3.542   0.100   2.636
   83DMPC  H10S 9744   3.627   0.251   2.587
   83DMPC  C211 9745   3.726   0.140   2.744
   83DMPC  H11R 9746   3.832   0.161   2.718
   83DMPC  H11S 9747   3.721   0.038   2.787
   83DMPC  C212 9748   3.680   0.243   2.849
   83DMPC  H12R 9749   3.574   0.222   2.876
   83DMPC  H12S 9750   3.685   0.344   2.803
   83DMPC  C213 9751   3.766   0.242   2.976
   83DMPC  H13R 9752   3.873   0.254   2.946
   83DMPC  H13S 9753   3.756   0.144   3.026
   83DMPC  C214 9754   3.731   0.353   3.075
   83DMPC  H14R 9755   3.799   0.351   3.162
   83DMPC  H14S 9756   3.626   0.342   3.111
   83DMPC  H14T 9757   3.740   0.453   3.026
   83DMPC   C33 9758   3.819   0.344   2.176
   83DMPC   H3X 9759   3.824   0.233   2.172
   83DMPC   H3Y 9760   3.711   0.373   2.174
   83DMPC   C34 9761   3.879   0.390   2.310
   83DMPC   H4X 9762   3.989   0.375   2.309
   83DMPC   H4Y 9763   3.837   0.325   2.389
   83DMPC   C35 9764   3.847   0.536   2.348
   83DMPC   H5X 9765   3.737   0.552   2.335
   83DMPC   H5Y 9766   3.900   0.606   2.280
   83DMPC   C36 9767   3.883   0.567   2.494
   83DMPC   H6X 9768   3.993   0.559   2.507
   83DMPC   H6Y 9769   3.835   0.491   2.559
   83DMPC   C37 9770   3.836   0.706   2.541
   83DMPC   H7X 9771   3.728   0.716   2.520
   83DMPC   H7Y 9772   3.891   0.784   2.484
   83DMPC   C38 9773   3.859   0.727   2.691
   83DMPC   H8X 9774   3.968   0.719   2.712
   83DMPC   H8Y 9775   3.808   0.646   2.747
   83DMPC   C39 9776   3.809   0.862   2.744
   83DMPC   H9X 9777   3.700   0.873   2.722
   83DMPC   H9Y 9778   3.862   0.944   2.691
   83DMPC  C310 9779   3.831   0.877   2.895
   83DMPC  H10X 9780   3.940   0.862   2.916
   83DMPC  H10Y 9781   3.775   0.797   2.949
   83DMPC  C311 9782   3.790   1.014   2.951
   83DMPC  H11X 9783   3.680   1.021   2.955
   83DMPC  H11Y 9784   3.826   1.093   2.881
   83DMPC  C312 9785   3.851   1.044   3.089
   83DMPC  H12X 9786   3.829   1.150   3.115
   83DMPC  H12Y 9787   3.961   1.033   3.083
   83DMPC  C313 9788   3.798   0.954   3.202
   83DMPC  H13X 9789   3.811   0.847   3.174
   83DMPC  H13Y 9790   3.689   0.973   3.214
   83DMPC  C314 9791   3.868   0.978   3.336
   83DMPC  H14X 9792   3.975   0.951   3.329
   83DMPC  H14Y 9793   3.821   0.915   3.416
   83DMPC  H14Z 9794   3.860   1.084   3.366
   84DMPC     N 9795   3.985   3.936   1.359
   84DMPC   C13 9796   3.886   4.007   1.274
   84DMPC  H13A 9797   3.914   3.997   1.170
   84DMPC  H13B 9798   3.884   4.112   1.299
   84DMPC  H13C 9799   3.787   3.966   1.289
   84DMPC   C14 9800   3.942   3.947   1.501
   84DMPC  H14A 9801   3.942   4.051   1.531
   84DMPC  H14B 9802   4.008   3.890   1.565
   84DMPC  H14C 9803   3.841   3.909   1.511
   84DMPC   C15 9804   3.984   3.792   1.321
   84DMPC  H15A 9805   3.886   3.750   1.338
   84DMPC  H15B 9806   4.057   3.740   1.381
   84DMPC  H15C 9807   4.010   3.782   1.217
   84DMPC   C12 9808   4.121   3.998   1.337
   84DMPC  H12A 9809   4.111   4.104   1.352
   84DMPC  H12B 9810   4.146   3.982   1.233
   84DMPC   C11 9811   4.239   3.948   1.423
   84DMPC  H11A 9812   4.219   3.973   1.530
   84DMPC  H11B 9813   4.329   4.007   1.391
   84DMPC     P 9814   4.397   3.748   1.397
   84DMPC   O13 9815   4.463   3.808   1.279
   84DMPC   O14 9816   4.388   3.601   1.398
   84DMPC   O11 9817   4.469   3.798   1.529
   84DMPC   O12 9818   4.253   3.808   1.410
   84DMPC    C1 9819   4.417   3.751   1.655
   84DMPC    HA 9820   4.442   3.644   1.669
   84DMPC    HB 9821   4.306   3.760   1.659
   84DMPC    C2 9822   4.474   3.828   1.778
   84DMPC    HS 9823   4.422   3.793   1.870
   84DMPC   O21 9824   4.463   3.972   1.764
   84DMPC   C21 9825   4.341   4.016   1.787
   84DMPC   O22 9826   4.242   3.946   1.800
   84DMPC   C22 9827   4.343   4.167   1.806
   84DMPC   H2R 9828   4.239   4.205   1.804
   84DMPC   H2S 9829   4.400   4.214   1.723
   84DMPC    C3 9830   4.625   3.795   1.798
   84DMPC    HX 9831   4.676   3.825   1.704
   84DMPC    HY 9832   4.636   3.685   1.808
   84DMPC   O31 9833   4.678   3.858   1.917
   84DMPC   C31 9834   4.791   3.927   1.903
   84DMPC   O32 9835   4.855   3.938   1.800
   84DMPC   C32 9836   4.828   3.988   2.039
   84DMPC   H2X 9837   4.877   3.909   2.099
   84DMPC   H2Y 9838   4.736   4.021   2.091
   84DMPC   C23 9839   4.409   4.202   1.941
   84DMPC   H3R 9840   4.408   4.313   1.949
   84DMPC   H3S 9841   4.516   4.170   1.943
   84DMPC   C24 9842   4.336   4.147   2.065
   84DMPC   H4R 9843   4.228   4.139   2.044
   84DMPC   H4S 9844   4.349   4.219   2.149
   84DMPC   C25 9845   4.389   4.011   2.115
   84DMPC   H5R 9846   4.497   4.021   2.141
   84DMPC   H5S 9847   4.382   3.936   2.034
   84DMPC   C26 9848   4.313   3.955   2.236
   84DMPC   H6R 9849   4.204   3.954   2.212
   84DMPC   H6S 9850   4.328   4.023   2.323
   84DMPC   C27 9851   4.355   3.813   2.274
   84DMPC   H7R 9852   4.464   3.812   2.296
   84DMPC   H7S 9853   4.337   3.745   2.187
   84DMPC   C28 9854   4.279   3.760   2.396
   84DMPC   H8R 9855   4.170   3.763   2.375
   84DMPC   H8S 9856   4.299   3.830   2.481
   84DMPC   C29 9857   4.318   3.618   2.440
   84DMPC   H9R 9858   4.275   3.602   2.542
   84DMPC   H9S 9859   4.428   3.610   2.449
   84DMPC  C210 9860   4.264   3.507   2.348
   84DMPC  H10R 9861   4.305   3.522   2.246
   84DMPC  H10S 9862   4.153   3.518   2.342
   84DMPC  C211 9863   4.297   3.364   2.394
   84DMPC  H11R 9864   4.407   3.349   2.385
   84DMPC  H11S 9865   4.248   3.293   2.324
   84DMPC  C212 9866   4.256   3.329   2.538
   84DMPC  H12R 9867   4.317   3.388   2.609
   84DMPC  H12S 9868   4.279   3.221   2.555
   84DMPC  C213 9869   4.107   3.352   2.570
   84DMPC  H13R 9870   4.046   3.296   2.496
   84DMPC  H13S 9871   4.084   3.460   2.557
   84DMPC  C214 9872   4.067   3.311   2.711
   84DMPC  H14R 9873   4.126   3.367   2.787
   84DMPC  H14S 9874   4.085   3.202   2.726
   84DMPC  H14T 9875   3.959   3.331   2.728
   84DMPC   C33 9876   4.924   4.108   2.022
   84DMPC   H3X 9877   4.871   4.191   1.971
   84DMPC   H3Y 9878   5.010   4.077   1.959
   84DMPC   C34 9879   4.982   4.158   2.156
   84DMPC   H4X 9880   5.062   4.233   2.134
   84DMPC   H4Y 9881   5.030   4.072   2.207
   84DMPC   C35 9882   4.882   4.223   2.253
   84DMPC   H5X 9883   4.796   4.154   2.269
   84DMPC   H5Y 9884   4.842   4.316   2.207
   84DMPC   C36 9885   4.945   4.255   2.390
   84DMPC   H6X 9886   5.034   4.320   2.375
   84DMPC   H6Y 9887   4.980   4.159   2.434
   84DMPC   C37 9888   4.850   4.323   2.490
   84DMPC   H7X 9889   4.753   4.267   2.491
   84DMPC   H7Y 9890   4.829   4.427   2.457
   84DMPC   C38 9891   4.906   4.324   2.633
   84DMPC   H8X 9892   5.004   4.378   2.634
   84DMPC   H8Y 9893   4.926   4.218   2.662
   84DMPC   C39 9894   4.813   4.386   2.738
   84DMPC   H9X 9895   4.711   4.345   2.724
   84DMPC   H9Y 9896   4.809   4.496   2.723
   84DMPC  C310 9897   4.858   4.355   2.882
   84DMPC  H10X 9898   4.962   4.392   2.897
   84DMPC  H10Y 9899   4.860   4.244   2.894
   84DMPC  C311 9900   4.768   4.414   2.991
   84DMPC  H11X 9901   4.662   4.390   2.967
   84DMPC  H11Y 9902   4.779   4.524   2.993
   84DMPC  C312 9903   4.798   4.358   3.131
   84DMPC  H12X 9904   4.903   4.384   3.159
   84DMPC  H12Y 9905   4.790   4.247   3.127
   84DMPC  C313 9906   4.703   4.409   3.241
   84DMPC  H13X 9907   4.598   4.390   3.209
   84DMPC  H13Y 9908   4.716   4.519   3.250
   84DMPC  C314 9909   4.725   4.343   3.378
   84DMPC  H14X 9910   4.828   4.362   3.414
   84DMPC  H14Y 9911   4.708   4.234   3.371
   84DMPC  H14Z 9912   4.653   4.385   3.452
   85DMPC     N 9913   2.149   1.947   0.931
   85DMPC   C13 9914   2.040   1.882   0.853
   85DMPC  H13A 9915   1.974   1.829   0.921
   85DMPC  H13B 9916   2.082   1.813   0.781
   85DMPC  H13C 9917   1.983   1.958   0.801
   85DMPC   C14 9918   2.223   1.842   1.007
   85DMPC  H14A 9919   2.264   1.769   0.938
   85DMPC  H14B 9920   2.156   1.792   1.075
   85DMPC  H14C 9921   2.304   1.888   1.063
   85DMPC   C15 9922   2.243   2.012   0.835
   85DMPC  H15A 9923   2.288   1.937   0.772
   85DMPC  H15B 9924   2.319   2.064   0.891
   85DMPC  H15C 9925   2.189   2.083   0.775
   85DMPC   C12 9926   2.094   2.051   1.026
   85DMPC  H12A 9927   2.037   2.122   0.967
   85DMPC  H12B 9928   2.179   2.105   1.067
   85DMPC   C11 9929   2.006   2.005   1.144
   85DMPC  H11A 9930   1.977   2.095   1.203
   85DMPC  H11B 9931   2.069   1.941   1.211
   85DMPC     P 9932   1.838   1.813   1.166
   85DMPC   O13 9933   1.928   1.702   1.127
   85DMPC   O14 9934   1.694   1.794   1.135
   85DMPC   O11 9935   1.857   1.843   1.320
   85DMPC   O12 9936   1.889   1.943   1.095
   85DMPC    C1 9937   1.754   1.905   1.398
   85DMPC    HA 9938   1.653   1.868   1.367
   85DMPC    HB 9939   1.754   2.015   1.383
   85DMPC    C2 9940   1.767   1.874   1.550
   85DMPC    HS 9941   1.662   1.877   1.589
   85DMPC   O21 9942   1.852   1.975   1.608
   85DMPC   C21 9943   1.815   2.009   1.731
   85DMPC   O22 9944   1.714   1.970   1.787
   85DMPC   C22 9945   1.920   2.103   1.791
   85DMPC   H2R 9946   1.921   2.198   1.734
   85DMPC   H2S 9947   2.020   2.055   1.781
   85DMPC    C3 9948   1.825   1.730   1.574
   85DMPC    HX 9949   1.931   1.728   1.539
   85DMPC    HY 9950   1.769   1.662   1.507
   85DMPC   O31 9951   1.811   1.680   1.709
   85DMPC   C31 9952   1.910   1.706   1.793
   85DMPC   O32 9953   2.009   1.773   1.768
   85DMPC   C32 9954   1.884   1.639   1.928
   85DMPC   H2X 9955   1.967   1.569   1.951
   85DMPC   H2Y 9956   1.789   1.582   1.925
   85DMPC   C23 9957   1.892   2.132   1.940
   85DMPC   H3R 9958   1.979   2.190   1.977
   85DMPC   H3S 9959   1.889   2.037   1.998
   85DMPC   C24 9960   1.765   2.214   1.966
   85DMPC   H4R 9961   1.676   2.147   1.968
   85DMPC   H4S 9962   1.751   2.285   1.881
   85DMPC   C25 9963   1.769   2.297   2.095
   85DMPC   H5R 9964   1.678   2.362   2.097
   85DMPC   H5S 9965   1.858   2.364   2.093
   85DMPC   C26 9966   1.772   2.215   2.225
   85DMPC   H6R 9967   1.866   2.156   2.230
   85DMPC   H6S 9968   1.686   2.144   2.224
   85DMPC   C27 9969   1.761   2.306   2.348
   85DMPC   H7R 9970   1.674   2.374   2.334
   85DMPC   H7S 9971   1.852   2.369   2.355
   85DMPC   C28 9972   1.741   2.232   2.482
   85DMPC   H8R 9973   1.832   2.173   2.506
   85DMPC   H8S 9974   1.656   2.162   2.471
   85DMPC   C29 9975   1.711   2.330   2.596
   85DMPC   H9R 9976   1.622   2.391   2.568
   85DMPC   H9S 9977   1.797   2.400   2.607
   85DMPC  C210 9978   1.683   2.264   2.731
   85DMPC  H10R 9979   1.772   2.205   2.763
   85DMPC  H10S 9980   1.597   2.194   2.720
   85DMPC  C211 9981   1.648   2.367   2.840
   85DMPC  H11R 9982   1.560   2.426   2.806
   85DMPC  H11S 9983   1.734   2.437   2.851
   85DMPC  C212 9984   1.617   2.305   2.977
   85DMPC  H12R 9985   1.706   2.248   3.012
   85DMPC  H12S 9986   1.532   2.234   2.966
   85DMPC  C213 9987   1.580   2.411   3.082
   85DMPC  H13R 9988   1.487   2.463   3.049
   85DMPC  H13S 9989   1.661   2.486   3.087
   85DMPC  C214 9990   1.558   2.354   3.222
   85DMPC  H14R 9991   1.529   2.434   3.293
   85DMPC  H14S 9992   1.651   2.305   3.259
   85DMPC  H14T 9993   1.477   2.278   3.221
   85DMPC   C33 9994   1.875   1.746   2.039
   85DMPC   H3X 9995   1.802   1.824   2.009
   85DMPC   H3Y 9996   1.975   1.795   2.051
   85DMPC   C34 9997   1.831   1.688   2.174
   85DMPC   H4X 9998   1.905   1.611   2.206
   85DMPC   H4Y 9999   1.733   1.637   2.161
   85DMPC   C3510000   1.818   1.794   2.284
   85DMPC   H5X10001   1.915   1.848   2.293
   85DMPC   H5Y10002   1.740   1.867   2.254
   85DMPC   C3610003   1.781   1.734   2.420
   85DMPC   H6X10004   1.862   1.666   2.454
   85DMPC   H6Y10005   1.688   1.674   2.409
   85DMPC   C3710006   1.758   1.841   2.528
   85DMPC   H7X10007   1.678   1.910   2.493
   85DMPC   H7Y10008   1.851   1.900   2.542
   85DMPC   C3810009   1.716   1.781   2.663
   85DMPC   H8X10010   1.797   1.715   2.701
   85DMPC   H8Y10011   1.625   1.719   2.647
   85DMPC   C3910012   1.683   1.887   2.769
   85DMPC   H9X10013   1.607   1.956   2.727
   85DMPC   H9Y10014   1.775   1.947   2.791
   85DMPC  C31010015   1.629   1.827   2.900
   85DMPC  H10X10016   1.707   1.762   2.946
   85DMPC  H10Y10017   1.541   1.764   2.875
   85DMPC  C31110018   1.585   1.934   3.001
   85DMPC  H11X10019   1.514   2.003   2.951
   85DMPC  H11Y10020   1.674   1.993   3.032
   85DMPC  C31210021   1.516   1.875   3.125
   85DMPC  H12X10022   1.587   1.806   3.177
   85DMPC  H12Y10023   1.429   1.816   3.092
   85DMPC  C31310024   1.469   1.982   3.224
   85DMPC  H13X10025   1.403   2.054   3.169
   85DMPC  H13Y10026   1.557   2.039   3.261
   85DMPC  C31410027   1.391   1.926   3.343
   85DMPC  H14X10028   1.302   1.870   3.309
   85DMPC  H14Y10029   1.357   2.009   3.410
   85DMPC  H14Z10030   1.455   1.858   3.402
   86DMPC     N10031   2.457   5.654   1.512
   86DMPC   C1310032   2.543   5.640   1.633
   86DMPC  H13A10033   2.642   5.608   1.604
   86DMPC  H13B10034   2.498   5.568   1.699
   86DMPC  H13C10035   2.551   5.736   1.684
   86DMPC   C1410036   2.324   5.706   1.553
   86DMPC  H14A10037   2.276   5.639   1.622
   86DMPC  H14B10038   2.262   5.718   1.465
   86DMPC  H14C10039   2.335   5.803   1.600
   86DMPC   C1510040   2.520   5.754   1.421
   86DMPC  H15A10041   2.456   5.767   1.335
   86DMPC  H15B10042   2.616   5.718   1.389
   86DMPC  H15C10043   2.531   5.848   1.472
   86DMPC   C1210044   2.443   5.523   1.439
   86DMPC  H12A10045   2.542   5.480   1.430
   86DMPC  H12B10046   2.409   5.546   1.339
   86DMPC   C1110047   2.348   5.416   1.497
   86DMPC  H11A10048   2.353   5.326   1.431
   86DMPC  H11B10049   2.243   5.454   1.489
   86DMPC     P10050   2.439   5.254   1.673
   86DMPC   O1310051   2.582   5.252   1.632
   86DMPC   O1410052   2.352   5.144   1.624
   86DMPC   O1110053   2.434   5.259   1.830
   86DMPC   O1210054   2.375   5.391   1.634
   86DMPC    C110055   2.482   5.376   1.900
   86DMPC    HA10056   2.395   5.442   1.925
   86DMPC    HB10057   2.555   5.436   1.841
   86DMPC    C210058   2.554   5.340   2.033
   86DMPC    HS10059   2.646   5.285   2.004
   86DMPC   O2110060   2.465   5.254   2.107
   86DMPC   C2110061   2.524   5.192   2.206
   86DMPC   O2210062   2.643   5.200   2.234
   86DMPC   C2210063   2.421   5.107   2.280
   86DMPC   H2R10064   2.465   5.006   2.299
   86DMPC   H2S10065   2.331   5.095   2.217
   86DMPC    C310066   2.595   5.468   2.113
   86DMPC    HX10067   2.651   5.534   2.042
   86DMPC    HY10068   2.665   5.439   2.194
   86DMPC   O3110069   2.481   5.538   2.167
   86DMPC   C3110070   2.514   5.648   2.234
   86DMPC   O3210071   2.627   5.692   2.244
   86DMPC   C3210072   2.390   5.709   2.299
   86DMPC   H2X10073   2.330   5.761   2.222
   86DMPC   H2Y10074   2.423   5.784   2.374
   86DMPC   C2310075   2.382   5.173   2.413
   86DMPC   H3R10076   2.372   5.283   2.399
   86DMPC   H3S10077   2.462   5.155   2.488
   86DMPC   C2410078   2.248   5.121   2.468
   86DMPC   H4R10079   2.250   5.010   2.473
   86DMPC   H4S10080   2.168   5.151   2.396
   86DMPC   C2510081   2.214   5.178   2.607
   86DMPC   H5R10082   2.240   5.286   2.608
   86DMPC   H5S10083   2.278   5.127   2.682
   86DMPC   C2610084   2.066   5.163   2.643
   86DMPC   H6R10085   2.040   5.055   2.647
   86DMPC   H6S10086   2.004   5.209   2.563
   86DMPC   C2710087   2.027   5.229   2.777
   86DMPC   H7R10088   1.917   5.217   2.791
   86DMPC   H7S10089   2.048   5.338   2.771
   86DMPC   C2810090   2.099   5.171   2.899
   86DMPC   H8R10091   2.208   5.188   2.889
   86DMPC   H8S10092   2.081   5.061   2.903
   86DMPC   C2910093   2.052   5.232   3.032
   86DMPC   H9R10094   1.944   5.212   3.045
   86DMPC   H9S10095   2.066   5.343   3.027
   86DMPC  C21010096   2.129   5.179   3.153
   86DMPC  H10R10097   2.237   5.203   3.140
   86DMPC  H10S10098   2.120   5.068   3.157
   86DMPC  C21110099   2.082   5.238   3.287
   86DMPC  H11R10100   1.978   5.203   3.306
   86DMPC  H11S10101   2.079   5.348   3.278
   86DMPC  C21210102   2.173   5.200   3.405
   86DMPC  H12R10103   2.276   5.232   3.380
   86DMPC  H12S10104   2.173   5.089   3.416
   86DMPC  C21310105   2.134   5.265   3.539
   86DMPC  H13R10106   2.138   5.375   3.527
   86DMPC  H13S10107   2.212   5.236   3.614
   86DMPC  C21410108   1.997   5.225   3.593
   86DMPC  H14R10109   1.991   5.115   3.606
   86DMPC  H14S10110   1.916   5.257   3.524
   86DMPC  H14T10111   1.979   5.273   3.692
   86DMPC   C3310112   2.304   5.601   2.368
   86DMPC   H3X10113   2.367   5.542   2.437
   86DMPC   H3Y10114   2.263   5.533   2.291
   86DMPC   C3410115   2.186   5.659   2.448
   86DMPC   H4X10116   2.129   5.729   2.382
   86DMPC   H4Y10117   2.227   5.718   2.534
   86DMPC   C3510118   2.092   5.550   2.501
   86DMPC   H5X10119   2.153   5.474   2.554
   86DMPC   H5Y10120   2.042   5.500   2.415
   86DMPC   C3610121   1.984   5.601   2.600
   86DMPC   H6X10122   2.037   5.641   2.689
   86DMPC   H6Y10123   1.923   5.514   2.633
   86DMPC   C3710124   1.891   5.709   2.545
   86DMPC   H7X10125   1.830   5.667   2.463
   86DMPC   H7Y10126   1.954   5.791   2.503
   86DMPC   C3810127   1.798   5.770   2.651
   86DMPC   H8X10128   1.860   5.814   2.732
   86DMPC   H8Y10129   1.737   5.688   2.696
   86DMPC   C3910130   1.703   5.878   2.597
   86DMPC   H9X10131   1.646   5.921   2.682
   86DMPC   H9Y10132   1.630   5.831   2.527
   86DMPC  C31010133   1.776   5.992   2.523
   86DMPC  H10X10134   1.819   5.953   2.429
   86DMPC  H10Y10135   1.859   6.028   2.587
   86DMPC  C31110136   1.685   6.112   2.489
   86DMPC  H11X10137   1.650   6.157   2.585
   86DMPC  H11Y10138   1.597   6.076   2.433
   86DMPC  C31210139   1.760   6.218   2.407
   86DMPC  H12X10140   1.784   6.176   2.307
   86DMPC  H12Y10141   1.856   6.240   2.458
   86DMPC  C31310142   1.683   0.020   2.390
   86DMPC  H13X10143   1.750   0.091   2.336
   86DMPC  H13Y10144   1.662   0.063   2.490
   86DMPC  C31410145   1.552   0.008   2.312
   86DMPC  H14X10146   1.571   6.295   2.212
   86DMPC  H14Y10147   1.506   0.108   2.298
   86DMPC  H14Z10148   1.480   6.274   2.366
   87DMPC     N10149   5.054   1.716   0.692
   87DMPC   C1310150   5.092   1.838   0.616
   87DMPC  H13A10151   5.028   1.921   0.643
   87DMPC  H13B10152   5.083   1.820   0.510
   87DMPC  H13C10153   5.195   1.865   0.639
   87DMPC   C1410154   4.914   1.682   0.656
   87DMPC  H14A10155   4.883   1.596   0.713
   87DMPC  H14B10156   4.908   1.660   0.550
   87DMPC  H14C10157   4.849   1.765   0.679
   87DMPC   C1510158   5.144   1.605   0.650
   87DMPC  H15A10159   5.246   1.628   0.679
   87DMPC  H15B10160   5.112   1.513   0.697
   87DMPC  H15C10161   5.138   1.593   0.543
   87DMPC   C1210162   5.068   1.744   0.839
   87DMPC  H12A10163   4.991   1.816   0.866
   87DMPC  H12B10164   5.164   1.792   0.854
   87DMPC   C1110165   5.060   1.626   0.937
   87DMPC  H11A10166   5.064   1.666   1.041
   87DMPC  H11B10167   5.151   1.563   0.919
   87DMPC     P10168   4.930   1.412   0.981
   87DMPC   O1310169   5.064   1.364   1.021
   87DMPC   O1410170   4.858   1.327   0.882
   87DMPC   O1110171   4.841   1.434   1.109
   87DMPC   O1210172   4.940   1.554   0.917
   87DMPC    C110173   4.714   1.500   1.109
   87DMPC    HA10174   4.648   1.450   1.183
   87DMPC    HB10175   4.663   1.492   1.010
   87DMPC    C210176   4.720   1.652   1.150
   87DMPC    HS10177   4.777   1.704   1.069
   87DMPC   O2110178   4.786   1.664   1.277
   87DMPC   C2110179   4.810   1.790   1.307
   87DMPC   O2210180   4.812   1.882   1.227
   87DMPC   C2210181   4.820   1.809   1.458
   87DMPC   H2R10182   4.884   1.898   1.477
   87DMPC   H2S10183   4.867   1.721   1.505
   87DMPC    C310184   4.576   1.712   1.157
   87DMPC    HX10185   4.521   1.682   1.065
   87DMPC    HY10186   4.583   1.823   1.158
   87DMPC   O3110187   4.506   1.663   1.274
   87DMPC   C3110188   4.387   1.718   1.294
   87DMPC   O3210189   4.333   1.796   1.217
   87DMPC   C3210190   4.329   1.668   1.426
   87DMPC   H2X10191   4.408   1.613   1.482
   87DMPC   H2Y10192   4.245   1.599   1.406
   87DMPC   C2310193   4.679   1.836   1.513
   87DMPC   H3R10194   4.616   1.746   1.501
   87DMPC   H3S10195   4.632   1.917   1.452
   87DMPC   C2410196   4.673   1.882   1.660
   87DMPC   H4R10197   4.569   1.917   1.680
   87DMPC   H4S10198   4.741   1.968   1.674
   87DMPC   C2510199   4.707   1.771   1.761
   87DMPC   H5R10200   4.810   1.734   1.740
   87DMPC   H5S10201   4.636   1.687   1.748
   87DMPC   C2610202   4.702   1.817   1.908
   87DMPC   H6R10203   4.763   1.910   1.918
   87DMPC   H6S10204   4.750   1.738   1.971
   87DMPC   C2710205   4.561   1.844   1.963
   87DMPC   H7R10206   4.502   1.750   1.961
   87DMPC   H7S10207   4.510   1.918   1.898
   87DMPC   C2810208   4.565   1.900   2.107
   87DMPC   H8R10209   4.631   1.989   2.106
   87DMPC   H8S10210   4.610   1.823   2.174
   87DMPC   C2910211   4.427   1.939   2.161
   87DMPC   H9R10212   4.360   1.850   2.158
   87DMPC   H9S10213   4.382   2.016   2.094
   87DMPC  C21010214   4.429   1.993   2.306
   87DMPC  H10R10215   4.459   1.910   2.373
   87DMPC  H10S10216   4.326   2.024   2.334
   87DMPC  C21110217   4.525   2.111   2.331
   87DMPC  H11R10218   4.629   2.078   2.311
   87DMPC  H11S10219   4.518   2.138   2.438
   87DMPC  C21210220   4.495   2.236   2.246
   87DMPC  H12R10221   4.397   2.277   2.276
   87DMPC  H12S10222   4.489   2.207   2.138
   87DMPC  C21310223   4.602   2.346   2.257
   87DMPC  H13R10224   4.572   2.431   2.192
   87DMPC  H13S10225   4.698   2.306   2.217
   87DMPC  C21410226   4.627   2.399   2.398
   87DMPC  H14R10227   4.533   2.437   2.443
   87DMPC  H14S10228   4.701   2.482   2.396
   87DMPC  H14T10229   4.667   2.319   2.464
   87DMPC   C3310230   4.281   1.786   1.512
   87DMPC   H3X10231   4.181   1.819   1.476
   87DMPC   H3Y10232   4.350   1.873   1.501
   87DMPC   C3410233   4.274   1.754   1.662
   87DMPC   H4X10234   4.233   1.843   1.715
   87DMPC   H4Y10235   4.378   1.738   1.699
   87DMPC   C3510236   4.190   1.630   1.698
   87DMPC   H5X10237   4.232   1.542   1.644
   87DMPC   H5Y10238   4.085   1.645   1.663
   87DMPC   C3610239   4.190   1.596   1.848
   87DMPC   H6X10240   4.295   1.592   1.884
   87DMPC   H6Y10241   4.145   1.496   1.862
   87DMPC   C3710242   4.111   1.696   1.934
   87DMPC   H7X10243   4.004   1.693   1.903
   87DMPC   H7Y10244   4.149   1.799   1.917
   87DMPC   C3810245   4.119   1.666   2.085
   87DMPC   H8X10246   4.225   1.675   2.118
   87DMPC   H8Y10247   4.086   1.561   2.104
   87DMPC   C3910248   4.032   1.761   2.168
   87DMPC   H9X10249   3.925   1.742   2.143
   87DMPC   H9Y10250   4.055   1.866   2.140
   87DMPC  C31010251   4.051   1.746   2.320
   87DMPC  H10X10252   4.154   1.779   2.346
   87DMPC  H10Y10253   4.041   1.639   2.347
   87DMPC  C31110254   3.949   1.828   2.401
   87DMPC  H11X10255   3.847   1.791   2.375
   87DMPC  H11Y10256   3.955   1.935   2.370
   87DMPC  C31210257   3.968   1.818   2.553
   87DMPC  H12X10258   4.067   1.861   2.580
   87DMPC  H12Y10259   3.969   1.710   2.581
   87DMPC  C31310260   3.858   1.889   2.632
   87DMPC  H13X10261   3.760   1.845   2.603
   87DMPC  H13Y10262   3.856   1.996   2.602
   87DMPC  C31410263   3.873   1.879   2.784
   87DMPC  H14X10264   3.873   1.773   2.816
   87DMPC  H14Y10265   3.790   1.932   2.835
   87DMPC  H14Z10266   3.969   1.925   2.816
   88DMPC     N10267   4.017   0.996   1.096
   88DMPC   C1310268   3.981   1.039   1.234
   88DMPC  H13A10269   4.024   1.137   1.251
   88DMPC  H13B10270   4.021   0.969   1.305
   88DMPC  H13C10271   3.874   1.044   1.244
   88DMPC   C1410272   3.963   0.859   1.073
   88DMPC  H14A10273   3.855   0.860   1.081
   88DMPC  H14B10274   4.001   0.791   1.149
   88DMPC  H14C10275   3.991   0.823   0.975
   88DMPC   C1510276   3.955   1.088   0.997
   88DMPC  H15A10277   3.991   1.189   1.014
   88DMPC  H15B10278   3.847   1.087   1.008
   88DMPC  H15C10279   3.980   1.057   0.897
   88DMPC   C1210280   4.167   0.992   1.078
   88DMPC  H12A10281   4.187   0.935   0.988
   88DMPC  H12B10282   4.208   0.936   1.161
   88DMPC   C1110283   4.241   1.126   1.066
   88DMPC  H11A10284   4.216   1.172   0.967
   88DMPC  H11B10285   4.351   1.103   1.068
   88DMPC     P10286   4.269   1.354   1.173
   88DMPC   O1310287   4.161   1.455   1.168
   88DMPC   O1410288   4.369   1.363   1.065
   88DMPC   O1110289   4.342   1.356   1.313
   88DMPC   O1210290   4.204   1.211   1.173
   88DMPC    C110291   4.431   1.249   1.350
   88DMPC    HA10292   4.517   1.292   1.404
   88DMPC    HB10293   4.473   1.196   1.261
   88DMPC    C210294   4.367   1.142   1.442
   88DMPC    HS10295   4.283   1.096   1.385
   88DMPC   O2110296   4.323   1.206   1.563
   88DMPC   C2110297   4.220   1.147   1.620
   88DMPC   O2210298   4.150   1.062   1.567
   88DMPC   C2210299   4.206   1.196   1.763
   88DMPC   H2R10300   4.103   1.173   1.800
   88DMPC   H2S10301   4.220   1.306   1.765
   88DMPC    C310302   4.471   1.030   1.477
   88DMPC    HX10303   4.558   1.082   1.523
   88DMPC    HY10304   4.510   0.985   1.383
   88DMPC   O3110305   4.421   0.932   1.571
   88DMPC   C3110306   4.357   0.830   1.515
   88DMPC   O3210307   4.352   0.809   1.394
   88DMPC   C3210308   4.290   0.744   1.621
   88DMPC   H2X10309   4.188   0.719   1.585
   88DMPC   H2Y10310   4.280   0.801   1.716
   88DMPC   C2310311   4.312   1.127   1.851
   88DMPC   H3R10312   4.411   1.134   1.801
   88DMPC   H3S10313   4.287   1.020   1.862
   88DMPC   C2410314   4.328   1.190   1.991
   88DMPC   H4R10315   4.353   1.298   1.979
   88DMPC   H4S10316   4.414   1.141   2.041
   88DMPC   C2510317   4.205   1.178   2.083
   88DMPC   H5R10318   4.180   1.071   2.096
   88DMPC   H5S10319   4.119   1.229   2.035
   88DMPC   C2610320   4.230   1.242   2.220
   88DMPC   H6R10321   4.259   1.348   2.206
   88DMPC   H6S10322   4.314   1.190   2.270
   88DMPC   C2710323   4.107   1.237   2.313
   88DMPC   H7R10324   4.080   1.131   2.333
   88DMPC   H7S10325   4.022   1.286   2.261
   88DMPC   C2810326   4.132   1.309   2.447
   88DMPC   H8R10327   4.159   1.415   2.427
   88DMPC   H8S10328   4.219   1.260   2.497
   88DMPC   C2910329   4.013   1.307   2.544
   88DMPC   H9R10330   3.982   1.201   2.562
   88DMPC   H9S10331   4.047   1.349   2.641
   88DMPC  C21010332   3.892   1.387   2.495
   88DMPC  H10R10333   3.856   1.343   2.399
   88DMPC  H10S10334   3.924   1.492   2.474
   88DMPC  C21110335   3.773   1.392   2.592
   88DMPC  H11R10336   3.739   1.288   2.613
   88DMPC  H11S10337   3.690   1.445   2.542
   88DMPC  C21210338   3.803   1.462   2.726
   88DMPC  H12R10339   3.847   1.562   2.706
   88DMPC  H12S10340   3.879   1.402   2.781
   88DMPC  C21310341   3.680   1.480   2.816
   88DMPC  H13R10342   3.715   1.516   2.916
   88DMPC  H13S10343   3.633   1.380   2.832
   88DMPC  C21410344   3.574   1.577   2.764
   88DMPC  H14R10345   3.491   1.587   2.838
   88DMPC  H14S10346   3.530   1.541   2.668
   88DMPC  H14T10347   3.618   1.677   2.747
   88DMPC   C3310348   4.370   0.614   1.643
   88DMPC   H3X10349   4.466   0.635   1.694
   88DMPC   H3Y10350   4.393   0.571   1.542
   88DMPC   C3410351   4.292   0.505   1.719
   88DMPC   H4X10352   4.330   0.406   1.684
   88DMPC   H4Y10353   4.184   0.511   1.691
   88DMPC   C3510354   4.306   0.504   1.872
   88DMPC   H5X10355   4.410   0.476   1.899
   88DMPC   H5Y10356   4.239   0.424   1.911
   88DMPC   C3610357   4.272   0.635   1.945
   88DMPC   H6X10358   4.168   0.665   1.918
   88DMPC   H6Y10359   4.341   0.715   1.912
   88DMPC   C3710360   4.283   0.621   2.097
   88DMPC   H7X10361   4.387   0.590   2.123
   88DMPC   H7Y10362   4.214   0.540   2.131
   88DMPC   C3810363   4.249   0.749   2.174
   88DMPC   H8X10364   4.144   0.779   2.150
   88DMPC   H8Y10365   4.316   0.831   2.140
   88DMPC   C3910366   4.261   0.733   2.326
   88DMPC   H9X10367   4.368   0.711   2.351
   88DMPC   H9Y10368   4.199   0.647   2.359
   88DMPC  C31010369   4.217   0.858   2.403
   88DMPC  H10X10370   4.110   0.879   2.379
   88DMPC  H10Y10371   4.277   0.946   2.369
   88DMPC  C31110372   4.232   0.843   2.555
   88DMPC  H11X10373   4.339   0.826   2.579
   88DMPC  H11Y10374   4.174   0.755   2.589
   88DMPC  C31210375   4.184   0.967   2.632
   88DMPC  H12X10376   4.076   0.984   2.610
   88DMPC  H12Y10377   4.241   1.056   2.596
   88DMPC  C31310378   4.203   0.955   2.784
   88DMPC  H13X10379   4.310   0.935   2.805
   88DMPC  H13Y10380   4.145   0.867   2.820
   88DMPC  C31410381   4.158   1.079   2.862
   88DMPC  H14X10382   4.216   1.168   2.829
   88DMPC  H14Y10383   4.175   1.065   2.971
   88DMPC  H14Z10384   4.051   1.099   2.845
   89DMPC     N10385   1.445   6.318   0.650
   89DMPC   C1310386   1.581   6.269   0.612
   89DMPC  H13A10387   1.627   0.010   0.545
   89DMPC  H13B10388   1.573   6.173   0.565
   89DMPC  H13C10389   1.641   6.260   0.701
   89DMPC   C1410390   1.363   0.001   0.526
   89DMPC  H14A10391   1.412   0.069   0.458
   89DMPC  H14B10392   1.265   0.039   0.551
   89DMPC  H14C10393   1.353   6.235   0.479
   89DMPC   C1510394   1.380   6.215   0.736
   89DMPC  H15A10395   1.279   6.247   0.761
   89DMPC  H15B10396   1.437   6.203   0.827
   89DMPC  H15C10397   1.375   6.121   0.683
   89DMPC   C1210398   1.453   0.120   0.721
   89DMPC  H12A10399   1.354   0.145   0.755
   89DMPC  H12B10400   1.481   0.195   0.647
   89DMPC   C1110401   1.551   0.134   0.840
   89DMPC  H11A10402   1.533   0.234   0.887
   89DMPC  H11B10403   1.655   0.133   0.798
   89DMPC     P10404   1.627   0.022   1.055
   89DMPC   O1310405   1.765   0.048   1.009
   89DMPC   O1410406   1.603   6.224   1.125
   89DMPC   O1110407   1.579   0.141   1.147
   89DMPC   O1210408   1.530   0.029   0.932
   89DMPC    C110409   1.439   0.161   1.175
   89DMPC    HA10410   1.383   0.065   1.176
   89DMPC    HB10411   1.394   0.227   1.098
   89DMPC    C210412   1.416   0.227   1.315
   89DMPC    HS10413   1.307   0.213   1.337
   89DMPC   O2110414   1.453   0.366   1.305
   89DMPC   C2110415   1.377   0.445   1.379
   89DMPC   O2210416   1.292   0.408   1.458
   89DMPC   C2210417   1.407   0.591   1.345
   89DMPC   H2R10418   1.317   0.631   1.292
   89DMPC   H2S10419   1.493   0.600   1.277
   89DMPC    C310420   1.497   0.151   1.425
   89DMPC    HX10421   1.606   0.157   1.401
   89DMPC    HY10422   1.469   0.044   1.415
   89DMPC   O3110423   1.466   0.192   1.560
   89DMPC   C3110424   1.550   0.281   1.613
   89DMPC   O3210425   1.650   0.324   1.559
   89DMPC   C3210426   1.497   0.325   1.750
   89DMPC   H2X10427   1.467   0.236   1.809
   89DMPC   H2Y10428   1.407   0.389   1.733
   89DMPC   C2310429   1.429   0.676   1.473
   89DMPC   H3R10430   1.367   0.641   1.558
   89DMPC   H3S10431   1.394   0.779   1.448
   89DMPC   C2410432   1.576   0.690   1.514
   89DMPC   H4R10433   1.636   0.703   1.421
   89DMPC   H4S10434   1.611   0.597   1.563
   89DMPC   C2510435   1.605   0.812   1.602
   89DMPC   H5R10436   1.561   0.903   1.554
   89DMPC   H5S10437   1.715   0.826   1.605
   89DMPC   C2610438   1.555   0.803   1.747
   89DMPC   H6R10439   1.604   0.716   1.795
   89DMPC   H6S10440   1.445   0.786   1.749
   89DMPC   C2710441   1.589   0.929   1.828
   89DMPC   H7R10442   1.527   1.014   1.791
   89DMPC   H7S10443   1.696   0.954   1.808
   89DMPC   C2810444   1.573   0.916   1.980
   89DMPC   H8R10445   1.615   1.009   2.025
   89DMPC   H8S10446   1.635   0.831   2.016
   89DMPC   C2910447   1.429   0.901   2.031
   89DMPC   H9R10448   1.394   0.796   2.014
   89DMPC   H9S10449   1.363   0.968   1.970
   89DMPC  C21010450   1.411   0.940   2.179
   89DMPC  H10R10451   1.303   0.934   2.205
   89DMPC  H10S10452   1.443   1.046   2.190
   89DMPC  C21110453   1.492   0.855   2.279
   89DMPC  H11R10454   1.592   0.835   2.237
   89DMPC  H11S10455   1.441   0.757   2.293
   89DMPC  C21210456   1.514   0.923   2.415
   89DMPC  H12R10457   1.572   1.016   2.399
   89DMPC  H12S10458   1.575   0.856   2.479
   89DMPC  C21310459   1.386   0.960   2.492
   89DMPC  H13R10460   1.326   1.031   2.431
   89DMPC  H13S10461   1.416   1.014   2.585
   89DMPC  C21410462   1.297   0.841   2.531
   89DMPC  H14R10463   1.262   0.787   2.441
   89DMPC  H14S10464   1.209   0.877   2.588
   89DMPC  H14T10465   1.354   0.771   2.595
   89DMPC   C3310466   1.603   0.407   1.826
   89DMPC   H3X10467   1.650   0.481   1.757
   89DMPC   H3Y10468   1.683   0.339   1.863
   89DMPC   C3410469   1.546   0.488   1.944
   89DMPC   H4X10470   1.466   0.555   1.905
   89DMPC   H4Y10471   1.627   0.552   1.984
   89DMPC   C3510472   1.489   0.405   2.060
   89DMPC   H5X10473   1.567   0.335   2.096
   89DMPC   H5Y10474   1.402   0.346   2.024
   89DMPC   C3610475   1.445   0.496   2.176
   89DMPC   H6X10476   1.366   0.566   2.140
   89DMPC   H6Y10477   1.533   0.557   2.207
   89DMPC   C3710478   1.392   0.422   2.301
   89DMPC   H7X10479   1.374   0.499   2.379
   89DMPC   H7Y10480   1.472   0.354   2.338
   89DMPC   C3810481   1.262   0.344   2.278
   89DMPC   H8X10482   1.283   0.255   2.214
   89DMPC   H8Y10483   1.190   0.409   2.223
   89DMPC   C3910484   1.194   0.298   2.408
   89DMPC   H9X10485   1.101   0.244   2.383
   89DMPC   H9Y10486   1.165   0.388   2.467
   89DMPC  C31010487   1.282   0.208   2.497
   89DMPC  H10X10488   1.374   0.264   2.525
   89DMPC  H10Y10489   1.313   0.119   2.438
   89DMPC  C31110490   1.213   0.162   2.626
   89DMPC  H11X10491   1.132   0.090   2.600
   89DMPC  H11Y10492   1.165   0.250   2.674
   89DMPC  C31210493   1.309   0.100   2.729
   89DMPC  H12X10494   1.250   0.068   2.818
   89DMPC  H12Y10495   1.380   0.179   2.762
   89DMPC  C31310496   1.391   6.310   2.680
   89DMPC  H13X10497   1.455   6.275   2.764
   89DMPC  H13Y10498   1.459   0.013   2.598
   89DMPC  C31410499   1.308   6.191   2.630
   89DMPC  H14X10500   1.249   6.220   2.540
   89DMPC  H14Y10501   1.238   6.157   2.709
   89DMPC  H14Z10502   1.374   6.107   2.602
   90DMPC     N10503   2.566   1.767   1.320
   90DMPC   C1310504   2.583   1.620   1.302
   90DMPC  H13A10505   2.504   1.583   1.237
   90DMPC  H13B10506   2.577   1.570   1.397
   90DMPC  H13C10507   2.678   1.600   1.255
   90DMPC   C1410508   2.436   1.792   1.387
   90DMPC  H14A10509   2.436   1.749   1.486
   90DMPC  H14B10510   2.355   1.749   1.330
   90DMPC  H14C10511   2.420   1.898   1.394
   90DMPC   C1510512   2.677   1.818   1.405
   90DMPC  H15A10513   2.772   1.795   1.359
   90DMPC  H15B10514   2.667   1.925   1.416
   90DMPC  H15C10515   2.673   1.771   1.502
   90DMPC   C1210516   2.568   1.833   1.185
   90DMPC  H12A10517   2.476   1.806   1.134
   90DMPC  H12B10518   2.650   1.790   1.128
   90DMPC   C1110519   2.583   1.987   1.178
   90DMPC  H11A10520   2.561   2.020   1.074
   90DMPC  H11B10521   2.691   2.008   1.199
   90DMPC     P10522   2.534   2.197   1.308
   90DMPC   O1310523   2.514   2.286   1.191
   90DMPC   O1410524   2.668   2.195   1.369
   90DMPC   O1110525   2.430   2.239   1.418
   90DMPC   O1210526   2.494   2.051   1.269
   90DMPC    C110527   2.399   2.155   1.530
   90DMPC    HA10528   2.387   2.048   1.501
   90DMPC    HB10529   2.301   2.188   1.571
   90DMPC    C210530   2.503   2.168   1.645
   90DMPC    HS10531   2.597   2.117   1.616
   90DMPC   O2110532   2.445   2.113   1.765
   90DMPC   C2110533   2.456   1.981   1.770
   90DMPC   O2210534   2.520   1.913   1.691
   90DMPC   C2210535   2.383   1.930   1.893
   90DMPC   H2R10536   2.279   1.969   1.892
   90DMPC   H2S10537   2.435   1.967   1.984
   90DMPC    C310538   2.541   2.318   1.670
   90DMPC    HX10539   2.445   2.375   1.670
   90DMPC    HY10540   2.601   2.355   1.585
   90DMPC   O3110541   2.607   2.342   1.797
   90DMPC   C3110542   2.730   2.293   1.804
   90DMPC   O3210543   2.791   2.241   1.712
   90DMPC   C3210544   2.779   2.298   1.947
   90DMPC   H2X10545   2.778   2.402   1.985
   90DMPC   H2Y10546   2.883   2.259   1.950
   90DMPC   C2310547   2.379   1.776   1.896
   90DMPC   H3R10548   2.483   1.735   1.893
   90DMPC   H3S10549   2.325   1.738   1.806
   90DMPC   C2410550   2.308   1.723   2.021
   90DMPC   H4R10551   2.210   1.774   2.030
   90DMPC   H4S10552   2.369   1.751   2.109
   90DMPC   C2510553   2.283   1.571   2.018
   90DMPC   H5R10554   2.380   1.517   2.006
   90DMPC   H5S10555   2.220   1.548   1.930
   90DMPC   C2610556   2.211   1.519   2.144
   90DMPC   H6R10557   2.180   1.413   2.128
   90DMPC   H6S10558   2.119   1.580   2.157
   90DMPC   C2710559   2.295   1.526   2.272
   90DMPC   H7R10560   2.347   1.624   2.276
   90DMPC   H7S10561   2.373   1.447   2.271
   90DMPC   C2810562   2.211   1.516   2.401
   90DMPC   H8R10563   2.169   1.413   2.411
   90DMPC   H8S10564   2.127   1.587   2.393
   90DMPC   C2910565   2.293   1.552   2.526
   90DMPC   H9R10566   2.354   1.641   2.503
   90DMPC   H9S10567   2.362   1.468   2.551
   90DMPC  C21010568   2.207   1.587   2.649
   90DMPC  H10R10569   2.134   1.665   2.621
   90DMPC  H10S10570   2.275   1.631   2.726
   90DMPC  C21110571   2.132   1.469   2.711
   90DMPC  H11R10572   2.207   1.394   2.746
   90DMPC  H11S10573   2.069   1.421   2.634
   90DMPC  C21210574   2.042   1.508   2.830
   90DMPC  H12R10575   1.998   1.415   2.872
   90DMPC  H12S10576   1.959   1.571   2.792
   90DMPC  C21310577   2.113   1.584   2.943
   90DMPC  H13R10578   2.152   1.680   2.903
   90DMPC  H13S10579   2.200   1.524   2.977
   90DMPC  C21410580   2.024   1.614   3.063
   90DMPC  H14R10581   1.938   1.678   3.033
   90DMPC  H14S10582   2.081   1.667   3.142
   90DMPC  H14T10583   1.984   1.520   3.106
   90DMPC   C3310584   2.688   2.207   2.032
   90DMPC   H3X10585   2.665   2.114   1.976
   90DMPC   H3Y10586   2.592   2.259   2.052
   90DMPC   C3410587   2.752   2.164   2.165
   90DMPC   H4X10588   2.778   2.255   2.224
   90DMPC   H4Y10589   2.846   2.109   2.142
   90DMPC   C3510590   2.660   2.073   2.248
   90DMPC   H5X10591   2.629   1.987   2.184
   90DMPC   H5Y10592   2.568   2.129   2.276
   90DMPC   C3610593   2.726   2.018   2.375
   90DMPC   H6X10594   2.820   1.965   2.347
   90DMPC   H6Y10595   2.657   1.944   2.421
   90DMPC   C3710596   2.758   2.125   2.480
   90DMPC   H7X10597   2.663   2.176   2.508
   90DMPC   H7Y10598   2.826   2.202   2.437
   90DMPC   C3810599   2.822   2.067   2.607
   90DMPC   H8X10600   2.920   2.023   2.579
   90DMPC   H8Y10601   2.757   1.986   2.645
   90DMPC   C3910602   2.843   2.172   2.717
   90DMPC   H9X10603   2.744   2.207   2.754
   90DMPC   H9Y10604   2.896   2.260   2.674
   90DMPC  C31010605   2.926   2.120   2.836
   90DMPC  H10X10606   2.937   2.202   2.910
   90DMPC  H10Y10607   3.027   2.093   2.799
   90DMPC  C31110608   2.866   1.997   2.906
   90DMPC  H11X10609   2.855   1.915   2.830
   90DMPC  H11Y10610   2.765   2.021   2.944
   90DMPC  C31210611   2.953   1.940   3.019
   90DMPC  H12X10612   3.053   1.916   2.979
   90DMPC  H12Y10613   2.907   1.845   3.054
   90DMPC  C31310614   2.970   2.033   3.141
   90DMPC  H13X10615   3.022   2.125   3.108
   90DMPC  H13Y10616   3.036   1.982   3.214
   90DMPC  C31410617   2.840   2.072   3.212
   90DMPC  H14X10618   2.863   2.135   3.302
   90DMPC  H14Y10619   2.785   1.982   3.245
   90DMPC  H14Z10620   2.775   2.132   3.145
   91DMPC     N10621   3.799   1.634   1.297
   91DMPC   C1310622   3.755   1.581   1.165
   91DMPC  H13A10623   3.667   1.635   1.132
   91DMPC  H13B10624   3.730   1.476   1.174
   91DMPC  H13C10625   3.833   1.594   1.092
   91DMPC   C1410626   3.842   1.775   1.279
   91DMPC  H14A10627   3.872   1.817   1.375
   91DMPC  H14B10628   3.759   1.834   1.240
   91DMPC  H14C10629   3.925   1.780   1.211
   91DMPC   C1510630   3.684   1.632   1.392
   91DMPC  H15A10631   3.610   1.703   1.358
   91DMPC  H15B10632   3.720   1.660   1.490
   91DMPC  H15C10633   3.641   1.533   1.394
   91DMPC   C1210634   3.914   1.553   1.352
   91DMPC  H12A10635   3.963   1.614   1.428
   91DMPC  H12B10636   3.986   1.539   1.271
   91DMPC   C1110637   3.884   1.416   1.416
   91DMPC  H11A10638   3.833   1.435   1.513
   91DMPC  H11B10639   3.982   1.367   1.439
   91DMPC     P10640   3.685   1.255   1.380
   91DMPC   O1310641   3.680   1.122   1.313
   91DMPC   O1410642   3.567   1.342   1.362
   91DMPC   O1110643   3.712   1.233   1.534
   91DMPC   O1210644   3.812   1.331   1.328
   91DMPC    C110645   3.803   1.133   1.583
   91DMPC    HA10646   3.845   1.167   1.681
   91DMPC    HB10647   3.889   1.118   1.514
   91DMPC    C210648   3.733   0.996   1.607
   91DMPC    HS10649   3.680   0.973   1.512
   91DMPC   O2110650   3.641   1.009   1.718
   91DMPC   C2110651   3.540   0.925   1.711
   91DMPC   O2210652   3.510   0.859   1.612
   91DMPC   C2210653   3.467   0.918   1.845
   91DMPC   H2R10654   3.540   0.887   1.922
   91DMPC   H2S10655   3.389   0.840   1.838
   91DMPC    C310656   3.836   0.881   1.633
   91DMPC    HX10657   3.914   0.889   1.553
   91DMPC    HY10658   3.788   0.782   1.616
   91DMPC   O3110659   3.902   0.890   1.762
   91DMPC   C3110660   3.841   0.822   1.859
   91DMPC   O3210661   3.744   0.748   1.843
   91DMPC   C3210662   3.902   0.856   1.994
   91DMPC   H2X10663   3.979   0.935   1.982
   91DMPC   H2Y10664   3.950   0.765   2.036
   91DMPC   C2310665   3.405   1.052   1.887
   91DMPC   H3R10666   3.478   1.135   1.876
   91DMPC   H3S10667   3.381   1.043   1.995
   91DMPC   C2410668   3.276   1.086   1.811
   91DMPC   H4R10669   3.208   0.998   1.811
   91DMPC   H4S10670   3.302   1.110   1.706
   91DMPC   C2510671   3.199   1.205   1.872
   91DMPC   H5R10672   3.124   1.241   1.798
   91DMPC   H5S10673   3.271   1.288   1.890
   91DMPC   C2610674   3.126   1.172   2.003
   91DMPC   H6R10675   3.195   1.121   2.073
   91DMPC   H6S10676   3.043   1.101   1.980
   91DMPC   C2710677   3.069   1.296   2.073
   91DMPC   H7R10678   3.011   1.356   1.999
   91DMPC   H7S10679   3.154   1.358   2.108
   91DMPC   C2810680   2.977   1.266   2.192
   91DMPC   H8R10681   2.881   1.224   2.154
   91DMPC   H8S10682   2.953   1.363   2.242
   91DMPC   C2910683   3.033   1.168   2.297
   91DMPC   H9R10684   3.137   1.197   2.323
   91DMPC   H9S10685   3.035   1.066   2.252
   91DMPC  C21010686   2.948   1.166   2.425
   91DMPC  H10R10687   2.841   1.153   2.398
   91DMPC  H10S10688   2.958   1.266   2.475
   91DMPC  C21110689   2.987   1.057   2.526
   91DMPC  H11R10690   2.937   1.080   2.623
   91DMPC  H11S10691   3.097   1.061   2.544
   91DMPC  C21210692   2.946   0.915   2.484
   91DMPC  H12R10693   3.000   0.887   2.390
   91DMPC  H12S10694   2.837   0.914   2.462
   91DMPC  C21310695   2.976   0.810   2.592
   91DMPC  H13R10696   2.923   0.839   2.685
   91DMPC  H13S10697   3.085   0.810   2.613
   91DMPC  C21410698   2.934   0.667   2.555
   91DMPC  H14R10699   2.824   0.663   2.534
   91DMPC  H14S10700   2.957   0.598   2.638
   91DMPC  H14T10701   2.987   0.633   2.464
   91DMPC   C3310702   3.789   0.905   2.086
   91DMPC   H3X10703   3.720   0.820   2.106
   91DMPC   H3Y10704   3.732   0.984   2.032
   91DMPC   C3410705   3.837   0.963   2.220
   91DMPC   H4X10706   3.892   1.057   2.200
   91DMPC   H4Y10707   3.907   0.891   2.267
   91DMPC   C3510708   3.722   0.990   2.319
   91DMPC   H5X10709   3.765   1.031   2.413
   91DMPC   H5Y10710   3.674   0.893   2.343
   91DMPC   C3610711   3.614   1.087   2.268
   91DMPC   H6X10712   3.581   1.054   2.166
   91DMPC   H6Y10713   3.656   1.189   2.258
   91DMPC   C3710714   3.487   1.089   2.355
   91DMPC   H7X10715   3.452   0.985   2.369
   91DMPC   H7Y10716   3.408   1.144   2.299
   91DMPC   C3810717   3.504   1.154   2.492
   91DMPC   H8X10718   3.535   1.260   2.479
   91DMPC   H8Y10719   3.585   1.102   2.549
   91DMPC   C3910720   3.375   1.149   2.575
   91DMPC   H9X10721   3.347   1.042   2.588
   91DMPC   H9Y10722   3.294   1.199   2.517
   91DMPC  C31010723   3.386   1.217   2.712
   91DMPC  H10X10724   3.409   1.324   2.696
   91DMPC  H10Y10725   3.471   1.172   2.769
   91DMPC  C31110726   3.258   1.205   2.797
   91DMPC  H11X10727   3.172   1.243   2.738
   91DMPC  H11Y10728   3.269   1.272   2.886
   91DMPC  C31210729   3.229   1.063   2.847
   91DMPC  H12X10730   3.317   1.026   2.905
   91DMPC  H12Y10731   3.215   0.995   2.759
   91DMPC  C31310732   3.104   1.053   2.935
   91DMPC  H13X10733   3.016   1.089   2.876
   91DMPC  H13Y10734   3.116   1.122   3.022
   91DMPC  C31410735   3.074   0.912   2.986
   91DMPC  H14X10736   3.061   0.842   2.901
   91DMPC  H14Y10737   2.981   0.912   3.047
   91DMPC  H14Z10738   3.158   0.876   3.049
   92DMPC     N10739   5.066   0.844   0.894
   92DMPC   C1310740   5.062   0.980   0.955
   92DMPC  H13A10741   4.978   0.984   1.022
   92DMPC  H13B10742   5.050   1.054   0.877
   92DMPC  H13C10743   5.154   0.998   1.009
   92DMPC   C1410744   5.175   0.841   0.793
   92DMPC  H14A10745   5.160   0.919   0.719
   92DMPC  H14B10746   5.176   0.744   0.745
   92DMPC  H14C10747   5.270   0.855   0.843
   92DMPC   C1510748   5.097   0.743   0.999
   92DMPC  H15A10749   5.197   0.761   1.036
   92DMPC  H15B10750   5.093   0.644   0.956
   92DMPC  H15C10751   5.026   0.750   1.080
   92DMPC   C1210752   4.935   0.811   0.827
   92DMPC  H12A10753   4.951   0.720   0.769
   92DMPC  H12B10754   4.914   0.890   0.756
   92DMPC   C1110755   4.810   0.789   0.914
   92DMPC  H11A10756   4.825   0.701   0.980
   92DMPC  H11B10757   4.728   0.763   0.841
   92DMPC     P10758   4.630   0.934   1.018
   92DMPC   O1310759   4.559   0.807   1.046
   92DMPC   O1410760   4.579   1.014   0.904
   92DMPC   O1110761   4.632   1.025   1.147
   92DMPC   O1210762   4.782   0.904   0.993
   92DMPC    C110763   4.732   1.126   1.168
   92DMPC    HA10764   4.681   1.217   1.206
   92DMPC    HB10765   4.782   1.158   1.073
   92DMPC    C210766   4.843   1.089   1.272
   92DMPC    HS10767   4.927   1.045   1.213
   92DMPC   O2110768   4.789   0.992   1.364
   92DMPC   C2110769   4.883   0.930   1.431
   92DMPC   O2210770   5.004   0.944   1.414
   92DMPC   C2210771   4.819   0.846   1.541
   92DMPC   H2R10772   4.884   0.759   1.564
   92DMPC   H2S10773   4.720   0.808   1.506
   92DMPC    C310774   4.895   1.216   1.348
   92DMPC    HX10775   4.940   1.284   1.272
   92DMPC    HY10776   4.977   1.187   1.417
   92DMPC   O3110777   4.788   1.282   1.420
   92DMPC   C3110778   4.825   1.397   1.476
   92DMPC   O3210779   4.938   1.441   1.478
   92DMPC   C3210780   4.703   1.466   1.536
   92DMPC   H2X10781   4.627   1.478   1.456
   92DMPC   H2Y10782   4.733   1.566   1.570
   92DMPC   C2310783   4.801   0.936   1.664
   92DMPC   H3R10784   4.747   1.029   1.635
   92DMPC   H3S10785   4.901   0.966   1.701
   92DMPC   C2410786   4.723   0.871   1.779
   92DMPC   H4R10787   4.774   0.777   1.809
   92DMPC   H4S10788   4.620   0.846   1.746
   92DMPC   C2510789   4.717   0.966   1.900
   92DMPC   H5R10790   4.668   1.061   1.870
   92DMPC   H5S10791   4.822   0.989   1.929
   92DMPC   C2610792   4.644   0.910   2.024
   92DMPC   H6R10793   4.666   0.802   2.035
   92DMPC   H6S10794   4.535   0.922   2.010
   92DMPC   C2710795   4.690   0.982   2.151
   92DMPC   H7R10796   4.697   1.091   2.128
   92DMPC   H7S10797   4.792   0.948   2.178
   92DMPC   C2810798   4.598   0.966   2.273
   92DMPC   H8R10799   4.591   0.859   2.301
   92DMPC   H8S10800   4.496   1.001   2.245
   92DMPC   C2910801   4.648   1.048   2.392
   92DMPC   H9R10802   4.667   1.152   2.357
   92DMPC   H9S10803   4.745   1.007   2.427
   92DMPC  C21010804   4.552   1.056   2.511
   92DMPC  H10R10805   4.539   0.955   2.556
   92DMPC  H10S10806   4.452   1.091   2.475
   92DMPC  C21110807   4.602   1.154   2.618
   92DMPC  H11R10808   4.614   1.254   2.572
   92DMPC  H11S10809   4.701   1.121   2.654
   92DMPC  C21210810   4.508   1.168   2.739
   92DMPC  H12R10811   4.499   1.069   2.789
   92DMPC  H12S10812   4.407   1.197   2.702
   92DMPC  C21310813   4.556   1.272   2.841
   92DMPC  H13R10814   4.560   1.371   2.790
   92DMPC  H13S10815   4.659   1.247   2.872
   92DMPC  C21410816   4.468   1.284   2.965
   92DMPC  H14R10817   4.364   1.314   2.937
   92DMPC  H14S10818   4.508   1.361   3.034
   92DMPC  H14T10819   4.463   1.187   3.019
   92DMPC   C3310820   4.643   1.389   1.655
   92DMPC   H3X10821   4.623   1.283   1.629
   92DMPC   H3Y10822   4.544   1.437   1.677
   92DMPC   C3410823   4.727   1.398   1.783
   92DMPC   H4X10824   4.775   1.498   1.787
   92DMPC   H4Y10825   4.808   1.322   1.778
   92DMPC   C3510826   4.646   1.380   1.912
   92DMPC   H5X10827   4.601   1.279   1.913
   92DMPC   H5Y10828   4.564   1.455   1.914
   92DMPC   C3610829   4.732   1.398   2.038
   92DMPC   H6X10830   4.776   1.500   2.040
   92DMPC   H6Y10831   4.817   1.325   2.031
   92DMPC   C3710832   4.659   1.372   2.171
   92DMPC   H7X10833   4.736   1.357   2.249
   92DMPC   H7Y10834   4.599   1.278   2.163
   92DMPC   C3810835   4.566   1.485   2.218
   92DMPC   H8X10836   4.479   1.494   2.150
   92DMPC   H8Y10837   4.623   1.581   2.216
   92DMPC   C3910838   4.517   1.460   2.362
   92DMPC   H9X10839   4.607   1.451   2.427
   92DMPC   H9Y10840   4.462   1.364   2.365
   92DMPC  C31010841   4.428   1.571   2.419
   92DMPC  H10X10842   4.333   1.574   2.360
   92DMPC  H10Y10843   4.478   1.669   2.407
   92DMPC  C31110844   4.395   1.549   2.568
   92DMPC  H11X10845   4.490   1.557   2.626
   92DMPC  H11Y10846   4.356   1.446   2.581
   92DMPC  C31210847   4.292   1.648   2.623
   92DMPC  H12X10848   4.201   1.642   2.560
   92DMPC  H12Y10849   4.332   1.752   2.614
   92DMPC  C31310850   4.251   1.622   2.769
   92DMPC  H13X10851   4.209   1.519   2.776
   92DMPC  H13Y10852   4.170   1.693   2.795
   92DMPC  C31410853   4.364   1.637   2.872
   92DMPC  H14X10854   4.407   1.739   2.868
   92DMPC  H14Y10855   4.445   1.564   2.852
   92DMPC  H14Z10856   4.325   1.619   2.974
   93DMPC     N10857   6.050   0.891   0.738
   93DMPC   C1310858   6.040   0.743   0.736
   93DMPC  H13A10859   6.127   0.700   0.783
   93DMPC  H13B10860   6.034   0.709   0.633
   93DMPC  H13C10861   5.951   0.711   0.788
   93DMPC   C1410862   6.167   0.930   0.654
   93DMPC  H14A10863   6.257   0.888   0.696
   93DMPC  H14B10864   6.177   1.038   0.653
   93DMPC  H14C10865   6.153   0.895   0.553
   93DMPC   C1510866   5.927   0.950   0.677
   93DMPC  H15A10867   5.911   0.908   0.579
   93DMPC  H15B10868   5.939   1.057   0.669
   93DMPC  H15C10869   5.842   0.928   0.740
   93DMPC   C1210870   6.069   0.942   0.879
   93DMPC  H12A10871   6.070   1.050   0.875
   93DMPC  H12B10872   6.168   0.910   0.911
   93DMPC   C1110873   5.969   0.896   0.987
   93DMPC  H11A10874   5.998   0.947   1.082
   93DMPC  H11B10875   5.979   0.786   1.001
   93DMPC     P10876   5.725   0.897   1.052
   93DMPC   O1310877   5.738   0.755   1.092
   93DMPC   O1410878   5.593   0.937   0.996
   93DMPC   O1110879   5.761   0.990   1.173
   93DMPC   O1210880   5.836   0.931   0.948
   93DMPC    C110881   5.670   1.023   1.278
   93DMPC    HA10882   5.563   1.017   1.246
   93DMPC    HB10883   5.688   1.128   1.307
   93DMPC    C210884   5.692   0.937   1.407
   93DMPC    HS10885   5.801   0.947   1.429
   93DMPC   O2110886   5.669   0.797   1.387
   93DMPC   C2110887   5.545   0.762   1.363
   93DMPC   O2210888   5.448   0.836   1.360
   93DMPC   C2210889   5.538   0.611   1.339
   93DMPC   H2R10890   5.613   0.582   1.262
   93DMPC   H2S10891   5.437   0.587   1.299
   93DMPC    C310892   5.620   0.996   1.534
   93DMPC    HX10893   5.513   1.011   1.508
   93DMPC    HY10894   5.661   1.097   1.556
   93DMPC   O3110895   5.626   0.908   1.648
   93DMPC   C3110896   5.743   0.906   1.711
   93DMPC   O3210897   5.839   0.976   1.681
   93DMPC   C3210898   5.739   0.801   1.821
   93DMPC   H2X10899   5.841   0.779   1.855
   93DMPC   H2Y10900   5.695   0.708   1.778
   93DMPC   C2310901   5.561   0.532   1.469
   93DMPC   H3R10902   5.493   0.570   1.549
   93DMPC   H3S10903   5.666   0.547   1.503
   93DMPC   C2410904   5.534   0.382   1.450
   93DMPC   H4R10905   5.603   0.344   1.372
   93DMPC   H4S10906   5.430   0.370   1.413
   93DMPC   C2510907   5.551   0.295   1.575
   93DMPC   H5R10908   5.485   0.334   1.655
   93DMPC   H5S10909   5.656   0.302   1.611
   93DMPC   C2610910   5.515   0.149   1.546
   93DMPC   H6R10911   5.584   0.109   1.468
   93DMPC   H6S10912   5.412   0.148   1.504
   93DMPC   C2710913   5.516   0.055   1.667
   93DMPC   H7R10914   5.467   6.290   1.636
   93DMPC   H7S10915   5.456   0.100   1.748
   93DMPC   C2810916   5.657   0.020   1.719
   93DMPC   H8R10917   5.703   0.112   1.762
   93DMPC   H8S10918   5.719   6.319   1.633
   93DMPC   C2910919   5.658   6.238   1.823
   93DMPC   H9R10920   5.763   6.218   1.852
   93DMPC   H9S10921   5.617   6.145   1.777
   93DMPC  C21010922   5.577   6.269   1.950
   93DMPC  H10R10923   5.470   6.281   1.924
   93DMPC  H10S10924   5.612   0.035   1.993
   93DMPC  C21110925   5.588   6.161   2.059
   93DMPC  H11R10926   5.695   6.149   2.086
   93DMPC  H11S10927   5.553   6.064   2.017
   93DMPC  C21210928   5.509   6.193   2.186
   93DMPC  H12R10929   5.401   6.198   2.162
   93DMPC  H12S10930   5.541   6.292   2.224
   93DMPC  C21310931   5.531   6.089   2.297
   93DMPC  H13R10932   5.640   6.081   2.318
   93DMPC  H13S10933   5.497   5.989   2.260
   93DMPC  C21410934   5.459   6.120   2.429
   93DMPC  H14R10935   5.349   6.126   2.412
   93DMPC  H14S10936   5.494   6.217   2.469
   93DMPC  H14T10937   5.479   6.041   2.504
   93DMPC   C3310938   5.651   0.850   1.938
   93DMPC   H3X10939   5.568   0.914   1.899
   93DMPC   H3Y10940   5.711   0.912   2.007
   93DMPC   C3410941   5.582   0.735   2.014
   93DMPC   H4X10942   5.518   0.679   1.943
   93DMPC   H4Y10943   5.516   0.779   2.092
   93DMPC   C3510944   5.676   0.634   2.082
   93DMPC   H5X10945   5.736   0.687   2.160
   93DMPC   H5Y10946   5.747   0.591   2.008
   93DMPC   C3610947   5.595   0.521   2.147
   93DMPC   H6X10948   5.543   0.464   2.067
   93DMPC   H6Y10949   5.518   0.568   2.212
   93DMPC   C3710950   5.678   0.422   2.232
   93DMPC   H7X10951   5.724   0.478   2.316
   93DMPC   H7Y10952   5.760   0.381   2.170
   93DMPC   C3810953   5.595   0.305   2.288
   93DMPC   H8X10954   5.658   0.246   2.358
   93DMPC   H8Y10955   5.568   0.238   2.203
   93DMPC   C3910956   5.464   0.345   2.359
   93DMPC   H9X10957   5.412   0.253   2.393
   93DMPC   H9Y10958   5.397   0.395   2.286
   93DMPC  C31010959   5.484   0.437   2.481
   93DMPC  H10X10960   5.552   0.520   2.453
   93DMPC  H10Y10961   5.531   0.380   2.563
   93DMPC  C31110962   5.353   0.501   2.532
   93DMPC  H11X10963   5.285   0.421   2.569
   93DMPC  H11Y10964   5.303   0.552   2.447
   93DMPC  C31210965   5.379   0.603   2.644
   93DMPC  H12X10966   5.455   0.676   2.608
   93DMPC  H12Y10967   5.421   0.550   2.732
   93DMPC  C31310968   5.254   0.681   2.686
   93DMPC  H13X10969   5.180   0.610   2.729
   93DMPC  H13Y10970   5.208   0.726   2.595
   93DMPC  C31410971   5.281   0.792   2.788
   93DMPC  H14X10972   5.188   0.846   2.813
   93DMPC  H14Y10973   5.354   0.865   2.746
   93DMPC  H14Z10974   5.324   0.750   2.881
   94DMPC     N10975   1.475   2.580   1.268
   94DMPC   C1310976   1.561   2.521   1.374
   94DMPC  H13A10977   1.606   2.429   1.338
   94DMPC  H13B10978   1.501   2.500   1.461
   94DMPC  H13C10979   1.639   2.591   1.401
   94DMPC   C1410980   1.425   2.712   1.315
   94DMPC  H14A10981   1.509   2.778   1.334
   94DMPC  H14B10982   1.369   2.701   1.407
   94DMPC  H14C10983   1.362   2.757   1.240
   94DMPC   C1510984   1.558   2.604   1.147
   94DMPC  H15A10985   1.498   2.651   1.070
   94DMPC  H15B10986   1.597   2.510   1.109
   94DMPC  H15C10987   1.641   2.670   1.171
   94DMPC   C1210988   1.360   2.489   1.232
   94DMPC  H12A10989   1.402   2.396   1.195
   94DMPC  H12B10990   1.308   2.536   1.149
   94DMPC   C1110991   1.253   2.455   1.339
   94DMPC  H11A10992   1.172   2.401   1.284
   94DMPC  H11B10993   1.210   2.550   1.379
   94DMPC     P10994   1.204   2.322   1.549
   94DMPC   O1310995   1.276   2.236   1.646
   94DMPC   O1410996   1.090   2.261   1.477
   94DMPC   O1110997   1.155   2.454   1.621
   94DMPC   O1210998   1.309   2.375   1.442
   94DMPC    C110999   1.248   2.551   1.671
   94DMPC    HA11000   1.231   2.648   1.618
   94DMPC    HB11001   1.355   2.523   1.652
   94DMPC    C211002   1.233   2.578   1.824
   94DMPC    HS11003   1.313   2.650   1.854
   94DMPC   O2111004   1.240   2.456   1.901
   94DMPC   C2111005   1.364   2.417   1.921
   94DMPC   O2211006   1.464   2.470   1.875
   94DMPC   C2211007   1.366   2.302   2.022
   94DMPC   H2R11008   1.463   2.249   2.013
   94DMPC   H2S11009   1.284   2.231   2.000
   94DMPC    C311010   1.099   2.648   1.857
   94DMPC    HX11011   1.016   2.587   1.815
   94DMPC    HY11012   1.097   2.745   1.803
   94DMPC   O3111013   1.087   2.675   1.999
   94DMPC   C3111014   0.999   2.601   2.066
   94DMPC   O3211015   0.920   2.523   2.016
   94DMPC   C3211016   1.017   2.626   2.216
   94DMPC   H2X11017   0.998   2.733   2.237
   94DMPC   H2Y11018   1.122   2.603   2.243
   94DMPC   C2311019   1.351   2.362   2.163
   94DMPC   H3R11020   1.249   2.406   2.172
   94DMPC   H3S11021   1.425   2.444   2.178
   94DMPC   C2411022   1.371   2.259   2.275
   94DMPC   H4R11023   1.477   2.225   2.276
   94DMPC   H4S11024   1.308   2.170   2.253
   94DMPC   C2511025   1.334   2.313   2.414
   94DMPC   H5R11026   1.233   2.359   2.408
   94DMPC   H5S11027   1.406   2.392   2.444
   94DMPC   C2611028   1.331   2.202   2.521
   94DMPC   H6R11029   1.431   2.156   2.530
   94DMPC   H6S11030   1.260   2.124   2.486
   94DMPC   C2711031   1.285   2.251   2.659
   94DMPC   H7R11032   1.189   2.307   2.647
   94DMPC   H7S11033   1.361   2.320   2.701
   94DMPC   C2811034   1.260   2.135   2.756
   94DMPC   H8R11035   1.355   2.078   2.770
   94DMPC   H8S11036   1.186   2.066   2.709
   94DMPC   C2911037   1.205   2.178   2.892
   94DMPC   H9R11038   1.120   2.247   2.876
   94DMPC   H9S11039   1.284   2.234   2.948
   94DMPC  C21011040   1.157   2.059   2.977
   94DMPC  H10R11041   1.241   1.989   2.994
   94DMPC  H10S11042   1.078   2.005   2.919
   94DMPC  C21111043   1.098   2.101   3.112
   94DMPC  H11R11044   1.022   2.181   3.095
   94DMPC  H11S11045   1.180   2.144   3.175
   94DMPC  C21211046   1.030   1.986   3.188
   94DMPC  H12R11047   1.103   1.903   3.202
   94DMPC  H12S11048   0.945   1.949   3.127
   94DMPC  C21311049   0.978   2.030   3.325
   94DMPC  H13R11050   0.917   2.123   3.311
   94DMPC  H13S11051   1.064   2.057   3.390
   94DMPC  C21411052   0.892   1.926   3.397
   94DMPC  H14R11053   0.804   1.899   3.334
   94DMPC  H14S11054   0.855   1.966   3.493
   94DMPC  H14T11055   0.951   1.834   3.416
   94DMPC   C3311056   0.921   2.539   2.299
   94DMPC   H3X11057   0.935   2.432   2.271
   94DMPC   H3Y11058   0.816   2.568   2.276
   94DMPC   C3411059   0.946   2.553   2.450
   94DMPC   H4X11060   0.938   2.661   2.477
   94DMPC   H4Y11061   1.049   2.519   2.473
   94DMPC   C3511062   0.846   2.474   2.536
   94DMPC   H5X11063   0.849   2.367   2.505
   94DMPC   H5Y11064   0.744   2.512   2.516
   94DMPC   C3611065   0.875   2.484   2.686
   94DMPC   H6X11066   0.876   2.591   2.715
   94DMPC   H6Y11067   0.976   2.442   2.706
   94DMPC   C3711068   0.772   2.411   2.773
   94DMPC   H7X11069   0.768   2.304   2.743
   94DMPC   H7Y11070   0.672   2.456   2.754
   94DMPC   C3811071   0.802   2.418   2.924
   94DMPC   H8X11072   0.809   2.525   2.954
   94DMPC   H8Y11073   0.901   2.371   2.943
   94DMPC   C3911074   0.696   2.348   3.009
   94DMPC   H9X11075   0.690   2.242   2.976
   94DMPC   H9Y11076   0.597   2.395   2.991
   94DMPC  C31011077   0.726   2.350   3.160
   94DMPC  H10X11078   0.732   2.455   3.194
   94DMPC  H10Y11079   0.824   2.302   3.177
   94DMPC  C31111080   0.620   2.276   3.243
   94DMPC  H11X11081   0.609   2.173   3.204
   94DMPC  H11Y11082   0.522   2.328   3.231
   94DMPC  C31211083   0.654   2.268   3.393
   94DMPC  H12X11084   0.664   2.371   3.434
   94DMPC  H12Y11085   0.753   2.218   3.404
   94DMPC  C31311086   0.551   2.189   3.475
   94DMPC  H13X11087   0.539   2.089   3.430
   94DMPC  H13Y11088   0.453   2.241   3.468
   94DMPC  C31411089   0.588   2.173   3.623
   94DMPC  H14X11090   0.510   2.113   3.675
   94DMPC  H14Y11091   0.596   2.272   3.672
   94DMPC  H14Z11092   0.685   2.120   3.632
   95DMPC     N11093   0.754   4.661   1.519
   95DMPC   C1311094   0.874   4.749   1.519
   95DMPC  H13A11095   0.843   4.851   1.503
   95DMPC  H13B11096   0.942   4.720   1.441
   95DMPC  H13C11097   0.923   4.740   1.615
   95DMPC   C1411098   0.692   4.662   1.384
   95DMPC  H14A11099   0.764   4.628   1.310
   95DMPC  H14B11100   0.662   4.763   1.360
   95DMPC  H14C11101   0.606   4.598   1.382
   95DMPC   C1511102   0.796   4.522   1.551
   95DMPC  H15A11103   0.869   4.487   1.480
   95DMPC  H15B11104   0.710   4.457   1.550
   95DMPC  H15C11105   0.839   4.521   1.651
   95DMPC   C1211106   0.655   4.707   1.622
   95DMPC  H12A11107   0.711   4.732   1.712
   95DMPC  H12B11108   0.591   4.623   1.648
   95DMPC   C1111109   0.562   4.825   1.585
   95DMPC  H11A11110   0.516   4.864   1.679
   95DMPC  H11B11111   0.481   4.781   1.522
   95DMPC     P11112   0.547   5.033   1.445
   95DMPC   O1311113   0.445   4.963   1.363
   95DMPC   O1411114   0.637   5.125   1.371
   95DMPC   O1111115   0.478   5.109   1.565
   95DMPC   O1211116   0.635   4.927   1.518
   95DMPC    C111117   0.544   5.212   1.640
   95DMPC    HA11118   0.471   5.255   1.712
   95DMPC    HB11119   0.577   5.295   1.574
   95DMPC    C211120   0.667   5.166   1.726
   95DMPC    HS11121   0.748   5.141   1.652
   95DMPC   O2111122   0.630   5.052   1.805
   95DMPC   C2111123   0.736   4.988   1.851
   95DMPC   O2211124   0.850   5.003   1.810
   95DMPC   C2211125   0.697   4.901   1.970
   95DMPC   H2R11126   0.728   4.796   1.951
   95DMPC   H2S11127   0.587   4.904   1.987
   95DMPC    C311128   0.719   5.282   1.818
   95DMPC    HX11129   0.736   5.372   1.754
   95DMPC    HY11130   0.817   5.251   1.860
   95DMPC   O3111131   0.623   5.313   1.921
   95DMPC   C3111132   0.672   5.379   2.026
   95DMPC   O3211133   0.788   5.416   2.037
   95DMPC   C3211134   0.563   5.400   2.130
   95DMPC   H2X11135   0.474   5.339   2.105
   95DMPC   H2Y11136   0.534   5.507   2.131
   95DMPC   C2311137   0.771   4.958   2.092
   95DMPC   H3R11138   0.746   5.066   2.104
   95DMPC   H3S11139   0.881   4.951   2.074
   95DMPC   C2411140   0.741   4.888   2.225
   95DMPC   H4R11141   0.759   4.779   2.214
   95DMPC   H4S11142   0.634   4.903   2.251
   95DMPC   C2511143   0.830   4.943   2.337
   95DMPC   H5R11144   0.814   5.052   2.345
   95DMPC   H5S11145   0.936   4.925   2.310
   95DMPC   C2611146   0.805   4.880   2.475
   95DMPC   H6R11147   0.816   4.770   2.468
   95DMPC   H6S11148   0.700   4.902   2.506
   95DMPC   C2711149   0.903   4.934   2.581
   95DMPC   H7R11150   0.893   5.045   2.585
   95DMPC   H7S11151   1.006   4.911   2.547
   95DMPC   C2811152   0.884   4.877   2.722
   95DMPC   H8R11153   0.895   4.766   2.719
   95DMPC   H8S11154   0.965   4.918   2.786
   95DMPC   C2911155   0.749   4.914   2.787
   95DMPC   H9R11156   0.667   4.858   2.736
   95DMPC   H9S11157   0.732   5.023   2.771
   95DMPC  C21011158   0.747   4.883   2.937
   95DMPC  H10R11159   0.825   4.945   2.987
   95DMPC  H10S11160   0.773   4.776   2.952
   95DMPC  C21111161   0.612   4.911   3.006
   95DMPC  H11R11162   0.627   4.899   3.116
   95DMPC  H11S11163   0.539   4.833   2.974
   95DMPC  C21211164   0.553   5.050   2.978
   95DMPC  H12R11165   0.515   5.052   2.874
   95DMPC  H12S11166   0.633   5.126   2.988
   95DMPC  C21311167   0.438   5.089   3.073
   95DMPC  H13R11168   0.393   5.183   3.036
   95DMPC  H13S11169   0.482   5.111   3.173
   95DMPC  C21411170   0.329   4.984   3.091
   95DMPC  H14R11171   0.369   4.890   3.133
   95DMPC  H14S11172   0.282   4.961   2.992
   95DMPC  H14T11173   0.250   5.022   3.159
   95DMPC   C3311174   0.614   5.358   2.269
   95DMPC   H3X11175   0.701   5.421   2.298
   95DMPC   H3Y11176   0.648   5.252   2.265
   95DMPC   C3411177   0.506   5.370   2.378
   95DMPC   H4X11178   0.419   5.308   2.348
   95DMPC   H4Y11179   0.473   5.476   2.383
   95DMPC   C3511180   0.555   5.327   2.517
   95DMPC   H5X11181   0.647   5.384   2.541
   95DMPC   H5Y11182   0.582   5.219   2.515
   95DMPC   C3611183   0.452   5.351   2.629
   95DMPC   H6X11184   0.420   5.457   2.627
   95DMPC   H6Y11185   0.502   5.333   2.727
   95DMPC   C3711186   0.328   5.260   2.621
   95DMPC   H7X11187   0.363   5.154   2.626
   95DMPC   H7Y11188   0.277   5.275   2.523
   95DMPC   C3811189   0.227   5.284   2.734
   95DMPC   H8X11190   0.183   5.385   2.722
   95DMPC   H8Y11191   0.281   5.281   2.831
   95DMPC   C3911192   0.114   5.179   2.735
   95DMPC   H9X11193   0.160   5.080   2.755
   95DMPC   H9Y11194   0.067   5.175   2.634
   95DMPC  C31011195   0.004   5.203   2.840
   95DMPC  H10X11196   6.230   5.113   2.841
   95DMPC  H10Y11197   6.232   5.289   2.808
   95DMPC  C31111198   0.056   5.229   2.982
   95DMPC  H11X11199   0.094   5.333   2.989
   95DMPC  H11Y11200   0.141   5.160   3.001
   95DMPC  C31211201   6.241   5.205   3.091
   95DMPC  H12X11202   6.212   5.098   3.090
   95DMPC  H12Y11203   6.150   5.265   3.068
   95DMPC  C31311204   6.290   5.242   3.232
   95DMPC  H13X11205   0.025   5.350   3.233
   95DMPC  H13Y11206   0.093   5.185   3.253
   95DMPC  C31411207   6.189   5.215   3.343
   95DMPC  H14X11208   6.231   5.244   3.441
   95DMPC  H14Y11209   6.163   5.107   3.346
   95DMPC  H14Z11210   6.096   5.273   3.326
   96DMPC     N11211   0.661   1.064   1.148
   96DMPC   C1311212   0.627   1.138   1.023
   96DMPC  H13A11213   0.708   1.205   0.998
   96DMPC  H13B11214   0.537   1.195   1.038
   96DMPC  H13C11215   0.612   1.067   0.942
   96DMPC   C1411216   0.550   0.969   1.177
   96DMPC  H14A11217   0.572   0.915   1.267
   96DMPC  H14B11218   0.540   0.899   1.095
   96DMPC  H14C11219   0.458   1.023   1.190
   96DMPC   C1511220   0.785   0.985   1.125
   96DMPC  H15A11221   0.807   0.927   1.214
   96DMPC  H15B11222   0.867   1.053   1.106
   96DMPC  H15C11223   0.771   0.919   1.041
   96DMPC   C1211224   0.679   1.164   1.259
   96DMPC  H12A11225   0.584   1.211   1.277
   96DMPC  H12B11226   0.747   1.240   1.222
   96DMPC   C1111227   0.736   1.115   1.394
   96DMPC  H11A11228   0.749   1.202   1.462
   96DMPC  H11B11229   0.838   1.074   1.377
   96DMPC     P11230   0.537   1.053   1.540
   96DMPC   O1311231   0.446   0.936   1.548
   96DMPC   O1411232   0.476   1.179   1.489
   96DMPC   O1111233   0.604   1.080   1.681
   96DMPC   O1211234   0.656   1.012   1.449
   96DMPC    C111235   0.731   1.026   1.719
   96DMPC    HA11236   0.760   1.072   1.817
   96DMPC    HB11237   0.812   1.054   1.648
   96DMPC    C211238   0.733   0.872   1.742
   96DMPC    HS11239   0.732   0.827   1.640
   96DMPC   O2111240   0.614   0.837   1.814
   96DMPC   C2111241   0.581   0.711   1.803
   96DMPC   O2211242   0.643   0.625   1.741
   96DMPC   C2211243   0.449   0.687   1.876
   96DMPC   H2R11244   0.418   0.581   1.862
   96DMPC   H2S11245   0.372   0.753   1.832
   96DMPC    C311246   0.863   0.823   1.816
   96DMPC    HX11247   0.950   0.864   1.759
   96DMPC    HY11248   0.866   0.712   1.809
   96DMPC   O3111249   0.869   0.865   1.954
   96DMPC   C3111250   0.975   0.813   2.018
   96DMPC   O3211251   1.061   0.745   1.964
   96DMPC   C3211252   0.970   0.845   2.167
   96DMPC   H2X11253   0.903   0.931   2.186
   96DMPC   H2Y11254   1.072   0.870   2.201
   96DMPC   C2311255   0.464   0.717   2.027
   96DMPC   H3R11256   0.519   0.813   2.040
   96DMPC   H3S11257   0.523   0.637   2.075
   96DMPC   C2411258   0.329   0.733   2.097
   96DMPC   H4R11259   0.272   0.638   2.092
   96DMPC   H4S11260   0.270   0.811   2.043
   96DMPC   C2511261   0.342   0.776   2.244
   96DMPC   H5R11262   0.415   0.860   2.250
   96DMPC   H5S11263   0.383   0.692   2.304
   96DMPC   C2611264   0.209   0.824   2.305
   96DMPC   H6R11265   0.136   0.741   2.304
   96DMPC   H6S11266   0.169   0.906   2.241
   96DMPC   C2711267   0.222   0.878   2.448
   96DMPC   H7R11268   0.304   0.953   2.452
   96DMPC   H7S11269   0.250   0.794   2.516
   96DMPC   C2811270   0.092   0.943   2.497
   96DMPC   H8R11271   0.010   0.869   2.484
   96DMPC   H8S11272   0.069   1.031   2.434
   96DMPC   C2911273   0.092   0.986   2.645
   96DMPC   H9R11274   0.113   0.898   2.709
   96DMPC   H9S11275   6.280   1.022   2.669
   96DMPC  C21011276   0.191   1.098   2.679
   96DMPC  H10R11277   0.181   1.179   2.603
   96DMPC  H10S11278   0.295   1.059   2.674
   96DMPC  C21111279   0.165   1.158   2.818
   96DMPC  H11R11280   0.171   1.077   2.894
   96DMPC  H11S11281   0.062   1.200   2.820
   96DMPC  C21211282   0.264   1.269   2.857
   96DMPC  H12R11283   0.268   1.345   2.776
   96DMPC  H12S11284   0.366   1.225   2.867
   96DMPC  C21311285   0.226   1.339   2.989
   96DMPC  H13R11286   0.217   1.262   3.069
   96DMPC  H13S11287   0.126   1.386   2.976
   96DMPC  C21411288   0.325   1.446   3.035
   96DMPC  H14R11289   0.288   1.496   3.127
   96DMPC  H14S11290   0.424   1.401   3.057
   96DMPC  H14T11291   0.338   1.523   2.956
   96DMPC   C3311292   0.920   0.719   2.241
   96DMPC   H3X11293   0.979   0.630   2.208
   96DMPC   H3Y11294   0.814   0.701   2.214
   96DMPC   C3411295   0.932   0.726   2.395
   96DMPC   H4X11296   1.039   0.734   2.423
   96DMPC   H4Y11297   0.892   0.631   2.437
   96DMPC   C3511298   0.855   0.843   2.458
   96DMPC   H5X11299   0.750   0.841   2.422
   96DMPC   H5Y11300   0.901   0.939   2.425
   96DMPC   C3611301   0.854   0.840   2.612
   96DMPC   H6X11302   0.958   0.837   2.649
   96DMPC   H6Y11303   0.802   0.748   2.646
   96DMPC   C3711304   0.783   0.963   2.672
   96DMPC   H7X11305   0.680   0.970   2.630
   96DMPC   H7Y11306   0.839   1.053   2.641
   96DMPC   C3811307   0.773   0.960   2.826
   96DMPC   H8X11308   0.874   0.942   2.870
   96DMPC   H8Y11309   0.708   0.875   2.855
   96DMPC   C3911310   0.716   1.090   2.885
   96DMPC   H9X11311   0.684   1.070   2.989
   96DMPC   H9Y11312   0.626   1.119   2.826
   96DMPC  C31011313   0.817   1.205   2.887
   96DMPC  H10X11314   0.854   1.225   2.784
   96DMPC  H10Y11315   0.905   1.173   2.948
   96DMPC  C31111316   0.764   1.337   2.947
   96DMPC  H11X11317   0.848   1.409   2.954
   96DMPC  H11Y11318   0.727   1.317   3.050
   96DMPC  C31211319   0.651   1.403   2.866
   96DMPC  H12X11320   0.618   1.494   2.921
   96DMPC  H12Y11321   0.564   1.335   2.860
   96DMPC  C31311322   0.691   1.445   2.723
   96DMPC  H13X11323   0.718   1.354   2.665
   96DMPC  H13Y11324   0.781   1.510   2.729
   96DMPC  C31411325   0.580   1.519   2.647
   96DMPC  H14X11326   0.553   1.612   2.701
   96DMPC  H14Y11327   0.490   1.455   2.638
   96DMPC  H14Z11328   0.615   1.546   2.545
   97DMPC     N11329   3.489   4.464   1.938
   97DMPC   C1311330   3.397   4.533   1.845
   97DMPC  H13A11331   3.414   4.640   1.848
   97DMPC  H13B11332   3.294   4.513   1.872
   97DMPC  H13C11333   3.414   4.498   1.744
   97DMPC   C1411334   3.460   4.511   2.076
   97DMPC  H14A11335   3.524   4.459   2.146
   97DMPC  H14B11336   3.356   4.492   2.100
   97DMPC  H14C11337   3.479   4.617   2.082
   97DMPC   C1511338   3.464   4.318   1.929
   97DMPC  H15A11339   3.490   4.284   1.830
   97DMPC  H15B11340   3.360   4.297   1.948
   97DMPC  H15C11341   3.526   4.265   2.000
   97DMPC   C1211342   3.633   4.498   1.906
   97DMPC  H12A11343   3.695   4.448   1.978
   97DMPC  H12B11344   3.645   4.605   1.921
   97DMPC   C1111345   3.688   4.465   1.765
   97DMPC  H11A11346   3.791   4.506   1.763
   97DMPC  H11B11347   3.626   4.519   1.689
   97DMPC     P11348   3.769   4.276   1.617
   97DMPC   O1311349   3.798   4.391   1.527
   97DMPC   O1411350   3.700   4.160   1.556
   97DMPC   O1111351   3.904   4.227   1.681
   97DMPC   O1211352   3.685   4.325   1.741
   97DMPC    C111353   3.910   4.126   1.783
   97DMPC    HA11354   4.006   4.071   1.772
   97DMPC    HB11355   3.828   4.051   1.772
   97DMPC    C211356   3.907   4.182   1.929
   97DMPC    HS11357   3.806   4.226   1.942
   97DMPC   O2111358   4.013   4.279   1.941
   97DMPC   C2111359   3.981   4.380   2.020
   97DMPC   O2211360   3.872   4.397   2.071
   97DMPC   C2211361   4.104   4.466   2.047
   97DMPC   H2R11362   4.177   4.458   1.965
   97DMPC   H2S11363   4.151   4.429   2.141
   97DMPC    C311364   3.927   4.068   2.034
   97DMPC    HX11365   4.020   4.015   2.006
   97DMPC    HY11366   3.844   3.994   2.024
   97DMPC   O3111367   3.942   4.115   2.170
   97DMPC   C3111368   3.828   4.143   2.233
   97DMPC   O3211369   3.717   4.129   2.185
   97DMPC   C3211370   3.857   4.193   2.374
   97DMPC   H2X11371   3.966   4.198   2.392
   97DMPC   H2Y11372   3.813   4.121   2.447
   97DMPC   C2311373   4.061   4.613   2.067
   97DMPC   H3R11374   3.972   4.619   2.134
   97DMPC   H3S11375   4.033   4.656   1.969
   97DMPC   C2411376   4.171   4.699   2.132
   97DMPC   H4R11377   4.264   4.694   2.071
   97DMPC   H4S11378   4.192   4.655   2.232
   97DMPC   C2511379   4.128   4.846   2.147
   97DMPC   H5R11380   4.021   4.850   2.177
   97DMPC   H5S11381   4.137   4.895   2.048
   97DMPC   C2611382   4.212   4.925   2.249
   97DMPC   H6R11383   4.179   5.032   2.243
   97DMPC   H6S11384   4.319   4.921   2.220
   97DMPC   C2711385   4.196   4.881   2.396
   97DMPC   H7R11386   4.255   4.951   2.459
   97DMPC   H7S11387   4.240   4.779   2.409
   97DMPC   C2811388   4.051   4.880   2.445
   97DMPC   H8R11389   3.996   4.795   2.397
   97DMPC   H8S11390   4.002   4.975   2.412
   97DMPC   C2911391   4.035   4.869   2.598
   97DMPC   H9R11392   3.926   4.879   2.621
   97DMPC   H9S11393   4.087   4.954   2.646
   97DMPC  C21011394   4.085   4.737   2.658
   97DMPC  H10R11395   4.195   4.730   2.645
   97DMPC  H10S11396   4.037   4.652   2.604
   97DMPC  C21111397   4.051   4.725   2.808
   97DMPC  H11R11398   3.940   4.729   2.819
   97DMPC  H11S11399   4.095   4.812   2.862
   97DMPC  C21211400   4.102   4.596   2.872
   97DMPC  H12R11401   4.214   4.595   2.869
   97DMPC  H12S11402   4.066   4.509   2.813
   97DMPC  C21311403   4.056   4.580   3.018
   97DMPC  H13R11404   3.945   4.580   3.020
   97DMPC  H13S11405   4.091   4.669   3.076
   97DMPC  C21411406   4.107   4.453   3.087
   97DMPC  H14R11407   4.070   4.363   3.034
   97DMPC  H14S11408   4.071   4.449   3.192
   97DMPC  H14T11409   4.218   4.451   3.088
   97DMPC   C3311410   3.795   4.333   2.395
   97DMPC   H3X11411   3.685   4.329   2.382
   97DMPC   H3Y11412   3.837   4.402   2.319
   97DMPC   C3411413   3.827   4.394   2.533
   97DMPC   H4X11414   3.799   4.502   2.531
   97DMPC   H4Y11415   3.937   4.388   2.550
   97DMPC   C3511416   3.754   4.327   2.650
   97DMPC   H5X11417   3.773   4.217   2.647
   97DMPC   H5Y11418   3.645   4.343   2.637
   97DMPC   C3611419   3.800   4.380   2.786
   97DMPC   H6X11420   3.783   4.490   2.792
   97DMPC   H6Y11421   3.910   4.362   2.794
   97DMPC   C3711422   3.734   4.311   2.907
   97DMPC   H7X11423   3.789   4.342   2.998
   97DMPC   H7Y11424   3.745   4.201   2.895
   97DMPC   C3811425   3.585   4.345   2.925
   97DMPC   H8X11426   3.531   4.326   2.830
   97DMPC   H8Y11427   3.574   4.453   2.949
   97DMPC   C3911428   3.517   4.261   3.034
   97DMPC   H9X11429   3.530   4.153   3.008
   97DMPC   H9Y11430   3.408   4.282   3.033
   97DMPC  C31011431   3.571   4.284   3.176
   97DMPC  H10X11432   3.539   4.384   3.212
   97DMPC  H10Y11433   3.682   4.282   3.175
   97DMPC  C31111434   3.526   4.176   3.277
   97DMPC  H11X11435   3.575   4.197   3.375
   97DMPC  H11Y11436   3.562   4.078   3.240
   97DMPC  C31211437   3.374   4.170   3.299
   97DMPC  H12X11438   3.323   4.150   3.202
   97DMPC  H12Y11439   3.340   4.269   3.336
   97DMPC  C31311440   3.330   4.061   3.399
   97DMPC  H13X11441   3.220   4.069   3.412
   97DMPC  H13Y11442   3.377   4.081   3.497
   97DMPC  C31411443   3.365   3.918   3.357
   97DMPC  H14X11444   3.326   3.847   3.432
   97DMPC  H14Y11445   3.475   3.905   3.351
   97DMPC  H14Z11446   3.321   3.894   3.258
   98DMPC     N11447   3.233   3.795   1.458
   98DMPC   C1311448   3.276   3.935   1.428
   98DMPC  H13A11449   3.256   3.956   1.324
   98DMPC  H13B11450   3.382   3.945   1.448
   98DMPC  H13C11451   3.221   4.004   1.490
   98DMPC   C1411452   3.262   3.768   1.601
   98DMPC  H14A11453   3.368   3.783   1.619
   98DMPC  H14B11454   3.238   3.664   1.622
   98DMPC  H14C11455   3.205   3.833   1.664
   98DMPC   C1511456   3.086   3.787   1.434
   98DMPC  H15A11457   3.067   3.807   1.329
   98DMPC  H15B11458   3.036   3.861   1.494
   98DMPC  H15C11459   3.050   3.688   1.458
   98DMPC   C1211460   3.306   3.699   1.367
   98DMPC  H12A11461   3.412   3.710   1.387
   98DMPC  H12B11462   3.289   3.732   1.265
   98DMPC   C1111463   3.272   3.549   1.374
   98DMPC  H11A11464   3.338   3.495   1.302
   98DMPC  H11B11465   3.166   3.534   1.343
   98DMPC     P11466   3.269   3.352   1.539
   98DMPC   O1311467   3.379   3.270   1.483
   98DMPC   O1411468   3.132   3.316   1.498
   98DMPC   O1111469   3.280   3.354   1.696
   98DMPC   O1211470   3.294   3.503   1.506
   98DMPC    C111471   3.365   3.447   1.765
   98DMPC    HA11472   3.301   3.524   1.815
   98DMPC    HB11473   3.436   3.501   1.698
   98DMPC    C211474   3.453   3.380   1.875
   98DMPC    HS11475   3.525   3.316   1.820
   98DMPC   O2111476   3.368   3.302   1.962
   98DMPC   C2111477   3.436   3.209   2.026
   98DMPC   O2211478   3.554   3.182   2.005
   98DMPC   C2211479   3.348   3.145   2.133
   98DMPC   H2R11480   3.244   3.135   2.096
   98DMPC   H2S11481   3.347   3.214   2.221
   98DMPC    C311482   3.531   3.489   1.956
   98DMPC    HX11483   3.595   3.541   1.882
   98DMPC    HY11484   3.600   3.441   2.029
   98DMPC   O3111485   3.443   3.586   2.016
   98DMPC   C3111486   3.404   3.558   2.140
   98DMPC   O3211487   3.447   3.466   2.207
   98DMPC   C3211488   3.295   3.655   2.184
   98DMPC   H2X11489   3.202   3.629   2.130
   98DMPC   H2Y11490   3.324   3.759   2.159
   98DMPC   C2311491   3.402   3.008   2.177
   98DMPC   H3R11492   3.513   3.010   2.186
   98DMPC   H3S11493   3.375   2.932   2.101
   98DMPC   C2411494   3.348   2.967   2.315
   98DMPC   H4R11495   3.237   2.974   2.315
   98DMPC   H4S11496   3.387   3.040   2.389
   98DMPC   C2511497   3.389   2.825   2.358
   98DMPC   H5R11498   3.490   2.801   2.318
   98DMPC   H5S11499   3.317   2.753   2.313
   98DMPC   C2611500   3.391   2.807   2.510
   98DMPC   H6R11501   3.383   2.698   2.534
   98DMPC   H6S11502   3.302   2.857   2.554
   98DMPC   C2711503   3.520   2.861   2.574
   98DMPC   H7R11504   3.537   2.965   2.540
   98DMPC   H7S11505   3.605   2.799   2.539
   98DMPC   C2811506   3.518   2.860   2.728
   98DMPC   H8R11507   3.487   2.760   2.764
   98DMPC   H8S11508   3.444   2.935   2.763
   98DMPC   C2911509   3.656   2.894   2.787
   98DMPC   H9R11510   3.693   2.989   2.743
   98DMPC   H9S11511   3.727   2.813   2.758
   98DMPC  C21011512   3.656   2.908   2.940
   98DMPC  H10R11513   3.605   2.819   2.984
   98DMPC  H10S11514   3.598   2.998   2.968
   98DMPC  C21111515   3.797   2.917   2.999
   98DMPC  H11R11516   3.852   3.001   2.952
   98DMPC  H11S11517   3.851   2.822   2.974
   98DMPC  C21211518   3.799   2.935   3.152
   98DMPC  H12R11519   3.731   2.859   3.197
   98DMPC  H12S11520   3.758   3.036   3.177
   98DMPC  C21311521   3.939   2.919   3.213
   98DMPC  H13R11522   4.006   2.997   3.170
   98DMPC  H13S11523   3.979   2.820   3.184
   98DMPC  C21411524   3.941   2.930   3.366
   98DMPC  H14R11525   3.903   3.029   3.399
   98DMPC  H14S11526   4.045   2.918   3.404
   98DMPC  H14T11527   3.878   2.851   3.411
   98DMPC   C3311528   3.272   3.641   2.336
   98DMPC   H3X11529   3.359   3.685   2.389
   98DMPC   H3Y11530   3.264   3.534   2.364
   98DMPC   C3411531   3.143   3.708   2.386
   98DMPC   H4X11532   3.056   3.652   2.346
   98DMPC   H4Y11533   3.137   3.813   2.348
   98DMPC   C3511534   3.137   3.711   2.540
   98DMPC   H5X11535   3.210   3.787   2.575
   98DMPC   H5Y11536   3.169   3.612   2.579
   98DMPC   C3611537   2.999   3.743   2.599
   98DMPC   H6X11538   2.956   3.833   2.551
   98DMPC   H6Y11539   3.016   3.767   2.707
   98DMPC   C3711540   2.900   3.626   2.594
   98DMPC   H7X11541   2.955   3.534   2.624
   98DMPC   H7Y11542   2.862   3.611   2.491
   98DMPC   C3811543   2.782   3.643   2.692
   98DMPC   H8X11544   2.712   3.719   2.653
   98DMPC   H8Y11545   2.823   3.680   2.788
   98DMPC   C3911546   2.707   3.512   2.721
   98DMPC   H9X11547   2.782   3.432   2.743
   98DMPC   H9Y11548   2.649   3.480   2.632
   98DMPC  C31011549   2.614   3.523   2.843
   98DMPC  H10X11550   2.673   3.559   2.929
   98DMPC  H10Y11551   2.536   3.599   2.821
   98DMPC  C31111552   2.546   3.391   2.882
   98DMPC  H11X11553   2.623   3.313   2.899
   98DMPC  H11Y11554   2.484   3.358   2.795
   98DMPC  C31211555   2.454   3.402   3.005
   98DMPC  H12X11556   2.394   3.309   3.013
   98DMPC  H12Y11557   2.384   3.487   2.988
   98DMPC  C31311558   2.525   3.423   3.140
   98DMPC  H13X11559   2.448   3.447   3.216
   98DMPC  H13Y11560   2.593   3.511   3.133
   98DMPC  C31411561   2.605   3.302   3.188
   98DMPC  H14X11562   2.653   3.323   3.286
   98DMPC  H14Y11563   2.684   3.275   3.116
   98DMPC  H14Z11564   2.538   3.214   3.201
   99DMPC     N11565   4.816   2.933   1.528
   99DMPC   C1311566   4.890   3.045   1.465
   99DMPC  H13A11567   4.820   3.122   1.434
   99DMPC  H13B11568   4.946   3.010   1.379
   99DMPC  H13C11569   4.959   3.088   1.537
   99DMPC   C1411570   4.749   2.983   1.652
   99DMPC  H14A11571   4.824   3.013   1.723
   99DMPC  H14B11572   4.686   2.906   1.694
   99DMPC  H14C11573   4.688   3.069   1.627
   99DMPC   C1511574   4.712   2.888   1.432
   99DMPC  H15A11575   4.760   2.850   1.342
   99DMPC  H15B11576   4.647   2.971   1.407
   99DMPC  H15C11577   4.653   2.809   1.476
   99DMPC   C1211578   4.913   2.823   1.562
   99DMPC  H12A11579   4.987   2.866   1.630
   99DMPC  H12B11580   4.965   2.796   1.471
   99DMPC   C1111581   4.859   2.694   1.625
   99DMPC  H11A11582   4.803   2.721   1.718
   99DMPC  H11B11583   4.945   2.630   1.655
   99DMPC     P11584   4.653   2.550   1.576
   99DMPC   O1311585   4.623   2.439   1.484
   99DMPC   O1411586   4.547   2.652   1.595
   99DMPC   O1111587   4.693   2.493   1.718
   99DMPC   O1211588   4.782   2.624   1.529
   99DMPC    C111589   4.654   2.360   1.757
   99DMPC    HA11590   4.705   2.336   1.853
   99DMPC    HB11591   4.687   2.285   1.683
   99DMPC    C211592   4.501   2.345   1.784
   99DMPC    HS11593   4.448   2.374   1.690
   99DMPC   O2111594   4.470   2.432   1.895
   99DMPC   C2111595   4.354   2.493   1.883
   99DMPC   O2211596   4.267   2.464   1.803
   99DMPC   C2211597   4.348   2.610   1.982
   99DMPC   H2R11598   4.297   2.695   1.932
   99DMPC   H2S11599   4.451   2.641   2.008
   99DMPC    C311600   4.467   2.195   1.815
   99DMPC    HX11601   4.530   2.165   1.901
   99DMPC    HY11602   4.499   2.133   1.728
   99DMPC   O3111603   4.329   2.170   1.849
   99DMPC   C3111604   4.244   2.171   1.746
   99DMPC   O3211605   4.277   2.185   1.629
   99DMPC   C3211606   4.100   2.153   1.794
   99DMPC   H2X11607   4.054   2.075   1.731
   99DMPC   H2Y11608   4.045   2.248   1.777
   99DMPC   C2311609   4.269   2.572   2.109
   99DMPC   H3R11610   4.314   2.482   2.156
   99DMPC   H3S11611   4.164   2.546   2.079
   99DMPC   C2411612   4.264   2.685   2.213
   99DMPC   H4R11613   4.187   2.659   2.289
   99DMPC   H4S11614   4.231   2.779   2.163
   99DMPC   C2511615   4.397   2.709   2.285
   99DMPC   H5R11616   4.478   2.730   2.211
   99DMPC   H5S11617   4.424   2.615   2.339
   99DMPC   C2611618   4.394   2.825   2.386
   99DMPC   H6R11619   4.303   2.813   2.450
   99DMPC   H6S11620   4.385   2.921   2.332
   99DMPC   C2711621   4.518   2.827   2.478
   99DMPC   H7R11622   4.610   2.834   2.417
   99DMPC   H7S11623   4.520   2.730   2.532
   99DMPC   C2811624   4.516   2.939   2.583
   99DMPC   H8R11625   4.583   2.911   2.667
   99DMPC   H8S11626   4.413   2.947   2.625
   99DMPC   C2911627   4.559   3.078   2.531
   99DMPC   H9R11628   4.536   3.154   2.608
   99DMPC   H9S11629   4.497   3.103   2.441
   99DMPC  C21011630   4.708   3.091   2.493
   99DMPC  H10R11631   4.725   3.194   2.458
   99DMPC  H10S11632   4.730   3.022   2.409
   99DMPC  C21111633   4.808   3.062   2.607
   99DMPC  H11R11634   4.911   3.079   2.567
   99DMPC  H11S11635   4.801   2.955   2.637
   99DMPC  C21211636   4.789   3.152   2.731
   99DMPC  H12R11637   4.692   3.128   2.779
   99DMPC  H12S11638   4.786   3.258   2.698
   99DMPC  C21311639   4.900   3.138   2.837
   99DMPC  H13R11640   4.878   3.210   2.919
   99DMPC  H13S11641   4.997   3.169   2.791
   99DMPC  C21411642   4.916   2.999   2.898
   99DMPC  H14R11643   4.948   2.926   2.821
   99DMPC  H14S11644   4.820   2.965   2.942
   99DMPC  H14T11645   4.993   3.001   2.978
   99DMPC   C3311646   4.085   2.111   1.942
   99DMPC   H3X11647   4.153   2.026   1.965
   99DMPC   H3Y11648   3.981   2.074   1.955
   99DMPC   C3411649   4.105   2.224   2.045
   99DMPC   H4X11650   4.046   2.312   2.013
   99DMPC   H4Y11651   4.212   2.254   2.046
   99DMPC   C3511652   4.064   2.185   2.187
   99DMPC   H5X11653   4.125   2.097   2.219
   99DMPC   H5Y11654   3.957   2.154   2.188
   99DMPC   C3611655   4.084   2.299   2.288
   99DMPC   H6X11656   4.016   2.383   2.262
   99DMPC   H6Y11657   4.188   2.336   2.277
   99DMPC   C3711658   4.063   2.258   2.434
   99DMPC   H7X11659   4.119   2.163   2.452
   99DMPC   H7Y11660   3.956   2.238   2.453
   99DMPC   C3811661   4.115   2.362   2.535
   99DMPC   H8X11662   4.222   2.384   2.511
   99DMPC   H8Y11663   4.111   2.319   2.637
   99DMPC   C3911664   4.037   2.495   2.535
   99DMPC   H9X11665   3.934   2.475   2.572
   99DMPC   H9Y11666   4.029   2.534   2.431
   99DMPC  C31011667   4.102   2.603   2.623
   99DMPC  H10X11668   4.200   2.630   2.579
   99DMPC  H10Y11669   4.120   2.560   2.724
   99DMPC  C31111670   4.016   2.730   2.636
   99DMPC  H11X11671   3.924   2.704   2.694
   99DMPC  H11Y11672   3.984   2.762   2.534
   99DMPC  C31211673   4.087   2.848   2.704
   99DMPC  H12X11674   4.014   2.931   2.714
   99DMPC  H12Y11675   4.170   2.883   2.638
   99DMPC  C31311676   4.145   2.816   2.843
   99DMPC  H13X11677   4.224   2.738   2.832
   99DMPC  H13Y11678   4.065   2.774   2.907
   99DMPC  C31411679   4.206   2.937   2.914
   99DMPC  H14X11680   4.247   2.907   3.013
   99DMPC  H14Y11681   4.129   3.016   2.929
   99DMPC  H14Z11682   4.289   2.980   2.853
  100DMPC     N11683   6.231   2.658   1.493
  100DMPC   C1311684   6.290   2.561   1.589
  100DMPC  H13A11685   0.101   2.539   1.560
  100DMPC  H13B11686   6.232   2.469   1.589
  100DMPC  H13C11687   6.288   2.603   1.688
  100DMPC   C1411688   0.020   2.784   1.500
  100DMPC  H14A11689   0.014   2.823   1.601
  100DMPC  H14B11690   6.269   2.856   1.431
  100DMPC  H14C11691   0.122   2.764   1.474
  100DMPC   C1511692   6.241   2.601   1.356
  100DMPC  H15A11693   0.055   2.588   1.330
  100DMPC  H15B11694   6.196   2.669   1.285
  100DMPC  H15C11695   6.192   2.505   1.352
  100DMPC   C1211696   6.087   2.685   1.528
  100DMPC  H12A11697   6.086   2.741   1.621
  100DMPC  H12B11698   6.039   2.590   1.546
  100DMPC   C1111699   6.001   2.762   1.424
  100DMPC  H11A11700   5.904   2.786   1.475
  100DMPC  H11B11701   5.979   2.694   1.339
  100DMPC     P11702   5.982   2.987   1.308
  100DMPC   O1311703   5.881   2.918   1.225
  100DMPC   O1411704   6.071   3.083   1.238
  100DMPC   O1111705   5.912   3.058   1.430
  100DMPC   O1211706   6.071   2.878   1.378
  100DMPC    C111707   5.984   3.096   1.549
  100DMPC    HA11708   6.007   3.205   1.544
  100DMPC    HB11709   6.080   3.042   1.560
  100DMPC    C211710   5.902   3.069   1.678
  100DMPC    HS11711   5.965   3.106   1.762
  100DMPC   O2111712   5.877   2.928   1.687
  100DMPC   C2111713   5.862   2.884   1.811
  100DMPC   O2211714   5.881   2.950   1.912
  100DMPC   C2211715   5.820   2.737   1.808
  100DMPC   H2R11716   5.890   2.681   1.742
  100DMPC   H2S11717   5.717   2.729   1.767
  100DMPC    C311718   5.767   3.150   1.677
  100DMPC    HX11719   5.707   3.108   1.594
  100DMPC    HY11720   5.788   3.256   1.650
  100DMPC   O3111721   5.691   3.139   1.800
  100DMPC   C3111722   5.725   3.225   1.895
  100DMPC   O3211723   5.811   3.312   1.883
  100DMPC   C3211724   5.642   3.200   2.021
  100DMPC   H2X11725   5.661   3.097   2.056
  100DMPC   H2Y11726   5.534   3.209   1.996
  100DMPC   C2311727   5.825   2.679   1.950
  100DMPC   H3R11728   5.749   2.728   2.015
  100DMPC   H3S11729   5.925   2.699   1.994
  100DMPC   C2411730   5.804   2.526   1.954
  100DMPC   H4R11731   5.867   2.481   1.874
  100DMPC   H4S11732   5.698   2.502   1.932
  100DMPC   C2511733   5.847   2.464   2.088
  100DMPC   H5R11734   5.785   2.507   2.170
  100DMPC   H5S11735   5.953   2.493   2.107
  100DMPC   C2611736   5.837   2.311   2.090
  100DMPC   H6R11737   5.875   2.272   1.993
  100DMPC   H6S11738   5.730   2.281   2.099
  100DMPC   C2711739   5.918   2.245   2.202
  100DMPC   H7R11740   6.026   2.269   2.187
  100DMPC   H7S11741   5.907   2.135   2.194
  100DMPC   C2811742   5.878   2.287   2.345
  100DMPC   H8R11743   5.769   2.269   2.360
  100DMPC   H8S11744   5.897   2.396   2.358
  100DMPC   C2911745   5.957   2.209   2.451
  100DMPC   H9R11746   6.066   2.221   2.430
  100DMPC   H9S11747   5.932   2.101   2.444
  100DMPC  C21011748   5.931   2.258   2.594
  100DMPC  H10R11749   5.824   2.244   2.619
  100DMPC  H10S11750   5.954   2.367   2.599
  100DMPC  C21111751   6.017   2.184   2.698
  100DMPC  H11R11752   6.124   2.195   2.670
  100DMPC  H11S11753   5.993   2.076   2.694
  100DMPC  C21211754   5.997   2.232   2.843
  100DMPC  H12R11755   6.062   2.171   2.910
  100DMPC  H12S11756   5.892   2.214   2.872
  100DMPC  C21311757   6.030   2.381   2.867
  100DMPC  H13R11758   6.010   2.404   2.974
  100DMPC  H13S11759   5.961   2.443   2.807
  100DMPC  C21411760   6.174   2.422   2.836
  100DMPC  H14R11761   6.245   2.366   2.900
  100DMPC  H14S11762   6.188   2.531   2.855
  100DMPC  H14T11763   6.199   2.402   2.729
  100DMPC   C3311764   5.679   3.302   2.130
  100DMPC   H3X11765   5.663   3.405   2.090
  100DMPC   H3Y11766   5.787   3.292   2.155
  100DMPC   C3411767   5.596   3.290   2.259
  100DMPC   H4X11768   5.488   3.300   2.233
  100DMPC   H4Y11769   5.622   3.375   2.326
  100DMPC   C3511770   5.615   3.160   2.339
  100DMPC   H5X11771   5.586   3.072   2.277
  100DMPC   H5Y11772   5.547   3.163   2.427
  100DMPC   C3611773   5.759   3.141   2.391
  100DMPC   H6X11774   5.791   3.237   2.438
  100DMPC   H6Y11775   5.827   3.120   2.306
  100DMPC   C3711776   5.774   3.031   2.498
  100DMPC   H7X11777   5.713   3.059   2.587
  100DMPC   H7Y11778   5.880   3.028   2.531
  100DMPC   C3811779   5.731   2.890   2.454
  100DMPC   H8X11780   5.621   2.890   2.435
  100DMPC   H8Y11781   5.749   2.820   2.538
  100DMPC   C3911782   5.801   2.835   2.328
  100DMPC   H9X11783   5.770   2.896   2.240
  100DMPC   H9Y11784   5.765   2.731   2.311
  100DMPC  C31011785   5.955   2.833   2.334
  100DMPC  H10X11786   5.992   2.938   2.344
  100DMPC  H10Y11787   5.993   2.794   2.237
  100DMPC  C31111788   6.014   2.748   2.448
  100DMPC  H11X11789   5.981   2.643   2.435
  100DMPC  H11Y11790   5.976   2.785   2.545
  100DMPC  C31211791   6.168   2.753   2.451
  100DMPC  H12X11792   6.200   2.859   2.464
  100DMPC  H12Y11793   6.208   2.716   2.354
  100DMPC  C31311794   6.228   2.669   2.565
  100DMPC  H13X11795   6.200   2.562   2.549
  100DMPC  H13Y11796   6.184   2.702   2.661
  100DMPC  C31411797   0.090   2.679   2.576
  100DMPC  H14X11798   0.121   2.783   2.596
  100DMPC  H14Y11799   0.138   2.645   2.481
  100DMPC  H14Z11800   0.127   2.614   2.659
  101DMPC     N11801   0.169   3.739   1.817
  101DMPC   C1311802   0.133   3.607   1.875
  101DMPC  H13A11803   0.149   3.607   1.982
  101DMPC  H13B11804   0.196   3.531   1.831
  101DMPC  H13C11805   0.030   3.584   1.852
  101DMPC   C1411806   0.312   3.765   1.847
  101DMPC  H14A11807   0.327   3.765   1.954
  101DMPC  H14B11808   0.340   3.862   1.808
  101DMPC  H14C11809   0.373   3.689   1.801
  101DMPC   C1511810   0.151   3.733   1.670
  101DMPC  H15A11811   0.047   3.715   1.645
  101DMPC  H15B11812   0.212   3.652   1.630
  101DMPC  H15C11813   0.183   3.825   1.624
  101DMPC   C1211814   0.082   3.846   1.879
  101DMPC  H12A11815   0.104   3.849   1.985
  101DMPC  H12B11816   6.270   3.813   1.868
  101DMPC   C1111817   0.090   3.990   1.823
  101DMPC  H11A11818   0.018   4.052   1.882
  101DMPC  H11B11819   0.055   3.987   1.718
  101DMPC     P11820   0.251   4.177   1.762
  101DMPC   O1311821   0.251   4.153   1.615
  101DMPC   O1411822   0.374   4.233   1.821
  101DMPC   O1111823   0.127   4.266   1.803
  101DMPC   O1211824   0.222   4.040   1.834
  101DMPC    C111825   0.139   4.371   1.902
  101DMPC    HA11826   0.041   4.424   1.906
  101DMPC    HB11827   0.215   4.446   1.871
  101DMPC    C211828   0.170   4.322   2.047
  101DMPC    HS11829   0.276   4.288   2.046
  101DMPC   O2111830   0.077   4.217   2.080
  101DMPC   C2111831   0.130   4.118   2.148
  101DMPC   O2211832   0.249   4.102   2.170
  101DMPC   C2211833   0.020   4.024   2.198
  101DMPC   H2R11834   0.045   3.921   2.163
  101DMPC   H2S11835   6.213   4.053   2.155
  101DMPC    C311836   0.159   4.437   2.153
  101DMPC    HX11837   0.058   4.482   2.140
  101DMPC    HY11838   0.233   4.517   2.129
  101DMPC   O3111839   0.170   4.390   2.290
  101DMPC   C3111840   0.296   4.373   2.332
  101DMPC   O3211841   0.395   4.398   2.266
  101DMPC   C3211842   0.296   4.315   2.473
  101DMPC   H2X11843   0.237   4.221   2.474
  101DMPC   H2Y11844   0.248   4.388   2.542
  101DMPC   C2311845   0.016   4.027   2.351
  101DMPC   H3R11846   6.279   4.129   2.386
  101DMPC   H3S11847   0.116   4.002   2.392
  101DMPC   C2411848   6.206   3.925   2.409
  101DMPC   H4R11849   6.232   3.825   2.369
  101DMPC   H4S11850   6.104   3.951   2.375
  101DMPC   C2511851   6.209   3.918   2.562
  101DMPC   H5R11852   6.178   4.016   2.605
  101DMPC   H5S11853   0.023   3.898   2.594
  101DMPC   C2611854   6.118   3.807   2.618
  101DMPC   H6R11855   6.147   3.710   2.572
  101DMPC   H6S11856   6.013   3.828   2.588
  101DMPC   C2711857   6.123   3.793   2.772
  101DMPC   H7R11858   6.090   3.889   2.817
  101DMPC   H7S11859   6.052   3.714   2.802
  101DMPC   C2811860   6.262   3.758   2.829
  101DMPC   H8R11861   6.253   3.748   2.939
  101DMPC   H8S11862   0.041   3.842   2.808
  101DMPC   C2911863   0.031   3.628   2.773
  101DMPC   H9R11864   0.046   3.637   2.664
  101DMPC   H9S11865   6.248   3.546   2.790
  101DMPC  C21011866   0.163   3.586   2.840
  101DMPC  H10R11867   0.192   3.486   2.799
  101DMPC  H10S11868   0.145   3.575   2.949
  101DMPC  C21111869   0.282   3.682   2.820
  101DMPC  H11R11870   0.370   3.639   2.872
  101DMPC  H11S11871   0.259   3.779   2.869
  101DMPC  C21211872   0.319   3.708   2.674
  101DMPC  H12R11873   0.234   3.758   2.622
  101DMPC  H12S11874   0.338   3.611   2.623
  101DMPC  C21311875   0.444   3.797   2.659
  101DMPC  H13R11876   0.426   3.892   2.714
  101DMPC  H13S11877   0.530   3.745   2.708
  101DMPC  C21411878   0.482   3.830   2.515
  101DMPC  H14R11879   0.400   3.887   2.466
  101DMPC  H14S11880   0.500   3.737   2.457
  101DMPC  H14T11881   0.574   3.892   2.513
  101DMPC   C3311882   0.440   4.287   2.520
  101DMPC   H3X11883   0.498   4.382   2.519
  101DMPC   H3Y11884   0.488   4.216   2.449
  101DMPC   C3411885   0.448   4.226   2.661
  101DMPC   H4X11886   0.385   4.134   2.663
  101DMPC   H4Y11887   0.405   4.298   2.735
  101DMPC   C3511888   0.591   4.189   2.702
  101DMPC   H5X11889   0.656   4.279   2.703
  101DMPC   H5Y11890   0.630   4.121   2.622
  101DMPC   C3611891   0.603   4.115   2.836
  101DMPC   H6X11892   0.686   4.040   2.825
  101DMPC   H6Y11893   0.510   4.058   2.856
  101DMPC   C3711894   0.638   4.202   2.958
  101DMPC   H7X11895   0.731   4.260   2.937
  101DMPC   H7Y11896   0.659   4.133   3.042
  101DMPC   C3811897   0.527   4.298   3.002
  101DMPC   H8X11898   0.430   4.243   2.998
  101DMPC   H8Y11899   0.520   4.384   2.932
  101DMPC   C3911900   0.546   4.350   3.146
  101DMPC   H9X11901   0.635   4.416   3.150
  101DMPC   H9Y11902   0.565   4.262   3.212
  101DMPC  C31011903   0.423   4.424   3.201
  101DMPC  H10X11904   0.334   4.359   3.185
  101DMPC  H10Y11905   0.407   4.518   3.144
  101DMPC  C31111906   0.431   4.457   3.351
  101DMPC  H11X11907   0.467   4.367   3.406
  101DMPC  H11Y11908   0.328   4.480   3.386
  101DMPC  C31211909   0.521   4.577   3.385
  101DMPC  H12X11910   0.479   4.668   3.338
  101DMPC  H12Y11911   0.622   4.560   3.341
  101DMPC  C31311912   0.538   4.601   3.536
  101DMPC  H13X11913   0.607   4.687   3.550
  101DMPC  H13Y11914   0.587   4.512   3.581
  101DMPC  C31411915   0.409   4.629   3.613
  101DMPC  H14X11916   0.431   4.652   3.719
  101DMPC  H14Y11917   0.342   4.540   3.611
  101DMPC  H14Z11918   0.354   4.715   3.569
  102DMPC     N11919   1.451   1.045   1.152
  102DMPC   C1311920   1.433   0.928   1.062
  102DMPC  H13A11921   1.339   0.879   1.084
  102DMPC  H13B11922   1.515   0.858   1.076
  102DMPC  H13C11923   1.432   0.961   0.959
  102DMPC   C1411924   1.337   1.139   1.131
  102DMPC  H14A11925   1.244   1.091   1.156
  102DMPC  H14B11926   1.335   1.171   1.028
  102DMPC  H14C11927   1.349   1.226   1.195
  102DMPC   C1511928   1.453   0.998   1.293
  102DMPC  H15A11929   1.475   1.083   1.356
  102DMPC  H15B11930   1.531   0.925   1.304
  102DMPC  H15C11931   1.357   0.956   1.319
  102DMPC   C1211932   1.581   1.113   1.117
  102DMPC  H12A11933   1.581   1.129   1.010
  102DMPC  H12B11934   1.662   1.044   1.139
  102DMPC   C1111935   1.612   1.248   1.184
  102DMPC  H11A11936   1.534   1.321   1.151
  102DMPC  H11B11937   1.710   1.281   1.142
  102DMPC     P11938   1.666   1.368   1.396
  102DMPC   O1311939   1.569   1.477   1.367
  102DMPC   O1411940   1.806   1.389   1.352
  102DMPC   O1111941   1.665   1.336   1.550
  102DMPC   O1211942   1.614   1.237   1.327
  102DMPC    C111943   1.557   1.271   1.618
  102DMPC    HA11944   1.600   1.218   1.706
  102DMPC    HB11945   1.508   1.194   1.556
  102DMPC    C211946   1.448   1.368   1.675
  102DMPC    HS11947   1.386   1.398   1.588
  102DMPC   O2111948   1.511   1.484   1.734
  102DMPC   C2111949   1.425   1.583   1.751
  102DMPC   O2211950   1.307   1.580   1.720
  102DMPC   C2211951   1.495   1.703   1.816
  102DMPC   H2R11952   1.500   1.786   1.743
  102DMPC   H2S11953   1.598   1.676   1.846
  102DMPC    C311954   1.358   1.293   1.779
  102DMPC    HX11955   1.331   1.195   1.733
  102DMPC    HY11956   1.261   1.347   1.791
  102DMPC   O3111957   1.427   1.267   1.903
  102DMPC   C3111958   1.395   1.347   2.005
  102DMPC   O3211959   1.304   1.428   2.004
  102DMPC   C3211960   1.494   1.329   2.119
  102DMPC   H2X11961   1.573   1.407   2.109
  102DMPC   H2Y11962   1.541   1.229   2.115
  102DMPC   C2311963   1.416   1.749   1.940
  102DMPC   H3R11964   1.413   1.664   2.013
  102DMPC   H3S11965   1.312   1.775   1.913
  102DMPC   C2411966   1.481   1.870   2.009
  102DMPC   H4R11967   1.482   1.956   1.938
  102DMPC   H4S11968   1.587   1.845   2.033
  102DMPC   C2511969   1.412   1.915   2.139
  102DMPC   H5R11970   1.310   1.951   2.116
  102DMPC   H5S11971   1.470   2.000   2.181
  102DMPC   C2611972   1.403   1.804   2.246
  102DMPC   H6R11973   1.504   1.759   2.260
  102DMPC   H6S11974   1.334   1.725   2.210
  102DMPC   C2711975   1.353   1.855   2.382
  102DMPC   H7R11976   1.256   1.906   2.367
  102DMPC   H7S11977   1.426   1.929   2.422
  102DMPC   C2811978   1.335   1.741   2.483
  102DMPC   H8R11979   1.432   1.688   2.496
  102DMPC   H8S11980   1.262   1.668   2.441
  102DMPC   C2911981   1.285   1.788   2.620
  102DMPC   H9R11982   1.189   1.844   2.607
  102DMPC   H9S11983   1.360   1.857   2.664
  102DMPC  C21011984   1.261   1.671   2.717
  102DMPC  H10R11985   1.356   1.615   2.728
  102DMPC  H10S11986   1.185   1.603   2.673
  102DMPC  C21111987   1.214   1.715   2.856
  102DMPC  H11R11988   1.119   1.773   2.846
  102DMPC  H11S11989   1.291   1.783   2.900
  102DMPC  C21211990   1.191   1.597   2.950
  102DMPC  H12R11991   1.285   1.537   2.956
  102DMPC  H12S11992   1.111   1.532   2.908
  102DMPC  C21311993   1.151   1.638   3.092
  102DMPC  H13R11994   1.055   1.694   3.088
  102DMPC  H13S11995   1.229   1.706   3.133
  102DMPC  C21411996   1.134   1.520   3.188
  102DMPC  H14R11997   1.053   1.453   3.154
  102DMPC  H14S11998   1.110   1.557   3.290
  102DMPC  H14T11999   1.229   1.461   3.194
  102DMPC   C3312000   1.421   1.349   2.253
  102DMPC   H3X12001   1.348   1.266   2.267
  102DMPC   H3Y12002   1.365   1.445   2.253
  102DMPC   C3412003   1.516   1.352   2.374
  102DMPC   H4X12004   1.585   1.439   2.362
  102DMPC   H4Y12005   1.576   1.259   2.376
  102DMPC   C3512006   1.440   1.367   2.507
  102DMPC   H5X12007   1.386   1.272   2.527
  102DMPC   H5Y12008   1.365   1.447   2.495
  102DMPC   C3612009   1.528   1.402   2.628
  102DMPC   H6X12010   1.462   1.410   2.716
  102DMPC   H6Y12011   1.575   1.501   2.611
  102DMPC   C3712012   1.639   1.299   2.657
  102DMPC   H7X12013   1.710   1.299   2.571
  102DMPC   H7Y12014   1.595   1.198   2.665
  102DMPC   C3812015   1.719   1.329   2.785
  102DMPC   H8X12016   1.761   1.432   2.779
  102DMPC   H8Y12017   1.804   1.257   2.790
  102DMPC   C3912018   1.636   1.316   2.914
  102DMPC   H9X12019   1.590   1.215   2.917
  102DMPC   H9Y12020   1.555   1.392   2.913
  102DMPC  C31012021   1.717   1.336   3.044
  102DMPC  H10X12022   1.645   1.334   3.129
  102DMPC  H10Y12023   1.766   1.435   3.043
  102DMPC  C31112024   1.822   1.227   3.069
  102DMPC  H11X12025   1.902   1.234   2.992
  102DMPC  H11Y12026   1.774   1.127   3.061
  102DMPC  C31212027   1.888   1.238   3.208
  102DMPC  H12X12028   1.809   1.227   3.286
  102DMPC  H12Y12029   1.932   1.339   3.219
  102DMPC  C31312030   1.997   1.134   3.232
  102DMPC  H13X12031   2.075   1.144   3.153
  102DMPC  H13Y12032   1.953   1.032   3.222
  102DMPC  C31412033   2.064   1.145   3.369
  102DMPC  H14X12034   1.988   1.136   3.450
  102DMPC  H14Y12035   2.115   1.243   3.380
  102DMPC  H14Z12036   2.139   1.065   3.382
  103DMPC     N12037   2.295   4.339   1.054
  103DMPC   C1312038   2.249   4.200   1.080
  103DMPC  H13A12039   2.142   4.193   1.066
  103DMPC  H13B12040   2.274   4.172   1.182
  103DMPC  H13C12041   2.298   4.132   1.012
  103DMPC   C1412042   2.442   4.347   1.071
  103DMPC  H14A12043   2.491   4.276   1.005
  103DMPC  H14B12044   2.467   4.325   1.174
  103DMPC  H14C12045   2.476   4.446   1.047
  103DMPC   C1512046   2.260   4.374   0.914
  103DMPC  H15A12047   2.308   4.304   0.846
  103DMPC  H15B12048   2.293   4.474   0.891
  103DMPC  H15C12049   2.153   4.368   0.900
  103DMPC   C1212050   2.226   4.437   1.146
  103DMPC  H12A12051   2.123   4.446   1.113
  103DMPC  H12B12052   2.273   4.533   1.133
  103DMPC   C1112053   2.222   4.406   1.298
  103DMPC  H11A12054   2.153   4.319   1.313
  103DMPC  H11B12055   2.177   4.495   1.347
  103DMPC     P12056   2.355   4.338   1.500
  103DMPC   O1312057   2.495   4.324   1.548
  103DMPC   O1412058   2.270   4.217   1.516
  103DMPC   O1112059   2.285   4.457   1.573
  103DMPC   O1212060   2.353   4.380   1.348
  103DMPC    C112061   2.357   4.568   1.629
  103DMPC    HA12062   2.283   4.648   1.651
  103DMPC    HB12063   2.429   4.611   1.556
  103DMPC    C212064   2.432   4.537   1.763
  103DMPC    HS12065   2.533   4.503   1.732
  103DMPC   O2112066   2.364   4.431   1.833
  103DMPC   C2112067   2.438   4.375   1.927
  103DMPC   O2212068   2.556   4.403   1.948
  103DMPC   C2212069   2.357   4.270   2.002
  103DMPC   H2R12070   2.381   4.170   1.959
  103DMPC   H2S12071   2.249   4.289   1.989
  103DMPC    C312072   2.448   4.665   1.851
  103DMPC    HX12073   2.478   4.749   1.784
  103DMPC    HY12074   2.532   4.646   1.923
  103DMPC   O3112075   2.328   4.697   1.924
  103DMPC   C3112076   2.344   4.801   2.006
  103DMPC   O3212077   2.442   4.873   2.008
  103DMPC   C3212078   2.227   4.808   2.104
  103DMPC   H2X12079   2.132   4.790   2.050
  103DMPC   H2Y12080   2.224   4.909   2.150
  103DMPC   C2312081   2.393   4.272   2.151
  103DMPC   H3R12082   2.366   4.372   2.193
  103DMPC   H3S12083   2.503   4.259   2.165
  103DMPC   C2412084   2.321   4.163   2.232
  103DMPC   H4R12085   2.349   4.064   2.191
  103DMPC   H4S12086   2.211   4.176   2.218
  103DMPC   C2512087   2.352   4.168   2.383
  103DMPC   H5R12088   2.328   4.270   2.420
  103DMPC   H5S12089   2.460   4.150   2.399
  103DMPC   C2612090   2.272   4.066   2.467
  103DMPC   H6R12091   2.163   4.080   2.446
  103DMPC   H6S12092   2.289   4.088   2.575
  103DMPC   C2712093   2.310   3.919   2.442
  103DMPC   H7R12094   2.418   3.906   2.468
  103DMPC   H7S12095   2.298   3.897   2.334
  103DMPC   C2812096   2.228   3.817   2.522
  103DMPC   H8R12097   2.120   3.835   2.501
  103DMPC   H8S12098   2.244   3.833   2.631
  103DMPC   C2912099   2.262   3.672   2.485
  103DMPC   H9R12100   2.367   3.649   2.513
  103DMPC   H9S12101   2.254   3.664   2.374
  103DMPC  C21012102   2.167   3.567   2.546
  103DMPC  H10R12103   2.062   3.601   2.534
  103DMPC  H10S12104   2.178   3.473   2.487
  103DMPC  C21112105   2.194   3.533   2.693
  103DMPC  H11R12106   2.190   3.625   2.754
  103DMPC  H11S12107   2.296   3.490   2.702
  103DMPC  C21212108   2.092   3.432   2.748
  103DMPC  H12R12109   2.087   3.345   2.678
  103DMPC  H12S12110   1.991   3.480   2.749
  103DMPC  C21312111   2.125   3.378   2.888
  103DMPC  H13R12112   2.142   3.464   2.956
  103DMPC  H13S12113   2.219   3.320   2.880
  103DMPC  C21412114   2.016   3.288   2.948
  103DMPC  H14R12115   2.048   3.251   3.048
  103DMPC  H14S12116   1.997   3.201   2.882
  103DMPC  H14T12117   1.922   3.345   2.961
  103DMPC   C3312118   2.246   4.701   2.214
  103DMPC   H3X12119   2.249   4.600   2.167
  103DMPC   H3Y12120   2.158   4.704   2.282
  103DMPC   C3412121   2.373   4.719   2.299
  103DMPC   H4X12122   2.370   4.818   2.350
  103DMPC   H4Y12123   2.461   4.720   2.230
  103DMPC   C3512124   2.395   4.609   2.404
  103DMPC   H5X12125   2.366   4.511   2.362
  103DMPC   H5Y12126   2.328   4.630   2.490
  103DMPC   C3612127   2.540   4.601   2.454
  103DMPC   H6X12128   2.542   4.541   2.547
  103DMPC   H6Y12129   2.576   4.703   2.478
  103DMPC   C3712130   2.637   4.536   2.353
  103DMPC   H7X12131   2.624   4.585   2.253
  103DMPC   H7Y12132   2.610   4.429   2.340
  103DMPC   C3812133   2.785   4.548   2.390
  103DMPC   H8X12134   2.813   4.656   2.392
  103DMPC   H8Y12135   2.846   4.499   2.311
  103DMPC   C3912136   2.824   4.486   2.526
  103DMPC   H9X12137   2.775   4.541   2.608
  103DMPC   H9Y12138   2.934   4.499   2.538
  103DMPC  C31012139   2.791   4.336   2.538
  103DMPC  H10X12140   2.831   4.284   2.448
  103DMPC  H10Y12141   2.681   4.322   2.539
  103DMPC  C31112142   2.852   4.270   2.663
  103DMPC  H11X12143   2.812   4.320   2.754
  103DMPC  H11Y12144   2.962   4.287   2.660
  103DMPC  C31212145   2.823   4.120   2.671
  103DMPC  H12X12146   2.861   4.071   2.579
  103DMPC  H12Y12147   2.712   4.105   2.674
  103DMPC  C31312148   2.885   4.050   2.793
  103DMPC  H13X12149   2.851   3.944   2.793
  103DMPC  H13Y12150   2.845   4.097   2.885
  103DMPC  C31412151   3.038   4.051   2.797
  103DMPC  H14X12152   3.080   4.007   2.704
  103DMPC  H14Y12153   3.075   3.993   2.884
  103DMPC  H14Z12154   3.076   4.155   2.806
  104DMPC     N12155   1.591   3.631   1.631
  104DMPC   C1312156   1.559   3.699   1.503
  104DMPC  H13A12157   1.583   3.633   1.421
  104DMPC  H13B12158   1.617   3.790   1.494
  104DMPC  H13C12159   1.454   3.723   1.500
  104DMPC   C1412160   1.515   3.503   1.639
  104DMPC  H14A12161   1.538   3.452   1.731
  104DMPC  H14B12162   1.543   3.441   1.555
  104DMPC  H14C12163   1.409   3.522   1.635
  104DMPC   C1512164   1.736   3.600   1.632
  104DMPC  H15A12165   1.763   3.547   1.722
  104DMPC  H15B12166   1.794   3.690   1.625
  104DMPC  H15C12167   1.758   3.537   1.546
  104DMPC   C1212168   1.558   3.720   1.749
  104DMPC  H12A12169   1.605   3.816   1.733
  104DMPC  H12B12170   1.603   3.675   1.837
  104DMPC   C1112171   1.408   3.743   1.780
  104DMPC  H11A12172   1.400   3.804   1.874
  104DMPC  H11B12173   1.363   3.645   1.806
  104DMPC     P12174   1.309   3.950   1.669
  104DMPC   O1312175   1.247   3.989   1.540
  104DMPC   O1412176   1.432   4.024   1.709
  104DMPC   O1112177   1.201   3.964   1.782
  104DMPC   O1212178   1.339   3.797   1.668
  104DMPC    C112179   1.084   3.880   1.789
  104DMPC    HA12180   1.083   3.800   1.712
  104DMPC    HB12181   0.995   3.944   1.770
  104DMPC    C212182   1.062   3.813   1.929
  104DMPC    HS12183   0.958   3.834   1.962
  104DMPC   O2112184   1.155   3.862   2.028
  104DMPC   C2112185   1.134   3.988   2.061
  104DMPC   O2212186   1.043   4.058   2.019
  104DMPC   C2212187   1.236   4.030   2.167
  104DMPC   H2R12188   1.209   4.132   2.202
  104DMPC   H2S12189   1.337   4.033   2.122
  104DMPC    C312190   1.073   3.657   1.924
  104DMPC    HX12191   1.164   3.634   1.865
  104DMPC    HY12192   0.987   3.618   1.867
  104DMPC   O3112193   1.074   3.600   2.057
  104DMPC   C3112194   1.177   3.522   2.088
  104DMPC   O3212195   1.263   3.482   2.011
  104DMPC   C3212196   1.173   3.491   2.237
  104DMPC   H2X12197   1.103   3.406   2.254
  104DMPC   H2Y12198   1.136   3.580   2.293
  104DMPC   C2312199   1.232   3.931   2.285
  104DMPC   H3R12200   1.269   3.831   2.251
  104DMPC   H3S12201   1.127   3.919   2.319
  104DMPC   C2412202   1.316   3.975   2.406
  104DMPC   H4R12203   1.284   4.077   2.437
  104DMPC   H4S12204   1.423   3.980   2.377
  104DMPC   C2512205   1.299   3.879   2.525
  104DMPC   H5R12206   1.335   3.778   2.496
  104DMPC   H5S12207   1.190   3.870   2.547
  104DMPC   C2612208   1.371   3.923   2.654
  104DMPC   H6R12209   1.340   4.027   2.678
  104DMPC   H6S12210   1.480   3.922   2.638
  104DMPC   C2712211   1.334   3.831   2.772
  104DMPC   H7R12212   1.366   3.728   2.748
  104DMPC   H7S12213   1.224   3.831   2.782
  104DMPC   C2812214   1.393   3.873   2.907
  104DMPC   H8R12215   1.363   3.978   2.928
  104DMPC   H8S12216   1.504   3.869   2.903
  104DMPC   C2912217   1.342   3.783   3.021
  104DMPC   H9R12218   1.231   3.783   3.017
  104DMPC   H9S12219   1.377   3.679   3.004
  104DMPC  C21012220   1.384   3.828   3.162
  104DMPC  H10R12221   1.359   3.936   3.174
  104DMPC  H10S12222   1.495   3.817   3.173
  104DMPC  C21112223   1.313   3.748   3.272
  104DMPC  H11R12224   1.343   3.641   3.264
  104DMPC  H11S12225   1.204   3.755   3.254
  104DMPC  C21212226   1.344   3.799   3.414
  104DMPC  H12R12227   1.314   3.906   3.420
  104DMPC  H12S12228   1.453   3.793   3.431
  104DMPC  C21312229   1.272   3.722   3.526
  104DMPC  H13R12230   1.303   3.766   3.623
  104DMPC  H13S12231   1.307   3.616   3.525
  104DMPC  C21412232   1.119   3.723   3.519
  104DMPC  H14R12233   1.081   3.827   3.516
  104DMPC  H14S12234   1.076   3.672   3.607
  104DMPC  H14T12235   1.084   3.670   3.428
  104DMPC   C3312236   1.315   3.456   2.284
  104DMPC   H3X12237   1.384   3.539   2.257
  104DMPC   H3Y12238   1.350   3.365   2.232
  104DMPC   C3412239   1.327   3.434   2.436
  104DMPC   H4X12240   1.302   3.529   2.488
  104DMPC   H4Y12241   1.434   3.412   2.459
  104DMPC   C3512242   1.240   3.321   2.494
  104DMPC   H5X12243   1.133   3.352   2.488
  104DMPC   H5Y12244   1.265   3.310   2.602
  104DMPC   C3612245   1.254   3.185   2.425
  104DMPC   H6X12246   1.218   3.192   2.320
  104DMPC   H6Y12247   1.188   3.113   2.479
  104DMPC   C3712248   1.398   3.129   2.422
  104DMPC   H7X12249   1.435   3.122   2.527
  104DMPC   H7Y12250   1.463   3.201   2.368
  104DMPC   C3812251   1.410   2.992   2.352
  104DMPC   H8X12252   1.518   2.967   2.344
  104DMPC   H8Y12253   1.370   3.002   2.249
  104DMPC   C3912254   1.339   2.876   2.423
  104DMPC   H9X12255   1.340   2.787   2.355
  104DMPC   H9Y12256   1.233   2.903   2.440
  104DMPC  C31012257   1.406   2.835   2.555
  104DMPC  H10X12258   1.426   2.926   2.617
  104DMPC  H10Y12259   1.505   2.788   2.532
  104DMPC  C31112260   1.324   2.738   2.641
  104DMPC  H11X12261   1.387   2.710   2.729
  104DMPC  H11Y12262   1.303   2.645   2.584
  104DMPC  C31212263   1.193   2.799   2.692
  104DMPC  H12X12264   1.120   2.804   2.608
  104DMPC  H12Y12265   1.211   2.903   2.727
  104DMPC  C31312266   1.128   2.721   2.808
  104DMPC  H13X12267   1.118   2.614   2.779
  104DMPC  H13Y12268   1.025   2.762   2.823
  104DMPC  C31412269   1.203   2.730   2.941
  104DMPC  H14X12270   1.217   2.836   2.971
  104DMPC  H14Y12271   1.303   2.681   2.934
  104DMPC  H14Z12272   1.145   2.679   3.021
  105DMPC     N12273   1.493   4.366   1.955
  105DMPC   C1312274   1.557   4.332   1.825
  105DMPC  H13A12275   1.559   4.224   1.813
  105DMPC  H13B12276   1.658   4.370   1.824
  105DMPC  H13C12277   1.501   4.377   1.744
  105DMPC   C1412278   1.580   4.315   2.064
  105DMPC  H14A12279   1.585   4.207   2.056
  105DMPC  H14B12280   1.540   4.343   2.160
  105DMPC  H14C12281   1.680   4.354   2.051
  105DMPC   C1512282   1.482   4.514   1.967
  105DMPC  H15A12283   1.581   4.559   1.962
  105DMPC  H15B12284   1.433   4.541   2.059
  105DMPC  H15C12285   1.423   4.551   1.884
  105DMPC   C1212286   1.357   4.301   1.968
  105DMPC  H12A12287   1.311   4.340   2.057
  105DMPC  H12B12288   1.374   4.195   1.982
  105DMPC   C1112289   1.258   4.315   1.851
  105DMPC  H11A12290   1.164   4.265   1.884
  105DMPC  H11B12291   1.299   4.260   1.763
  105DMPC     P12292   1.137   4.477   1.701
  105DMPC   O1312293   1.057   4.355   1.677
  105DMPC   O1412294   1.215   4.531   1.586
  105DMPC   O1112295   1.042   4.591   1.754
  105DMPC   O1212296   1.236   4.453   1.820
  105DMPC    C112297   1.089   4.720   1.795
  105DMPC    HA12298   1.003   4.791   1.789
  105DMPC    HB12299   1.167   4.759   1.726
  105DMPC    C212300   1.144   4.728   1.941
  105DMPC    HS12301   1.240   4.672   1.939
  105DMPC   O2112302   1.045   4.670   2.028
  105DMPC   C2112303   1.097   4.597   2.124
  105DMPC   O2212304   1.217   4.579   2.143
  105DMPC   C2212305   0.985   4.537   2.209
  105DMPC   H2R12306   0.928   4.467   2.145
  105DMPC   H2S12307   0.917   4.618   2.244
  105DMPC    C312308   1.174   4.876   1.981
  105DMPC    HX12309   1.078   4.932   1.972
  105DMPC    HY12310   1.242   4.920   1.905
  105DMPC   O3112311   1.224   4.894   2.115
  105DMPC   C3112312   1.354   4.864   2.128
  105DMPC   O3212313   1.424   4.823   2.036
  105DMPC   C3212314   1.400   4.889   2.271
  105DMPC   H2X12315   1.315   4.923   2.333
  105DMPC   H2Y12316   1.477   4.969   2.269
  105DMPC   C2312317   1.043   4.461   2.329
  105DMPC   H3R12318   1.122   4.392   2.294
  105DMPC   H3S12319   0.962   4.398   2.373
  105DMPC   C2412320   1.095   4.553   2.441
  105DMPC   H4R12321   1.008   4.605   2.488
  105DMPC   H4S12322   1.161   4.631   2.398
  105DMPC   C2512323   1.174   4.480   2.551
  105DMPC   H5R12324   1.200   4.554   2.630
  105DMPC   H5S12325   1.110   4.402   2.598
  105DMPC   C2612326   1.304   4.416   2.500
  105DMPC   H6R12327   1.359   4.491   2.439
  105DMPC   H6S12328   1.280   4.329   2.434
  105DMPC   C2712329   1.397   4.369   2.613
  105DMPC   H7R12330   1.347   4.287   2.669
  105DMPC   H7S12331   1.413   4.454   2.682
  105DMPC   C2812332   1.533   4.320   2.561
  105DMPC   H8R12333   1.584   4.405   2.511
  105DMPC   H8S12334   1.516   4.241   2.485
  105DMPC   C2912335   1.627   4.263   2.669
  105DMPC   H9R12336   1.722   4.236   2.618
  105DMPC   H9S12337   1.584   4.169   2.711
  105DMPC  C21012338   1.661   4.359   2.785
  105DMPC  H10R12339   1.662   4.464   2.747
  105DMPC  H10S12340   1.764   4.335   2.820
  105DMPC  C21112341   1.567   4.347   2.906
  105DMPC  H11R12342   1.569   4.242   2.942
  105DMPC  H11S12343   1.463   4.371   2.877
  105DMPC  C21212344   1.607   4.439   3.022
  105DMPC  H12R12345   1.604   4.545   2.987
  105DMPC  H12S12346   1.712   4.416   3.053
  105DMPC  C21312347   1.516   4.425   3.145
  105DMPC  H13R12348   1.517   4.319   3.178
  105DMPC  H13S12349   1.412   4.450   3.114
  105DMPC  C21412350   1.555   4.514   3.263
  105DMPC  H14R12351   1.550   4.621   3.233
  105DMPC  H14S12352   1.659   4.492   3.295
  105DMPC  H14T12353   1.487   4.498   3.348
  105DMPC   C3312354   1.461   4.760   2.329
  105DMPC   H3X12355   1.544   4.726   2.263
  105DMPC   H3Y12356   1.383   4.681   2.329
  105DMPC   C3412357   1.517   4.773   2.471
  105DMPC   H4X12358   1.602   4.845   2.471
  105DMPC   H4Y12359   1.558   4.674   2.501
  105DMPC   C3512360   1.415   4.816   2.579
  105DMPC   H5X12361   1.324   4.754   2.569
  105DMPC   H5Y12362   1.387   4.922   2.561
  105DMPC   C3612363   1.471   4.799   2.721
  105DMPC   H6X12364   1.565   4.857   2.730
  105DMPC   H6Y12365   1.495   4.692   2.736
  105DMPC   C3712366   1.375   4.843   2.834
  105DMPC   H7X12367   1.422   4.813   2.930
  105DMPC   H7Y12368   1.279   4.789   2.825
  105DMPC   C3812369   1.348   4.995   2.837
  105DMPC   H8X12370   1.290   5.023   2.746
  105DMPC   H8Y12371   1.446   5.048   2.832
  105DMPC   C3912372   1.272   5.045   2.961
  105DMPC   H9X12373   1.174   4.992   2.969
  105DMPC   H9Y12374   1.251   5.153   2.946
  105DMPC  C31012375   1.349   5.029   3.093
  105DMPC  H10X12376   1.452   5.069   3.079
  105DMPC  H10Y12377   1.357   4.921   3.118
  105DMPC  C31112378   1.285   5.103   3.212
  105DMPC  H11X12379   1.181   5.065   3.226
  105DMPC  H11Y12380   1.279   5.211   3.187
  105DMPC  C31212381   1.363   5.084   3.343
  105DMPC  H12X12382   1.467   5.121   3.328
  105DMPC  H12Y12383   1.369   4.976   3.366
  105DMPC  C31312384   1.304   5.156   3.466
  105DMPC  H13X12385   1.366   5.131   3.554
  105DMPC  H13Y12386   1.202   5.116   3.485
  105DMPC  C31412387   1.295   5.309   3.454
  105DMPC  H14X12388   1.226   5.338   3.372
  105DMPC  H14Y12389   1.395   5.352   3.434
  105DMPC  H14Z12390   1.257   5.352   3.549
  106DMPC     N12391   2.275   0.775   1.014
  106DMPC   C1312392   2.392   0.697   0.965
  106DMPC  H13A12393   2.394   0.695   0.857
  106DMPC  H13B12394   2.386   0.596   1.003
  106DMPC  H13C12395   2.484   0.742   1.002
  106DMPC   C1412396   2.282   0.780   1.162
  106DMPC  H14A12397   2.290   0.681   1.202
  106DMPC  H14B12398   2.193   0.828   1.200
  106DMPC  H14C12399   2.368   0.838   1.192
  106DMPC   C1512400   2.284   0.914   0.961
  106DMPC  H15A12401   2.378   0.958   0.993
  106DMPC  H15B12402   2.204   0.974   1.002
  106DMPC  H15C12403   2.279   0.913   0.853
  106DMPC   C1212404   2.148   0.708   0.966
  106DMPC  H12A12405   2.147   0.608   1.006
  106DMPC  H12B12406   2.155   0.699   0.858
  106DMPC   C1112407   2.012   0.775   0.999
  106DMPC  H11A12408   1.932   0.713   0.951
  106DMPC  H11B12409   2.010   0.876   0.952
  106DMPC     P12410   1.867   0.858   1.189
  106DMPC   O1312411   1.746   0.780   1.154
  106DMPC   O1412412   1.874   0.998   1.143
  106DMPC   O1112413   1.888   0.855   1.345
  106DMPC   O1212414   1.994   0.780   1.139
  106DMPC    C112415   2.016   0.891   1.401
  106DMPC    HA12416   2.067   0.969   1.339
  106DMPC    HB12417   2.082   0.802   1.407
  106DMPC    C212418   2.003   0.951   1.544
  106DMPC    HS12419   2.103   0.993   1.570
  106DMPC   O2112420   1.962   0.845   1.632
  106DMPC   C2112421   2.003   0.862   1.756
  106DMPC   O2212422   2.077   0.951   1.794
  106DMPC   C2212423   1.943   0.753   1.844
  106DMPC   H2R12424   2.002   0.660   1.828
  106DMPC   H2S12425   1.838   0.733   1.814
  106DMPC    C312426   1.897   1.067   1.542
  106DMPC    HX12427   1.804   1.025   1.498
  106DMPC    HY12428   1.931   1.146   1.472
  106DMPC   O3112429   1.863   1.119   1.673
  106DMPC   C3112430   1.927   1.229   1.710
  106DMPC   O3212431   2.014   1.285   1.645
  106DMPC   C3212432   1.874   1.277   1.844
  106DMPC   H2X12433   1.886   1.386   1.849
  106DMPC   H2Y12434   1.766   1.253   1.853
  106DMPC   C2312435   1.948   0.791   1.993
  106DMPC   H3R12436   1.870   0.868   2.013
  106DMPC   H3S12437   2.047   0.834   2.019
  106DMPC   C2412438   1.925   0.670   2.084
  106DMPC   H4R12439   2.015   0.605   2.079
  106DMPC   H4S12440   1.839   0.611   2.047
  106DMPC   C2512441   1.899   0.706   2.231
  106DMPC   H5R12442   1.796   0.747   2.240
  106DMPC   H5S12443   1.970   0.785   2.264
  106DMPC   C2612444   1.914   0.585   2.325
  106DMPC   H6R12445   2.022   0.560   2.329
  106DMPC   H6S12446   1.861   0.497   2.281
  106DMPC   C2712447   1.863   0.607   2.468
  106DMPC   H7R12448   1.877   0.713   2.498
  106DMPC   H7S12449   1.925   0.544   2.536
  106DMPC   C2812450   1.716   0.565   2.487
  106DMPC   H8R12451   1.704   0.463   2.444
  106DMPC   H8S12452   1.649   0.633   2.432
  106DMPC   C2912453   1.675   0.558   2.636
  106DMPC   H9R12454   1.671   0.661   2.678
  106DMPC   H9S12455   1.755   0.502   2.689
  106DMPC  C21012456   1.541   0.486   2.659
  106DMPC  H10R12457   1.547   0.386   2.610
  106DMPC  H10S12458   1.460   0.544   2.609
  106DMPC  C21112459   1.504   0.465   2.807
  106DMPC  H11R12460   1.406   0.413   2.811
  106DMPC  H11S12461   1.492   0.565   2.856
  106DMPC  C21212462   1.608   0.384   2.887
  106DMPC  H12R12463   1.703   0.441   2.891
  106DMPC  H12S12464   1.627   0.288   2.834
  106DMPC  C21312465   1.567   0.353   3.032
  106DMPC  H13R12466   1.545   0.449   3.084
  106DMPC  H13S12467   1.654   0.306   3.083
  106DMPC  C21412468   1.447   0.259   3.047
  106DMPC  H14R12469   1.466   0.163   2.994
  106DMPC  H14S12470   1.355   0.305   3.007
  106DMPC  H14T12471   1.431   0.235   3.155
  106DMPC   C3312472   1.951   1.210   1.959
  106DMPC   H3X12473   2.060   1.230   1.949
  106DMPC   H3Y12474   1.935   1.100   1.954
  106DMPC   C3412475   1.904   1.258   2.097
  106DMPC   H4X12476   1.793   1.248   2.102
  106DMPC   H4Y12477   1.928   1.366   2.110
  106DMPC   C3512478   1.964   1.177   2.213
  106DMPC   H5X12479   2.074   1.190   2.215
  106DMPC   H5Y12480   1.942   1.070   2.196
  106DMPC   C3612481   1.905   1.217   2.350
  106DMPC   H6X12482   1.795   1.225   2.338
  106DMPC   H6Y12483   1.943   1.318   2.379
  106DMPC   C3712484   1.932   1.116   2.462
  106DMPC   H7X12485   1.900   1.015   2.428
  106DMPC   H7Y12486   1.869   1.144   2.549
  106DMPC   C3812487   2.079   1.109   2.508
  106DMPC   H8X12488   2.109   1.207   2.549
  106DMPC   H8Y12489   2.144   1.087   2.420
  106DMPC   C3912490   2.104   1.000   2.614
  106DMPC   H9X12491   2.211   1.001   2.642
  106DMPC   H9Y12492   2.081   0.902   2.568
  106DMPC  C31012493   2.020   1.017   2.742
  106DMPC  H10X12494   1.912   1.010   2.717
  106DMPC  H10Y12495   2.038   1.118   2.785
  106DMPC  C31112496   2.048   0.912   2.851
  106DMPC  H11X12497   1.979   0.930   2.936
  106DMPC  H11Y12498   2.153   0.924   2.888
  106DMPC  C31212499   2.030   0.767   2.802
  106DMPC  H12X12500   2.109   0.744   2.726
  106DMPC  H12Y12501   1.931   0.758   2.752
  106DMPC  C31312502   2.038   0.663   2.914
  106DMPC  H13X12503   1.955   0.681   2.985
  106DMPC  H13Y12504   2.134   0.676   2.969
  106DMPC  C31412505   2.030   0.519   2.863
  106DMPC  H14X12506   2.031   0.447   2.948
  106DMPC  H14Y12507   2.116   0.496   2.797
  106DMPC  H14Z12508   1.937   0.503   2.805
  107DMPC     N12509   4.556   0.507   0.758
  107DMPC   C1312510   4.502   0.629   0.691
  107DMPC  H13A12511   4.552   0.717   0.728
  107DMPC  H13B12512   4.396   0.636   0.711
  107DMPC  H13C12513   4.517   0.620   0.584
  107DMPC   C1412514   4.535   0.521   0.905
  107DMPC  H14A12515   4.586   0.610   0.941
  107DMPC  H14B12516   4.574   0.434   0.955
  107DMPC  H14C12517   4.429   0.531   0.926
  107DMPC   C1512518   4.477   0.389   0.710
  107DMPC  H15A12519   4.512   0.300   0.759
  107DMPC  H15B12520   4.488   0.381   0.603
  107DMPC  H15C12521   4.373   0.404   0.734
  107DMPC   C1212522   4.702   0.490   0.723
  107DMPC  H12A12523   4.754   0.580   0.755
  107DMPC  H12B12524   4.708   0.486   0.615
  107DMPC   C1112525   4.779   0.368   0.779
  107DMPC  H11A12526   4.880   0.371   0.733
  107DMPC  H11B12527   4.729   0.274   0.747
  107DMPC     P12528   4.912   0.333   0.996
  107DMPC   O1312529   5.018   0.431   0.964
  107DMPC   O1412530   4.943   0.191   0.968
  107DMPC   O1112531   4.870   0.348   1.148
  107DMPC   O1212532   4.780   0.374   0.921
  107DMPC    C112533   4.779   0.450   1.189
  107DMPC    HA12534   4.674   0.416   1.177
  107DMPC    HB12535   4.791   0.543   1.128
  107DMPC    C212536   4.800   0.494   1.338
  107DMPC    HS12537   4.754   0.595   1.353
  107DMPC   O2112538   4.939   0.493   1.373
  107DMPC   C2112539   5.004   0.595   1.321
  107DMPC   O2212540   4.951   0.686   1.259
  107DMPC   C2212541   5.152   0.586   1.356
  107DMPC   H2R12542   5.208   0.648   1.281
  107DMPC   H2S12543   5.188   0.481   1.348
  107DMPC    C312544   4.725   0.400   1.437
  107DMPC    HX12545   4.773   0.300   1.428
  107DMPC    HY12546   4.619   0.392   1.405
  107DMPC   O3112547   4.729   0.453   1.572
  107DMPC   C3112548   4.717   0.362   1.668
  107DMPC   O3212549   4.705   0.242   1.649
  107DMPC   C3212550   4.714   0.431   1.805
  107DMPC   H2X12551   4.608   0.446   1.831
  107DMPC   H2Y12552   4.764   0.530   1.799
  107DMPC   C2312553   5.178   0.643   1.497
  107DMPC   H3R12554   5.121   0.738   1.510
  107DMPC   H3S12555   5.286   0.667   1.506
  107DMPC   C2412556   5.142   0.546   1.611
  107DMPC   H4R12557   5.219   0.467   1.620
  107DMPC   H4S12558   5.045   0.496   1.587
  107DMPC   C2512559   5.120   0.616   1.747
  107DMPC   H5R12560   5.078   0.541   1.818
  107DMPC   H5S12561   5.043   0.695   1.733
  107DMPC   C2612562   5.246   0.677   1.810
  107DMPC   H6R12563   5.302   0.736   1.735
  107DMPC   H6S12564   5.311   0.594   1.844
  107DMPC   C2712565   5.213   0.768   1.930
  107DMPC   H7R12566   5.304   0.778   1.994
  107DMPC   H7S12567   5.134   0.719   1.991
  107DMPC   C2812568   5.167   0.908   1.888
  107DMPC   H8R12569   5.094   0.899   1.805
  107DMPC   H8S12570   5.255   0.965   1.850
  107DMPC   C2912571   5.099   0.989   2.000
  107DMPC   H9R12572   5.006   0.935   2.032
  107DMPC   H9S12573   5.068   1.087   1.957
  107DMPC  C21012574   5.185   1.014   2.124
  107DMPC  H10R12575   5.286   1.049   2.093
  107DMPC  H10S12576   5.197   0.918   2.179
  107DMPC  C21112577   5.123   1.120   2.217
  107DMPC  H11R12578   5.015   1.095   2.233
  107DMPC  H11S12579   5.126   1.218   2.164
  107DMPC  C21212580   5.193   1.135   2.353
  107DMPC  H12R12581   5.150   1.224   2.404
  107DMPC  H12S12582   5.301   1.154   2.336
  107DMPC  C21312583   5.178   1.014   2.448
  107DMPC  H13R12584   5.231   1.038   2.543
  107DMPC  H13S12585   5.230   0.926   2.403
  107DMPC  C21412586   5.034   0.975   2.482
  107DMPC  H14R12587   5.034   0.893   2.558
  107DMPC  H14S12588   4.981   0.938   2.391
  107DMPC  H14T12589   4.979   1.061   2.523
  107DMPC   C3312590   4.782   0.345   1.913
  107DMPC   H3X12591   4.892   0.356   1.905
  107DMPC   H3Y12592   4.758   0.237   1.898
  107DMPC   C3412593   4.737   0.379   2.057
  107DMPC   H4X12594   4.793   0.315   2.128
  107DMPC   H4Y12595   4.629   0.353   2.066
  107DMPC   C3512596   4.751   0.527   2.097
  107DMPC   H5X12597   4.710   0.539   2.200
  107DMPC   H5Y12598   4.687   0.588   2.030
  107DMPC   C3612599   4.894   0.583   2.095
  107DMPC   H6X12600   4.891   0.689   2.128
  107DMPC   H6Y12601   4.930   0.583   1.989
  107DMPC   C3712602   4.997   0.507   2.181
  107DMPC   H7X12603   5.094   0.559   2.175
  107DMPC   H7Y12604   5.011   0.405   2.137
  107DMPC   C3812605   4.959   0.490   2.329
  107DMPC   H8X12606   5.039   0.431   2.379
  107DMPC   H8Y12607   4.865   0.432   2.336
  107DMPC   C3912608   4.943   0.623   2.406
  107DMPC   H9X12609   4.863   0.684   2.359
  107DMPC   H9Y12610   5.038   0.680   2.396
  107DMPC  C31012611   4.913   0.605   2.556
  107DMPC  H10X12612   4.915   0.704   2.605
  107DMPC  H10Y12613   4.993   0.543   2.600
  107DMPC  C31112614   4.777   0.539   2.587
  107DMPC  H11X12615   4.773   0.520   2.697
  107DMPC  H11Y12616   4.772   0.440   2.536
  107DMPC  C31212617   4.655   0.623   2.549
  107DMPC  H12X12618   4.657   0.648   2.441
  107DMPC  H12Y12619   4.660   0.719   2.606
  107DMPC  C31312620   4.521   0.554   2.582
  107DMPC  H13X12621   4.440   0.630   2.572
  107DMPC  H13Y12622   4.522   0.520   2.687
  107DMPC  C31412623   4.486   0.436   2.491
  107DMPC  H14X12624   4.480   0.469   2.385
  107DMPC  H14Y12625   4.389   0.393   2.521
  107DMPC  H14Z12626   4.563   0.356   2.499
  108DMPC     N12627   2.057   2.471   1.032
  108DMPC   C1312628   1.929   2.546   1.027
  108DMPC  H13A12629   1.846   2.476   1.019
  108DMPC  H13B12630   1.928   2.612   0.942
  108DMPC  H13C12631   1.917   2.604   1.117
  108DMPC   C1412632   2.071   2.392   0.907
  108DMPC  H14A12633   2.075   2.456   0.821
  108DMPC  H14B12634   1.987   2.324   0.897
  108DMPC  H14C12635   2.162   2.334   0.912
  108DMPC   C1512636   2.169   2.568   1.040
  108DMPC  H15A12637   2.263   2.515   1.047
  108DMPC  H15B12638   2.158   2.630   1.128
  108DMPC  H15C12639   2.170   2.631   0.952
  108DMPC   C1212640   2.062   2.377   1.150
  108DMPC  H12A12641   2.148   2.312   1.135
  108DMPC  H12B12642   1.974   2.314   1.146
  108DMPC   C1112643   2.074   2.437   1.292
  108DMPC  H11A12644   2.174   2.486   1.299
  108DMPC  H11B12645   2.074   2.352   1.364
  108DMPC     P12646   1.995   2.655   1.395
  108DMPC   O1312647   1.871   2.712   1.455
  108DMPC   O1412648   2.071   2.744   1.304
  108DMPC   O1112649   2.091   2.607   1.509
  108DMPC   O1212650   1.962   2.522   1.319
  108DMPC    C112651   2.049   2.523   1.617
  108DMPC    HA12652   2.137   2.464   1.651
  108DMPC    HB12653   1.971   2.450   1.586
  108DMPC    C212654   1.997   2.605   1.738
  108DMPC    HS12655   1.901   2.650   1.704
  108DMPC   O2112656   2.095   2.706   1.768
  108DMPC   C2112657   2.041   2.807   1.835
  108DMPC   O2212658   1.921   2.820   1.855
  108DMPC   C2212659   2.149   2.906   1.877
  108DMPC   H2R12660   2.176   2.967   1.788
  108DMPC   H2S12661   2.240   2.852   1.911
  108DMPC    C312662   1.968   2.514   1.861
  108DMPC    HX12663   1.878   2.454   1.833
  108DMPC    HY12664   1.938   2.575   1.949
  108DMPC   O3112665   2.074   2.421   1.891
  108DMPC   C3112666   2.171   2.468   1.970
  108DMPC   O3212667   2.176   2.580   2.016
  108DMPC   C3212668   2.270   2.355   1.998
  108DMPC   H2X12669   2.373   2.391   1.979
  108DMPC   H2Y12670   2.250   2.270   1.930
  108DMPC   C2312671   2.097   2.998   1.989
  108DMPC   H3R12672   1.993   3.030   1.969
  108DMPC   H3S12673   2.159   3.091   1.989
  108DMPC   C2412674   2.108   2.936   2.129
  108DMPC   H4R12675   2.215   2.933   2.158
  108DMPC   H4S12676   2.072   2.831   2.125
  108DMPC   C2512677   2.028   3.009   2.238
  108DMPC   H5R12678   2.056   2.964   2.336
  108DMPC   H5S12679   1.919   2.990   2.222
  108DMPC   C2612680   2.051   3.161   2.244
  108DMPC   H6R12681   1.995   3.210   2.162
  108DMPC   H6S12682   2.159   3.181   2.228
  108DMPC   C2712683   2.012   3.223   2.379
  108DMPC   H7R12684   2.035   3.332   2.376
  108DMPC   H7S12685   2.075   3.178   2.458
  108DMPC   C2812686   1.864   3.206   2.420
  108DMPC   H8R12687   1.835   3.099   2.411
  108DMPC   H8S12688   1.800   3.266   2.352
  108DMPC   C2912689   1.841   3.249   2.566
  108DMPC   H9R12690   1.878   3.354   2.578
  108DMPC   H9S12691   1.902   3.183   2.632
  108DMPC  C21012692   1.695   3.246   2.613
  108DMPC  H10R12693   1.650   3.147   2.587
  108DMPC  H10S12694   1.639   3.324   2.557
  108DMPC  C21112695   1.682   3.269   2.764
  108DMPC  H11R12696   1.761   3.340   2.797
  108DMPC  H11S12697   1.703   3.172   2.816
  108DMPC  C21212698   1.545   3.321   2.811
  108DMPC  H12R12699   1.542   3.313   2.922
  108DMPC  H12S12700   1.465   3.256   2.770
  108DMPC  C21312701   1.516   3.467   2.773
  108DMPC  H13R12702   1.416   3.494   2.815
  108DMPC  H13S12703   1.509   3.476   2.663
  108DMPC  C21412704   1.619   3.570   2.823
  108DMPC  H14R12705   1.629   3.564   2.934
  108DMPC  H14S12706   1.587   3.673   2.796
  108DMPC  H14T12707   1.718   3.552   2.777
  108DMPC   C3312708   2.255   2.310   2.144
  108DMPC   H3X12709   2.150   2.329   2.179
  108DMPC   H3Y12710   2.323   2.369   2.209
  108DMPC   C3412711   2.279   2.160   2.164
  108DMPC   H4X12712   2.384   2.135   2.141
  108DMPC   H4Y12713   2.213   2.104   2.093
  108DMPC   C3512714   2.243   2.116   2.307
  108DMPC   H5X12715   2.141   2.156   2.330
  108DMPC   H5Y12716   2.314   2.161   2.378
  108DMPC   C3612717   2.238   1.963   2.327
  108DMPC   H6X12718   2.341   1.922   2.334
  108DMPC   H6Y12719   2.189   1.918   2.238
  108DMPC   C3712720   2.156   1.923   2.451
  108DMPC   H7X12721   2.144   1.813   2.453
  108DMPC   H7Y12722   2.055   1.968   2.440
  108DMPC   C3812723   2.215   1.970   2.585
  108DMPC   H8X12724   2.255   2.073   2.574
  108DMPC   H8Y12725   2.300   1.904   2.614
  108DMPC   C3912726   2.111   1.974   2.698
  108DMPC   H9X12727   2.071   1.872   2.717
  108DMPC   H9Y12728   2.026   2.038   2.663
  108DMPC  C31012729   2.165   2.034   2.828
  108DMPC  H10X12730   2.223   2.126   2.804
  108DMPC  H10Y12731   2.234   1.962   2.877
  108DMPC  C31112732   2.053   2.074   2.926
  108DMPC  H11X12733   1.995   1.984   2.955
  108DMPC  H11Y12734   1.984   2.144   2.874
  108DMPC  C31212735   2.106   2.144   3.052
  108DMPC  H12X12736   2.171   2.229   3.022
  108DMPC  H12Y12737   2.168   2.072   3.110
  108DMPC  C31312738   1.994   2.198   3.142
  108DMPC  H13X12739   1.925   2.114   3.168
  108DMPC  H13Y12740   1.935   2.273   3.085
  108DMPC  C31412741   2.043   2.263   3.272
  108DMPC  H14X12742   1.957   2.300   3.332
  108DMPC  H14Y12743   2.109   2.349   3.250
  108DMPC  H14Z12744   2.099   2.189   3.333
  109DMPC     N12745   2.662   0.247   1.453
  109DMPC   C1312746   2.629   0.347   1.559
  109DMPC  H13A12747   2.541   0.403   1.531
  109DMPC  H13B12748   2.712   0.415   1.573
  109DMPC  H13C12749   2.610   0.294   1.652
  109DMPC   C1412750   2.547   0.153   1.443
  109DMPC  H14A12751   2.457   0.207   1.422
  109DMPC  H14B12752   2.536   0.103   1.539
  109DMPC  H14C12753   2.566   0.080   1.366
  109DMPC   C1512754   2.679   0.315   1.322
  109DMPC  H15A12755   2.700   0.241   1.246
  109DMPC  H15B12756   2.761   0.386   1.328
  109DMPC  H15C12757   2.588   0.368   1.296
  109DMPC   C1212758   2.787   0.170   1.488
  109DMPC  H12A12759   2.792   0.085   1.421
  109DMPC  H12B12760   2.774   0.132   1.589
  109DMPC   C1112761   2.923   0.243   1.481
  109DMPC  H11A12762   2.945   0.265   1.373
  109DMPC  H11B12763   3.001   0.173   1.519
  109DMPC     P12764   3.048   0.450   1.553
  109DMPC   O1312765   3.061   0.508   1.418
  109DMPC   O1412766   3.164   0.372   1.602
  109DMPC   O1112767   3.015   0.564   1.658
  109DMPC   O1212768   2.919   0.361   1.559
  109DMPC    C112769   2.983   0.525   1.792
  109DMPC    HA12770   3.045   0.439   1.827
  109DMPC    HB12771   2.875   0.496   1.800
  109DMPC    C212772   3.011   0.638   1.895
  109DMPC    HS12773   2.990   0.595   1.995
  109DMPC   O2112774   2.926   0.750   1.862
  109DMPC   C2112775   2.888   0.818   1.969
  109DMPC   O2212776   2.922   0.793   2.083
  109DMPC   C2212777   2.791   0.928   1.928
  109DMPC   H2R12778   2.721   0.890   1.851
  109DMPC   H2S12779   2.848   1.014   1.886
  109DMPC    C312780   3.162   0.678   1.887
  109DMPC    HX12781   3.178   0.727   1.789
  109DMPC    HY12782   3.224   0.586   1.886
  109DMPC   O3112783   3.203   0.768   1.992
  109DMPC   C3112784   3.225   0.709   2.109
  109DMPC   O3212785   3.216   0.588   2.129
  109DMPC   C3212786   3.262   0.815   2.212
  109DMPC   H2X12787   3.182   0.892   2.211
  109DMPC   H2Y12788   3.357   0.864   2.182
  109DMPC   C2312789   2.712   0.973   2.052
  109DMPC   H3R12790   2.782   1.012   2.129
  109DMPC   H3S12791   2.660   0.884   2.095
  109DMPC   C2412792   2.606   1.079   2.022
  109DMPC   H4R12793   2.656   1.175   1.998
  109DMPC   H4S12794   2.548   1.048   1.933
  109DMPC   C2512795   2.506   1.101   2.137
  109DMPC   H5R12796   2.448   1.007   2.152
  109DMPC   H5S12797   2.434   1.181   2.108
  109DMPC   C2612798   2.571   1.140   2.271
  109DMPC   H6R12799   2.625   1.236   2.259
  109DMPC   H6S12800   2.646   1.062   2.300
  109DMPC   C2712801   2.471   1.153   2.386
  109DMPC   H7R12802   2.423   1.054   2.402
  109DMPC   H7S12803   2.391   1.225   2.359
  109DMPC   C2812804   2.536   1.198   2.517
  109DMPC   H8R12805   2.568   1.304   2.506
  109DMPC   H8S12806   2.627   1.137   2.537
  109DMPC   C2912807   2.443   1.186   2.639
  109DMPC   H9R12808   2.427   1.078   2.661
  109DMPC   H9S12809   2.344   1.230   2.614
  109DMPC  C21012810   2.497   1.256   2.764
  109DMPC  H10R12811   2.498   1.366   2.745
  109DMPC  H10S12812   2.602   1.224   2.783
  109DMPC  C21112813   2.413   1.228   2.890
  109DMPC  H11R12814   2.432   1.124   2.924
  109DMPC  H11S12815   2.305   1.235   2.863
  109DMPC  C21212816   2.440   1.327   3.004
  109DMPC  H12R12817   2.420   1.430   2.967
  109DMPC  H12S12818   2.547   1.321   3.033
  109DMPC  C21312819   2.353   1.301   3.127
  109DMPC  H13R12820   2.380   1.201   3.170
  109DMPC  H13S12821   2.246   1.296   3.095
  109DMPC  C21412822   2.365   1.407   3.237
  109DMPC  H14R12823   2.471   1.418   3.268
  109DMPC  H14S12824   2.305   1.378   3.325
  109DMPC  H14T12825   2.329   1.505   3.199
  109DMPC   C3312826   3.273   0.757   2.353
  109DMPC   H3X12827   3.187   0.691   2.376
  109DMPC   H3Y12828   3.266   0.844   2.423
  109DMPC   C3412829   3.405   0.683   2.381
  109DMPC   H4X12830   3.490   0.750   2.355
  109DMPC   H4Y12831   3.411   0.593   2.316
  109DMPC   C3512832   3.421   0.639   2.527
  109DMPC   H5X12833   3.517   0.582   2.536
  109DMPC   H5Y12834   3.339   0.569   2.554
  109DMPC   C3612835   3.425   0.755   2.628
  109DMPC   H6X12836   3.325   0.804   2.632
  109DMPC   H6Y12837   3.498   0.831   2.591
  109DMPC   C3712838   3.466   0.715   2.770
  109DMPC   H7X12839   3.476   0.807   2.831
  109DMPC   H7Y12840   3.565   0.665   2.766
  109DMPC   C3812841   3.367   0.620   2.840
  109DMPC   H8X12842   3.350   0.531   2.775
  109DMPC   H8Y12843   3.269   0.671   2.853
  109DMPC   C3912844   3.417   0.569   2.976
  109DMPC   H9X12845   3.517   0.523   2.962
  109DMPC   H9Y12846   3.348   0.489   3.011
  109DMPC  C31012847   3.426   0.676   3.086
  109DMPC  H10X12848   3.324   0.717   3.104
  109DMPC  H10Y12849   3.491   0.759   3.051
  109DMPC  C31112850   3.483   0.621   3.217
  109DMPC  H11X12851   3.586   0.584   3.198
  109DMPC  H11Y12852   3.421   0.534   3.250
  109DMPC  C31212853   3.488   0.724   3.331
  109DMPC  H12X12854   3.385   0.756   3.356
  109DMPC  H12Y12855   3.545   0.813   3.296
  109DMPC  C31312856   3.556   0.669   3.458
  109DMPC  H13X12857   3.659   0.637   3.431
  109DMPC  H13Y12858   3.500   0.578   3.491
  109DMPC  C31412859   3.563   0.768   3.574
  109DMPC  H14X12860   3.614   0.721   3.661
  109DMPC  H14Y12861   3.461   0.799   3.605
  109DMPC  H14Z12862   3.620   0.859   3.544
  110DMPC     N12863   0.194   5.444   1.408
  110DMPC   C1312864   0.237   5.582   1.373
  110DMPC  H13A12865   0.161   5.630   1.314
  110DMPC  H13B12866   0.330   5.579   1.318
  110DMPC  H13C12867   0.252   5.640   1.463
  110DMPC   C1412868   0.177   5.366   1.282
  110DMPC  H14A12869   0.103   5.414   1.219
  110DMPC  H14B12870   0.144   5.266   1.306
  110DMPC  H14C12871   0.271   5.361   1.229
  110DMPC   C1512872   0.301   5.379   1.489
  110DMPC  H15A12873   0.391   5.371   1.430
  110DMPC  H15B12874   0.268   5.281   1.519
  110DMPC  H15C12875   0.321   5.439   1.577
  110DMPC   C1212876   0.065   5.449   1.486
  110DMPC  H12A12877   0.002   5.524   1.440
  110DMPC  H12B12878   0.089   5.483   1.586
  110DMPC   C1112879   6.274   5.318   1.497
  110DMPC  H11A12880   6.222   5.302   1.400
  110DMPC  H11B12881   6.197   5.337   1.576
  110DMPC     P12882   6.286   5.082   1.591
  110DMPC   O1312883   0.078   4.962   1.569
  110DMPC   O1412884   6.144   5.075   1.546
  110DMPC   O1112885   6.289   5.119   1.744
  110DMPC   O1212886   0.065   5.206   1.525
  110DMPC    C112887   0.122   5.166   1.802
  110DMPC    HA12888   0.211   5.120   1.752
  110DMPC    HB12889   0.130   5.276   1.792
  110DMPC    C212890   0.134   5.129   1.953
  110DMPC    HS12891   0.097   5.024   1.962
  110DMPC   O2112892   0.055   5.223   2.029
  110DMPC   C2112893   0.011   5.174   2.143
  110DMPC   O2212894   0.020   5.058   2.178
  110DMPC   C2212895   6.237   5.286   2.225
  110DMPC   H2R12896   6.166   5.342   2.160
  110DMPC   H2S12897   0.025   5.355   2.260
  110DMPC    C312898   0.285   5.133   1.997
  110DMPC    HX12899   0.317   5.239   1.988
  110DMPC    HY12900   0.346   5.075   1.923
  110DMPC   O3112901   0.309   5.088   2.132
  110DMPC   C3112902   0.311   4.956   2.148
  110DMPC   O3212903   0.307   4.874   2.057
  110DMPC   C3212904   0.317   4.924   2.296
  110DMPC   H2X12905   0.237   4.980   2.348
  110DMPC   H2Y12906   0.415   4.955   2.337
  110DMPC   C2312907   6.162   5.228   2.347
  110DMPC   H3R12908   6.232   5.164   2.405
  110DMPC   H3S12909   6.079   5.164   2.311
  110DMPC   C2412910   6.105   5.334   2.444
  110DMPC   H4R12911   6.189   5.393   2.486
  110DMPC   H4S12912   6.056   5.279   2.527
  110DMPC   C2512913   6.003   5.430   2.380
  110DMPC   H5R12914   5.925   5.370   2.329
  110DMPC   H5S12915   6.055   5.492   2.304
  110DMPC   C2612916   5.934   5.526   2.480
  110DMPC   H6R12917   5.871   5.597   2.421
  110DMPC   H6S12918   6.010   5.585   2.534
  110DMPC   C2712919   5.842   5.455   2.581
  110DMPC   H7R12920   5.903   5.390   2.647
  110DMPC   H7S12921   5.772   5.390   2.524
  110DMPC   C2812922   5.759   5.550   2.669
  110DMPC   H8R12923   5.702   5.620   2.603
  110DMPC   H8S12924   5.827   5.610   2.733
  110DMPC   C2912925   5.658   5.474   2.757
  110DMPC   H9R12926   5.714   5.404   2.824
  110DMPC   H9S12927   5.594   5.412   2.690
  110DMPC  C21012928   5.566   5.562   2.842
  110DMPC  H10R12929   5.515   5.636   2.776
  110DMPC  H10S12930   5.627   5.618   2.917
  110DMPC  C21112931   5.458   5.479   2.915
  110DMPC  H11R12932   5.507   5.406   2.982
  110DMPC  H11S12933   5.403   5.422   2.837
  110DMPC  C21212934   5.355   5.561   2.995
  110DMPC  H12R12935   5.272   5.492   3.023
  110DMPC  H12S12936   5.312   5.641   2.931
  110DMPC  C21312937   5.411   5.622   3.125
  110DMPC  H13R12938   5.485   5.700   3.099
  110DMPC  H13S12939   5.463   5.542   3.181
  110DMPC  C21412940   5.303   5.683   3.216
  110DMPC  H14R12941   5.248   5.763   3.162
  110DMPC  H14S12942   5.350   5.726   3.306
  110DMPC  H14T12943   5.231   5.605   3.247
  110DMPC   C3312944   0.295   4.773   2.316
  110DMPC   H3X12945   0.382   4.716   2.277
  110DMPC   H3Y12946   0.205   4.741   2.259
  110DMPC   C3412947   0.271   4.735   2.463
  110DMPC   H4X12948   0.243   4.627   2.467
  110DMPC   H4Y12949   0.184   4.793   2.500
  110DMPC   C3512950   0.391   4.760   2.556
  110DMPC   H5X12951   0.427   4.864   2.543
  110DMPC   H5Y12952   0.474   4.691   2.527
  110DMPC   C3612953   0.357   4.740   2.704
  110DMPC   H6X12954   0.279   4.815   2.732
  110DMPC   H6Y12955   0.448   4.761   2.765
  110DMPC   C3712956   0.306   4.599   2.738
  110DMPC   H7X12957   0.386   4.526   2.711
  110DMPC   H7Y12958   0.216   4.576   2.677
  110DMPC   C3812959   0.270   4.579   2.886
  110DMPC   H8X12960   0.360   4.600   2.947
  110DMPC   H8Y12961   0.241   4.472   2.901
  110DMPC   C3912962   0.154   4.668   2.934
  110DMPC   H9X12963   0.065   4.653   2.868
  110DMPC   H9Y12964   0.184   4.774   2.926
  110DMPC  C31012965   0.114   4.639   3.079
  110DMPC  H10X12966   0.207   4.639   3.141
  110DMPC  H10Y12967   0.069   4.538   3.085
  110DMPC  C31112968   0.017   4.743   3.138
  110DMPC  H11X12969   6.221   4.754   3.070
  110DMPC  H11Y12970   0.069   4.841   3.143
  110DMPC  C31212971   6.256   4.706   3.278
  110DMPC  H12X12972   6.190   4.617   3.270
  110DMPC  H12Y12973   6.195   4.791   3.317
  110DMPC  C31312974   0.077   4.674   3.379
  110DMPC  H13X12975   0.148   4.760   3.382
  110DMPC  H13Y12976   0.133   4.585   3.344
  110DMPC  C31412977   0.027   4.646   3.521
  110DMPC  H14X12978   6.269   4.735   3.564
  110DMPC  H14Y12979   0.111   4.616   3.586
  110DMPC  H14Z12980   6.244   4.563   3.518
  111DMPC     N12981   5.623   4.591   1.457
  111DMPC   C1312982   5.770   4.611   1.460
  111DMPC  H13A12983   5.814   4.561   1.375
  111DMPC  H13B12984   5.812   4.572   1.552
  111DMPC  H13C12985   5.791   4.718   1.454
  111DMPC   C1412986   5.568   4.646   1.331
  111DMPC  H14A12987   5.619   4.601   1.246
  111DMPC  H14B12988   5.584   4.753   1.328
  111DMPC  H14C12989   5.462   4.625   1.324
  111DMPC   C1512990   5.596   4.444   1.462
  111DMPC  H15A12991   5.647   4.396   1.379
  111DMPC  H15B12992   5.490   4.427   1.451
  111DMPC  H15C12993   5.632   4.403   1.555
  111DMPC   C1212994   5.557   4.657   1.576
  111DMPC  H12A12995   5.614   4.631   1.663
  111DMPC  H12B12996   5.458   4.614   1.588
  111DMPC   C1112997   5.538   4.810   1.571
  111DMPC  H11A12998   5.514   4.843   1.675
  111DMPC  H11B12999   5.450   4.831   1.506
  111DMPC     P13000   5.653   5.031   1.524
  111DMPC   O1313001   5.521   5.080   1.477
  111DMPC   O1413002   5.772   5.079   1.452
  111DMPC   O1113003   5.668   5.059   1.679
  111DMPC   O1213004   5.655   4.874   1.521
  111DMPC    C113005   5.797   5.056   1.742
  111DMPC    HA13006   5.787   5.100   1.844
  111DMPC    HB13007   5.871   5.120   1.688
  111DMPC    C213008   5.857   4.914   1.762
  111DMPC    HS13009   5.876   4.875   1.659
  111DMPC   O2113010   5.757   4.834   1.828
  111DMPC   C2113011   5.785   4.706   1.827
  111DMPC   O2213012   5.877   4.655   1.765
  111DMPC   C2213013   5.685   4.632   1.914
  111DMPC   H2R13014   5.716   4.525   1.918
  111DMPC   H2S13015   5.584   4.636   1.869
  111DMPC    C313016   5.995   4.915   1.837
  111DMPC    HX13017   6.050   5.008   1.810
  111DMPC    HY13018   6.052   4.829   1.795
  111DMPC   O3113019   5.981   4.907   1.982
  111DMPC   C3113020   6.086   4.848   2.041
  111DMPC   O3213021   6.189   4.817   1.984
  111DMPC   C3213022   6.054   4.815   2.187
  111DMPC   H2X13023   5.961   4.865   2.219
  111DMPC   H2Y13024   6.138   4.849   2.251
  111DMPC   C2313025   5.682   4.688   2.058
  111DMPC   H3R13026   5.778   4.738   2.083
  111DMPC   H3S13027   5.670   4.603   2.128
  111DMPC   C2413028   5.566   4.786   2.086
  111DMPC   H4R13029   5.470   4.733   2.074
  111DMPC   H4S13030   5.569   4.870   2.013
  111DMPC   C2513031   5.574   4.844   2.228
  111DMPC   H5R13032   5.666   4.907   2.235
  111DMPC   H5S13033   5.585   4.760   2.300
  111DMPC   C2613034   5.452   4.929   2.269
  111DMPC   H6R13035   5.364   4.862   2.279
  111DMPC   H6S13036   5.431   5.002   2.188
  111DMPC   C2713037   5.472   5.007   2.400
  111DMPC   H7R13038   5.377   5.059   2.425
  111DMPC   H7S13039   5.550   5.084   2.384
  111DMPC   C2813040   5.513   4.920   2.520
  111DMPC   H8R13041   5.612   4.874   2.501
  111DMPC   H8S13042   5.439   4.837   2.530
  111DMPC   C2913043   5.518   4.996   2.654
  111DMPC   H9R13044   5.547   4.924   2.734
  111DMPC   H9S13045   5.415   5.032   2.678
  111DMPC  C21013046   5.614   5.116   2.658
  111DMPC  H10R13047   5.610   5.161   2.760
  111DMPC  H10S13048   5.577   5.193   2.587
  111DMPC  C21113049   5.761   5.084   2.624
  111DMPC  H11R13050   5.817   5.180   2.626
  111DMPC  H11S13051   5.768   5.044   2.521
  111DMPC  C21213052   5.829   4.987   2.721
  111DMPC  H12R13053   5.781   4.887   2.714
  111DMPC  H12S13054   5.816   5.025   2.825
  111DMPC  C21313055   5.980   4.972   2.693
  111DMPC  H13R13056   6.027   5.073   2.700
  111DMPC  H13S13057   5.993   4.936   2.589
  111DMPC  C21413058   6.053   4.877   2.788
  111DMPC  H14R13059   6.161   4.873   2.763
  111DMPC  H14S13060   6.011   4.774   2.779
  111DMPC  H14T13061   6.042   4.911   2.893
  111DMPC   C3313062   6.039   4.662   2.198
  111DMPC   H3X13063   6.131   4.611   2.161
  111DMPC   H3Y13064   5.956   4.630   2.131
  111DMPC   C3413065   6.008   4.608   2.339
  111DMPC   H4X13066   5.960   4.509   2.326
  111DMPC   H4Y13067   5.935   4.674   2.391
  111DMPC   C3513068   6.133   4.587   2.426
  111DMPC   H5X13069   6.171   4.685   2.462
  111DMPC   H5Y13070   6.212   4.542   2.361
  111DMPC   C3613071   6.112   4.491   2.544
  111DMPC   H6X13072   6.044   4.538   2.619
  111DMPC   H6Y13073   6.062   4.399   2.505
  111DMPC   C3713074   6.244   4.450   2.610
  111DMPC   H7X13075   6.289   4.538   2.662
  111DMPC   H7Y13076   0.022   4.420   2.529
  111DMPC   C3813077   6.235   4.331   2.708
  111DMPC   H8X13078   0.047   4.293   2.722
  111DMPC   H8Y13079   6.175   4.250   2.661
  111DMPC   C3913080   6.177   4.366   2.846
  111DMPC   H9X13081   6.075   4.407   2.833
  111DMPC   H9Y13082   6.240   4.446   2.892
  111DMPC  C31013083   6.170   4.247   2.944
  111DMPC  H10X13084   6.099   4.172   2.903
  111DMPC  H10Y13085   6.128   4.284   3.040
  111DMPC  C31113086   0.014   4.178   2.972
  111DMPC  H11X13087   0.085   4.252   3.013
  111DMPC  H11Y13088   0.055   4.140   2.876
  111DMPC  C31213089   0.002   4.058   3.068
  111DMPC  H12X13090   6.210   3.993   3.031
  111DMPC  H12Y13091   6.265   4.094   3.169
  111DMPC  C31313092   0.129   3.973   3.076
  111DMPC  H13X13093   0.159   3.945   2.973
  111DMPC  H13Y13094   0.105   3.878   3.131
  111DMPC  C31413095   0.249   4.038   3.145
  111DMPC  H14X13096   0.272   4.136   3.099
  111DMPC  H14Y13097   0.339   3.973   3.137
  111DMPC  H14Z13098   0.228   4.054   3.253
  112DMPC     N13099   0.644   4.063   1.611
  112DMPC   C1313100   0.630   4.208   1.580
  112DMPC  H13A13101   0.646   4.224   1.474
  112DMPC  H13B13102   0.703   4.263   1.638
  112DMPC  H13C13103   0.531   4.241   1.608
  112DMPC   C1413104   0.545   3.988   1.529
  112DMPC  H14A13105   0.568   4.000   1.424
  112DMPC  H14B13106   0.445   4.025   1.548
  112DMPC  H14C13107   0.549   3.883   1.555
  112DMPC   C1513108   0.782   4.020   1.576
  112DMPC  H15A13109   0.801   4.038   1.471
  112DMPC  H15B13110   0.794   3.914   1.597
  112DMPC  H15C13111   0.853   4.076   1.634
  112DMPC   C1213112   0.618   4.043   1.758
  112DMPC  H12A13113   0.512   4.058   1.775
  112DMPC  H12B13114   0.670   4.122   1.811
  112DMPC   C1113115   0.661   3.910   1.822
  112DMPC  H11A13116   0.619   3.908   1.926
  112DMPC  H11B13117   0.772   3.914   1.832
  112DMPC     P13118   0.703   3.671   1.748
  112DMPC   O1313119   0.831   3.707   1.682
  112DMPC   O1413120   0.626   3.556   1.693
  112DMPC   O1113121   0.727   3.647   1.903
  112DMPC   O1213122   0.612   3.799   1.748
  112DMPC    C113123   0.612   3.618   1.984
  112DMPC    HA13124   0.556   3.529   1.944
  112DMPC    HB13125   0.542   3.704   1.983
  112DMPC    C213126   0.643   3.589   2.134
  112DMPC    HS13127   0.549   3.608   2.191
  112DMPC   O2113128   0.751   3.670   2.184
  112DMPC   C2113129   0.711   3.795   2.205
  112DMPC   O2213130   0.598   3.836   2.187
  112DMPC   C2213131   0.827   3.875   2.263
  112DMPC   H2R13132   0.911   3.876   2.191
  112DMPC   H2S13133   0.860   3.824   2.356
  112DMPC    C313134   0.677   3.438   2.158
  112DMPC    HX13135   0.771   3.417   2.102
  112DMPC    HY13136   0.597   3.375   2.113
  112DMPC   O3113137   0.697   3.404   2.297
  112DMPC   C3113138   0.587   3.407   2.372
  112DMPC   O3213139   0.475   3.434   2.332
  112DMPC   C3213140   0.623   3.380   2.518
  112DMPC   H2X13141   0.678   3.284   2.527
  112DMPC   H2Y13142   0.528   3.371   2.575
  112DMPC   C2313143   0.782   4.019   2.295
  112DMPC   H3R13144   0.688   4.017   2.354
  112DMPC   H3S13145   0.761   4.073   2.200
  112DMPC   C2413146   0.884   4.100   2.377
  112DMPC   H4R13147   0.842   4.202   2.393
  112DMPC   H4S13148   0.978   4.111   2.319
  112DMPC   C2513149   0.915   4.039   2.514
  112DMPC   H5R13150   0.969   3.943   2.501
  112DMPC   H5S13151   0.818   4.016   2.565
  112DMPC   C2613152   0.997   4.129   2.608
  112DMPC   H6R13153   0.947   4.228   2.616
  112DMPC   H6S13154   1.098   4.144   2.565
  112DMPC   C2713155   1.008   4.068   2.748
  112DMPC   H7R13156   1.051   3.966   2.741
  112DMPC   H7S13157   0.905   4.057   2.789
  112DMPC   C2813158   1.091   4.150   2.848
  112DMPC   H8R13159   1.057   4.256   2.846
  112DMPC   H8S13160   1.198   4.147   2.819
  112DMPC   C2913161   1.075   4.096   2.991
  112DMPC   H9R13162   1.102   3.988   2.992
  112DMPC   H9S13163   0.967   4.104   3.019
  112DMPC  C21013164   1.158   4.168   3.098
  112DMPC  H10R13165   1.137   4.277   3.092
  112DMPC  H10S13166   1.266   4.152   3.078
  112DMPC  C21113167   1.124   4.117   3.239
  112DMPC  H11R13168   1.136   4.007   3.241
  112DMPC  H11S13169   1.017   4.140   3.261
  112DMPC  C21213170   1.211   4.176   3.352
  112DMPC  H12R13171   1.317   4.149   3.334
  112DMPC  H12S13172   1.179   4.129   3.448
  112DMPC  C21313173   1.201   4.329   3.367
  112DMPC  H13R13174   1.094   4.357   3.369
  112DMPC  H13S13175   1.247   4.377   3.278
  112DMPC  C21413176   1.268   4.383   3.494
  112DMPC  H14R13177   1.259   4.493   3.497
  112DMPC  H14S13178   1.375   4.355   3.496
  112DMPC  H14T13179   1.219   4.341   3.584
  112DMPC   C3313180   0.706   3.496   2.576
  112DMPC   H3X13181   0.683   3.501   2.685
  112DMPC   H3Y13182   0.673   3.593   2.532
  112DMPC   C3413183   0.858   3.481   2.560
  112DMPC   H4X13184   0.879   3.456   2.453
  112DMPC   H4Y13185   0.895   3.396   2.621
  112DMPC   C3513186   0.940   3.608   2.591
  112DMPC   H5X13187   0.888   3.696   2.548
  112DMPC   H5Y13188   1.038   3.598   2.540
  112DMPC   C3613189   0.971   3.634   2.740
  112DMPC   H6X13190   1.036   3.724   2.743
  112DMPC   H6Y13191   1.028   3.549   2.783
  112DMPC   C3713192   0.848   3.663   2.829
  112DMPC   H7X13193   0.798   3.568   2.855
  112DMPC   H7Y13194   0.777   3.726   2.771
  112DMPC   C3813195   0.884   3.738   2.958
  112DMPC   H8X13196   0.931   3.835   2.930
  112DMPC   H8Y13197   0.958   3.679   3.016
  112DMPC   C3913198   0.762   3.767   3.047
  112DMPC   H9X13199   0.723   3.671   3.088
  112DMPC   H9Y13200   0.682   3.812   2.984
  112DMPC  C31013201   0.793   3.865   3.161
  112DMPC  H10X13202   0.827   3.961   3.117
  112DMPC  H10Y13203   0.876   3.824   3.223
  112DMPC  C31113204   0.672   3.893   3.252
  112DMPC  H11X13205   0.646   3.800   3.306
  112DMPC  H11Y13206   0.585   3.922   3.188
  112DMPC  C31213207   0.698   4.007   3.352
  112DMPC  H12X13208   0.724   4.098   3.294
  112DMPC  H12Y13209   0.786   3.980   3.414
  112DMPC  C31313210   0.579   4.040   3.443
  112DMPC  H13X13211   0.491   4.062   3.380
  112DMPC  H13Y13212   0.603   4.132   3.500
  112DMPC  C31413213   0.543   3.930   3.544
  112DMPC  H14X13214   0.458   3.962   3.607
  112DMPC  H14Y13215   0.630   3.908   3.609
  112DMPC  H14Z13216   0.514   3.837   3.491
  113DMPC     N13217   1.071   6.081   1.156
  113DMPC   C1313218   1.084   5.933   1.151
  113DMPC  H13A13219   1.067   5.898   1.050
  113DMPC  H13B13220   1.012   5.889   1.219
  113DMPC  H13C13221   1.184   5.906   1.183
  113DMPC   C1413222   1.095   6.128   1.294
  113DMPC  H14A13223   1.197   6.102   1.324
  113DMPC  H14B13224   1.025   6.081   1.361
  113DMPC  H14C13225   1.083   6.235   1.300
  113DMPC   C1513226   1.175   6.141   1.068
  113DMPC  H15A13227   1.164   6.106   0.967
  113DMPC  H15B13228   1.273   6.114   1.107
  113DMPC  H15C13229   1.166   6.249   1.069
  113DMPC   C1213230   0.934   6.124   1.108
  113DMPC  H12A13231   0.929   6.104   1.001
  113DMPC  H12B13232   0.927   6.231   1.121
  113DMPC   C1113233   0.811   6.059   1.174
  113DMPC  H11A13234   0.807   5.951   1.147
  113DMPC  H11B13235   0.723   6.111   1.128
  113DMPC     P13236   0.684   6.039   1.392
  113DMPC   O1313237   0.702   5.907   1.459
  113DMPC   O1413238   0.568   6.050   1.301
  113DMPC   O1113239   0.675   6.153   1.501
  113DMPC   O1213240   0.815   6.076   1.315
  113DMPC    C113241   0.778   6.181   1.596
  113DMPC    HA13242   0.763   6.284   1.633
  113DMPC    HB13243   0.880   6.178   1.549
  113DMPC    C213244   0.776   6.087   1.721
  113DMPC    HS13245   0.822   5.992   1.686
  113DMPC   O2113246   0.638   6.067   1.759
  113DMPC   C2113247   0.620   5.956   1.827
  113DMPC   O2213248   0.708   5.877   1.856
  113DMPC   C2213249   0.472   5.941   1.860
  113DMPC   H2R13250   0.416   5.946   1.764
  113DMPC   H2S13251   0.439   6.026   1.924
  113DMPC    C313252   0.861   6.142   1.840
  113DMPC    HX13253   0.961   6.171   1.802
  113DMPC    HY13254   0.878   6.057   1.911
  113DMPC   O3113255   0.793   6.247   1.914
  113DMPC   C3113256   0.836   0.041   1.897
  113DMPC   O3213257   0.927   0.075   1.823
  113DMPC   C3213258   0.750   0.132   1.985
  113DMPC   H2X13259   0.752   0.094   2.089
  113DMPC   H2Y13260   0.646   0.129   1.947
  113DMPC   C2313261   0.439   5.807   1.929
  113DMPC   H3R13262   0.508   5.726   1.898
  113DMPC   H3S13263   0.338   5.777   1.892
  113DMPC   C2413264   0.427   5.812   2.082
  113DMPC   H4R13265   0.373   5.720   2.115
  113DMPC   H4S13266   0.365   5.900   2.111
  113DMPC   C2513267   0.561   5.816   2.158
  113DMPC   H5R13268   0.615   5.910   2.134
  113DMPC   H5S13269   0.624   5.730   2.125
  113DMPC   C2613270   0.541   5.807   2.311
  113DMPC   H6R13271   0.482   5.716   2.334
  113DMPC   H6S13272   0.482   5.895   2.344
  113DMPC   C2713273   0.672   5.802   2.391
  113DMPC   H7R13274   0.734   5.891   2.364
  113DMPC   H7S13275   0.729   5.711   2.362
  113DMPC   C2813276   0.649   5.803   2.543
  113DMPC   H8R13277   0.590   5.714   2.573
  113DMPC   H8S13278   0.588   5.893   2.567
  113DMPC   C2913279   0.778   5.811   2.626
  113DMPC   H9R13280   0.753   5.841   2.730
  113DMPC   H9S13281   0.842   5.892   2.583
  113DMPC  C21013282   0.860   5.681   2.631
  113DMPC  H10R13283   0.962   5.706   2.667
  113DMPC  H10S13284   0.871   5.638   2.529
  113DMPC  C21113285   0.802   5.575   2.726
  113DMPC  H11R13286   0.704   5.541   2.689
  113DMPC  H11S13287   0.787   5.622   2.826
  113DMPC  C21213288   0.896   5.454   2.744
  113DMPC  H12R13289   0.994   5.491   2.782
  113DMPC  H12S13290   0.913   5.406   2.646
  113DMPC  C21313291   0.841   5.349   2.842
  113DMPC  H13R13292   0.748   5.306   2.800
  113DMPC  H13S13293   0.815   5.400   2.938
  113DMPC  C21413294   0.939   5.236   2.873
  113DMPC  H14R13295   1.032   5.276   2.918
  113DMPC  H14S13296   0.966   5.182   2.779
  113DMPC  H14T13297   0.894   5.164   2.944
  113DMPC   C3313298   0.802   0.278   1.982
  113DMPC   H3X13299   0.805   0.313   1.876
  113DMPC   H3Y13300   0.905   0.282   2.023
  113DMPC   C3413301   0.713   0.376   2.060
  113DMPC   H4X13302   0.609   0.370   2.021
  113DMPC   H4Y13303   0.750   0.479   2.041
  113DMPC   C3513304   0.710   0.353   2.213
  113DMPC   H5X13305   0.814   0.361   2.251
  113DMPC   H5Y13306   0.673   0.251   2.235
  113DMPC   C3613307   0.622   0.456   2.286
  113DMPC   H6X13308   0.517   0.443   2.253
  113DMPC   H6Y13309   0.655   0.558   2.257
  113DMPC   C3713310   0.628   0.447   2.440
  113DMPC   H7X13311   0.735   0.451   2.472
  113DMPC   H7Y13312   0.587   0.349   2.473
  113DMPC   C3813313   0.551   0.561   2.508
  113DMPC   H8X13314   0.445   0.556   2.475
  113DMPC   H8Y13315   0.593   0.658   2.473
  113DMPC   C3913316   0.555   0.558   2.661
  113DMPC   H9X13317   0.660   0.563   2.695
  113DMPC   H9Y13318   0.511   0.462   2.697
  113DMPC  C31013319   0.476   0.675   2.724
  113DMPC  H10X13320   0.371   0.669   2.690
  113DMPC  H10Y13321   0.519   0.771   2.687
  113DMPC  C31113322   0.478   0.676   2.878
  113DMPC  H11X13323   0.583   0.687   2.912
  113DMPC  H11Y13324   0.440   0.578   2.915
  113DMPC  C31213325   0.392   0.789   2.937
  113DMPC  H12X13326   0.287   0.773   2.902
  113DMPC  H12Y13327   0.427   0.887   2.898
  113DMPC  C31313328   0.391   0.793   3.091
  113DMPC  H13X13329   0.369   0.691   3.129
  113DMPC  H13Y13330   0.308   0.860   3.123
  113DMPC  C31413331   0.521   0.843   3.155
  113DMPC  H14X13332   0.543   0.947   3.122
  113DMPC  H14Y13333   0.606   0.778   3.127
  113DMPC  H14Z13334   0.511   0.842   3.266
  114DMPC     N13335   4.088   4.891   1.625
  114DMPC   C1313336   4.215   4.817   1.641
  114DMPC  H13A13337   4.269   4.854   1.727
  114DMPC  H13B13338   4.276   4.830   1.552
  114DMPC  H13C13339   4.194   4.711   1.655
  114DMPC   C1413340   4.018   4.841   1.503
  114DMPC  H14A13341   3.922   4.890   1.493
  114DMPC  H14B13342   4.003   4.734   1.511
  114DMPC  H14C13343   4.078   4.861   1.415
  114DMPC   C1513344   4.001   4.860   1.742
  114DMPC  H15A13345   3.984   4.753   1.746
  114DMPC  H15B13346   3.906   4.910   1.730
  114DMPC  H15C13347   4.049   4.893   1.833
  114DMPC   C1213348   4.109   5.040   1.619
  114DMPC  H12A13349   4.158   5.070   1.711
  114DMPC  H12B13350   4.011   5.087   1.618
  114DMPC   C1113351   4.190   5.100   1.501
  114DMPC  H11A13352   4.192   5.210   1.514
  114DMPC  H11B13353   4.135   5.077   1.407
  114DMPC     P13354   4.405   5.069   1.370
  114DMPC   O1313355   4.372   5.200   1.309
  114DMPC   O1413356   4.385   4.949   1.286
  114DMPC   O1113357   4.554   5.075   1.422
  114DMPC   O1213358   4.323   5.049   1.503
  114DMPC    C113359   4.622   4.963   1.480
  114DMPC    HA13360   4.730   4.987   1.482
  114DMPC    HB13361   4.610   4.870   1.419
  114DMPC    C213362   4.585   4.932   1.629
  114DMPC    HS13363   4.489   4.874   1.626
  114DMPC   O2113364   4.571   5.058   1.695
  114DMPC   C2113365   4.478   5.059   1.788
  114DMPC   O2213366   4.415   4.962   1.826
  114DMPC   C2213367   4.457   5.202   1.837
  114DMPC   H2R13368   4.412   5.262   1.755
  114DMPC   H2S13369   4.555   5.247   1.864
  114DMPC    C313370   4.694   4.842   1.695
  114DMPC    HX13371   4.791   4.895   1.681
  114DMPC    HY13372   4.703   4.746   1.639
  114DMPC   O3113373   4.676   4.822   1.837
  114DMPC   C3113374   4.599   4.720   1.871
  114DMPC   O3213375   4.548   4.640   1.793
  114DMPC   C3213376   4.584   4.717   2.022
  114DMPC   H2X13377   4.510   4.795   2.052
  114DMPC   H2Y13378   4.682   4.742   2.069
  114DMPC   C2313379   4.364   5.204   1.960
  114DMPC   H3R13380   4.414   5.147   2.042
  114DMPC   H3S13381   4.268   5.153   1.936
  114DMPC   C2413382   4.333   5.347   2.008
  114DMPC   H4R13383   4.276   5.399   1.928
  114DMPC   H4S13384   4.428   5.401   2.023
  114DMPC   C2513385   4.251   5.353   2.138
  114DMPC   H5R13386   4.155   5.300   2.124
  114DMPC   H5S13387   4.229   5.460   2.159
  114DMPC   C2613388   4.324   5.294   2.260
  114DMPC   H6R13389   4.424   5.341   2.269
  114DMPC   H6S13390   4.340   5.185   2.245
  114DMPC   C2713391   4.249   5.316   2.392
  114DMPC   H7R13392   4.150   5.267   2.385
  114DMPC   H7S13393   4.234   5.425   2.407
  114DMPC   C2813394   4.325   5.258   2.513
  114DMPC   H8R13395   4.424   5.308   2.522
  114DMPC   H8S13396   4.343   5.150   2.494
  114DMPC   C2913397   4.249   5.272   2.646
  114DMPC   H9R13398   4.301   5.210   2.723
  114DMPC   H9S13399   4.146   5.233   2.633
  114DMPC  C21013400   4.243   5.417   2.698
  114DMPC  H10R13401   4.196   5.482   2.621
  114DMPC  H10S13402   4.347   5.452   2.715
  114DMPC  C21113403   4.162   5.429   2.828
  114DMPC  H11R13404   4.205   5.361   2.905
  114DMPC  H11S13405   4.059   5.395   2.807
  114DMPC  C21213406   4.156   5.571   2.885
  114DMPC  H12R13407   4.082   5.572   2.969
  114DMPC  H12S13408   4.118   5.640   2.807
  114DMPC  C21313409   4.290   5.625   2.938
  114DMPC  H13R13410   4.362   5.630   2.854
  114DMPC  H13S13411   4.330   5.552   3.013
  114DMPC  C21413412   4.280   5.763   3.004
  114DMPC  H14R13413   4.211   5.759   3.091
  114DMPC  H14S13414   4.241   5.837   2.931
  114DMPC  H14T13415   4.380   5.796   3.039
  114DMPC   C3313416   4.537   4.579   2.070
  114DMPC   H3X13417   4.610   4.501   2.037
  114DMPC   H3Y13418   4.438   4.556   2.024
  114DMPC   C3413419   4.523   4.573   2.222
  114DMPC   H4X13420   4.459   4.657   2.256
  114DMPC   H4Y13421   4.624   4.587   2.269
  114DMPC   C3513422   4.462   4.442   2.273
  114DMPC   H5X13423   4.524   4.356   2.238
  114DMPC   H5Y13424   4.361   4.431   2.230
  114DMPC   C3613425   4.452   4.438   2.426
  114DMPC   H6X13426   4.398   4.530   2.460
  114DMPC   H6Y13427   4.555   4.441   2.469
  114DMPC   C3713428   4.378   4.315   2.481
  114DMPC   H7X13429   4.430   4.223   2.446
  114DMPC   H7Y13430   4.274   4.314   2.441
  114DMPC   C3813431   4.375   4.317   2.634
  114DMPC   H8X13432   4.328   4.412   2.668
  114DMPC   H8Y13433   4.480   4.316   2.670
  114DMPC   C3913434   4.297   4.200   2.697
  114DMPC   H9X13435   4.343   4.104   2.664
  114DMPC   H9Y13436   4.192   4.203   2.659
  114DMPC  C31013437   4.294   4.205   2.850
  114DMPC  H10X13438   4.227   4.124   2.887
  114DMPC  H10Y13439   4.251   4.302   2.882
  114DMPC  C31113440   4.433   4.188   2.914
  114DMPC  H11X13441   4.502   4.265   2.875
  114DMPC  H11Y13442   4.474   4.089   2.884
  114DMPC  C31213443   4.436   4.196   3.068
  114DMPC  H12X13444   4.413   4.300   3.100
  114DMPC  H12Y13445   4.540   4.173   3.100
  114DMPC  C31313446   4.341   4.099   3.139
  114DMPC  H13X13447   4.335   4.005   3.081
  114DMPC  H13Y13448   4.239   4.143   3.140
  114DMPC  C31413449   4.384   4.065   3.282
  114DMPC  H14X13450   4.397   4.157   3.341
  114DMPC  H14Y13451   4.481   4.011   3.280
  114DMPC  H14Z13452   4.309   4.000   3.331
  115DMPC     N13453   5.607   5.351   1.188
  115DMPC   C1313454   5.738   5.281   1.196
  115DMPC  H13A13455   5.753   5.220   1.109
  115DMPC  H13B13456   5.743   5.220   1.285
  115DMPC  H13C13457   5.817   5.356   1.200
  115DMPC   C1413458   5.598   5.427   1.061
  115DMPC  H14A13459   5.608   5.360   0.977
  115DMPC  H14B13460   5.678   5.500   1.057
  115DMPC  H14C13461   5.503   5.478   1.055
  115DMPC   C1513462   5.502   5.246   1.188
  115DMPC  H15A13463   5.507   5.190   1.281
  115DMPC  H15B13464   5.517   5.179   1.105
  115DMPC  H15C13465   5.404   5.292   1.179
  115DMPC   C1213466   5.588   5.443   1.306
  115DMPC  H12A13467   5.608   5.386   1.396
  115DMPC  H12B13468   5.483   5.472   1.309
  115DMPC   C1113469   5.672   5.573   1.312
  115DMPC  H11A13470   5.653   5.620   1.412
  115DMPC  H11B13471   5.635   5.644   1.234
  115DMPC     P13472   5.912   5.658   1.321
  115DMPC   O1313473   5.867   5.785   1.261
  115DMPC   O1413474   6.046   5.610   1.280
  115DMPC   O1113475   5.909   5.669   1.478
  115DMPC   O1213476   5.809   5.544   1.292
  115DMPC    C113477   5.971   5.569   1.561
  115DMPC    HA13478   6.067   5.608   1.600
  115DMPC    HB13479   5.992   5.475   1.506
  115DMPC    C213480   5.882   5.531   1.683
  115DMPC    HS13481   5.785   5.496   1.641
  115DMPC   O2113482   5.869   5.649   1.765
  115DMPC   C2113483   5.758   5.653   1.833
  115DMPC   O2213484   5.670   5.567   1.831
  115DMPC   C2213485   5.755   5.779   1.919
  115DMPC   H2R13486   5.651   5.797   1.952
  115DMPC   H2S13487   5.787   5.866   1.858
  115DMPC    C313488   5.947   5.411   1.763
  115DMPC    HX13489   6.041   5.446   1.810
  115DMPC    HY13490   5.976   5.336   1.686
  115DMPC   O3113491   5.856   5.346   1.854
  115DMPC   C3113492   5.868   5.375   1.984
  115DMPC   O3213493   5.953   5.449   2.031
  115DMPC   C3213494   5.760   5.303   2.064
  115DMPC   H2X13495   5.808   5.231   2.133
  115DMPC   H2Y13496   5.695   5.247   1.994
  115DMPC   C2313497   5.846   5.761   2.041
  115DMPC   H3R13498   5.952   5.756   2.006
  115DMPC   H3S13499   5.823   5.665   2.093
  115DMPC   C2413500   5.832   5.874   2.143
  115DMPC   H4R13501   5.732   5.867   2.192
  115DMPC   H4S13502   5.837   5.971   2.089
  115DMPC   C2513503   5.942   5.873   2.250
  115DMPC   H5R13504   6.040   5.885   2.200
  115DMPC   H5S13505   5.943   5.775   2.302
  115DMPC   C2613506   5.926   5.985   2.353
  115DMPC   H6R13507   5.835   5.966   2.415
  115DMPC   H6S13508   5.909   6.080   2.298
  115DMPC   C2713509   6.048   6.001   2.446
  115DMPC   H7R13510   6.138   6.022   2.383
  115DMPC   H7S13511   6.065   5.905   2.498
  115DMPC   C2813512   6.032   6.113   2.550
  115DMPC   H8R13513   6.123   6.114   2.615
  115DMPC   H8S13514   5.945   6.089   2.615
  115DMPC   C2913515   6.012   6.253   2.491
  115DMPC   H9R13516   5.918   6.253   2.432
  115DMPC   H9S13517   6.096   6.277   2.422
  115DMPC  C21013518   6.002   0.032   2.598
  115DMPC  H10R13519   6.101   0.047   2.646
  115DMPC  H10S13520   5.930   6.329   2.676
  115DMPC  C21113521   5.951   0.166   2.541
  115DMPC  H11R13522   5.853   0.146   2.491
  115DMPC  H11S13523   6.022   0.204   2.464
  115DMPC  C21213524   5.929   0.273   2.648
  115DMPC  H12R13525   6.028   0.309   2.686
  115DMPC  H12S13526   5.875   0.228   2.734
  115DMPC  C21313527   5.847   0.392   2.597
  115DMPC  H13R13528   5.751   0.353   2.557
  115DMPC  H13S13529   5.901   0.440   2.513
  115DMPC  C21413530   5.816   0.499   2.703
  115DMPC  H14R13531   5.755   0.580   2.659
  115DMPC  H14S13532   5.911   0.542   2.742
  115DMPC  H14T13533   5.760   0.454   2.788
  115DMPC   C3313534   5.674   5.404   2.143
  115DMPC   H3X13535   5.649   5.491   2.079
  115DMPC   H3Y13536   5.732   5.441   2.230
  115DMPC   C3413537   5.541   5.343   2.190
  115DMPC   H4X13538   5.563   5.248   2.243
  115DMPC   H4Y13539   5.479   5.319   2.101
  115DMPC   C3513540   5.462   5.435   2.283
  115DMPC   H5X13541   5.519   5.447   2.378
  115DMPC   H5Y13542   5.452   5.535   2.236
  115DMPC   C3613543   5.320   5.382   2.315
  115DMPC   H6X13544   5.326   5.277   2.348
  115DMPC   H6Y13545   5.261   5.385   2.220
  115DMPC   C3713546   5.247   5.465   2.421
  115DMPC   H7X13547   5.137   5.448   2.412
  115DMPC   H7Y13548   5.265   5.573   2.400
  115DMPC   C3813549   5.291   5.434   2.565
  115DMPC   H8X13550   5.271   5.523   2.629
  115DMPC   H8Y13551   5.401   5.417   2.566
  115DMPC   C3913552   5.220   5.314   2.629
  115DMPC   H9X13553   5.279   5.279   2.716
  115DMPC   H9Y13554   5.216   5.230   2.556
  115DMPC  C31013555   5.078   5.347   2.678
  115DMPC  H10X13556   5.016   5.382   2.593
  115DMPC  H10Y13557   5.084   5.430   2.752
  115DMPC  C31113558   5.007   5.228   2.744
  115DMPC  H11X13559   5.066   5.193   2.832
  115DMPC  H11Y13560   5.000   5.144   2.671
  115DMPC  C31213561   4.865   5.264   2.792
  115DMPC  H12X13562   4.807   5.304   2.706
  115DMPC  H12Y13563   4.872   5.344   2.869
  115DMPC  C31313564   4.788   5.144   2.851
  115DMPC  H13X13565   4.844   5.107   2.940
  115DMPC  H13Y13566   4.786   5.062   2.775
  115DMPC  C31413567   4.644   5.177   2.891
  115DMPC  H14X13568   4.643   5.257   2.969
  115DMPC  H14Y13569   4.594   5.087   2.932
  115DMPC  H14Z13570   4.586   5.213   2.804
  116DMPC     N13571   4.684   5.834   1.043
  116DMPC   C1313572   4.539   5.808   1.023
  116DMPC  H13A13573   4.508   5.855   0.930
  116DMPC  H13B13574   4.482   5.851   1.104
  116DMPC  H13C13575   4.520   5.702   1.017
  116DMPC   C1413576   4.759   5.775   0.929
  116DMPC  H14A13577   4.734   5.828   0.838
  116DMPC  H14B13578   4.732   5.670   0.918
  116DMPC  H14C13579   4.864   5.784   0.948
  116DMPC   C1513580   4.707   5.981   1.042
  116DMPC  H15A13581   4.812   6.001   1.055
  116DMPC  H15B13582   4.651   6.027   1.122
  116DMPC  H15C13583   4.674   6.021   0.947
  116DMPC   C1213584   4.727   5.774   1.175
  116DMPC  H12A13585   4.714   5.666   1.168
  116DMPC  H12B13586   4.657   5.810   1.250
  116DMPC   C1113587   4.869   5.803   1.227
  116DMPC  H11A13588   4.880   5.762   1.330
  116DMPC  H11B13589   4.882   5.913   1.238
  116DMPC     P13590   5.010   5.605   1.148
  116DMPC   O1313591   5.137   5.583   1.073
  116DMPC   O1413592   4.897   5.522   1.102
  116DMPC   O1113593   5.038   5.582   1.301
  116DMPC   O1213594   4.970   5.756   1.137
  116DMPC    C113595   5.152   5.643   1.363
  116DMPC    HA13596   5.145   5.754   1.359
  116DMPC    HB13597   5.246   5.611   1.313
  116DMPC    C213598   5.163   5.602   1.513
  116DMPC    HS13599   5.175   5.491   1.515
  116DMPC   O2113600   5.046   5.650   1.582
  116DMPC   C2113601   4.995   5.562   1.665
  116DMPC   O2213602   5.019   5.443   1.667
  116DMPC   C2213603   4.903   5.635   1.763
  116DMPC   H2R13604   4.816   5.675   1.708
  116DMPC   H2S13605   4.959   5.719   1.808
  116DMPC    C313606   5.289   5.664   1.581
  116DMPC    HX13607   5.288   5.773   1.556
  116DMPC    HY13608   5.380   5.618   1.536
  116DMPC   O3113609   5.287   5.645   1.724
  116DMPC   C3113610   5.380   5.713   1.789
  116DMPC   O3213611   5.463   5.786   1.737
  116DMPC   C3213612   5.363   5.691   1.939
  116DMPC   H2X13613   5.328   5.587   1.958
  116DMPC   H2Y13614   5.461   5.704   1.989
  116DMPC   C2313615   4.857   5.539   1.874
  116DMPC   H3R13616   4.945   5.493   1.924
  116DMPC   H3S13617   4.795   5.458   1.829
  116DMPC   C2413618   4.773   5.611   1.981
  116DMPC   H4R13619   4.690   5.666   1.930
  116DMPC   H4S13620   4.836   5.686   2.034
  116DMPC   C2513621   4.712   5.514   2.082
  116DMPC   H5R13622   4.792   5.459   2.137
  116DMPC   H5S13623   4.653   5.438   2.025
  116DMPC   C2613624   4.618   5.581   2.183
  116DMPC   H6R13625   4.543   5.506   2.215
  116DMPC   H6S13626   4.563   5.663   2.133
  116DMPC   C2713627   4.687   5.633   2.310
  116DMPC   H7R13628   4.762   5.710   2.284
  116DMPC   H7S13629   4.740   5.548   2.357
  116DMPC   C2813630   4.586   5.691   2.410
  116DMPC   H8R13631   4.500   5.621   2.421
  116DMPC   H8S13632   4.545   5.786   2.368
  116DMPC   C2913633   4.642   5.718   2.551
  116DMPC   H9R13634   4.564   5.772   2.609
  116DMPC   H9S13635   4.731   5.785   2.543
  116DMPC  C21013636   4.679   5.590   2.627
  116DMPC  H10R13637   4.770   5.544   2.583
  116DMPC  H10S13638   4.595   5.517   2.615
  116DMPC  C21113639   4.702   5.611   2.778
  116DMPC  H11R13640   4.720   5.511   2.823
  116DMPC  H11S13641   4.609   5.652   2.824
  116DMPC  C21213642   4.820   5.702   2.813
  116DMPC  H12R13643   4.793   5.808   2.790
  116DMPC  H12S13644   4.907   5.674   2.750
  116DMPC  C21313645   4.860   5.690   2.961
  116DMPC  H13R13646   4.891   5.584   2.978
  116DMPC  H13S13647   4.771   5.710   3.024
  116DMPC  C21413648   4.975   5.781   3.006
  116DMPC  H14R13649   5.063   5.768   2.940
  116DMPC  H14S13650   5.004   5.757   3.110
  116DMPC  H14T13651   4.943   5.887   3.002
  116DMPC   C3313652   5.262   5.792   1.995
  116DMPC   H3X13653   5.163   5.774   1.949
  116DMPC   H3Y13654   5.294   5.895   1.969
  116DMPC   C3413655   5.248   5.784   2.148
  116DMPC   H4X13656   5.346   5.809   2.195
  116DMPC   H4Y13657   5.222   5.680   2.177
  116DMPC   C3513658   5.140   5.879   2.204
  116DMPC   H5X13659   5.041   5.847   2.165
  116DMPC   H5Y13660   5.160   5.982   2.168
  116DMPC   C3613661   5.136   5.881   2.358
  116DMPC   H6X13662   5.233   5.919   2.395
  116DMPC   H6Y13663   5.123   5.777   2.396
  116DMPC   C3713664   5.023   5.968   2.414
  116DMPC   H7X13665   4.925   5.921   2.391
  116DMPC   H7Y13666   5.025   6.068   2.365
  116DMPC   C3813667   5.034   5.989   2.566
  116DMPC   H8X13668   5.127   6.046   2.587
  116DMPC   H8Y13669   5.043   5.890   2.616
  116DMPC   C3913670   4.915   6.065   2.627
  116DMPC   H9X13671   4.824   6.001   2.620
  116DMPC   H9Y13672   4.896   6.158   2.570
  116DMPC  C31013673   4.938   6.102   2.775
  116DMPC  H10X13674   5.017   6.180   2.779
  116DMPC  H10Y13675   4.976   6.013   2.828
  116DMPC  C31113676   4.813   6.153   2.847
  116DMPC  H11X13677   4.737   6.071   2.850
  116DMPC  H11Y13678   4.769   6.237   2.789
  116DMPC  C31213679   4.841   6.201   2.990
  116DMPC  H12X13680   4.916   6.283   2.986
  116DMPC  H12Y13681   4.885   6.117   3.048
  116DMPC  C31313682   4.716   6.252   3.064
  116DMPC  H13X13683   4.642   6.170   3.069
  116DMPC  H13Y13684   4.672   0.005   3.005
  116DMPC  C31413685   4.745   6.302   3.206
  116DMPC  H14X13686   4.787   6.220   3.268
  116DMPC  H14Y13687   4.651   0.007   3.254
  116DMPC  H14Z13688   4.817   0.055   3.204
  117DMPC     N13689   4.795   4.129   1.496
  117DMPC   C1313690   4.655   4.103   1.543
  117DMPC  H13A13691   4.597   4.067   1.459
  117DMPC  H13B13692   4.612   4.196   1.577
  117DMPC  H13C13693   4.655   4.031   1.622
  117DMPC   C1413694   4.787   4.229   1.387
  117DMPC  H14A13695   4.728   4.187   1.306
  117DMPC  H14B13696   4.886   4.254   1.351
  117DMPC  H14C13697   4.738   4.318   1.423
  117DMPC   C1513698   4.872   4.184   1.610
  117DMPC  H15A13699   4.824   4.274   1.646
  117DMPC  H15B13700   4.973   4.208   1.578
  117DMPC  H15C13701   4.877   4.111   1.690
  117DMPC   C1213702   4.856   4.000   1.447
  117DMPC  H12A13703   4.782   3.953   1.383
  117DMPC  H12B13704   4.872   3.936   1.532
  117DMPC   C1113705   4.987   4.010   1.366
  117DMPC  H11A13706   4.962   4.058   1.268
  117DMPC  H11B13707   5.021   3.906   1.344
  117DMPC     P13708   5.189   4.164   1.358
  117DMPC   O1313709   5.135   4.302   1.348
  117DMPC   O1413710   5.219   4.094   1.231
  117DMPC   O1113711   5.318   4.166   1.448
  117DMPC   O1213712   5.087   4.078   1.440
  117DMPC    C113713   5.376   4.046   1.503
  117DMPC    HA13714   5.482   4.040   1.470
  117DMPC    HB13715   5.325   3.953   1.468
  117DMPC    C213716   5.375   4.043   1.659
  117DMPC    HS13717   5.270   4.039   1.695
  117DMPC   O2113718   5.446   4.157   1.711
  117DMPC   C2113719   5.366   4.259   1.738
  117DMPC   O2213720   5.247   4.265   1.714
  117DMPC   C2213721   5.444   4.368   1.811
  117DMPC   H2R13722   5.384   4.461   1.810
  117DMPC   H2S13723   5.540   4.387   1.759
  117DMPC    C313724   5.444   3.913   1.712
  117DMPC    HX13725   5.533   3.893   1.648
  117DMPC    HY13726   5.373   3.828   1.700
  117DMPC   O3113727   5.486   3.927   1.850
  117DMPC   C3113728   5.542   3.820   1.904
  117DMPC   O3213729   5.558   3.712   1.849
  117DMPC   C3213730   5.587   3.858   2.045
  117DMPC   H2X13731   5.511   3.924   2.091
  117DMPC   H2Y13732   5.683   3.914   2.038
  117DMPC   C2313733   5.471   4.326   1.957
  117DMPC   H3R13734   5.529   4.408   2.004
  117DMPC   H3S13735   5.535   4.235   1.960
  117DMPC   C2413736   5.344   4.301   2.040
  117DMPC   H4R13737   5.310   4.196   2.024
  117DMPC   H4S13738   5.263   4.368   2.004
  117DMPC   C2513739   5.361   4.326   2.191
  117DMPC   H5R13740   5.273   4.282   2.244
  117DMPC   H5S13741   5.452   4.274   2.227
  117DMPC   C2613742   5.366   4.475   2.227
  117DMPC   H6R13743   5.276   4.525   2.183
  117DMPC   H6S13744   5.456   4.521   2.179
  117DMPC   C2713745   5.370   4.507   2.377
  117DMPC   H7R13746   5.281   4.462   2.427
  117DMPC   H7S13747   5.363   4.617   2.387
  117DMPC   C2813748   5.497   4.460   2.449
  117DMPC   H8R13749   5.585   4.493   2.388
  117DMPC   H8S13750   5.499   4.349   2.455
  117DMPC   C2913751   5.511   4.521   2.589
  117DMPC   H9R13752   5.427   4.485   2.653
  117DMPC   H9S13753   5.502   4.631   2.580
  117DMPC  C21013754   5.645   4.490   2.658
  117DMPC  H10R13755   5.727   4.517   2.588
  117DMPC  H10S13756   5.651   4.381   2.679
  117DMPC  C21113757   5.663   4.568   2.789
  117DMPC  H11R13758   5.584   4.537   2.860
  117DMPC  H11S13759   5.650   4.677   2.768
  117DMPC  C21213760   5.801   4.547   2.853
  117DMPC  H12R13761   5.880   4.577   2.780
  117DMPC  H12S13762   5.815   4.439   2.875
  117DMPC  C21313763   5.821   4.628   2.982
  117DMPC  H13R13764   5.743   4.598   3.055
  117DMPC  H13S13765   5.806   4.736   2.959
  117DMPC  C21413766   5.958   4.609   3.046
  117DMPC  H14R13767   6.038   4.643   2.977
  117DMPC  H14S13768   5.975   4.503   3.070
  117DMPC  H14T13769   5.966   4.669   3.140
  117DMPC   C3313770   5.606   3.734   2.134
  117DMPC   H3X13771   5.684   3.667   2.092
  117DMPC   H3Y13772   5.511   3.677   2.137
  117DMPC   C3413773   5.644   3.773   2.277
  117DMPC   H4X13774   5.572   3.850   2.312
  117DMPC   H4Y13775   5.745   3.820   2.277
  117DMPC   C3513776   5.642   3.657   2.377
  117DMPC   H5X13777   5.728   3.589   2.355
  117DMPC   H5Y13778   5.548   3.599   2.363
  117DMPC   C3613779   5.648   3.705   2.522
  117DMPC   H6X13780   5.559   3.769   2.540
  117DMPC   H6Y13781   5.739   3.767   2.537
  117DMPC   C3713782   5.650   3.590   2.624
  117DMPC   H7X13783   5.746   3.535   2.613
  117DMPC   H7Y13784   5.568   3.518   2.600
  117DMPC   C3813785   5.636   3.636   2.770
  117DMPC   H8X13786   5.717   3.709   2.792
  117DMPC   H8Y13787   5.652   3.547   2.837
  117DMPC   C3913788   5.500   3.699   2.806
  117DMPC   H9X13789   5.484   3.791   2.745
  117DMPC   H9Y13790   5.504   3.731   2.913
  117DMPC  C31013791   5.380   3.605   2.788
  117DMPC  H10X13792   5.401   3.509   2.841
  117DMPC  H10Y13793   5.368   3.582   2.680
  117DMPC  C31113794   5.248   3.662   2.841
  117DMPC  H11X13795   5.228   3.759   2.791
  117DMPC  H11Y13796   5.258   3.681   2.950
  117DMPC  C31213797   5.128   3.569   2.817
  117DMPC  H12X13798   5.147   3.472   2.869
  117DMPC  H12Y13799   5.120   3.548   2.708
  117DMPC  C31313800   4.995   3.628   2.867
  117DMPC  H13X13801   4.979   3.725   2.816
  117DMPC  H13Y13802   5.003   3.646   2.976
  117DMPC  C31413803   4.874   3.538   2.840
  117DMPC  H14X13804   4.781   3.586   2.879
  117DMPC  H14Y13805   4.886   3.440   2.891
  117DMPC  H14Z13806   4.862   3.520   2.731
  118DMPC     N13807   3.734   2.959   1.356
  118DMPC   C1313808   3.592   2.974   1.315
  118DMPC  H13A13809   3.543   3.048   1.378
  118DMPC  H13B13810   3.540   2.881   1.328
  118DMPC  H13C13811   3.586   3.005   1.212
  118DMPC   C1413812   3.797   2.856   1.271
  118DMPC  H14A13813   3.783   2.880   1.166
  118DMPC  H14B13814   3.751   2.760   1.291
  118DMPC  H14C13815   3.903   2.850   1.293
  118DMPC   C1513816   3.804   3.089   1.336
  118DMPC  H15A13817   3.906   3.080   1.372
  118DMPC  H15B13818   3.753   3.165   1.393
  118DMPC  H15C13819   3.804   3.116   1.232
  118DMPC   C1213820   3.743   2.923   1.503
  118DMPC  H12A13821   3.708   3.009   1.560
  118DMPC  H12B13822   3.848   2.909   1.526
  118DMPC   C1113823   3.666   2.800   1.554
  118DMPC  H11A13824   3.557   2.818   1.540
  118DMPC  H11B13825   3.688   2.791   1.663
  118DMPC     P13826   3.630   2.553   1.517
  118DMPC   O1313827   3.713   2.436   1.479
  118DMPC   O1413828   3.494   2.564   1.458
  118DMPC   O1113829   3.616   2.557   1.673
  118DMPC   O1213830   3.710   2.683   1.484
  118DMPC    C113831   3.681   2.461   1.756
  118DMPC    HA13832   3.786   2.443   1.724
  118DMPC    HB13833   3.625   2.365   1.754
  118DMPC    C213834   3.687   2.509   1.903
  118DMPC    HS13835   3.582   2.524   1.935
  118DMPC   O2113836   3.765   2.631   1.905
  118DMPC   C2113837   3.727   2.714   2.000
  118DMPC   O2213838   3.634   2.695   2.077
  118DMPC   C2213839   3.821   2.834   2.002
  118DMPC   H2R13840   3.769   2.921   1.956
  118DMPC   H2S13841   3.913   2.812   1.944
  118DMPC    C313842   3.755   2.400   1.992
  118DMPC    HX13843   3.857   2.386   1.951
  118DMPC    HY13844   3.703   2.303   1.978
  118DMPC   O3113845   3.767   2.434   2.132
  118DMPC   C3113846   3.653   2.423   2.201
  118DMPC   O3213847   3.548   2.381   2.155
  118DMPC   C3213848   3.674   2.477   2.342
  118DMPC   H2X13849   3.635   2.582   2.344
  118DMPC   H2Y13850   3.782   2.479   2.367
  118DMPC   C2313851   3.858   2.867   2.148
  118DMPC   H3R13852   3.902   2.777   2.197
  118DMPC   H3S13853   3.766   2.895   2.202
  118DMPC   C2413854   3.961   2.982   2.158
  118DMPC   H4R13855   3.923   3.069   2.100
  118DMPC   H4S13856   4.056   2.949   2.111
  118DMPC   C2513857   3.991   3.027   2.302
  118DMPC   H5R13858   4.064   3.111   2.297
  118DMPC   H5S13859   4.039   2.943   2.357
  118DMPC   C2613860   3.868   3.074   2.382
  118DMPC   H6R13861   3.904   3.117   2.478
  118DMPC   H6S13862   3.804   2.986   2.407
  118DMPC   C2713863   3.782   3.178   2.308
  118DMPC   H7R13864   3.735   3.129   2.219
  118DMPC   H7S13865   3.847   3.260   2.271
  118DMPC   C2813866   3.669   3.239   2.392
  118DMPC   H8R13867   3.610   3.158   2.440
  118DMPC   H8S13868   3.601   3.293   2.322
  118DMPC   C2913869   3.718   3.339   2.497
  118DMPC   H9R13870   3.790   3.408   2.448
  118DMPC   H9S13871   3.771   3.286   2.579
  118DMPC  C21013872   3.605   3.426   2.556
  118DMPC  H10R13873   3.545   3.468   2.473
  118DMPC  H10S13874   3.650   3.511   2.611
  118DMPC  C21113875   3.513   3.351   2.653
  118DMPC  H11R13876   3.572   3.321   2.743
  118DMPC  H11S13877   3.473   3.259   2.606
  118DMPC  C21213878   3.394   3.437   2.699
  118DMPC  H12R13879   3.326   3.452   2.612
  118DMPC  H12S13880   3.432   3.537   2.730
  118DMPC  C21313881   3.315   3.377   2.815
  118DMPC  H13R13882   3.382   3.370   2.904
  118DMPC  H13S13883   3.284   3.273   2.788
  118DMPC  C21413884   3.190   3.457   2.853
  118DMPC  H14R13885   3.118   3.458   2.769
  118DMPC  H14S13886   3.218   3.562   2.877
  118DMPC  H14T13887   3.141   3.412   2.942
  118DMPC   C3313888   3.598   2.392   2.444
  118DMPC   H3X13889   3.642   2.290   2.448
  118DMPC   H3Y13890   3.491   2.382   2.414
  118DMPC   C3413891   3.601   2.453   2.585
  118DMPC   H4X13892   3.556   2.555   2.581
  118DMPC   H4Y13893   3.707   2.464   2.617
  118DMPC   C3513894   3.525   2.370   2.689
  118DMPC   H5X13895   3.576   2.272   2.701
  118DMPC   H5Y13896   3.422   2.349   2.650
  118DMPC   C3613897   3.511   2.437   2.826
  118DMPC   H6X13898   3.449   2.370   2.891
  118DMPC   H6Y13899   3.457   2.533   2.815
  118DMPC   C3713900   3.645   2.462   2.897
  118DMPC   H7X13901   3.701   2.542   2.844
  118DMPC   H7Y13902   3.705   2.368   2.893
  118DMPC   C3813903   3.628   2.501   3.045
  118DMPC   H8X13904   3.569   2.421   3.095
  118DMPC   H8Y13905   3.570   2.596   3.051
  118DMPC   C3913906   3.762   2.520   3.118
  118DMPC   H9X13907   3.819   2.599   3.066
  118DMPC   H9Y13908   3.821   2.426   3.110
  118DMPC  C31013909   3.749   2.561   3.266
  118DMPC  H10X13910   3.696   2.659   3.268
  118DMPC  H10Y13911   3.850   2.577   3.309
  118DMPC  C31113912   3.670   2.466   3.358
  118DMPC  H11X13913   3.577   2.432   3.308
  118DMPC  H11Y13914   3.638   2.527   3.446
  118DMPC  C31213915   3.747   2.346   3.416
  118DMPC  H12X13916   3.681   2.298   3.492
  118DMPC  H12Y13917   3.838   2.382   3.469
  118DMPC  C31313918   3.786   2.237   3.314
  118DMPC  H13X13919   3.867   2.277   3.249
  118DMPC  H13Y13920   3.698   2.214   3.251
  118DMPC  C31413921   3.837   2.108   3.378
  118DMPC  H14X13922   3.758   2.062   3.441
  118DMPC  H14Y13923   3.925   2.129   3.443
  118DMPC  H14Z13924   3.867   2.035   3.300
  119DMPC     N13925   6.229   4.566   1.522
  119DMPC   C1313926   6.128   4.621   1.428
  119DMPC  H13A13927   6.046   4.666   1.482
  119DMPC  H13B13928   6.090   4.541   1.365
  119DMPC  H13C13929   6.174   4.696   1.364
  119DMPC   C1413930   0.055   4.517   1.443
  119DMPC  H14A13931   0.134   4.486   1.509
  119DMPC  H14B13932   0.091   4.597   1.379
  119DMPC  H14C13933   0.025   4.434   1.380
  119DMPC   C1513934   6.274   4.676   1.611
  119DMPC  H15A13935   0.021   4.759   1.553
  119DMPC  H15B13936   0.063   4.640   1.675
  119DMPC  H15C13937   6.192   4.710   1.672
  119DMPC   C1213938   6.173   4.455   1.607
  119DMPC  H12A13939   6.088   4.495   1.661
  119DMPC  H12B13940   6.249   4.429   1.680
  119DMPC   C1113941   6.130   4.325   1.537
  119DMPC  H11A13942   6.097   4.254   1.616
  119DMPC  H11B13943   6.219   4.281   1.486
  119DMPC     P13944   5.973   4.228   1.364
  119DMPC   O1313945   6.083   4.177   1.277
  119DMPC   O1413946   5.848   4.267   1.295
  119DMPC   O1113947   5.939   4.125   1.478
  119DMPC   O1213948   6.026   4.352   1.444
  119DMPC    C113949   5.812   4.135   1.546
  119DMPC    HA13950   5.735   4.080   1.490
  119DMPC    HB13951   5.778   4.241   1.555
  119DMPC    C213952   5.816   4.076   1.691
  119DMPC    HS13953   5.716   4.091   1.738
  119DMPC   O2113954   5.919   4.136   1.770
  119DMPC   C2113955   5.888   4.257   1.813
  119DMPC   O2213956   5.784   4.316   1.787
  119DMPC   C2213957   6.000   4.309   1.903
  119DMPC   H2R13958   6.040   4.403   1.859
  119DMPC   H2S13959   6.083   4.235   1.909
  119DMPC    C313960   5.839   3.922   1.688
  119DMPC    HX13961   5.929   3.900   1.627
  119DMPC    HY13962   5.754   3.876   1.633
  119DMPC   O3113963   5.844   3.865   1.821
  119DMPC   C3113964   5.965   3.841   1.869
  119DMPC   O3213965   6.070   3.870   1.814
  119DMPC   C3213966   5.954   3.774   2.006
  119DMPC   H2X13967   5.885   3.687   1.998
  119DMPC   H2Y13968   5.911   3.846   2.079
  119DMPC   C2313969   5.946   4.338   2.044
  119DMPC   H3R13970   5.873   4.421   2.040
  119DMPC   H3S13971   6.032   4.371   2.106
  119DMPC   C2413972   5.880   4.217   2.113
  119DMPC   H4R13973   5.948   4.129   2.107
  119DMPC   H4S13974   5.786   4.191   2.059
  119DMPC   C2513975   5.847   4.243   2.260
  119DMPC   H5R13976   5.793   4.340   2.268
  119DMPC   H5S13977   5.942   4.253   2.317
  119DMPC   C2613978   5.760   4.134   2.324
  119DMPC   H6R13979   5.804   4.034   2.303
  119DMPC   H6S13980   5.659   4.138   2.276
  119DMPC   C2713981   5.743   4.150   2.476
  119DMPC   H7R13982   5.652   4.094   2.508
  119DMPC   H7S13983   5.728   4.257   2.499
  119DMPC   C2813984   5.864   4.096   2.555
  119DMPC   H8R13985   5.957   4.136   2.510
  119DMPC   H8S13986   5.866   3.986   2.545
  119DMPC   C2913987   5.865   4.133   2.704
  119DMPC   H9R13988   5.871   4.244   2.714
  119DMPC   H9S13989   5.956   4.090   2.750
  119DMPC  C21013990   5.743   4.084   2.785
  119DMPC  H10R13991   5.734   3.974   2.774
  119DMPC  H10S13992   5.651   4.131   2.744
  119DMPC  C21113993   5.755   4.119   2.934
  119DMPC  H11R13994   5.771   4.229   2.943
  119DMPC  H11S13995   5.843   4.068   2.977
  119DMPC  C21213996   5.630   4.083   3.017
  119DMPC  H12R13997   5.616   3.973   3.017
  119DMPC  H12S13998   5.541   4.129   2.970
  119DMPC  C21313999   5.641   4.134   3.162
  119DMPC  H13R14000   5.663   4.243   3.159
  119DMPC  H13S14001   5.726   4.083   3.212
  119DMPC  C21414002   5.515   4.114   3.247
  119DMPC  H14R14003   5.489   4.007   3.255
  119DMPC  H14S14004   5.429   4.169   3.203
  119DMPC  H14T14005   5.532   4.154   3.350
  119DMPC   C3314006   6.092   3.726   2.054
  119DMPC   H3X14007   6.157   3.815   2.069
  119DMPC   H3Y14008   6.138   3.662   1.977
  119DMPC   C3414009   6.089   3.646   2.186
  119DMPC   H4X14010   6.041   3.707   2.266
  119DMPC   H4Y14011   6.194   3.627   2.215
  119DMPC   C3514012   6.017   3.510   2.175
  119DMPC   H5X14013   6.046   3.465   2.078
  119DMPC   H5Y14014   5.907   3.526   2.174
  119DMPC   C3614015   6.055   3.411   2.286
  119DMPC   H6X14016   6.166   3.400   2.287
  119DMPC   H6Y14017   6.012   3.311   2.261
  119DMPC   C3714018   6.007   3.450   2.426
  119DMPC   H7X14019   5.896   3.448   2.428
  119DMPC   H7Y14020   6.040   3.553   2.450
  119DMPC   C3814021   6.060   3.356   2.536
  119DMPC   H8X14022   6.171   3.365   2.540
  119DMPC   H8Y14023   6.036   3.251   2.508
  119DMPC   C3914024   6.002   3.385   2.675
  119DMPC   H9X14025   5.892   3.368   2.671
  119DMPC   H9Y14026   6.020   3.492   2.699
  119DMPC  C31014027   6.062   3.296   2.785
  119DMPC  H10X14028   6.170   3.319   2.795
  119DMPC  H10Y14029   6.052   3.190   2.754
  119DMPC  C31114030   5.994   3.312   2.922
  119DMPC  H11X14031   6.042   3.241   2.993
  119DMPC  H11Y14032   5.887   3.283   2.913
  119DMPC  C31214033   6.003   3.454   2.982
  119DMPC  H12X14034   5.949   3.525   2.915
  119DMPC  H12Y14035   6.109   3.484   2.987
  119DMPC  C31314036   5.941   3.464   3.122
  119DMPC  H13X14037   5.994   3.393   3.190
  119DMPC  H13Y14038   5.835   3.432   3.117
  119DMPC  C31414039   5.947   3.604   3.183
  119DMPC  H14X14040   6.052   3.638   3.192
  119DMPC  H14Y14041   5.901   3.605   3.284
  119DMPC  H14Z14042   5.892   3.677   3.119
  120DMPC     N14043   3.213   0.858   1.406
  120DMPC   C1314044   3.300   0.979   1.404
  120DMPC  H13A14045   3.241   1.068   1.418
  120DMPC  H13B14046   3.350   0.986   1.308
  120DMPC  H13C14047   3.374   0.971   1.482
  120DMPC   C1414048   3.122   0.863   1.289
  120DMPC  H14A14049   3.054   0.947   1.299
  120DMPC  H14B14050   3.063   0.772   1.284
  120DMPC  H14C14051   3.178   0.875   1.197
  120DMPC   C1514052   3.297   0.736   1.393
  120DMPC  H15A14053   3.353   0.740   1.301
  120DMPC  H15B14054   3.234   0.649   1.393
  120DMPC  H15C14055   3.366   0.730   1.477
  120DMPC   C1214056   3.138   0.849   1.537
  120DMPC  H12A14057   3.211   0.848   1.616
  120DMPC  H12B14058   3.087   0.752   1.538
  120DMPC   C1114059   3.032   0.956   1.569
  120DMPC  H11A14060   3.078   1.057   1.567
  120DMPC  H11B14061   2.994   0.936   1.672
  120DMPC     P14062   2.791   1.010   1.503
  120DMPC   O1314063   2.718   0.919   1.593
  120DMPC   O1414064   2.728   1.043   1.372
  120DMPC   O1114065   2.827   1.142   1.582
  120DMPC   O1214066   2.929   0.947   1.472
  120DMPC    C114067   2.726   1.213   1.656
  120DMPC    HA14068   2.731   1.184   1.763
  120DMPC    HB14069   2.623   1.191   1.620
  120DMPC    C214070   2.746   1.367   1.648
  120DMPC    HS14071   2.744   1.392   1.539
  120DMPC   O2114072   2.874   1.398   1.706
  120DMPC   C2114073   2.919   1.516   1.668
  120DMPC   O2214074   2.863   1.591   1.590
  120DMPC   C2214075   3.056   1.539   1.733
  120DMPC   H2R14076   3.129   1.471   1.685
  120DMPC   H2S14077   3.050   1.516   1.841
  120DMPC    C314078   2.629   1.444   1.718
  120DMPC    HX14079   2.535   1.408   1.670
  120DMPC    HY14080   2.635   1.553   1.695
  120DMPC   O3114081   2.621   1.417   1.860
  120DMPC   C3114082   2.678   1.506   1.939
  120DMPC   O3214083   2.734   1.608   1.903
  120DMPC   C3214084   2.664   1.459   2.084
  120DMPC   H2X14085   2.731   1.372   2.099
  120DMPC   H2Y14086   2.560   1.426   2.102
  120DMPC   C2314087   3.102   1.685   1.714
  120DMPC   H3R14088   3.036   1.752   1.773
  120DMPC   H3S14089   3.093   1.714   1.607
  120DMPC   C2414090   3.249   1.709   1.755
  120DMPC   H4R14091   3.272   1.816   1.740
  120DMPC   H4S14092   3.314   1.651   1.686
  120DMPC   C2514093   3.286   1.669   1.899
  120DMPC   H5R14094   3.393   1.693   1.914
  120DMPC   H5S14095   3.274   1.559   1.911
  120DMPC   C2614096   3.206   1.740   2.010
  120DMPC   H6R14097   3.248   1.707   2.108
  120DMPC   H6S14098   3.100   1.707   2.007
  120DMPC   C2714099   3.211   1.894   2.004
  120DMPC   H7R14100   3.154   1.929   1.916
  120DMPC   H7S14101   3.317   1.925   1.990
  120DMPC   C2814102   3.157   1.962   2.130
  120DMPC   H8R14103   3.220   1.932   2.217
  120DMPC   H8S14104   3.053   1.926   2.150
  120DMPC   C2914105   3.155   2.115   2.119
  120DMPC   H9R14106   3.081   2.143   2.041
  120DMPC   H9S14107   3.255   2.149   2.085
  120DMPC  C21014108   3.120   2.188   2.249
  120DMPC  H10R14109   3.199   2.165   2.325
  120DMPC  H10S14110   3.023   2.149   2.288
  120DMPC  C21114111   3.109   2.340   2.230
  120DMPC  H11R14112   3.030   2.360   2.154
  120DMPC  H11S14113   3.206   2.378   2.190
  120DMPC  C21214114   3.074   2.418   2.358
  120DMPC  H12R14115   2.980   2.378   2.401
  120DMPC  H12S14116   3.056   2.524   2.329
  120DMPC  C21314117   3.184   2.415   2.466
  120DMPC  H13R14118   3.277   2.456   2.421
  120DMPC  H13S14119   3.204   2.310   2.495
  120DMPC  C21414120   3.150   2.495   2.592
  120DMPC  H14R14121   3.057   2.457   2.639
  120DMPC  H14S14122   3.135   2.603   2.566
  120DMPC  H14T14123   3.233   2.488   2.665
  120DMPC   C3314124   2.701   1.571   2.183
  120DMPC   H3X14125   2.633   1.657   2.168
  120DMPC   H3Y14126   2.806   1.605   2.166
  120DMPC   C3414127   2.689   1.523   2.329
  120DMPC   H4X14128   2.763   1.443   2.348
  120DMPC   H4Y14129   2.587   1.479   2.342
  120DMPC   C3514130   2.706   1.635   2.433
  120DMPC   H5X14131   2.633   1.716   2.408
  120DMPC   H5Y14132   2.808   1.677   2.427
  120DMPC   C3614133   2.677   1.586   2.576
  120DMPC   H6X14134   2.753   1.511   2.607
  120DMPC   H6Y14135   2.578   1.534   2.574
  120DMPC   C3714136   2.669   1.699   2.680
  120DMPC   H7X14137   2.611   1.783   2.636
  120DMPC   H7Y14138   2.772   1.735   2.702
  120DMPC   C3814139   2.599   1.655   2.809
  120DMPC   H8X14140   2.654   1.570   2.855
  120DMPC   H8Y14141   2.497   1.618   2.781
  120DMPC   C3914142   2.583   1.767   2.912
  120DMPC   H9X14143   2.555   1.861   2.859
  120DMPC   H9Y14144   2.680   1.784   2.963
  120DMPC  C31014145   2.474   1.738   3.016
  120DMPC  H10X14146   2.497   1.641   3.067
  120DMPC  H10Y14147   2.377   1.726   2.963
  120DMPC  C31114148   2.458   1.847   3.123
  120DMPC  H11X14149   2.451   1.946   3.073
  120DMPC  H11Y14150   2.549   1.848   3.187
  120DMPC  C31214151   2.333   1.828   3.210
  120DMPC  H12X14152   2.334   1.725   3.252
  120DMPC  H12Y14153   2.244   1.837   3.144
  120DMPC  C31314154   2.319   1.928   3.325
  120DMPC  H13X14155   2.217   1.916   3.369
  120DMPC  H13Y14156   2.325   2.031   3.285
  120DMPC  C31414157   2.422   1.911   3.437
  120DMPC  H14X14158   2.524   1.931   3.400
  120DMPC  H14Y14159   2.418   1.808   3.478
  120DMPC  H14Z14160   2.401   1.982   3.520
  121DMPC     N14161   3.506   5.448   1.491
  121DMPC   C1314162   3.522   5.575   1.415
  121DMPC  H13A14163   3.467   5.569   1.322
  121DMPC  H13B14164   3.627   5.592   1.392
  121DMPC  H13C14165   3.483   5.657   1.474
  121DMPC   C1414166   3.361   5.423   1.510
  121DMPC  H14A14167   3.317   5.502   1.569
  121DMPC  H14B14168   3.346   5.328   1.560
  121DMPC  H14C14169   3.312   5.420   1.413
  121DMPC   C1514170   3.565   5.338   1.411
  121DMPC  H15A14171   3.670   5.359   1.392
  121DMPC  H15B14172   3.515   5.331   1.315
  121DMPC  H15C14173   3.556   5.245   1.464
  121DMPC   C1214174   3.576   5.463   1.624
  121DMPC  H12A14175   3.542   5.555   1.669
  121DMPC  H12B14176   3.682   5.473   1.604
  121DMPC   C1114177   3.559   5.351   1.729
  121DMPC  H11A14178   3.451   5.346   1.757
  121DMPC  H11B14179   3.612   5.381   1.822
  121DMPC     P14180   3.751   5.188   1.693
  121DMPC   O1314181   3.832   5.297   1.634
  121DMPC   O1414182   3.772   5.053   1.636
  121DMPC   O1114183   3.773   5.184   1.849
  121DMPC   O1214184   3.598   5.223   1.680
  121DMPC    C114185   3.696   5.098   1.935
  121DMPC    HA14186   3.765   5.025   1.983
  121DMPC    HB14187   3.619   5.040   1.880
  121DMPC    C214188   3.621   5.175   2.049
  121DMPC    HS14189   3.554   5.247   1.997
  121DMPC   O2114190   3.719   5.244   2.129
  121DMPC   C2114191   3.667   5.342   2.200
  121DMPC   O2214192   3.553   5.384   2.189
  121DMPC   C2214193   3.771   5.395   2.300
  121DMPC   H2R14194   3.726   5.479   2.357
  121DMPC   H2S14195   3.858   5.432   2.244
  121DMPC    C314196   3.532   5.081   2.137
  121DMPC    HX14197   3.461   5.027   2.069
  121DMPC    HY14198   3.468   5.145   2.201
  121DMPC   O3114199   3.607   4.993   2.223
  121DMPC   C3114200   3.622   4.867   2.183
  121DMPC   O3214201   3.583   4.821   2.077
  121DMPC   C3214202   3.700   4.788   2.288
  121DMPC   H2X14203   3.799   4.836   2.301
  121DMPC   H2Y14204   3.716   4.684   2.251
  121DMPC   C2314205   3.815   5.283   2.397
  121DMPC   H3R14206   3.900   5.323   2.457
  121DMPC   H3S14207   3.853   5.195   2.340
  121DMPC   C2414208   3.705   5.238   2.495
  121DMPC   H4R14209   3.618   5.202   2.437
  121DMPC   H4S14210   3.673   5.326   2.555
  121DMPC   C2514211   3.750   5.126   2.591
  121DMPC   H5R14212   3.836   5.162   2.652
  121DMPC   H5S14213   3.784   5.040   2.530
  121DMPC   C2614214   3.637   5.080   2.684
  121DMPC   H6R14215   3.551   5.048   2.622
  121DMPC   H6S14216   3.604   5.165   2.747
  121DMPC   C2714217   3.676   4.963   2.776
  121DMPC   H7R14218   3.758   4.995   2.843
  121DMPC   H7S14219   3.713   4.878   2.714
  121DMPC   C2814220   3.557   4.913   2.861
  121DMPC   H8R14221   3.475   4.883   2.791
  121DMPC   H8S14222   3.519   4.997   2.923
  121DMPC   C2914223   3.587   4.793   2.953
  121DMPC   H9R14224   3.627   4.709   2.892
  121DMPC   H9S14225   3.491   4.761   2.998
  121DMPC  C21014226   3.684   4.826   3.067
  121DMPC  H10R14227   3.651   4.921   3.115
  121DMPC  H10S14228   3.786   4.841   3.027
  121DMPC  C21114229   3.688   4.717   3.176
  121DMPC  H11R14230   3.725   4.622   3.132
  121DMPC  H11S14231   3.585   4.700   3.213
  121DMPC  C21214232   3.776   4.757   3.296
  121DMPC  H12R14233   3.746   4.858   3.330
  121DMPC  H12S14234   3.882   4.762   3.263
  121DMPC  C21314235   3.766   4.661   3.416
  121DMPC  H13R14236   3.661   4.663   3.454
  121DMPC  H13S14237   3.831   4.701   3.498
  121DMPC  C21414238   3.806   4.516   3.388
  121DMPC  H14R14239   3.910   4.512   3.349
  121DMPC  H14S14240   3.738   4.471   3.313
  121DMPC  H14T14241   3.801   4.456   3.481
  121DMPC   C3314242   3.625   4.786   2.422
  121DMPC   H3X14243   3.600   4.890   2.453
  121DMPC   H3Y14244   3.693   4.744   2.499
  121DMPC   C3414245   3.496   4.701   2.421
  121DMPC   H4X14246   3.523   4.596   2.398
  121DMPC   H4Y14247   3.429   4.738   2.342
  121DMPC   C3514248   3.421   4.706   2.555
  121DMPC   H5X14249   3.397   4.812   2.579
  121DMPC   H5Y14250   3.488   4.668   2.635
  121DMPC   C3614251   3.291   4.625   2.554
  121DMPC   H6X14252   3.315   4.517   2.538
  121DMPC   H6Y14253   3.229   4.659   2.468
  121DMPC   C3714254   3.207   4.639   2.682
  121DMPC   H7X14255   3.112   4.581   2.668
  121DMPC   H7Y14256   3.180   4.746   2.696
  121DMPC   C3814257   3.277   4.586   2.809
  121DMPC   H8X14258   3.365   4.650   2.832
  121DMPC   H8Y14259   3.313   4.483   2.788
  121DMPC   C3914260   3.186   4.581   2.933
  121DMPC   H9X14261   3.242   4.531   3.015
  121DMPC   H9Y14262   3.097   4.518   2.909
  121DMPC  C31014263   3.137   4.718   2.983
  121DMPC  H10X14264   3.082   4.770   2.902
  121DMPC  H10Y14265   3.226   4.780   3.010
  121DMPC  C31114266   3.045   4.706   3.106
  121DMPC  H11X14267   3.098   4.646   3.184
  121DMPC  H11Y14268   2.953   4.650   3.077
  121DMPC  C31214269   3.005   4.840   3.169
  121DMPC  H12X14270   3.097   4.896   3.198
  121DMPC  H12Y14271   2.948   4.819   3.263
  121DMPC  C31314272   2.918   4.929   3.079
  121DMPC  H13X14273   2.827   4.871   3.051
  121DMPC  H13Y14274   2.973   4.952   2.985
  121DMPC  C31414275   2.874   5.061   3.143
  121DMPC  H14X14276   2.812   5.119   3.073
  121DMPC  H14Y14277   2.963   5.122   3.170
  121DMPC  H14Z14278   2.816   5.041   3.236
  122DMPC     N14279   0.802   2.751   1.423
  122DMPC   C1314280   0.879   2.706   1.304
  122DMPC  H13A14281   0.870   2.599   1.293
  122DMPC  H13B14282   0.983   2.732   1.318
  122DMPC  H13C14283   0.842   2.755   1.215
  122DMPC   C1414284   0.852   2.674   1.540
  122DMPC  H14A14285   0.956   2.697   1.556
  122DMPC  H14B14286   0.842   2.568   1.519
  122DMPC  H14C14287   0.794   2.698   1.629
  122DMPC   C1514288   0.830   2.895   1.445
  122DMPC  H15A14289   0.937   2.909   1.453
  122DMPC  H15B14290   0.781   2.929   1.535
  122DMPC  H15C14291   0.792   2.952   1.362
  122DMPC   C1214292   0.655   2.726   1.400
  122DMPC  H12A14293   0.639   2.619   1.399
  122DMPC  H12B14294   0.630   2.763   1.302
  122DMPC   C1114295   0.554   2.790   1.498
  122DMPC  H11A14296   0.581   2.761   1.603
  122DMPC  H11B14297   0.453   2.747   1.474
  122DMPC     P14298   0.462   3.016   1.575
  122DMPC   O1314299   0.372   3.101   1.494
  122DMPC   O1414300   0.547   3.088   1.673
  122DMPC   O1114301   0.377   2.907   1.651
  122DMPC   O1214302   0.553   2.931   1.481
  122DMPC    C114303   0.251   2.940   1.711
  122DMPC    HA14304   0.199   2.845   1.736
  122DMPC    HB14305   0.185   2.996   1.641
  122DMPC    C214306   0.265   3.020   1.844
  122DMPC    HS14307   0.320   3.114   1.818
  122DMPC   O2114308   0.340   2.939   1.936
  122DMPC   C2114309   0.387   3.008   2.037
  122DMPC   O2214310   0.376   3.129   2.051
  122DMPC   C2214311   0.457   2.914   2.135
  122DMPC   H2R14312   0.550   2.962   2.171
  122DMPC   H2S14313   0.484   2.820   2.083
  122DMPC    C314314   0.125   3.063   1.902
  122DMPC    HX14315   0.059   3.095   1.818
  122DMPC    HY14316   0.142   3.155   1.963
  122DMPC   O3114317   0.064   2.965   1.988
  122DMPC   C3114318   6.274   2.877   1.930
  122DMPC   O3214319   6.253   2.868   1.810
  122DMPC   C3214320   6.209   2.792   2.038
  122DMPC   H2X14321   6.100   2.813   2.035
  122DMPC   H2Y14322   6.246   2.820   2.138
  122DMPC   C2314323   0.365   2.882   2.254
  122DMPC   H3R14324   0.416   2.803   2.314
  122DMPC   H3S14325   0.269   2.838   2.219
  122DMPC   C2414326   0.338   3.001   2.347
  122DMPC   H4R14327   0.415   3.079   2.328
  122DMPC   H4S14328   0.349   2.968   2.453
  122DMPC   C2514329   0.198   3.063   2.331
  122DMPC   H5R14330   0.124   2.998   2.382
  122DMPC   H5S14331   0.171   3.065   2.223
  122DMPC   C2614332   0.186   3.207   2.385
  122DMPC   H6R14333   0.080   3.238   2.381
  122DMPC   H6S14334   0.243   3.274   2.316
  122DMPC   C2714335   0.241   3.228   2.527
  122DMPC   H7R14336   0.233   3.336   2.552
  122DMPC   H7S14337   0.350   3.203   2.528
  122DMPC   C2814338   0.170   3.147   2.636
  122DMPC   H8R14339   0.171   3.039   2.609
  122DMPC   H8S14340   0.064   3.181   2.642
  122DMPC   C2914341   0.237   3.163   2.773
  122DMPC   H9R14342   0.241   3.272   2.798
  122DMPC   H9S14343   0.341   3.125   2.766
  122DMPC  C21014344   0.163   3.089   2.886
  122DMPC  H10R14345   0.152   2.982   2.856
  122DMPC  H10S14346   0.062   3.132   2.897
  122DMPC  C21114347   0.237   3.093   3.021
  122DMPC  H11R14348   0.333   3.038   3.011
  122DMPC  H11S14349   0.175   3.038   3.096
  122DMPC  C21214350   0.269   3.234   3.075
  122DMPC  H12R14351   0.342   3.282   3.007
  122DMPC  H12S14352   0.318   3.223   3.174
  122DMPC  C21314353   0.148   3.328   3.091
  122DMPC  H13R14354   0.100   3.343   2.991
  122DMPC  H13S14355   0.186   3.427   3.124
  122DMPC  C21414356   0.041   3.281   3.190
  122DMPC  H14R14357   0.001   3.183   3.159
  122DMPC  H14S14358   6.248   3.354   3.193
  122DMPC  H14T14359   0.084   3.272   3.292
  122DMPC   C3314360   6.231   2.641   2.014
  122DMPC   H3X14361   6.204   2.612   1.910
  122DMPC   H3Y14362   6.162   2.588   2.083
  122DMPC   C3414363   0.084   2.594   2.046
  122DMPC   H4X14364   0.121   2.648   2.136
  122DMPC   H4Y14365   0.149   2.622   1.960
  122DMPC   C3514366   0.096   2.443   2.072
  122DMPC   H5X14367   0.203   2.415   2.068
  122DMPC   H5Y14368   0.043   2.387   1.992
  122DMPC   C3614369   0.040   2.401   2.210
  122DMPC   H6X14370   6.225   2.434   2.218
  122DMPC   H6Y14371   0.098   2.453   2.289
  122DMPC   C3714372   0.044   2.250   2.238
  122DMPC   H7X14373   6.270   2.196   2.165
  122DMPC   H7Y14374   0.000   2.234   2.340
  122DMPC   C3814375   0.184   2.187   2.237
  122DMPC   H8X14376   0.255   2.256   2.288
  122DMPC   H8Y14377   0.218   2.175   2.131
  122DMPC   C3914378   0.189   2.051   2.309
  122DMPC   H9X14379   0.112   1.984   2.266
  122DMPC   H9Y14380   0.164   2.069   2.416
  122DMPC  C31014381   0.326   1.982   2.301
  122DMPC  H10X14382   0.406   2.057   2.320
  122DMPC  H10Y14383   0.340   1.943   2.198
  122DMPC  C31114384   0.345   1.868   2.402
  122DMPC  H11X14385   0.353   1.912   2.504
  122DMPC  H11Y14386   0.442   1.818   2.380
  122DMPC  C31214387   0.233   1.763   2.404
  122DMPC  H12X14388   0.218   1.724   2.301
  122DMPC  H12Y14389   0.139   1.810   2.438
  122DMPC  C31314390   0.265   1.645   2.498
  122DMPC  H13X14391   0.292   1.685   2.598
  122DMPC  H13Y14392   0.354   1.591   2.457
  122DMPC  C31414393   0.151   1.545   2.514
  122DMPC  H14X14394   0.065   1.593   2.566
  122DMPC  H14Y14395   0.184   1.457   2.574
  122DMPC  H14Z14396   0.116   1.509   2.415
  123DMPC     N14397   4.770   3.590   1.275
  123DMPC   C1314398   4.657   3.494   1.277
  123DMPC  H13A14399   4.565   3.546   1.302
  123DMPC  H13B14400   4.674   3.417   1.350
  123DMPC  H13C14401   4.646   3.449   1.179
  123DMPC   C1414402   4.896   3.516   1.244
  123DMPC  H14A14403   4.921   3.451   1.326
  123DMPC  H14B14404   4.976   3.587   1.228
  123DMPC  H14C14405   4.881   3.459   1.153
  123DMPC   C1514406   4.745   3.689   1.167
  123DMPC  H15A14407   4.655   3.744   1.188
  123DMPC  H15B14408   4.734   3.637   1.073
  123DMPC  H15C14409   4.829   3.757   1.159
  123DMPC   C1214410   4.783   3.664   1.406
  123DMPC  H12A14411   4.700   3.734   1.411
  123DMPC  H12B14412   4.874   3.722   1.402
  123DMPC   C1114413   4.783   3.582   1.537
  123DMPC  H11A14414   4.681   3.537   1.548
  123DMPC  H11B14415   4.799   3.654   1.620
  123DMPC     P14416   4.877   3.378   1.651
  123DMPC   O1314417   4.997   3.291   1.648
  123DMPC   O1414418   4.746   3.310   1.637
  123DMPC   O1114419   4.877   3.465   1.783
  123DMPC   O1214420   4.887   3.485   1.536
  123DMPC    C114421   4.984   3.555   1.816
  123DMPC    HA14422   4.948   3.623   1.896
  123DMPC    HB14423   5.012   3.619   1.729
  123DMPC    C214424   5.114   3.485   1.869
  123DMPC    HS14425   5.160   3.436   1.780
  123DMPC   O2114426   5.076   3.388   1.968
  123DMPC   C2114427   5.166   3.292   1.980
  123DMPC   O2214428   5.274   3.291   1.923
  123DMPC   C2214429   5.114   3.182   2.072
  123DMPC   H2R14430   5.139   3.085   2.024
  123DMPC   H2S14431   5.004   3.188   2.083
  123DMPC    C314432   5.218   3.589   1.924
  123DMPC    HX14433   5.244   3.654   1.838
  123DMPC    HY14434   5.311   3.537   1.953
  123DMPC   O3114435   5.164   3.675   2.028
  123DMPC   C3114436   5.208   3.653   2.151
  123DMPC   O3214437   5.285   3.565   2.185
  123DMPC   C3214438   5.147   3.758   2.245
  123DMPC   H2X14439   5.058   3.713   2.295
  123DMPC   H2Y14440   5.114   3.846   2.185
  123DMPC   C2314441   5.183   3.188   2.209
  123DMPC   H3R14442   5.291   3.210   2.197
  123DMPC   H3S14443   5.176   3.086   2.254
  123DMPC   C2414444   5.119   3.287   2.308
  123DMPC   H4R14445   5.017   3.249   2.334
  123DMPC   H4S14446   5.107   3.385   2.259
  123DMPC   C2514447   5.199   3.306   2.438
  123DMPC   H5R14448   5.139   3.369   2.508
  123DMPC   H5S14449   5.292   3.361   2.415
  123DMPC   C2614450   5.235   3.175   2.508
  123DMPC   H6R14451   5.302   3.116   2.440
  123DMPC   H6S14452   5.143   3.115   2.525
  123DMPC   C2714453   5.310   3.192   2.641
  123DMPC   H7R14454   5.241   3.234   2.717
  123DMPC   H7S14455   5.393   3.264   2.626
  123DMPC   C2814456   5.368   3.059   2.690
  123DMPC   H8R14457   5.436   3.020   2.610
  123DMPC   H8S14458   5.286   2.985   2.703
  123DMPC   C2914459   5.449   3.069   2.820
  123DMPC   H9R14460   5.379   3.088   2.905
  123DMPC   H9S14461   5.519   3.155   2.813
  123DMPC  C21014462   5.530   2.942   2.848
  123DMPC  H10R14463   5.600   2.928   2.763
  123DMPC  H10S14464   5.462   2.854   2.851
  123DMPC  C21114465   5.610   2.948   2.979
  123DMPC  H11R14466   5.538   2.946   3.064
  123DMPC  H11S14467   5.667   3.043   2.984
  123DMPC  C21214468   5.708   2.830   2.995
  123DMPC  H12R14469   5.656   2.735   2.971
  123DMPC  H12S14470   5.741   2.826   3.101
  123DMPC  C21314471   5.834   2.844   2.907
  123DMPC  H13R14472   5.883   2.941   2.928
  123DMPC  H13S14473   5.804   2.844   2.800
  123DMPC  C21414474   5.937   2.732   2.928
  123DMPC  H14R14475   6.023   2.745   2.859
  123DMPC  H14S14476   5.890   2.633   2.907
  123DMPC  H14T14477   5.974   2.733   3.033
  123DMPC   C3314478   5.249   3.804   2.351
  123DMPC   H3X14479   5.344   3.833   2.301
  123DMPC   H3Y14480   5.270   3.720   2.421
  123DMPC   C3414481   5.197   3.925   2.431
  123DMPC   H4X14482   5.099   3.899   2.476
  123DMPC   H4Y14483   5.181   4.009   2.360
  123DMPC   C3514484   5.292   3.974   2.542
  123DMPC   H5X14485   5.391   3.998   2.499
  123DMPC   H5Y14486   5.306   3.892   2.616
  123DMPC   C3614487   5.236   4.098   2.614
  123DMPC   H6X14488   5.134   4.074   2.651
  123DMPC   H6Y14489   5.227   4.181   2.540
  123DMPC   C3714490   5.320   4.147   2.733
  123DMPC   H7X14491   5.423   4.172   2.698
  123DMPC   H7Y14492   5.329   4.065   2.808
  123DMPC   C3814493   5.258   4.270   2.801
  123DMPC   H8X14494   5.153   4.245   2.829
  123DMPC   H8Y14495   5.254   4.353   2.727
  123DMPC   C3914496   5.331   4.319   2.927
  123DMPC   H9X14497   5.437   4.341   2.902
  123DMPC   H9Y14498   5.330   4.237   3.002
  123DMPC  C31014499   5.265   4.443   2.988
  123DMPC  H10X14500   5.156   4.424   2.996
  123DMPC  H10Y14501   5.280   4.529   2.918
  123DMPC  C31114502   5.315   4.483   3.128
  123DMPC  H11X14503   5.298   4.398   3.197
  123DMPC  H11Y14504   5.253   4.568   3.162
  123DMPC  C31214505   5.462   4.527   3.134
  123DMPC  H12X14506   5.481   4.601   3.053
  123DMPC  H12Y14507   5.528   4.439   3.116
  123DMPC  C31314508   5.501   4.593   3.267
  123DMPC  H13X14509   5.445   4.689   3.277
  123DMPC  H13Y14510   5.609   4.618   3.264
  123DMPC  C31414511   5.473   4.509   3.393
  123DMPC  H14X14512   5.508   4.563   3.483
  123DMPC  H14Y14513   5.526   4.411   3.387
  123DMPC  H14Z14514   5.365   4.489   3.404
  124DMPC     N14515   1.751   5.566   1.042
  124DMPC   C1314516   1.720   5.459   0.943
  124DMPC  H13A14517   1.791   5.462   0.862
  124DMPC  H13B14518   1.620   5.472   0.904
  124DMPC  H13C14519   1.726   5.363   0.991
  124DMPC   C1414520   1.890   5.543   1.093
  124DMPC  H14A14521   1.896   5.447   1.142
  124DMPC  H14B14522   1.913   5.620   1.166
  124DMPC  H14C14523   1.960   5.548   1.012
  124DMPC   C1514524   1.746   5.698   0.974
  124DMPC  H15A14525   1.814   5.699   0.890
  124DMPC  H15B14526   1.774   5.776   1.043
  124DMPC  H15C14527   1.645   5.717   0.938
  124DMPC   C1214528   1.650   5.560   1.154
  124DMPC  H12A14529   1.665   5.467   1.207
  124DMPC  H12B14530   1.552   5.556   1.109
  124DMPC   C1114531   1.649   5.675   1.257
  124DMPC  H11A14532   1.570   5.649   1.332
  124DMPC  H11B14533   1.618   5.770   1.207
  124DMPC     P14534   1.791   5.713   1.465
  124DMPC   O1314535   1.931   5.748   1.499
  124DMPC   O1414536   1.732   5.594   1.532
  124DMPC   O1114537   1.697   5.838   1.490
  124DMPC   O1214538   1.780   5.693   1.311
  124DMPC    C114539   1.720   5.964   1.426
  124DMPC    HA14540   1.626   5.996   1.375
  124DMPC    HB14541   1.798   5.960   1.346
  124DMPC    C214542   1.762   6.076   1.527
  124DMPC    HS14543   1.865   6.048   1.561
  124DMPC   O2114544   1.680   6.073   1.645
  124DMPC   C2114545   1.555   6.112   1.631
  124DMPC   O2214546   1.503   6.150   1.527
  124DMPC   C2214547   1.486   6.109   1.767
  124DMPC   H2R14548   1.543   6.045   1.837
  124DMPC   H2S14549   1.384   6.068   1.754
  124DMPC    C314550   1.777   6.219   1.463
  124DMPC    HX14551   1.692   6.233   1.392
  124DMPC    HY14552   1.869   6.222   1.401
  124DMPC   O3114553   1.773   6.327   1.559
  124DMPC   C3114554   1.885   0.010   1.631
  124DMPC   O3214555   1.986   6.273   1.615
  124DMPC   C3214556   1.867   0.118   1.737
  124DMPC   H2X14557   1.761   0.124   1.766
  124DMPC   H2Y14558   1.899   0.216   1.694
  124DMPC   C2314559   1.479   6.253   1.821
  124DMPC   H3R14560   1.414   6.315   1.756
  124DMPC   H3S14561   1.582   6.298   1.817
  124DMPC   C2414562   1.431   6.263   1.966
  124DMPC   H4R14563   1.446   0.037   2.001
  124DMPC   H4S14564   1.495   6.197   2.029
  124DMPC   C2514565   1.284   6.225   1.988
  124DMPC   H5R14566   1.267   6.119   1.959
  124DMPC   H5S14567   1.220   6.289   1.922
  124DMPC   C2614568   1.240   6.244   2.134
  124DMPC   H6R14569   1.263   0.019   2.164
  124DMPC   H6S14570   1.300   6.177   2.199
  124DMPC   C2714571   1.091   6.219   2.159
  124DMPC   H7R14572   1.067   6.113   2.134
  124DMPC   H7S14573   1.032   6.284   2.091
  124DMPC   C2814574   1.050   6.248   2.304
  124DMPC   H8R14575   1.081   0.021   2.328
  124DMPC   H8S14576   1.105   6.179   2.372
  124DMPC   C2914577   0.899   6.235   2.331
  124DMPC   H9R14578   0.869   6.128   2.320
  124DMPC   H9S14579   0.845   6.294   2.254
  124DMPC  C21014580   0.859   6.286   2.470
  124DMPC  H10R14581   0.892   0.062   2.479
  124DMPC  H10S14582   0.912   6.227   2.548
  124DMPC  C21114583   0.708   6.280   2.496
  124DMPC  H11R14584   0.675   6.173   2.495
  124DMPC  H11S14585   0.655   0.002   2.414
  124DMPC  C21214586   0.667   0.013   2.630
  124DMPC  H12R14587   0.702   0.118   2.631
  124DMPC  H12S14588   0.718   6.290   2.713
  124DMPC  C21314589   0.515   0.011   2.654
  124DMPC  H13R14590   0.480   6.236   2.656
  124DMPC  H13S14591   0.466   0.062   2.569
  124DMPC  C21414592   0.472   0.080   2.784
  124DMPC  H14R14593   0.517   0.029   2.872
  124DMPC  H14S14594   0.361   0.077   2.795
  124DMPC  H14T14595   0.504   0.186   2.784
  124DMPC   C3314596   1.953   0.083   1.859
  124DMPC   H3X14597   2.061   0.078   1.831
  124DMPC   H3Y14598   1.923   6.313   1.896
  124DMPC   C3414599   1.938   0.182   1.976
  124DMPC   H4X14600   1.830   0.196   1.998
  124DMPC   H4Y14601   1.980   0.281   1.946
  124DMPC   C3514602   2.009   0.133   2.103
  124DMPC   H5X14603   2.116   0.115   2.081
  124DMPC   H5Y14604   1.963   0.036   2.134
  124DMPC   C3614605   1.998   0.231   2.221
  124DMPC   H6X14606   1.890   0.258   2.234
  124DMPC   H6Y14607   2.053   0.324   2.197
  124DMPC   C3714608   2.049   0.173   2.354
  124DMPC   H7X14609   2.156   0.146   2.344
  124DMPC   H7Y14610   1.992   0.081   2.375
  124DMPC   C3814611   2.033   0.271   2.471
  124DMPC   H8X14612   1.929   0.308   2.472
  124DMPC   H8Y14613   2.100   0.358   2.455
  124DMPC   C3914614   2.063   0.211   2.610
  124DMPC   H9X14615   2.053   0.292   2.685
  124DMPC   H9Y14616   2.168   0.174   2.613
  124DMPC  C31014617   1.968   0.097   2.648
  124DMPC  H10X14618   1.995   0.006   2.589
  124DMPC  H10Y14619   1.864   0.126   2.621
  124DMPC  C31114620   1.970   0.060   2.797
  124DMPC  H11X14621   1.943   0.151   2.856
  124DMPC  H11Y14622   2.073   0.030   2.826
  124DMPC  C31214623   1.873   6.277   2.831
  124DMPC  H12X14624   1.905   6.186   2.776
  124DMPC  H12Y14625   1.771   6.303   2.795
  124DMPC  C31314626   1.865   6.243   2.981
  124DMPC  H13X14627   1.967   6.220   3.018
  124DMPC  H13Y14628   1.804   6.150   2.992
  124DMPC  C31414629   1.802   0.022   3.068
  124DMPC  H14X14630   1.863   0.114   3.065
  124DMPC  H14Y14631   1.796   6.318   3.174
  124DMPC  H14Z14632   1.700   0.045   3.033
  125DMPC     N14633   4.875   5.091   1.024
  125DMPC   C1314634   5.012   5.041   0.994
  125DMPC  H13A14635   5.008   4.973   0.910
  125DMPC  H13B14636   5.050   4.987   1.080
  125DMPC  H13C14637   5.077   5.123   0.970
  125DMPC   C1414638   4.883   5.195   1.130
  125DMPC  H14A14639   4.924   5.154   1.221
  125DMPC  H14B14640   4.783   5.234   1.150
  125DMPC  H14C14641   4.945   5.277   1.097
  125DMPC   C1514642   4.820   5.153   0.901
  125DMPC  H15A14643   4.817   5.080   0.821
  125DMPC  H15B14644   4.880   5.238   0.871
  125DMPC  H15C14645   4.719   5.187   0.920
  125DMPC   C1214646   4.785   4.977   1.066
  125DMPC  H12A14647   4.789   4.902   0.989
  125DMPC  H12B14648   4.684   5.015   1.070
  125DMPC   C1114649   4.813   4.908   1.201
  125DMPC  H11A14650   4.732   4.832   1.214
  125DMPC  H11B14651   4.805   4.984   1.282
  125DMPC     P14652   4.971   4.748   1.319
  125DMPC   O1314653   5.114   4.710   1.315
  125DMPC   O1414654   4.874   4.636   1.311
  125DMPC   O1114655   4.940   4.831   1.449
  125DMPC   O1214656   4.943   4.850   1.203
  125DMPC    C114657   5.029   4.931   1.499
  125DMPC    HA14658   4.971   5.003   1.560
  125DMPC    HB14659   5.076   4.989   1.416
  125DMPC    C214660   5.142   4.875   1.592
  125DMPC    HS14661   5.209   4.813   1.527
  125DMPC   O2114662   5.082   4.795   1.695
  125DMPC   C2114663   5.168   4.714   1.754
  125DMPC   O2214664   5.287   4.708   1.728
  125DMPC   C2214665   5.097   4.627   1.857
  125DMPC   H2R14666   5.160   4.539   1.879
  125DMPC   H2S14667   5.001   4.591   1.814
  125DMPC    C314668   5.227   4.993   1.650
  125DMPC    HX14669   5.264   5.052   1.564
  125DMPC    HY14670   5.317   4.953   1.701
  125DMPC   O3114671   5.148   5.081   1.734
  125DMPC   C3114672   5.174   5.079   1.863
  125DMPC   O3214673   5.264   5.015   1.916
  125DMPC   C3214674   5.075   5.169   1.936
  125DMPC   H2X14675   4.974   5.155   1.892
  125DMPC   H2Y14676   5.106   5.275   1.924
  125DMPC   C2314677   5.068   4.705   1.988
  125DMPC   H3R14678   5.013   4.798   1.963
  125DMPC   H3S14679   5.164   4.733   2.037
  125DMPC   C2414680   4.982   4.623   2.086
  125DMPC   H4R14681   5.037   4.532   2.119
  125DMPC   H4S14682   4.893   4.588   2.029
  125DMPC   C2514683   4.930   4.701   2.208
  125DMPC   H5R14684   4.911   4.807   2.180
  125DMPC   H5S14685   4.832   4.656   2.236
  125DMPC   C2614686   5.019   4.695   2.334
  125DMPC   H6R14687   5.116   4.744   2.313
  125DMPC   H6S14688   5.038   4.588   2.358
  125DMPC   C2714689   4.950   4.761   2.454
  125DMPC   H7R14690   4.847   4.721   2.462
  125DMPC   H7S14691   4.942   4.871   2.436
  125DMPC   C2814692   5.018   4.739   2.591
  125DMPC   H8R14693   5.016   4.631   2.615
  125DMPC   H8S14694   4.959   4.793   2.668
  125DMPC   C2914695   5.164   4.788   2.597
  125DMPC   H9R14696   5.171   4.892   2.561
  125DMPC   H9S14697   5.225   4.724   2.529
  125DMPC  C21014698   5.226   4.779   2.738
  125DMPC  H10R14699   5.336   4.785   2.727
  125DMPC  H10S14700   5.202   4.680   2.782
  125DMPC  C21114701   5.181   4.891   2.833
  125DMPC  H11R14702   5.074   4.878   2.858
  125DMPC  H11S14703   5.193   4.988   2.780
  125DMPC  C21214704   5.264   4.897   2.962
  125DMPC  H12R14705   5.371   4.909   2.935
  125DMPC  H12S14706   5.253   4.801   3.017
  125DMPC  C21314707   5.224   5.013   3.055
  125DMPC  H13R14708   5.118   4.997   3.088
  125DMPC  H13S14709   5.227   5.108   2.997
  125DMPC  C21414710   5.313   5.028   3.179
  125DMPC  H14R14711   5.277   5.111   3.243
  125DMPC  H14S14712   5.417   5.049   3.148
  125DMPC  H14T14713   5.312   4.934   3.238
  125DMPC   C3314714   5.070   5.132   2.086
  125DMPC   H3X14715   5.169   5.152   2.132
  125DMPC   H3Y14716   5.048   5.023   2.096
  125DMPC   C3414717   4.963   5.211   2.162
  125DMPC   H4X14718   4.865   5.193   2.112
  125DMPC   H4Y14719   4.986   5.319   2.154
  125DMPC   C3514720   4.953   5.172   2.310
  125DMPC   H5X14721   5.051   5.190   2.358
  125DMPC   H5Y14722   4.931   5.063   2.318
  125DMPC   C3614723   4.846   5.251   2.388
  125DMPC   H6X14724   4.869   5.359   2.378
  125DMPC   H6Y14725   4.854   5.224   2.495
  125DMPC   C3714726   4.700   5.228   2.342
  125DMPC   H7X14727   4.689   5.259   2.236
  125DMPC   H7Y14728   4.635   5.294   2.403
  125DMPC   C3814729   4.649   5.083   2.357
  125DMPC   H8X14730   4.708   5.016   2.291
  125DMPC   H8Y14731   4.544   5.080   2.322
  125DMPC   C3914732   4.654   5.030   2.501
  125DMPC   H9X14733   4.603   5.102   2.568
  125DMPC   H9Y14734   4.760   5.022   2.534
  125DMPC  C31014735   4.588   4.892   2.518
  125DMPC  H10X14736   4.638   4.818   2.452
  125DMPC  H10Y14737   4.482   4.899   2.485
  125DMPC  C31114738   4.592   4.842   2.663
  125DMPC  H11X14739   4.542   4.917   2.727
  125DMPC  H11Y14740   4.698   4.834   2.695
  125DMPC  C31214741   4.524   4.705   2.681
  125DMPC  H12X14742   4.574   4.631   2.615
  125DMPC  H12Y14743   4.418   4.714   2.650
  125DMPC  C31314744   4.529   4.651   2.825
  125DMPC  H13X14745   4.635   4.633   2.852
  125DMPC  H13Y14746   4.477   4.553   2.827
  125DMPC  C31414747   4.466   4.742   2.932
  125DMPC  H14X14748   4.524   4.836   2.942
  125DMPC  H14Y14749   4.466   4.690   3.031
  125DMPC  H14Z14750   4.362   4.767   2.905
  126DMPC     N14751   1.973   5.332   1.784
  126DMPC   C1314752   1.946   5.387   1.649
  126DMPC  H13A14753   1.849   5.354   1.614
  126DMPC  H13B14754   1.947   5.495   1.653
  126DMPC  H13C14755   2.022   5.353   1.580
  126DMPC   C1414756   1.980   5.184   1.777
  126DMPC  H14A14757   2.015   5.145   1.871
  126DMPC  H14B14758   2.047   5.154   1.698
  126DMPC  H14C14759   1.880   5.146   1.757
  126DMPC   C1514760   2.105   5.385   1.829
  126DMPC  H15A14761   2.129   5.344   1.927
  126DMPC  H15B14762   2.100   5.493   1.833
  126DMPC  H15C14763   2.181   5.356   1.759
  126DMPC   C1214764   1.866   5.375   1.882
  126DMPC  H12A14765   1.880   5.481   1.900
  126DMPC  H12B14766   1.884   5.322   1.975
  126DMPC   C1114767   1.719   5.354   1.840
  126DMPC  H11A14768   1.699   5.424   1.756
  126DMPC  H11B14769   1.657   5.385   1.928
  126DMPC     P14770   1.540   5.192   1.775
  126DMPC   O1314771   1.516   5.052   1.730
  126DMPC   O1414772   1.487   5.298   1.687
  126DMPC   O1114773   1.480   5.210   1.920
  126DMPC   O1214774   1.693   5.218   1.800
  126DMPC    C114775   1.338   5.209   1.943
  126DMPC    HA14776   1.322   5.171   2.046
  126DMPC    HB14777   1.284   5.141   1.874
  126DMPC    C214778   1.271   5.350   1.936
  126DMPC    HS14779   1.272   5.380   1.828
  126DMPC   O2114780   1.349   5.442   2.015
  126DMPC   C2114781   1.325   5.568   1.984
  126DMPC   O2214782   1.242   5.606   1.902
  126DMPC   C2214783   1.420   5.659   2.062
  126DMPC   H2R14784   1.507   5.679   1.995
  126DMPC   H2S14785   1.457   5.607   2.153
  126DMPC    C314786   1.122   5.340   1.983
  126DMPC    HX14787   1.068   5.282   1.905
  126DMPC    HY14788   1.074   5.440   1.984
  126DMPC   O3114789   1.107   5.269   2.108
  126DMPC   C3114790   1.112   5.342   2.218
  126DMPC   O3214791   1.120   5.464   2.221
  126DMPC   C3214792   1.103   5.250   2.340
  126DMPC   H2X14793   1.159   5.156   2.320
  126DMPC   H2Y14794   0.996   5.225   2.356
  126DMPC   C2314795   1.357   5.794   2.100
  126DMPC   H3R14796   1.298   5.834   2.015
  126DMPC   H3S14797   1.439   5.867   2.118
  126DMPC   C2414798   1.269   5.792   2.227
  126DMPC   H4R14799   1.194   5.711   2.218
  126DMPC   H4S14800   1.215   5.889   2.233
  126DMPC   C2514801   1.350   5.775   2.357
  126DMPC   H5R14802   1.422   5.860   2.365
  126DMPC   H5S14803   1.408   5.681   2.353
  126DMPC   C2614804   1.263   5.773   2.484
  126DMPC   H6R14805   1.195   5.685   2.478
  126DMPC   H6S14806   1.201   5.865   2.488
  126DMPC   C2714807   1.347   5.762   2.612
  126DMPC   H7R14808   1.406   5.855   2.626
  126DMPC   H7S14809   1.419   5.678   2.599
  126DMPC   C2814810   1.265   5.734   2.739
  126DMPC   H8R14811   1.336   5.707   2.821
  126DMPC   H8S14812   1.199   5.647   2.722
  126DMPC   C2914813   1.180   5.853   2.788
  126DMPC   H9R14814   1.109   5.883   2.708
  126DMPC   H9S14815   1.247   5.939   2.808
  126DMPC  C21014816   1.102   5.819   2.915
  126DMPC  H10R14817   1.174   5.789   2.994
  126DMPC  H10S14818   1.035   5.733   2.895
  126DMPC  C21114819   1.018   5.937   2.968
  126DMPC  H11R14820   0.941   5.966   2.893
  126DMPC  H11S14821   1.086   6.023   2.983
  126DMPC  C21214822   0.948   5.906   3.102
  126DMPC  H12R14823   0.911   6.001   3.146
  126DMPC  H12S14824   1.023   5.863   3.173
  126DMPC  C21314825   0.829   5.809   3.090
  126DMPC  H13R14826   0.863   5.716   3.039
  126DMPC  H13S14827   0.752   5.857   3.025
  126DMPC  C21414828   0.765   5.772   3.223
  126DMPC  H14R14829   0.838   5.716   3.286
  126DMPC  H14S14830   0.677   5.707   3.207
  126DMPC  H14T14831   0.733   5.863   3.278
  126DMPC   C3314832   1.159   5.318   2.467
  126DMPC   H3X14833   1.132   5.252   2.553
  126DMPC   H3Y14834   1.109   5.416   2.484
  126DMPC   C3414835   1.312   5.335   2.468
  126DMPC   H4X14836   1.340   5.415   2.396
  126DMPC   H4Y14837   1.359   5.240   2.434
  126DMPC   C3514838   1.368   5.369   2.607
  126DMPC   H5X14839   1.344   5.284   2.675
  126DMPC   H5Y14840   1.316   5.459   2.645
  126DMPC   C3614841   1.519   5.395   2.607
  126DMPC   H6X14842   1.540   5.481   2.540
  126DMPC   H6Y14843   1.571   5.306   2.565
  126DMPC   C3714844   1.579   5.425   2.745
  126DMPC   H7X14845   1.528   5.514   2.788
  126DMPC   H7Y14846   1.687   5.451   2.731
  126DMPC   C3814847   1.571   5.308   2.844
  126DMPC   H8X14848   1.610   5.217   2.793
  126DMPC   H8Y14849   1.464   5.289   2.870
  126DMPC   C3914850   1.650   5.326   2.975
  126DMPC   H9X14851   1.758   5.337   2.952
  126DMPC   H9Y14852   1.638   5.232   3.033
  126DMPC  C31014853   1.603   5.443   3.064
  126DMPC  H10X14854   1.615   5.412   3.170
  126DMPC  H10Y14855   1.495   5.460   3.046
  126DMPC  C31114856   1.683   5.572   3.045
  126DMPC  H11X14857   1.676   5.607   2.939
  126DMPC  H11Y14858   1.791   5.550   3.065
  126DMPC  C31214859   1.640   5.687   3.138
  126DMPC  H12X14860   1.714   5.770   3.129
  126DMPC  H12Y14861   1.642   5.651   3.243
  126DMPC  C31314862   1.501   5.744   3.106
  126DMPC  H13X14863   1.425   5.663   3.116
  126DMPC  H13Y14864   1.500   5.777   3.000
  126DMPC  C31414865   1.459   5.862   3.195
  126DMPC  H14X14866   1.358   5.898   3.166
  126DMPC  H14Y14867   1.532   5.945   3.185
  126DMPC  H14Z14868   1.456   5.830   3.301
  127DMPC     N14869   1.613   4.947   1.361
  127DMPC   C1314870   1.472   4.993   1.380
  127DMPC  H13A14871   1.417   4.980   1.288
  127DMPC  H13B14872   1.471   5.097   1.407
  127DMPC  H13C14873   1.425   4.935   1.458
  127DMPC   C1414874   1.609   4.801   1.331
  127DMPC  H14A14875   1.558   4.785   1.237
  127DMPC  H14B14876   1.558   4.749   1.410
  127DMPC  H14C14877   1.711   4.764   1.324
  127DMPC   C1514878   1.671   5.020   1.245
  127DMPC  H15A14879   1.773   4.990   1.230
  127DMPC  H15B14880   1.666   5.126   1.264
  127DMPC  H15C14881   1.613   4.998   1.157
  127DMPC   C1214882   1.692   4.975   1.486
  127DMPC  H12A14883   1.648   4.918   1.567
  127DMPC  H12B14884   1.677   5.080   1.511
  127DMPC   C1114885   1.844   4.949   1.484
  127DMPC  H11A14886   1.884   4.977   1.585
  127DMPC  H11B14887   1.890   5.016   1.408
  127DMPC     P14888   2.021   4.775   1.432
  127DMPC   O1314889   2.108   4.877   1.496
  127DMPC   O1414890   2.038   4.757   1.286
  127DMPC   O1114891   2.039   4.636   1.504
  127DMPC   O1214892   1.870   4.812   1.457
  127DMPC    C114893   1.933   4.549   1.547
  127DMPC    HA14894   1.960   4.444   1.522
  127DMPC    HB14895   1.837   4.571   1.494
  127DMPC    C214896   1.906   4.557   1.700
  127DMPC    HS14897   1.813   4.499   1.720
  127DMPC   O2114898   1.891   4.697   1.731
  127DMPC   C2114899   1.815   4.721   1.835
  127DMPC   O2214900   1.759   4.638   1.903
  127DMPC   C2214901   1.808   4.872   1.852
  127DMPC   H2R14902   1.740   4.912   1.775
  127DMPC   H2S14903   1.909   4.917   1.836
  127DMPC    C314904   2.023   4.492   1.781
  127DMPC    HX14905   2.116   4.535   1.737
  127DMPC    HY14906   2.026   4.383   1.762
  127DMPC   O3114907   2.026   4.523   1.922
  127DMPC   C3114908   1.954   4.445   2.001
  127DMPC   O3214909   1.888   4.349   1.964
  127DMPC   C3214910   1.967   4.495   2.145
  127DMPC   H2X14911   1.999   4.601   2.142
  127DMPC   H2Y14912   2.045   4.436   2.198
  127DMPC   C2314913   1.755   4.912   1.991
  127DMPC   H3R14914   1.674   4.844   2.025
  127DMPC   H3S14915   1.709   5.012   1.978
  127DMPC   C2414916   1.864   4.922   2.099
  127DMPC   H4R14917   1.952   4.976   2.058
  127DMPC   H4S14918   1.896   4.819   2.126
  127DMPC   C2514919   1.816   4.995   2.225
  127DMPC   H5R14920   1.887   4.977   2.308
  127DMPC   H5S14921   1.717   4.952   2.255
  127DMPC   C2614922   1.802   5.147   2.204
  127DMPC   H6R14923   1.756   5.166   2.105
  127DMPC   H6S14924   1.904   5.192   2.202
  127DMPC   C2714925   1.715   5.218   2.308
  127DMPC   H7R14926   1.769   5.225   2.404
  127DMPC   H7S14927   1.623   5.158   2.324
  127DMPC   C2814928   1.671   5.358   2.261
  127DMPC   H8R14929   1.601   5.401   2.335
  127DMPC   H8S14930   1.616   5.347   2.165
  127DMPC   C2914931   1.788   5.456   2.241
  127DMPC   H9R14932   1.862   5.412   2.171
  127DMPC   H9S14933   1.838   5.472   2.339
  127DMPC  C21014934   1.742   5.591   2.184
  127DMPC  H10R14935   1.669   5.637   2.254
  127DMPC  H10S14936   1.691   5.573   2.087
  127DMPC  C21114937   1.857   5.690   2.159
  127DMPC  H11R14938   1.930   5.645   2.088
  127DMPC  H11S14939   1.910   5.709   2.255
  127DMPC  C21214940   1.808   5.824   2.103
  127DMPC  H12R14941   1.729   5.865   2.171
  127DMPC  H12S14942   1.761   5.806   2.004
  127DMPC  C21314943   1.919   5.928   2.089
  127DMPC  H13R14944   2.001   5.885   2.026
  127DMPC  H13S14945   1.962   5.948   2.190
  127DMPC  C21414946   1.874   6.060   2.027
  127DMPC  H14R14947   1.836   6.044   1.924
  127DMPC  H14S14948   1.959   6.132   2.023
  127DMPC  H14T14949   1.792   6.106   2.087
  127DMPC   C3314950   1.833   4.488   2.220
  127DMPC   H3X14951   1.813   4.384   2.254
  127DMPC   H3Y14952   1.751   4.519   2.150
  127DMPC   C3414953   1.825   4.586   2.339
  127DMPC   H4X14954   1.723   4.583   2.381
  127DMPC   H4Y14955   1.843   4.688   2.300
  127DMPC   C3514956   1.925   4.559   2.453
  127DMPC   H5X14957   2.026   4.536   2.410
  127DMPC   H5Y14958   1.891   4.470   2.511
  127DMPC   C3614959   1.941   4.680   2.546
  127DMPC   H6X14960   1.840   4.714   2.578
  127DMPC   H6Y14961   1.988   4.763   2.488
  127DMPC   C3714962   2.025   4.651   2.671
  127DMPC   H7X14963   2.118   4.599   2.641
  127DMPC   H7Y14964   1.967   4.583   2.737
  127DMPC   C3814965   2.064   4.779   2.747
  127DMPC   H8X14966   1.976   4.846   2.756
  127DMPC   H8Y14967   2.140   4.833   2.686
  127DMPC   C3914968   2.123   4.754   2.888
  127DMPC   H9X14969   2.171   4.848   2.923
  127DMPC   H9Y14970   2.203   4.677   2.879
  127DMPC  C31014971   2.020   4.710   2.994
  127DMPC  H10X14972   2.076   4.686   3.087
  127DMPC  H10Y14973   1.970   4.616   2.960
  127DMPC  C31114974   1.914   4.816   3.026
  127DMPC  H11X14975   1.856   4.839   2.935
  127DMPC  H11Y14976   1.966   4.909   3.058
  127DMPC  C31214977   1.815   4.773   3.136
  127DMPC  H12X14978   1.871   4.753   3.230
  127DMPC  H12Y14979   1.767   4.678   3.104
  127DMPC  C31314980   1.705   4.877   3.164
  127DMPC  H13X14981   1.631   4.832   3.234
  127DMPC  H13Y14982   1.652   4.898   3.068
  127DMPC  C31414983   1.754   5.009   3.224
  127DMPC  H14X14984   1.669   5.077   3.243
  127DMPC  H14Y14985   1.824   5.060   3.155
  127DMPC  H14Z14986   1.807   4.990   3.320
  128DMPC     N14987   5.245   5.897   0.663
  128DMPC   C1314988   5.239   5.829   0.531
  128DMPC  H13A14989   5.215   5.724   0.545
  128DMPC  H13B14990   5.336   5.836   0.482
  128DMPC  H13C14991   5.164   5.876   0.468
  128DMPC   C1414992   5.354   5.834   0.743
  128DMPC  H14A14993   5.330   5.730   0.759
  128DMPC  H14B14994   5.363   5.884   0.838
  128DMPC  H14C14995   5.447   5.841   0.689
  128DMPC   C1514996   5.278   6.040   0.640
  128DMPC  H15A14997   5.201   6.087   0.581
  128DMPC  H15B14998   5.373   6.048   0.588
  128DMPC  H15C14999   5.284   6.091   0.735
  128DMPC   C1215000   5.112   5.885   0.733
  128DMPC  H12A15001   5.079   5.782   0.722
  128DMPC  H12B15002   5.042   5.947   0.679
  128DMPC   C1115003   5.106   5.921   0.882
  128DMPC  H11A15004   5.150   5.835   0.938
  128DMPC  H11B15005   4.998   5.930   0.910
  128DMPC     P15006   5.195   6.075   1.060
  128DMPC   O1315007   5.252   6.212   1.072
  128DMPC   O1415008   5.274   5.965   1.120
  128DMPC   O1115009   5.048   6.075   1.117
  128DMPC   O1215010   5.174   6.043   0.908
  128DMPC    C115011   4.978   6.199   1.136
  128DMPC    HA15012   4.869   6.181   1.130
  128DMPC    HB15013   5.002   6.273   1.056
  128DMPC    C215014   5.007   6.263   1.275
  128DMPC    HS15015   5.118   6.275   1.284
  128DMPC   O2115016   4.950   6.179   1.377
  128DMPC   C2115017   5.038   6.105   1.441
  128DMPC   O2215018   5.158   6.104   1.421
  128DMPC   C2215019   4.969   6.024   1.549
  128DMPC   H2R15020   5.024   5.929   1.563
  128DMPC   H2S15021   4.865   6.000   1.518
  128DMPC    C315022   4.950   0.077   1.287
  128DMPC    HX15023   4.846   0.075   1.246
  128DMPC    HY15024   5.010   0.145   1.223
  128DMPC   O3115025   4.943   0.126   1.423
  128DMPC   C3115026   5.060   0.147   1.482
  128DMPC   O3215027   5.169   0.136   1.427
  128DMPC   C3215028   5.035   0.182   1.628
  128DMPC   H2X15029   4.948   0.121   1.665
  128DMPC   H2Y15030   5.008   0.289   1.636
  128DMPC   C2315031   4.970   6.105   1.679
  128DMPC   H3R15032   4.912   6.199   1.663
  128DMPC   H3S15033   5.074   6.133   1.706
  128DMPC   C2415034   4.907   6.029   1.796
  128DMPC   H4R15035   4.970   5.940   1.820
  128DMPC   H4S15036   4.807   5.992   1.764
  128DMPC   C2515037   4.889   6.114   1.922
  128DMPC   H5R15038   4.837   6.208   1.894
  128DMPC   H5S15039   4.989   6.141   1.963
  128DMPC   C2615040   4.807   6.041   2.029
  128DMPC   H6R15041   4.860   5.950   2.062
  128DMPC   H6S15042   4.711   6.009   1.982
  128DMPC   C2715043   4.774   6.129   2.150
  128DMPC   H7R15044   4.729   6.224   2.115
  128DMPC   H7S15045   4.867   6.153   2.205
  128DMPC   C2815046   4.674   6.060   2.245
  128DMPC   H8R15047   4.719   5.966   2.283
  128DMPC   H8S15048   4.583   6.034   2.187
  128DMPC   C2915049   4.633   6.148   2.364
  128DMPC   H9R15050   4.592   6.244   2.326
  128DMPC   H9S15051   4.723   6.171   2.425
  128DMPC  C21015052   4.527   6.079   2.451
  128DMPC  H10R15053   4.567   5.982   2.487
  128DMPC  H10S15054   4.437   6.059   2.389
  128DMPC  C21115055   4.486   6.162   2.573
  128DMPC  H11R15056   4.459   6.264   2.540
  128DMPC  H11S15057   4.573   6.171   2.643
  128DMPC  C21215058   4.366   6.102   2.648
  128DMPC  H12R15059   4.390   5.998   2.680
  128DMPC  H12S15060   4.280   6.097   2.577
  128DMPC  C21315061   4.325   6.185   2.770
  128DMPC  H13R15062   4.324   6.292   2.741
  128DMPC  H13S15063   4.401   6.172   2.850
  128DMPC  C21415064   4.186   6.149   2.825
  128DMPC  H14R15065   4.109   6.158   2.745
  128DMPC  H14S15066   4.159   6.218   2.907
  128DMPC  H14T15067   4.185   6.045   2.864
  128DMPC   C3315068   5.157   0.151   1.716
  128DMPC   H3X15069   5.242   0.215   1.687
  128DMPC   H3Y15070   5.186   0.044   1.702
  128DMPC   C3415071   5.126   0.172   1.865
  128DMPC   H4X15072   5.031   0.118   1.889
  128DMPC   H4Y15073   5.109   0.281   1.883
  128DMPC   C3515074   5.236   0.122   1.960
  128DMPC   H5X15075   5.331   0.175   1.935
  128DMPC   H5Y15076   5.252   0.013   1.942
  128DMPC   C3615077   5.207   0.144   2.109
  128DMPC   H6X15078   5.191   0.253   2.127
  128DMPC   H6Y15079   5.296   0.113   2.167
  128DMPC   C3715080   5.084   0.067   2.162
  128DMPC   H7X15081   5.101   6.288   2.147
  128DMPC   H7Y15082   4.995   0.096   2.102
  128DMPC   C3815083   5.051   0.093   2.310
  128DMPC   H8X15084   4.955   0.042   2.334
  128DMPC   H8Y15085   5.036   0.202   2.324
  128DMPC   C3915086   5.158   0.044   2.408
  128DMPC   H9X15087   5.255   0.092   2.384
  128DMPC   H9Y15088   5.171   6.265   2.396
  128DMPC  C31015089   5.123   0.074   2.555
  128DMPC  H10X15090   5.025   0.026   2.577
  128DMPC  H10Y15091   5.110   0.184   2.568
  128DMPC  C31115092   5.226   0.023   2.657
  128DMPC  H11X15093   5.243   6.245   2.640
  128DMPC  H11Y15094   5.183   0.036   2.759
  128DMPC  C31215095   5.361   0.097   2.652
  128DMPC  H12X15096   5.344   0.205   2.670
  128DMPC  H12Y15097   5.405   0.085   2.551
  128DMPC  C31315098   5.462   0.044   2.755
  128DMPC  H13X15099   5.478   6.266   2.737
  128DMPC  H13Y15100   5.419   0.056   2.857
  128DMPC  C31415101   5.598   0.115   2.750
  128DMPC  H14X15102   5.667   0.072   2.825
  128DMPC  H14Y15103   5.586   0.224   2.772
  128DMPC  H14Z15104   5.643   0.104   2.649
  129SOL    OH215105   3.879   5.207   1.240
  129SOL     H115106   3.837   5.131   1.280
  129SOL     H215107   3.937   5.169   1.173
  130SOL    OH215108   5.825   5.148   0.511
  130SOL     H115109   5.786   5.235   0.519
  130SOL     H215110   5.782   5.109   0.435
  131SOL    OH215111   4.996   2.313   5.170
  131SOL     H115112   4.957   2.254   5.106
  131SOL     H215113   4.926   2.329   5.234
  132SOL    OH215114   2.869   4.698   6.164
  132SOL     H115115   2.804   4.660   6.105
  132SOL     H215116   2.911   4.767   6.113
  133SOL    OH215117   5.160   3.091   0.434
  133SOL     H115118   5.095   3.072   0.367
  133SOL     H215119   5.226   3.145   0.390
  134SOL    OH215120   2.304   0.317   5.308
  134SOL     H115121   2.299   0.337   5.401
  134SOL     H215122   2.248   0.240   5.297
  135SOL    OH215123   2.084   3.789   0.110
  135SOL     H115124   2.061   3.697   0.116
  135SOL     H215125   2.010   3.830   0.065
  136SOL    OH215126   3.014   5.275   0.930
  136SOL     H115127   2.963   5.201   0.898
  136SOL     H215128   3.031   5.254   1.022
  137SOL    OH215129   0.395   4.272   0.089
  137SOL     H115130   0.313   4.317   0.108
  137SOL     H215131   0.461   4.341   0.088
  138SOL    OH215132   5.983   0.155   0.376
  138SOL     H115133   6.018   0.180   0.291
  138SOL     H215134   6.019   0.219   0.437
  139SOL    OH215135   0.922   5.445   5.472
  139SOL     H115136   0.981   5.369   5.477
  139SOL     H215137   0.854   5.426   5.536
  140SOL    OH215138   2.998   2.530   1.701
  140SOL     H115139   3.032   2.585   1.631
  140SOL     H215140   3.060   2.542   1.773
  141SOL    OH215141   0.288   6.243   5.416
  141SOL     H115142   0.248   6.218   5.332
  141SOL     H215143   0.229   6.309   5.452
  142SOL    OH215144   0.278   5.814   0.250
  142SOL     H115145   0.353   5.858   0.291
  142SOL     H215146   0.233   5.884   0.202
  143SOL    OH215147   1.602   4.123   1.539
  143SOL     H115148   1.554   4.199   1.506
  143SOL     H215149   1.545   4.086   1.606
  144SOL    OH215150   1.333   4.056   5.072
  144SOL     H115151   1.253   4.006   5.082
  144SOL     H215152   1.308   4.131   5.018
  145SOL    OH215153   5.386   5.724   0.228
  145SOL     H115154   5.363   5.650   0.285
  145SOL     H215155   5.301   5.759   0.199
  146SOL    OH215156   1.502   2.989   5.791
  146SOL     H115157   1.524   2.897   5.803
  146SOL     H215158   1.423   3.001   5.845
  147SOL    OH215159   0.308   5.884   5.746
  147SOL     H115160   0.340   5.962   5.701
  147SOL     H215161   0.386   5.832   5.764
  148SOL    OH215162   0.373   3.730   1.439
  148SOL     H115163   0.448   3.672   1.453
  148SOL     H215164   0.307   3.674   1.398
  149SOL    OH215165   3.098   4.324   5.954
  149SOL     H115166   3.053   4.397   5.911
  149SOL     H215167   3.188   4.329   5.923
  150SOL    OH215168   0.649   5.985   0.551
  150SOL     H115169   0.742   6.006   0.540
  150SOL     H215170   0.620   6.041   0.623
  151SOL    OH215171   3.465   1.416   1.130
  151SOL     H115172   3.501   1.389   1.215
  151SOL     H215173   3.457   1.511   1.136
  152SOL    OH215174   5.111   3.352   0.823
  152SOL     H115175   5.048   3.319   0.888
  152SOL     H215176   5.145   3.273   0.781
  153SOL    OH215177   2.657   3.170   6.319
  153SOL     H115178   2.679   3.262   6.335
  153SOL     H215179   2.706   3.122   0.028
  154SOL    OH215180   3.728   0.548   5.797
  154SOL     H115181   3.660   0.483   5.783
  154SOL     H215182   3.799   0.521   5.738
  155SOL    OH215183   0.294   1.395   5.120
  155SOL     H115184   0.241   1.333   5.070
  155SOL     H215185   0.234   1.427   5.188
  156SOL    OH215186   0.321   4.203   1.364
  156SOL     H115187   0.305   4.187   1.457
  156SOL     H215188   0.234   4.216   1.326
  157SOL    OH215189   4.212   3.157   0.809
  157SOL     H115190   4.228   3.147   0.903
  157SOL     H215191   4.170   3.243   0.800
  158SOL    OH215192   4.144   4.820   0.240
  158SOL     H115193   4.054   4.787   0.246
  158SOL     H215194   4.181   4.806   0.327
  159SOL    OH215195   4.598   1.225   5.078
  159SOL     H115196   4.647   1.157   5.124
  159SOL     H215197   4.598   1.300   5.137
  160SOL    OH215198   5.130   5.465   6.084
  160SOL     H115199   5.090   5.438   6.002
  160SOL     H215200   5.225   5.462   6.067
  161SOL    OH215201   5.294   3.001   5.094
  161SOL     H115202   5.327   3.091   5.086
  161SOL     H215203   5.278   2.973   5.004
  162SOL    OH215204   3.738   1.917   0.199
  162SOL     H115205   3.818   1.867   0.180
  162SOL     H215206   3.741   1.932   0.293
  163SOL    OH215207   4.662   2.408   1.229
  163SOL     H115208   4.748   2.447   1.213
  163SOL     H215209   4.645   2.424   1.322
  164SOL    OH215210   1.003   5.297   1.114
  164SOL     H115211   0.999   5.392   1.113
  164SOL     H215212   0.969   5.272   1.200
  165SOL    OH215213   4.502   1.266   0.865
  165SOL     H115214   4.524   1.176   0.888
  165SOL     H215215   4.455   1.300   0.941
  166SOL    OH215216   2.484   4.815   1.244
  166SOL     H115217   2.445   4.853   1.323
  166SOL     H215218   2.409   4.784   1.194
  167SOL    OH215219   4.957   1.402   4.802
  167SOL     H115220   4.917   1.356   4.729
  167SOL     H215221   4.936   1.349   4.879
  168SOL    OH215222   4.650   5.747   5.458
  168SOL     H115223   4.561   5.760   5.490
  168SOL     H215224   4.664   5.820   5.396
  169SOL    OH215225   3.576   2.858   0.062
  169SOL     H115226   3.594   2.951   0.071
  169SOL     H215227   3.544   2.831   0.148
  170SOL    OH215228   3.351   3.000   1.499
  170SOL     H115229   3.351   3.096   1.492
  170SOL     H215230   3.262   2.975   1.473
  171SOL    OH215231   4.824   2.270   4.722
  171SOL     H115232   4.824   2.363   4.746
  171SOL     H215233   4.732   2.250   4.705
  172SOL    OH215234   5.357   6.008   5.446
  172SOL     H115235   5.331   6.044   5.531
  172SOL     H215236   5.282   6.023   5.390
  173SOL    OH215237   5.489   1.746   0.545
  173SOL     H115238   5.546   1.682   0.501
  173SOL     H215239   5.419   1.762   0.482
  174SOL    OH215240   0.669   0.352   1.179
  174SOL     H115241   0.650   0.437   1.218
  174SOL     H215242   0.583   0.313   1.164
  175SOL    OH215243   5.270   3.350   6.001
  175SOL     H115244   5.270   3.406   5.923
  175SOL     H215245   5.195   3.380   6.053
  176SOL    OH215246   5.818   5.101   5.900
  176SOL     H115247   5.839   5.056   5.818
  176SOL     H215248   5.730   5.070   5.923
  177SOL    OH215249   3.325   3.026   6.316
  177SOL     H115250   3.339   3.081   0.036
  177SOL     H215251   3.269   2.955   6.347
  178SOL    OH215252   2.859   1.924   5.522
  178SOL     H115253   2.844   1.853   5.459
  178SOL     H215254   2.772   1.945   5.556
  179SOL    OH215255   2.721   5.143   5.111
  179SOL     H115256   2.709   5.238   5.104
  179SOL     H215257   2.742   5.115   5.021
  180SOL    OH215258   4.758   4.582   0.132
  180SOL     H115259   4.792   4.624   0.211
  180SOL     H215260   4.803   4.626   0.060
  181SOL    OH215261   3.724   2.151   0.044
  181SOL     H115262   3.778   2.135   6.324
  181SOL     H215263   3.736   2.074   0.098
  182SOL    OH215264   5.904   3.788   1.139
  182SOL     H115265   5.890   3.806   1.046
  182SOL     H215266   5.985   3.834   1.161
  183SOL    OH215267   2.146   3.651   0.575
  183SOL     H115268   2.178   3.715   0.511
  183SOL     H215269   2.146   3.699   0.658
  184SOL    OH215270   0.139   1.075   0.803
  184SOL     H115271   0.152   1.115   0.889
  184SOL     H215272   0.072   1.129   0.761
  185SOL    OH215273   1.184   5.812   6.324
  185SOL     H115274   1.205   5.821   6.231
  185SOL     H215275   1.099   5.769   6.326
  186SOL    OH215276   6.270   0.772   4.346
  186SOL     H115277   6.262   0.860   4.309
  186SOL     H215278   6.181   0.737   4.345
  187SOL    OH215279   2.721   5.025   0.139
  187SOL     H115280   2.753   5.083   0.069
  187SOL     H215281   2.759   4.939   0.118
  188SOL    OH215282   4.154   1.784   5.609
  188SOL     H115283   4.213   1.789   5.534
  188SOL     H215284   4.182   1.856   5.665
  189SOL    OH215285   3.747   4.006   5.609
  189SOL     H115286   3.816   3.940   5.612
  189SOL     H215287   3.770   4.070   5.677
  190SOL    OH215288   2.359   4.944   1.449
  190SOL     H115289   2.270   4.910   1.462
  190SOL     H215290   2.369   5.011   1.517
  191SOL    OH215291   5.492   1.672   6.294
  191SOL     H115292   5.405   1.695   6.326
  191SOL     H215293   5.476   1.619   6.216
  192SOL    OH215294   4.396   2.787   1.433
  192SOL     H115295   4.453   2.730   1.484
  192SOL     H215296   4.344   2.834   1.499
  193SOL    OH215297   1.861   1.980   0.175
  193SOL     H115298   1.880   1.928   0.097
  193SOL     H215299   1.804   1.925   0.228
  194SOL    OH215300   0.803   0.300   1.564
  194SOL     H115301   0.882   0.334   1.607
  194SOL     H215302   0.837   0.243   1.495
  195SOL    OH215303   1.650   3.051   4.741
  195SOL     H115304   1.578   3.112   4.752
  195SOL     H215305   1.618   2.988   4.676
  196SOL    OH215306   0.498   5.488   5.916
  196SOL     H115307   0.485   5.469   5.823
  196SOL     H215308   0.521   5.403   5.954
  197SOL    OH215309   0.388   0.757   1.356
  197SOL     H115310   0.406   0.822   1.425
  197SOL     H215311   0.347   0.684   1.402
  198SOL    OH215312   3.136   1.870   5.583
  198SOL     H115313   3.044   1.886   5.560
  198SOL     H215314   3.162   1.795   5.530
  199SOL    OH215315   0.087   1.286   4.661
  199SOL     H115316   0.109   1.373   4.693
  199SOL     H215317   0.139   1.227   4.715
  200SOL    OH215318   4.704   6.288   6.262
  200SOL     H115319   4.720   0.001   6.346
  200SOL     H215320   4.627   6.232   6.277
  201SOL    OH215321   5.735   2.498   1.176
  201SOL     H115322   5.721   2.592   1.190
  201SOL     H215323   5.813   2.493   1.121
  202SOL    OH215324   2.533   3.449   5.211
  202SOL     H115325   2.449   3.437   5.168
  202SOL     H215326   2.594   3.397   5.159
  203SOL    OH215327   4.504   1.048   5.405
  203SOL     H115328   4.512   0.966   5.357
  203SOL     H215329   4.580   1.099   5.379
  204SOL    OH215330   4.494   3.756   4.912
  204SOL     H115331   4.537   3.707   4.843
  204SOL     H215332   4.556   3.755   4.985
  205SOL    OH215333   2.144   2.877   5.891
  205SOL     H115334   2.059   2.882   5.935
  205SOL     H215335   2.206   2.862   5.963
  206SOL    OH215336   2.787   5.322   1.211
  206SOL     H115337   2.883   5.318   1.205
  206SOL     H215338   2.767   5.273   1.291
  207SOL    OH215339   3.373   5.294   0.482
  207SOL     H115340   3.402   5.252   0.563
  207SOL     H215341   3.325   5.225   0.436
  208SOL    OH215342   1.884   6.289   0.793
  208SOL     H115343   1.869   6.194   0.792
  208SOL     H215344   1.840   6.319   0.872
  209SOL    OH215345   2.461   4.860   0.752
  209SOL     H115346   2.400   4.822   0.688
  209SOL     H215347   2.405   4.912   0.810
  210SOL    OH215348   2.686   1.343   0.664
  210SOL     H115349   2.602   1.361   0.706
  210SOL     H215350   2.671   1.360   0.571
  211SOL    OH215351   5.185   1.720   5.269
  211SOL     H115352   5.152   1.774   5.198
  211SOL     H215353   5.108   1.673   5.301
  212SOL    OH215354   6.055   3.199   0.383
  212SOL     H115355   5.975   3.231   0.426
  212SOL     H215356   6.121   3.266   0.402
  213SOL    OH215357   0.025   4.758   1.192
  213SOL     H115358   0.091   4.796   1.250
  213SOL     H215359   0.030   4.810   1.112
  214SOL    OH215360   2.423   2.180   5.794
  214SOL     H115361   2.517   2.195   5.800
  214SOL     H215362   2.406   2.171   5.700
  215SOL    OH215363   3.668   4.397   5.995
  215SOL     H115364   3.693   4.374   6.085
  215SOL     H215365   3.599   4.463   6.005
  216SOL    OH215366   1.061   3.711   5.769
  216SOL     H115367   1.144   3.755   5.756
  216SOL     H215368   1.026   3.699   5.681
  217SOL    OH215369   2.137   1.519   0.128
  217SOL     H115370   2.084   1.462   0.074
  217SOL     H215371   2.187   1.572   0.065
  218SOL    OH215372   4.102   0.908   6.140
  218SOL     H115373   4.187   0.913   6.185
  218SOL     H215374   4.039   0.890   6.211
  219SOL    OH215375   0.204   2.502   0.074
  219SOL     H115376   0.175   2.526   0.161
  219SOL     H215377   0.165   2.568   0.016
  220SOL    OH215378   4.818   5.190   6.181
  220SOL     H115379   4.728   5.211   6.155
  220SOL     H215380   4.856   5.274   6.208
  221SOL    OH215381   1.498   2.752   6.093
  221SOL     H115382   1.585   2.740   6.132
  221SOL     H215383   1.514   2.750   5.998
  222SOL    OH215384   0.706   2.003   0.413
  222SOL     H115385   0.640   2.012   0.483
  222SOL     H215386   0.670   2.054   0.340
  223SOL    OH215387   3.533   0.006   5.794
  223SOL     H115388   3.567   6.250   5.818
  223SOL     H215389   3.521   0.051   5.877
  224SOL    OH215390   0.768   2.670   0.833
  224SOL     H115391   0.851   2.708   0.803
  224SOL     H215392   0.739   2.729   0.903
  225SOL    OH215393   5.075   2.231   4.616
  225SOL     H115394   4.984   2.245   4.644
  225SOL     H215395   5.091   2.138   4.633
  226SOL    OH215396   2.585   0.608   5.324
  226SOL     H115397   2.652   0.650   5.270
  226SOL     H215398   2.632   0.538   5.370
  227SOL    OH215399   0.539   5.966   5.978
  227SOL     H115400   0.568   6.024   5.908
  227SOL     H215401   0.550   6.018   6.058
  228SOL    OH215402   1.162   0.435   5.134
  228SOL     H115403   1.077   0.418   5.174
  228SOL     H215404   1.149   0.417   5.041
  229SOL    OH215405   1.445   5.313   1.433
  229SOL     H115406   1.461   5.301   1.527
  229SOL     H215407   1.362   5.362   1.430
  230SOL    OH215408   1.502   0.460   6.027
  230SOL     H115409   1.529   0.542   6.069
  230SOL     H215410   1.559   0.393   6.067
  231SOL    OH215411   2.057   3.409   4.913
  231SOL     H115412   2.028   3.367   4.832
  231SOL     H215413   2.082   3.498   4.887
  232SOL    OH215414   0.936   0.201   5.976
  232SOL     H115415   0.897   0.211   6.063
  232SOL     H215416   0.970   0.112   5.975
  233SOL    OH215417   0.898   2.197   0.672
  233SOL     H115418   0.905   2.284   0.631
  233SOL     H215419   0.806   2.190   0.698
  234SOL    OH215420   1.013   3.616   1.522
  234SOL     H115421   0.946   3.653   1.578
  234SOL     H215422   1.055   3.692   1.481
  235SOL    OH215423   4.585   0.020   6.019
  235SOL     H115424   4.626   0.003   6.103
  235SOL     H215425   4.652   6.328   5.954
  236SOL    OH215426   1.102   2.856   0.495
  236SOL     H115427   1.149   2.802   0.559
  236SOL     H215428   1.132   2.945   0.513
  237SOL    OH215429   4.599   3.011   0.903
  237SOL     H115430   4.595   3.085   0.964
  237SOL     H215431   4.598   2.933   0.960
  238SOL    OH215432   2.852   5.433   1.893
  238SOL     H115433   2.925   5.379   1.923
  238SOL     H215434   2.891   5.517   1.871
  239SOL    OH215435   0.172   2.359   0.665
  239SOL     H115436   0.262   2.389   0.679
  239SOL     H215437   0.122   2.440   0.652
  240SOL    OH215438   4.055   2.038   1.317
  240SOL     H115439   4.140   2.080   1.305
  240SOL     H215440   4.007   2.058   1.237
  241SOL    OH215441   1.884   4.476   0.697
  241SOL     H115442   1.894   4.438   0.785
  241SOL     H215443   1.957   4.441   0.647
  242SOL    OH215444   2.517   5.504   0.878
  242SOL     H115445   2.551   5.573   0.934
  242SOL     H215446   2.552   5.423   0.914
  243SOL    OH215447   2.178   0.476   6.227
  243SOL     H115448   2.216   0.562   6.243
  243SOL     H215449   2.181   0.431   6.311
  244SOL    OH215450   0.179   1.595   0.793
  244SOL     H115451   0.115   1.600   0.864
  244SOL     H215452   0.145   1.653   0.726
  245SOL    OH215453   2.199   5.385   0.532
  245SOL     H115454   2.121   5.330   0.538
  245SOL     H215455   2.267   5.336   0.577
  246SOL    OH215456   4.387   2.134   0.699
  246SOL     H115457   4.454   2.066   0.692
  246SOL     H215458   4.363   2.134   0.792
  247SOL    OH215459   2.161   0.918   6.128
  247SOL     H115460   2.186   1.001   6.089
  247SOL     H215461   2.086   0.888   6.075
  248SOL    OH215462   5.979   0.415   0.021
  248SOL     H115463   5.929   0.488   0.057
  248SOL     H215464   5.919   0.340   0.024
  249SOL    OH215465   5.571   1.509   0.148
  249SOL     H115466   5.485   1.488   0.185
  249SOL     H215467   5.553   1.577   0.082
  250SOL    OH215468   0.923   3.405   0.254
  250SOL     H115469   0.959   3.355   0.180
  250SOL     H215470   0.912   3.340   0.323
  251SOL    OH215471   1.327   1.434   0.047
  251SOL     H115472   1.348   1.526   0.058
  251SOL     H215473   1.405   1.396   0.007
  252SOL    OH215474   2.925   4.196   6.121
  252SOL     H115475   2.984   4.226   6.051
  252SOL     H215476   2.895   4.276   6.163
  253SOL    OH215477   0.984   1.187   5.508
  253SOL     H115478   1.063   1.205   5.558
  253SOL     H215479   0.943   1.273   5.495
  254SOL    OH215480   1.564   2.721   5.830
  254SOL     H115481   1.649   2.683   5.808
  254SOL     H215482   1.501   2.653   5.808
  255SOL    OH215483   4.244   3.430   6.062
  255SOL     H115484   4.316   3.396   6.115
  255SOL     H215485   4.167   3.419   6.118
  256SOL    OH215486   2.715   5.420   5.077
  256SOL     H115487   2.772   5.491   5.047
  256SOL     H215488   2.627   5.455   5.069
  257SOL    OH215489   6.133   0.331   5.460
  257SOL     H115490   6.211   0.310   5.408
  257SOL     H215491   6.063   0.338   5.396
  258SOL    OH215492   0.402   0.519   6.006
  258SOL     H115493   0.369   0.436   6.039
  258SOL     H215494   0.431   0.499   5.917
  259SOL    OH215495   4.931   5.056   0.239
  259SOL     H115496   4.878   5.018   0.169
  259SOL     H215497   4.946   5.146   0.211
  260SOL    OH215498   6.095   2.221   4.610
  260SOL     H115499   6.046   2.145   4.640
  260SOL     H215500   6.142   2.190   4.532
  261SOL    OH215501   5.490   0.273   6.314
  261SOL     H115502   5.511   0.361   6.281
  261SOL     H215503   5.484   0.284   0.051
  262SOL    OH215504   5.721   0.651   5.881
  262SOL     H115505   5.787   0.710   5.917
  262SOL     H215506   5.720   0.577   5.942
  263SOL    OH215507   2.350   1.331   0.096
  263SOL     H115508   2.435   1.369   0.075
  263SOL     H215509   2.296   1.407   0.119
  264SOL    OH215510   2.169   0.131   0.560
  264SOL     H115511   2.220   0.059   0.523
  264SOL     H215512   2.220   0.209   0.542
  265SOL    OH215513   3.406   4.974   0.934
  265SOL     H115514   3.404   4.883   0.965
  265SOL     H215515   3.499   4.999   0.939
  266SOL    OH215516   5.534   5.307   0.721
  266SOL     H115517   5.611   5.337   0.672
  266SOL     H215518   5.566   5.233   0.772
  267SOL    OH215519   1.701   4.572   6.256
  267SOL     H115520   1.710   4.477   6.246
  267SOL     H215521   1.789   4.606   6.240
  268SOL    OH215522   5.809   1.274   5.569
  268SOL     H115523   5.757   1.334   5.622
  268SOL     H215524   5.744   1.220   5.523
  269SOL    OH215525   5.282   4.468   5.781
  269SOL     H115526   5.199   4.516   5.786
  269SOL     H215527   5.256   4.376   5.776
  270SOL    OH215528   0.033   1.740   0.597
  270SOL     H115529   0.049   1.814   0.539
  270SOL     H215530   6.290   1.671   0.540
  271SOL    OH215531   4.823   2.973   5.521
  271SOL     H115532   4.840   2.969   5.426
  271SOL     H215533   4.905   2.943   5.560
  272SOL    OH215534   4.449   3.323   6.203
  272SOL     H115535   4.488   3.260   6.142
  272SOL     H215536   4.442   3.276   6.286
  273SOL    OH215537   5.995   0.066   5.284
  273SOL     H115538   6.078   0.037   5.322
  273SOL     H215539   5.928   0.034   5.343
  274SOL    OH215540   4.979   2.248   0.083
  274SOL     H115541   4.956   2.254   0.175
  274SOL     H215542   5.052   2.310   0.072
  275SOL    OH215543   6.056   2.252   0.114
  275SOL     H115544   6.112   2.299   0.176
  275SOL     H215545   5.969   2.290   0.128
  276SOL    OH215546   5.705   1.394   4.747
  276SOL     H115547   5.687   1.434   4.662
  276SOL     H215548   5.754   1.314   4.726
  277SOL    OH215549   2.964   3.979   5.725
  277SOL     H115550   2.887   3.945   5.771
  277SOL     H215551   2.936   4.064   5.692
  278SOL    OH215552   5.232   0.481   4.431
  278SOL     H115553   5.159   0.541   4.452
  278SOL     H215554   5.214   0.403   4.483
  279SOL    OH215555   3.043   5.023   5.276
  279SOL     H115556   3.043   5.086   5.203
  279SOL     H215557   2.950   5.010   5.297
  280SOL    OH215558   0.272   3.079   5.003
  280SOL     H115559   0.279   3.003   4.946
  280SOL     H215560   0.179   3.088   5.020
  281SOL    OH215561   5.177   5.450   4.888
  281SOL     H115562   5.150   5.367   4.927
  281SOL     H215563   5.273   5.451   4.897
  282SOL    OH215564   3.260   6.302   6.152
  282SOL     H115565   3.218   6.264   6.229
  282SOL     H215566   3.188   0.007   6.100
  283SOL    OH215567   0.832   2.617   6.353
  283SOL     H115568   0.910   2.563   6.346
  283SOL     H215569   0.759   2.554   6.349
  284SOL    OH215570   1.397   0.384   5.264
  284SOL     H115571   1.383   0.378   5.359
  284SOL     H215572   1.312   0.409   5.229
  285SOL    OH215573   5.385   5.302   1.507
  285SOL     H115574   5.437   5.222   1.500
  285SOL     H215575   5.415   5.342   1.589
  286SOL    OH215576   2.574   4.158   1.731
  286SOL     H115577   2.669   4.169   1.730
  286SOL     H215578   2.541   4.218   1.664
  287SOL    OH215579   0.592   6.133   0.786
  287SOL     H115580   0.621   6.207   0.839
  287SOL     H215581   0.633   6.057   0.826
  288SOL    OH215582   6.267   6.320   5.313
  288SOL     H115583   0.038   6.276   5.254
  288SOL     H215584   6.285   0.083   5.300
  289SOL    OH215585   0.710   4.482   5.632
  289SOL     H115586   0.617   4.505   5.636
  289SOL     H215587   0.717   4.400   5.681
  290SOL    OH215588   1.061   0.679   4.844
  290SOL     H115589   1.067   0.705   4.936
  290SOL     H215590   0.976   0.712   4.815
  291SOL    OH215591   2.708   1.302   1.301
  291SOL     H115592   2.718   1.209   1.318
  291SOL     H215593   2.779   1.324   1.241
  292SOL    OH215594   2.662   2.557   5.480
  292SOL     H115595   2.688   2.631   5.535
  292SOL     H215596   2.702   2.481   5.523
  293SOL    OH215597   6.267   3.450   5.313
  293SOL     H115598   6.224   3.405   5.240
  293SOL     H215599   6.277   3.540   5.282
  294SOL    OH215600   5.279   3.389   4.842
  294SOL     H115601   5.238   3.351   4.764
  294SOL     H215602   5.212   3.446   4.879
  295SOL    OH215603   3.506   2.243   5.633
  295SOL     H115604   3.461   2.171   5.588
  295SOL     H215605   3.462   2.249   5.718
  296SOL    OH215606   3.920   1.843   5.277
  296SOL     H115607   3.943   1.899   5.351
  296SOL     H215608   3.843   1.795   5.306
  297SOL    OH215609   3.692   4.803   1.627
  297SOL     H115610   3.723   4.893   1.627
  297SOL     H215611   3.622   4.801   1.693
  298SOL    OH215612   3.143   2.151   4.625
  298SOL     H115613   3.185   2.174   4.708
  298SOL     H215614   3.189   2.071   4.597
  299SOL    OH215615   3.470   3.496   6.071
  299SOL     H115616   3.487   3.531   6.158
  299SOL     H215617   3.523   3.417   6.065
  300SOL    OH215618   0.448   2.193   5.227
  300SOL     H115619   0.497   2.188   5.309
  300SOL     H215620   0.363   2.154   5.248
  301SOL    OH215621   1.644   5.250   0.018
  301SOL     H115622   1.608   5.331   0.056
  301SOL     H215623   1.647   5.189   0.091
  302SOL    OH215624   0.460   3.063   6.115
  302SOL     H115625   0.511   2.998   6.066
  302SOL     H215626   0.445   3.022   6.200
  303SOL    OH215627   2.220   5.115   1.966
  303SOL     H115628   2.216   5.052   1.895
  303SOL     H215629   2.307   5.155   1.958
  304SOL    OH215630   4.325   3.433   1.209
  304SOL     H115631   4.287   3.360   1.257
  304SOL     H215632   4.352   3.495   1.276
  305SOL    OH215633   1.841   5.737   0.287
  305SOL     H115634   1.903   5.684   0.337
  305SOL     H215635   1.828   5.688   0.206
  306SOL    OH215636   1.446   1.205   0.831
  306SOL     H115637   1.436   1.297   0.857
  306SOL     H215638   1.521   1.204   0.772
  307SOL    OH215639   4.806   6.044   6.167
  307SOL     H115640   4.788   6.132   6.200
  307SOL     H215641   4.884   6.054   6.113
  308SOL    OH215642   0.469   0.824   5.792
  308SOL     H115643   0.545   0.768   5.810
  308SOL     H215644   0.502   0.891   5.733
  309SOL    OH215645   4.326   0.766   4.228
  309SOL     H115646   4.385   0.829   4.186
  309SOL     H215647   4.286   0.814   4.300
  310SOL    OH215648   2.131   4.775   5.660
  310SOL     H115649   2.145   4.769   5.566
  310SOL     H215650   2.072   4.702   5.680
  311SOL    OH215651   0.357   2.810   0.652
  311SOL     H115652   0.433   2.753   0.635
  311SOL     H215653   0.379   2.893   0.609
  312SOL    OH215654   5.344   0.178   4.917
  312SOL     H115655   5.410   0.111   4.898
  312SOL     H215656   5.271   0.157   4.859
  313SOL    OH215657   3.363   3.573   0.358
  313SOL     H115658   3.450   3.533   0.366
  313SOL     H215659   3.372   3.635   0.286
  314SOL    OH215660   2.595   3.928   6.333
  314SOL     H115661   2.603   4.000   6.270
  314SOL     H215662   2.502   3.927   6.357
  315SOL    OH215663   0.391   3.289   5.307
  315SOL     H115664   0.421   3.360   5.251
  315SOL     H215665   0.329   3.330   5.367
  316SOL    OH215666   1.448   2.362   0.009
  316SOL     H115667   1.410   2.386   6.282
  316SOL     H215668   1.510   2.292   6.346
  317SOL    OH215669   0.157   1.885   5.469
  317SOL     H115670   0.170   1.823   5.540
  317SOL     H215671   0.062   1.895   5.462
  318SOL    OH215672   2.059   5.193   0.133
  318SOL     H115673   2.138   5.179   0.185
  318SOL     H215674   2.029   5.105   0.110
  319SOL    OH215675   1.996   5.532   0.390
  319SOL     H115676   2.072   5.503   0.441
  319SOL     H215677   2.017   5.508   0.300
  320SOL    OH215678   3.439   0.317   1.335
  320SOL     H115679   3.506   0.259   1.301
  320SOL     H215680   3.409   0.276   1.416
  321SOL    OH215681   0.901   1.057   0.458
  321SOL     H115682   0.836   1.034   0.392
  321SOL     H215683   0.984   1.064   0.410
  322SOL    OH215684   1.800   5.872   0.551
  322SOL     H115685   1.818   5.849   0.459
  322SOL     H215686   1.708   5.898   0.552
  323SOL    OH215687   1.887   1.833   5.818
  323SOL     H115688   1.869   1.815   5.726
  323SOL     H215689   1.811   1.884   5.848
  324SOL    OH215690   1.484   5.168   5.272
  324SOL     H115691   1.517   5.078   5.275
  324SOL     H215692   1.536   5.210   5.204
  325SOL    OH215693   1.910   4.587   1.123
  325SOL     H115694   1.847   4.648   1.084
  325SOL     H215695   1.960   4.641   1.185
  326SOL    OH215696   1.680   0.854   0.317
  326SOL     H115697   1.736   0.884   0.388
  326SOL     H215698   1.640   0.933   0.282
  327SOL    OH215699   0.915   2.435   6.047
  327SOL     H115700   0.919   2.360   6.105
  327SOL     H215701   1.006   2.459   6.032
  328SOL    OH215702   1.408   6.150   1.277
  328SOL     H115703   1.444   6.138   1.365
  328SOL     H215704   1.484   6.171   1.223
  329SOL    OH215705   1.264   5.599   0.633
  329SOL     H115706   1.290   5.550   0.555
  329SOL     H215707   1.250   5.533   0.700
  330SOL    OH215708   0.185   0.841   0.165
  330SOL     H115709   0.160   0.766   0.218
  330SOL     H215710   0.131   0.835   0.086
  331SOL    OH215711   1.243   0.517   0.597
  331SOL     H115712   1.320   0.491   0.547
  331SOL     H215713   1.270   0.595   0.646
  332SOL    OH215714   5.437   1.460   5.505
  332SOL     H115715   5.448   1.437   5.413
  332SOL     H215716   5.408   1.552   5.504
  333SOL    OH215717   2.198   1.539   5.086
  333SOL     H115718   2.138   1.521   5.014
  333SOL     H215719   2.182   1.631   5.109
  334SOL    OH215720   0.620   2.444   0.003
  334SOL     H115721   0.566   2.405   0.072
  334SOL     H215722   0.618   2.381   6.290
  335SOL    OH215723   2.725   4.772   1.385
  335SOL     H115724   2.647   4.786   1.331
  335SOL     H215725   2.759   4.688   1.356
  336SOL    OH215726   3.325   2.735   0.864
  336SOL     H115727   3.330   2.709   0.772
  336SOL     H215728   3.282   2.661   0.907
  337SOL    OH215729   1.459   1.148   5.264
  337SOL     H115730   1.524   1.213   5.238
  337SOL     H215731   1.494   1.065   5.232
  338SOL    OH215732   4.976   5.262   0.608
  338SOL     H115733   5.026   5.279   0.688
  338SOL     H215734   4.974   5.167   0.600
  339SOL    OH215735   1.906   1.811   6.307
  339SOL     H115736   1.867   1.728   6.334
  339SOL     H215737   1.976   1.786   6.247
  340SOL    OH215738   3.960   3.199   1.074
  340SOL     H115739   3.925   3.156   0.996
  340SOL     H215740   4.053   3.174   1.075
  341SOL    OH215741   5.557   5.407   5.309
  341SOL     H115742   5.549   5.502   5.300
  341SOL     H215743   5.519   5.372   5.228
  342SOL    OH215744   4.060   4.764   0.677
  342SOL     H115745   4.123   4.753   0.606
  342SOL     H215746   3.982   4.717   0.647
  343SOL    OH215747   5.739   0.546   5.627
  343SOL     H115748   5.725   0.583   5.714
  343SOL     H215749   5.835   0.537   5.620
  344SOL    OH215750   3.936   3.631   1.054
  344SOL     H115751   4.023   3.607   1.022
  344SOL     H215752   3.915   3.564   1.119
  345SOL    OH215753   6.028   6.292   5.036
  345SOL     H115754   6.016   6.325   5.125
  345SOL     H215755   6.069   6.206   5.047
  346SOL    OH215756   4.458   2.833   5.376
  346SOL     H115757   4.488   2.761   5.432
  346SOL     H215758   4.447   2.793   5.290
  347SOL    OH215759   0.994   0.729   0.286
  347SOL     H115760   1.067   0.755   0.229
  347SOL     H215761   0.919   0.722   0.227
  348SOL    OH215762   0.899   0.808   6.088
  348SOL     H115763   0.848   0.886   6.067
  348SOL     H215764   0.860   0.775   6.169
  349SOL    OH215765   2.469   1.703   5.697
  349SOL     H115766   2.516   1.783   5.673
  349SOL     H215767   2.400   1.695   5.632
  350SOL    OH215768   1.051   4.173   1.491
  350SOL     H115769   1.120   4.109   1.510
  350SOL     H215770   1.056   4.236   1.563
  351SOL    OH215771   3.904   3.262   0.645
  351SOL     H115772   3.964   3.304   0.706
  351SOL     H215773   3.882   3.330   0.582
  352SOL    OH215774   2.210   5.912   4.781
  352SOL     H115775   2.232   5.905   4.688
  352SOL     H215776   2.158   5.991   4.787
  353SOL    OH215777   3.108   5.947   1.511
  353SOL     H115778   3.027   5.974   1.553
  353SOL     H215779   3.178   5.981   1.567
  354SOL    OH215780   2.138   1.687   1.291
  354SOL     H115781   2.062   1.694   1.233
  354SOL     H215782   2.108   1.631   1.363
  355SOL    OH215783   5.605   5.771   0.077
  355SOL     H115784   5.649   5.687   0.093
  355SOL     H215785   5.523   5.765   0.127
  356SOL    OH215786   4.219   3.165   5.652
  356SOL     H115787   4.218   3.082   5.604
  356SOL     H215788   4.147   3.215   5.613
  357SOL    OH215789   1.427   3.801   5.170
  357SOL     H115790   1.410   3.888   5.135
  357SOL     H215791   1.388   3.741   5.105
  358SOL    OH215792   6.142   4.939   6.225
  358SOL     H115793   6.174   4.996   6.295
  358SOL     H215794   6.130   4.854   6.266
  359SOL    OH215795   3.379   1.143   5.090
  359SOL     H115796   3.322   1.075   5.125
  359SOL     H215797   3.376   1.213   5.156
  360SOL    OH215798   1.676   1.949   0.762
  360SOL     H115799   1.610   1.996   0.813
  360SOL     H215800   1.646   1.858   0.764
  361SOL    OH215801   5.457   1.150   4.212
  361SOL     H115802   5.517   1.082   4.245
  361SOL     H215803   5.382   1.101   4.179
  362SOL    OH215804   5.491   2.348   5.358
  362SOL     H115805   5.403   2.358   5.323
  362SOL     H215806   5.534   2.287   5.298
  363SOL    OH215807   0.454   0.574   5.134
  363SOL     H115808   0.417   0.491   5.103
  363SOL     H215809   0.547   0.555   5.145
  364SOL    OH215810   2.908   4.426   5.252
  364SOL     H115811   2.997   4.394   5.263
  364SOL     H215812   2.881   4.392   5.166
  365SOL    OH215813   5.348   4.065   0.376
  365SOL     H115814   5.293   4.132   0.416
  365SOL     H215815   5.423   4.057   0.435
  366SOL    OH215816   2.101   1.727   6.126
  366SOL     H115817   2.140   1.702   6.042
  366SOL     H215818   2.160   1.688   6.192
  367SOL    OH215819   1.806   0.018   5.368
  367SOL     H115820   1.862   0.049   5.439
  367SOL     H215821   1.841   0.060   5.289
  368SOL    OH215822   4.718   3.072   5.081
  368SOL     H115823   4.641   3.064   5.024
  368SOL     H215824   4.789   3.033   5.031
  369SOL    OH215825   2.357   4.871   4.682
  369SOL     H115826   2.287   4.806   4.690
  369SOL     H215827   2.418   4.848   4.752
  370SOL    OH215828   1.186   1.456   4.817
  370SOL     H115829   1.107   1.404   4.806
  370SOL     H215830   1.238   1.407   4.881
  371SOL    OH215831   3.195   4.002   5.882
  371SOL     H115832   3.253   4.045   5.819
  371SOL     H215833   3.110   3.998   5.837
  372SOL    OH215834   3.638   1.698   5.213
  372SOL     H115835   3.641   1.789   5.184
  372SOL     H215836   3.634   1.647   5.132
  373SOL    OH215837   5.484   5.050   5.197
  373SOL     H115838   5.481   5.135   5.152
  373SOL     H215839   5.553   5.001   5.152
  374SOL    OH215840   3.240   1.350   5.765
  374SOL     H115841   3.283   1.433   5.786
  374SOL     H215842   3.272   1.289   5.832
  375SOL    OH215843   0.628   1.084   6.279
  375SOL     H115844   0.582   1.144   6.338
  375SOL     H215845   0.696   1.044   6.333
  376SOL    OH215846   4.356   3.773   1.041
  376SOL     H115847   4.396   3.787   1.127
  376SOL     H215848   4.273   3.821   1.044
  377SOL    OH215849   1.498   2.870   0.919
  377SOL     H115850   1.531   2.927   0.849
  377SOL     H215851   1.491   2.784   0.878
  378SOL    OH215852   4.508   0.615   6.153
  378SOL     H115853   4.434   0.568   6.191
  378SOL     H215854   4.583   0.557   6.165
  379SOL    OH215855   2.354   4.713   5.810
  379SOL     H115856   2.340   4.717   5.905
  379SOL     H215857   2.270   4.737   5.772
  380SOL    OH215858   1.180   0.605   1.775
  380SOL     H115859   1.230   0.676   1.734
  380SOL     H215860   1.139   0.646   1.851
  381SOL    OH215861   4.959   0.378   6.049
  381SOL     H115862   4.915   0.292   6.046
  381SOL     H215863   5.046   0.359   6.082
  382SOL    OH215864   5.585   4.479   4.835
  382SOL     H115865   5.596   4.438   4.749
  382SOL     H215866   5.675   4.500   4.863
  383SOL    OH215867   0.875   4.453   4.352
  383SOL     H115868   0.952   4.510   4.360
  383SOL     H215869   0.871   4.406   4.435
  384SOL    OH215870   4.384   2.374   5.995
  384SOL     H115871   4.386   2.286   6.032
  384SOL     H215872   4.330   2.425   6.055
  385SOL    OH215873   4.180   2.482   5.395
  385SOL     H115874   4.111   2.416   5.381
  385SOL     H215875   4.261   2.439   5.367
  386SOL    OH215876   0.789   2.332   0.318
  386SOL     H115877   0.874   2.318   0.276
  386SOL     H215878   0.733   2.263   0.282
  387SOL    OH215879   2.263   3.096   5.105
  387SOL     H115880   2.235   3.033   5.038
  387SOL     H215881   2.343   3.058   5.141
  388SOL    OH215882   4.690   1.897   6.341
  388SOL     H115883   4.782   1.922   6.331
  388SOL     H215884   4.641   1.976   6.317
  389SOL    OH215885   0.332   1.063   0.475
  389SOL     H115886   0.374   0.977   0.477
  389SOL     H215887   0.352   1.102   0.560
  390SOL    OH215888   1.580   1.178   5.556
  390SOL     H115889   1.580   1.259   5.505
  390SOL     H215890   1.619   1.113   5.498
  391SOL    OH215891   1.761   3.073   5.138
  391SOL     H115892   1.666   3.089   5.134
  391SOL     H215893   1.800   3.160   5.124
  392SOL    OH215894   0.161   4.387   0.163
  392SOL     H115895   0.121   4.404   0.078
  392SOL     H215896   0.113   4.444   0.224
  393SOL    OH215897   3.818   0.452   1.167
  393SOL     H115898   3.835   0.373   1.219
  393SOL     H215899   3.746   0.428   1.109
  394SOL    OH215900   3.043   5.215   5.079
  394SOL     H115901   3.034   5.169   4.996
  394SOL     H215902   3.066   5.305   5.055
  395SOL    OH215903   6.139   6.143   0.000
  395SOL     H115904   6.100   6.216   6.308
  395SOL     H215905   6.199   6.101   6.296
  396SOL    OH215906   5.871   5.451   5.513
  396SOL     H115907   5.809   5.377   5.512
  396SOL     H215908   5.815   5.528   5.521
  397SOL    OH215909   5.198   1.983   6.217
  397SOL     H115910   5.256   2.054   6.245
  397SOL     H215911   5.257   1.910   6.199
  398SOL    OH215912   4.283   6.233   5.512
  398SOL     H115913   4.328   6.163   5.465
  398SOL     H215914   4.327   6.313   5.483
  399SOL    OH215915   2.220   0.279   5.825
  399SOL     H115916   2.134   0.281   5.868
  399SOL     H215917   2.275   0.333   5.881
  400SOL    OH215918   3.809   2.596   5.451
  400SOL     H115919   3.791   2.690   5.456
  400SOL     H215920   3.751   2.557   5.516
  401SOL    OH215921   5.815   2.610   6.349
  401SOL     H115922   5.730   2.606   6.307
  401SOL     H215923   5.810   2.546   0.063
  402SOL    OH215924   2.143   3.128   0.033
  402SOL     H115925   2.131   3.151   0.126
  402SOL     H215926   2.161   3.211   6.347
  403SOL    OH215927   1.476   5.261   0.883
  403SOL     H115928   1.530   5.190   0.847
  403SOL     H215929   1.484   5.252   0.978
  404SOL    OH215930   2.147   3.401   6.313
  404SOL     H115931   2.108   3.452   6.242
  404SOL     H215932   2.093   3.421   0.031
  405SOL    OH215933   2.199   0.096   6.344
  405SOL     H115934   2.283   0.140   6.328
  405SOL     H215935   2.181   0.049   6.262
  406SOL    OH215936   2.874   5.615   0.060
  406SOL     H115937   2.830   5.630   0.143
  406SOL     H215938   2.956   5.570   0.084
  407SOL    OH215939   4.700   4.344   5.168
  407SOL     H115940   4.626   4.284   5.164
  407SOL     H215941   4.707   4.379   5.079
  408SOL    OH215942   5.496   1.516   6.070
  408SOL     H115943   5.466   1.426   6.059
  408SOL     H215944   5.590   1.513   6.052
  409SOL    OH215945   1.482   1.536   0.517
  409SOL     H115946   1.484   1.596   0.591
  409SOL     H215947   1.410   1.568   0.462
  410SOL    OH215948   4.973   2.091   1.265
  410SOL     H115949   4.955   2.116   1.356
  410SOL     H215950   4.903   2.029   1.243
  411SOL    OH215951   5.677   3.239   5.779
  411SOL     H115952   5.588   3.262   5.752
  411SOL     H215953   5.678   3.144   5.777
  412SOL    OH215954   3.758   5.006   1.378
  412SOL     H115955   3.772   5.021   1.471
  412SOL     H215956   3.663   5.003   1.368
  413SOL    OH215957   1.143   3.590   0.948
  413SOL     H115958   1.145   3.561   0.857
  413SOL     H215959   1.202   3.666   0.949
  414SOL    OH215960   0.899   4.205   1.836
  414SOL     H115961   0.956   4.258   1.780
  414SOL     H215962   0.959   4.156   1.892
  415SOL    OH215963   5.783   5.576   0.797
  415SOL     H115964   5.718   5.625   0.847
  415SOL     H215965   5.825   5.519   0.861
  416SOL    OH215966   2.724   4.313   5.426
  416SOL     H115967   2.638   4.313   5.385
  416SOL     H215968   2.781   4.356   5.362
  417SOL    OH215969   1.262   4.845   5.567
  417SOL     H115970   1.194   4.870   5.504
  417SOL     H215971   1.216   4.838   5.651
  418SOL    OH215972   2.682   2.659   5.910
  418SOL     H115973   2.710   2.682   5.822
  418SOL     H215974   2.701   2.737   5.963
  419SOL    OH215975   1.825   1.161   5.947
  419SOL     H115976   1.739   1.166   5.906
  419SOL     H215977   1.878   1.110   5.885
  420SOL    OH215978   3.542   2.511   1.046
  420SOL     H115979   3.538   2.418   1.068
  420SOL     H215980   3.635   2.533   1.053
  421SOL    OH215981   4.031   6.166   0.800
  421SOL     H115982   4.070   6.104   0.862
  421SOL     H215983   4.105   6.201   0.751
  422SOL    OH215984   0.365   0.347   5.028
  422SOL     H115985   0.294   0.286   5.047
  422SOL     H215986   0.394   0.324   4.940
  423SOL    OH215987   0.332   2.450   5.233
  423SOL     H115988   0.302   2.455   5.142
  423SOL     H215989   0.377   2.365   5.238
  424SOL    OH215990   3.429   5.299   6.136
  424SOL     H115991   3.508   5.349   6.159
  424SOL     H215992   3.366   5.321   6.204
  425SOL    OH215993   5.965   3.462   1.588
  425SOL     H115994   6.056   3.458   1.618
  425SOL     H215995   5.919   3.510   1.658
  426SOL    OH215996   3.342   6.268   5.610
  426SOL     H115997   3.396   6.242   5.536
  426SOL     H215998   3.404   6.300   5.675
  427SOL    OH215999   5.800   2.317   6.156
  427SOL     H116000   5.888   2.352   6.173
  427SOL     H216001   5.760   2.380   6.096
  428SOL    OH216002   4.292   0.696   0.105
  428SOL     H116003   4.300   0.783   0.065
  428SOL     H216004   4.382   0.664   0.109
  429SOL    OH216005   2.924   3.278   5.340
  429SOL     H116006   3.014   3.289   5.308
  429SOL     H216007   2.916   3.184   5.357
  430SOL    OH216008   2.762   1.850   1.792
  430SOL     H116009   2.760   1.764   1.834
  430SOL     H216010   2.677   1.857   1.749
  431SOL    OH216011   0.447   6.226   0.254
  431SOL     H116012   0.402   6.276   0.186
  431SOL     H216013   0.475   6.293   0.318
  432SOL    OH216014   3.206   3.426   1.033
  432SOL     H116015   3.245   3.353   1.080
  432SOL     H216016   3.172   3.387   0.952
  433SOL    OH216017   2.145   3.175   1.151
  433SOL     H116018   2.089   3.195   1.227
  433SOL     H216019   2.224   3.227   1.166
  434SOL    OH216020   0.230   0.003   1.122
  434SOL     H116021   0.309   6.281   1.108
  434SOL     H216022   0.167   6.273   1.162
  435SOL    OH216023   0.077   0.038   5.763
  435SOL     H116024   6.290   0.090   5.744
  435SOL     H216025   0.098   0.058   5.854
  436SOL    OH216026   4.340   3.853   5.118
  436SOL     H116027   4.385   3.818   5.041
  436SOL     H216028   4.270   3.907   5.083
  437SOL    OH216029   5.232   0.826   5.780
  437SOL     H116030   5.321   0.811   5.812
  437SOL     H216031   5.200   0.899   5.832
  438SOL    OH216032   4.045   2.736   0.750
  438SOL     H116033   4.029   2.766   0.839
  438SOL     H216034   4.124   2.684   0.755
  439SOL    OH216035   1.537   5.657   6.086
  439SOL     H116036   1.457   5.626   6.045
  439SOL     H216037   1.606   5.636   6.024
  440SOL    OH216038   5.780   2.277   0.778
  440SOL     H116039   5.805   2.361   0.739
  440SOL     H216040   5.859   2.247   0.823
  441SOL    OH216041   4.194   3.676   0.112
  441SOL     H116042   4.231   3.588   0.106
  441SOL     H216043   4.232   3.723   0.038
  442SOL    OH216044   1.697   2.516   5.535
  442SOL     H116045   1.743   2.433   5.533
  442SOL     H216046   1.719   2.555   5.619
  443SOL    OH216047   5.332   5.010   1.313
  443SOL     H116048   5.403   5.032   1.373
  443SOL     H216049   5.277   5.089   1.311
  444SOL    OH216050   2.820   5.463   0.589
  444SOL     H116051   2.818   5.558   0.598
  444SOL     H216052   2.909   5.438   0.614
  445SOL    OH216053   1.443   3.385   5.008
  445SOL     H116054   1.392   3.466   5.003
  445SOL     H216055   1.508   3.402   5.075
  446SOL    OH216056   6.154   1.632   4.193
  446SOL     H116057   6.122   1.722   4.204
  446SOL     H216058   6.239   1.641   4.151
  447SOL    OH216059   3.955   5.124   6.043
  447SOL     H116060   4.026   5.098   5.983
  447SOL     H216061   3.948   5.051   6.104
  448SOL    OH216062   5.604   5.086   0.878
  448SOL     H116063   5.696   5.082   0.905
  448SOL     H216064   5.585   4.998   0.845
  449SOL    OH216065   5.133   5.812   0.177
  449SOL     H116066   5.071   5.773   0.238
  449SOL     H216067   5.140   5.904   0.206
  450SOL    OH216068   2.670   0.659   1.371
  450SOL     H116069   2.755   0.655   1.329
  450SOL     H216070   2.690   0.657   1.465
  451SOL    OH216071   5.422   4.683   4.914
  451SOL     H116072   5.357   4.695   4.845
  451SOL     H216073   5.478   4.612   4.883
  452SOL    OH216074   3.305   2.717   6.010
  452SOL     H116075   3.337   2.713   6.100
  452SOL     H216076   3.258   2.800   6.005
  453SOL    OH216077   4.753   4.643   0.711
  453SOL     H116078   4.811   4.594   0.654
  453SOL     H216079   4.806   4.661   0.789
  454SOL    OH216080   3.768   3.603   5.532
  454SOL     H116081   3.794   3.530   5.588
  454SOL     H216082   3.673   3.599   5.530
  455SOL    OH216083   4.584   1.958   5.664
  455SOL     H116084   4.542   1.874   5.645
  455SOL     H216085   4.527   2.024   5.625
  456SOL    OH216086   5.195   0.622   0.386
  456SOL     H116087   5.232   0.534   0.383
  456SOL     H216088   5.109   0.611   0.427
  457SOL    OH216089   0.860   0.543   5.630
  457SOL     H116090   0.912   0.500   5.698
  457SOL     H216091   0.809   0.471   5.591
  458SOL    OH216092   2.477   1.521   6.101
  458SOL     H116093   2.497   1.614   6.090
  458SOL     H216094   2.503   1.482   6.017
  459SOL    OH216095   4.591   5.369   5.712
  459SOL     H116096   4.526   5.436   5.731
  459SOL     H216097   4.665   5.389   5.770
  460SOL    OH216098   5.985   3.887   6.233
  460SOL     H116099   6.043   3.831   6.285
  460SOL     H216100   5.956   3.955   6.294
  461SOL    OH216101   4.832   1.471   5.878
  461SOL     H116102   4.787   1.543   5.834
  461SOL     H216103   4.768   1.400   5.880
  462SOL    OH216104   0.545   5.751   5.799
  462SOL     H116105   0.543   5.666   5.844
  462SOL     H216106   0.562   5.814   5.869
  463SOL    OH216107   3.189   6.098   5.776
  463SOL     H116108   3.239   6.168   5.734
  463SOL     H216109   3.253   6.048   5.826
  464SOL    OH216110   4.567   3.844   0.885
  464SOL     H116111   4.566   3.937   0.909
  464SOL     H216112   4.494   3.806   0.933
  465SOL    OH216113   1.020   4.100   5.446
  465SOL     H116114   1.081   4.158   5.491
  465SOL     H216115   0.957   4.074   5.513
  466SOL    OH216116   0.646   5.646   6.227
  466SOL     H116117   0.637   5.696   6.308
  466SOL     H216118   0.556   5.639   6.193
  467SOL    OH216119   0.579   3.554   1.436
  467SOL     H116120   0.537   3.471   1.414
  467SOL     H216121   0.604   3.544   1.528
  468SOL    OH216122   1.210   4.464   1.333
  468SOL     H116123   1.208   4.480   1.427
  468SOL     H216124   1.190   4.548   1.293
  469SOL    OH216125   4.358   2.163   0.972
  469SOL     H116126   4.431   2.170   1.034
  469SOL     H216127   4.289   2.217   1.009
  470SOL    OH216128   0.309   5.481   1.871
  470SOL     H116129   0.225   5.511   1.835
  470SOL     H216130   0.375   5.512   1.809
  471SOL    OH216131   4.958   2.598   5.627
  471SOL     H116132   5.046   2.561   5.629
  471SOL     H216133   4.940   2.613   5.534
  472SOL    OH216134   0.875   5.590   0.631
  472SOL     H116135   0.919   5.562   0.551
  472SOL     H216136   0.793   5.629   0.600
  473SOL    OH216137   0.939   4.454   0.714
  473SOL     H116138   0.999   4.420   0.780
  473SOL     H216139   0.852   4.441   0.752
  474SOL    OH216140   0.886   0.443   0.994
  474SOL     H116141   0.967   0.459   1.042
  474SOL     H216142   0.819   0.431   1.062
  475SOL    OH216143   5.575   5.893   1.515
  475SOL     H116144   5.493   5.912   1.469
  475SOL     H216145   5.547   5.857   1.599
  476SOL    OH216146   4.855   5.069   5.341
  476SOL     H116147   4.945   5.054   5.369
  476SOL     H216148   4.801   5.034   5.411
  477SOL    OH216149   4.958   5.325   0.153
  477SOL     H116150   5.046   5.299   0.126
  477SOL     H216151   4.923   5.375   0.079
  478SOL    OH216152   1.491   1.952   0.010
  478SOL     H116153   1.552   2.025   0.017
  478SOL     H216154   1.407   1.991   6.344
  479SOL    OH216155   1.996   6.080   1.225
  479SOL     H116156   1.994   6.030   1.143
  479SOL     H216157   2.045   6.024   1.285
  480SOL    OH216158   1.144   3.570   0.335
  480SOL     H116159   1.066   3.521   0.312
  480SOL     H216160   1.204   3.557   0.261
  481SOL    OH216161   4.297   2.189   1.345
  481SOL     H116162   4.385   2.165   1.314
  481SOL     H216163   4.303   2.182   1.440
  482SOL    OH216164   1.488   4.730   0.604
  482SOL     H116165   1.438   4.684   0.537
  482SOL     H216166   1.431   4.801   0.633
  483SOL    OH216167   5.636   2.141   0.594
  483SOL     H116168   5.664   2.051   0.611
  483SOL     H216169   5.681   2.193   0.659
  484SOL    OH216170   1.946   0.991   5.181
  484SOL     H116171   2.009   0.951   5.121
  484SOL     H216172   1.893   0.918   5.213
  485SOL    OH216173   5.309   2.288   5.939
  485SOL     H116174   5.394   2.243   5.946
  485SOL     H216175   5.286   2.281   5.847
  486SOL    OH216176   5.102   6.268   4.951
  486SOL     H116177   5.123   6.328   4.880
  486SOL     H216178   5.174   6.276   5.012
  487SOL    OH216179   0.718   4.403   0.879
  487SOL     H116180   0.688   4.314   0.895
  487SOL     H216181   0.734   4.439   0.966
  488SOL    OH216182   6.202   1.198   0.274
  488SOL     H116183   6.257   1.277   0.269
  488SOL     H216184   6.261   1.130   0.307
  489SOL    OH216185   4.477   4.860   1.060
  489SOL     H116186   4.446   4.899   1.142
  489SOL     H216187   4.429   4.778   1.052
  490SOL    OH216188   4.806   1.179   4.885
  490SOL     H116189   4.801   1.193   4.791
  490SOL     H216190   4.720   1.204   4.918
  491SOL    OH216191   0.902   3.663   5.238
  491SOL     H116192   0.960   3.656   5.162
  491SOL     H216193   0.827   3.713   5.206
  492SOL    OH216194   0.146   5.993   0.087
  492SOL     H116195   0.134   6.080   0.125
  492SOL     H216196   0.108   5.999   6.357
  493SOL    OH216197   1.967   1.241   1.206
  493SOL     H116198   1.906   1.291   1.260
  493SOL     H216199   1.924   1.157   1.193
  494SOL    OH216200   5.883   0.599   1.244
  494SOL     H116201   5.830   0.660   1.193
  494SOL     H216202   5.849   0.512   1.220
  495SOL    OH216203   5.794   3.984   0.464
  495SOL     H116204   5.719   3.986   0.524
  495SOL     H216205   5.870   3.998   0.519
  496SOL    OH216206   1.051   2.007   5.278
  496SOL     H116207   1.101   2.057   5.213
  496SOL     H216208   0.969   2.055   5.287
  497SOL    OH216209   0.692   1.600   1.234
  497SOL     H116210   0.677   1.684   1.279
  497SOL     H216211   0.660   1.534   1.296
  498SOL    OH216212   3.500   3.501   0.809
  498SOL     H116213   3.489   3.411   0.777
  498SOL     H216214   3.539   3.490   0.896
  499SOL    OH216215   0.488   1.689   0.577
  499SOL     H116216   0.461   1.755   0.641
  499SOL     H216217   0.583   1.682   0.588
  500SOL    OH216218   3.216   1.578   1.324
  500SOL     H116219   3.307   1.607   1.328
  500SOL     H216220   3.182   1.616   1.243
  501SOL    OH216221   1.640   5.854   6.251
  501SOL     H116222   1.603   5.776   6.209
  501SOL     H216223   1.636   5.921   6.183
  502SOL    OH216224   3.698   0.147   5.624
  502SOL     H116225   3.762   0.093   5.578
  502SOL     H216226   3.650   0.085   5.678
  503SOL    OH216227   0.727   5.493   1.432
  503SOL     H116228   0.718   5.563   1.497
  503SOL     H216229   0.797   5.437   1.467
  504SOL    OH216230   6.179   1.986   4.470
  504SOL     H116231   6.259   1.961   4.515
  504SOL     H216232   6.111   1.983   4.537
  505SOL    OH216233   3.527   5.405   5.103
  505SOL     H116234   3.459   5.398   5.170
  505SOL     H216235   3.564   5.493   5.115
  506SOL    OH216236   0.557   0.063   5.753
  506SOL     H116237   0.470   0.096   5.732
  506SOL     H216238   0.604   0.138   5.789
  507SOL    OH216239   3.297   5.893   0.944
  507SOL     H116240   3.269   5.984   0.949
  507SOL     H216241   3.219   5.846   0.912
  508SOL    OH216242   1.664   2.997   0.282
  508SOL     H116243   1.569   3.005   0.291
  508SOL     H216244   1.700   3.046   0.356
  509SOL    OH216245   0.572   6.237   4.619
  509SOL     H116246   0.527   6.319   4.599
  509SOL     H216247   0.641   6.230   4.553
  510SOL    OH216248   1.086   0.754   1.230
  510SOL     H116249   1.127   0.800   1.303
  510SOL     H216250   0.995   0.745   1.257
  511SOL    OH216251   1.224   5.804   6.050
  511SOL     H116252   1.250   5.727   5.998
  511SOL     H216253   1.136   5.825   6.020
  512SOL    OH216254   3.249   3.362   4.686
  512SOL     H116255   3.157   3.387   4.684
  512SOL     H216256   3.254   3.293   4.752
  513SOL    OH216257   0.763   4.723   1.006
  513SOL     H116258   0.733   4.799   1.056
  513SOL     H216259   0.754   4.649   1.066
  514SOL    OH216260   1.443   3.229   4.778
  514SOL     H116261   1.436   3.279   4.860
  514SOL     H216262   1.403   3.286   4.712
  515SOL    OH216263   5.450   2.774   4.697
  515SOL     H116264   5.475   2.686   4.669
  515SOL     H216265   5.517   2.800   4.760
  516SOL    OH216266   3.525   4.470   5.621
  516SOL     H116267   3.599   4.531   5.624
  516SOL     H216268   3.489   4.481   5.533
  517SOL    OH216269   2.423   1.851   6.341
  517SOL     H116270   2.389   1.938   6.319
  517SOL     H216271   2.447   1.856   0.075
  518SOL    OH216272   4.314   0.373   5.917
  518SOL     H116273   4.306   0.468   5.925
  518SOL     H216274   4.237   0.347   5.866
  519SOL    OH216275   4.587   4.808   6.260
  519SOL     H116276   4.557   4.780   6.174
  519SOL     H216277   4.514   4.788   6.318
  520SOL    OH216278   4.966   3.900   0.887
  520SOL     H116279   4.988   3.837   0.955
  520SOL     H216280   5.006   3.982   0.917
  521SOL    OH216281   0.100   5.160   5.873
  521SOL     H116282   0.074   5.217   5.945
  521SOL     H216283   0.164   5.211   5.823
  522SOL    OH216284   5.399   4.587   5.170
  522SOL     H116285   5.361   4.502   5.149
  522SOL     H216286   5.408   4.631   5.085
  523SOL    OH216287   4.253   4.750   0.482
  523SOL     H116288   4.328   4.794   0.522
  523SOL     H216289   4.282   4.659   0.472
  524SOL    OH216290   4.337   1.102   0.277
  524SOL     H116291   4.311   1.125   0.367
  524SOL     H216292   4.255   1.085   0.232
  525SOL    OH216293   2.939   0.098   1.007
  525SOL     H116294   2.864   0.084   1.065
  525SOL     H216295   3.014   0.104   1.066
  526SOL    OH216296   4.065   1.454   5.726
  526SOL     H116297   4.017   1.379   5.692
  526SOL     H216298   4.024   1.530   5.684
  527SOL    OH216299   5.043   0.379   0.074
  527SOL     H116300   5.109   0.434   0.031
  527SOL     H216301   4.967   0.435   0.083
  528SOL    OH216302   3.321   0.108   0.336
  528SOL     H116303   3.350   0.076   0.251
  528SOL     H216304   3.262   0.041   0.369
  529SOL    OH216305   2.669   2.987   5.561
  529SOL     H116306   2.628   3.017   5.642
  529SOL     H216307   2.623   3.034   5.492
  530SOL    OH216308   4.657   5.429   1.058
  530SOL     H116309   4.606   5.435   1.138
  530SOL     H216310   4.743   5.464   1.081
  531SOL    OH216311   2.828   4.522   1.356
  531SOL     H116312   2.923   4.516   1.347
  531SOL     H216313   2.809   4.482   1.441
  532SOL    OH216314   5.866   5.006   0.929
  532SOL     H116315   5.864   4.919   0.890
  532SOL     H216316   5.918   4.996   1.008
  533SOL    OH216317   0.235   0.441   1.211
  533SOL     H116318   0.141   0.457   1.200
  533SOL     H216319   0.254   0.473   1.299
  534SOL    OH216320   4.374   1.692   4.483
  534SOL     H116321   4.429   1.667   4.408
  534SOL     H216322   4.380   1.617   4.543
  535SOL    OH216323   0.598   0.535   6.212
  535SOL     H116324   0.516   0.545   6.164
  535SOL     H216325   0.579   0.572   6.299
  536SOL    OH216326   3.526   3.831   1.155
  536SOL     H116327   3.497   3.916   1.123
  536SOL     H216328   3.462   3.769   1.120
  537SOL    OH216329   2.273   3.915   5.517
  537SOL     H116330   2.278   3.820   5.529
  537SOL     H216331   2.227   3.926   5.434
  538SOL    OH216332   1.937   3.616   0.393
  538SOL     H116333   2.013   3.615   0.452
  538SOL     H216334   1.871   3.667   0.440
  539SOL    OH216335   5.447   1.388   4.820
  539SOL     H116336   5.414   1.445   4.750
  539SOL     H216337   5.541   1.383   4.804
  540SOL    OH216338   4.531   1.322   0.354
  540SOL     H116339   4.465   1.271   0.308
  540SOL     H216340   4.567   1.261   0.419
  541SOL    OH216341   2.564   4.247   0.071
  541SOL     H116342   2.593   4.210   6.345
  541SOL     H216343   2.474   4.276   0.054
  542SOL    OH216344   6.253   1.431   4.947
  542SOL     H116345   0.027   1.466   4.887
  542SOL     H216346   0.001   1.350   4.980
  543SOL    OH216347   2.840   5.004   1.037
  543SOL     H116348   2.852   5.028   0.944
  543SOL     H216349   2.746   5.008   1.051
  544SOL    OH216350   4.545   3.738   5.867
  544SOL     H116351   4.458   3.730   5.907
  544SOL     H216352   4.535   3.807   5.801
  545SOL    OH216353   0.121   3.547   6.295
  545SOL     H116354   0.132   3.642   6.296
  545SOL     H216355   0.117   3.522   0.029
  546SOL    OH216356   2.093   1.142   5.351
  546SOL     H116357   2.041   1.095   5.287
  546SOL     H216358   2.146   1.203   5.299
  547SOL    OH216359   5.255   2.919   4.837
  547SOL     H116360   5.186   2.950   4.778
  547SOL     H216361   5.318   2.876   4.780
  548SOL    OH216362   3.475   0.101   5.327
  548SOL     H116363   3.447   0.095   5.235
  548SOL     H216364   3.491   0.010   5.353
  549SOL    OH216365   5.766   1.206   4.359
  549SOL     H116366   5.717   1.126   4.339
  549SOL     H216367   5.854   1.189   4.326
  550SOL    OH216368   3.879   0.014   5.463
  550SOL     H116369   3.944   0.079   5.435
  550SOL     H216370   3.930   6.266   5.481
  551SOL    OH216371   5.533   0.549   6.260
  551SOL     H116372   5.565   0.612   6.324
  551SOL     H216373   5.478   0.600   6.201
  552SOL    OH216374   4.076   1.968   0.594
  552SOL     H116375   4.124   2.042   0.558
  552SOL     H216376   4.143   1.912   0.633
  553SOL    OH216377   1.171   1.292   5.258
  553SOL     H116378   1.159   1.210   5.305
  553SOL     H216379   1.082   1.324   5.240
  554SOL    OH216380   6.189   5.949   0.804
  554SOL     H116381   6.118   5.888   0.784
  554SOL     H216382   6.151   6.035   0.789
  555SOL    OH216383   0.527   1.265   0.109
  555SOL     H116384   0.580   1.278   0.187
  555SOL     H216385   0.500   1.353   0.083
  556SOL    OH216386   3.359   1.103   0.062
  556SOL     H116387   3.419   1.177   0.072
  556SOL     H216388   3.357   1.061   0.148
  557SOL    OH216389   4.645   4.400   1.702
  557SOL     H116390   4.597   4.474   1.740
  557SOL     H216391   4.708   4.440   1.642
  558SOL    OH216392   3.509   3.288   1.250
  558SOL     H116393   3.437   3.248   1.202
  558SOL     H216394   3.479   3.288   1.342
  559SOL    OH216395   4.523   4.995   0.831
  559SOL     H116396   4.508   4.944   0.911
  559SOL     H216397   4.511   5.086   0.857
  560SOL    OH216398   1.946   5.274   1.305
  560SOL     H116399   1.869   5.301   1.355
  560SOL     H216400   2.005   5.237   1.372
  561SOL    OH216401   5.968   3.723   5.235
  561SOL     H116402   6.014   3.783   5.294
  561SOL     H216403   5.971   3.766   5.150
  562SOL    OH216404   2.538   6.204   1.003
  562SOL     H116405   2.457   6.254   1.016
  562SOL     H216406   2.557   6.210   0.910
  563SOL    OH216407   3.667   5.343   5.453
  563SOL     H116408   3.722   5.305   5.522
  563SOL     H216409   3.579   5.311   5.472
  564SOL    OH216410   0.959   4.110   5.182
  564SOL     H116411   0.999   4.028   5.153
  564SOL     H216412   0.980   4.116   5.275
  565SOL    OH216413   0.975   3.612   6.155
  565SOL     H116414   0.912   3.626   6.084
  565SOL     H216415   0.923   3.571   6.225
  566SOL    OH216416   5.149   3.880   0.381
  566SOL     H116417   5.127   3.870   0.474
  566SOL     H216418   5.223   3.940   0.381
  567SOL    OH216419   5.798   0.127   0.760
  567SOL     H116420   5.724   0.172   0.801
  567SOL     H216421   5.789   0.036   0.788
  568SOL    OH216422   5.866   1.797   0.870
  568SOL     H116423   5.877   1.785   0.964
  568SOL     H216424   5.952   1.776   0.833
  569SOL    OH216425   0.094   3.004   0.235
  569SOL     H116426   0.047   3.026   0.155
  569SOL     H216427   0.025   2.973   0.295
  570SOL    OH216428   3.206   4.400   0.241
  570SOL     H116429   3.153   4.456   0.298
  570SOL     H216430   3.201   4.314   0.282
  571SOL    OH216431   2.876   2.780   5.208
  571SOL     H116432   2.957   2.734   5.186
  571SOL     H216433   2.809   2.711   5.209
  572SOL    OH216434   5.425   5.146   6.213
  572SOL     H116435   5.332   5.122   6.207
  572SOL     H216436   5.423   5.239   6.235
  573SOL    OH216437   4.642   1.829   0.476
  573SOL     H116438   4.636   1.733   0.478
  573SOL     H216439   4.609   1.853   0.390
  574SOL    OH216440   5.733   0.176   0.498
  574SOL     H116441   5.755   0.154   0.588
  574SOL     H216442   5.813   0.156   0.448
  575SOL    OH216443   3.785   1.159   0.245
  575SOL     H116444   3.763   1.167   0.152
  575SOL     H216445   3.709   1.195   0.291
  576SOL    OH216446   0.731   3.718   1.279
  576SOL     H116447   0.787   3.660   1.227
  576SOL     H216448   0.687   3.659   1.340
  577SOL    OH216449   1.289   1.913   6.021
  577SOL     H116450   1.244   1.832   5.996
  577SOL     H216451   1.374   1.884   6.053
  578SOL    OH216452   0.632   5.705   0.558
  578SOL     H116453   0.634   5.681   0.465
  578SOL     H216454   0.632   5.801   0.558
  579SOL    OH216455   2.967   6.097   0.217
  579SOL     H116456   2.872   6.100   0.204
  579SOL     H216457   2.986   6.007   0.242
  580SOL    OH216458   5.348   4.356   0.784
  580SOL     H116459   5.363   4.261   0.780
  580SOL     H216460   5.433   4.393   0.809
  581SOL    OH216461   2.508   4.493   4.847
  581SOL     H116462   2.421   4.461   4.823
  581SOL     H216463   2.538   4.432   4.914
  582SOL    OH216464   3.438   1.688   1.188
  582SOL     H116465   3.357   1.717   1.145
  582SOL     H216466   3.468   1.765   1.237
  583SOL    OH216467   0.321   4.560   1.610
  583SOL     H116468   0.305   4.648   1.643
  583SOL     H216469   0.384   4.522   1.671
  584SOL    OH216470   1.487   4.795   1.775
  584SOL     H116471   1.503   4.886   1.751
  584SOL     H216472   1.476   4.796   1.870
  585SOL    OH216473   3.608   2.795   5.243
  585SOL     H116474   3.680   2.787   5.180
  585SOL     H216475   3.648   2.829   5.322
  586SOL    OH216476   3.049   4.547   0.415
  586SOL     H116477   3.101   4.610   0.464
  586SOL     H216478   3.011   4.490   0.482
  587SOL    OH216479   1.254   1.055   5.416
  587SOL     H116480   1.252   1.105   5.497
  587SOL     H216481   1.328   1.091   5.367
  588SOL    OH216482   4.014   2.055   0.145
  588SOL     H116483   4.022   1.960   0.149
  588SOL     H216484   4.048   2.078   0.058
  589SOL    OH216485   2.696   4.873   2.081
  589SOL     H116486   2.731   4.799   2.031
  589SOL     H216487   2.603   4.877   2.058
  590SOL    OH216488   0.465   3.580   0.500
  590SOL     H116489   0.426   3.553   0.417
  590SOL     H216490   0.559   3.565   0.489
  591SOL    OH216491   2.973   3.566   1.079
  591SOL     H116492   2.986   3.639   1.020
  591SOL     H216493   3.054   3.516   1.075
  592SOL    OH216494   3.855   3.839   0.065
  592SOL     H116495   3.896   3.771   0.012
  592SOL     H216496   3.918   3.911   0.064
  593SOL    OH216497   3.397   0.504   1.648
  593SOL     H116498   3.315   0.455   1.642
  593SOL     H216499   3.453   0.464   1.581
  594SOL    OH216500   3.998   0.499   6.222
  594SOL     H116501   4.094   0.496   6.215
  594SOL     H216502   3.970   0.540   6.140
  595SOL    OH216503   2.137   1.793   5.151
  595SOL     H116504   2.044   1.772   5.158
  595SOL     H216505   2.156   1.845   5.229
  596SOL    OH216506   2.739   4.407   1.583
  596SOL     H116507   2.650   4.376   1.562
  596SOL     H216508   2.782   4.332   1.624
  597SOL    OH216509   4.028   5.576   0.769
  597SOL     H116510   3.935   5.581   0.750
  597SOL     H216511   4.071   5.608   0.690
  598SOL    OH216512   1.161   2.544   5.968
  598SOL     H116513   1.212   2.538   6.048
  598SOL     H216514   1.226   2.541   5.897
  599SOL    OH216515   5.256   2.368   5.210
  599SOL     H116516   5.295   2.301   5.154
  599SOL     H216517   5.162   2.349   5.209
  600SOL    OH216518   3.951   4.803   5.624
  600SOL     H116519   4.030   4.750   5.636
  600SOL     H216520   3.974   4.865   5.555
  601SOL    OH216521   4.384   5.631   5.124
  601SOL     H116522   4.365   5.725   5.124
  601SOL     H216523   4.457   5.622   5.062
  602SOL    OH216524   3.710   0.161   0.119
  602SOL     H116525   3.748   0.214   0.049
  602SOL     H216526   3.718   0.216   0.197
  603SOL    OH216527   0.376   1.666   5.186
  603SOL     H116528   0.306   1.716   5.145
  603SOL     H216529   0.359   1.575   5.161
  604SOL    OH216530   5.560   5.059   5.990
  604SOL     H116531   5.500   4.989   5.962
  604SOL     H216532   5.519   5.096   6.067
  605SOL    OH216533   3.092   4.751   5.320
  605SOL     H116534   3.005   4.722   5.349
  605SOL     H216535   3.081   4.845   5.303
  606SOL    OH216536   5.237   5.215   5.734
  606SOL     H116537   5.330   5.220   5.756
  606SOL     H216538   5.233   5.230   5.639
  607SOL    OH216539   5.112   1.963   4.680
  607SOL     H116540   5.139   1.871   4.676
  607SOL     H216541   5.140   1.992   4.767
  608SOL    OH216542   1.033   4.064   0.895
  608SOL     H116543   1.074   4.051   0.981
  608SOL     H216544   1.095   4.027   0.833
  609SOL    OH216545   0.319   2.288   0.943
  609SOL     H116546   0.395   2.237   0.973
  609SOL     H216547   0.352   2.340   0.870
  610SOL    OH216548   0.155   1.173   1.057
  610SOL     H116549   0.114   1.258   1.075
  610SOL     H216550   0.222   1.164   1.124
  611SOL    OH216551   2.983   5.241   0.198
  611SOL     H116552   3.032   5.165   0.167
  611SOL     H216553   2.932   5.208   0.273
  612SOL    OH216554   0.600   0.689   1.003
  612SOL     H116555   0.600   0.758   0.936
  612SOL     H216556   0.535   0.626   0.972
  613SOL    OH216557   1.545   4.023   1.945
  613SOL     H116558   1.638   4.038   1.929
  613SOL     H216559   1.506   4.021   1.858
  614SOL    OH216560   1.146   3.793   0.492
  614SOL     H116561   1.152   3.713   0.439
  614SOL     H216562   1.171   3.863   0.432
  615SOL    OH216563   2.764   0.902   0.637
  615SOL     H116564   2.817   0.972   0.676
  615SOL     H216565   2.675   0.919   0.669
  616SOL    OH216566   6.019   3.144   0.984
  616SOL     H116567   6.093   3.114   0.931
  616SOL     H216568   6.043   3.122   1.074
  617SOL    OH216569   5.810   2.734   5.393
  617SOL     H116570   5.756   2.673   5.344
  617SOL     H216571   5.794   2.713   5.485
  618SOL    OH216572   5.110   5.020   5.475
  618SOL     H116573   5.164   5.099   5.464
  618SOL     H216574   5.050   5.042   5.546
  619SOL    OH216575   1.114   5.642   1.312
  619SOL     H116576   1.065   5.617   1.233
  619SOL     H216577   1.054   5.701   1.358
  620SOL    OH216578   0.685   5.371   6.245
  620SOL     H116579   0.680   5.466   6.232
  620SOL     H216580   0.630   5.334   6.176
  621SOL    OH216581   5.297   2.260   1.068
  621SOL     H116582   5.204   2.283   1.077
  621SOL     H216583   5.296   2.177   1.021
  622SOL    OH216584   1.751   4.777   0.990
  622SOL     H116585   1.661   4.806   1.005
  622SOL     H216586   1.755   4.759   0.896
  623SOL    OH216587   3.734   3.793   0.969
  623SOL     H116588   3.667   3.789   1.037
  623SOL     H216589   3.801   3.731   0.997
  624SOL    OH216590   2.981   3.228   0.167
  624SOL     H116591   3.034   3.191   0.238
  624SOL     H216592   2.922   3.157   0.143
  625SOL    OH216593   6.100   2.400   0.541
  625SOL     H116594   6.109   2.312   0.578
  625SOL     H216595   6.018   2.433   0.577
  626SOL    OH216596   1.906   4.010   0.573
  626SOL     H116597   1.871   3.921   0.564
  626SOL     H216598   1.846   4.065   0.523
  627SOL    OH216599   6.209   2.785   0.808
  627SOL     H116600   6.234   2.715   0.748
  627SOL     H216601   6.272   2.780   0.880
  628SOL    OH216602   1.481   3.946   4.566
  628SOL     H116603   1.562   3.987   4.595
  628SOL     H216604   1.473   3.969   4.474
  629SOL    OH216605   3.091   1.919   0.690
  629SOL     H116606   3.007   1.950   0.722
  629SOL     H216607   3.115   1.980   0.620
  630SOL    OH216608   4.953   2.681   5.339
  630SOL     H116609   4.939   2.775   5.336
  630SOL     H216610   4.898   2.646   5.269
  631SOL    OH216611   1.833   2.280   5.577
  631SOL     H116612   1.779   2.251   5.651
  631SOL     H216613   1.921   2.250   5.598
  632SOL    OH216614   2.344   2.721   0.751
  632SOL     H116615   2.276   2.779   0.783
  632SOL     H216616   2.392   2.694   0.830
  633SOL    OH216617   3.229   1.212   6.204
  633SOL     H116618   3.140   1.227   6.236
  633SOL     H216619   3.273   1.170   6.277
  634SOL    OH216620   4.226   2.930   5.501
  634SOL     H116621   4.302   2.923   5.444
  634SOL     H216622   4.218   2.843   5.541
  635SOL    OH216623   3.485   1.566   5.400
  635SOL     H116624   3.541   1.571   5.477
  635SOL     H216625   3.532   1.615   5.333
  636SOL    OH216626   5.896   3.651   5.588
  636SOL     H116627   5.966   3.712   5.612
  636SOL     H216628   5.936   3.593   5.523
  637SOL    OH216629   4.043   4.547   1.714
  637SOL     H116630   4.133   4.522   1.735
  637SOL     H216631   4.028   4.510   1.627
  638SOL    OH216632   1.467   1.632   5.818
  638SOL     H116633   1.478   1.724   5.796
  638SOL     H216634   1.389   1.629   5.873
  639SOL    OH216635   3.134   4.241   0.907
  639SOL     H116636   3.166   4.263   0.820
  639SOL     H216637   3.098   4.323   0.941
  640SOL    OH216638   5.258   5.764   5.854
  640SOL     H116639   5.309   5.815   5.792
  640SOL     H216640   5.208   5.703   5.799
  641SOL    OH216641   4.307   4.002   5.453
  641SOL     H116642   4.385   4.011   5.399
  641SOL     H216643   4.289   4.090   5.486
  642SOL    OH216644   0.774   5.754   5.303
  642SOL     H116645   0.712   5.773   5.374
  642SOL     H216646   0.750   5.815   5.233
  643SOL    OH216647   6.183   5.776   5.777
  643SOL     H116648   6.135   5.698   5.747
  643SOL     H216649   6.259   5.782   5.719
  644SOL    OH216650   4.052   3.767   1.754
  644SOL     H116651   4.118   3.834   1.771
  644SOL     H216652   4.073   3.696   1.815
  645SOL    OH216653   4.940   2.010   0.939
  645SOL     H116654   5.003   1.977   1.003
  645SOL     H216655   4.993   2.056   0.874
  646SOL    OH216656   4.042   4.438   5.613
  646SOL     H116657   3.986   4.432   5.690
  646SOL     H216658   4.091   4.520   5.625
  647SOL    OH216659   4.983   5.852   4.771
  647SOL     H116660   5.024   5.772   4.737
  647SOL     H216661   4.898   5.822   4.804
  648SOL    OH216662   5.481   2.892   1.121
  648SOL     H116663   5.482   2.969   1.177
  648SOL     H216664   5.553   2.838   1.153
  649SOL    OH216665   2.452   4.282   5.778
  649SOL     H116666   2.479   4.369   5.750
  649SOL     H216667   2.440   4.233   5.697
  650SOL    OH216668   0.209   4.851   1.372
  650SOL     H116669   0.291   4.900   1.365
  650SOL     H216670   0.161   4.893   1.443
  651SOL    OH216671   5.136   1.911   1.141
  651SOL     H116672   5.091   1.980   1.190
  651SOL     H216673   5.130   1.834   1.197
  652SOL    OH216674   5.975   5.770   0.783
  652SOL     H116675   5.912   5.698   0.778
  652SOL     H216676   5.975   5.796   0.875
  653SOL    OH216677   3.563   1.251   0.392
  653SOL     H116678   3.481   1.279   0.350
  653SOL     H216679   3.536   1.187   0.457
  654SOL    OH216680   5.033   5.360   5.844
  654SOL     H116681   4.981   5.283   5.870
  654SOL     H216682   5.112   5.323   5.805
  655SOL    OH216683   4.563   5.093   5.755
  655SOL     H116684   4.573   5.185   5.732
  655SOL     H216685   4.621   5.046   5.695
  656SOL    OH216686   2.369   1.174   0.578
  656SOL     H116687   2.274   1.176   0.578
  656SOL     H216688   2.395   1.239   0.643
  657SOL    OH216689   2.117   5.146   1.491
  657SOL     H116690   2.107   5.051   1.483
  657SOL     H216691   2.204   5.158   1.529
  658SOL    OH216692   0.014   5.163   0.314
  658SOL     H116693   0.091   5.147   0.368
  658SOL     H216694   6.231   5.134   0.368
  659SOL    OH216695   0.396   3.522   0.245
  659SOL     H116696   0.464   3.571   0.199
  659SOL     H216697   0.413   3.431   0.220
  660SOL    OH216698   3.067   1.439   5.546
  660SOL     H116699   3.100   1.410   5.631
  660SOL     H216700   2.976   1.463   5.562
  661SOL    OH216701   5.671   5.038   6.320
  661SOL     H116702   5.600   5.092   6.285
  661SOL     H216703   5.745   5.053   6.261
  662SOL    OH216704   4.400   5.167   5.959
  662SOL     H116705   4.463   5.140   5.893
  662SOL     H216706   4.454   5.200   6.031
  663SOL    OH216707   1.273   5.773   5.396
  663SOL     H116708   1.181   5.745   5.398
  663SOL     H216709   1.322   5.696   5.425
  664SOL    OH216710   2.174   6.140   5.736
  664SOL     H116711   2.194   6.105   5.822
  664SOL     H216712   2.226   6.221   5.730
  665SOL    OH216713   1.121   4.712   1.249
  665SOL     H116714   1.127   4.688   1.156
  665SOL     H216715   1.067   4.791   1.249
  666SOL    OH216716   2.575   0.739   6.015
  666SOL     H116717   2.503   0.765   5.957
  666SOL     H216718   2.613   0.822   6.044
  667SOL    OH216719   3.183   1.758   1.107
  667SOL     H116720   3.195   1.754   1.012
  667SOL     H216721   3.115   1.824   1.120
  668SOL    OH216722   6.157   3.053   0.744
  668SOL     H116723   6.180   2.962   0.764
  668SOL     H216724   6.070   3.048   0.705
  669SOL    OH216725   0.745   4.580   6.008
  669SOL     H116726   0.650   4.589   6.014
  669SOL     H216727   0.768   4.523   6.082
  670SOL    OH216728   5.922   1.585   6.240
  670SOL     H116729   5.878   1.542   6.313
  670SOL     H216730   5.870   1.561   6.163
  671SOL    OH216731   4.989   0.138   0.181
  671SOL     H116732   5.004   0.158   0.273
  671SOL     H216733   5.011   0.219   0.134
  672SOL    OH216734   6.102   2.765   4.871
  672SOL     H116735   6.118   2.795   4.961
  672SOL     H216736   6.188   2.767   4.829
  673SOL    OH216737   3.500   5.678   0.584
  673SOL     H116738   3.485   5.763   0.625
  673SOL     H216739   3.423   5.626   0.607
  674SOL    OH216740   4.967   3.127   6.231
  674SOL     H116741   5.026   3.169   6.293
  674SOL     H216742   4.980   3.033   6.246
  675SOL    OH216743   2.229   2.621   0.522
  675SOL     H116744   2.213   2.530   0.550
  675SOL     H216745   2.276   2.660   0.596
  676SOL    OH216746   2.957   2.937   0.904
  676SOL     H116747   3.052   2.940   0.914
  676SOL     H216748   2.924   3.001   0.967
  677SOL    OH216749   3.523   1.883   4.607
  677SOL     H116750   3.432   1.908   4.590
  677SOL     H216751   3.541   1.812   4.545
  678SOL    OH216752   3.472   3.245   0.710
  678SOL     H116753   3.541   3.207   0.763
  678SOL     H216754   3.421   3.170   0.679
  679SOL    OH216755   1.693   0.284   0.543
  679SOL     H116756   1.743   0.359   0.573
  679SOL     H216757   1.757   0.213   0.538
  680SOL    OH216758   0.704   3.794   5.094
  680SOL     H116759   0.693   3.881   5.055
  680SOL     H216760   0.729   3.738   5.020
  681SOL    OH216761   3.256   1.909   4.563
  681SOL     H116762   3.198   1.876   4.495
  681SOL     H216763   3.240   1.852   4.638
  682SOL    OH216764   3.089   5.489   5.415
  682SOL     H116765   3.031   5.544   5.467
  682SOL     H216766   3.030   5.437   5.360
  683SOL    OH216767   2.313   0.019   1.016
  683SOL     H116768   2.249   0.036   0.947
  683SOL     H216769   2.281   0.068   1.092
  684SOL    OH216770   3.805   2.611   5.884
  684SOL     H116771   3.712   2.634   5.879
  684SOL     H216772   3.808   2.518   5.863
  685SOL    OH216773   4.892   2.949   5.256
  685SOL     H116774   4.953   2.948   5.182
  685SOL     H216775   4.813   2.992   5.221
  686SOL    OH216776   3.919   1.950   5.754
  686SOL     H116777   3.837   1.924   5.712
  686SOL     H216778   3.942   1.876   5.810
  687SOL    OH216779   1.453   5.500   5.145
  687SOL     H116780   1.430   5.590   5.120
  687SOL     H216781   1.473   5.456   5.062
  688SOL    OH216782   3.698   3.450   5.092
  688SOL     H116783   3.764   3.448   5.023
  688SOL     H216784   3.627   3.503   5.055
  689SOL    OH216785   4.481   0.296   5.715
  689SOL     H116786   4.535   0.375   5.709
  689SOL     H216787   4.427   0.309   5.793
  690SOL    OH216788   3.629   3.178   5.090
  690SOL     H116789   3.711   3.146   5.127
  690SOL     H216790   3.638   3.273   5.091
  691SOL    OH216791   4.287   2.253   5.763
  691SOL     H116792   4.205   2.298   5.741
  691SOL     H216793   4.323   2.303   5.837
  692SOL    OH216794   2.738   3.456   6.298
  692SOL     H116795   2.757   3.549   6.291
  692SOL     H216796   2.787   3.416   6.226
  693SOL    OH216797   0.257   4.810   1.692
  693SOL     H116798   0.197   4.871   1.648
  693SOL     H216799   0.212   4.787   1.773
  694SOL    OH216800   1.961   0.999   5.774
  694SOL     H116801   2.053   0.984   5.756
  694SOL     H216802   1.926   1.035   5.693
  695SOL    OH216803   2.670   5.242   0.665
  695SOL     H116804   2.729   5.194   0.723
  695SOL     H216805   2.717   5.322   0.643
  696SOL    OH216806   2.583   4.131   0.322
  696SOL     H116807   2.627   4.201   0.370
  696SOL     H216808   2.584   4.160   0.231
  697SOL    OH216809   0.045   4.928   0.965
  697SOL     H116810   6.277   5.000   0.988
  697SOL     H216811   0.132   4.958   0.991
  698SOL    OH216812   2.836   4.052   0.083
  698SOL     H116813   2.753   4.011   0.058
  698SOL     H216814   2.897   3.978   0.089
  699SOL    OH216815   2.705   0.598   5.659
  699SOL     H116816   2.734   0.527   5.602
  699SOL     H216817   2.611   0.605   5.643
  700SOL    OH216818   3.454   4.595   0.850
  700SOL     H116819   3.510   4.519   0.863
  700SOL     H216820   3.435   4.627   0.938
  701SOL    OH216821   1.394   0.343   0.135
  701SOL     H116822   1.364   0.263   0.177
  701SOL     H216823   1.490   0.334   0.130
  702SOL    OH216824   5.363   1.723   5.470
  702SOL     H116825   5.321   1.766   5.545
  702SOL     H216826   5.298   1.726   5.400
  703SOL    OH216827   0.957   0.135   1.396
  703SOL     H116828   1.014   0.119   1.471
  703SOL     H216829   1.014   0.173   1.330
  704SOL    OH216830   2.709   5.588   1.212
  704SOL     H116831   2.721   5.493   1.208
  704SOL     H216832   2.794   5.622   1.239
  705SOL    OH216833   1.090   1.324   6.320
  705SOL     H116834   1.084   1.236   6.356
  705SOL     H216835   1.174   1.357   6.353
  706SOL    OH216836   3.663   5.649   1.947
  706SOL     H116837   3.685   5.700   2.025
  706SOL     H216838   3.575   5.616   1.964
  707SOL    OH216839   0.847   2.841   6.192
  707SOL     H116840   0.850   2.769   6.255
  707SOL     H216841   0.800   2.805   6.116
  708SOL    OH216842   0.651   4.338   5.401
  708SOL     H116843   0.636   4.249   5.434
  708SOL     H216844   0.680   4.387   5.478
  709SOL    OH216845   6.190   2.039   1.648
  709SOL     H116846   6.131   1.963   1.645
  709SOL     H216847   6.234   2.038   1.563
  710SOL    OH216848   0.442   3.552   5.461
  710SOL     H116849   0.352   3.519   5.458
  710SOL     H216850   0.461   3.578   5.371
  711SOL    OH216851   0.167   5.453   5.219
  711SOL     H116852   0.239   5.441   5.156
  711SOL     H216853   0.097   5.398   5.185
  712SOL    OH216854   1.767   2.888   4.924
  712SOL     H116855   1.788   2.946   4.997
  712SOL     H216856   1.742   2.947   4.853
  713SOL    OH216857   3.406   2.972   0.665
  713SOL     H116858   3.323   2.947   0.623
  713SOL     H216859   3.462   2.896   0.652
  714SOL    OH216860   3.611   2.012   5.384
  714SOL     H116861   3.611   1.992   5.291
  714SOL     H216862   3.518   2.014   5.408
  715SOL    OH216863   1.540   1.310   6.289
  715SOL     H116864   1.543   1.214   6.284
  715SOL     H216865   1.541   1.338   6.197
  716SOL    OH216866   1.756   2.871   1.645
  716SOL     H116867   1.802   2.820   1.578
  716SOL     H216868   1.808   2.859   1.724
  717SOL    OH216869   0.706   3.297   1.666
  717SOL     H116870   0.638   3.230   1.672
  717SOL     H216871   0.660   3.380   1.678
  718SOL    OH216872   4.103   1.700   1.118
  718SOL     H116873   4.123   1.610   1.144
  718SOL     H216874   4.176   1.751   1.153
  719SOL    OH216875   4.291   3.905   0.565
  719SOL     H116876   4.241   3.855   0.501
  719SOL     H216877   4.368   3.852   0.582
  720SOL    OH216878   6.142   1.987   0.118
  720SOL     H116879   6.115   2.078   0.114
  720SOL     H216880   6.108   1.948   0.038
  721SOL    OH216881   1.061   5.047   4.711
  721SOL     H116882   1.135   5.015   4.660
  721SOL     H216883   1.098   5.115   4.768
  722SOL    OH216884   6.169   3.673   4.992
  722SOL     H116885   6.094   3.731   4.998
  722SOL     H216886   6.136   3.595   4.948
  723SOL    OH216887   3.901   3.067   0.451
  723SOL     H116888   3.811   3.035   0.449
  723SOL     H216889   3.902   3.131   0.523
  724SOL    OH216890   5.610   5.688   5.315
  724SOL     H116891   5.653   5.676   5.400
  724SOL     H216892   5.600   5.782   5.306
  725SOL    OH216893   1.532   4.709   5.072
  725SOL     H116894   1.547   4.614   5.068
  725SOL     H216895   1.599   4.745   5.013
  726SOL    OH216896   5.388   5.455   6.001
  726SOL     H116897   5.459   5.423   6.057
  726SOL     H216898   5.432   5.496   5.927
  727SOL    OH216899   0.040   3.098   1.184
  727SOL     H116900   6.239   3.090   1.209
  727SOL     H216901   0.048   3.188   1.150
  728SOL    OH216902   4.114   0.596   4.263
  728SOL     H116903   4.044   0.659   4.279
  728SOL     H216904   4.187   0.648   4.233
  729SOL    OH216905   3.199   0.540   0.227
  729SOL     H116906   3.146   0.620   0.219
  729SOL     H216907   3.201   0.504   0.138
  730SOL    OH216908   2.061   1.476   1.073
  730SOL     H116909   2.027   1.405   1.128
  730SOL     H216910   2.012   1.553   1.101
  731SOL    OH216911   0.167   1.611   1.320
  731SOL     H116912   0.228   1.666   1.270
  731SOL     H216913   0.212   1.596   1.403
  732SOL    OH216914   4.310   4.436   5.091
  732SOL     H116915   4.266   4.520   5.081
  732SOL     H216916   4.241   4.371   5.082
  733SOL    OH216917   2.859   3.327   6.087
  733SOL     H116918   2.916   3.253   6.108
  733SOL     H216919   2.910   3.381   6.027
  734SOL    OH216920   1.935   5.960   5.418
  734SOL     H116921   1.897   6.012   5.348
  734SOL     H216922   2.019   6.001   5.436
  735SOL    OH216923   2.587   4.423   6.138
  735SOL     H116924   2.599   4.485   6.066
  735SOL     H216925   2.671   4.424   6.185
  736SOL    OH216926   4.054   2.328   5.084
  736SOL     H116927   4.007   2.347   5.165
  736SOL     H216928   3.986   2.325   5.017
  737SOL    OH216929   4.926   1.001   4.624
  737SOL     H116930   4.889   1.089   4.618
  737SOL     H216931   4.908   0.961   4.539
  738SOL    OH216932   3.068   5.377   0.681
  738SOL     H116933   3.077   5.296   0.631
  738SOL     H216934   3.059   5.349   0.772
  739SOL    OH216935   3.323   1.355   0.783
  739SOL     H116936   3.380   1.295   0.832
  739SOL     H216937   3.238   1.312   0.783
  740SOL    OH216938   3.784   2.412   0.320
  740SOL     H116939   3.842   2.340   0.345
  740SOL     H216940   3.830   2.458   0.250
  741SOL    OH216941   3.196   6.287   5.255
  741SOL     H116942   3.209   6.238   5.174
  741SOL     H216943   3.178   6.220   5.321
  742SOL    OH216944   4.090   3.057   4.986
  742SOL     H116945   4.126   2.997   5.051
  742SOL     H216946   4.160   3.066   4.921
  743SOL    OH216947   0.892   3.589   1.052
  743SOL     H116948   0.979   3.594   1.011
  743SOL     H216949   0.908   3.541   1.134
  744SOL    OH216950   1.427   5.904   5.211
  744SOL     H116951   1.422   5.841   5.139
  744SOL     H216952   1.375   5.865   5.281
  745SOL    OH216953   5.899   5.077   6.167
  745SOL     H116954   5.982   5.029   6.175
  745SOL     H216955   5.884   5.083   6.073
  746SOL    OH216956   6.179   2.949   0.412
  746SOL     H116957   6.103   2.891   0.412
  746SOL     H216958   6.142   3.037   0.413
  747SOL    OH216959   5.913   5.401   0.956
  747SOL     H116960   5.939   5.337   0.890
  747SOL     H216961   5.975   5.387   1.028
  748SOL    OH216962   0.268   3.025   5.624
  748SOL     H116963   0.245   3.037   5.532
  748SOL     H216964   0.206   3.081   5.672
  749SOL    OH216965   0.306   0.165   5.670
  749SOL     H116966   0.238   0.103   5.695
  749SOL     H216967   0.266   0.251   5.682
  750SOL    OH216968   4.672   5.867   6.008
  750SOL     H116969   4.582   5.895   5.992
  750SOL     H216970   4.706   5.931   6.070
  751SOL    OH216971   3.116   1.510   0.433
  751SOL     H116972   3.078   1.467   0.509
  751SOL     H216973   3.045   1.562   0.396
  752SOL    OH216974   0.874   0.613   1.569
  752SOL     H116975   0.800   0.584   1.623
  752SOL     H216976   0.939   0.544   1.579
  753SOL    OH216977   1.646   0.702   0.082
  753SOL     H116978   1.737   0.690   0.058
  753SOL     H216979   1.649   0.754   0.163
  754SOL    OH216980   4.381   1.510   4.681
  754SOL     H116981   4.431   1.478   4.756
  754SOL     H216982   4.309   1.448   4.672
  755SOL    OH216983   0.345   3.215   0.916
  755SOL     H116984   0.415   3.164   0.875
  755SOL     H216985   0.276   3.150   0.933
  756SOL    OH216986   1.507   5.381   4.909
  756SOL     H116987   1.552   5.308   4.952
  756SOL     H216988   1.572   5.416   4.848
  757SOL    OH216989   4.350   1.571   0.904
  757SOL     H116990   4.360   1.491   0.955
  757SOL     H216991   4.265   1.606   0.930
  758SOL    OH216992   0.616   4.387   6.210
  758SOL     H116993   0.609   4.421   6.300
  758SOL     H216994   0.560   4.445   6.159
  759SOL    OH216995   2.450   3.941   6.003
  759SOL     H116996   2.419   3.871   6.061
  759SOL     H216997   2.539   3.913   5.979
  760SOL    OH216998   1.017   5.430   0.125
  760SOL     H116999   1.000   5.337   0.135
  760SOL     H217000   1.075   5.436   0.050
  761SOL    OH217001   2.397   5.705   0.198
  761SOL     H117002   2.444   5.776   0.242
  761SOL     H217003   2.397   5.633   0.262
  762SOL    OH217004   2.125   0.752   0.141
  762SOL     H117005   2.209   0.796   0.122
  762SOL     H217006   2.150   0.664   0.170
  763SOL    OH217007   2.818   3.006   0.136
  763SOL     H117008   2.851   2.961   0.214
  763SOL     H217009   2.840   2.947   0.063
  764SOL    OH217010   1.073   5.460   5.978
  764SOL     H117011   1.035   5.397   5.917
  764SOL     H217012   1.000   5.517   6.002
  765SOL    OH217013   3.389   4.731   1.076
  765SOL     H117014   3.313   4.725   1.133
  765SOL     H217015   3.463   4.743   1.136
  766SOL    OH217016   4.301   1.480   5.568
  766SOL     H117017   4.372   1.431   5.608
  766SOL     H217018   4.225   1.461   5.623
  767SOL    OH217019   2.214   1.526   0.857
  767SOL     H117020   2.159   1.504   0.932
  767SOL     H217021   2.155   1.521   0.781
  768SOL    OH217022   1.896   4.212   4.990
  768SOL     H117023   1.972   4.160   5.016
  768SOL     H217024   1.832   4.148   4.960
  769SOL    OH217025   0.549   0.419   1.602
  769SOL     H117026   0.630   0.374   1.578
  769SOL     H217027   0.578   0.495   1.653
  770SOL    OH217028   0.266   2.271   5.862
  770SOL     H117029   0.205   2.235   5.798
  770SOL     H217030   0.334   2.313   5.810
  771SOL    OH217031   5.267   0.745   5.411
  771SOL     H117032   5.203   0.719   5.478
  771SOL     H217033   5.276   0.840   5.422
  772SOL    OH217034   5.664   2.095   6.234
  772SOL     H117035   5.719   2.170   6.213
  772SOL     H217036   5.704   2.057   6.312
  773SOL    OH217037   1.067   5.996   1.593
  773SOL     H117038   1.124   6.072   1.584
  773SOL     H217039   1.105   5.946   1.666
  774SOL    OH217040   3.755   0.314   0.345
  774SOL     H117041   3.675   0.284   0.390
  774SOL     H217042   3.823   0.253   0.374
  775SOL    OH217043   5.295   6.134   5.685
  775SOL     H117044   5.362   6.080   5.727
  775SOL     H217045   5.330   6.223   5.687
  776SOL    OH217046   5.632   5.997   0.984
  776SOL     H117047   5.574   6.073   0.978
  776SOL     H217048   5.641   5.980   1.078
  777SOL    OH217049   2.529   5.065   0.491
  777SOL     H117050   2.452   5.106   0.529
  777SOL     H217051   2.603   5.112   0.530
  778SOL    OH217052   1.615   5.605   0.594
  778SOL     H117053   1.561   5.648   0.661
  778SOL     H217054   1.583   5.639   0.511
  779SOL    OH217055   5.086   4.242   0.146
  779SOL     H117056   5.069   4.250   0.052
  779SOL     H217057   5.169   4.288   0.160
  780SOL    OH217058   3.986   3.028   5.402
  780SOL     H117059   4.070   2.988   5.427
  780SOL     H217060   3.986   3.113   5.447
  781SOL    OH217061   2.009   2.558   0.369
  781SOL     H117062   2.081   2.592   0.423
  781SOL     H217063   1.930   2.588   0.414
  782SOL    OH217064   4.590   5.897   4.710
  782SOL     H117065   4.551   5.831   4.653
  782SOL     H217066   4.648   5.848   4.768
  783SOL    OH217067   3.606   1.159   5.334
  783SOL     H117068   3.562   1.074   5.327
  783SOL     H217069   3.537   1.223   5.314
  784SOL    OH217070   6.212   1.551   0.435
  784SOL     H117071   6.275   1.493   0.391
  784SOL     H217072   6.168   1.596   0.363
  785SOL    OH217073   3.493   2.460   0.769
  785SOL     H117074   3.584   2.435   0.753
  785SOL     H217075   3.493   2.494   0.859
  786SOL    OH217076   4.145   4.011   0.782
  786SOL     H117077   4.064   4.036   0.738
  786SOL     H217078   4.199   3.972   0.713
  787SOL    OH217079   0.289   0.040   0.062
  787SOL     H117080   0.272   0.134   0.068
  787SOL     H217081   0.209   6.330   0.096
  788SOL    OH217082   2.618   2.189   0.713
  788SOL     H117083   2.542   2.165   0.660
  788SOL     H217084   2.585   2.255   0.774
  789SOL    OH217085   5.799   0.225   4.688
  789SOL     H117086   5.779   0.132   4.688
  789SOL     H217087   5.800   0.250   4.595
  790SOL    OH217088   2.337   5.992   6.243
  790SOL     H117089   2.405   6.059   6.247
  790SOL     H217090   2.384   5.910   6.255
  791SOL    OH217091   4.548   6.042   0.478
  791SOL     H117092   4.618   6.062   0.416
  791SOL     H217093   4.475   6.011   0.424
  792SOL    OH217094   1.185   5.359   4.403
  792SOL     H117095   1.219   5.288   4.349
  792SOL     H217096   1.247   5.431   4.389
  793SOL    OH217097   1.981   0.680   5.420
  793SOL     H117098   2.060   0.713   5.378
  793SOL     H217099   1.909   0.717   5.370
  794SOL    OH217100   1.838   0.339   5.281
  794SOL     H117101   1.831   0.411   5.219
  794SOL     H217102   1.868   0.265   5.229
  795SOL    OH217103   2.860   4.581   0.215
  795SOL     H117104   2.925   4.581   0.286
  795SOL     H217105   2.851   4.488   0.191
  796SOL    OH217106   3.205   4.817   2.166
  796SOL     H117107   3.186   4.723   2.159
  796SOL     H217108   3.156   4.846   2.243
  797SOL    OH217109   2.041   3.425   0.941
  797SOL     H117110   2.094   3.429   1.020
  797SOL     H217111   1.961   3.473   0.964
  798SOL    OH217112   0.124   1.174   5.936
  798SOL     H117113   0.126   1.218   6.021
  798SOL     H217114   0.173   1.093   5.950
  799SOL    OH217115   0.627   2.360   1.169
  799SOL     H117116   0.589   2.448   1.164
  799SOL     H217117   0.628   2.340   1.262
  800SOL    OH217118   3.074   1.943   4.874
  800SOL     H117119   3.128   2.020   4.856
  800SOL     H217120   3.123   1.870   4.834
  801SOL    OH217121   3.193   2.844   0.550
  801SOL     H117122   3.101   2.843   0.576
  801SOL     H217123   3.224   2.756   0.571
  802SOL    OH217124   0.253   4.647   5.909
  802SOL     H117125   0.241   4.562   5.867
  802SOL     H217126   0.167   4.669   5.944
  803SOL    OH217127   0.792   6.147   6.350
  803SOL     H117128   0.866   6.147   6.290
  803SOL     H217129   0.805   6.069   0.046
  804SOL    OH217130   3.325   2.665   1.647
  804SOL     H117131   3.245   2.678   1.596
  804SOL     H217132   3.389   2.635   1.583
  805SOL    OH217133   5.697   5.635   4.580
  805SOL     H117134   5.680   5.729   4.587
  805SOL     H217135   5.612   5.595   4.601
  806SOL    OH217136   3.419   5.568   2.047
  806SOL     H117137   3.461   5.504   2.106
  806SOL     H217138   3.357   5.515   1.996
  807SOL    OH217139   4.298   3.025   0.584
  807SOL     H117140   4.225   2.968   0.561
  807SOL     H217141   4.268   3.073   0.661
  808SOL    OH217142   1.066   0.884   0.985
  808SOL     H117143   1.076   0.842   1.071
  808SOL     H217144   1.031   0.815   0.929
  809SOL    OH217145   0.857   6.048   4.909
  809SOL     H117146   0.862   6.009   4.822
  809SOL     H217147   0.948   6.068   4.931
  810SOL    OH217148   3.617   0.676   1.453
  810SOL     H117149   3.658   0.737   1.391
  810SOL     H217150   3.569   0.733   1.513
  811SOL    OH217151   4.113   5.256   5.226
  811SOL     H117152   4.192   5.282   5.177
  811SOL     H217153   4.096   5.166   5.198
  812SOL    OH217154   6.155   4.099   5.669
  812SOL     H117155   6.072   4.145   5.656
  812SOL     H217156   6.219   4.151   5.621
  813SOL    OH217157   1.072   5.544   1.702
  813SOL     H117158   1.148   5.566   1.757
  813SOL     H217159   1.002   5.601   1.734
  814SOL    OH217160   5.443   3.555   1.667
  814SOL     H117161   5.489   3.586   1.589
  814SOL     H217162   5.482   3.606   1.739
  815SOL    OH217163   3.353   2.845   5.155
  815SOL     H117164   3.343   2.806   5.068
  815SOL     H217165   3.445   2.830   5.177
  816SOL    OH217166   2.788   5.408   1.628
  816SOL     H117167   2.710   5.354   1.625
  816SOL     H217168   2.803   5.424   1.721
  817SOL    OH217169   2.635   0.890   5.118
  817SOL     H117170   2.547   0.858   5.134
  817SOL     H217171   2.624   0.983   5.102
  818SOL    OH217172   2.018   0.411   5.475
  818SOL     H117173   2.011   0.505   5.462
  818SOL     H217174   1.964   0.373   5.406
  819SOL    OH217175   4.132   6.154   6.104
  819SOL     H117176   4.192   6.222   6.075
  819SOL     H217177   4.187   6.093   6.154
  820SOL    OH217178   2.992   3.722   5.372
  820SOL     H117179   3.043   3.721   5.453
  820SOL     H217180   3.005   3.810   5.336
  821SOL    OH217181   4.661   1.901   4.237
  821SOL     H117182   4.755   1.887   4.249
  821SOL     H217183   4.647   1.991   4.266
  822SOL    OH217184   2.570   0.503   0.613
  822SOL     H117185   2.612   0.491   0.699
  822SOL     H217186   2.515   0.581   0.624
  823SOL    OH217187   4.254   1.194   0.524
  823SOL     H117188   4.193   1.241   0.582
  823SOL     H217189   4.311   1.146   0.584
  824SOL    OH217190   5.368   5.519   0.645
  824SOL     H117191   5.428   5.455   0.685
  824SOL     H217192   5.301   5.534   0.711
  825SOL    OH217193   2.239   5.080   4.832
  825SOL     H117194   2.274   5.013   4.773
  825SOL     H217195   2.292   5.158   4.815
  826SOL    OH217196   2.444   3.768   5.018
  826SOL     H117197   2.531   3.733   5.003
  826SOL     H217198   2.410   3.787   4.931
  827SOL    OH217199   0.817   3.316   6.005
  827SOL     H117200   0.795   3.393   5.952
  827SOL     H217201   0.760   3.247   5.972
  828SOL    OH217202   5.288   4.803   1.146
  828SOL     H117203   5.313   4.881   1.195
  828SOL     H217204   5.226   4.757   1.203
  829SOL    OH217205   5.521   6.310   4.872
  829SOL     H117206   5.601   6.326   4.923
  829SOL     H217207   5.543   6.236   4.817
  830SOL    OH217208   2.426   0.734   0.636
  830SOL     H117209   2.458   0.818   0.669
  830SOL     H217210   2.334   0.749   0.615
  831SOL    OH217211   4.346   4.624   1.041
  831SOL     H117212   4.335   4.542   1.091
  831SOL     H217213   4.265   4.631   0.990
  832SOL    OH217214   4.389   4.862   5.776
  832SOL     H117215   4.443   4.937   5.804
  832SOL     H217216   4.404   4.855   5.682
  833SOL    OH217217   4.560   3.450   0.611
  833SOL     H117218   4.488   3.464   0.672
  833SOL     H217219   4.522   3.400   0.539
  834SOL    OH217220   0.441   0.809   0.482
  834SOL     H117221   0.383   0.744   0.522
  834SOL     H217222   0.529   0.780   0.506
  835SOL    OH217223   1.222   1.847   5.415
  835SOL     H117224   1.241   1.897   5.495
  835SOL     H217225   1.158   1.901   5.369
  836SOL    OH217226   0.777   1.530   0.359
  836SOL     H117227   0.761   1.558   0.449
  836SOL     H217228   0.743   1.440   0.355
  837SOL    OH217229   3.661   0.777   5.541
  837SOL     H117230   3.654   0.786   5.636
  837SOL     H217231   3.572   0.753   5.514
  838SOL    OH217232   1.315   3.369   6.233
  838SOL     H117233   1.224   3.354   6.207
  838SOL     H217234   1.364   3.297   6.195
  839SOL    OH217235   0.035   0.310   0.495
  839SOL     H117236   0.072   0.304   0.583
  839SOL     H217237   6.235   0.335   0.509
  840SOL    OH217238   4.656   1.481   0.166
  840SOL     H117239   4.617   1.441   0.244
  840SOL     H217240   4.698   1.408   0.121
  841SOL    OH217241   5.492   3.464   6.119
  841SOL     H117242   5.420   3.421   6.074
  841SOL     H217243   5.571   3.423   6.083
  842SOL    OH217244   0.932   4.914   4.922
  842SOL     H117245   0.982   4.946   4.847
  842SOL     H217246   0.940   4.818   4.918
  843SOL    OH217247   0.816   0.085   0.089
  843SOL     H117248   0.806   6.322   0.071
  843SOL     H217249   0.733   0.110   0.131
  844SOL    OH217250   1.579   4.762   0.047
  844SOL     H117251   1.486   4.764   0.025
  844SOL     H217252   1.615   4.693   6.348
  845SOL    OH217253   3.406   4.738   0.370
  845SOL     H117254   3.390   4.750   0.276
  845SOL     H217255   3.458   4.658   0.375
  846SOL    OH217256   4.894   4.702   6.280
  846SOL     H117257   4.815   4.741   6.241
  846SOL     H217258   4.952   4.685   6.205
  847SOL    OH217259   2.622   2.242   6.099
  847SOL     H117260   2.634   2.213   6.009
  847SOL     H217261   2.671   2.324   6.105
  848SOL    OH217262   5.297   2.948   5.707
  848SOL     H117263   5.261   3.026   5.749
  848SOL     H217264   5.348   2.983   5.633
  849SOL    OH217265   5.798   2.664   5.658
  849SOL     H117266   5.720   2.616   5.685
  849SOL     H217267   5.841   2.688   5.740
  850SOL    OH217268   6.222   2.379   0.294
  850SOL     H117269   6.174   2.383   0.377
  850SOL     H217270   6.291   2.445   0.303
  851SOL    OH217271   2.454   5.745   6.283
  851SOL     H117272   2.530   5.691   6.262
  851SOL     H217273   2.435   5.725   0.017
  852SOL    OH217274   1.358   1.905   1.348
  852SOL     H117275   1.387   1.995   1.359
  852SOL     H217276   1.377   1.884   1.256
  853SOL    OH217277   6.052   6.131   1.048
  853SOL     H117278   6.064   6.150   0.955
  853SOL     H217279   5.978   6.186   1.075
  854SOL    OH217280   0.727   4.984   1.137
  854SOL     H117281   0.683   5.035   1.204
  854SOL     H217282   0.747   5.047   1.068
  855SOL    OH217283   4.319   4.047   6.129
  855SOL     H117284   4.358   4.057   6.043
  855SOL     H217285   4.382   4.087   6.189
  856SOL    OH217286   1.673   0.308   5.504
  856SOL     H117287   1.721   0.357   5.570
  856SOL     H217288   1.726   0.317   5.424
  857SOL    OH217289   3.126   3.085   5.553
  857SOL     H117290   3.111   3.178   5.571
  857SOL     H217291   3.051   3.058   5.501
  858SOL    OH217292   3.899   4.441   5.856
  858SOL     H117293   3.816   4.424   5.901
  858SOL     H217294   3.913   4.535   5.868
  859SOL    OH217295   3.498   0.114   6.308
  859SOL     H117296   3.572   0.128   0.009
  859SOL     H217297   3.439   0.057   6.357
  860SOL    OH217298   2.630   5.918   1.817
  860SOL     H117299   2.627   6.012   1.797
  860SOL     H217300   2.720   5.903   1.847
  861SOL    OH217301   4.775   5.450   5.896
  861SOL     H117302   4.866   5.431   5.874
  861SOL     H217303   4.780   5.519   5.962
  862SOL    OH217304   2.277   3.464   5.968
  862SOL     H117305   2.202   3.491   6.022
  862SOL     H217306   2.351   3.465   6.029
  863SOL    OH217307   2.160   1.579   0.399
  863SOL     H117308   2.238   1.526   0.411
  863SOL     H217309   2.140   1.573   0.306
  864SOL    OH217310   3.026   4.006   0.796
  864SOL     H117311   2.931   4.011   0.783
  864SOL     H217312   3.048   4.087   0.842
  865SOL    OH217313   0.896   4.562   5.208
  865SOL     H117314   0.962   4.524   5.267
  865SOL     H217315   0.945   4.582   5.128
  866SOL    OH217316   0.865   2.245   4.493
  866SOL     H117317   0.915   2.287   4.564
  866SOL     H217318   0.916   2.168   4.470
  867SOL    OH217319   4.142   1.567   5.360
  867SOL     H117320   4.203   1.525   5.420
  867SOL     H217321   4.183   1.651   5.339
  868SOL    OH217322   3.236   5.284   4.850
  868SOL     H117323   3.170   5.217   4.831
  868SOL     H217324   3.190   5.349   4.903
  869SOL    OH217325   4.396   5.351   0.671
  869SOL     H117326   4.316   5.310   0.637
  869SOL     H217327   4.457   5.349   0.597
  870SOL    OH217328   2.876   5.068   5.586
  870SOL     H117329   2.814   5.138   5.605
  870SOL     H217330   2.847   5.033   5.501
  871SOL    OH217331   5.449   3.035   1.580
  871SOL     H117332   5.360   3.009   1.604
  871SOL     H217333   5.459   3.122   1.619
  872SOL    OH217334   2.198   2.439   6.327
  872SOL     H117335   2.289   2.414   6.315
  872SOL     H217336   2.176   2.410   0.058
  873SOL    OH217337   5.114   1.610   4.880
  873SOL     H117338   5.141   1.654   4.799
  873SOL     H217339   5.055   1.540   4.850
  874SOL    OH217340   4.181   2.878   5.163
  874SOL     H117341   4.263   2.829   5.159
  874SOL     H217342   4.124   2.823   5.217
  875SOL    OH217343   3.495   0.794   0.610
  875SOL     H117344   3.439   0.737   0.557
  875SOL     H217345   3.584   0.773   0.582
  876SOL    OH217346   0.536   1.156   5.888
  876SOL     H117347   0.446   1.127   5.903
  876SOL     H217348   0.539   1.244   5.925
  877SOL    OH217349   5.040   5.432   0.398
  877SOL     H117350   5.016   5.372   0.468
  877SOL     H217351   5.004   5.393   0.318
  878SOL    OH217352   1.627   2.735   5.375
  878SOL     H117353   1.702   2.794   5.369
  878SOL     H217354   1.653   2.671   5.441
  879SOL    OH217355   2.707   3.884   5.907
  879SOL     H117356   2.699   3.976   5.880
  879SOL     H217357   2.772   3.886   5.977
  880SOL    OH217358   0.789   4.000   5.854
  880SOL     H117359   0.715   3.943   5.876
  880SOL     H217360   0.828   4.022   5.939
  881SOL    OH217361   3.773   2.202   5.490
  881SOL     H117362   3.735   2.226   5.575
  881SOL     H217363   3.713   2.138   5.453
  882SOL    OH217364   3.631   4.763   0.732
  882SOL     H117365   3.686   4.795   0.803
  882SOL     H217366   3.567   4.705   0.774
  883SOL    OH217367   1.980   0.628   5.694
  883SOL     H117368   1.917   0.556   5.695
  883SOL     H217369   1.981   0.658   5.603
  884SOL    OH217370   3.671   5.807   1.725
  884SOL     H117371   3.581   5.804   1.691
  884SOL     H217372   3.669   5.750   1.802
  885SOL    OH217373   6.018   0.679   4.326
  885SOL     H117374   5.942   0.733   4.345
  885SOL     H217375   5.994   0.630   4.247
  886SOL    OH217376   1.168   0.913   1.439
  886SOL     H117377   1.133   0.985   1.386
  886SOL     H217378   1.150   0.940   1.529
  887SOL    OH217379   1.286   4.479   5.222
  887SOL     H117380   1.263   4.508   5.134
  887SOL     H217381   1.331   4.553   5.261
  888SOL    OH217382   2.504   0.497   6.304
  888SOL     H117383   2.594   0.501   6.271
  888SOL     H217384   2.460   0.572   6.264
  889SOL    OH217385   6.152   0.270   0.181
  889SOL     H117386   6.095   0.315   0.119
  889SOL     H217387   6.227   0.329   0.192
  890SOL    OH217388   2.907   4.827   0.468
  890SOL     H117389   2.845   4.759   0.491
  890SOL     H217390   2.993   4.788   0.483
  891SOL    OH217391   4.185   3.235   1.356
  891SOL     H117392   4.227   3.279   1.430
  891SOL     H217393   4.145   3.158   1.394
  892SOL    OH217394   4.318   0.000   6.027
  892SOL     H117395   4.413   0.006   6.018
  892SOL     H217396   4.284   0.018   5.940
  893SOL    OH217397   0.721   1.450   1.708
  893SOL     H117398   0.665   1.400   1.768
  893SOL     H217399   0.661   1.512   1.666
  894SOL    OH217400   3.367   0.976   0.304
  894SOL     H117401   3.433   0.912   0.279
  894SOL     H217402   3.396   1.009   0.389
  895SOL    OH217403   2.500   4.769   4.890
  895SOL     H117404   2.587   4.791   4.925
  895SOL     H217405   2.501   4.674   4.880
  896SOL    OH217406   5.668   3.517   5.653
  896SOL     H117407   5.752   3.561   5.641
  896SOL     H217408   5.688   3.440   5.706
  897SOL    OH217409   1.519   2.745   1.620
  897SOL     H117410   1.450   2.808   1.602
  897SOL     H217411   1.600   2.797   1.622
  898SOL    OH217412   2.822   0.102   0.264
  898SOL     H117413   2.880   0.123   0.336
  898SOL     H217414   2.790   0.187   0.233
  899SOL    OH217415   2.526   6.187   6.246
  899SOL     H117416   2.592   6.211   6.311
  899SOL     H217417   2.528   6.259   6.182
  900SOL    OH217418   4.800   3.345   0.538
  900SOL     H117419   4.781   3.252   0.522
  900SOL     H217420   4.723   3.378   0.582
  901SOL    OH217421   3.763   1.469   0.083
  901SOL     H117422   3.797   1.490   0.170
  901SOL     H217423   3.840   1.442   0.033
  902SOL    OH217424   0.140   0.287   0.749
  902SOL     H117425   0.123   0.235   0.827
  902SOL     H217426   0.216   0.244   0.708
  903SOL    OH217427   4.531   2.800   4.914
  903SOL     H117428   4.624   2.781   4.908
  903SOL     H217429   4.526   2.896   4.914
  904SOL    OH217430   4.504   1.714   6.235
  904SOL     H117431   4.561   1.657   6.183
  904SOL     H217432   4.563   1.781   6.271
  905SOL    OH217433   3.679   5.879   5.425
  905SOL     H117434   3.681   5.784   5.417
  905SOL     H217435   3.662   5.911   5.337
  906SOL    OH217436   3.165   4.316   5.253
  906SOL     H117437   3.193   4.263   5.327
  906SOL     H217438   3.245   4.355   5.219
  907SOL    OH217439   6.246   4.594   6.120
  907SOL     H117440   6.276   4.678   6.084
  907SOL     H217441   6.187   4.618   6.192
  908SOL    OH217442   3.128   2.114   0.495
  908SOL     H117443   3.221   2.115   0.471
  908SOL     H217444   3.105   2.207   0.504
  909SOL    OH217445   0.351   0.646   5.612
  909SOL     H117446   0.383   0.717   5.669
  909SOL     H217447   0.399   0.569   5.641
  910SOL    OH217448   5.772   3.464   1.394
  910SOL     H117449   5.839   3.458   1.462
  910SOL     H217450   5.821   3.477   1.313
  911SOL    OH217451   3.508   4.823   1.824
  911SOL     H117452   3.417   4.850   1.835
  911SOL     H217453   3.542   4.818   1.914
  912SOL    OH217454   2.258   6.231   0.182
  912SOL     H117455   2.216   6.149   0.156
  912SOL     H217456   2.226   6.296   0.119
  913SOL    OH217457   1.007   5.707   5.438
  913SOL     H117458   0.934   5.731   5.380
  913SOL     H217459   0.990   5.615   5.460
  914SOL    OH217460   3.745   5.437   1.169
  914SOL     H117461   3.668   5.399   1.126
  914SOL     H217462   3.801   5.361   1.188
  915SOL    OH217463   3.176   0.917   5.758
  915SOL     H117464   3.174   0.829   5.721
  915SOL     H217465   3.162   0.904   5.852
  916SOL    OH217466   3.803   5.416   0.504
  916SOL     H117467   3.805   5.503   0.545
  916SOL     H217468   3.886   5.410   0.456
  917SOL    OH217469   4.649   1.272   5.941
  917SOL     H117470   4.612   1.290   6.028
  917SOL     H217471   4.722   1.212   5.957
  918SOL    OH217472   2.424   1.293   1.030
  918SOL     H117473   2.354   1.251   1.081
  918SOL     H217474   2.428   1.382   1.064
  919SOL    OH217475   0.058   5.046   5.284
  919SOL     H117476   0.084   4.972   5.229
  919SOL     H217477   0.033   5.007   5.368
  920SOL    OH217478   2.621   5.095   6.175
  920SOL     H117479   2.680   5.142   6.233
  920SOL     H217480   2.533   5.115   6.208
  921SOL    OH217481   3.324   1.212   5.540
  921SOL     H117482   3.367   1.137   5.582
  921SOL     H217483   3.297   1.267   5.613
  922SOL    OH217484   0.200   2.107   5.307
  922SOL     H117485   0.190   2.026   5.357
  922SOL     H217486   0.131   2.164   5.339
  923SOL    OH217487   4.866   0.125   6.072
  923SOL     H117488   4.853   0.068   5.996
  923SOL     H217489   4.832   0.074   6.146
  924SOL    OH217490   2.725   3.958   0.484
  924SOL     H117491   2.672   4.013   0.426
  924SOL     H217492   2.812   3.956   0.443
  925SOL    OH217493   4.191   4.670   5.652
  925SOL     H117494   4.250   4.649   5.580
  925SOL     H217495   4.247   4.709   5.719
  926SOL    OH217496   6.062   0.362   0.534
  926SOL     H117497   5.995   0.419   0.495
  926SOL     H217498   6.038   0.358   0.627
  927SOL    OH217499   3.523   2.851   1.019
  927SOL     H117500   3.511   2.805   1.102
  927SOL     H217501   3.465   2.807   0.957
  928SOL    OH217502   5.066   3.733   1.076
  928SOL     H117503   5.114   3.672   1.020
  928SOL     H217504   5.131   3.766   1.138
  929SOL    OH217505   4.423   5.561   5.818
  929SOL     H117506   4.459   5.573   5.906
  929SOL     H217507   4.376   5.642   5.800
  930SOL    OH217508   6.285   3.714   5.245
  930SOL     H117509   6.253   3.705   5.155
  930SOL     H217510   6.230   3.783   5.283
  931SOL    OH217511   5.763   0.358   1.166
  931SOL     H117512   5.677   0.316   1.166
  931SOL     H217513   5.824   0.287   1.187
  932SOL    OH217514   2.967   3.912   0.364
  932SOL     H117515   2.979   3.906   0.269
  932SOL     H217516   2.969   3.821   0.395
  933SOL    OH217517   2.791   1.342   6.125
  933SOL     H117518   2.709   1.302   6.097
  933SOL     H217519   2.781   1.435   6.103
  934SOL    OH217520   1.848   0.502   0.611
  934SOL     H117521   1.790   0.568   0.574
  934SOL     H217522   1.932   0.516   0.567
  935SOL    OH217523   4.649   2.430   4.978
  935SOL     H117524   4.565   2.412   4.935
  935SOL     H217525   4.707   2.454   4.906
  936SOL    OH217526   5.342   0.078   5.678
  936SOL     H117527   5.318   0.108   5.766
  936SOL     H217528   5.271   0.110   5.622
  937SOL    OH217529   6.062   1.763   5.838
  937SOL     H117530   5.999   1.797   5.901
  937SOL     H217531   6.111   1.696   5.886
  938SOL    OH217532   3.571   3.943   1.618
  938SOL     H117533   3.613   4.027   1.596
  938SOL     H217534   3.594   3.886   1.545
  939SOL    OH217535   4.994   0.221   0.441
  939SOL     H117536   4.954   0.158   0.500
  939SOL     H217537   4.927   0.288   0.428
  940SOL    OH217538   0.699   0.279   5.854
  940SOL     H117539   0.704   0.360   5.905
  940SOL     H217540   0.781   0.233   5.872
  941SOL    OH217541   3.185   4.448   6.329
  941SOL     H117542   3.182   4.438   0.067
  941SOL     H217543   3.176   4.358   6.296
  942SOL    OH217544   0.247   4.585   0.620
  942SOL     H117545   0.254   4.654   0.686
  942SOL     H217546   0.154   4.561   0.620
  943SOL    OH217547   3.724   4.648   5.554
  943SOL     H117548   3.805   4.692   5.578
  943SOL     H217549   3.726   4.644   5.458
  944SOL    OH217550   4.127   0.883   5.127
  944SOL     H117551   4.161   0.940   5.195
  944SOL     H217552   4.129   0.795   5.166
  945SOL    OH217553   1.801   5.233   5.311
  945SOL     H117554   1.854   5.164   5.351
  945SOL     H217555   1.760   5.192   5.235
  946SOL    OH217556   4.635   2.363   5.584
  946SOL     H117557   4.561   2.301   5.576
  946SOL     H217558   4.680   2.335   5.664
  947SOL    OH217559   3.083   5.750   0.854
  947SOL     H117560   2.994   5.786   0.851
  947SOL     H217561   3.075   5.673   0.911
  948SOL    OH217562   0.059   2.488   5.257
  948SOL     H117563   0.035   2.556   5.194
  948SOL     H217564   0.155   2.484   5.253
  949SOL    OH217565   0.007   0.162   1.082
  949SOL     H117566   6.252   0.127   1.158
  949SOL     H217567   0.095   0.123   1.088
  950SOL    OH217568   4.183   0.583   0.724
  950SOL     H117569   4.137   0.552   0.646
  950SOL     H217570   4.164   0.517   0.791
  951SOL    OH217571   5.474   2.581   0.698
  951SOL     H117572   5.503   2.511   0.639
  951SOL     H217573   5.465   2.538   0.783
  952SOL    OH217574   2.697   5.220   5.947
  952SOL     H117575   2.667   5.179   6.027
  952SOL     H217576   2.700   5.148   5.883
  953SOL    OH217577   1.961   4.469   5.042
  953SOL     H117578   1.945   4.376   5.029
  953SOL     H217579   1.902   4.512   4.979
  954SOL    OH217580   2.959   0.216   0.466
  954SOL     H117581   3.046   0.254   0.453
  954SOL     H217582   2.902   0.293   0.480
  955SOL    OH217583   2.860   1.077   1.142
  955SOL     H117584   2.881   0.996   1.096
  955SOL     H217585   2.812   1.048   1.220
  956SOL    OH217586   0.103   0.661   0.358
  956SOL     H117587   0.014   0.679   0.389
  956SOL     H217588   0.157   0.666   0.437
  957SOL    OH217589   5.779   4.655   0.750
  957SOL     H117590   5.827   4.631   0.671
  957SOL     H217591   5.848   4.676   0.814
  958SOL    OH217592   5.684   2.757   1.250
  958SOL     H117593   5.757   2.818   1.237
  958SOL     H217594   5.659   2.769   1.342
  959SOL    OH217595   5.552   4.279   0.241
  959SOL     H117596   5.464   4.314   0.231
  959SOL     H217597   5.580   4.311   0.327
  960SOL    OH217598   6.047   0.323   4.768
  960SOL     H117599   5.957   0.292   4.757
  960SOL     H217600   6.083   0.326   4.680
  961SOL    OH217601   1.579   4.173   4.981
  961SOL     H117602   1.501   4.126   5.009
  961SOL     H217603   1.642   4.104   4.959
  962SOL    OH217604   3.402   0.534   4.639
  962SOL     H117605   3.362   0.464   4.691
  962SOL     H217606   3.402   0.500   4.549
  963SOL    OH217607   5.567   0.414   5.208
  963SOL     H117608   5.588   0.416   5.301
  963SOL     H217609   5.493   0.353   5.202
  964SOL    OH217610   1.275   3.093   5.286
  964SOL     H117611   1.270   3.125   5.376
  964SOL     H217612   1.297   3.000   5.295
  965SOL    OH217613   0.398   4.106   5.136
  965SOL     H117614   0.478   4.092   5.187
  965SOL     H217615   0.327   4.085   5.197
  966SOL    OH217616   2.795   1.515   5.537
  966SOL     H117617   2.716   1.461   5.543
  966SOL     H217618   2.774   1.582   5.473
  967SOL    OH217619   2.210   1.176   6.040
  967SOL     H117620   2.270   1.183   5.966
  967SOL     H217621   2.147   1.246   6.027
  968SOL    OH217622   3.516   5.257   1.106
  968SOL     H117623   3.448   5.196   1.135
  968SOL     H217624   3.571   5.205   1.047
  969SOL    OH217625   0.844   0.698   6.349
  969SOL     H117626   0.889   0.614   6.339
  969SOL     H217627   0.757   0.674   0.023
  970SOL    OH217628   0.113   2.100   0.626
  970SOL     H117629   0.165   2.075   0.549
  970SOL     H217630   0.129   2.193   0.637
  971SOL    OH217631   0.957   0.444   6.319
  971SOL     H117632   1.046   0.414   6.304
  971SOL     H217633   0.901   0.378   6.278
  972SOL    OH217634   0.656   1.280   0.356
  972SOL     H117635   0.676   1.189   0.335
  972SOL     H217636   0.615   1.276   0.443
  973SOL    OH217637   5.142   0.374   5.213
  973SOL     H117638   5.108   0.372   5.302
  973SOL     H217639   5.157   0.467   5.195
  974SOL    OH217640   2.660   1.402   0.387
  974SOL     H117641   2.733   1.341   0.378
  974SOL     H217642   2.672   1.465   0.316
  975SOL    OH217643   4.966   0.517   5.793
  975SOL     H117644   4.922   0.459   5.730
  975SOL     H217645   4.974   0.465   5.872
  976SOL    OH217646   2.137   3.298   5.797
  976SOL     H117647   2.194   3.348   5.857
  976SOL     H217648   2.161   3.207   5.812
  977SOL    OH217649   6.178   6.253   0.540
  977SOL     H117650   6.256   6.200   0.556
  977SOL     H217651   6.203   6.311   0.467
  978SOL    OH217652   3.502   0.560   1.225
  978SOL     H117653   3.556   0.594   1.296
  978SOL     H217654   3.481   0.470   1.252
  979SOL    OH217655   3.067   5.325   1.215
  979SOL     H117656   3.045   5.359   1.302
  979SOL     H217657   3.158   5.349   1.202
  980SOL    OH217658   0.229   4.140   0.942
  980SOL     H117659   0.293   4.111   1.007
  980SOL     H217660   0.165   4.069   0.938
  981SOL    OH217661   4.716   1.568   6.118
  981SOL     H117662   4.765   1.514   6.056
  981SOL     H217663   4.745   1.657   6.100
  982SOL    OH217664   6.008   1.941   5.243
  982SOL     H117665   5.922   1.964   5.279
  982SOL     H217666   5.994   1.856   5.202
  983SOL    OH217667   5.645   5.810   5.946
  983SOL     H117668   5.696   5.885   5.975
  983SOL     H217669   5.580   5.797   6.015
  984SOL    OH217670   0.925   3.126   5.768
  984SOL     H117671   0.834   3.139   5.796
  984SOL     H217672   0.924   3.040   5.725
  985SOL    OH217673   6.283   3.481   1.413
  985SOL     H117674   6.226   3.426   1.359
  985SOL     H217675   6.265   3.453   1.503
  986SOL    OH217676   2.549   3.801   5.681
  986SOL     H117677   2.468   3.767   5.717
  986SOL     H217678   2.596   3.836   5.757
  987SOL    OH217679   5.853   4.522   4.852
  987SOL     H117680   5.942   4.512   4.885
  987SOL     H217681   5.864   4.538   4.758
  988SOL    OH217682   0.700   3.497   5.747
  988SOL     H117683   0.693   3.424   5.686
  988SOL     H217684   0.637   3.561   5.716
  989SOL    OH217685   3.928   2.369   5.337
  989SOL     H117686   3.883   2.301   5.388
  989SOL     H217687   3.893   2.451   5.370
  990SOL    OH217688   0.841   2.395   5.380
  990SOL     H117689   0.913   2.358   5.430
  990SOL     H217690   0.817   2.325   5.318
  991SOL    OH217691   5.444   2.804   6.337
  991SOL     H117692   5.503   2.855   0.035
  991SOL     H217693   5.495   2.728   6.311
  992SOL    OH217694   4.328   1.151   5.066
  992SOL     H117695   4.296   1.142   4.976
  992SOL     H217696   4.421   1.171   5.056
  993SOL    OH217697   1.031   1.643   5.762
  993SOL     H117698   1.061   1.627   5.672
  993SOL     H217699   1.016   1.738   5.765
  994SOL    OH217700   1.280   3.081   5.935
  994SOL     H117701   1.239   3.144   5.876
  994SOL     H217702   1.207   3.044   5.986
  995SOL    OH217703   4.328   0.936   6.302
  995SOL     H117704   4.414   0.906   6.273
  995SOL     H217705   4.329   1.031   6.288
  996SOL    OH217706   0.383   2.456   0.427
  996SOL     H117707   0.392   2.418   0.514
  996SOL     H217708   0.466   2.501   0.412
  997SOL    OH217709   2.804   0.853   5.687
  997SOL     H117710   2.776   0.762   5.676
  997SOL     H217711   2.880   0.848   5.745
  998SOL    OH217712   1.316   5.512   0.368
  998SOL     H117713   1.378   5.585   0.358
  998SOL     H217714   1.233   5.546   0.334
  999SOL    OH217715   1.340   5.315   4.634
  999SOL     H117716   1.282   5.307   4.558
  999SOL     H217717   1.349   5.409   4.647
 1000SOL    OH217718   0.341   0.167   0.596
 1000SOL     H117719   0.340   0.083   0.641
 1000SOL     H217720   0.402   0.156   0.523
 1001SOL    OH217721   1.838   4.589   5.949
 1001SOL     H117722   1.890   4.592   6.029
 1001SOL     H217723   1.792   4.673   5.947
 1002SOL    OH217724   1.728   2.206   5.822
 1002SOL     H117725   1.817   2.225   5.852
 1002SOL     H217726   1.703   2.127   5.871
 1003SOL    OH217727   0.983   5.012   0.427
 1003SOL     H117728   0.910   4.983   0.371
 1003SOL     H217729   1.054   4.951   0.407
 1004SOL    OH217730   4.386   5.569   0.836
 1004SOL     H117731   4.322   5.557   0.905
 1004SOL     H217732   4.371   5.495   0.776
 1005SOL    OH217733   1.486   4.861   1.023
 1005SOL     H117734   1.420   4.929   1.015
 1005SOL     H217735   1.450   4.786   0.977
 1006SOL    OH217736   0.503   3.690   5.681
 1006SOL     H117737   0.421   3.677   5.729
 1006SOL     H217738   0.489   3.645   5.598
 1007SOL    OH217739   1.589   4.913   5.254
 1007SOL     H117740   1.557   4.834   5.210
 1007SOL     H217741   1.674   4.929   5.213
 1008SOL    OH217742   0.749   4.538   1.864
 1008SOL     H117743   0.662   4.515   1.830
 1008SOL     H217744   0.766   4.474   1.933
 1009SOL    OH217745   5.895   5.881   4.715
 1009SOL     H117746   5.812   5.874   4.669
 1009SOL     H217747   5.959   5.843   4.654
 1010SOL    OH217748   3.718   5.743   0.196
 1010SOL     H117749   3.632   5.742   0.238
 1010SOL     H217750   3.717   5.823   0.143
 1011SOL    OH217751   5.787   0.281   4.957
 1011SOL     H117752   5.786   0.263   4.863
 1011SOL     H217753   5.741   0.364   4.966
 1012SOL    OH217754   4.500   2.549   1.062
 1012SOL     H117755   4.556   2.495   1.117
 1012SOL     H217756   4.496   2.502   0.978
 1013SOL    OH217757   2.971   3.812   0.103
 1013SOL     H117758   2.904   3.768   0.051
 1013SOL     H217759   3.050   3.761   0.088
 1014SOL    OH217760   1.457   4.036   4.307
 1014SOL     H117761   1.466   4.047   4.212
 1014SOL     H217762   1.375   4.080   4.329
 1015SOL    OH217763   1.215   5.900   4.875
 1015SOL     H117764   1.284   5.944   4.825
 1015SOL     H217765   1.164   5.970   4.915
 1016SOL    OH217766   2.742   2.450   0.237
 1016SOL     H117767   2.766   2.359   0.222
 1016SOL     H217768   2.719   2.483   0.150
 1017SOL    OH217769   6.057   1.160   5.251
 1017SOL     H117770   6.132   1.121   5.296
 1017SOL     H217771   6.022   1.088   5.198
 1018SOL    OH217772   0.279   2.062   0.407
 1018SOL     H117773   0.298   1.987   0.352
 1018SOL     H217774   0.233   2.123   0.350
 1019SOL    OH217775   2.813   5.817   0.889
 1019SOL     H117776   2.742   5.771   0.934
 1019SOL     H217777   2.809   5.906   0.924
 1020SOL    OH217778   4.655   3.619   4.741
 1020SOL     H117779   4.639   3.566   4.663
 1020SOL     H217780   4.718   3.568   4.792
 1021SOL    OH217781   0.479   5.574   1.674
 1021SOL     H117782   0.573   5.589   1.684
 1021SOL     H217783   0.452   5.641   1.611
 1022SOL    OH217784   3.757   1.723   6.089
 1022SOL     H117785   3.695   1.673   6.142
 1022SOL     H217786   3.821   1.757   6.152
 1023SOL    OH217787   1.470   3.172   6.118
 1023SOL     H117788   1.414   3.135   6.050
 1023SOL     H217789   1.559   3.161   6.085
 1024SOL    OH217790   1.026   2.024   4.454
 1024SOL     H117791   1.072   2.021   4.538
 1024SOL     H217792   1.089   2.063   4.393
 1025SOL    OH217793   5.034   6.225   5.716
 1025SOL     H117794   5.117   6.178   5.711
 1025SOL     H217795   5.041   6.294   5.650
 1026SOL    OH217796   6.162   0.731   5.762
 1026SOL     H117797   6.245   0.693   5.734
 1026SOL     H217798   6.164   0.726   5.858
 1027SOL    OH217799   3.055   5.133   0.547
 1027SOL     H117800   2.977   5.122   0.493
 1027SOL     H217801   3.128   5.124   0.485
 1028SOL    OH217802   6.177   1.484   6.228
 1028SOL     H117803   6.228   1.528   6.296
 1028SOL     H217804   6.089   1.520   6.236
 1029SOL    OH217805   0.072   2.603   5.946
 1029SOL     H117806   0.126   2.667   5.900
 1029SOL     H217807   0.136   2.548   5.993
 1030SOL    OH217808   0.655   3.150   5.813
 1030SOL     H117809   0.641   3.206   5.737
 1030SOL     H217810   0.605   3.071   5.794
 1031SOL    OH217811   0.621   5.505   0.980
 1031SOL     H117812   0.663   5.539   1.060
 1031SOL     H217813   0.540   5.557   0.973
 1032SOL    OH217814   3.616   4.180   1.306
 1032SOL     H117815   3.565   4.260   1.314
 1032SOL     H217816   3.649   4.163   1.394
 1033SOL    OH217817   5.558   2.173   5.977
 1033SOL     H117818   5.623   2.149   5.910
 1033SOL     H217819   5.599   2.148   6.060
 1034SOL    OH217820   1.486   2.081   0.923
 1034SOL     H117821   1.547   2.106   0.993
 1034SOL     H217822   1.403   2.120   0.949
 1035SOL    OH217823   4.623   4.572   1.267
 1035SOL     H117824   4.620   4.562   1.172
 1035SOL     H217825   4.715   4.594   1.286
 1036SOL    OH217826   0.273   0.796   1.091
 1036SOL     H117827   0.188   0.837   1.106
 1036SOL     H217828   0.311   0.788   1.179
 1037SOL    OH217829   1.920   0.259   0.970
 1037SOL     H117830   1.998   0.220   0.931
 1037SOL     H217831   1.862   0.184   0.987
 1038SOL    OH217832   5.882   6.238   0.447
 1038SOL     H117833   5.937   6.160   0.453
 1038SOL     H217834   5.944   6.310   0.437
 1039SOL    OH217835   4.926   3.841   6.173
 1039SOL     H117836   4.926   3.810   6.263
 1039SOL     H217837   5.017   3.829   6.144
 1040SOL    OH217838   2.689   4.618   5.967
 1040SOL     H117839   2.715   4.614   5.875
 1040SOL     H217840   2.644   4.702   5.976
 1041SOL    OH217841   3.294   5.535   5.596
 1041SOL     H117842   3.230   5.512   5.529
 1041SOL     H217843   3.264   5.489   5.674
 1042SOL    OH217844   1.473   3.588   5.345
 1042SOL     H117845   1.527   3.528   5.293
 1042SOL     H217846   1.454   3.661   5.287
 1043SOL    OH217847   1.748   6.057   4.924
 1043SOL     H117848   1.670   6.071   4.977
 1043SOL     H217849   1.807   6.128   4.950
 1044SOL    OH217850   5.421   1.256   6.055
 1044SOL     H117851   5.484   1.185   6.039
 1044SOL     H217852   5.358   1.249   5.984
 1045SOL    OH217853   0.502   3.613   5.200
 1045SOL     H117854   0.574   3.676   5.189
 1045SOL     H217855   0.457   3.613   5.116
 1046SOL    OH217856   3.159   5.409   5.803
 1046SOL     H117857   3.210   5.330   5.822
 1046SOL     H217858   3.078   5.398   5.853
 1047SOL    OH217859   3.352   5.958   6.190
 1047SOL     H117860   3.373   5.881   6.242
 1047SOL     H217861   3.257   5.968   6.200
 1048SOL    OH217862   1.692   0.310   6.154
 1048SOL     H117863   1.757   0.260   6.106
 1048SOL     H217864   1.742   0.352   6.225
 1049SOL    OH217865   2.290   2.885   0.023
 1049SOL     H117866   2.298   2.853   0.113
 1049SOL     H217867   2.250   2.971   0.032
 1050SOL    OH217868   4.759   5.704   0.550
 1050SOL     H117869   4.734   5.653   0.627
 1050SOL     H217870   4.694   5.680   0.484
 1051SOL    OH217871   4.810   0.906   0.225
 1051SOL     H117872   4.716   0.909   0.208
 1051SOL     H217873   4.845   0.849   0.156
 1052SOL    OH217874   5.025   2.308   1.105
 1052SOL     H117875   4.978   2.384   1.141
 1052SOL     H217876   5.004   2.236   1.165
 1053SOL    OH217877   4.452   0.231   1.023
 1053SOL     H117878   4.504   0.151   1.033
 1053SOL     H217879   4.455   0.273   1.109
 1054SOL    OH217880   0.069   3.285   6.206
 1054SOL     H117881   0.161   3.261   6.200
 1054SOL     H217882   0.070   3.377   6.232
 1055SOL    OH217883   4.904   6.326   0.599
 1055SOL     H117884   4.998   0.000   0.619
 1055SOL     H217885   4.895   6.246   0.547
 1056SOL    OH217886   5.157   3.147   5.844
 1056SOL     H117887   5.207   3.206   5.900
 1056SOL     H217888   5.078   3.197   5.821
 1057SOL    OH217889   5.774   6.007   4.928
 1057SOL     H117890   5.713   6.062   4.878
 1057SOL     H217891   5.827   5.963   4.861
 1058SOL    OH217892   3.770   6.066   5.593
 1058SOL     H117893   3.742   5.994   5.537
 1058SOL     H217894   3.857   6.090   5.560
 1059SOL    OH217895   0.430   1.546   0.929
 1059SOL     H117896   0.344   1.560   0.889
 1059SOL     H217897   0.411   1.503   1.012
 1060SOL    OH217898   2.336   3.748   1.025
 1060SOL     H117899   2.397   3.675   1.039
 1060SOL     H217900   2.393   3.825   1.019
 1061SOL    OH217901   1.947   4.927   1.108
 1061SOL     H117902   1.885   4.874   1.059
 1061SOL     H217903   1.987   4.866   1.170
 1062SOL    OH217904   4.671   3.299   0.187
 1062SOL     H117905   4.701   3.300   0.096
 1062SOL     H217906   4.714   3.374   0.228
 1063SOL    OH217907   2.190   4.835   0.294
 1063SOL     H117908   2.153   4.900   0.354
 1063SOL     H217909   2.228   4.769   0.352
 1064SOL    OH217910   0.790   3.283   1.402
 1064SOL     H117911   0.757   3.276   1.491
 1064SOL     H217912   0.744   3.214   1.354
 1065SOL    OH217913   3.672   4.601   1.441
 1065SOL     H117914   3.686   4.666   1.509
 1065SOL     H217915   3.723   4.525   1.469
 1066SOL    OH217916   1.052   1.461   1.917
 1066SOL     H117917   1.141   1.467   1.953
 1066SOL     H217918   1.006   1.536   1.954
 1067SOL    OH217919   1.439   2.597   5.235
 1067SOL     H117920   1.510   2.647   5.274
 1067SOL     H217921   1.463   2.589   5.143
 1068SOL    OH217922   0.366   3.063   0.522
 1068SOL     H117923   0.286   3.074   0.572
 1068SOL     H217924   0.418   3.141   0.543
 1069SOL    OH217925   3.640   0.863   1.015
 1069SOL     H117926   3.656   0.918   0.939
 1069SOL     H217927   3.580   0.796   0.985
 1070SOL    OH217928   5.428   3.304   5.693
 1070SOL     H117929   5.367   3.373   5.716
 1070SOL     H217930   5.399   3.274   5.607
 1071SOL    OH217931   2.267   3.679   1.614
 1071SOL     H117932   2.206   3.750   1.598
 1071SOL     H217933   2.271   3.631   1.531
 1072SOL    OH217934   2.423   5.800   5.613
 1072SOL     H117935   2.465   5.849   5.543
 1072SOL     H217936   2.387   5.722   5.570
 1073SOL    OH217937   6.088   3.296   1.877
 1073SOL     H117938   6.093   3.230   1.947
 1073SOL     H217939   5.996   3.323   1.875
 1074SOL    OH217940   0.714   3.303   0.918
 1074SOL     H117941   0.668   3.320   1.000
 1074SOL     H217942   0.680   3.368   0.857
 1075SOL    OH217943   3.222   1.645   5.454
 1075SOL     H117944   3.178   1.567   5.486
 1075SOL     H217945   3.313   1.617   5.441
 1076SOL    OH217946   6.283   5.323   6.062
 1076SOL     H117947   0.006   5.391   6.129
 1076SOL     H217948   6.208   5.354   6.012
 1077SOL    OH217949   4.801   6.297   5.849
 1077SOL     H117950   4.883   6.272   5.806
 1077SOL     H217951   4.749   0.007   5.780
 1078SOL    OH217952   2.919   3.204   5.770
 1078SOL     H117953   2.845   3.265   5.760
 1078SOL     H217954   2.995   3.253   5.739
 1079SOL    OH217955   3.971   1.152   6.033
 1079SOL     H117956   3.908   1.089   5.998
 1079SOL     H217957   4.035   1.099   6.080
 1080SOL    OH217958   4.559   5.297   6.146
 1080SOL     H117959   4.557   5.382   6.104
 1080SOL     H217960   4.515   5.310   6.230
 1081SOL    OH217961   1.408   5.524   4.396
 1081SOL     H117962   1.372   5.567   4.474
 1081SOL     H217963   1.492   5.488   4.425
 1082SOL    OH217964   0.827   2.338   5.803
 1082SOL     H117965   0.841   2.380   5.887
 1082SOL     H217966   0.911   2.297   5.782
 1083SOL    OH217967   3.898   0.622   6.002
 1083SOL     H117968   3.881   0.716   6.000
 1083SOL     H217969   3.840   0.585   5.936
 1084SOL    OH217970   3.387   2.148   0.424
 1084SOL     H117971   3.448   2.194   0.366
 1084SOL     H217972   3.410   2.056   0.415
 1085SOL    OH217973   1.858   1.569   5.894
 1085SOL     H117974   1.882   1.660   5.876
 1085SOL     H217975   1.799   1.546   5.822
 1086SOL    OH217976   0.252   4.121   4.615
 1086SOL     H117977   0.304   4.042   4.634
 1086SOL     H217978   0.163   4.087   4.602
 1087SOL    OH217979   1.982   0.128   5.550
 1087SOL     H117980   1.987   0.222   5.568
 1087SOL     H217981   2.049   0.113   5.483
 1088SOL    OH217982   1.115   0.161   0.361
 1088SOL     H117983   1.156   0.108   0.293
 1088SOL     H217984   1.059   0.222   0.314
 1089SOL    OH217985   0.793   5.100   5.958
 1089SOL     H117986   0.861   5.138   5.902
 1089SOL     H217987   0.796   5.006   5.939
 1090SOL    OH217988   0.007   3.069   6.023
 1090SOL     H117989   0.018   3.133   6.094
 1090SOL     H217990   0.093   3.066   5.981
 1091SOL    OH217991   6.075   4.894   5.033
 1091SOL     H117992   6.045   4.864   5.119
 1091SOL     H217993   6.136   4.826   5.004
 1092SOL    OH217994   5.361   0.220   5.182
 1092SOL     H117995   5.364   0.214   5.086
 1092SOL     H217996   5.284   0.274   5.200
 1093SOL    OH217997   2.373   3.541   0.044
 1093SOL     H117998   2.296   3.485   0.030
 1093SOL     H217999   2.427   3.527   6.324
 1094SOL    OH218000   5.503   3.766   0.485
 1094SOL     H118001   5.561   3.762   0.409
 1094SOL     H218002   5.512   3.856   0.518
 1095SOL    OH218003   2.632   2.458   0.579
 1095SOL     H118004   2.714   2.488   0.618
 1095SOL     H218005   2.637   2.362   0.583
 1096SOL    OH218006   3.258   2.340   1.152
 1096SOL     H118007   3.256   2.391   1.233
 1096SOL     H218008   3.345   2.302   1.150
 1097SOL    OH218009   4.355   5.986   0.291
 1097SOL     H118010   4.337   6.079   0.274
 1097SOL     H218011   4.282   5.940   0.250
 1098SOL    OH218012   1.139   5.849   1.807
 1098SOL     H118013   1.055   5.810   1.831
 1098SOL     H218014   1.204   5.783   1.831
 1099SOL    OH218015   2.147   5.718   0.077
 1099SOL     H118016   2.235   5.715   0.116
 1099SOL     H218017   2.111   5.631   0.094
 1100SOL    OH218018   4.458   1.712   5.658
 1100SOL     H118019   4.404   1.725   5.736
 1100SOL     H218020   4.406   1.653   5.603
 1101SOL    OH218021   0.591   3.487   0.752
 1101SOL     H118022   0.535   3.526   0.685
 1101SOL     H218023   0.626   3.562   0.800
 1102SOL    OH218024   3.075   6.276   1.392
 1102SOL     H118025   3.102   0.012   1.329
 1102SOL     H218026   3.144   6.276   1.459
 1103SOL    OH218027   3.165   2.282   5.280
 1103SOL     H118028   3.188   2.189   5.278
 1103SOL     H218029   3.172   2.311   5.189
 1104SOL    OH218030   3.425   5.208   0.168
 1104SOL     H118031   3.495   5.258   0.211
 1104SOL     H218032   3.470   5.132   0.131
 1105SOL    OH218033   2.572   1.352   5.574
 1105SOL     H118034   2.477   1.360   5.584
 1105SOL     H218035   2.584   1.266   5.532
 1106SOL    OH218036   0.941   1.272   1.127
 1106SOL     H118037   0.984   1.235   1.050
 1106SOL     H218038   0.899   1.352   1.095
 1107SOL    OH218039   0.516   4.399   1.297
 1107SOL     H118040   0.456   4.473   1.300
 1107SOL     H218041   0.461   4.323   1.314
 1108SOL    OH218042   0.600   3.676   0.144
 1108SOL     H118043   0.575   3.746   0.083
 1108SOL     H218044   0.635   3.722   0.220
 1109SOL    OH218045   4.888   0.046   5.313
 1109SOL     H118046   4.878   6.283   5.330
 1109SOL     H218047   4.883   0.053   5.217
 1110SOL    OH218048   2.946   4.364   0.592
 1110SOL     H118049   3.033   4.329   0.613
 1110SOL     H218050   2.898   4.362   0.675
 1111SOL    OH218051   2.268   3.716   5.238
 1111SOL     H118052   2.226   3.801   5.247
 1111SOL     H218053   2.324   3.725   5.161
 1112SOL    OH218054   0.698   0.353   5.508
 1112SOL     H118055   0.660   0.434   5.473
 1112SOL     H218056   0.632   0.286   5.491
 1113SOL    OH218057   3.297   1.318   0.338
 1113SOL     H118058   3.237   1.246   0.318
 1113SOL     H218059   3.242   1.388   0.372
 1114SOL    OH218060   5.551   0.122   5.363
 1114SOL     H118061   5.482   0.151   5.303
 1114SOL     H218062   5.577   0.202   5.410
 1115SOL    OH218063   1.147   4.616   0.995
 1115SOL     H118064   1.117   4.532   0.958
 1115SOL     H218065   1.228   4.635   0.949
 1116SOL    OH218066   0.409   3.995   6.032
 1116SOL     H118067   0.463   3.932   5.983
 1116SOL     H218068   0.471   4.042   6.088
 1117SOL    OH218069   6.060   5.356   1.196
 1117SOL     H118070   6.065   5.448   1.220
 1117SOL     H218071   6.029   5.312   1.275
 1118SOL    OH218072   3.252   1.715   6.061
 1118SOL     H118073   3.281   1.792   6.012
 1118SOL     H218074   3.230   1.748   6.147
 1119SOL    OH218075   4.228   0.033   5.774
 1119SOL     H118076   4.187   0.117   5.753
 1119SOL     H218077   4.238   6.320   5.689
 1120SOL    OH218078   1.161   2.623   5.638
 1120SOL     H118079   1.171   2.711   5.602
 1120SOL     H218080   1.080   2.627   5.688
 1121SOL    OH218081   3.215   4.589   0.727
 1121SOL     H118082   3.208   4.664   0.667
 1121SOL     H218083   3.301   4.599   0.767
 1122SOL    OH218084   0.838   0.966   0.056
 1122SOL     H118085   0.851   0.874   0.029
 1122SOL     H218086   0.926   1.003   0.055
 1123SOL    OH218087   1.114   6.139   0.349
 1123SOL     H118088   1.138   6.069   0.288
 1123SOL     H218089   1.134   6.220   0.302
 1124SOL    OH218090   0.142   0.084   6.025
 1124SOL     H118091   0.183   0.013   6.075
 1124SOL     H218092   0.072   0.116   6.082
 1125SOL    OH218093   0.035   4.145   6.328
 1125SOL     H118094   0.067   4.228   6.293
 1125SOL     H218095   0.114   4.100   0.001
 1126SOL    OH218096   1.235   2.807   4.978
 1126SOL     H118097   1.328   2.823   4.991
 1126SOL     H218098   1.202   2.885   4.933
 1127SOL    OH218099   5.085   1.549   5.818
 1127SOL     H118100   5.004   1.513   5.854
 1127SOL     H218101   5.065   1.641   5.799
 1128SOL    OH218102   4.551   0.993   6.009
 1128SOL     H118103   4.504   1.070   5.976
 1128SOL     H218104   4.610   0.969   5.937
 1129SOL    OH218105   3.196   3.206   6.160
 1129SOL     H118106   3.249   3.144   6.211
 1129SOL     H218107   3.178   3.278   6.221
 1130SOL    OH218108   4.396   6.121   0.955
 1130SOL     H118109   4.435   6.080   0.878
 1130SOL     H218110   4.455   6.195   0.975
 1131SOL    OH218111   6.121   0.456   6.144
 1131SOL     H118112   6.057   0.416   6.086
 1131SOL     H218113   6.080   0.452   6.231
 1132SOL    OH218114   3.164   4.881   1.534
 1132SOL     H118115   3.217   4.947   1.580
 1132SOL     H218116   3.085   4.927   1.508
 1133SOL    OH218117   3.317   5.072   1.178
 1133SOL     H118118   3.335   5.036   1.091
 1133SOL     H218119   3.223   5.057   1.191
 1134SOL    OH218120   4.646   6.216   1.267
 1134SOL     H118121   4.629   6.131   1.308
 1134SOL     H218122   4.644   6.278   1.340
 1135SOL    OH218123   0.721   2.841   1.045
 1135SOL     H118124   0.781   2.914   1.028
 1135SOL     H218125   0.638   2.883   1.068
 1136SOL    OH218126   4.613   0.259   0.336
 1136SOL     H118127   4.548   0.329   0.349
 1136SOL     H218128   4.697   0.303   0.347
 1137SOL    OH218129   2.360   0.912   0.090
 1137SOL     H118130   2.364   0.984   0.027
 1137SOL     H218131   2.371   0.954   0.176
 1138SOL    OH218132   3.941   3.730   6.045
 1138SOL     H118133   3.903   3.818   6.050
 1138SOL     H218134   3.961   3.708   6.136
 1139SOL    OH218135   1.130   3.507   0.685
 1139SOL     H118136   1.053   3.550   0.647
 1139SOL     H218137   1.135   3.423   0.640
 1140SOL    OH218138   6.274   1.288   5.449
 1140SOL     H118139   0.005   1.199   5.419
 1140SOL     H218140   6.194   1.277   5.501
 1141SOL    OH218141   6.061   0.772   5.374
 1141SOL     H118142   6.152   0.743   5.375
 1141SOL     H218143   6.011   0.694   5.350
 1142SOL    OH218144   5.223   2.619   5.346
 1142SOL     H118145   5.234   2.535   5.302
 1142SOL     H218146   5.128   2.635   5.344
 1143SOL    OH218147   0.404   0.442   0.546
 1143SOL     H118148   0.334   0.504   0.564
 1143SOL     H218149   0.365   0.356   0.559
 1144SOL    OH218150   3.974   2.831   0.995
 1144SOL     H118151   3.943   2.912   0.955
 1144SOL     H218152   4.019   2.859   1.075
 1145SOL    OH218153   2.818   0.379   0.210
 1145SOL     H118154   2.808   0.394   0.303
 1145SOL     H218155   2.818   0.466   0.171
 1146SOL    OH218156   5.192   4.400   6.116
 1146SOL     H118157   5.238   4.331   6.068
 1146SOL     H218158   5.123   4.355   6.164
 1147SOL    OH218159   3.051   2.332   0.239
 1147SOL     H118160   3.116   2.304   0.175
 1147SOL     H218161   2.971   2.285   0.214
 1148SOL    OH218162   4.118   3.817   5.393
 1148SOL     H118163   4.102   3.812   5.299
 1148SOL     H218164   4.185   3.884   5.403
 1149SOL    OH218165   3.631   4.390   0.862
 1149SOL     H118166   3.698   4.382   0.795
 1149SOL     H218167   3.659   4.330   0.931
 1150SOL    OH218168   2.879   4.808   0.066
 1150SOL     H118169   2.876   4.729   0.120
 1150SOL     H218170   2.875   4.775   6.334
 1151SOL    OH218171   5.019   1.836   5.768
 1151SOL     H118172   5.107   1.844   5.731
 1151SOL     H218173   5.024   1.885   5.851
 1152SOL    OH218174   3.758   4.049   4.638
 1152SOL     H118175   3.676   4.002   4.626
 1152SOL     H218176   3.823   3.998   4.589
 1153SOL    OH218177   0.833   5.893   0.098
 1153SOL     H118178   0.741   5.865   0.095
 1153SOL     H218179   0.880   5.823   0.052
 1154SOL    OH218180   5.176   3.031   1.319
 1154SOL     H118181   5.177   3.102   1.384
 1154SOL     H218182   5.178   3.077   1.234
 1155SOL    OH218183   3.547   1.966   5.831
 1155SOL     H118184   3.461   1.925   5.822
 1155SOL     H218185   3.596   1.937   5.754
 1156SOL    OH218186   1.293   4.809   0.007
 1156SOL     H118187   1.331   4.884   0.054
 1156SOL     H218188   1.204   4.803   0.041
 1157SOL    OH218189   1.733   5.606   5.897
 1157SOL     H118190   1.740   5.536   5.832
 1157SOL     H218191   1.730   5.687   5.846
 1158SOL    OH218192   5.213   2.277   5.673
 1158SOL     H118193   5.138   2.252   5.620
 1158SOL     H218194   5.225   2.371   5.655
 1159SOL    OH218195   1.958   5.409   5.178
 1159SOL     H118196   1.930   5.388   5.089
 1159SOL     H218197   1.909   5.349   5.234
 1160SOL    OH218198   0.640   3.285   5.571
 1160SOL     H118199   0.684   3.211   5.530
 1160SOL     H218200   0.575   3.313   5.506
 1161SOL    OH218201   1.511   6.105   5.049
 1161SOL     H118202   1.434   6.162   5.057
 1161SOL     H218203   1.495   6.035   5.112
 1162SOL    OH218204   4.517   3.383   1.729
 1162SOL     H118205   4.485   3.304   1.772
 1162SOL     H218206   4.603   3.358   1.695
 1163SOL    OH218207   2.216   2.502   5.833
 1163SOL     H118208   2.242   2.410   5.835
 1163SOL     H218209   2.284   2.548   5.882
 1164SOL    OH218210   2.167   0.492   0.225
 1164SOL     H118211   2.141   0.507   0.316
 1164SOL     H218212   2.121   0.412   0.200
 1165SOL    OH218213   5.310   4.642   0.065
 1165SOL     H118214   5.275   4.704   0.002
 1165SOL     H218215   5.387   4.685   0.101
 1166SOL    OH218216   3.125   1.795   0.223
 1166SOL     H118217   3.202   1.754   0.262
 1166SOL     H218218   3.052   1.742   0.253
 1167SOL    OH218219   1.381   0.624   0.116
 1167SOL     H118220   1.474   0.646   0.104
 1167SOL     H218221   1.380   0.528   0.123
 1168SOL    OH218222   5.748   5.415   0.579
 1168SOL     H118223   5.819   5.431   0.517
 1168SOL     H218224   5.767   5.474   0.652
 1169SOL    OH218225   2.161   1.153   0.198
 1169SOL     H118226   2.103   1.212   0.246
 1169SOL     H218227   2.238   1.206   0.178
 1170SOL    OH218228   0.682   2.437   5.595
 1170SOL     H118229   0.739   2.409   5.666
 1170SOL     H218230   0.739   2.436   5.517
 1171SOL    OH218231   4.219   1.329   0.064
 1171SOL     H118232   4.262   1.271   0.000
 1171SOL     H218233   4.277   1.405   0.069
 1172SOL    OH218234   2.440   2.532   1.230
 1172SOL     H118235   2.455   2.548   1.323
 1172SOL     H218236   2.463   2.440   1.217
 1173SOL    OH218237   3.331   3.029   4.645
 1173SOL     H118238   3.425   3.025   4.662
 1173SOL     H218239   3.294   3.065   4.725
 1174SOL    OH218240   4.028   5.025   0.580
 1174SOL     H118241   3.952   5.009   0.523
 1174SOL     H218242   4.047   4.939   0.618
 1175SOL    OH218243   1.739   4.151   0.404
 1175SOL     H118244   1.787   4.171   0.324
 1175SOL     H218245   1.717   4.237   0.440
 1176SOL    OH218246   5.375   4.010   5.314
 1176SOL     H118247   5.359   4.044   5.226
 1176SOL     H218248   5.415   4.083   5.361
 1177SOL    OH218249   0.809   0.237   6.219
 1177SOL     H118250   0.714   0.243   6.215
 1177SOL     H218251   0.826   0.175   6.291
 1178SOL    OH218252   2.325   0.032   5.739
 1178SOL     H118253   2.398   0.011   5.797
 1178SOL     H218254   2.294   0.117   5.770
 1179SOL    OH218255   0.938   1.608   4.995
 1179SOL     H118256   0.953   1.628   5.087
 1179SOL     H218257   0.967   1.518   4.984
 1180SOL    OH218258   5.979   1.258   0.606
 1180SOL     H118259   5.979   1.353   0.604
 1180SOL     H218260   5.935   1.233   0.524
 1181SOL    OH218261   5.426   2.466   0.942
 1181SOL     H118262   5.494   2.492   1.004
 1181SOL     H218263   5.381   2.394   0.986
 1182SOL    OH218264   5.494   5.152   1.872
 1182SOL     H118265   5.425   5.091   1.897
 1182SOL     H218266   5.552   5.100   1.816
 1183SOL    OH218267   6.240   2.104   5.991
 1183SOL     H118268   0.038   2.078   6.015
 1183SOL     H218269   6.210   2.158   6.064
 1184SOL    OH218270   2.279   4.876   5.031
 1184SOL     H118271   2.360   4.845   4.990
 1184SOL     H218272   2.255   4.954   4.982
 1185SOL    OH218273   3.567   4.780   1.267
 1185SOL     H118274   3.610   4.713   1.321
 1185SOL     H218275   3.541   4.848   1.329
 1186SOL    OH218276   2.472   4.264   5.287
 1186SOL     H118277   2.382   4.236   5.270
 1186SOL     H218278   2.508   4.285   5.201
 1187SOL    OH218279   0.172   6.177   5.172
 1187SOL     H118280   0.154   6.084   5.159
 1187SOL     H218281   0.216   6.204   5.091
 1188SOL    OH218282   4.443   3.090   1.586
 1188SOL     H118283   4.448   3.115   1.679
 1188SOL     H218284   4.376   3.021   1.583
 1189SOL    OH218285   1.337   5.807   1.310
 1189SOL     H118286   1.366   5.819   1.400
 1189SOL     H218287   1.267   5.742   1.316
 1190SOL    OH218288   0.099   2.470   0.932
 1190SOL     H118289   0.165   2.401   0.941
 1190SOL     H218290   0.054   2.450   0.850
 1191SOL    OH218291   1.095   5.662   4.788
 1191SOL     H118292   1.055   5.615   4.861
 1191SOL     H218293   1.122   5.746   4.825
 1192SOL    OH218294   0.330   3.941   4.928
 1192SOL     H118295   0.351   3.997   5.003
 1192SOL     H218296   0.237   3.919   4.940
 1193SOL    OH218297   3.872   1.388   5.928
 1193SOL     H118298   3.944   1.422   5.874
 1193SOL     H218299   3.911   1.318   5.979
 1194SOL    OH218300   2.737   0.232   5.780
 1194SOL     H118301   2.679   0.237   5.705
 1194SOL     H218302   2.682   0.254   5.855
 1195SOL    OH218303   1.870   3.114   6.297
 1195SOL     H118304   1.831   3.031   6.324
 1195SOL     H218305   1.963   3.105   6.317
 1196SOL    OH218306   4.229   3.136   1.096
 1196SOL     H118307   4.220   3.177   1.182
 1196SOL     H218308   4.290   3.063   1.110
 1197SOL    OH218309   4.541   3.132   6.020
 1197SOL     H118310   4.637   3.131   6.022
 1197SOL     H218311   4.520   3.138   5.927
 1198SOL    OH218312   5.970   1.855   0.285
 1198SOL     H118313   6.000   1.766   0.267
 1198SOL     H218314   6.036   1.912   0.245
 1199SOL    OH218315   4.979   4.991   0.613
 1199SOL     H118316   5.044   4.959   0.551
 1199SOL     H218317   4.900   4.941   0.594
 1200SOL    OH218318   4.222   3.414   0.370
 1200SOL     H118319   4.311   3.383   0.385
 1200SOL     H218320   4.179   3.407   0.455
 1201SOL    OH218321   2.140   3.833   1.198
 1201SOL     H118322   2.207   3.798   1.139
 1201SOL     H218323   2.187   3.897   1.252
 1202SOL    OH218324   0.096   0.406   0.248
 1202SOL     H118325   0.107   0.499   0.267
 1202SOL     H218326   0.087   0.365   0.334
 1203SOL    OH218327   5.192   1.157   0.662
 1203SOL     H118328   5.117   1.216   0.651
 1203SOL     H218329   5.238   1.191   0.739
 1204SOL    OH218330   4.045   2.360   5.706
 1204SOL     H118331   4.007   2.434   5.659
 1204SOL     H218332   3.969   2.313   5.741
 1205SOL    OH218333   4.256   2.664   5.583
 1205SOL     H118334   4.351   2.652   5.582
 1205SOL     H218335   4.223   2.598   5.522
 1206SOL    OH218336   0.537   0.110   0.409
 1206SOL     H118337   0.612   0.124   0.467
 1206SOL     H218338   0.560   0.156   0.329
 1207SOL    OH218339   6.046   5.564   4.093
 1207SOL     H118340   5.978   5.613   4.139
 1207SOL     H218341   6.098   5.631   4.049
 1208SOL    OH218342   2.710   0.746   1.078
 1208SOL     H118343   2.756   0.681   1.131
 1208SOL     H218344   2.779   0.792   1.030
 1209SOL    OH218345   3.976   0.397   1.460
 1209SOL     H118346   3.899   0.429   1.509
 1209SOL     H218347   3.940   0.334   1.397
 1210SOL    OH218348   3.517   4.832   5.585
 1210SOL     H118349   3.572   4.756   5.569
 1210SOL     H218350   3.574   4.895   5.629
 1211SOL    OH218351   5.536   4.038   0.583
 1211SOL     H118352   5.597   4.110   0.600
 1211SOL     H218353   5.475   4.040   0.656
 1212SOL    OH218354   6.067   1.030   1.542
 1212SOL     H118355   6.087   0.938   1.556
 1212SOL     H218356   5.986   1.045   1.590
 1213SOL    OH218357   4.957   2.844   6.188
 1213SOL     H118358   4.870   2.832   6.149
 1213SOL     H218359   5.015   2.861   6.114
 1214SOL    OH218360   4.052   4.962   5.431
 1214SOL     H118361   4.044   4.997   5.342
 1214SOL     H218362   4.115   5.020   5.473
 1215SOL    OH218363   4.080   1.613   0.598
 1215SOL     H118364   3.988   1.639   0.594
 1215SOL     H218365   4.120   1.677   0.657
 1216SOL    OH218366   4.662   4.318   0.878
 1216SOL     H118367   4.754   4.308   0.901
 1216SOL     H218368   4.637   4.403   0.915
 1217SOL    OH218369   2.117   5.033   0.466
 1217SOL     H118370   2.183   5.082   0.418
 1217SOL     H218371   2.056   5.099   0.497
 1218SOL    OH218372   0.611   4.115   6.178
 1218SOL     H118373   0.701   4.098   6.149
 1218SOL     H218374   0.607   4.210   6.186
 1219SOL    OH218375   0.297   5.887   4.606
 1219SOL     H118376   0.344   5.830   4.546
 1219SOL     H218377   0.211   5.846   4.616
 1220SOL    OH218378   4.341   1.249   4.466
 1220SOL     H118379   4.426   1.244   4.509
 1220SOL     H218380   4.282   1.285   4.533
 1221SOL    OH218381   2.810   1.835   0.963
 1221SOL     H118382   2.870   1.885   1.019
 1221SOL     H218383   2.821   1.745   0.992
 1222SOL    OH218384   4.054   0.886   5.867
 1222SOL     H118385   3.963   0.917   5.866
 1222SOL     H218386   4.078   0.885   5.960
 1223SOL    OH218387   3.601   0.797   5.812
 1223SOL     H118388   3.630   0.706   5.822
 1223SOL     H218389   3.535   0.809   5.880
 1224SOL    OH218390   2.392   2.203   0.541
 1224SOL     H118391   2.370   2.119   0.500
 1224SOL     H218392   2.400   2.264   0.468
 1225SOL    OH218393   6.153   5.164   5.743
 1225SOL     H118394   6.235   5.152   5.790
 1225SOL     H218395   6.113   5.242   5.783
 1226SOL    OH218396   5.690   0.443   6.056
 1226SOL     H118397   5.645   0.475   6.134
 1226SOL     H218398   5.631   0.377   6.019
 1227SOL    OH218399   0.353   4.617   1.351
 1227SOL     H118400   0.296   4.694   1.350
 1227SOL     H218401   0.346   4.584   1.441
 1228SOL    OH218402   1.077   1.865   1.154
 1228SOL     H118403   0.983   1.863   1.137
 1228SOL     H218404   1.092   1.949   1.196
 1229SOL    OH218405   0.734   4.315   2.031
 1229SOL     H118406   0.659   4.256   2.040
 1229SOL     H218407   0.791   4.271   1.968
 1230SOL    OH218408   2.102   2.967   5.438
 1230SOL     H118409   2.167   2.912   5.395
 1230SOL     H218410   2.139   2.985   5.525
 1231SOL    OH218411   1.041   5.141   1.689
 1231SOL     H118412   0.983   5.078   1.732
 1231SOL     H218413   1.121   5.092   1.670
 1232SOL    OH218414   3.767   2.362   0.792
 1232SOL     H118415   3.835   2.358   0.859
 1232SOL     H218416   3.733   2.273   0.788
 1233SOL    OH218417   2.654   5.375   5.401
 1233SOL     H118418   2.740   5.361   5.361
 1233SOL     H218419   2.623   5.458   5.365
 1234SOL    OH218420   4.553   2.603   5.991
 1234SOL     H118421   4.506   2.520   5.982
 1234SOL     H218422   4.636   2.589   5.946
 1235SOL    OH218423   2.217   6.173   1.702
 1235SOL     H118424   2.129   6.196   1.672
 1235SOL     H218425   2.261   6.258   1.715
 1236SOL    OH218426   0.786   0.101   1.182
 1236SOL     H118427   0.844   0.100   1.258
 1236SOL     H218428   0.754   0.191   1.178
 1237SOL    OH218429   4.752   1.118   5.295
 1237SOL     H118430   4.824   1.059   5.272
 1237SOL     H218431   4.788   1.175   5.363
 1238SOL    OH218432   0.360   4.892   5.847
 1238SOL     H118433   0.324   4.807   5.871
 1238SOL     H218434   0.363   4.941   5.929
 1239SOL    OH218435   4.366   0.297   0.056
 1239SOL     H118436   4.299   0.275   0.121
 1239SOL     H218437   4.385   0.214   0.012
 1240SOL    OH218438   0.831   1.454   5.806
 1240SOL     H118439   0.866   1.372   5.842
 1240SOL     H218440   0.907   1.510   5.793
 1241SOL    OH218441   2.912   0.675   0.597
 1241SOL     H118442   2.986   0.708   0.547
 1241SOL     H218443   2.857   0.752   0.612
 1242SOL    OH218444   4.789   0.012   0.854
 1242SOL     H118445   4.827   6.330   0.766
 1242SOL     H218446   4.848   0.075   0.896
 1243SOL    OH218447   6.002   3.501   5.392
 1243SOL     H118448   5.989   3.568   5.325
 1243SOL     H218449   6.089   3.466   5.374
 1244SOL    OH218450   5.227   1.025   5.410
 1244SOL     H118451   5.239   1.042   5.317
 1244SOL     H218452   5.136   0.995   5.417
 1245SOL    OH218453   0.645   1.717   5.186
 1245SOL     H118454   0.550   1.705   5.178
 1245SOL     H218455   0.681   1.629   5.182
 1246SOL    OH218456   5.230   4.683   4.704
 1246SOL     H118457   5.198   4.614   4.645
 1246SOL     H218458   5.231   4.762   4.650
 1247SOL    OH218459   5.204   0.787   4.634
 1247SOL     H118460   5.151   0.745   4.566
 1247SOL     H218461   5.142   0.812   4.702
 1248SOL    OH218462   4.868   1.447   5.151
 1248SOL     H118463   4.777   1.433   5.178
 1248SOL     H218464   4.865   1.526   5.097
 1249SOL    OH218465   3.796   3.653   5.268
 1249SOL     H118466   3.792   3.629   5.361
 1249SOL     H218467   3.757   3.578   5.223
 1250SOL    OH218468   2.164   3.550   4.587
 1250SOL     H118469   2.078   3.558   4.546
 1250SOL     H218470   2.152   3.587   4.675
 1251SOL    OH218471   2.349   0.560   5.193
 1251SOL     H118472   2.437   0.575   5.229
 1251SOL     H218473   2.329   0.470   5.217
 1252SOL    OH218474   4.275   5.806   0.745
 1252SOL     H118475   4.314   5.724   0.776
 1252SOL     H218476   4.222   5.780   0.670
 1253SOL    OH218477   4.869   0.065   5.038
 1253SOL     H118478   4.807   0.052   4.966
 1253SOL     H218479   4.949   0.022   5.009
 1254SOL    OH218480   3.083   4.976   5.767
 1254SOL     H118481   3.143   4.911   5.731
 1254SOL     H218482   3.026   4.999   5.694
 1255SOL    OH218483   3.830   4.196   0.120
 1255SOL     H118484   3.778   4.137   0.175
 1255SOL     H218485   3.904   4.143   0.092
 1256SOL    OH218486   1.479   2.577   0.169
 1256SOL     H118487   1.475   2.495   0.119
 1256SOL     H218488   1.572   2.597   0.174
 1257SOL    OH218489   0.890   2.009   5.564
 1257SOL     H118490   0.925   2.090   5.528
 1257SOL     H218491   0.833   1.975   5.495
 1258SOL    OH218492   2.927   2.853   0.641
 1258SOL     H118493   2.934   2.898   0.725
 1258SOL     H218494   2.882   2.771   0.661
 1259SOL    OH218495   5.241   0.341   0.405
 1259SOL     H118496   5.296   0.281   0.455
 1259SOL     H218497   5.153   0.305   0.413
 1260SOL    OH218498   5.844   1.180   4.964
 1260SOL     H118499   5.918   1.156   4.908
 1260SOL     H218500   5.797   1.098   4.979
 1261SOL    OH218501   3.176   2.969   5.996
 1261SOL     H118502   3.220   3.009   5.921
 1261SOL     H218503   3.175   3.037   6.063
 1262SOL    OH218504   3.627   2.498   5.631
 1262SOL     H118505   3.586   2.552   5.699
 1262SOL     H218506   3.585   2.412   5.640
 1263SOL    OH218507   3.317   4.800   0.107
 1263SOL     H118508   3.295   4.756   0.024
 1263SOL     H218509   3.244   4.858   0.123
 1264SOL    OH218510   0.696   4.051   4.972
 1264SOL     H118511   0.693   4.115   5.043
 1264SOL     H218512   0.719   4.102   4.894
 1265SOL    OH218513   5.877   2.509   0.662
 1265SOL     H118514   5.895   2.576   0.727
 1265SOL     H218515   5.827   2.554   0.594
 1266SOL    OH218516   3.917   1.969   1.539
 1266SOL     H118517   3.878   2.054   1.558
 1266SOL     H218518   3.972   1.985   1.462
 1267SOL    OH218519   0.619   4.086   5.506
 1267SOL     H118520   0.694   4.028   5.516
 1267SOL     H218521   0.543   4.029   5.513
 1268SOL    OH218522   2.782   4.679   1.910
 1268SOL     H118523   2.765   4.683   1.816
 1268SOL     H218524   2.808   4.588   1.926
 1269SOL    OH218525   1.328   3.025   1.063
 1269SOL     H118526   1.276   2.959   1.108
 1269SOL     H218527   1.395   2.976   1.016
 1270SOL    OH218528   5.976   1.723   5.064
 1270SOL     H118529   5.963   1.631   5.041
 1270SOL     H218530   5.951   1.771   4.985
 1271SOL    OH218531   3.696   5.488   0.097
 1271SOL     H118532   3.702   5.576   0.135
 1271SOL     H218533   3.660   5.434   0.168
 1272SOL    OH218534   0.311   0.517   1.476
 1272SOL     H118535   0.241   0.496   1.538
 1272SOL     H218536   0.390   0.482   1.516
 1273SOL    OH218537   1.755   4.724   0.716
 1273SOL     H118538   1.795   4.638   0.704
 1273SOL     H218539   1.670   4.717   0.673
 1274SOL    OH218540   2.847   3.598   5.164
 1274SOL     H118541   2.893   3.518   5.139
 1274SOL     H218542   2.901   3.635   5.234
 1275SOL    OH218543   3.258   5.337   6.348
 1275SOL     H118544   3.315   5.292   0.053
 1275SOL     H218545   3.212   5.404   0.042
 1276SOL    OH218546   3.336   0.295   4.762
 1276SOL     H118547   3.311   0.232   4.695
 1276SOL     H218548   3.427   0.273   4.783
 1277SOL    OH218549   0.380   4.912   6.342
 1277SOL     H118550   0.370   5.002   0.016
 1277SOL     H218551   0.306   4.865   0.024
 1278SOL    OH218552   3.810   3.509   5.955
 1278SOL     H118553   3.834   3.438   6.014
 1278SOL     H218554   3.859   3.584   5.986
 1279SOL    OH218555   3.224   2.981   0.949
 1279SOL     H118556   3.273   2.923   0.890
 1279SOL     H218557   3.229   2.938   1.035
 1280SOL    OH218558   4.488   4.347   1.365
 1280SOL     H118559   4.419   4.384   1.419
 1280SOL     H218560   4.541   4.422   1.338
 1281SOL    OH218561   5.800   6.309   5.449
 1281SOL     H118562   5.714   0.021   5.449
 1281SOL     H218563   5.807   6.268   5.536
 1282SOL    OH218564   4.530   2.628   5.556
 1282SOL     H118565   4.591   2.681   5.607
 1282SOL     H218566   4.565   2.539   5.561
 1283SOL    OH218567   3.971   6.091   0.075
 1283SOL     H118568   4.030   6.020   0.100
 1283SOL     H218569   4.011   6.169   0.112
 1284SOL    OH218570   3.528   3.271   5.392
 1284SOL     H118571   3.471   3.338   5.355
 1284SOL     H218572   3.475   3.192   5.394
 1285SOL    OH218573   3.667   1.216   5.880
 1285SOL     H118574   3.738   1.280   5.887
 1285SOL     H218575   3.648   1.212   5.786
 1286SOL    OH218576   5.578   2.308   5.614
 1286SOL     H118577   5.666   2.274   5.599
 1286SOL     H218578   5.545   2.329   5.526
 1287SOL    OH218579   4.625   2.182   1.462
 1287SOL     H118580   4.618   2.277   1.469
 1287SOL     H218581   4.602   2.163   1.371
 1288SOL    OH218582   3.603   1.981   1.085
 1288SOL     H118583   3.570   1.945   1.168
 1288SOL     H218584   3.563   1.927   1.017
 1289SOL    OH218585   4.542   2.128   6.314
 1289SOL     H118586   4.609   2.196   6.317
 1289SOL     H218587   4.480   2.153   0.024
 1290SOL    OH218588   1.199   1.632   5.977
 1290SOL     H118589   1.183   1.544   6.010
 1290SOL     H218590   1.141   1.641   5.902
 1291SOL    OH218591   3.103   4.376   5.584
 1291SOL     H118592   3.148   4.454   5.551
 1291SOL     H218593   3.154   4.303   5.549
 1292SOL    OH218594   0.166   6.151   0.879
 1292SOL     H118595   0.134   6.207   0.950
 1292SOL     H218596   0.157   6.062   0.912
 1293SOL    OH218597   4.462   2.785   0.282
 1293SOL     H118598   4.394   2.740   0.232
 1293SOL     H218599   4.459   2.743   0.369
 1294SOL    OH218600   1.822   1.000   6.170
 1294SOL     H118601   1.884   1.035   6.235
 1294SOL     H218602   1.816   1.069   6.104
 1295SOL    OH218603   4.093   2.648   0.355
 1295SOL     H118604   4.100   2.725   0.411
 1295SOL     H218605   4.062   2.682   0.271
 1296SOL    OH218606   3.951   4.504   0.017
 1296SOL     H118607   4.018   4.449   0.058
 1296SOL     H218608   4.001   4.577   6.337
 1297SOL    OH218609   2.654   2.536   6.353
 1297SOL     H118610   2.704   2.524   6.272
 1297SOL     H218611   2.622   2.626   6.348
 1298SOL    OH218612   2.621   5.281   0.997
 1298SOL     H118613   2.681   5.300   1.070
 1298SOL     H218614   2.597   5.189   1.009
 1299SOL    OH218615   1.156   0.412   5.596
 1299SOL     H118616   1.090   0.367   5.542
 1299SOL     H218617   1.239   0.374   5.568
 1300SOL    OH218618   3.951   5.151   0.810
 1300SOL     H118619   3.873   5.198   0.781
 1300SOL     H218620   3.987   5.113   0.730
 1301SOL    OH218621   0.931   4.619   4.899
 1301SOL     H118622   0.935   4.623   4.804
 1301SOL     H218623   0.853   4.566   4.918
 1302SOL    OH218624   3.247   2.874   1.191
 1302SOL     H118625   3.315   2.809   1.211
 1302SOL     H218626   3.203   2.889   1.274
 1303SOL    OH218627   5.576   2.953   0.174
 1303SOL     H118628   5.650   3.003   0.207
 1303SOL     H218629   5.554   2.893   0.245
 1304SOL    OH218630   4.479   6.281   4.689
 1304SOL     H118631   4.464   6.241   4.603
 1304SOL     H218632   4.391   6.293   4.725
 1305SOL    OH218633   1.745   2.717   6.196
 1305SOL     H118634   1.812   2.652   6.219
 1305SOL     H218635   1.743   2.776   6.271
 1306SOL    OH218636   2.838   2.023   0.751
 1306SOL     H118637   2.819   1.963   0.823
 1306SOL     H218638   2.759   2.075   0.741
 1307SOL    OH218639   3.970   0.113   0.699
 1307SOL     H118640   3.931   0.177   0.759
 1307SOL     H218641   3.967   0.030   0.747
 1308SOL    OH218642   3.414   0.109   5.066
 1308SOL     H118643   3.446   0.067   4.986
 1308SOL     H218644   3.324   0.135   5.045
 1309SOL    OH218645   0.740   2.592   1.824
 1309SOL     H118646   0.796   2.557   1.893
 1309SOL     H218647   0.714   2.515   1.773
 1310SOL    OH218648   1.146   3.273   5.772
 1310SOL     H118649   1.062   3.227   5.779
 1310SOL     H218650   1.139   3.345   5.834
 1311SOL    OH218651   3.014   4.533   5.798
 1311SOL     H118652   3.048   4.481   5.725
 1311SOL     H218653   2.929   4.565   5.768
 1312SOL    OH218654   2.347   6.028   1.507
 1312SOL     H118655   2.306   6.080   1.576
 1312SOL     H218656   2.274   5.990   1.458
 1313SOL    OH218657   4.595   2.801   1.080
 1313SOL     H118658   4.561   2.712   1.067
 1313SOL     H218659   4.682   2.788   1.117
 1314SOL    OH218660   5.371   5.400   6.325
 1314SOL     H118661   5.429   5.415   0.043
 1314SOL     H218662   5.343   5.488   6.300
 1315SOL    OH218663   5.681   5.969   5.566
 1315SOL     H118664   5.668   5.997   5.475
 1315SOL     H218665   5.734   6.039   5.604
 1316SOL    OH218666   0.764   4.144   1.236
 1316SOL     H118667   0.824   4.217   1.251
 1316SOL     H218668   0.721   4.165   1.153
 1317SOL    OH218669   5.997   5.988   0.464
 1317SOL     H118670   6.090   5.971   0.476
 1317SOL     H218671   5.969   5.925   0.397
 1318SOL    OH218672   3.692   1.057   0.818
 1318SOL     H118673   3.729   1.114   0.751
 1318SOL     H218674   3.616   1.104   0.851
 1319SOL    OH218675   3.566   3.691   5.910
 1319SOL     H118676   3.652   3.654   5.893
 1319SOL     H218677   3.521   3.625   5.964
 1320SOL    OH218678   2.774   6.059   1.010
 1320SOL     H118679   2.824   6.113   0.948
 1320SOL     H218680   2.689   6.102   1.015
 1321SOL    OH218681   0.831   3.658   5.921
 1321SOL     H118682   0.909   3.689   5.877
 1321SOL     H218683   0.791   3.597   5.859
 1322SOL    OH218684   1.191   5.178   6.320
 1322SOL     H118685   1.199   5.112   6.251
 1322SOL     H218686   1.109   5.156   0.007
 1323SOL    OH218687   3.380   0.361   6.257
 1323SOL     H118688   3.407   0.270   6.270
 1323SOL     H218689   3.444   0.413   6.304
 1324SOL    OH218690   2.275   3.534   1.383
 1324SOL     H118691   2.180   3.527   1.370
 1324SOL     H218692   2.312   3.473   1.320
 1325SOL    OH218693   2.309   0.718   6.251
 1325SOL     H118694   2.347   0.772   6.320
 1325SOL     H218695   2.262   0.779   6.195
 1326SOL    OH218696   2.096   3.404   5.475
 1326SOL     H118697   2.029   3.396   5.543
 1326SOL     H218698   2.074   3.336   5.412
 1327SOL    OH218699   5.375   1.079   1.055
 1327SOL     H118700   5.451   1.024   1.034
 1327SOL     H218701   5.329   1.032   1.124
 1328SOL    OH218702   1.590   3.336   0.608
 1328SOL     H118703   1.648   3.366   0.678
 1328SOL     H218704   1.524   3.405   0.599
 1329SOL    OH218705   2.074   6.205   4.537
 1329SOL     H118706   2.085   6.201   4.632
 1329SOL     H218707   2.002   6.144   4.519
 1330SOL    OH218708   0.473   4.586   6.072
 1330SOL     H118709   0.426   4.601   6.154
 1330SOL     H218710   0.410   4.606   6.004
 1331SOL    OH218711   5.243   0.513   6.294
 1331SOL     H118712   5.325   0.513   6.345
 1331SOL     H218713   5.260   0.574   6.222
 1332SOL    OH218714   3.692   4.038   0.303
 1332SOL     H118715   3.673   3.944   0.312
 1332SOL     H218716   3.620   4.072   0.250
 1333SOL    OH218717   3.931   2.514   0.102
 1333SOL     H118718   4.013   2.467   0.090
 1333SOL     H218719   3.955   2.607   0.093
 1334SOL    OH218720   5.072   3.592   0.007
 1334SOL     H118721   5.141   3.609   0.070
 1334SOL     H218722   5.001   3.650   0.032
 1335SOL    OH218723   3.759   4.352   6.251
 1335SOL     H118724   3.829   4.412   6.278
 1335SOL     H218725   3.759   4.284   6.318
 1336SOL    OH218726   3.895   0.412   5.374
 1336SOL     H118727   3.808   0.372   5.376
 1336SOL     H218728   3.887   0.483   5.311
 1337SOL    OH218729   4.060   1.069   5.501
 1337SOL     H118730   4.124   1.071   5.430
 1337SOL     H218731   4.004   0.995   5.481
 1338SOL    OH218732   0.364   2.995   0.254
 1338SOL     H118733   0.270   2.983   0.243
 1338SOL     H218734   0.376   3.008   0.348
 1339SOL    OH218735   0.408   5.266   1.052
 1339SOL     H118736   0.453   5.294   1.132
 1339SOL     H218737   0.459   5.303   0.981
 1340SOL    OH218738   0.374   1.609   0.334
 1340SOL     H118739   0.420   1.645   0.410
 1340SOL     H218740   0.327   1.533   0.368
 1341SOL    OH218741   0.752   2.802   2.003
 1341SOL     H118742   0.728   2.884   1.961
 1341SOL     H218743   0.738   2.735   1.936
 1342SOL    OH218744   5.918   5.264   0.195
 1342SOL     H118745   6.002   5.280   0.152
 1342SOL     H218746   5.920   5.319   0.273
 1343SOL    OH218747   1.974   2.471   5.966
 1343SOL     H118748   2.059   2.499   5.930
 1343SOL     H218749   1.972   2.377   5.951
 1344SOL    OH218750   5.499   6.238   0.987
 1344SOL     H118751   5.544   6.268   1.066
 1344SOL     H218752   5.406   6.235   1.013
 1345SOL    OH218753   4.593   1.932   0.724
 1345SOL     H118754   4.600   1.904   0.633
 1345SOL     H218755   4.584   1.851   0.774
 1346SOL    OH218756   0.423   6.063   5.572
 1346SOL     H118757   0.410   5.993   5.509
 1346SOL     H218758   0.386   6.141   5.530
 1347SOL    OH218759   3.747   2.969   4.490
 1347SOL     H118760   3.695   2.909   4.437
 1347SOL     H218761   3.813   3.004   4.430
 1348SOL    OH218762   1.254   4.269   4.924
 1348SOL     H118763   1.252   4.364   4.940
 1348SOL     H218764   1.162   4.244   4.918
 1349SOL    OH218765   5.456   3.495   1.045
 1349SOL     H118766   5.490   3.450   1.122
 1349SOL     H218767   5.471   3.588   1.063
 1350SOL    OH218768   5.615   0.403   0.427
 1350SOL     H118769   5.695   0.456   0.421
 1350SOL     H218770   5.646   0.317   0.453
 1351SOL    OH218771   1.718   3.709   0.796
 1351SOL     H118772   1.633   3.672   0.820
 1351SOL     H218773   1.777   3.681   0.866
 1352SOL    OH218774   3.481   3.942   0.670
 1352SOL     H118775   3.488   3.974   0.760
 1352SOL     H218776   3.389   3.953   0.648
 1353SOL    OH218777   0.990   4.510   5.879
 1353SOL     H118778   0.988   4.535   5.787
 1353SOL     H218779   0.904   4.535   5.912
 1354SOL    OH218780   5.027   4.587   5.804
 1354SOL     H118781   4.965   4.652   5.772
 1354SOL     H218782   4.973   4.525   5.852
 1355SOL    OH218783   4.132   2.113   6.256
 1355SOL     H118784   4.047   2.114   6.211
 1355SOL     H218785   4.196   2.110   6.185
 1356SOL    OH218786   1.401   4.334   5.727
 1356SOL     H118787   1.381   4.395   5.798
 1356SOL     H218788   1.483   4.293   5.753
 1357SOL    OH218789   0.732   5.687   1.620
 1357SOL     H118790   0.789   5.712   1.692
 1357SOL     H218791   0.719   5.768   1.570
 1358SOL    OH218792   4.475   0.354   5.305
 1358SOL     H118793   4.456   0.448   5.312
 1358SOL     H218794   4.459   0.333   5.213
 1359SOL    OH218795   3.803   0.394   4.792
 1359SOL     H118796   3.726   0.339   4.805
 1359SOL     H218797   3.768   0.479   4.764
 1360SOL    OH218798   0.279   6.228   6.185
 1360SOL     H118799   0.286   6.277   6.268
 1360SOL     H218800   0.367   6.192   6.172
 1361SOL    OH218801   0.446   4.792   1.164
 1361SOL     H118802   0.452   4.865   1.226
 1361SOL     H218803   0.425   4.716   1.219
 1362SOL    OH218804   0.279   4.245   0.379
 1362SOL     H118805   0.249   4.294   0.302
 1362SOL     H218806   0.338   4.305   0.424
 1363SOL    OH218807   5.607   1.811   5.398
 1363SOL     H118808   5.652   1.731   5.370
 1363SOL     H218809   5.518   1.781   5.420
 1364SOL    OH218810   3.943   1.631   5.545
 1364SOL     H118811   4.000   1.699   5.580
 1364SOL     H218812   3.991   1.597   5.470
 1365SOL    OH218813   3.206   4.679   5.943
 1365SOL     H118814   3.134   4.625   5.912
 1365SOL     H218815   3.233   4.730   5.867
 1366SOL    OH218816   1.322   3.808   0.926
 1366SOL     H118817   1.367   3.862   0.990
 1366SOL     H218818   1.293   3.869   0.858
 1367SOL    OH218819   3.770   2.868   5.455
 1367SOL     H118820   3.845   2.920   5.426
 1367SOL     H218821   3.738   2.913   5.533
 1368SOL    OH218822   4.166   0.235   1.563
 1368SOL     H118823   4.130   0.219   1.650
 1368SOL     H218824   4.107   0.300   1.524
 1369SOL    OH218825   3.832   1.972   0.468
 1369SOL     H118826   3.845   2.060   0.432
 1369SOL     H218827   3.914   1.952   0.513
 1370SOL    OH218828   1.684   6.215   0.196
 1370SOL     H118829   1.606   6.161   0.187
 1370SOL     H218830   1.753   6.165   0.151
 1371SOL    OH218831   1.890   4.214   5.921
 1371SOL     H118832   1.939   4.155   5.979
 1371SOL     H218833   1.957   4.251   5.863
 1372SOL    OH218834   5.287   4.512   1.306
 1372SOL     H118835   5.227   4.586   1.313
 1372SOL     H218836   5.232   4.435   1.319
 1373SOL    OH218837   3.317   3.624   4.762
 1373SOL     H118838   3.281   3.693   4.707
 1373SOL     H218839   3.296   3.543   4.715
 1374SOL    OH218840   5.427   3.034   5.485
 1374SOL     H118841   5.424   2.961   5.422
 1374SOL     H218842   5.412   3.112   5.431
 1375SOL    OH218843   1.060   4.667   0.321
 1375SOL     H118844   1.046   4.590   0.266
 1375SOL     H218845   1.055   4.741   0.260
 1376SOL    OH218846   0.205   3.080   5.353
 1376SOL     H118847   0.274   3.141   5.329
 1376SOL     H218848   0.133   3.101   5.293
 1377SOL    OH218849   2.700   0.442   0.850
 1377SOL     H118850   2.637   0.396   0.905
 1377SOL     H218851   2.761   0.373   0.822
 1378SOL    OH218852   1.871   2.213   5.317
 1378SOL     H118853   1.786   2.178   5.293
 1378SOL     H218854   1.860   2.242   5.408
 1379SOL    OH218855   4.106   4.715   5.317
 1379SOL     H118856   4.023   4.723   5.270
 1379SOL     H218857   4.109   4.792   5.374
 1380SOL    OH218858   3.539   4.022   2.024
 1380SOL     H118859   3.592   3.957   1.979
 1380SOL     H218860   3.597   4.060   2.090
 1381SOL    OH218861   0.193   4.027   5.286
 1381SOL     H118862   0.115   4.032   5.230
 1381SOL     H218863   0.175   3.953   5.344
 1382SOL    OH218864   4.090   3.745   5.814
 1382SOL     H118865   4.036   3.740   5.893
 1382SOL     H218866   4.031   3.777   5.746
 1383SOL    OH218867   5.746   5.057   0.242
 1383SOL     H118868   5.812   5.124   0.229
 1383SOL     H218869   5.700   5.051   0.158
 1384SOL    OH218870   1.624   2.093   5.288
 1384SOL     H118871   1.654   2.042   5.212
 1384SOL     H218872   1.582   2.170   5.250
 1385SOL    OH218873   0.032   0.545   0.729
 1385SOL     H118874   0.057   0.456   0.751
 1385SOL     H218875   0.014   0.587   0.814
 1386SOL    OH218876   0.653   1.439   0.812
 1386SOL     H118877   0.571   1.474   0.847
 1386SOL     H218878   0.715   1.446   0.885
 1387SOL    OH218879   3.403   1.638   0.066
 1387SOL     H118880   3.379   1.620   0.157
 1387SOL     H218881   3.344   1.584   0.014
 1388SOL    OH218882   4.093   4.317   4.777
 1388SOL     H118883   4.045   4.393   4.742
 1388SOL     H218884   4.171   4.311   4.722
 1389SOL    OH218885   1.678   1.949   5.532
 1389SOL     H118886   1.741   1.877   5.527
 1389SOL     H218887   1.679   1.988   5.445
 1390SOL    OH218888   1.072   1.662   0.644
 1390SOL     H118889   1.058   1.654   0.550
 1390SOL     H218890   1.159   1.701   0.652
 1391SOL    OH218891   3.353   2.280   5.859
 1391SOL     H118892   3.305   2.360   5.881
 1391SOL     H218893   3.383   2.246   5.943
 1392SOL    OH218894   0.460   6.195   1.106
 1392SOL     H118895   0.504   6.146   1.176
 1392SOL     H218896   0.532   6.235   1.057
 1393SOL    OH218897   3.135   0.895   6.029
 1393SOL     H118898   3.140   0.846   6.111
 1393SOL     H218899   3.068   0.961   6.045
 1394SOL    OH218900   0.137   1.819   1.552
 1394SOL     H118901   0.203   1.751   1.561
 1394SOL     H218902   0.056   1.772   1.533
 1395SOL    OH218903   5.021   1.988   5.997
 1395SOL     H118904   5.010   2.083   5.989
 1395SOL     H218905   5.080   1.978   6.072
 1396SOL    OH218906   5.858   5.701   5.807
 1396SOL     H118907   5.788   5.747   5.854
 1396SOL     H218908   5.922   5.680   5.875
 1397SOL    OH218909   2.555   1.207   6.080
 1397SOL     H118910   2.492   1.183   6.148
 1397SOL     H218911   2.503   1.212   5.999
 1398SOL    OH218912   2.196   0.767   5.272
 1398SOL     H118913   2.172   0.809   5.190
 1398SOL     H218914   2.249   0.691   5.246
 1399SOL    OH218915   6.089   5.786   0.001
 1399SOL     H118916   6.131   5.811   0.083
 1399SOL     H218917   6.041   5.706   0.021
 1400SOL    OH218918   5.417   6.050   6.025
 1400SOL     H118919   5.443   6.035   5.934
 1400SOL     H218920   5.407   5.962   6.061
 1401SOL    OH218921   4.549   2.166   1.190
 1401SOL     H118922   4.589   2.253   1.194
 1401SOL     H218923   4.600   2.119   1.124
 1402SOL    OH218924   2.027   3.447   0.194
 1402SOL     H118925   2.060   3.366   0.232
 1402SOL     H218926   1.998   3.499   0.270
 1403SOL    OH218927   1.774   0.438   5.745
 1403SOL     H118928   1.785   0.483   5.828
 1403SOL     H218929   1.747   0.350   5.768
 1404SOL    OH218930   4.721   4.123   0.194
 1404SOL     H118931   4.700   4.185   0.264
 1404SOL     H218932   4.804   4.083   0.221
 1405SOL    OH218933   5.655   3.771   0.239
 1405SOL     H118934   5.690   3.859   0.230
 1405SOL     H218935   5.574   3.772   0.187
 1406SOL    OH218936   4.702   5.324   0.581
 1406SOL     H118937   4.797   5.323   0.598
 1406SOL     H218938   4.688   5.251   0.521
 1407SOL    OH218939   1.586   1.172   5.823
 1407SOL     H118940   1.588   1.174   5.727
 1407SOL     H218941   1.493   1.183   5.845
 1408SOL    OH218942   1.883   5.736   5.558
 1408SOL     H118943   1.895   5.816   5.506
 1408SOL     H218944   1.806   5.754   5.612
 1409SOL    OH218945   0.063   6.245   0.148
 1409SOL     H118946   0.038   6.297   0.224
 1409SOL     H218947   6.270   6.222   0.107
 1410SOL    OH218948   5.511   3.967   5.732
 1410SOL     H118949   5.583   3.983   5.672
 1410SOL     H218950   5.526   4.028   5.804
 1411SOL    OH218951   6.004   1.525   0.612
 1411SOL     H118952   6.026   1.592   0.677
 1411SOL     H218953   6.073   1.534   0.546
 1412SOL    OH218954   2.892   1.260   0.381
 1412SOL     H118955   2.963   1.203   0.351
 1412SOL     H218956   2.926   1.300   0.461
 1413SOL    OH218957   3.368   3.494   5.300
 1413SOL     H118958   3.413   3.535   5.374
 1413SOL     H218959   3.339   3.567   5.246
 1414SOL    OH218960   2.693   1.583   0.184
 1414SOL     H118961   2.698   1.670   0.146
 1414SOL     H218962   2.656   1.528   0.114
 1415SOL    OH218963   3.301   1.310   1.392
 1415SOL     H118964   3.265   1.398   1.380
 1415SOL     H218965   3.396   1.322   1.388
 1416SOL    OH218966   0.568   3.276   0.550
 1416SOL     H118967   0.617   3.342   0.501
 1416SOL     H218968   0.562   3.311   0.639
 1417SOL    OH218969   3.236   4.596   5.490
 1417SOL     H118970   3.186   4.653   5.431
 1417SOL     H218971   3.321   4.586   5.447
 1418SOL    OH218972   5.042   2.693   0.040
 1418SOL     H118973   5.010   2.742   6.322
 1418SOL     H218974   5.105   2.752   0.082
 1419SOL    OH218975   2.013   3.187   0.552
 1419SOL     H118976   2.040   3.121   0.616
 1419SOL     H218977   2.045   3.269   0.589
 1420SOL    OH218978   3.357   3.124   5.109
 1420SOL     H118979   3.451   3.142   5.107
 1420SOL     H218980   3.351   3.034   5.142
 1421SOL    OH218981   1.223   3.990   0.316
 1421SOL     H118982   1.290   3.973   0.250
 1421SOL     H218983   1.147   4.020   0.266
 1422SOL    OH218984   2.561   5.006   1.056
 1422SOL     H118985   2.485   5.004   0.998
 1422SOL     H218986   2.551   4.929   1.112
 1423SOL    OH218987   5.148   3.719   4.752
 1423SOL     H118988   5.122   3.653   4.817
 1423SOL     H218989   5.170   3.796   4.805
 1424SOL    OH218990   2.691   4.137   5.825
 1424SOL     H118991   2.610   4.188   5.817
 1424SOL     H218992   2.753   4.181   5.766
 1425SOL    OH218993   5.852   4.172   4.616
 1425SOL     H118994   5.854   4.080   4.640
 1425SOL     H218995   5.929   4.209   4.660
 1426SOL    OH218996   0.093   0.353   5.738
 1426SOL     H118997   0.086   0.387   5.827
 1426SOL     H218998   0.013   0.300   5.727
 1427SOL    OH218999   2.244   4.768   1.118
 1427SOL     H119000   2.206   4.734   1.037
 1427SOL     H219001   2.173   4.762   1.182
 1428SOL    OH219002   2.807   0.444   0.481
 1428SOL     H119003   2.715   0.451   0.509
 1428SOL     H219004   2.849   0.522   0.519
 1429SOL    OH219005   4.970   5.697   0.372
 1429SOL     H119006   5.000   5.606   0.382
 1429SOL     H219007   4.908   5.709   0.443
 1430SOL    OH219008   0.409   1.877   0.777
 1430SOL     H119009   0.330   1.914   0.815
 1430SOL     H219010   0.464   1.856   0.853
 1431SOL    OH219011   4.474   2.067   5.077
 1431SOL     H119012   4.516   2.111   5.151
 1431SOL     H219013   4.380   2.084   5.089
 1432SOL    OH219014   4.175   2.776   5.817
 1432SOL     H119015   4.260   2.811   5.843
 1432SOL     H219016   4.193   2.727   5.737
 1433SOL    OH219017   1.910   5.940   6.021
 1433SOL     H119018   1.954   5.878   6.081
 1433SOL     H219019   1.944   5.918   5.935
 1434SOL    OH219020   1.906   1.369   5.641
 1434SOL     H119021   1.896   1.278   5.612
 1434SOL     H219022   1.816   1.400   5.654
 1435SOL    OH219023   4.727   5.103   0.416
 1435SOL     H119024   4.718   5.021   0.465
 1435SOL     H219025   4.806   5.091   0.364
 1436SOL    OH219026   4.202   0.850   0.773
 1436SOL     H119027   4.194   0.758   0.749
 1436SOL     H219028   4.117   0.888   0.750
 1437SOL    OH219029   2.335   3.757   6.166
 1437SOL     H119030   2.332   3.793   6.255
 1437SOL     H219031   2.386   3.677   6.175
 1438SOL    OH219032   3.333   1.645   0.341
 1438SOL     H119033   3.262   1.596   0.382
 1438SOL     H219034   3.413   1.602   0.374
 1439SOL    OH219035   4.920   5.123   5.924
 1439SOL     H119036   4.883   5.129   6.012
 1439SOL     H219037   4.998   5.069   5.935
 1440SOL    OH219038   5.927   2.693   5.897
 1440SOL     H119039   6.000   2.635   5.876
 1440SOL     H219040   5.967   2.776   5.920
 1441SOL    OH219041   2.098   4.358   0.576
 1441SOL     H119042   2.115   4.273   0.535
 1441SOL     H219043   2.185   4.397   0.586
 1442SOL    OH219044   3.506   3.890   5.554
 1442SOL     H119045   3.591   3.927   5.581
 1442SOL     H219046   3.482   3.941   5.476
 1443SOL    OH219047   2.307   0.380   0.568
 1443SOL     H119048   2.306   0.367   0.663
 1443SOL     H219049   2.400   0.392   0.547
 1444SOL    OH219050   0.354   3.380   1.971
 1444SOL     H119051   0.323   3.432   2.045
 1444SOL     H219052   0.363   3.291   2.007
 1445SOL    OH219053   3.243   4.188   1.679
 1445SOL     H119054   3.288   4.119   1.728
 1445SOL     H219055   3.162   4.148   1.648
 1446SOL    OH219056   3.618   3.060   1.776
 1446SOL     H119057   3.613   3.098   1.863
 1446SOL     H219058   3.553   2.991   1.776
 1447SOL    OH219059   5.855   5.711   4.243
 1447SOL     H119060   5.842   5.781   4.307
 1447SOL     H219061   5.771   5.664   4.242
 1448SOL    OH219062   5.242   4.786   5.554
 1448SOL     H119063   5.270   4.812   5.642
 1448SOL     H219064   5.199   4.864   5.519
 1449SOL    OH219065   0.239   5.473   2.140
 1449SOL     H119066   0.162   5.528   2.144
 1449SOL     H219067   0.264   5.474   2.048
 1450SOL    OH219068   5.210   2.376   0.766
 1450SOL     H119069   5.164   2.434   0.706
 1450SOL     H219070   5.274   2.432   0.809
 1451SOL    OH219071   0.618   5.115   5.613
 1451SOL     H119072   0.550   5.109   5.545
 1451SOL     H219073   0.612   5.032   5.660
 1452SOL    OH219074   0.078   0.732   1.462
 1452SOL     H119075   0.082   0.650   1.511
 1452SOL     H219076   0.004   0.721   1.403
 1453SOL    OH219077   5.247   5.570   5.474
 1453SOL     H119078   5.194   5.592   5.551
 1453SOL     H219079   5.329   5.537   5.511
 1454SOL    OH219080   1.688   2.358   0.962
 1454SOL     H119081   1.656   2.292   1.024
 1454SOL     H219082   1.734   2.307   0.895
 1455SOL    OH219083   4.230   4.921   4.962
 1455SOL     H119084   4.222   4.907   4.867
 1455SOL     H219085   4.324   4.925   4.977
 1456SOL    OH219086   2.500   1.865   0.248
 1456SOL     H119087   2.510   1.791   0.308
 1456SOL     H219088   2.439   1.924   0.293
 1457SOL    OH219089   6.126   3.339   0.687
 1457SOL     H119090   6.132   3.247   0.713
 1457SOL     H219091   6.197   3.351   0.624
 1458SOL    OH219092   0.635   3.299   6.354
 1458SOL     H119093   0.690   3.222   6.342
 1458SOL     H219094   0.696   3.373   6.348
 1459SOL    OH219095   1.742   2.638   0.204
 1459SOL     H119096   1.769   2.724   0.171
 1459SOL     H219097   1.759   2.642   0.298
 1460SOL    OH219098   1.470   5.249   1.160
 1460SOL     H119099   1.465   5.281   1.250
 1460SOL     H219100   1.384   5.212   1.143
 1461SOL    OH219101   4.426   4.878   5.499
 1461SOL     H119102   4.405   4.786   5.480
 1461SOL     H219103   4.437   4.918   5.412
 1462SOL    OH219104   3.921   4.285   0.367
 1462SOL     H119105   3.881   4.277   0.280
 1462SOL     H219106   3.965   4.201   0.381
 1463SOL    OH219107   1.093   1.645   4.628
 1463SOL     H119108   1.065   1.707   4.695
 1463SOL     H219109   1.136   1.575   4.676
 1464SOL    OH219110   4.330   0.022   5.022
 1464SOL     H119111   4.403   6.291   5.030
 1464SOL     H219112   4.295   0.006   4.934
 1465SOL    OH219113   1.014   0.427   5.832
 1465SOL     H119114   1.080   0.402   5.767
 1465SOL     H219115   0.998   0.347   5.882
 1466SOL    OH219116   3.505   3.926   4.637
 1466SOL     H119117   3.417   3.895   4.615
 1466SOL     H219118   3.497   3.960   4.726
 1467SOL    OH219119   6.103   4.801   0.506
 1467SOL     H119120   6.040   4.729   0.509
 1467SOL     H219121   6.144   4.799   0.592
 1468SOL    OH219122   1.551   2.568   4.994
 1468SOL     H119123   1.614   2.527   4.934
 1468SOL     H219124   1.546   2.659   4.964
 1469SOL    OH219125   1.321   1.421   5.466
 1469SOL     H119126   1.294   1.381   5.384
 1469SOL     H219127   1.416   1.427   5.460
 1470SOL    OH219128   3.346   4.403   5.826
 1470SOL     H119129   3.384   4.455   5.897
 1470SOL     H219130   3.391   4.433   5.748
 1471SOL    OH219131   1.238   0.520   6.088
 1471SOL     H119132   1.324   0.495   6.056
 1471SOL     H219133   1.215   0.454   6.153
 1472SOL    OH219134   1.446   3.033   0.000
 1472SOL     H119135   1.463   3.099   6.291
 1472SOL     H219136   1.380   2.976   6.319
 1473SOL    OH219137   3.909   1.261   5.620
 1473SOL     H119138   3.961   1.193   5.577
 1473SOL     H219139   3.820   1.227   5.620
 1474SOL    OH219140   0.640   6.288   5.502
 1474SOL     H119141   0.632   6.309   5.595
 1474SOL     H219142   0.685   6.203   5.501
 1475SOL    OH219143   0.543   5.349   1.278
 1475SOL     H119144   0.599   5.413   1.322
 1475SOL     H219145   0.577   5.264   1.306
 1476SOL    OH219146   0.123   3.507   0.209
 1476SOL     H119147   0.213   3.538   0.225
 1476SOL     H219148   0.123   3.417   0.240
 1477SOL    OH219149   4.502   5.257   0.911
 1477SOL     H119150   4.554   5.326   0.951
 1477SOL     H219151   4.471   5.296   0.828
 1478SOL    OH219152   5.966   5.433   0.414
 1478SOL     H119153   6.027   5.412   0.485
 1478SOL     H219154   6.009   5.502   0.365
 1479SOL    OH219155   5.726   3.591   4.654
 1479SOL     H119156   5.688   3.679   4.659
 1479SOL     H219157   5.661   3.535   4.697
 1480SOL    OH219158   1.816   2.601   5.768
 1480SOL     H119159   1.895   2.615   5.717
 1480SOL     H219160   1.846   2.560   5.850
 1481SOL    OH219161   0.179   4.764   0.117
 1481SOL     H119162   0.219   4.745   0.202
 1481SOL     H219163   0.090   4.792   0.138
 1482SOL    OH219164   1.740   5.420   5.686
 1482SOL     H119165   1.740   5.439   5.592
 1482SOL     H219166   1.820   5.368   5.699
 1483SOL    OH219167   1.894   0.091   0.545
 1483SOL     H119168   1.885   0.039   0.625
 1483SOL     H219169   1.988   0.111   0.541
 1484SOL    OH219170   0.967   5.582   1.087
 1484SOL     H119171   0.964   5.626   1.002
 1484SOL     H219172   0.882   5.600   1.127
 1485SOL    OH219173   0.693   1.019   0.277
 1485SOL     H119174   0.612   0.970   0.264
 1485SOL     H219175   0.744   1.002   0.198
 1486SOL    OH219176   4.414   5.440   4.828
 1486SOL     H119177   4.457   5.400   4.752
 1486SOL     H219178   4.479   5.501   4.863
 1487SOL    OH219179   4.840   2.305   0.893
 1487SOL     H119180   4.913   2.307   0.955
 1487SOL     H219181   4.781   2.238   0.928
 1488SOL    OH219182   3.377   2.453   0.283
 1488SOL     H119183   3.330   2.479   0.203
 1488SOL     H219184   3.432   2.379   0.256
 1489SOL    OH219185   1.709   2.872   1.324
 1489SOL     H119186   1.742   2.859   1.235
 1489SOL     H219187   1.764   2.815   1.379
 1490SOL    OH219188   1.170   1.718   6.249
 1490SOL     H119189   1.095   1.668   6.279
 1490SOL     H219190   1.181   1.693   6.157
 1491SOL    OH219191   2.453   5.848   0.759
 1491SOL     H119192   2.467   5.772   0.703
 1491SOL     H219193   2.494   5.825   0.842
 1492SOL    OH219194   3.832   3.402   5.705
 1492SOL     H119195   3.753   3.348   5.700
 1492SOL     H219196   3.830   3.439   5.793
 1493SOL    OH219197   4.029   5.348   0.325
 1493SOL     H119198   4.088   5.344   0.249
 1493SOL     H219199   3.957   5.289   0.302
 1494SOL    OH219200   1.246   0.088   5.891
 1494SOL     H119201   1.257   0.090   5.986
 1494SOL     H219202   1.307   0.155   5.859
 1495SOL    OH219203   1.562   2.305   5.125
 1495SOL     H119204   1.592   2.267   5.042
 1495SOL     H219205   1.532   2.393   5.101
 1496SOL    OH219206   5.975   5.233   1.426
 1496SOL     H119207   6.040   5.179   1.470
 1496SOL     H219208   5.893   5.184   1.433
 1497SOL    OH219209   4.789   2.604   5.133
 1497SOL     H119210   4.737   2.532   5.096
 1497SOL     H219211   4.787   2.673   5.067
 1498SOL    OH219212   1.023   2.252   5.515
 1498SOL     H119213   1.098   2.260   5.456
 1498SOL     H219214   1.062   2.250   5.603
 1499SOL    OH219215   5.356   5.942   1.367
 1499SOL     H119216   5.341   5.938   1.273
 1499SOL     H219217   5.292   6.006   1.399
 1500SOL    OH219218   2.401   5.141   5.647
 1500SOL     H119219   2.441   5.054   5.650
 1500SOL     H219220   2.314   5.129   5.685
 1501SOL    OH219221   0.576   0.470   0.325
 1501SOL     H119222   0.512   0.466   0.397
 1501SOL     H219223   0.661   0.459   0.368
 1502SOL    OH219224   3.472   5.698   0.306
 1502SOL     H119225   3.498   5.700   0.398
 1502SOL     H219226   3.392   5.646   0.304
 1503SOL    OH219227   0.092   2.191   5.664
 1503SOL     H119228   0.009   2.222   5.701
 1503SOL     H219229   0.086   2.211   5.571
 1504SOL    OH219230   4.397   2.713   5.134
 1504SOL     H119231   4.450   2.740   5.059
 1504SOL     H219232   4.374   2.622   5.116
 1505SOL    OH219233   2.936   5.352   5.952
 1505SOL     H119234   2.983   5.323   6.031
 1505SOL     H219235   2.851   5.309   5.957
 1506SOL    OH219236   5.416   3.258   0.905
 1506SOL     H119237   5.439   3.334   0.959
 1506SOL     H219238   5.399   3.295   0.818
 1507SOL    OH219239   0.481   2.945   1.121
 1507SOL     H119240   0.443   2.897   1.047
 1507SOL     H219241   0.408   2.960   1.180
 1508SOL    OH219242   4.464   2.419   0.824
 1508SOL     H119243   4.393   2.473   0.790
 1508SOL     H219244   4.436   2.329   0.807
 1509SOL    OH219245   5.274   0.146   5.932
 1509SOL     H119246   5.251   0.060   5.968
 1509SOL     H219247   5.240   0.209   5.995
 1510SOL    OH219248   4.615   3.619   5.335
 1510SOL     H119249   4.640   3.657   5.419
 1510SOL     H219250   4.608   3.525   5.351
 1511SOL    OH219251   0.116   0.609   6.269
 1511SOL     H119252   0.154   0.641   6.188
 1511SOL     H219253   0.053   0.676   6.294
 1512SOL    OH219254   6.093   1.629   0.199
 1512SOL     H119255   6.170   1.645   0.145
 1512SOL     H219256   6.065   1.540   0.177
 1513SOL    OH219257   0.996   2.089   0.024
 1513SOL     H119258   0.946   2.009   0.043
 1513SOL     H219259   0.946   2.132   6.312
 1514SOL    OH219260   4.931   3.305   5.798
 1514SOL     H119261   4.859   3.262   5.751
 1514SOL     H219262   4.911   3.398   5.794
 1515SOL    OH219263   0.991   5.242   5.783
 1515SOL     H119264   1.044   5.178   5.831
 1515SOL     H219265   1.024   5.236   5.693
 1516SOL    OH219266   4.523   6.271   0.628
 1516SOL     H119267   4.536   6.189   0.582
 1516SOL     H219268   4.598   6.278   0.687
 1517SOL    OH219269   2.342   2.860   6.094
 1517SOL     H119270   2.402   2.935   6.087
 1517SOL     H219271   2.314   2.862   6.186
 1518SOL    OH219272   3.692   2.422   6.352
 1518SOL     H119273   3.773   2.462   0.026
 1518SOL     H219274   3.705   2.328   0.007
 1519SOL    OH219275   5.960   2.450   1.023
 1519SOL     H119276   5.967   2.527   0.966
 1519SOL     H219277   5.987   2.377   0.968
 1520SOL    OH219278   2.753   3.994   0.755
 1520SOL     H119279   2.683   4.056   0.776
 1520SOL     H219280   2.744   3.978   0.662
 1521SOL    OH219281   2.950   3.130   4.931
 1521SOL     H119282   2.930   3.138   4.838
 1521SOL     H219283   2.956   3.220   4.962
 1522SOL    OH219284   2.188   5.251   0.887
 1522SOL     H119285   2.162   5.336   0.851
 1522SOL     H219286   2.118   5.230   0.949
 1523SOL    OH219287   5.055   3.435   0.564
 1523SOL     H119288   5.079   3.422   0.656
 1523SOL     H219289   4.965   3.403   0.558
 1524SOL    OH219290   0.262   5.297   5.691
 1524SOL     H119291   0.211   5.311   5.612
 1524SOL     H219292   0.341   5.350   5.680
 1525SOL    OH219293   1.377   2.528   5.779
 1525SOL     H119294   1.397   2.435   5.769
 1525SOL     H219295   1.310   2.546   5.713
 1526SOL    OH219296   4.452   5.382   0.036
 1526SOL     H119297   4.487   5.471   0.040
 1526SOL     H219298   4.507   5.331   0.096
 1527SOL    OH219299   4.061   5.311   6.224
 1527SOL     H119300   3.992   5.368   6.260
 1527SOL     H219301   4.014   5.252   6.165
 1528SOL    OH219302   2.269   5.748   1.205
 1528SOL     H119303   2.257   5.683   1.135
 1528SOL     H219304   2.311   5.822   1.162
 1529SOL    OH219305   2.328   0.463   5.994
 1529SOL     H119306   2.280   0.537   5.956
 1529SOL     H219307   2.293   0.454   6.082
 1530SOL    OH219308   0.217   2.811   5.839
 1530SOL     H119309   0.237   2.897   5.801
 1530SOL     H219310   0.241   2.819   5.931
 1531SOL    OH219311   5.268   3.830   1.232
 1531SOL     H119312   5.257   3.925   1.227
 1531SOL     H219313   5.346   3.812   1.179
 1532SOL    OH219314   6.241   5.753   1.394
 1532SOL     H119315   6.177   5.698   1.348
 1532SOL     H219316   6.282   5.805   1.324
 1533SOL    OH219317   6.061   0.929   5.602
 1533SOL     H119318   6.036   0.878   5.524
 1533SOL     H219319   6.098   0.865   5.662
 1534SOL    OH219320   0.602   0.610   1.257
 1534SOL     H119321   0.605   0.639   1.166
 1534SOL     H219322   0.527   0.655   1.295
 1535SOL    OH219323   0.055   4.225   1.266
 1535SOL     H119324   0.078   4.278   1.190
 1535SOL     H219325   6.251   4.213   1.259
 1536SOL    OH219326   2.072   2.612   5.633
 1536SOL     H119327   2.097   2.705   5.627
 1536SOL     H219328   2.122   2.580   5.708
 1537SOL    OH219329   4.931   1.096   4.287
 1537SOL     H119330   4.856   1.151   4.308
 1537SOL     H219331   4.909   1.011   4.325
 1538SOL    OH219332   0.709   1.872   6.227
 1538SOL     H119333   0.774   1.858   6.296
 1538SOL     H219334   0.760   1.900   6.151
 1539SOL    OH219335   0.790   2.980   0.698
 1539SOL     H119336   0.853   2.913   0.725
 1539SOL     H219337   0.838   3.062   0.703
 1540SOL    OH219338   3.850   3.718   0.716
 1540SOL     H119339   3.821   3.755   0.799
 1540SOL     H219340   3.769   3.704   0.666
 1541SOL    OH219341   5.580   5.557   5.824
 1541SOL     H119342   5.606   5.641   5.861
 1541SOL     H219343   5.656   5.500   5.837
 1542SOL    OH219344   6.234   5.854   0.226
 1542SOL     H119345   0.016   5.898   0.181
 1542SOL     H219346   6.246   5.878   0.318
 1543SOL    OH219347   2.217   0.960   5.699
 1543SOL     H119348   2.245   0.967   5.608
 1543SOL     H219349   2.283   0.904   5.741
 1544SOL    OH219350   0.347   1.458   0.615
 1544SOL     H119351   0.399   1.537   0.602
 1544SOL     H219352   0.279   1.483   0.677
 1545SOL    OH219353   0.990   0.047   0.575
 1545SOL     H119354   1.037   0.085   0.500
 1545SOL     H219355   0.902   0.083   0.569
 1546SOL    OH219356   3.210   3.195   4.464
 1546SOL     H119357   3.248   3.116   4.502
 1546SOL     H219358   3.222   3.263   4.531
 1547SOL    OH219359   6.217   6.101   5.477
 1547SOL     H119360   6.234   6.180   5.426
 1547SOL     H219361   6.153   6.052   5.425
 1548SOL    OH219362   3.563   3.561   6.324
 1548SOL     H119363   3.646   3.528   6.357
 1548SOL     H219364   3.569   3.656   6.335
 1549SOL    OH219365   2.782   0.612   2.232
 1549SOL     H119366   2.832   0.688   2.203
 1549SOL     H219367   2.691   0.643   2.237
 1550SOL    OH219368   4.295   1.868   0.171
 1550SOL     H119369   4.387   1.883   0.192
 1550SOL     H219370   4.265   1.805   0.236
 1551SOL    OH219371   3.603   6.328   0.659
 1551SOL     H119372   3.523   6.278   0.648
 1551SOL     H219373   3.585   0.057   0.732
 1552SOL    OH219374   0.256   4.387   5.805
 1552SOL     H119375   0.263   4.320   5.737
 1552SOL     H219376   0.247   4.339   5.887
 1553SOL    OH219377   4.066   4.515   0.341
 1553SOL     H119378   4.116   4.483   0.266
 1553SOL     H219379   4.015   4.439   0.370
 1554SOL    OH219380   4.832   4.032   0.671
 1554SOL     H119381   4.851   3.989   0.754
 1554SOL     H219382   4.870   3.975   0.605
 1555SOL    OH219383   3.148   0.487   6.313
 1555SOL     H119384   3.224   0.436   6.284
 1555SOL     H219385   3.074   0.426   6.306
 1556SOL    OH219386   3.941   4.922   6.231
 1556SOL     H119387   3.967   4.966   6.312
 1556SOL     H219388   3.845   4.916   6.237
 1557SOL    OH219389   2.041   6.126   4.800
 1557SOL     H119390   1.970   6.084   4.752
 1557SOL     H219391   1.997   6.173   4.871
 1558SOL    OH219392   3.643   1.958   5.113
 1558SOL     H119393   3.590   1.934   5.037
 1558SOL     H219394   3.720   2.002   5.076
 1559SOL    OH219395   5.366   0.991   4.721
 1559SOL     H119396   5.450   0.986   4.675
 1559SOL     H219397   5.319   0.912   4.694
 1560SOL    OH219398   4.503   1.402   5.747
 1560SOL     H119399   4.554   1.343   5.802
 1560SOL     H219400   4.438   1.441   5.806
 1561SOL    OH219401   3.569   4.513   0.401
 1561SOL     H119402   3.617   4.519   0.319
 1561SOL     H219403   3.634   4.485   0.465
 1562SOL    OH219404   0.803   3.525   0.022
 1562SOL     H119405   0.853   3.502   0.100
 1562SOL     H219406   0.733   3.582   0.053
 1563SOL    OH219407   6.143   2.302   1.709
 1563SOL     H119408   6.163   2.209   1.698
 1563SOL     H219409   6.052   2.311   1.681
 1564SOL    OH219410   2.880   0.252   0.783
 1564SOL     H119411   2.905   0.199   0.859
 1564SOL     H219412   2.964   0.280   0.745
 1565SOL    OH219413   5.161   6.261   0.122
 1565SOL     H119414   5.097   6.330   0.138
 1565SOL     H219415   5.223   6.299   0.060
 1566SOL    OH219416   0.128   3.711   1.131
 1566SOL     H119417   0.060   3.726   1.197
 1566SOL     H219418   0.184   3.644   1.170
 1567SOL    OH219419   1.919   6.242   5.716
 1567SOL     H119420   2.002   6.195   5.713
 1567SOL     H219421   1.934   6.320   5.662
 1568SOL    OH219422   1.547   1.077   0.225
 1568SOL     H119423   1.483   1.082   0.296
 1568SOL     H219424   1.493   1.068   0.146
 1569SOL    OH219425   1.093   2.593   1.079
 1569SOL     H119426   1.151   2.550   1.016
 1569SOL     H219427   1.007   2.553   1.064
 1570SOL    OH219428   0.566   3.091   0.818
 1570SOL     H119429   0.623   3.157   0.856
 1570SOL     H219430   0.626   3.030   0.774
 1571SOL    OH219431   4.172   5.018   5.909
 1571SOL     H119432   4.244   5.074   5.940
 1571SOL     H219433   4.214   4.957   5.849
 1572SOL    OH219434   5.217   3.171   1.091
 1572SOL     H119435   5.282   3.201   1.028
 1572SOL     H219436   5.135   3.209   1.060
 1573SOL    OH219437   5.140   1.967   0.243
 1573SOL     H119438   5.135   2.030   0.314
 1573SOL     H219439   5.067   1.990   0.185
 1574SOL    OH219440   0.495   1.754   6.088
 1574SOL     H119441   0.540   1.715   6.014
 1574SOL     H219442   0.565   1.793   6.141
 1575SOL    OH219443   6.134   2.539   5.815
 1575SOL     H119444   6.220   2.552   5.856
 1575SOL     H219445   6.133   2.446   5.792
 1576SOL    OH219446   0.114   4.389   6.224
 1576SOL     H119447   0.056   4.452   6.182
 1576SOL     H219448   0.156   4.343   6.151
 1577SOL    OH219449   1.788   2.306   1.312
 1577SOL     H119450   1.774   2.293   1.406
 1577SOL     H219451   1.854   2.375   1.307
 1578SOL    OH219452   1.543   3.095   1.590
 1578SOL     H119453   1.468   3.036   1.583
 1578SOL     H219454   1.608   3.045   1.641
 1579SOL    OH219455   4.799   2.578   6.322
 1579SOL     H119456   4.883   2.601   0.006
 1579SOL     H219457   4.736   2.640   0.001
 1580SOL    OH219458   4.831   4.515   1.545
 1580SOL     H119459   4.921   4.491   1.565
 1580SOL     H219460   4.837   4.560   1.460
 1581SOL    OH219461   5.117   4.105   0.987
 1581SOL     H119462   5.194   4.125   0.933
 1581SOL     H219463   5.150   4.102   1.076
 1582SOL    OH219464   4.117   0.385   0.903
 1582SOL     H119465   4.129   0.428   0.987
 1582SOL     H219466   4.023   0.367   0.898
 1583SOL    OH219467   2.985   3.381   5.044
 1583SOL     H119468   3.053   3.354   5.106
 1583SOL     H219469   3.024   3.455   4.997
 1584SOL    OH219470   5.684   4.878   5.106
 1584SOL     H119471   5.643   4.813   5.048
 1584SOL     H219472   5.694   4.833   5.190
 1585SOL    OH219473   4.892   3.787   0.080
 1585SOL     H119474   4.917   3.861   0.135
 1585SOL     H219475   4.805   3.763   0.110
 1586SOL    OH219476   6.083   0.322   1.044
 1586SOL     H119477   6.161   0.267   1.041
 1586SOL     H219478   6.023   0.274   1.101
 1587SOL    OH219479   0.777   3.953   0.861
 1587SOL     H119480   0.774   3.929   0.768
 1587SOL     H219481   0.865   3.990   0.873
 1588SOL    OH219482   4.473   4.852   0.606
 1588SOL     H119483   4.558   4.865   0.563
 1588SOL     H219484   4.477   4.907   0.684
 1589SOL    OH219485   6.246   5.741   6.139
 1589SOL     H119486   6.287   5.817   6.099
 1589SOL     H219487   6.200   5.776   6.216
 1590SOL    OH219488   0.237   4.781   0.807
 1590SOL     H119489   0.320   4.829   0.800
 1590SOL     H219490   0.176   4.844   0.845
 1591SOL    OH219491   3.168   0.670   5.648
 1591SOL     H119492   3.106   0.651   5.577
 1591SOL     H219493   3.172   0.589   5.698
 1592SOL    OH219494   1.294   1.006   0.723
 1592SOL     H119495   1.213   1.051   0.700
 1592SOL     H219496   1.347   1.071   0.769
 1593SOL    OH219497   4.508   4.207   5.645
 1593SOL     H119498   4.425   4.235   5.607
 1593SOL     H219499   4.565   4.283   5.638
 1594SOL    OH219500   2.012   4.909   0.088
 1594SOL     H119501   2.077   4.872   0.148
 1594SOL     H219502   2.046   4.887   0.000
 1595SOL    OH219503   6.119   4.225   0.139
 1595SOL     H119504   6.138   4.175   0.218
 1595SOL     H219505   6.188   4.200   0.078
 1596SOL    OH219506   6.105   3.832   5.666
 1596SOL     H119507   6.071   3.810   5.752
 1596SOL     H219508   6.124   3.926   5.671
 1597SOL    OH219509   6.109   4.478   5.906
 1597SOL     H119510   6.063   4.403   5.943
 1597SOL     H219511   6.155   4.517   5.981
 1598SOL    OH219512   5.226   2.867   0.139
 1598SOL     H119513   5.300   2.853   0.080
 1598SOL     H219514   5.254   2.829   0.222
 1599SOL    OH219515   3.811   2.571   1.073
 1599SOL     H119516   3.852   2.645   1.028
 1599SOL     H219517   3.862   2.495   1.048
 1600SOL    OH219518   3.262   1.488   6.248
 1600SOL     H119519   3.260   1.396   6.223
 1600SOL     H219520   3.247   1.536   6.167
 1601SOL    OH219521   0.221   0.758   4.467
 1601SOL     H119522   0.203   0.817   4.540
 1601SOL     H219523   0.140   0.757   4.416
 1602SOL    OH219524   0.701   2.091   5.825
 1602SOL     H119525   0.738   2.178   5.813
 1602SOL     H219526   0.615   2.094   5.783
 1603SOL    OH219527   0.629   2.210   0.752
 1603SOL     H119528   0.608   2.178   0.840
 1603SOL     H219529   0.585   2.150   0.693
 1604SOL    OH219530   2.328   3.906   0.057
 1604SOL     H119531   2.242   3.865   0.068
 1604SOL     H219532   2.326   3.983   0.114
 1605SOL    OH219533   1.225   2.372   0.391
 1605SOL     H119534   1.280   2.295   0.377
 1605SOL     H219535   1.150   2.359   0.332
 1606SOL    OH219536   0.076   5.930   1.224
 1606SOL     H119537   0.097   5.901   1.135
 1606SOL     H219538   0.051   6.021   1.215
 1607SOL    OH219539   4.241   0.454   4.755
 1607SOL     H119540   4.214   0.467   4.664
 1607SOL     H219541   4.334   0.474   4.755
 1608SOL    OH219542   2.941   1.332   1.122
 1608SOL     H119543   3.037   1.326   1.116
 1608SOL     H219544   2.910   1.242   1.117
 1609SOL    OH219545   1.277   2.184   5.953
 1609SOL     H119546   1.350   2.209   5.896
 1609SOL     H219547   1.290   2.091   5.970
 1610SOL    OH219548   0.392   5.606   6.137
 1610SOL     H119549   0.415   5.563   6.055
 1610SOL     H219550   0.343   5.684   6.109
 1611SOL    OH219551   5.001   1.345   6.154
 1611SOL     H119552   5.050   1.301   6.224
 1611SOL     H219553   4.999   1.437   6.181
 1612SOL    OH219554   2.725   4.975   5.806
 1612SOL     H119555   2.651   4.944   5.754
 1612SOL     H219556   2.793   4.995   5.741
 1613SOL    OH219557   1.937   4.379   0.949
 1613SOL     H119558   1.920   4.440   1.021
 1613SOL     H219559   1.898   4.297   0.977
 1614SOL    OH219560   2.841   4.653   5.393
 1614SOL     H119561   2.766   4.688   5.345
 1614SOL     H219562   2.861   4.570   5.349
 1615SOL    OH219563   2.288   4.732   0.558
 1615SOL     H119564   2.301   4.639   0.578
 1615SOL     H219565   2.202   4.752   0.594
 1616SOL    OH219566   3.532   0.134   6.033
 1616SOL     H119567   3.626   0.144   6.050
 1616SOL     H219568   3.494   0.112   6.118
 1617SOL    OH219569   2.483   5.136   1.292
 1617SOL     H119570   2.494   5.105   1.202
 1617SOL     H219571   2.427   5.071   1.333
 1618SOL    OH219572   0.577   3.920   0.011
 1618SOL     H119573   0.575   3.983   6.296
 1618SOL     H219574   0.668   3.917   0.039
 1619SOL    OH219575   0.045   3.910   0.968
 1619SOL     H119576   6.265   3.942   1.023
 1619SOL     H219577   0.081   3.835   1.016
 1620SOL    OH219578   3.213   4.060   4.803
 1620SOL     H119579   3.168   4.115   4.868
 1620SOL     H219580   3.301   4.048   4.840
 1621SOL    OH219581   5.265   4.049   6.209
 1621SOL     H119582   5.298   4.113   6.146
 1621SOL     H219583   5.308   4.073   6.291
 1622SOL    OH219584   0.736   5.003   0.765
 1622SOL     H119585   0.808   4.940   0.766
 1622SOL     H219586   0.757   5.065   0.835
 1623SOL    OH219587   2.263   1.697   5.898
 1623SOL     H119588   2.328   1.665   5.835
 1623SOL     H219589   2.291   1.786   5.919
 1624SOL    OH219590   4.245   0.868   4.883
 1624SOL     H119591   4.199   0.867   4.967
 1624SOL     H219592   4.245   0.960   4.857
 1625SOL    OH219593   3.480   4.050   5.326
 1625SOL     H119594   3.555   3.995   5.305
 1625SOL     H219595   3.462   4.097   5.245
 1626SOL    OH219596   2.304   1.987   0.399
 1626SOL     H119597   2.255   1.927   0.455
 1626SOL     H219598   2.238   2.025   0.341
 1627SOL    OH219599   2.330   4.179   6.001
 1627SOL     H119600   2.368   4.224   5.926
 1627SOL     H219601   2.375   4.095   6.004
 1628SOL    OH219602   4.319   5.371   5.073
 1628SOL     H119603   4.343   5.373   4.981
 1628SOL     H219604   4.332   5.461   5.104
 1629SOL    OH219605   2.308   0.393   1.094
 1629SOL     H119606   2.269   0.318   1.138
 1629SOL     H219607   2.359   0.437   1.161
 1630SOL    OH219608   2.514   5.865   4.673
 1630SOL     H119609   2.430   5.848   4.630
 1630SOL     H219610   2.525   5.960   4.669
 1631SOL    OH219611   2.380   5.328   5.441
 1631SOL     H119612   2.473   5.328   5.418
 1631SOL     H219613   2.373   5.261   5.509
 1632SOL    OH219614   3.175   5.859   1.269
 1632SOL     H119615   3.150   5.935   1.217
 1632SOL     H219616   3.157   5.884   1.359
 1633SOL    OH219617   6.242   3.098   0.027
 1633SOL     H119618   6.270   3.166   6.323
 1633SOL     H219619   6.147   3.111   0.035
 1634SOL    OH219620   0.050   2.862   4.517
 1634SOL     H119621   0.123   2.906   4.474
 1634SOL     H219622   0.041   2.779   4.469
 1635SOL    OH219623   5.404   2.115   0.447
 1635SOL     H119624   5.454   2.091   0.369
 1635SOL     H219625   5.470   2.118   0.517
 1636SOL    OH219626   4.528   1.961   5.940
 1636SOL     H119627   4.556   1.962   5.848
 1636SOL     H219628   4.596   2.009   5.986
 1637SOL    OH219629   3.115   3.715   5.926
 1637SOL     H119630   3.181   3.767   5.880
 1637SOL     H219631   3.115   3.749   6.015
 1638SOL    OH219632   1.178   0.800   0.084
 1638SOL     H119633   1.251   0.742   0.108
 1638SOL     H219634   1.166   0.787   6.348
 1639SOL    OH219635   1.264   3.145   5.557
 1639SOL     H119636   1.218   3.190   5.628
 1639SOL     H219637   1.357   3.163   5.573
 1640SOL    OH219638   2.740   0.666   1.633
 1640SOL     H119639   2.726   0.760   1.626
 1640SOL     H219640   2.829   0.656   1.667
 1641SOL    OH219641   4.305   2.162   0.099
 1641SOL     H119642   4.299   2.092   0.164
 1641SOL     H219643   4.248   2.134   0.028
 1642SOL    OH219644   3.023   2.393   6.096
 1642SOL     H119645   3.041   2.299   6.104
 1642SOL     H219646   3.084   2.424   6.029
 1643SOL    OH219647   0.588   4.857   5.702
 1643SOL     H119648   0.507   4.862   5.753
 1643SOL     H219649   0.562   4.817   5.619
 1644SOL    OH219650   4.589   5.198   0.198
 1644SOL     H119651   4.634   5.174   0.279
 1644SOL     H219652   4.624   5.139   0.132
 1645SOL    OH219653   3.200   3.846   4.632
 1645SOL     H119654   3.198   3.919   4.694
 1645SOL     H219655   3.122   3.858   4.578
 1646SOL    OH219656   3.612   6.005   5.191
 1646SOL     H119657   3.560   6.048   5.123
 1646SOL     H219658   3.679   5.956   5.142
 1647SOL    OH219659   4.732   3.082   0.485
 1647SOL     H119660   4.732   3.044   0.397
 1647SOL     H219661   4.666   3.031   0.532
 1648SOL    OH219662   4.762   4.045   6.253
 1648SOL     H119663   4.775   4.056   6.347
 1648SOL     H219664   4.825   3.977   6.227
 1649SOL    OH219665   5.085   4.427   1.577
 1649SOL     H119666   5.140   4.373   1.635
 1649SOL     H219667   5.104   4.394   1.489
 1650SOL    OH219668   0.541   6.117   6.216
 1650SOL     H119669   0.623   6.135   6.262
 1650SOL     H219670   0.499   6.048   6.267
 1651SOL    OH219671   4.269   4.205   0.934
 1651SOL     H119672   4.223   4.135   0.887
 1651SOL     H219673   4.271   4.278   0.872
 1652SOL    OH219674   4.417   1.013   0.685
 1652SOL     H119675   4.473   1.018   0.762
 1652SOL     H219676   4.345   0.956   0.710
 1653SOL    OH219677   0.029   0.259   5.257
 1653SOL     H119678   0.096   0.230   5.195
 1653SOL     H219679   6.279   0.335   5.215
 1654SOL    OH219680   2.309   1.041   1.397
 1654SOL     H119681   2.358   0.961   1.414
 1654SOL     H219682   2.369   1.112   1.420
 1655SOL    OH219683   4.583   4.573   5.280
 1655SOL     H119684   4.559   4.602   5.193
 1655SOL     H219685   4.626   4.488   5.266
 1656SOL    OH219686   1.046   4.866   0.127
 1656SOL     H119687   1.057   4.959   0.144
 1656SOL     H219688   0.966   4.861   0.075
 1657SOL    OH219689   3.096   3.614   4.938
 1657SOL     H119690   3.171   3.620   4.878
 1657SOL     H219691   3.020   3.633   4.882
 1658SOL    OH219692   1.655   0.810   0.740
 1658SOL     H119693   1.631   0.763   0.820
 1658SOL     H219694   1.640   0.746   0.670
 1659SOL    OH219695   2.085   2.055   1.471
 1659SOL     H119696   2.138   1.983   1.505
 1659SOL     H219697   1.994   2.030   1.492
 1660SOL    OH219698   4.583   2.144   5.316
 1660SOL     H119699   4.544   2.146   5.404
 1660SOL     H219700   4.662   2.091   5.326
 1661SOL    OH219701   3.385   1.325   5.302
 1661SOL     H119702   3.352   1.286   5.383
 1661SOL     H219703   3.416   1.412   5.328
 1662SOL    OH219704   4.248   5.783   5.771
 1662SOL     H119705   4.189   5.720   5.730
 1662SOL     H219706   4.191   5.843   5.818
 1663SOL    OH219707   5.990   5.859   1.038
 1663SOL     H119708   6.011   5.952   1.047
 1663SOL     H219709   5.939   5.838   1.116
 1664SOL    OH219710   4.167   5.971   0.941
 1664SOL     H119711   4.199   5.907   0.877
 1664SOL     H219712   4.244   6.024   0.962
 1665SOL    OH219713   1.019   6.122   6.195
 1665SOL     H119714   1.104   6.130   6.239
 1665SOL     H219715   1.025   6.181   6.120
 1666SOL    OH219716   5.583   2.537   5.769
 1666SOL     H119717   5.498   2.581   5.776
 1666SOL     H219718   5.564   2.456   5.722
 1667SOL    OH219719   1.130   0.503   1.123
 1667SOL     H119720   1.114   0.587   1.165
 1667SOL     H219721   1.205   0.519   1.065
 1668SOL    OH219722   0.724   5.638   1.201
 1668SOL     H119723   0.727   5.591   1.284
 1668SOL     H219724   0.669   5.715   1.218
 1669SOL    OH219725   4.352   3.354   5.818
 1669SOL     H119726   4.307   3.377   5.899
 1669SOL     H219727   4.294   3.290   5.776
 1670SOL    OH219728   2.033   0.267   0.126
 1670SOL     H119729   1.975   0.212   0.179
 1670SOL     H219730   2.089   0.205   0.079
 1671SOL    OH219731   3.387   3.420   5.695
 1671SOL     H119732   3.358   3.408   5.786
 1671SOL     H219733   3.465   3.364   5.687
 1672SOL    OH219734   0.639   2.952   0.207
 1672SOL     H119735   0.658   2.985   0.295
 1672SOL     H219736   0.544   2.946   0.204
 1673SOL    OH219737   1.247   2.037   6.285
 1673SOL     H119738   1.236   1.984   6.206
 1673SOL     H219739   1.159   2.043   6.323
 1674SOL    OH219740   6.070   1.207   5.615
 1674SOL     H119741   6.065   1.112   5.613
 1674SOL     H219742   5.980   1.237   5.604
 1675SOL    OH219743   0.846   5.149   6.229
 1675SOL     H119744   0.837   5.135   6.135
 1675SOL     H219745   0.800   5.232   6.245
 1676SOL    OH219746   2.245   3.633   5.497
 1676SOL     H119747   2.267   3.652   5.406
 1676SOL     H219748   2.196   3.550   5.493
 1677SOL    OH219749   1.725   3.835   6.074
 1677SOL     H119750   1.740   3.741   6.064
 1677SOL     H219751   1.772   3.858   6.155
 1678SOL    OH219752   0.116   5.760   4.885
 1678SOL     H119753   0.200   5.715   4.893
 1678SOL     H219754   0.099   5.762   4.790
 1679SOL    OH219755   4.698   0.221   5.428
 1679SOL     H119756   4.753   0.171   5.368
 1679SOL     H219757   4.632   0.261   5.371
 1680SOL    OH219758   0.340   5.182   0.036
 1680SOL     H119759   0.268   5.170   6.332
 1680SOL     H219760   0.357   5.276   0.035
 1681SOL    OH219761   4.475   3.307   0.394
 1681SOL     H119762   4.450   3.215   0.385
 1681SOL     H219763   4.546   3.318   0.331
 1682SOL    OH219764   2.666   5.242   5.634
 1682SOL     H119765   2.659   5.289   5.551
 1682SOL     H219766   2.577   5.217   5.655
 1683SOL    OH219767   4.477   4.706   6.010
 1683SOL     H119768   4.437   4.755   5.938
 1683SOL     H219769   4.407   4.648   6.040
 1684SOL    OH219770   2.808   5.926   1.244
 1684SOL     H119771   2.800   6.004   1.298
 1684SOL     H219772   2.790   5.956   1.155
 1685SOL    OH219773   3.997   5.865   1.145
 1685SOL     H119774   4.029   5.908   1.224
 1685SOL     H219775   4.058   5.892   1.076
 1686SOL    OH219776   1.112   3.457   5.557
 1686SOL     H119777   1.202   3.489   5.562
 1686SOL     H219778   1.106   3.389   5.624
 1687SOL    OH219779   4.845   0.946   5.015
 1687SOL     H119780   4.753   0.925   5.003
 1687SOL     H219781   4.855   1.035   4.981
 1688SOL    OH219782   6.195   2.857   5.114
 1688SOL     H119783   6.262   2.789   5.104
 1688SOL     H219784   6.151   2.837   5.196
 1689SOL    OH219785   1.745   3.238   1.894
 1689SOL     H119786   1.672   3.299   1.902
 1689SOL     H219787   1.709   3.154   1.922
 1690SOL    OH219788   2.743   4.335   0.412
 1690SOL     H119789   2.811   4.340   0.479
 1690SOL     H219790   2.791   4.327   0.330
 1691SOL    OH219791   3.070   4.510   1.867
 1691SOL     H119792   2.984   4.469   1.866
 1691SOL     H219793   3.080   4.547   1.780
 1692SOL    OH219794   3.179   5.757   0.177
 1692SOL     H119795   3.104   5.795   0.223
 1692SOL     H219796   3.156   5.665   0.166
 1693SOL    OH219797   5.951   3.457   4.587
 1693SOL     H119798   5.873   3.511   4.603
 1693SOL     H219799   5.915   3.376   4.551
 1694SOL    OH219800   6.257   5.904   0.492
 1694SOL     H119801   0.022   5.966   0.538
 1694SOL     H219802   6.253   5.827   0.549
 1695SOL    OH219803   2.383   2.148   5.487
 1695SOL     H119804   2.345   2.235   5.492
 1695SOL     H219805   2.390   2.130   5.393
 1696SOL    OH219806   4.330   1.767   5.896
 1696SOL     H119807   4.268   1.836   5.870
 1696SOL     H219808   4.403   1.815   5.937
 1697SOL    OH219809   4.984   3.869   5.220
 1697SOL     H119810   4.968   3.792   5.165
 1697SOL     H219811   4.901   3.883   5.266
 1698SOL    OH219812   5.984   0.776   0.411
 1698SOL     H119813   5.890   0.790   0.427
 1698SOL     H219814   6.010   0.849   0.356
 1699SOL    OH219815   4.525   4.101   0.977
 1699SOL     H119816   4.434   4.129   0.968
 1699SOL     H219817   4.576   4.175   0.944
 1700SOL    OH219818   0.142   2.553   0.335
 1700SOL     H119819   0.130   2.636   0.381
 1700SOL     H219820   0.223   2.517   0.372
 1701SOL    OH219821   3.664   1.566   5.878
 1701SOL     H119822   3.683   1.637   5.940
 1701SOL     H219823   3.731   1.501   5.895
 1702SOL    OH219824   6.169   2.711   6.104
 1702SOL     H119825   6.232   2.672   6.044
 1702SOL     H219826   6.138   2.790   6.059
 1703SOL    OH219827   5.700   1.576   5.299
 1703SOL     H119828   5.779   1.523   5.310
 1703SOL     H219829   5.630   1.512   5.291
 1704SOL    OH219830   0.275   2.497   1.393
 1704SOL     H119831   0.353   2.473   1.442
 1704SOL     H219832   0.257   2.421   1.337
 1705SOL    OH219833   4.814   5.951   0.662
 1705SOL     H119834   4.851   6.007   0.594
 1705SOL     H219835   4.789   5.870   0.616
 1706SOL    OH219836   0.820   4.795   5.435
 1706SOL     H119837   0.859   4.741   5.504
 1706SOL     H219838   0.758   4.737   5.391
 1707SOL    OH219839   3.403   0.388   2.033
 1707SOL     H119840   3.451   0.454   1.983
 1707SOL     H219841   3.335   0.437   2.079
 1708SOL    OH219842   4.615   0.056   1.475
 1708SOL     H119843   4.656   0.110   1.543
 1708SOL     H219844   4.532   0.100   1.456
 1709SOL    OH219845   0.844   2.479   1.020
 1709SOL     H119846   0.762   2.460   1.065
 1709SOL     H219847   0.818   2.531   0.944
 1710SOL    OH219848   0.806   1.879   1.108
 1710SOL     H119849   0.759   1.943   1.161
 1710SOL     H219850   0.738   1.836   1.057
 1711SOL    OH219851   0.291   3.560   2.169
 1711SOL     H119852   0.297   3.654   2.185
 1711SOL     H219853   0.339   3.520   2.242
 1712SOL    OH219854   0.311   1.860   0.225
 1712SOL     H119855   0.338   1.773   0.253
 1712SOL     H219856   0.376   1.885   0.159
 1713SOL    OH219857   0.053   3.369   5.710
 1713SOL     H119858   0.136   3.356   5.756
 1713SOL     H219859   6.285   3.406   5.776
 1714SOL    OH219860   4.128   0.539   0.257
 1714SOL     H119861   4.047   0.561   0.212
 1714SOL     H219862   4.194   0.596   0.217
 1715SOL    OH219863   3.991   3.283   5.512
 1715SOL     H119864   3.954   3.324   5.590
 1715SOL     H219865   3.930   3.305   5.442
 1716SOL    OH219866   0.346   5.190   4.350
 1716SOL     H119867   0.290   5.120   4.384
 1716SOL     H219868   0.429   5.179   4.397
 1717SOL    OH219869   2.562   0.096   6.103
 1717SOL     H119870   2.568   0.172   6.046
 1717SOL     H219871   2.517   0.129   6.181
 1718SOL    OH219872   4.759   3.291   6.296
 1718SOL     H119873   4.761   3.353   6.223
 1718SOL     H219874   4.828   3.228   6.275
 1719SOL    OH219875   0.750   0.189   0.570
 1719SOL     H119876   0.744   0.210   0.663
 1719SOL     H219877   0.772   0.272   0.528
 1720SOL    OH219878   1.434   3.769   4.770
 1720SOL     H119879   1.444   3.827   4.695
 1720SOL     H219880   1.521   3.763   4.808
 1721SOL    OH219881   1.216   5.153   5.280
 1721SOL     H119882   1.198   5.062   5.258
 1721SOL     H219883   1.311   5.160   5.275
 1722SOL    OH219884   4.667   5.975   5.296
 1722SOL     H119885   4.678   5.976   5.201
 1722SOL     H219886   4.577   6.005   5.310
 1723SOL    OH219887   0.666   0.006   0.959
 1723SOL     H119888   0.677   0.083   0.904
 1723SOL     H219889   0.712   0.028   1.040
 1724SOL    OH219890   4.048   2.766   0.090
 1724SOL     H119891   4.142   2.745   0.091
 1724SOL     H219892   4.041   2.846   0.038
 1725SOL    OH219893   1.324   2.109   0.344
 1725SOL     H119894   1.299   2.086   0.254
 1725SOL     H219895   1.246   2.093   0.395
 1726SOL    OH219896   1.606   5.179   0.504
 1726SOL     H119897   1.658   5.259   0.494
 1726SOL     H219898   1.515   5.208   0.497
 1727SOL    OH219899   3.483   1.042   1.157
 1727SOL     H119900   3.550   1.078   1.215
 1727SOL     H219901   3.529   0.973   1.108
 1728SOL    OH219902   5.174   4.556   0.709
 1728SOL     H119903   5.180   4.627   0.772
 1728SOL     H219904   5.227   4.486   0.747
 1729SOL    OH219905   1.952   5.023   5.400
 1729SOL     H119906   2.030   4.978   5.367
 1729SOL     H219907   1.911   4.960   5.458
 1730SOL    OH219908   2.272   0.384   5.576
 1730SOL     H119909   2.183   0.398   5.544
 1730SOL     H219910   2.261   0.343   5.661
 1731SOL    OH219911   0.919   3.923   1.273
 1731SOL     H119912   0.864   4.001   1.259
 1731SOL     H219913   0.857   3.850   1.272
 1732SOL    OH219914   1.670   1.515   5.678
 1732SOL     H119915   1.595   1.549   5.727
 1732SOL     H219916   1.632   1.482   5.596
 1733SOL    OH219917   3.090   4.983   0.117
 1733SOL     H119918   3.107   4.996   0.024
 1733SOL     H219919   3.014   4.925   0.120
 1734SOL    OH219920   1.443   6.071   0.164
 1734SOL     H119921   1.506   6.000   0.161
 1734SOL     H219922   1.361   6.030   0.192
 1735SOL    OH219923   1.358   5.035   0.150
 1735SOL     H119924   1.447   5.060   0.173
 1735SOL     H219925   1.327   5.106   0.094
 1736SOL    OH219926   4.386   5.804   5.527
 1736SOL     H119927   4.344   5.804   5.613
 1736SOL     H219928   4.332   5.746   5.474
 1737SOL    OH219929   3.411   0.887   5.987
 1737SOL     H119930   3.315   0.881   5.991
 1737SOL     H219931   3.438   0.890   6.079
 1738SOL    OH219932   2.932   0.603   0.863
 1738SOL     H119933   2.848   0.557   0.872
 1738SOL     H219934   2.940   0.621   0.769
 1739SOL    OH219935   1.421   4.390   0.012
 1739SOL     H119936   1.486   4.416   0.077
 1739SOL     H219937   1.469   4.333   6.310
 1740SOL    OH219938   2.563   4.386   0.746
 1740SOL     H119939   2.654   4.399   0.772
 1740SOL     H219940   2.546   4.293   0.765
 1741SOL    OH219941   0.156   0.353   6.345
 1741SOL     H119942   0.144   0.360   0.082
 1741SOL     H219943   0.144   0.442   6.313
 1742SOL    OH219944   3.239   2.308   0.726
 1742SOL     H119945   3.229   2.331   0.634
 1742SOL     H219946   3.334   2.299   0.739
 1743SOL    OH219947   5.409   5.783   6.087
 1743SOL     H119948   5.352   5.756   6.014
 1743SOL     H219949   5.374   5.738   6.163
 1744SOL    OH219950   4.274   2.575   0.705
 1744SOL     H119951   4.205   2.532   0.655
 1744SOL     H219952   4.326   2.621   0.639
 1745SOL    OH219953   1.233   5.136   1.098
 1745SOL     H119954   1.210   5.075   1.028
 1745SOL     H219955   1.157   5.193   1.105
 1746SOL    OH219956   4.773   1.116   0.752
 1746SOL     H119957   4.804   1.189   0.806
 1746SOL     H219958   4.703   1.077   0.804
 1747SOL    OH219959   5.395   1.319   6.319
 1747SOL     H119960   5.465   1.383   6.330
 1747SOL     H219961   5.402   1.291   6.228
 1748SOL    OH219962   3.144   2.529   5.381
 1748SOL     H119963   3.108   2.567   5.301
 1748SOL     H219964   3.152   2.436   5.362
 1749SOL    OH219965   0.728   4.431   4.939
 1749SOL     H119966   0.747   4.359   4.880
 1749SOL     H219967   0.725   4.391   5.026
 1750SOL    OH219968   5.651   6.168   0.574
 1750SOL     H119969   5.696   6.096   0.619
 1750SOL     H219970   5.721   6.213   0.526
 1751SOL    OH219971   0.856   1.966   6.007
 1751SOL     H119972   0.929   1.936   5.953
 1751SOL     H219973   0.795   2.005   5.944
 1752SOL    OH219974   4.810   2.049   0.587
 1752SOL     H119975   4.749   2.025   0.656
 1752SOL     H219976   4.782   2.000   0.510
 1753SOL    OH219977   3.870   2.079   6.176
 1753SOL     H119978   3.802   2.093   6.110
 1753SOL     H219979   3.877   1.984   6.183
 1754SOL    OH219980   3.066   3.980   5.328
 1754SOL     H119981   3.107   4.036   5.394
 1754SOL     H219982   3.128   3.979   5.256
 1755SOL    OH219983   0.817   5.182   0.954
 1755SOL     H119984   0.883   5.216   1.015
 1755SOL     H219985   0.790   5.257   0.903
 1756SOL    OH219986   4.504   4.144   6.303
 1756SOL     H119987   4.592   4.125   6.269
 1756SOL     H219988   4.493   4.082   0.017
 1757SOL    OH219989   3.150   0.118   1.188
 1757SOL     H119990   3.239   0.090   1.165
 1757SOL     H219991   3.156   0.213   1.197
 1758SOL    OH219992   2.119   0.100   0.826
 1758SOL     H119993   2.142   0.112   0.734
 1758SOL     H219994   2.043   0.041   0.824
 1759SOL    OH219995   0.397   2.920   6.339
 1759SOL     H119996   0.422   2.828   6.353
 1759SOL     H219997   0.373   2.952   0.068
 1760SOL    OH219998   0.933   5.622   2.115
 1760SOL     H119999   0.875   5.549   2.093
 1760SOL     H220000   1.007   5.581   2.161
 1761SOL    OH220001   0.953   1.921   0.348
 1761SOL     H120002   1.012   1.973   0.403
 1761SOL     H220003   0.866   1.948   0.375
 1762SOL    OH220004   4.743   6.001   5.029
 1762SOL     H120005   4.732   5.924   4.972
 1762SOL     H220006   4.837   6.014   5.034
 1763SOL    OH220007   2.985   1.965   1.133
 1763SOL     H120008   3.006   2.052   1.098
 1763SOL     H220009   2.955   1.982   1.222
 1764SOL    OH220010   5.916   3.510   1.164
 1764SOL     H120011   5.935   3.483   1.074
 1764SOL     H220012   5.913   3.606   1.161
 1765SOL    OH220013   1.359   2.839   5.341
 1765SOL     H120014   1.346   2.759   5.290
 1765SOL     H220015   1.450   2.833   5.371
 1766SOL    OH220016   6.181   0.459   5.131
 1766SOL     H120017   6.159   0.510   5.053
 1766SOL     H220018   6.103   0.407   5.148
 1767SOL    OH220019   1.028   4.455   0.147
 1767SOL     H120020   0.961   4.417   0.204
 1767SOL     H220021   1.087   4.383   0.126
 1768SOL    OH220022   0.302   5.388   0.353
 1768SOL     H120023   0.369   5.418   0.414
 1768SOL     H220024   0.289   5.296   0.375
 1769SOL    OH220025   2.260   4.101   0.736
 1769SOL     H120026   2.242   4.092   0.643
 1769SOL     H220027   2.178   4.075   0.779
 1770SOL    OH220028   3.358   5.704   1.144
 1770SOL     H120029   3.294   5.751   1.197
 1770SOL     H220030   3.361   5.752   1.061
 1771SOL    OH220031   4.761   4.335   0.016
 1771SOL     H120032   4.764   4.416   0.066
 1771SOL     H220033   4.738   4.268   0.080
 1772SOL    OH220034   5.235   3.672   0.227
 1772SOL     H120035   5.306   3.713   0.176
 1772SOL     H220036   5.199   3.744   0.279
 1773SOL    OH220037   3.452   4.416   0.101
 1773SOL     H120038   3.380   4.421   0.164
 1773SOL     H220039   3.413   4.440   0.017
 1774SOL    OH220040   3.880   6.057   0.393
 1774SOL     H120041   3.819   6.118   0.351
 1774SOL     H220042   3.953   6.112   0.422
 1775SOL    OH220043   0.592   4.738   0.022
 1775SOL     H120044   0.515   4.792   0.003
 1775SOL     H220045   0.666   4.795   0.004
 1776SOL    OH220046   3.316   5.435   1.184
 1776SOL     H120047   3.330   5.527   1.160
 1776SOL     H220048   3.386   5.388   1.139
 1777SOL    OH220049   4.053   0.465   0.514
 1777SOL     H120050   4.090   0.377   0.516
 1777SOL     H220051   4.075   0.499   0.427
 1778SOL    OH220052   0.114   1.208   5.012
 1778SOL     H120053   0.159   1.182   4.931
 1778SOL     H220054   0.052   1.137   5.028
 1779SOL    OH220055   5.548   3.437   4.801
 1779SOL     H120056   5.455   3.418   4.814
 1779SOL     H220057   5.591   3.387   4.870
 1780SOL    OH220058   0.608   4.524   2.172
 1780SOL     H120059   0.663   4.457   2.132
 1780SOL     H220060   0.537   4.475   2.213
 1781SOL    OH220061   4.112   4.260   5.050
 1781SOL     H120062   4.095   4.283   4.959
 1781SOL     H220063   4.124   4.165   5.050
 1782SOL    OH220064   3.657   5.086   0.938
 1782SOL     H120065   3.719   5.013   0.937
 1782SOL     H220066   3.687   5.143   0.867
 1783SOL    OH220067   1.444   2.153   5.521
 1783SOL     H120068   1.505   2.104   5.466
 1783SOL     H220069   1.440   2.240   5.482
 1784SOL    OH220070   0.205   2.284   1.213
 1784SOL     H120071   0.169   2.197   1.197
 1784SOL     H220072   0.247   2.308   1.130
 1785SOL    OH220073   0.540   2.698   4.956
 1785SOL     H120074   0.503   2.702   5.044
 1785SOL     H220075   0.532   2.606   4.930
 1786SOL    OH220076   5.792   6.290   5.947
 1786SOL     H120077   5.757   0.006   6.023
 1786SOL     H220078   5.800   6.199   5.976
 1787SOL    OH220079   1.495   1.704   1.486
 1787SOL     H120080   1.441   1.757   1.427
 1787SOL     H220081   1.517   1.626   1.436
 1788SOL    OH220082   5.707   0.705   5.406
 1788SOL     H120083   5.776   0.664   5.353
 1788SOL     H220084   5.710   0.659   5.490
 1789SOL    OH220085   0.311   1.601   1.558
 1789SOL     H120086   0.405   1.611   1.571
 1789SOL     H220087   0.295   1.507   1.570
 1790SOL    OH220088   3.253   4.021   0.142
 1790SOL     H120089   3.226   4.064   0.223
 1790SOL     H220090   3.206   4.068   0.073
 1791SOL    OH220091   6.179   0.189   4.968
 1791SOL     H120092   6.119   0.118   4.990
 1791SOL     H220093   6.131   0.243   4.906
 1792SOL    OH220094   3.681   1.905   4.335
 1792SOL     H120095   3.630   1.827   4.355
 1792SOL     H220096   3.617   1.967   4.298
 1793SOL    OH220097   5.293   6.279   5.152
 1793SOL     H120098   5.305   0.043   5.165
 1793SOL     H220099   5.382   6.243   5.155
 1794SOL    OH220100   5.091   4.125   5.207
 1794SOL     H120101   5.058   4.035   5.209
 1794SOL     H220102   5.168   4.121   5.150
 1795SOL    OH220103   5.752   5.702   5.557
 1795SOL     H120104   5.727   5.794   5.556
 1795SOL     H220105   5.794   5.689   5.642
 1796SOL    OH220106   2.038   4.640   5.245
 1796SOL     H120107   1.981   4.637   5.322
 1796SOL     H220108   1.997   4.580   5.183
 1797SOL    OH220109   0.692   2.784   4.738
 1797SOL     H120110   0.741   2.710   4.704
 1797SOL     H220111   0.643   2.748   4.813
 1798SOL    OH220112   5.985   4.266   6.019
 1798SOL     H120113   5.899   4.228   6.037
 1798SOL     H220114   6.047   4.202   6.055
 1799SOL    OH220115   0.689   1.872   5.422
 1799SOL     H120116   0.716   1.825   5.343
 1799SOL     H220117   0.594   1.879   5.415
 1800SOL    OH220118   6.227   3.737   1.328
 1800SOL     H120119   6.240   3.644   1.350
 1800SOL     H220120   6.203   3.779   1.410
 1801SOL    OH220121   2.751   4.835   4.980
 1801SOL     H120122   2.757   4.924   4.946
 1801SOL     H220123   2.841   4.803   4.981
 1802SOL    OH220124   5.438   1.451   0.769
 1802SOL     H120125   5.378   1.393   0.816
 1802SOL     H220126   5.467   1.514   0.835
 1803SOL    OH220127   4.826   5.649   6.081
 1803SOL     H120128   4.759   5.714   6.059
 1803SOL     H220129   4.909   5.696   6.069
 1804SOL    OH220130   2.043   2.812   6.260
 1804SOL     H120131   2.124   2.826   6.308
 1804SOL     H220132   2.027   2.718   6.266
 1805SOL    OH220133   0.427   4.219   0.763
 1805SOL     H120134   0.499   4.221   0.826
 1805SOL     H220135   0.349   4.202   0.816
 1806SOL    OH220136   1.814   1.632   0.596
 1806SOL     H120137   1.780   1.600   0.513
 1806SOL     H220138   1.833   1.724   0.581
 1807SOL    OH220139   4.011   1.421   0.944
 1807SOL     H120140   4.057   1.430   1.028
 1807SOL     H220141   3.990   1.511   0.919
 1808SOL    OH220142   0.214   0.889   1.653
 1808SOL     H120143   0.302   0.907   1.619
 1808SOL     H220144   0.172   0.836   1.586
 1809SOL    OH220145   0.295   5.851   6.052
 1809SOL     H120146   0.221   5.873   5.995
 1809SOL     H220147   0.370   5.892   6.010
 1810SOL    OH220148   2.019   4.188   1.589
 1810SOL     H120149   2.110   4.203   1.563
 1810SOL     H220150   2.025   4.132   1.666
 1811SOL    OH220151   5.811   0.747   5.043
 1811SOL     H120152   5.754   0.823   5.031
 1811SOL     H220153   5.763   0.675   5.003
 1812SOL    OH220154   5.670   2.932   0.764
 1812SOL     H120155   5.580   2.917   0.792
 1812SOL     H220156   5.723   2.912   0.842
 1813SOL    OH220157   4.117   3.984   5.020
 1813SOL     H120158   4.060   4.010   4.947
 1813SOL     H220159   4.069   3.914   5.064
 1814SOL    OH220160   3.337   5.394   5.301
 1814SOL     H120161   3.370   5.354   5.381
 1814SOL     H220162   3.250   5.426   5.324
 1815SOL    OH220163   1.793   0.481   0.882
 1815SOL     H120164   1.840   0.404   0.911
 1815SOL     H220165   1.814   0.489   0.789
 1816SOL    OH220166   3.608   3.254   5.653
 1816SOL     H120167   3.644   3.166   5.664
 1816SOL     H220168   3.583   3.258   5.560
 1817SOL    OH220169   5.467   1.416   5.240
 1817SOL     H120170   5.396   1.419   5.176
 1817SOL     H220171   5.530   1.354   5.202
 1818SOL    OH220172   2.530   3.160   5.400
 1818SOL     H120173   2.450   3.189   5.444
 1818SOL     H220174   2.588   3.236   5.403
 1819SOL    OH220175   4.944   2.146   4.947
 1819SOL     H120176   5.033   2.122   4.922
 1819SOL     H220177   4.906   2.186   4.868
 1820SOL    OH220178   3.786   2.636   0.744
 1820SOL     H120179   3.878   2.662   0.737
 1820SOL     H220180   3.789   2.541   0.756
 1821SOL    OH220181   3.943   4.706   5.892
 1821SOL     H120182   3.964   4.771   5.959
 1821SOL     H220183   3.935   4.758   5.811
 1822SOL    OH220184   3.587   4.833   5.919
 1822SOL     H120185   3.547   4.915   5.947
 1822SOL     H220186   3.642   4.857   5.844
 1823SOL    OH220187   4.854   2.318   0.624
 1823SOL     H120188   4.857   2.321   0.720
 1823SOL     H220189   4.845   2.225   0.604
 1824SOL    OH220190   3.598   3.465   0.462
 1824SOL     H120191   3.590   3.534   0.527
 1824SOL     H220192   3.692   3.452   0.451
 1825SOL    OH220193   1.523   5.096   6.178
 1825SOL     H120194   1.539   5.135   6.092
 1825SOL     H220195   1.557   5.160   6.240
 1826SOL    OH220196   0.408   0.558   4.445
 1826SOL     H120197   0.449   0.571   4.360
 1826SOL     H220198   0.346   0.630   4.453
 1827SOL    OH220199   3.386   2.713   6.275
 1827SOL     H120200   3.456   2.760   6.319
 1827SOL     H220201   3.306   2.746   6.315
 1828SOL    OH220202   1.608   0.034   5.558
 1828SOL     H120203   1.613   0.129   5.550
 1828SOL     H220204   1.667   0.001   5.490
 1829SOL    OH220205   3.314   3.167   0.197
 1829SOL     H120206   3.389   3.188   0.252
 1829SOL     H220207   3.247   3.136   0.258
 1830SOL    OH220208   5.197   4.195   5.743
 1830SOL     H120209   5.205   4.100   5.737
 1830SOL     H220210   5.186   4.224   5.652
 1831SOL    OH220211   3.162   2.819   0.037
 1831SOL     H120212   3.077   2.839   6.355
 1831SOL     H220213   3.143   2.749   0.100
 1832SOL    OH220214   5.276   1.277   0.901
 1832SOL     H120215   5.311   1.207   0.955
 1832SOL     H220216   5.197   1.307   0.947
 1833SOL    OH220217   2.139   0.886   5.030
 1833SOL     H120218   2.211   0.949   5.035
 1833SOL     H220219   2.157   0.835   4.951
 1834SOL    OH220220   4.477   4.588   0.688
 1834SOL     H120221   4.461   4.680   0.667
 1834SOL     H220222   4.571   4.582   0.699
 1835SOL    OH220223   5.761   1.310   0.155
 1835SOL     H120224   5.695   1.379   0.151
 1835SOL     H220225   5.727   1.241   0.099
 1836SOL    OH220226   4.744   4.853   0.534
 1836SOL     H120227   4.739   4.788   0.603
 1836SOL     H220228   4.780   4.806   0.459
 1837SOL    OH220229   4.232   5.652   5.364
 1837SOL     H120230   4.187   5.571   5.390
 1837SOL     H220231   4.283   5.627   5.288
 1838SOL    OH220232   3.885   4.718   0.293
 1838SOL     H120233   3.941   4.650   0.329
 1838SOL     H220234   3.817   4.671   0.246
 1839SOL    OH220235   1.081   2.753   0.239
 1839SOL     H120236   1.099   2.791   0.325
 1839SOL     H220237   0.985   2.745   0.236
 1840SOL    OH220238   5.435   1.133   4.943
 1840SOL     H120239   5.407   1.079   4.869
 1840SOL     H220240   5.443   1.221   4.906
 1841SOL    OH220241   3.029   2.224   1.055
 1841SOL     H120242   3.020   2.257   0.966
 1841SOL     H220243   3.113   2.259   1.085
 1842SOL    OH220244   5.231   0.954   1.253
 1842SOL     H120245   5.302   0.905   1.296
 1842SOL     H220246   5.156   0.944   1.312
 1843SOL    OH220247   5.794   5.944   0.638
 1843SOL     H120248   5.835   5.886   0.702
 1843SOL     H220249   5.864   5.966   0.577
 1844SOL    OH220250   0.159   3.008   0.951
 1844SOL     H120251   0.115   3.042   1.029
 1844SOL     H220252   0.149   2.913   0.958
 1845SOL    OH220253   4.981   1.326   0.645
 1845SOL     H120254   4.912   1.329   0.578
 1845SOL     H220255   4.933   1.319   0.728
 1846SOL    OH220256   0.174   3.796   5.445
 1846SOL     H120257   0.130   3.754   5.371
 1846SOL     H220258   0.137   3.755   5.522
 1847SOL    OH220259   0.309   1.295   1.837
 1847SOL     H120260   0.299   1.328   1.748
 1847SOL     H220261   0.239   1.230   1.846
 1848SOL    OH220262   0.594   3.818   5.910
 1848SOL     H120263   0.663   3.759   5.942
 1848SOL     H220264   0.561   3.776   5.831
 1849SOL    OH220265   4.015   4.495   1.425
 1849SOL     H120266   3.933   4.455   1.453
 1849SOL     H220267   4.004   4.506   1.330
 1850SOL    OH220268   3.252   2.494   1.377
 1850SOL     H120269   3.197   2.560   1.420
 1850SOL     H220270   3.341   2.516   1.405
 1851SOL    OH220271   4.192   2.317   1.126
 1851SOL     H120272   4.211   2.410   1.135
 1851SOL     H220273   4.228   2.278   1.206
 1852SOL    OH220274   4.341   2.969   6.145
 1852SOL     H120275   4.388   2.889   6.171
 1852SOL     H220276   4.408   3.023   6.104
 1853SOL    OH220277   3.195   4.916   4.880
 1853SOL     H120278   3.127   4.854   4.907
 1853SOL     H220279   3.146   4.995   4.857
 1854SOL    OH220280   1.359   2.132   0.660
 1854SOL     H120281   1.402   2.107   0.742
 1854SOL     H220282   1.429   2.171   0.608
 1855SOL    OH220283   0.380   3.465   1.716
 1855SOL     H120284   0.380   3.430   1.805
 1855SOL     H220285   0.470   3.497   1.703
 1856SOL    OH220286   5.396   3.356   0.648
 1856SOL     H120287   5.482   3.399   0.646
 1856SOL     H220288   5.346   3.398   0.579
 1857SOL    OH220289   4.472   2.696   0.544
 1857SOL     H120290   4.505   2.778   0.580
 1857SOL     H220291   4.538   2.631   0.566
 1858SOL    OH220292   1.049   4.812   5.759
 1858SOL     H120293   1.030   4.741   5.698
 1858SOL     H220294   0.965   4.829   5.803
 1859SOL    OH220295   0.440   2.411   0.714
 1859SOL     H120296   0.514   2.351   0.721
 1859SOL     H220297   0.480   2.497   0.701
 1860SOL    OH220298   3.038   1.155   5.771
 1860SOL     H120299   3.091   1.077   5.761
 1860SOL     H220300   3.101   1.227   5.772
 1861SOL    OH220301   4.196   5.278   0.100
 1861SOL     H120302   4.152   5.288   0.016
 1861SOL     H220303   4.286   5.305   0.083
 1862SOL    OH220304   1.756   3.939   1.206
 1862SOL     H120305   1.800   3.854   1.204
 1862SOL     H220306   1.783   3.978   1.289
 1863SOL    OH220307   1.996   2.210   5.882
 1863SOL     H120308   2.035   2.198   5.796
 1863SOL     H220309   2.029   2.136   5.934
 1864SOL    OH220310   3.195   4.758   1.277
 1864SOL     H120311   3.211   4.789   1.366
 1864SOL     H220312   3.144   4.828   1.236
 1865SOL    OH220313   0.110   1.480   5.293
 1865SOL     H120314   0.048   1.544   5.257
 1865SOL     H220315   0.056   1.419   5.343
 1866SOL    OH220316   5.784   2.286   4.985
 1866SOL     H120317   5.846   2.214   4.984
 1866SOL     H220318   5.812   2.343   4.914
 1867SOL    OH220319   5.923   1.269   5.941
 1867SOL     H120320   5.896   1.193   5.890
 1867SOL     H220321   6.010   1.291   5.907
 1868SOL    OH220322   3.164   6.214   0.371
 1868SOL     H120323   3.222   6.139   0.357
 1868SOL     H220324   3.087   6.195   0.317
 1869SOL    OH220325   0.687   1.031   0.630
 1869SOL     H120326   0.637   1.112   0.622
 1869SOL     H220327   0.767   1.047   0.579
 1870SOL    OH220328   5.596   2.803   1.505
 1870SOL     H120329   5.534   2.735   1.532
 1870SOL     H220330   5.555   2.885   1.534
 1871SOL    OH220331   5.583   1.383   4.266
 1871SOL     H120332   5.524   1.317   4.231
 1871SOL     H220333   5.655   1.334   4.305
 1872SOL    OH220334   0.312   4.198   5.605
 1872SOL     H120335   0.385   4.243   5.563
 1872SOL     H220336   0.333   4.105   5.595
 1873SOL    OH220337   5.296   0.299   0.752
 1873SOL     H120338   5.332   0.251   0.677
 1873SOL     H220339   5.259   0.231   0.808
 1874SOL    OH220340   2.085   2.183   5.624
 1874SOL     H120341   2.145   2.245   5.582
 1874SOL     H220342   2.111   2.097   5.589
 1875SOL    OH220343   3.595   3.037   4.702
 1875SOL     H120344   3.636   3.003   4.782
 1875SOL     H220345   3.654   3.009   4.631
 1876SOL    OH220346   5.351   0.686   6.100
 1876SOL     H120347   5.297   0.764   6.115
 1876SOL     H220348   5.396   0.703   6.017
 1877SOL    OH220349   4.442   4.102   5.891
 1877SOL     H120350   4.469   4.145   5.810
 1877SOL     H220351   4.523   4.066   5.927
 1878SOL    OH220352   3.478   4.410   1.356
 1878SOL     H120353   3.427   4.418   1.437
 1878SOL     H220354   3.544   4.479   1.363
 1879SOL    OH220355   1.518   2.141   1.647
 1879SOL     H120356   1.428   2.171   1.660
 1879SOL     H220357   1.534   2.079   1.717
 1880SOL    OH220358   1.034   1.923   5.770
 1880SOL     H120359   0.977   1.947   5.697
 1880SOL     H220360   1.123   1.935   5.736
 1881SOL    OH220361   2.456   5.507   5.051
 1881SOL     H120362   2.385   5.459   5.093
 1881SOL     H220363   2.413   5.565   4.989
 1882SOL    OH220364   5.557   3.358   1.251
 1882SOL     H120365   5.538   3.267   1.271
 1882SOL     H220366   5.628   3.382   1.310
 1883SOL    OH220367   1.832   3.855   6.343
 1883SOL     H120368   1.803   3.782   0.040
 1883SOL     H220369   1.775   3.928   0.011
 1884SOL    OH220370   0.811   4.906   6.337
 1884SOL     H120371   0.816   4.995   6.304
 1884SOL     H220372   0.852   4.853   6.269
 1885SOL    OH220373   4.963   4.422   1.185
 1885SOL     H120374   4.928   4.496   1.234
 1885SOL     H220375   5.029   4.383   1.242
 1886SOL    OH220376   1.145   3.811   1.378
 1886SOL     H120377   1.181   3.879   1.436
 1886SOL     H220378   1.067   3.852   1.340
 1887SOL    OH220379   6.077   4.162   5.324
 1887SOL     H120380   6.112   4.191   5.240
 1887SOL     H220381   6.081   4.239   5.381
 1888SOL    OH220382   3.390   5.979   5.916
 1888SOL     H120383   3.472   6.025   5.899
 1888SOL     H220384   3.381   5.981   6.011
 1889SOL    OH220385   3.873   3.063   0.857
 1889SOL     H120386   3.779   3.049   0.850
 1889SOL     H220387   3.896   3.113   0.779
 1890SOL    OH220388   3.952   1.819   6.258
 1890SOL     H120389   3.947   1.794   6.351
 1890SOL     H220390   4.045   1.815   6.238
 1891SOL    OH220391   2.126   3.207   0.299
 1891SOL     H120392   2.208   3.160   0.313
 1891SOL     H220393   2.077   3.196   0.380
 1892SOL    OH220394   5.624   4.219   0.927
 1892SOL     H120395   5.622   4.315   0.919
 1892SOL     H220396   5.553   4.199   0.987
 1893SOL    OH220397   4.947   4.533   0.555
 1893SOL     H120398   4.951   4.447   0.513
 1893SOL     H220399   5.024   4.536   0.612
 1894SOL    OH220400   3.945   2.336   1.003
 1894SOL     H120401   3.911   2.252   1.036
 1894SOL     H220402   4.038   2.336   1.028
 1895SOL    OH220403   0.255   4.722   0.378
 1895SOL     H120404   0.265   4.674   0.460
 1895SOL     H220405   0.310   4.799   0.387
 1896SOL    OH220406   0.445   2.701   5.208
 1896SOL     H120407   0.375   2.751   5.251
 1896SOL     H220408   0.421   2.610   5.222
 1897SOL    OH220409   5.888   4.594   5.781
 1897SOL     H120410   5.840   4.630   5.856
 1897SOL     H220411   5.970   4.562   5.819
 1898SOL    OH220412   0.043   3.673   5.658
 1898SOL     H120413   6.254   3.726   5.661
 1898SOL     H220414   0.012   3.582   5.659
 1899SOL    OH220415   1.147   0.685   5.615
 1899SOL     H120416   1.099   0.700   5.696
 1899SOL     H220417   1.147   0.590   5.604
 1900SOL    OH220418   4.836   2.878   5.908
 1900SOL     H120419   4.817   2.969   5.933
 1900SOL     H220420   4.932   2.873   5.910
 1901SOL    OH220421   5.138   1.261   0.021
 1901SOL     H120422   5.103   1.345   0.050
 1901SOL     H220423   5.229   1.279   6.358
 1902SOL    OH220424   3.814   5.688   1.268
 1902SOL     H120425   3.882   5.732   1.217
 1902SOL     H220426   3.800   5.605   1.223
 1903SOL    OH220427   5.383   3.666   4.629
 1903SOL     H120428   5.400   3.574   4.652
 1903SOL     H220429   5.297   3.684   4.665
 1904SOL    OH220430   1.806   4.940   5.092
 1904SOL     H120431   1.778   4.887   5.017
 1904SOL     H220432   1.877   4.994   5.058
 1905SOL    OH220433   1.289   6.171   6.307
 1905SOL     H120434   1.319   6.125   6.228
 1905SOL     H220435   1.345   6.137   0.019
 1906SOL    OH220436   1.295   1.007   5.894
 1906SOL     H120437   1.206   0.991   5.862
 1906SOL     H220438   1.302   1.102   5.903
 1907SOL    OH220439   2.086   4.063   6.059
 1907SOL     H120440   2.095   3.974   6.025
 1907SOL     H220441   2.166   4.108   6.031
 1908SOL    OH220442   1.262   2.445   0.907
 1908SOL     H120443   1.269   2.358   0.945
 1908SOL     H220444   1.223   2.431   0.820
 1909SOL    OH220445   3.662   2.134   6.004
 1909SOL     H120446   3.623   2.070   5.946
 1909SOL     H220447   3.588   2.172   6.051
 1910SOL    OH220448   6.204   5.149   1.078
 1910SOL     H120449   6.151   5.219   1.117
 1910SOL     H220450   6.280   5.194   1.042
 1911SOL    OH220451   1.253   2.667   0.052
 1911SOL     H120452   1.331   2.643   0.102
 1911SOL     H220453   1.192   2.701   0.118
 1912SOL    OH220454   5.344   3.772   0.768
 1912SOL     H120455   5.300   3.698   0.810
 1912SOL     H220456   5.397   3.731   0.700
 1913SOL    OH220457   3.729   5.966   0.028
 1913SOL     H120458   3.679   6.023   6.327
 1913SOL     H220459   3.810   6.015   0.046
 1914SOL    OH220460   2.501   2.982   5.199
 1914SOL     H120461   2.586   2.984   5.156
 1914SOL     H220462   2.509   3.043   5.272
 1915SOL    OH220463   1.477   4.664   5.839
 1915SOL     H120464   1.408   4.610   5.877
 1915SOL     H220465   1.540   4.676   5.911
 1916SOL    OH220466   3.676   3.861   1.860
 1916SOL     H120467   3.644   3.885   1.774
 1916SOL     H220468   3.722   3.778   1.847
 1917SOL    OH220469   4.270   3.796   6.234
 1917SOL     H120470   4.286   3.887   6.208
 1917SOL     H220471   4.287   3.745   6.154
 1918SOL    OH220472   2.943   0.051   5.748
 1918SOL     H120473   2.899   6.306   5.710
 1918SOL     H220474   2.874   0.116   5.762
 1919SOL    OH220475   3.635   1.565   4.975
 1919SOL     H120476   3.700   1.608   4.919
 1919SOL     H220477   3.550   1.588   4.936
 1920SOL    OH220478   0.302   4.599   1.002
 1920SOL     H120479   0.272   4.649   0.927
 1920SOL     H220480   0.361   4.658   1.049
 1921SOL    OH220481   4.617   3.221   1.433
 1921SOL     H120482   4.668   3.258   1.504
 1921SOL     H220483   4.543   3.178   1.476
 1922SOL    OH220484   2.909   2.019   1.639
 1922SOL     H120485   2.869   1.951   1.694
 1922SOL     H220486   2.865   2.100   1.665
 1923SOL    OH220487   2.238   2.392   5.516
 1923SOL     H120488   2.298   2.447   5.466
 1923SOL     H220489   2.177   2.454   5.556
 1924SOL    OH220490   4.803   1.034   6.268
 1924SOL     H120491   4.814   1.065   6.178
 1924SOL     H220492   4.734   0.968   6.263
 1925SOL    OH220493   0.883   1.776   4.495
 1925SOL     H120494   0.955   1.721   4.526
 1925SOL     H220495   0.925   1.859   4.470
 1926SOL    OH220496   2.824   0.407   2.064
 1926SOL     H120497   2.806   0.471   2.134
 1926SOL     H220498   2.743   0.404   2.014
 1927SOL    OH220499   3.309   2.043   6.298
 1927SOL     H120500   3.243   1.975   6.285
 1927SOL     H220501   3.376   2.002   6.353
 1928SOL    OH220502   3.743   0.467   1.574
 1928SOL     H120503   3.696   0.543   1.540
 1928SOL     H220504   3.751   0.484   1.668
 1929SOL    OH220505   4.915   5.437   6.249
 1929SOL     H120506   4.999   5.443   6.203
 1929SOL     H220507   4.865   5.511   6.214
 1930SOL    OH220508   6.143   4.302   5.089
 1930SOL     H120509   6.115   4.226   5.038
 1930SOL     H220510   6.126   4.377   5.030
 1931SOL    OH220511   2.987   1.289   6.310
 1931SOL     H120512   3.003   1.373   6.353
 1931SOL     H220513   2.917   1.307   6.248
 1932SOL    OH220514   5.932   0.733   4.727
 1932SOL     H120515   5.949   0.816   4.682
 1932SOL     H220516   5.974   0.667   4.671
 1933SOL    OH220517   1.908   3.703   1.231
 1933SOL     H120518   1.933   3.631   1.290
 1933SOL     H220519   1.989   3.753   1.220
 1934SOL    OH220520   4.200   2.414   0.058
 1934SOL     H120521   4.235   2.326   0.066
 1934SOL     H220522   4.208   2.435   6.322
 1935SOL    OH220523   1.873   2.655   4.810
 1935SOL     H120524   1.816   2.579   4.825
 1935SOL     H220525   1.824   2.729   4.846
 1936SOL    OH220526   0.751   5.343   5.667
 1936SOL     H120527   0.705   5.260   5.652
 1936SOL     H220528   0.824   5.320   5.725
 1937SOL    OH220529   5.696   5.660   0.414
 1937SOL     H120530   5.679   5.594   0.481
 1937SOL     H220531   5.637   5.732   0.434
 1938SOL    OH220532   2.635   3.270   5.928
 1938SOL     H120533   2.705   3.284   5.992
 1938SOL     H220534   2.655   3.333   5.858
 1939SOL    OH220535   0.490   4.056   0.318
 1939SOL     H120536   0.425   4.126   0.325
 1939SOL     H220537   0.446   3.979   0.355
 1940SOL    OH220538   0.049   4.233   0.532
 1940SOL     H120539   0.126   4.232   0.476
 1940SOL     H220540   0.084   4.246   0.620
 1941SOL    OH220541   6.241   3.393   1.671
 1941SOL     H120542   0.031   3.344   1.664
 1941SOL     H220543   6.196   3.354   1.746
 1942SOL    OH220544   3.419   2.878   1.801
 1942SOL     H120545   3.394   2.806   1.744
 1942SOL     H220546   3.339   2.931   1.810
 1943SOL    OH220547   3.504   2.945   5.848
 1943SOL     H120548   3.429   2.996   5.818
 1943SOL     H220549   3.509   2.963   5.942
 1944SOL    OH220550   1.205   0.329   6.281
 1944SOL     H120551   1.225   0.243   6.243
 1944SOL     H220552   1.268   0.339   6.352
 1945SOL    OH220553   0.642   4.769   0.516
 1945SOL     H120554   0.638   4.727   0.602
 1945SOL     H220555   0.718   4.827   0.521
 1946SOL    OH220556   4.819   3.137   6.000
 1946SOL     H120557   4.874   3.139   6.079
 1946SOL     H220558   4.858   3.202   5.942
 1947SOL    OH220559   5.912   3.522   5.988
 1947SOL     H120560   5.938   3.532   6.080
 1947SOL     H220561   5.834   3.466   5.991
 1948SOL    OH220562   4.646   2.791   0.075
 1948SOL     H120563   4.695   2.870   0.098
 1948SOL     H220564   4.585   2.779   0.148
 1949SOL    OH220565   3.453   2.692   1.232
 1949SOL     H120566   3.465   2.649   1.316
 1949SOL     H220567   3.472   2.625   1.167
 1950SOL    OH220568   4.507   5.251   5.235
 1950SOL     H120569   4.446   5.292   5.174
 1950SOL     H220570   4.585   5.233   5.183
 1951SOL    OH220571   0.365   5.032   6.088
 1951SOL     H120572   0.282   5.073   6.114
 1951SOL     H220573   0.388   4.976   6.162
 1952SOL    OH220574   3.353   3.772   5.745
 1952SOL     H120575   3.419   3.742   5.807
 1952SOL     H220576   3.401   3.828   5.683
 1953SOL    OH220577   5.762   2.069   5.811
 1953SOL     H120578   5.717   1.998   5.765
 1953SOL     H220579   5.803   2.120   5.741
 1954SOL    OH220580   0.105   2.683   6.264
 1954SOL     H120581   0.020   2.701   6.223
 1954SOL     H220582   0.169   2.717   6.201
 1955SOL    OH220583   4.691   5.309   1.437
 1955SOL     H120584   4.635   5.353   1.374
 1955SOL     H220585   4.652   5.222   1.448
 1956SOL    OH220586   0.321   0.965   5.973
 1956SOL     H120587   0.370   0.915   5.908
 1956SOL     H220588   0.375   0.960   6.052
 1957SOL    OH220589   2.511   4.531   5.678
 1957SOL     H120590   2.477   4.526   5.589
 1957SOL     H220591   2.454   4.594   5.722
 1958SOL    OH220592   1.309   1.441   1.337
 1958SOL     H120593   1.403   1.456   1.347
 1958SOL     H220594   1.280   1.509   1.275
 1959SOL    OH220595   0.337   2.875   4.828
 1959SOL     H120596   0.393   2.921   4.766
 1959SOL     H220597   0.395   2.811   4.870
 1960SOL    OH220598   4.567   5.583   1.556
 1960SOL     H120599   4.507   5.610   1.486
 1960SOL     H220600   4.608   5.503   1.523
 1961SOL    OH220601   2.048   3.140   0.873
 1961SOL     H120602   2.034   3.233   0.857
 1961SOL     H220603   2.074   3.136   0.965
 1962SOL    OH220604   0.984   1.422   1.655
 1962SOL     H120605   1.015   1.437   1.744
 1962SOL     H220606   0.888   1.427   1.662
 1963SOL    OH220607   0.705   5.921   5.098
 1963SOL     H120608   0.763   5.963   5.034
 1963SOL     H220609   0.626   5.900   5.048
 1964SOL    OH220610   1.280   4.173   0.513
 1964SOL     H120611   1.199   4.224   0.514
 1964SOL     H220612   1.265   4.106   0.446
 1965SOL    OH220613   1.947   2.190   0.540
 1965SOL     H120614   1.955   2.095   0.526
 1965SOL     H220615   1.897   2.221   0.465
 1966SOL    OH220616   1.275   4.501   5.949
 1966SOL     H120617   1.184   4.513   5.923
 1966SOL     H220618   1.278   4.528   6.041
 1967SOL    OH220619   2.702   3.680   4.943
 1967SOL     H120620   2.743   3.649   5.023
 1967SOL     H220621   2.769   3.669   4.875
 1968SOL    OH220622   5.894   5.846   6.179
 1968SOL     H120623   5.820   5.884   6.226
 1968SOL     H220624   5.962   5.835   6.246
 1969SOL    OH220625   0.823   0.416   0.435
 1969SOL     H120626   0.872   0.383   0.359
 1969SOL     H220627   0.880   0.483   0.473
 1970SOL    OH220628   3.111   4.611   1.611
 1970SOL     H120629   3.136   4.703   1.597
 1970SOL     H220630   3.091   4.578   1.524
 1971SOL    OH220631   3.861   3.702   0.307
 1971SOL     H120632   3.866   3.742   0.221
 1971SOL     H220633   3.774   3.725   0.340
 1972SOL    OH220634   4.781   1.725   5.488
 1972SOL     H120635   4.774   1.805   5.436
 1972SOL     H220636   4.854   1.677   5.449
 1973SOL    OH220637   1.842   0.112   0.270
 1973SOL     H120638   1.863   0.099   0.362
 1973SOL     H220639   1.802   0.029   0.243
 1974SOL    OH220640   0.083   1.415   0.259
 1974SOL     H120641   0.162   1.361   0.265
 1974SOL     H220642   0.095   1.466   0.178
 1975SOL    OH220643   1.062   1.151   0.922
 1975SOL     H120644   1.060   1.152   0.826
 1975SOL     H220645   1.069   1.058   0.945
 1976SOL    OH220646   0.038   1.852   0.297
 1976SOL     H120647   0.129   1.873   0.273
 1976SOL     H220648   6.276   1.911   0.243
 1977SOL    OH220649   1.816   0.577   5.985
 1977SOL     H120650   1.748   0.595   6.050
 1977SOL     H220651   1.866   0.659   5.980
 1978SOL    OH220652   2.542   1.870   0.629
 1978SOL     H120653   2.497   1.811   0.568
 1978SOL     H220654   2.626   1.888   0.586
 1979SOL    OH220655   2.911   1.998   6.057
 1979SOL     H120656   2.939   1.907   6.044
 1979SOL     H220657   2.911   2.035   5.968
 1980SOL    OH220658   2.261   1.293   5.197
 1980SOL     H120659   2.353   1.309   5.216
 1980SOL     H220660   2.229   1.374   5.157
 1981SOL    OH220661   1.447   3.937   0.146
 1981SOL     H120662   1.469   3.847   0.123
 1981SOL     H220663   1.522   3.989   0.117
 1982SOL    OH220664   4.187   0.524   1.128
 1982SOL     H120665   4.230   0.599   1.087
 1982SOL     H220666   4.122   0.563   1.187
 1983SOL    OH220667   5.720   2.540   6.004
 1983SOL     H120668   5.797   2.592   5.979
 1983SOL     H220669   5.670   2.530   5.923
 1984SOL    OH220670   2.841   6.317   4.747
 1984SOL     H120671   2.929   6.319   4.786
 1984SOL     H220672   2.782   6.328   4.822
 1985SOL    OH220673   3.984   1.396   6.294
 1985SOL     H120674   4.066   1.378   6.339
 1985SOL     H220675   4.007   1.455   6.222
 1986SOL    OH220676   2.510   4.889   5.668
 1986SOL     H120677   2.459   4.826   5.718
 1986SOL     H220678   2.490   4.868   5.577
 1987SOL    OH220679   3.721   6.266   0.284
 1987SOL     H120680   3.712   6.326   0.210
 1987SOL     H220681   3.765   6.317   0.351
 1988SOL    OH220682   3.905   3.259   0.241
 1988SOL     H120683   3.909   3.181   0.297
 1988SOL     H220684   3.946   3.232   0.159
 1989SOL    OH220685   4.276   5.260   1.072
 1989SOL     H120686   4.354   5.250   1.018
 1989SOL     H220687   4.306   5.242   1.161
 1990SOL    OH220688   4.675   4.014   5.989
 1990SOL     H120689   4.752   3.993   5.938
 1990SOL     H220690   4.708   4.032   6.077
 1991SOL    OH220691   3.483   5.715   5.909
 1991SOL     H120692   3.438   5.799   5.903
 1991SOL     H220693   3.498   5.689   5.818
 1992SOL    OH220694   1.162   5.766   0.430
 1992SOL     H120695   1.069   5.754   0.411
 1992SOL     H220696   1.179   5.710   0.506
 1993SOL    OH220697   3.368   0.347   5.978
 1993SOL     H120698   3.356   0.381   6.067
 1993SOL     H220699   3.411   0.262   5.991
 1994SOL    OH220700   0.645   1.670   4.601
 1994SOL     H120701   0.723   1.702   4.556
 1994SOL     H220702   0.670   1.668   4.693
 1995SOL    OH220703   1.393   3.886   5.437
 1995SOL     H120704   1.433   3.859   5.354
 1995SOL     H220705   1.299   3.888   5.419
 1996SOL    OH220706   2.034   5.468   0.131
 1996SOL     H120707   2.043   5.373   0.118
 1996SOL     H220708   1.947   5.489   0.098
 1997SOL    OH220709   1.096   2.126   1.250
 1997SOL     H120710   1.020   2.161   1.204
 1997SOL     H220711   1.094   2.168   1.335
 1998SOL    OH220712   4.063   2.473   0.570
 1998SOL     H120713   3.992   2.408   0.564
 1998SOL     H220714   4.051   2.528   0.492
 1999SOL    OH220715   0.741   5.929   0.883
 1999SOL     H120716   0.826   5.955   0.848
 1999SOL     H220717   0.748   5.834   0.894
 2000SOL    OH220718   1.163   3.260   0.576
 2000SOL     H120719   1.214   3.186   0.611
 2000SOL     H220720   1.173   3.252   0.481
 2001SOL    OH220721   5.971   4.830   5.282
 2001SOL     H120722   5.965   4.914   5.326
 2001SOL     H220723   5.887   4.788   5.297
 2002SOL    OH220724   1.505   2.861   4.998
 2002SOL     H120725   1.489   2.947   5.037
 2002SOL     H220726   1.596   2.866   4.967
 2003SOL    OH220727   3.807   3.641   1.778
 2003SOL     H120728   3.791   3.580   1.706
 2003SOL     H220729   3.893   3.679   1.759
 2004SOL    OH220730   0.306   4.011   0.058
 2004SOL     H120731   0.332   4.102   0.072
 2004SOL     H220732   0.389   3.963   0.052
 2005SOL    OH220733   5.405   4.886   0.296
 2005SOL     H120734   5.488   4.858   0.335
 2005SOL     H220735   5.420   4.882   0.202
 2006SOL    OH220736   5.823   6.169   5.690
 2006SOL     H120737   5.901   6.120   5.714
 2006SOL     H220738   5.800   6.218   5.769
 2007SOL    OH220739   4.916   5.075   5.652
 2007SOL     H120740   4.911   5.093   5.746
 2007SOL     H220741   4.836   5.026   5.633
 2008SOL    OH220742   4.507   1.425   4.906
 2008SOL     H120743   4.485   1.488   4.974
 2008SOL     H220744   4.537   1.347   4.954
 2009SOL    OH220745   1.773   2.653   0.482
 2009SOL     H120746   1.713   2.591   0.524
 2009SOL     H220747   1.756   2.736   0.526
 2010SOL    OH220748   1.287   3.033   0.671
 2010SOL     H120749   1.361   3.071   0.719
 2010SOL     H220750   1.326   2.964   0.618
 2011SOL    OH220751   5.220   0.926   6.138
 2011SOL     H120752   5.173   0.963   6.063
 2011SOL     H220753   5.165   0.947   6.214
 2012SOL    OH220754   4.634   2.489   0.615
 2012SOL     H120755   4.590   2.463   0.696
 2012SOL     H220756   4.715   2.437   0.614
 2013SOL    OH220757   4.156   0.263   0.236
 2013SOL     H120758   4.157   0.239   0.329
 2013SOL     H220759   4.139   0.357   0.237
 2014SOL    OH220760   4.090   5.940   5.932
 2014SOL     H120761   4.094   6.026   5.975
 2014SOL     H220762   4.096   5.877   6.004
 2015SOL    OH220763   3.496   3.614   4.974
 2015SOL     H120764   3.444   3.615   4.895
 2015SOL     H220765   3.436   3.640   5.044
 2016SOL    OH220766   5.031   2.266   5.979
 2016SOL     H120767   5.006   2.345   6.029
 2016SOL     H220768   5.126   2.273   5.970
 2017SOL    OH220769   2.946   0.857   0.994
 2017SOL     H120770   3.028   0.905   0.993
 2017SOL     H220771   2.962   0.780   0.940
 2018SOL    OH220772   2.742   5.676   0.290
 2018SOL     H120773   2.672   5.737   0.313
 2018SOL     H220774   2.708   5.590   0.312
 2019SOL    OH220775   6.268   4.549   0.622
 2019SOL     H120776   6.240   4.621   0.679
 2019SOL     H220777   6.195   4.487   0.624
 2020SOL    OH220778   4.411   0.099   0.434
 2020SOL     H120779   4.483   0.149   0.396
 2020SOL     H220780   4.452   0.046   0.502
 2021SOL    OH220781   1.125   0.414   4.863
 2021SOL     H120782   1.213   0.437   4.833
 2021SOL     H220783   1.075   0.495   4.852
 2022SOL    OH220784   2.051   3.565   6.106
 2022SOL     H120785   2.070   3.655   6.080
 2022SOL     H220786   1.956   3.557   6.098
 2023SOL    OH220787   1.328   1.783   0.685
 2023SOL     H120788   1.282   1.824   0.759
 2023SOL     H220789   1.411   1.753   0.722
 2024SOL    OH220790   0.676   3.040   0.457
 2024SOL     H120791   0.623   3.113   0.489
 2024SOL     H220792   0.707   2.996   0.537
 2025SOL    OH220793   5.050   1.613   0.341
 2025SOL     H120794   5.048   1.517   0.336
 2025SOL     H220795   4.983   1.641   0.279
 2026SOL    OH220796   2.493   4.789   4.456
 2026SOL     H120797   2.450   4.822   4.535
 2026SOL     H220798   2.423   4.787   4.390
 2027SOL    OH220799   1.668   5.216   5.061
 2027SOL     H120800   1.743   5.258   5.019
 2027SOL     H220801   1.653   5.137   5.009
 2028SOL    OH220802   4.077   0.025   0.114
 2028SOL     H120803   4.091   0.113   0.149
 2028SOL     H220804   4.037   0.039   0.028
 2029SOL    OH220805   6.123   2.287   5.709
 2029SOL     H120806   6.083   2.300   5.623
 2029SOL     H220807   6.103   2.196   5.731
 2030SOL    OH220808   5.939   5.021   5.644
 2030SOL     H120809   5.938   5.049   5.553
 2030SOL     H220810   6.015   5.066   5.682
 2031SOL    OH220811   2.407   2.557   5.373
 2031SOL     H120812   2.491   2.560   5.418
 2031SOL     H220813   2.428   2.523   5.285
 2032SOL    OH220814   4.043   4.995   5.151
 2032SOL     H120815   4.106   4.973   5.083
 2032SOL     H220816   3.988   4.917   5.158
 2033SOL    OH220817   6.236   1.639   5.127
 2033SOL     H120818   6.148   1.675   5.122
 2033SOL     H220819   6.235   1.565   5.066
 2034SOL    OH220820   0.551   1.274   0.615
 2034SOL     H120821   0.599   1.321   0.684
 2034SOL     H220822   0.470   1.323   0.604
 2035SOL    OH220823   2.436   4.842   5.414
 2035SOL     H120824   2.494   4.821   5.340
 2035SOL     H220825   2.350   4.855   5.374
 2036SOL    OH220826   0.909   3.227   0.704
 2036SOL     H120827   1.001   3.249   0.699
 2036SOL     H220828   0.874   3.283   0.774
 2037SOL    OH220829   4.119   3.762   0.378
 2037SOL     H120830   4.028   3.737   0.362
 2037SOL     H220831   4.165   3.732   0.300
 2038SOL    OH220832   4.167   5.546   1.295
 2038SOL     H120833   4.102   5.486   1.331
 2038SOL     H220834   4.154   5.542   1.201
 2039SOL    OH220835   4.821   0.398   5.594
 2039SOL     H120836   4.748   0.451   5.625
 2039SOL     H220837   4.780   0.333   5.537
 2040SOL    OH220838   5.842   2.684   4.854
 2040SOL     H120839   5.842   2.590   4.834
 2040SOL     H220840   5.935   2.707   4.863
 2041SOL    OH220841   1.455   5.750   0.771
 2041SOL     H120842   1.432   5.779   0.859
 2041SOL     H220843   1.376   5.708   0.738
 2042SOL    OH220844   2.892   4.737   0.954
 2042SOL     H120845   2.889   4.815   1.010
 2042SOL     H220846   2.834   4.759   0.880
 2043SOL    OH220847   5.163   5.003   5.894
 2043SOL     H120848   5.185   5.078   5.838
 2043SOL     H220849   5.241   4.948   5.892
 2044SOL    OH220850   3.589   3.830   6.349
 2044SOL     H120851   3.580   3.872   6.264
 2044SOL     H220852   3.678   3.849   0.019
 2045SOL    OH220853   5.749   4.458   1.157
 2045SOL     H120854   5.783   4.384   1.207
 2045SOL     H220855   5.815   4.473   1.088
 2046SOL    OH220856   3.781   5.661   0.638
 2046SOL     H120857   3.687   5.664   0.622
 2046SOL     H220858   3.806   5.752   0.654
 2047SOL    OH220859   4.925   2.253   0.350
 2047SOL     H120860   4.890   2.311   0.418
 2047SOL     H220861   4.999   2.209   0.392
 2048SOL    OH220862   2.827   5.874   6.331
 2048SOL     H120863   2.847   5.785   0.005
 2048SOL     H220864   2.787   5.860   6.245
 2049SOL    OH220865   1.424   2.069   4.948
 2049SOL     H120866   1.426   2.013   4.870
 2049SOL     H220867   1.500   2.127   4.937
 2050SOL    OH220868   4.399   4.397   6.322
 2050SOL     H120869   4.435   4.308   6.315
 2050SOL     H220870   4.442   4.434   0.042
 2051SOL    OH220871   5.900   0.584   5.253
 2051SOL     H120872   5.875   0.628   5.172
 2051SOL     H220873   5.910   0.492   5.229
 2052SOL    OH220874   0.141   3.068   0.678
 2052SOL     H120875   0.160   3.048   0.770
 2052SOL     H220876   0.046   3.080   0.675
 2053SOL    OH220877   6.290   3.103   5.040
 2053SOL     H120878   6.251   3.018   5.059
 2053SOL     H220879   6.259   3.124   4.952
 2054SOL    OH220880   3.649   0.291   5.401
 2054SOL     H120881   3.678   0.251   5.483
 2054SOL     H220882   3.592   0.226   5.361
 2055SOL    OH220883   1.465   2.263   5.770
 2055SOL     H120884   1.457   2.220   5.684
 2055SOL     H220885   1.558   2.257   5.791
 2056SOL    OH220886   0.116   2.732   0.992
 2056SOL     H120887   0.142   2.730   1.084
 2056SOL     H220888   0.104   2.639   0.969
 2057SOL    OH220889   4.129   4.901   1.212
 2057SOL     H120890   4.223   4.909   1.228
 2057SOL     H220891   4.109   4.972   1.151
 2058SOL    OH220892   4.802   5.937   5.773
 2058SOL     H120893   4.763   5.900   5.852
 2058SOL     H220894   4.788   6.032   5.781
 2059SOL    OH220895   3.435   0.996   5.681
 2059SOL     H120896   3.491   0.931   5.723
 2059SOL     H220897   3.346   0.975   5.711
 2060SOL    OH220898   5.750   0.014   5.018
 2060SOL     H120899   5.760   0.109   5.009
 2060SOL     H220900   5.839   6.310   5.012
 2061SOL    OH220901   5.808   3.294   0.489
 2061SOL     H120902   5.797   3.385   0.460
 2061SOL     H220903   5.756   3.288   0.569
 2062SOL    OH220904   6.101   4.505   0.188
 2062SOL     H120905   6.102   4.410   0.171
 2062SOL     H220906   6.178   4.520   0.243
 2063SOL    OH220907   6.154   1.673   5.594
 2063SOL     H120908   6.111   1.700   5.675
 2063SOL     H220909   6.159   1.753   5.542
 2064SOL    OH220910   3.213   2.018   5.267
 2064SOL     H120911   3.266   2.008   5.188
 2064SOL     H220912   3.125   1.991   5.241
 2065SOL    OH220913   3.906   0.848   5.452
 2065SOL     H120914   3.968   0.792   5.499
 2065SOL     H220915   3.820   0.820   5.485
 2066SOL    OH220916   2.915   4.011   1.175
 2066SOL     H120917   2.995   3.964   1.152
 2066SOL     H220918   2.942   4.075   1.240
 2067SOL    OH220919   2.393   5.847   5.117
 2067SOL     H120920   2.414   5.941   5.118
 2067SOL     H220921   2.341   5.834   5.196
 2068SOL    OH220922   6.034   1.814   1.604
 2068SOL     H120923   5.982   1.745   1.646
 2068SOL     H220924   6.094   1.766   1.546
 2069SOL    OH220925   6.232   1.242   0.709
 2069SOL     H120926   6.142   1.243   0.675
 2069SOL     H220927   6.267   1.328   0.687
 2070SOL    OH220928   2.981   1.742   5.975
 2070SOL     H120929   2.954   1.689   5.900
 2070SOL     H220930   3.072   1.717   5.990
 2071SOL    OH220931   1.392   4.675   5.383
 2071SOL     H120932   1.467   4.650   5.438
 2071SOL     H220933   1.334   4.723   5.442
 2072SOL    OH220934   1.497   3.359   1.927
 2072SOL     H120935   1.418   3.407   1.953
 2072SOL     H220936   1.473   3.267   1.935
 2073SOL    OH220937   1.155   2.438   0.650
 2073SOL     H120938   1.196   2.404   0.571
 2073SOL     H220939   1.061   2.437   0.631
 2074SOL    OH220940   3.602   1.568   6.246
 2074SOL     H120941   3.524   1.597   6.294
 2074SOL     H220942   3.662   1.536   6.314
 2075SOL    OH220943   1.372   5.292   5.522
 2075SOL     H120944   1.289   5.244   5.520
 2075SOL     H220945   1.424   5.252   5.452
 2076SOL    OH220946   3.450   1.891   0.372
 2076SOL     H120947   3.408   1.806   0.377
 2076SOL     H220948   3.461   1.907   0.279
 2077SOL    OH220949   1.538   5.676   4.771
 2077SOL     H120950   1.604   5.607   4.765
 2077SOL     H220951   1.583   5.754   4.740
 2078SOL    OH220952   4.631   1.129   0.522
 2078SOL     H120953   4.687   1.131   0.599
 2078SOL     H220954   4.552   1.082   0.551
 2079SOL    OH220955   6.137   3.942   1.165
 2079SOL     H120956   6.124   4.021   1.217
 2079SOL     H220957   6.173   3.878   1.227
 2080SOL    OH220958   6.015   3.763   5.912
 2080SOL     H120959   6.090   3.754   5.970
 2080SOL     H220960   5.963   3.684   5.926
 2081SOL    OH220961   1.587   5.029   4.879
 2081SOL     H120962   1.627   4.942   4.877
 2081SOL     H220963   1.576   5.053   4.787
 2082SOL    OH220964   5.440   3.753   5.394
 2082SOL     H120965   5.408   3.837   5.360
 2082SOL     H220966   5.523   3.775   5.437
 2083SOL    OH220967   1.731   3.898   5.795
 2083SOL     H120968   1.806   3.843   5.773
 2083SOL     H220969   1.718   3.886   5.889
 2084SOL    OH220970   0.109   1.119   1.763
 2084SOL     H120971   0.145   1.036   1.731
 2084SOL     H220972   0.064   1.156   1.687
 2085SOL    OH220973   6.277   1.615   0.993
 2085SOL     H120974   6.255   1.677   1.061
 2085SOL     H220975   0.007   1.534   1.040
 2086SOL    OH220976   2.713   3.285   5.089
 2086SOL     H120977   2.724   3.191   5.101
 2086SOL     H220978   2.803   3.319   5.086
 2087SOL    OH220979   5.567   3.409   0.019
 2087SOL     H120980   5.532   3.432   6.290
 2087SOL     H220981   5.525   3.325   0.040
 2088SOL    OH220982   0.420   1.851   5.389
 2088SOL     H120983   0.403   1.788   5.318
 2088SOL     H220984   0.333   1.876   5.420
 2089SOL    OH220985   3.429   2.440   6.290
 2089SOL     H120986   3.410   2.533   6.277
 2089SOL     H220987   3.522   2.437   6.313
 2090SOL    OH220988   3.384   0.891   0.845
 2090SOL     H120989   3.420   0.861   0.761
 2090SOL     H220990   3.378   0.812   0.898
 2091SOL    OH220991   2.388   5.250   0.668
 2091SOL     H120992   2.483   5.255   0.682
 2091SOL     H220993   2.351   5.239   0.756
 2092SOL    OH220994   2.832   0.073   6.208
 2092SOL     H120995   2.904   0.059   6.147
 2092SOL     H220996   2.754   0.083   6.152
 2093SOL    OH220997   4.165   0.467   4.496
 2093SOL     H120998   4.098   0.400   4.480
 2093SOL     H220999   4.164   0.521   4.417
 2094SOL    OH221000   5.893   1.371   5.324
 2094SOL     H121001   5.962   1.312   5.293
 2094SOL     H221002   5.880   1.347   5.416
 2095SOL    OH221003   1.323   4.647   0.402
 2095SOL     H121004   1.354   4.558   0.384
 2095SOL     H221005   1.229   4.644   0.380
 2096SOL    OH221006   5.094   1.045   5.890
 2096SOL     H121007   5.041   1.041   5.811
 2096SOL     H221008   5.144   1.126   5.880
 2097SOL    OH221009   5.760   2.024   5.333
 2097SOL     H121010   5.706   2.079   5.276
 2097SOL     H221011   5.703   1.951   5.357
 2098SOL    OH221012   2.162   3.802   5.954
 2098SOL     H121013   2.215   3.765   5.884
 2098SOL     H221014   2.218   3.797   6.032
 2099SOL    OH221015   1.805   2.394   0.088
 2099SOL     H121016   1.782   2.476   0.133
 2099SOL     H221017   1.867   2.420   0.020
 2100SOL    OH221018   5.016   6.087   5.991
 2100SOL     H121019   5.007   6.113   5.900
 2100SOL     H221020   5.085   6.143   6.025
 2101SOL    OH221021   3.001   0.365   5.511
 2101SOL     H121022   3.033   0.448   5.477
 2101SOL     H221023   3.081   0.313   5.524
 2102SOL    OH221024   4.466   4.976   5.254
 2102SOL     H121025   4.477   5.071   5.248
 2102SOL     H221026   4.481   4.945   5.164
 2103SOL    OH221027   5.982   4.455   1.006
 2103SOL     H121028   5.984   4.362   0.985
 2103SOL     H221029   6.064   4.472   1.051
 2104SOL    OH221030   0.726   3.499   0.449
 2104SOL     H121031   0.789   3.548   0.503
 2104SOL     H221032   0.773   3.481   0.368
 2105SOL    OH221033   1.242   0.002   0.180
 2105SOL     H121034   1.242   6.287   0.096
 2105SOL     H221035   1.334   0.020   0.199
 2106SOL    OH221036   6.205   3.216   4.806
 2106SOL     H121037   6.172   3.305   4.815
 2106SOL     H221038   6.203   3.198   4.712
 2107SOL    OH221039   0.562   2.617   1.099
 2107SOL     H121040   0.629   2.685   1.090
 2107SOL     H221041   0.489   2.649   1.045
 2108SOL    OH221042   5.968   2.815   0.097
 2108SOL     H121043   6.051   2.802   0.052
 2108SOL     H221044   5.909   2.751   0.058
 2109SOL    OH221045   0.636   3.650   4.490
 2109SOL     H121046   0.650   3.563   4.453
 2109SOL     H221047   0.621   3.706   4.414
 2110SOL    OH221048   0.165   1.520   4.781
 2110SOL     H121049   0.257   1.507   4.757
 2110SOL     H221050   0.157   1.614   4.794
 2111SOL    OH221051   5.091   5.067   6.251
 2111SOL     H121052   5.121   5.122   6.323
 2111SOL     H221053   5.005   5.102   6.228
 2112SOL    OH221054   3.890   0.088   0.439
 2112SOL     H121055   3.961   0.028   0.419
 2112SOL     H221056   3.897   0.104   0.533
 2113SOL    OH221057   1.645   3.412   1.361
 2113SOL     H121058   1.627   3.437   1.271
 2113SOL     H221059   1.683   3.324   1.354
 2114SOL    OH221060   4.498   3.968   0.158
 2114SOL     H121061   4.522   3.875   0.161
 2114SOL     H221062   4.578   4.014   0.183
 2115SOL    OH221063   1.072   1.156   0.652
 2115SOL     H121064   1.008   1.115   0.594
 2115SOL     H221065   1.101   1.234   0.605
 2116SOL    OH221066   1.699   1.552   0.356
 2116SOL     H121067   1.697   1.485   0.288
 2116SOL     H221068   1.619   1.538   0.406
 2117SOL    OH221069   4.652   0.088   5.663
 2117SOL     H121070   4.585   0.148   5.696
 2117SOL     H221071   4.674   0.122   5.576
 2118SOL    OH221072   5.885   1.898   6.002
 2118SOL     H121073   5.801   1.866   6.035
 2118SOL     H221074   5.861   1.969   5.943
 2119SOL    OH221075   5.305   5.020   0.822
 2119SOL     H121076   5.258   5.102   0.804
 2119SOL     H221077   5.389   5.048   0.858
 2120SOL    OH221078   0.551   5.124   4.527
 2120SOL     H121079   0.634   5.134   4.573
 2120SOL     H221080   0.501   5.061   4.580
 2121SOL    OH221081   5.461   4.616   5.929
 2121SOL     H121082   5.406   4.558   5.876
 2121SOL     H221083   5.444   4.590   6.019
 2122SOL    OH221084   4.862   5.715   5.625
 2122SOL     H121085   4.787   5.715   5.566
 2122SOL     H221086   4.850   5.792   5.680
 2123SOL    OH221087   4.252   1.797   0.720
 2123SOL     H121088   4.270   1.833   0.806
 2123SOL     H221089   4.324   1.736   0.704
 2124SOL    OH221090   0.038   1.644   0.045
 2124SOL     H121091   0.059   1.678   6.316
 2124SOL     H221092   0.079   1.706   0.105
 2125SOL    OH221093   4.050   5.036   0.098
 2125SOL     H121094   4.091   4.967   0.150
 2125SOL     H221095   4.109   5.111   0.105
 2126SOL    OH221096   2.569   0.332   5.972
 2126SOL     H121097   2.631   0.405   5.968
 2126SOL     H221098   2.483   0.375   5.981
 2127SOL    OH221099   1.218   5.454   1.473
 2127SOL     H121100   1.186   5.518   1.409
 2127SOL     H221101   1.180   5.482   1.556
 2128SOL    OH221102   3.930   4.072   0.630
 2128SOL     H121103   3.967   4.062   0.542
 2128SOL     H221104   3.836   4.088   0.615
 2129SOL    OH221105   2.820   0.630   0.092
 2129SOL     H121106   2.740   0.678   0.112
 2129SOL     H221107   2.807   0.598   0.003
 2130SOL    OH221108   3.682   3.901   5.229
 2130SOL     H121109   3.681   3.890   5.134
 2130SOL     H221110   3.722   3.821   5.262
 2131SOL    OH221111   5.184   0.094   0.904
 2131SOL     H121112   5.097   0.125   0.931
 2131SOL     H221113   5.206   0.026   0.967
 2132SOL    OH221114   4.670   4.439   5.638
 2132SOL     H121115   4.756   4.397   5.633
 2132SOL     H221116   4.674   4.493   5.716
 2133SOL    OH221117   1.841   4.029   1.454
 2133SOL     H121118   1.902   4.093   1.491
 2133SOL     H221119   1.755   4.057   1.485
 2134SOL    OH221120   4.385   0.710   5.672
 2134SOL     H121121   4.366   0.692   5.764
 2134SOL     H221122   4.416   0.801   5.672
 2135SOL    OH221123   2.366   5.142   6.261
 2135SOL     H121124   2.282   5.168   6.224
 2135SOL     H221125   2.344   5.072   6.323
 2136SOL    OH221126   5.188   0.636   5.168
 2136SOL     H121127   5.215   0.701   5.103
 2136SOL     H221128   5.216   0.673   5.251
 2137SOL    OH221129   4.991   2.221   5.516
 2137SOL     H121130   4.933   2.162   5.564
 2137SOL     H221131   4.932   2.283   5.472
 2138SOL    OH221132   0.898   5.792   0.345
 2138SOL     H121133   0.836   5.720   0.341
 2138SOL     H221134   0.887   5.839   0.262
 2139SOL    OH221135   2.050   1.500   0.641
 2139SOL     H121136   2.084   1.531   0.557
 2139SOL     H221137   1.961   1.534   0.645
 2140SOL    OH221138   3.218   4.157   0.378
 2140SOL     H121139   3.188   4.091   0.441
 2140SOL     H221140   3.295   4.196   0.420
 2141SOL    OH221141   4.581   1.678   0.818
 2141SOL     H121142   4.621   1.600   0.780
 2141SOL     H221143   4.496   1.649   0.850
 2142SOL    OH221144   3.245   4.277   1.271
 2142SOL     H121145   3.328   4.319   1.297
 2142SOL     H221146   3.270   4.218   1.200
 2143SOL    OH221147   3.369   6.276   0.117
 2143SOL     H121148   3.288   6.239   0.082
 2143SOL     H221149   3.420   6.199   0.145
 2144SOL    OH221150   0.122   5.715   5.305
 2144SOL     H121151   0.034   5.706   5.340
 2144SOL     H221152   0.145   5.627   5.275
 2145SOL    OH221153   2.061   4.169   6.314
 2145SOL     H121154   2.153   4.189   6.331
 2145SOL     H221155   2.062   4.121   6.231
 2146SOL    OH221156   1.460   4.400   0.928
 2146SOL     H121157   1.466   4.347   0.849
 2146SOL     H221158   1.402   4.351   0.986
 2147SOL    OH221159   5.641   1.448   5.697
 2147SOL     H121160   5.566   1.454   5.638
 2147SOL     H221161   5.639   1.530   5.746
 2148SOL    OH221162   0.886   2.217   1.101
 2148SOL     H121163   0.800   2.205   1.141
 2148SOL     H221164   0.887   2.309   1.075
 2149SOL    OH221165   1.533   3.688   0.071
 2149SOL     H121166   1.615   3.672   0.118
 2149SOL     H221167   1.542   3.638   6.347
 2150SOL    OH221168   3.240   3.990   5.117
 2150SOL     H121169   3.174   4.040   5.069
 2150SOL     H221170   3.318   4.045   5.114
 2151SOL    OH221171   1.261   0.735   0.767
 2151SOL     H121172   1.280   0.827   0.751
 2151SOL     H221173   1.168   0.733   0.787
 2152SOL    OH221174   2.505   1.668   0.442
 2152SOL     H121175   2.446   1.593   0.439
 2152SOL     H221176   2.591   1.630   0.463
 2153SOL    OH221177   0.414   3.321   6.181
 2153SOL     H121178   0.485   3.336   6.244
 2153SOL     H221179   0.431   3.234   6.146
 2154SOL    OH221180   5.565   2.585   6.223
 2154SOL     H121181   5.485   2.535   6.210
 2154SOL     H221182   5.616   2.569   6.143
 2155SOL    OH221183   5.970   4.726   0.944
 2155SOL     H121184   5.973   4.635   0.973
 2155SOL     H221185   5.992   4.777   1.021
 2156SOL    OH221186   2.122   5.894   1.388
 2156SOL     H121187   2.055   5.842   1.432
 2156SOL     H221188   2.160   5.834   1.324
 2157SOL    OH221189   4.397   6.021   5.358
 2157SOL     H121190   4.392   5.950   5.423
 2157SOL     H221191   4.356   5.984   5.280
 2158SOL    OH221192   5.656   2.549   5.266
 2158SOL     H121193   5.607   2.596   5.198
 2158SOL     H221194   5.592   2.492   5.307
 2159SOL    OH221195   3.037   4.508   0.922
 2159SOL     H121196   3.101   4.540   0.858
 2159SOL     H221197   2.989   4.586   0.949
 2160SOL    OH221198   2.726   5.768   5.396
 2160SOL     H121199   2.674   5.847   5.410
 2160SOL     H221200   2.665   5.706   5.355
 2161SOL    OH221201   6.168   3.728   6.353
 2161SOL     H121202   6.158   3.690   0.083
 2161SOL     H221203   6.255   3.769   6.355
 2162SOL    OH221204   0.967   0.287   5.448
 2162SOL     H121205   0.960   0.327   5.361
 2162SOL     H221206   0.877   0.285   5.481
 2163SOL    OH221207   2.504   3.529   6.152
 2163SOL     H121208   2.575   3.489   6.201
 2163SOL     H221209   2.545   3.558   6.070
 2164SOL    OH221210   0.278   1.592   5.908
 2164SOL     H121211   0.286   1.573   6.002
 2164SOL     H221212   0.274   1.505   5.867
 2165SOL    OH221213   5.467   3.773   1.036
 2165SOL     H121214   5.543   3.831   1.029
 2165SOL     H221215   5.425   3.779   0.950
 2166SOL    OH221216   2.689   2.222   5.817
 2166SOL     H121217   2.718   2.291   5.758
 2166SOL     H221218   2.761   2.159   5.817
 2167SOL    OH221219   2.761   3.389   1.085
 2167SOL     H121220   2.806   3.305   1.071
 2167SOL     H221221   2.831   3.454   1.077
 2168SOL    OH221222   2.486   0.065   0.190
 2168SOL     H121223   2.557   0.011   0.153
 2168SOL     H221224   2.412   0.005   0.197
 2169SOL    OH221225   0.497   4.459   1.789
 2169SOL     H121226   0.468   4.513   1.863
 2169SOL     H221227   0.458   4.373   1.806
 2170SOL    OH221228   2.098   5.501   0.774
 2170SOL     H121229   2.137   5.480   0.689
 2170SOL     H221230   2.017   5.548   0.753
 2171SOL    OH221231   1.264   4.990   1.654
 2171SOL     H121232   1.268   4.916   1.594
 2171SOL     H221233   1.355   5.010   1.674
 2172SOL    OH221234   4.663   4.412   6.133
 2172SOL     H121235   4.568   4.420   6.144
 2172SOL     H221236   4.695   4.383   6.218
 2173SOL    OH221237   4.544   1.657   4.276
 2173SOL     H121238   4.579   1.743   4.252
 2173SOL     H221239   4.533   1.611   4.193
 2174SOL    OH221240   0.074   2.801   4.784
 2174SOL     H121241   0.057   2.826   4.693
 2174SOL     H221242   0.165   2.826   4.799
 2175SOL    OH221243   1.674   4.363   5.991
 2175SOL     H121244   1.753   4.308   5.988
 2175SOL     H221245   1.707   4.452   5.976
 2176SOL    OH221246   1.797   5.038   6.112
 2176SOL     H121247   1.827   5.124   6.141
 2176SOL     H221248   1.709   5.029   6.149
 2177SOL    OH221249   0.319   2.544   5.513
 2177SOL     H121250   0.240   2.596   5.529
 2177SOL     H221251   0.310   2.515   5.422
 2178SOL    OH221252   3.858   2.105   1.125
 2178SOL     H121253   3.814   2.159   1.191
 2178SOL     H221254   3.789   2.048   1.092
 2179SOL    OH221255   4.088   5.892   5.372
 2179SOL     H121256   4.133   5.808   5.381
 2179SOL     H221257   4.066   5.898   5.279
 2180SOL    OH221258   4.496   6.116   6.312
 2180SOL     H121259   4.421   6.070   6.273
 2180SOL     H221260   4.551   6.046   6.346
 2181SOL    OH221261   1.288   5.999   0.512
 2181SOL     H121262   1.227   6.061   0.470
 2181SOL     H221263   1.252   5.913   0.491
 2182SOL    OH221264   5.716   3.330   6.034
 2182SOL     H121265   5.694   3.285   5.952
 2182SOL     H221266   5.743   3.261   6.093
 2183SOL    OH221267   2.179   1.947   5.500
 2183SOL     H121268   2.204   1.856   5.514
 2183SOL     H221269   2.262   1.994   5.487
 2184SOL    OH221270   1.551   0.076   6.142
 2184SOL     H121271   1.618   0.008   6.134
 2184SOL     H221272   1.599   0.157   6.154
 2185SOL    OH221273   3.043   0.774   0.173
 2185SOL     H121274   2.966   0.723   0.147
 2185SOL     H221275   3.021   0.864   0.149
 2186SOL    OH221276   1.152   1.114   0.352
 2186SOL     H121277   1.232   1.080   0.393
 2186SOL     H221278   1.172   1.205   0.332
 2187SOL    OH221279   5.924   1.754   1.151
 2187SOL     H121280   5.836   1.717   1.147
 2187SOL     H221281   5.973   1.693   1.206
 2188SOL    OH221282   1.726   2.302   1.576
 2188SOL     H121283   1.655   2.244   1.603
 2188SOL     H221284   1.710   2.384   1.622
 2189SOL    OH221285   0.597   0.644   0.110
 2189SOL     H121286   0.587   0.584   0.184
 2189SOL     H221287   0.552   0.724   0.139
 2190SOL    OH221288   6.233   1.049   4.605
 2190SOL     H121289   0.013   0.987   4.621
 2190SOL     H221290   6.275   1.135   4.606
 2191SOL    OH221291   0.576   4.482   0.110
 2191SOL     H121292   0.594   4.491   0.204
 2191SOL     H221293   0.575   4.572   0.077
 2192SOL    OH221294   0.262   5.030   5.631
 2192SOL     H121295   0.267   5.121   5.661
 2192SOL     H221296   0.293   4.978   5.705
 2193SOL    OH221297   0.149   2.274   6.291
 2193SOL     H121298   0.159   2.355   6.341
 2193SOL     H221299   0.057   2.273   6.265
 2194SOL    OH221300   4.678   2.069   0.967
 2194SOL     H121301   4.638   2.030   0.889
 2194SOL     H221302   4.768   2.038   0.966
 2195SOL    OH221303   1.276   4.000   6.290
 2195SOL     H121304   1.329   3.974   0.008
 2195SOL     H221305   1.337   3.997   6.217
 2196SOL    OH221306   1.510   3.134   0.781
 2196SOL     H121307   1.556   3.157   0.862
 2196SOL     H221308   1.538   3.199   0.717
 2197SOL    OH221309   2.757   5.788   6.079
 2197SOL     H121310   2.719   5.707   6.112
 2197SOL     H221311   2.846   5.764   6.052
 2198SOL    OH221312   2.029   3.986   1.784
 2198SOL     H121313   2.048   3.934   1.706
 2198SOL     H221314   2.096   3.960   1.847
 2199SOL    OH221315   5.060   1.414   5.572
 2199SOL     H121316   5.135   1.354   5.570
 2199SOL     H221317   5.072   1.465   5.652
 2200SOL    OH221318   2.946   5.704   1.305
 2200SOL     H121319   3.036   5.729   1.287
 2200SOL     H221320   2.894   5.781   1.279
 2201SOL    OH221321   1.536   5.468   0.150
 2201SOL     H121322   1.470   5.515   0.098
 2201SOL     H221323   1.486   5.425   0.219
 2202SOL    OH221324   5.633   1.109   0.022
 2202SOL     H121325   5.590   1.050   6.318
 2202SOL     H221326   5.567   1.126   0.089
 2203SOL    OH221327   0.556   1.424   1.404
 2203SOL     H121328   0.566   1.487   1.476
 2203SOL     H221329   0.535   1.341   1.447
 2204SOL    OH221330   5.201   3.220   1.509
 2204SOL     H121331   5.125   3.251   1.557
 2204SOL     H221332   5.276   3.248   1.562
 2205SOL    OH221333   4.253   0.152   0.860
 2205SOL     H121334   4.198   0.231   0.860
 2205SOL     H221335   4.329   0.176   0.912
 2206SOL    OH221336   2.533   3.069   6.100
 2206SOL     H121337   2.564   3.105   6.183
 2206SOL     H221338   2.547   3.139   6.037
 2207SOL    OH221339   0.385   2.765   0.930
 2207SOL     H121340   0.293   2.745   0.948
 2207SOL     H221341   0.386   2.786   0.836
 2208SOL    OH221342   3.865   0.622   5.201
 2208SOL     H121343   3.960   0.633   5.201
 2208SOL     H221344   3.831   0.711   5.195
 2209SOL    OH221345   1.395   3.540   0.614
 2209SOL     H121346   1.303   3.529   0.637
 2209SOL     H221347   1.394   3.595   0.536
 2210SOL    OH221348   4.387   0.190   1.414
 2210SOL     H121349   4.314   0.207   1.473
 2210SOL     H221350   4.394   0.270   1.361
 2211SOL    OH221351   0.688   3.093   1.236
 2211SOL     H121352   0.610   3.049   1.204
 2211SOL     H221353   0.749   3.091   1.163
 2212SOL    OH221354   3.284   3.703   5.129
 2212SOL     H121355   3.275   3.799   5.135
 2212SOL     H221356   3.207   3.676   5.079
 2213SOL    OH221357   3.714   5.249   0.714
 2213SOL     H121358   3.741   5.306   0.642
 2213SOL     H221359   3.624   5.225   0.692
 2214SOL    OH221360   5.755   3.603   0.028
 2214SOL     H121361   5.735   3.650   0.109
 2214SOL     H221362   5.695   3.529   0.028
 2215SOL    OH221363   2.912   2.879   0.363
 2215SOL     H121364   2.907   2.784   0.362
 2215SOL     H221365   2.902   2.904   0.455
 2216SOL    OH221366   5.158   5.551   0.814
 2216SOL     H121367   5.066   5.532   0.801
 2216SOL     H221368   5.166   5.572   0.907
 2217SOL    OH221369   3.346   3.666   1.039
 2217SOL     H121370   3.333   3.684   0.946
 2217SOL     H221371   3.304   3.581   1.054
 2218SOL    OH221372   1.063   2.473   6.347
 2218SOL     H121373   1.132   2.538   0.005
 2218SOL     H221374   1.101   2.412   6.284
 2219SOL    OH221375   4.713   3.728   5.568
 2219SOL     H121376   4.647   3.782   5.612
 2219SOL     H221377   4.753   3.678   5.638
 2220SOL    OH221378   5.612   1.057   6.025
 2220SOL     H121379   5.614   1.042   5.931
 2220SOL     H221380   5.702   1.044   6.054
 2221SOL    OH221381   5.030   3.053   0.189
 2221SOL     H121382   5.055   3.136   0.149
 2221SOL     H221383   5.100   2.992   0.165
 2222SOL    OH221384   0.870   0.742   5.436
 2222SOL     H121385   0.960   0.759   5.409
 2222SOL     H221386   0.877   0.674   5.503
 2223SOL    OH221387   2.415   1.575   1.035
 2223SOL     H121388   2.343   1.560   0.974
 2223SOL     H221389   2.472   1.638   0.989
 2224SOL    OH221390   4.846   2.035   5.661
 2224SOL     H121391   4.901   1.961   5.686
 2224SOL     H221392   4.757   1.999   5.659
 2225SOL    OH221393   2.544   1.772   0.884
 2225SOL     H121394   2.536   1.806   0.795
 2225SOL     H221395   2.634   1.793   0.910
 2226SOL    OH221396   3.267   4.786   5.691
 2226SOL     H121397   3.354   4.813   5.662
 2226SOL     H221398   3.245   4.712   5.634
 2227SOL    OH221399   5.774   3.583   0.856
 2227SOL     H121400   5.712   3.571   0.928
 2227SOL     H221401   5.840   3.515   0.869
 2228SOL    OH221402   0.433   4.401   0.547
 2228SOL     H121403   0.373   4.468   0.579
 2228SOL     H221404   0.440   4.339   0.621
 2229SOL    OH221405   6.056   5.955   5.301
 2229SOL     H121406   5.966   5.937   5.276
 2229SOL     H221407   6.095   5.995   5.223
 2230SOL    OH221408   4.525   0.289   6.078
 2230SOL     H121409   4.540   0.198   6.053
 2230SOL     H221410   4.445   0.314   6.031
 2231SOL    OH221411   1.446   1.857   1.095
 2231SOL     H121412   1.446   1.916   1.020
 2231SOL     H221413   1.538   1.836   1.109
 2232SOL    OH221414   4.409   4.706   1.385
 2232SOL     H121415   4.396   4.788   1.339
 2232SOL     H221416   4.482   4.663   1.339
 2233SOL    OH221417   5.825   1.184   0.390
 2233SOL     H121418   5.802   1.234   0.311
 2233SOL     H221419   5.741   1.159   0.428
 2234SOL    OH221420   2.761   4.191   1.032
 2234SOL     H121421   2.740   4.228   1.117
 2234SOL     H221422   2.816   4.115   1.051
 2235SOL    OH221423   2.102   0.546   0.494
 2235SOL     H121424   2.126   0.631   0.530
 2235SOL     H221425   2.172   0.487   0.524
 2236SOL    OH221426   5.610   5.724   0.946
 2236SOL     H121427   5.630   5.817   0.948
 2236SOL     H221428   5.525   5.717   0.990
 2237SOL    OH221429   5.584   0.368   5.491
 2237SOL     H121430   5.639   0.432   5.535
 2237SOL     H221431   5.497   0.408   5.491
 2238SOL    OH221432   5.031   3.062   1.778
 2238SOL     H121433   5.027   3.145   1.731
 2238SOL     H221434   5.107   3.017   1.741
 2239SOL    OH221435   1.682   2.892   0.606
 2239SOL     H121436   1.591   2.876   0.580
 2239SOL     H221437   1.705   2.975   0.566
 2240SOL    OH221438   3.191   2.495   5.903
 2240SOL     H121439   3.227   2.576   5.939
 2240SOL     H221440   3.149   2.523   5.821
 2241SOL    OH221441   3.367   3.053   5.426
 2241SOL     H121442   3.283   3.071   5.468
 2241SOL     H221443   3.369   2.958   5.417
 2242SOL    OH221444   1.970   5.243   0.557
 2242SOL     H121445   1.895   5.287   0.515
 2242SOL     H221446   1.942   5.230   0.648
 2243SOL    OH221447   4.090   5.429   5.440
 2243SOL     H121448   4.092   5.369   5.366
 2243SOL     H221449   4.080   5.372   5.517
 2244SOL    OH221450   4.602   0.718   0.379
 2244SOL     H121451   4.566   0.781   0.317
 2244SOL     H221452   4.693   0.746   0.393
 2245SOL    OH221453   1.745   3.136   0.501
 2245SOL     H121454   1.692   3.210   0.529
 2245SOL     H221455   1.835   3.165   0.512
 2246SOL    OH221456   5.071   1.534   0.017
 2246SOL     H121457   4.994   1.576   0.056
 2246SOL     H221458   5.141   1.599   0.027
 2247SOL    OH221459   5.689   3.805   5.485
 2247SOL     H121460   5.715   3.888   5.525
 2247SOL     H221461   5.756   3.743   5.513
 2248SOL    OH221462   3.801   5.637   5.770
 2248SOL     H121463   3.716   5.627   5.727
 2248SOL     H221464   3.812   5.732   5.780
 2249SOL    OH221465   5.337   1.440   0.272
 2249SOL     H121466   5.371   1.410   0.356
 2249SOL     H221467   5.243   1.422   0.276
 2250SOL    OH221468   6.061   4.420   5.442
 2250SOL     H121469   6.090   4.478   5.372
 2250SOL     H221470   6.112   4.447   5.518
 2251SOL    OH221471   0.016   4.068   5.902
 2251SOL     H121472   6.259   4.079   5.820
 2251SOL     H221473   6.241   4.074   5.970
 2252SOL    OH221474   0.297   4.597   6.280
 2252SOL     H121475   0.258   4.655   6.346
 2252SOL     H221476   0.235   4.525   6.272
 2253SOL    OH221477   4.119   4.591   0.890
 2253SOL     H121478   4.095   4.656   0.825
 2253SOL     H221479   4.159   4.520   0.840
 2254SOL    OH221480   5.420   4.078   1.069
 2254SOL     H121481   5.496   4.065   1.126
 2254SOL     H221482   5.348   4.094   1.129
 2255SOL    OH221483   5.628   2.082   0.275
 2255SOL     H121484   5.682   2.035   0.211
 2255SOL     H221485   5.681   2.081   0.355
 2256SOL    OH221486   4.766   3.922   5.378
 2256SOL     H121487   4.744   3.851   5.438
 2256SOL     H221488   4.681   3.950   5.343
 2257SOL    OH221489   3.185   0.429   5.785
 2257SOL     H121490   3.246   0.413   5.857
 2257SOL     H221491   3.181   0.345   5.739
 2258SOL    OH221492   3.123   1.101   0.306
 2258SOL     H121493   3.075   1.080   0.227
 2258SOL     H221494   3.202   1.048   0.302
 2259SOL    OH221495   0.433   6.055   4.768
 2259SOL     H121496   0.385   6.002   4.704
 2259SOL     H221497   0.489   6.112   4.715
 2260SOL    OH221498   3.910   4.149   5.795
 2260SOL     H121499   3.892   4.242   5.808
 2260SOL     H221500   4.005   4.142   5.797
 2261SOL    OH221501   1.995   3.280   1.788
 2261SOL     H121502   1.910   3.272   1.832
 2261SOL     H221503   2.011   3.193   1.752
 2262SOL    OH221504   2.175   4.506   6.357
 2262SOL     H121505   2.224   4.433   6.319
 2262SOL     H221506   2.240   4.575   0.011
 2263SOL    OH221507   0.101   2.773   0.497
 2263SOL     H121508   0.172   2.809   0.550
 2263SOL     H221509   0.043   2.847   0.480
 2264SOL    OH221510   1.705   4.825   5.954
 2264SOL     H121511   1.749   4.891   6.007
 2264SOL     H221512   1.654   4.874   5.890
 2265SOL    OH221513   5.394   0.147   0.531
 2265SOL     H121514   5.437   0.117   0.451
 2265SOL     H221515   5.436   0.097   0.601
 2266SOL    OH221516   0.063   1.410   1.162
 2266SOL     H121517   0.108   1.471   1.220
 2266SOL     H221518   6.281   1.376   1.214
 2267SOL    OH221519   5.981   3.185   5.871
 2267SOL     H121520   6.009   3.229   5.952
 2267SOL     H221521   5.892   3.216   5.856
 2268SOL    OH221522   0.048   4.260   5.545
 2268SOL     H121523   0.047   4.282   5.452
 2268SOL     H221524   0.139   4.233   5.562
 2269SOL    OH221525   5.881   1.020   5.800
 2269SOL     H121526   5.890   0.952   5.867
 2269SOL     H221527   5.937   0.991   5.728
 2270SOL    OH221528   1.114   1.376   6.049
 2270SOL     H121529   1.103   1.360   6.143
 2270SOL     H221530   1.044   1.325   6.008
 2271SOL    OH221531   1.219   0.349   0.823
 2271SOL     H121532   1.214   0.390   0.737
 2271SOL     H221533   1.269   0.411   0.876
 2272SOL    OH221534   3.694   2.950   4.942
 2272SOL     H121535   3.669   3.030   4.989
 2272SOL     H221536   3.762   2.911   4.996
 2273SOL    OH221537   4.580   0.917   4.976
 2273SOL     H121538   4.534   0.834   4.960
 2273SOL     H221539   4.544   0.976   4.910
 2274SOL    OH221540   4.359   1.198   6.224
 2274SOL     H121541   4.336   1.198   6.131
 2274SOL     H221542   4.443   1.245   6.228
 2275SOL    OH221543   2.727   3.422   5.712
 2275SOL     H121544   2.691   3.407   5.625
 2275SOL     H221545   2.808   3.470   5.696
 2276SOL    OH221546   2.305   6.246   0.459
 2276SOL     H121547   2.366   6.177   0.483
 2276SOL     H221548   2.289   6.234   0.366
 2277SOL    OH221549   0.595   5.219   0.658
 2277SOL     H121550   0.637   5.134   0.671
 2277SOL     H221551   0.659   5.283   0.691
 2278SOL    OH221552   0.788   3.063   0.002
 2278SOL     H121553   0.736   3.020   0.069
 2278SOL     H221554   0.806   2.994   6.295
 2279SOL    OH221555   2.556   2.785   6.321
 2279SOL     H121556   2.471   2.823   6.343
 2279SOL     H221557   2.590   2.842   6.252
 2280SOL    OH221558   2.722   0.028   1.161
 2280SOL     H121559   2.751   6.293   1.226
 2280SOL     H221560   2.653   6.314   1.112
 2281SOL    OH221561   5.410   4.540   6.186
 2281SOL     H121562   5.338   4.484   6.158
 2281SOL     H221563   5.386   4.567   6.275
 2282SOL    OH221564   5.049   2.030   5.326
 2282SOL     H121565   5.035   2.102   5.387
 2282SOL     H221566   5.144   2.022   5.320
 2283SOL    OH221567   3.715   3.000   5.690
 2283SOL     H121568   3.791   2.965   5.736
 2283SOL     H221569   3.641   2.977   5.745
 2284SOL    OH221570   2.540   5.622   0.631
 2284SOL     H121571   2.538   5.568   0.710
 2284SOL     H221572   2.630   5.654   0.627
 2285SOL    OH221573   5.655   0.521   4.979
 2285SOL     H121574   5.625   0.488   5.064
 2285SOL     H221575   5.580   0.569   4.944
 2286SOL    OH221576   5.971   3.097   0.101
 2286SOL     H121577   5.961   3.003   0.112
 2286SOL     H221578   5.982   3.132   0.189
 2287SOL    OH221579   4.201   1.989   5.785
 2287SOL     H121580   4.236   2.078   5.785
 2287SOL     H221581   4.106   2.001   5.792
 2288SOL    OH221582   2.897   2.842   6.288
 2288SOL     H121583   2.917   2.749   6.286
 2288SOL     H221584   2.841   2.856   6.212
 2289SOL    OH221585   3.259   0.281   5.380
 2289SOL     H121586   3.317   0.337   5.432
 2289SOL     H221587   3.310   0.201   5.365
 2290SOL    OH221588   5.462   4.231   5.454
 2290SOL     H121589   5.498   4.297   5.513
 2290SOL     H221590   5.367   4.241   5.460
 2291SOL    OH221591   2.626   6.225   0.744
 2291SOL     H121592   2.719   6.213   0.763
 2291SOL     H221593   2.622   6.308   0.697
 2292SOL    OH221594   1.641   5.927   4.715
 2292SOL     H121595   1.555   5.969   4.713
 2292SOL     H221596   1.685   5.965   4.791
 2293SOL    OH221597   4.955   1.988   6.357
 2293SOL     H121598   4.955   2.082   0.021
 2293SOL     H221599   5.031   1.977   6.300
 2294SOL    OH221600   2.767   0.503   6.209
 2294SOL     H121601   2.830   0.434   6.231
 2294SOL     H221602   2.777   0.515   6.114
 2295SOL    OH221603   5.338   4.209   5.987
 2295SOL     H121604   5.431   4.203   5.966
 2295SOL     H221605   5.294   4.194   5.904
 2296SOL    OH221606   2.305   3.361   5.048
 2296SOL     H121607   2.218   3.386   5.017
 2296SOL     H221608   2.297   3.269   5.071
 2297SOL    OH221609   4.208   0.454   5.029
 2297SOL     H121610   4.206   0.466   4.934
 2297SOL     H221611   4.279   0.392   5.044
 2298SOL    OH221612   1.515   4.939   5.515
 2298SOL     H121613   1.424   4.909   5.524
 2298SOL     H221614   1.535   4.928   5.422
 2299SOL    OH221615   0.359   2.113   6.212
 2299SOL     H121616   0.284   2.164   6.243
 2299SOL     H221617   0.322   2.049   6.151
 2300SOL    OH221618   5.198   5.229   0.085
 2300SOL     H121619   5.256   5.291   0.040
 2300SOL     H221620   5.249   5.199   0.160
 2301SOL    OH221621   2.990   1.039   0.080
 2301SOL     H121622   2.906   1.003   0.051
 2301SOL     H221623   2.996   1.125   0.037
 2302SOL    OH221624   6.128   5.371   0.042
 2302SOL     H121625   6.203   5.410   6.355
 2302SOL     H221626   6.062   5.440   0.043
 2303SOL    OH221627   0.937   1.209   5.921
 2303SOL     H121628   0.869   1.165   5.972
 2303SOL     H221629   0.982   1.138   5.874
 2304SOL    OH221630   5.564   0.993   0.738
 2304SOL     H121631   5.534   0.911   0.699
 2304SOL     H221632   5.567   0.974   0.832
 2305SOL    OH221633   3.179   3.306   5.222
 2305SOL     H121634   3.239   3.372   5.257
 2305SOL     H221635   3.236   3.237   5.189
 2306SOL    OH221636   3.089   3.217   0.878
 2306SOL     H121637   3.148   3.143   0.891
 2306SOL     H221638   3.020   3.205   0.944
 2307SOL    OH221639   0.827   5.495   5.216
 2307SOL     H121640   0.862   5.468   5.301
 2307SOL     H221641   0.796   5.585   5.231
 2308SOL    OH221642   5.761   2.938   6.048
 2308SOL     H121643   5.793   3.009   6.104
 2308SOL     H221644   5.745   2.866   6.109
 2309SOL    OH221645   3.983   5.367   1.433
 2309SOL     H121646   3.951   5.311   1.362
 2309SOL     H221647   3.931   5.340   1.509
 2310SOL    OH221648   6.120   2.019   5.759
 2310SOL     H121649   6.162   2.047   5.840
 2310SOL     H221650   6.096   1.928   5.774
 2311SOL    OH221651   1.095   1.063   0.089
 2311SOL     H121652   1.134   0.976   0.078
 2311SOL     H221653   1.110   1.085   0.181
 2312SOL    OH221654   1.478   4.566   1.611
 2312SOL     H121655   1.383   4.559   1.602
 2312SOL     H221656   1.492   4.645   1.662
 2313SOL    OH221657   1.306   3.821   5.690
 2313SOL     H121658   1.338   3.855   5.607
 2313SOL     H221659   1.333   3.886   5.755
 2314SOL    OH221660   5.228   6.242   6.069
 2314SOL     H121661   5.294   6.174   6.055
 2314SOL     H221662   5.252   6.282   6.152
 2315SOL    OH221663   4.734   4.672   5.485
 2315SOL     H121664   4.681   4.649   5.409
 2315SOL     H221665   4.719   4.601   5.547
 2316SOL    OH221666   0.883   5.641   6.076
 2316SOL     H121667   0.904   5.731   6.052
 2316SOL     H221668   0.794   5.645   6.110
 2317SOL    OH221669   3.751   3.474   1.573
 2317SOL     H121670   3.712   3.386   1.577
 2317SOL     H221671   3.737   3.503   1.483
 2318SOL    OH221672   5.325   1.681   5.915
 2318SOL     H121673   5.253   1.621   5.898
 2318SOL     H221674   5.389   1.629   5.964
 2319SOL    OH221675   3.074   0.326   5.185
 2319SOL     H121676   3.136   0.308   5.256
 2319SOL     H221677   3.110   0.281   5.109
 2320SOL    OH221678   1.064   2.206   5.787
 2320SOL     H121679   1.045   2.113   5.789
 2320SOL     H221680   1.138   2.217   5.847
 2321SOL    OH221681   3.936   3.808   5.595
 2321SOL     H121682   3.876   3.736   5.573
 2321SOL     H221683   3.996   3.812   5.521
 2322SOL    OH221684   4.320   4.376   1.146
 2322SOL     H121685   4.377   4.342   1.215
 2322SOL     H221686   4.310   4.303   1.085
 2323SOL    OH221687   5.337   0.474   5.469
 2323SOL     H121688   5.248   0.443   5.481
 2323SOL     H221689   5.327   0.567   5.446
 2324SOL    OH221690   5.448   6.134   0.393
 2324SOL     H121691   5.450   6.211   0.336
 2324SOL     H221692   5.514   6.152   0.460
 2325SOL    OH221693   5.681   0.535   0.967
 2325SOL     H121694   5.715   0.470   1.029
 2325SOL     H221695   5.700   0.619   1.008
 2326SOL    OH221696   6.024   2.211   0.891
 2326SOL     H121697   6.051   2.140   0.950
 2326SOL     H221698   6.066   2.190   0.807
 2327SOL    OH221699   4.206   2.105   5.117
 2327SOL     H121700   4.155   2.184   5.103
 2327SOL     H221701   4.150   2.034   5.088
 2328SOL    OH221702   2.166   6.295   6.107
 2328SOL     H121703   2.079   6.271   6.077
 2328SOL     H221704   2.224   6.230   6.067
 2329SOL    OH221705   4.312   5.961   6.184
 2329SOL     H121706   4.356   5.950   6.099
 2329SOL     H221707   4.250   5.888   6.187
 2330SOL    OH221708   2.830   5.207   6.323
 2330SOL     H121709   2.866   5.250   0.043
 2330SOL     H221710   2.897   5.218   6.256
 2331SOL    OH221711   1.685   3.164   0.999
 2331SOL     H121712   1.677   3.137   1.090
 2331SOL     H221713   1.728   3.091   0.955
 2332SOL    OH221714   5.719   4.053   0.215
 2332SOL     H121715   5.662   4.130   0.226
 2332SOL     H221716   5.753   4.036   0.303
 2333SOL    OH221717   4.873   4.700   0.354
 2333SOL     H121718   4.946   4.710   0.293
 2333SOL     H221719   4.906   4.640   0.421
 2334SOL    OH221720   6.067   4.268   4.762
 2334SOL     H121721   6.080   4.201   4.829
 2334SOL     H221722   6.083   4.351   4.807
 2335SOL    OH221723   1.122   0.711   5.118
 2335SOL     H121724   1.121   0.750   5.205
 2335SOL     H221725   1.132   0.617   5.134
 2336SOL    OH221726   1.657   2.527   1.708
 2336SOL     H121727   1.595   2.501   1.777
 2336SOL     H221728   1.618   2.605   1.670
 2337SOL    OH221729   1.776   3.562   6.069
 2337SOL     H121730   1.762   3.502   5.997
 2337SOL     H221731   1.706   3.541   6.131
 2338SOL    OH221732   1.845   2.898   5.339
 2338SOL     H121733   1.828   2.961   5.270
 2338SOL     H221734   1.929   2.926   5.377
 2339SOL    OH221735   0.154   0.167   5.023
 2339SOL     H121736   0.189   0.133   4.941
 2339SOL     H221737   0.060   0.176   5.007
 2340SOL    OH221738   1.668   4.074   0.051
 2340SOL     H121739   1.734   4.126   0.097
 2340SOL     H221740   1.637   4.131   6.338
 2341SOL    OH221741   1.766   4.854   0.217
 2341SOL     H121742   1.846   4.875   0.169
 2341SOL     H221743   1.705   4.824   0.150
 2342SOL    OH221744   4.592   3.358   5.404
 2342SOL     H121745   4.581   3.263   5.408
 2342SOL     H221746   4.537   3.392   5.474
 2343SOL    OH221747   0.607   3.719   4.749
 2343SOL     H121748   0.682   3.689   4.801
 2343SOL     H221749   0.626   3.688   4.661
 2344SOL    OH221750   0.444   2.659   0.023
 2344SOL     H121751   0.515   2.596   0.009
 2344SOL     H221752   0.367   2.604   0.038
 2345SOL    OH221753   3.009   4.729   4.960
 2345SOL     H121754   2.968   4.650   4.924
 2345SOL     H221755   3.078   4.695   5.017
 2346SOL    OH221756   2.836   3.453   0.214
 2346SOL     H121757   2.893   3.377   0.200
 2346SOL     H221758   2.793   3.466   0.129
 2347SOL    OH221759   3.766   1.951   4.710
 2347SOL     H121760   3.679   1.932   4.674
 2347SOL     H221761   3.821   1.963   4.633
 2348SOL    OH221762   4.645   1.473   5.514
 2348SOL     H121763   4.597   1.459   5.595
 2348SOL     H221764   4.675   1.564   5.520
 2349SOL    OH221765   3.505   5.311   4.846
 2349SOL     H121766   3.518   5.344   4.935
 2349SOL     H221767   3.412   5.291   4.840
 2350SOL    OH221768   6.058   6.184   0.777
 2350SOL     H121769   5.964   6.200   0.775
 2350SOL     H221770   6.090   6.220   0.694
 2351SOL    OH221771   2.115   0.927   0.355
 2351SOL     H121772   2.139   1.008   0.309
 2351SOL     H221773   2.095   0.865   0.285
 2352SOL    OH221774   0.432   4.931   0.411
 2352SOL     H121775   0.504   4.880   0.448
 2352SOL     H221776   0.475   4.994   0.353
 2353SOL    OH221777   3.356   4.153   5.718
 2353SOL     H121778   3.451   4.143   5.725
 2353SOL     H221779   3.338   4.236   5.761
 2354SOL    OH221780   1.100   0.236   1.189
 2354SOL     H121781   1.080   0.200   1.103
 2354SOL     H221782   1.112   0.330   1.175
 2355SOL    OH221783   4.097   3.626   0.637
 2355SOL     H121784   4.111   3.665   0.551
 2355SOL     H221785   4.013   3.662   0.667
 2356SOL    OH221786   2.384   1.563   5.293
 2356SOL     H121787   2.443   1.489   5.278
 2356SOL     H221788   2.317   1.554   5.226
 2357SOL    OH221789   3.723   0.870   5.222
 2357SOL     H121790   3.788   0.888   5.290
 2357SOL     H221791   3.638   0.881   5.265
 2358SOL    OH221792   3.596   0.878   4.735
 2358SOL     H121793   3.599   0.916   4.823
 2358SOL     H221794   3.550   0.943   4.682
 2359SOL    OH221795   0.931   2.922   4.556
 2359SOL     H121796   0.986   2.845   4.547
 2359SOL     H221797   0.993   2.994   4.567
 2360SOL    OH221798   0.073   0.137   1.461
 2360SOL     H121799   0.005   0.113   1.399
 2360SOL     H221800   0.064   0.074   1.532
 2361SOL    OH221801   1.542   4.621   4.214
 2361SOL     H121802   1.462   4.644   4.261
 2361SOL     H221803   1.513   4.593   4.128
 2362SOL    OH221804   2.588   4.651   0.199
 2362SOL     H121805   2.683   4.639   0.202
 2362SOL     H221806   2.569   4.715   0.268
 2363SOL    OH221807   5.763   6.293   0.203
 2363SOL     H121808   5.798   6.286   0.292
 2363SOL     H221809   5.797   6.215   0.159
 2364SOL    OH221810   5.982   1.862   6.264
 2364SOL     H121811   5.973   1.767   6.262
 2364SOL     H221812   5.971   1.889   6.173
 2365SOL    OH221813   0.634   2.548   0.375
 2365SOL     H121814   0.683   2.469   0.356
 2365SOL     H221815   0.677   2.616   0.323
 2366SOL    OH221816   3.676   2.102   0.810
 2366SOL     H121817   3.635   2.068   0.889
 2366SOL     H221818   3.635   2.052   0.739
 2367SOL    OH221819   3.835   2.213   5.801
 2367SOL     H121820   3.867   2.124   5.787
 2367SOL     H221821   3.773   2.205   5.874
 2368SOL    OH221822   4.040   4.039   0.045
 2368SOL     H121823   4.129   4.048   0.078
 2368SOL     H221824   4.047   4.062   6.310
 2369SOL    OH221825   5.570   6.231   5.197
 2369SOL     H121826   5.573   6.299   5.264
 2369SOL     H221827   5.634   6.259   5.131
 2370SOL    OH221828   1.253   4.879   5.183
 2370SOL     H121829   1.276   4.921   5.100
 2370SOL     H221830   1.325   4.818   5.200
 2371SOL    OH221831   3.429   0.896   6.259
 2371SOL     H121832   3.403   0.971   6.312
 2371SOL     H221833   3.357   0.833   6.268
 2372SOL    OH221834   0.198   3.411   5.464
 2372SOL     H121835   0.159   3.394   5.549
 2372SOL     H221836   0.123   3.424   5.406
 2373SOL    OH221837   6.161   6.049   5.063
 2373SOL     H121838   6.128   5.982   5.002
 2373SOL     H221839   6.248   6.018   5.087
 2374SOL    OH221840   2.550   0.249   0.389
 2374SOL     H121841   2.523   0.328   0.343
 2374SOL     H221842   2.527   0.177   0.330
 2375SOL    OH221843   2.718   6.283   0.065
 2375SOL     H121844   2.765   6.318   6.347
 2375SOL     H221845   2.758   6.328   0.140
 2376SOL    OH221846   4.818   2.266   5.806
 2376SOL     H121847   4.899   2.268   5.857
 2376SOL     H221848   4.824   2.184   5.756
 2377SOL    OH221849   0.837   0.730   1.327
 2377SOL     H121850   0.756   0.687   1.301
 2377SOL     H221851   0.854   0.697   1.416
 2378SOL    OH221852   5.776   2.433   0.194
 2378SOL     H121853   5.767   2.478   0.278
 2378SOL     H221854   5.691   2.390   0.181
 2379SOL    OH221855   4.456   0.681   4.943
 2379SOL     H121856   4.369   0.719   4.928
 2379SOL     H221857   4.464   0.613   4.876
 2380SOL    OH221858   0.237   1.359   5.771
 2380SOL     H121859   0.166   1.398   5.720
 2380SOL     H221860   0.196   1.288   5.820
 2381SOL    OH221861   4.529   1.834   5.220
 2381SOL     H121862   4.513   1.908   5.162
 2381SOL     H221863   4.615   1.851   5.259
 2382SOL    OH221864   2.289   0.329   0.833
 2382SOL     H121865   2.235   0.250   0.840
 2382SOL     H221866   2.300   0.359   0.923
 2383SOL    OH221867   1.006   5.940   5.590
 2383SOL     H121868   1.100   5.957   5.601
 2383SOL     H221869   1.002   5.855   5.546
 2384SOL    OH221870   2.941   5.949   5.588
 2384SOL     H121871   2.951   5.952   5.684
 2384SOL     H221872   2.918   5.858   5.569
 2385SOL    OH221873   3.113   3.089   0.362
 2385SOL     H121874   3.071   3.003   0.367
 2385SOL     H221875   3.106   3.124   0.451
 2386SOL    OH221876   0.002   5.803   1.656
 2386SOL     H121877   0.040   5.891   1.652
 2386SOL     H221878   6.274   5.781   1.564
 2387SOL    OH221879   2.929   1.101   6.016
 2387SOL     H121880   2.904   1.185   6.055
 2387SOL     H221881   2.959   1.124   5.928
 2388SOL    OH221882   2.187   0.174   1.210
 2388SOL     H121883   2.113   0.123   1.178
 2388SOL     H221884   2.181   0.169   1.305
 2389SOL    OH221885   5.033   0.875   4.831
 2389SOL     H121886   4.973   0.893   4.904
 2389SOL     H221887   4.997   0.926   4.758
 2390SOL    OH221888   0.986   5.991   0.775
 2390SOL     H121889   0.967   5.990   0.682
 2390SOL     H221890   1.019   6.079   0.793
 2391SOL    OH221891   4.188   3.549   1.007
 2391SOL     H121892   4.249   3.621   0.991
 2391SOL     H221893   4.227   3.501   1.080
 2392SOL    OH221894   3.279   3.665   0.770
 2392SOL     H121895   3.344   3.595   0.767
 2392SOL     H221896   3.245   3.670   0.680
 2393SOL    OH221897   5.148   4.913   0.408
 2393SOL     H121898   5.228   4.896   0.357
 2393SOL     H221899   5.084   4.943   0.344
 2394SOL    OH221900   4.213   1.071   5.737
 2394SOL     H121901   4.161   1.008   5.786
 2394SOL     H221902   4.163   1.085   5.656
 2395SOL    OH221903   5.227   4.830   6.242
 2395SOL     H121904   5.176   4.911   6.244
 2395SOL     H221905   5.184   4.777   6.175
 2396SOL    OH221906   0.818   5.158   4.630
 2396SOL     H121907   0.891   5.110   4.669
 2396SOL     H221908   0.853   5.245   4.612
 2397SOL    OH221909   1.466   1.887   0.458
 2397SOL     H121910   1.419   1.964   0.426
 2397SOL     H221911   1.412   1.854   0.530
 2398SOL    OH221912   2.891   6.223   0.832
 2398SOL     H121913   2.914   6.299   0.886
 2398SOL     H221914   2.954   6.225   0.760
 2399SOL    OH221915   3.607   1.298   6.147
 2399SOL     H121916   3.599   1.393   6.142
 2399SOL     H221917   3.606   1.269   6.056
 2400SOL    OH221918   0.817   1.490   1.021
 2400SOL     H121919   0.887   1.547   0.991
 2400SOL     H221920   0.777   1.537   1.094
 2401SOL    OH221921   2.051   5.024   5.999
 2401SOL     H121922   2.085   5.100   6.046
 2401SOL     H221923   1.957   5.025   6.016
 2402SOL    OH221924   4.635   5.840   1.620
 2402SOL     H121925   4.590   5.849   1.704
 2402SOL     H221926   4.623   5.748   1.597
 2403SOL    OH221927   1.400   4.394   0.360
 2403SOL     H121928   1.477   4.374   0.308
 2403SOL     H221929   1.375   4.310   0.399
 2404SOL    OH221930   0.447   5.891   1.126
 2404SOL     H121931   0.485   5.936   1.201
 2404SOL     H221932   0.418   5.961   1.068
 2405SOL    OH221933   4.427   3.210   0.098
 2405SOL     H121934   4.514   3.240   0.125
 2405SOL     H221935   4.404   3.142   0.161
 2406SOL    OH221936   1.479   3.595   0.870
 2406SOL     H121937   1.454   3.565   0.783
 2406SOL     H221938   1.422   3.669   0.889
 2407SOL    OH221939   5.874   4.641   0.255
 2407SOL     H121940   5.864   4.700   0.180
 2407SOL     H221941   5.954   4.592   0.236
 2408SOL    OH221942   5.723   0.809   0.458
 2408SOL     H121943   5.670   0.849   0.389
 2408SOL     H221944   5.659   0.783   0.525
 2409SOL    OH221945   2.015   4.020   0.829
 2409SOL     H121946   1.969   4.019   0.745
 2409SOL     H221947   1.952   4.055   0.891
 2410SOL    OH221948   3.185   3.649   0.034
 2410SOL     H121949   3.265   3.669   0.082
 2410SOL     H221950   3.183   3.553   0.030
 2411SOL    OH221951   1.477   3.920   1.144
 2411SOL     H121952   1.441   3.987   1.203
 2411SOL     H221953   1.572   3.927   1.156
 2412SOL    OH221954   2.811   6.244   0.482
 2412SOL     H121955   2.812   6.271   0.390
 2412SOL     H221956   2.756   6.308   0.526
 2413SOL    OH221957   4.788   3.459   6.080
 2413SOL     H121958   4.728   3.433   6.010
 2413SOL     H221959   4.760   3.547   6.104
 2414SOL    OH221960   3.091   1.200   0.776
 2414SOL     H121961   3.116   1.132   0.713
 2414SOL     H221962   3.010   1.167   0.815
 2415SOL    OH221963   5.205   5.324   1.071
 2415SOL     H121964   5.187   5.418   1.073
 2415SOL     H221965   5.196   5.296   1.162
 2416SOL    OH221966   3.263   4.158   5.462
 2416SOL     H121967   3.288   4.149   5.554
 2416SOL     H221968   3.336   4.119   5.413
 2417SOL    OH221969   2.227   4.598   5.010
 2417SOL     H121970   2.222   4.689   5.039
 2417SOL     H221971   2.148   4.557   5.045
 2418SOL    OH221972   4.046   0.103   4.560
 2418SOL     H121973   4.037   0.151   4.643
 2418SOL     H221974   4.025   0.168   4.493
 2419SOL    OH221975   0.889   1.838   0.088
 2419SOL     H121976   0.944   1.763   0.068
 2419SOL     H221977   0.915   1.864   0.177
 2420SOL    OH221978   1.327   5.010   4.959
 2420SOL     H121979   1.419   5.028   4.938
 2420SOL     H221980   1.279   5.086   4.926
 2421SOL    OH221981   0.614   5.810   5.529
 2421SOL     H121982   0.525   5.820   5.495
 2421SOL     H221983   0.602   5.788   5.622
 2422SOL    OH221984   2.798   2.718   0.895
 2422SOL     H121985   2.863   2.788   0.900
 2422SOL     H221986   2.723   2.752   0.944
 2423SOL    OH221987   2.357   1.957   5.950
 2423SOL     H121988   2.263   1.973   5.958
 2423SOL     H221989   2.389   2.028   5.894
 2424SOL    OH221990   3.155   3.839   1.894
 2424SOL     H121991   3.091   3.910   1.897
 2424SOL     H221992   3.238   3.882   1.875
 2425SOL    OH221993   3.793   0.334   6.284
 2425SOL     H121994   3.788   0.276   6.208
 2425SOL     H221995   3.868   0.390   6.266
 2426SOL    OH221996   5.600   2.181   5.166
 2426SOL     H121997   5.516   2.183   5.119
 2426SOL     H221998   5.662   2.222   5.106
 2427SOL    OH221999   0.640   1.634   5.884
 2427SOL     H122000   0.650   1.706   5.821
 2427SOL     H222001   0.710   1.573   5.862
 2428SOL    OH222002   2.141   1.504   5.718
 2428SOL     H122003   2.052   1.468   5.720
 2428SOL     H222004   2.144   1.563   5.793
 2429SOL    OH222005   5.756   3.044   0.378
 2429SOL     H122006   5.776   3.130   0.414
 2429SOL     H222007   5.834   2.991   0.398
 2430SOL    OH222008   4.730   0.047   0.167
 2430SOL     H122009   4.680   0.115   0.213
 2430SOL     H222010   4.821   0.077   0.171
 2431SOL    OH222011   5.623   3.507   0.637
 2431SOL     H122012   5.669   3.538   0.559
 2431SOL     H222013   5.675   3.538   0.710
 2432SOL    OH222014   0.851   3.010   4.827
 2432SOL     H122015   0.790   2.980   4.895
 2432SOL     H222016   0.836   2.951   4.753
 2433SOL    OH222017   0.682   3.690   0.915
 2433SOL     H122018   0.756   3.652   0.963
 2433SOL     H222019   0.707   3.781   0.901
 2434SOL    OH222020   5.195   3.814   6.101
 2434SOL     H122021   5.211   3.902   6.135
 2434SOL     H222022   5.275   3.766   6.122
 2435SOL    OH222023   4.409   4.176   4.849
 2435SOL     H122024   4.440   4.108   4.789
 2435SOL     H222025   4.358   4.235   4.794
 2436SOL    OH222026   6.101   5.329   4.665
 2436SOL     H122027   6.040   5.263   4.633
 2436SOL     H222028   6.055   5.412   4.652
 2437SOL    OH222029   2.072   3.194   5.284
 2437SOL     H122030   2.072   3.119   5.344
 2437SOL     H222031   2.139   3.173   5.219
 2438SOL    OH222032   0.990   0.669   0.823
 2438SOL     H122033   0.945   0.599   0.871
 2438SOL     H222034   0.972   0.652   0.731
 2439SOL    OH222035   0.376   3.843   0.452
 2439SOL     H122036   0.407   3.752   0.461
 2439SOL     H222037   0.404   3.886   0.532
 2440SOL    OH222038   2.427   0.792   1.461
 2440SOL     H122039   2.399   0.704   1.485
 2440SOL     H222040   2.512   0.781   1.419
 2441SOL    OH222041   0.508   3.094   5.141
 2441SOL     H122042   0.429   3.089   5.087
 2441SOL     H222043   0.484   3.153   5.213
 2442SOL    OH222044   6.150   0.201   5.704
 2442SOL     H122045   6.061   0.188   5.737
 2442SOL     H222046   6.138   0.241   5.617
 2443SOL    OH222047   2.264   5.587   0.979
 2443SOL     H122048   2.346   5.551   0.946
 2443SOL     H222049   2.199   5.566   0.912
 2444SOL    OH222050   0.850   0.971   5.599
 2444SOL     H122051   0.854   0.898   5.537
 2444SOL     H222052   0.897   1.042   5.554
 2445SOL    OH222053   1.679   5.820   5.724
 2445SOL     H122054   1.684   5.915   5.731
 2445SOL     H222055   1.586   5.801   5.720
 2446SOL    OH222056   4.511   3.098   5.445
 2446SOL     H122057   4.507   3.084   5.539
 2446SOL     H222058   4.508   3.010   5.408
 2447SOL    OH222059   1.354   4.089   1.326
 2447SOL     H122060   1.400   4.168   1.355
 2447SOL     H222061   1.318   4.051   1.406
 2448SOL    OH222062   0.296   3.349   5.835
 2448SOL     H122063   0.283   3.407   5.910
 2448SOL     H222064   0.374   3.383   5.791
 2449SOL    OH222065   1.085   4.343   0.911
 2449SOL     H122066   1.053   4.254   0.896
 2449SOL     H222067   1.155   4.333   0.975
 2450SOL    OH222068   4.108   4.347   6.016
 2450SOL     H122069   4.037   4.393   5.971
 2450SOL     H222070   4.166   4.417   6.047
 2451SOL    OH222071   5.095   5.600   5.704
 2451SOL     H122072   5.013   5.643   5.678
 2451SOL     H222073   5.067   5.524   5.754
 2452SOL    OH222074   0.638   2.322   5.061
 2452SOL     H122075   0.583   2.368   4.998
 2452SOL     H222076   0.576   2.273   5.115
 2453SOL    OH222077   2.818   4.317   0.146
 2453SOL     H122078   2.854   4.230   0.131
 2453SOL     H222079   2.726   4.310   0.122
 2454SOL    OH222080   3.511   1.881   4.886
 2454SOL     H122081   3.478   1.791   4.888
 2454SOL     H222082   3.524   1.900   4.793
 2455SOL    OH222083   5.613   1.499   4.517
 2455SOL     H122084   5.528   1.524   4.553
 2455SOL     H222085   5.596   1.483   4.424
 2456SOL    OH222086   2.238   5.991   0.849
 2456SOL     H122087   2.227   6.065   0.790
 2456SOL     H222088   2.302   5.935   0.806
 2457SOL    OH222089   1.688   1.608   6.114
 2457SOL     H122090   1.730   1.588   6.198
 2457SOL     H222091   1.759   1.602   6.050
 2458SOL    OH222092   3.891   0.960   0.425
 2458SOL     H122093   3.975   0.960   0.380
 2458SOL     H222094   3.836   1.020   0.375
 2459SOL    OH222095   0.147   4.379   1.057
 2459SOL     H122096   0.180   4.308   1.003
 2459SOL     H222097   0.206   4.452   1.040
 2460SOL    OH222098   2.428   1.015   0.336
 2460SOL     H122099   2.495   0.953   0.368
 2460SOL     H222100   2.409   1.070   0.412
 2461SOL    OH222101   5.178   4.773   0.896
 2461SOL     H122102   5.214   4.851   0.855
 2461SOL     H222103   5.216   4.772   0.984
 2462SOL    OH222104   6.199   5.674   1.083
 2462SOL     H122105   6.143   5.642   1.154
 2462SOL     H222106   6.148   5.744   1.043
 2463SOL    OH222107   3.038   5.538   1.011
 2463SOL     H122108   3.023   5.453   0.970
 2463SOL     H222109   3.051   5.517   1.104
 2464SOL    OH222110   3.212   4.614   5.104
 2464SOL     H122111   3.178   4.641   5.189
 2464SOL     H222112   3.273   4.543   5.125
 2465SOL    OH222113   3.128   3.814   6.180
 2465SOL     H122114   3.199   3.878   6.179
 2465SOL     H222115   3.150   3.755   6.252
 2466SOL    OH222116   0.862   2.025   4.901
 2466SOL     H122117   0.923   2.098   4.909
 2466SOL     H222118   0.807   2.030   4.979
 2467SOL    OH222119   3.150   1.812   6.302
 2467SOL     H122120   3.068   1.765   6.290
 2467SOL     H222121   3.163   1.814   0.040
 2468SOL    OH222122   5.150   3.912   5.439
 2468SOL     H122123   5.228   3.949   5.398
 2468SOL     H222124   5.095   3.885   5.365
 2469SOL    OH222125   4.052   4.041   0.382
 2469SOL     H122126   4.126   4.072   0.329
 2469SOL     H222127   4.062   3.945   0.382
 2470SOL    OH222128   2.545   2.604   0.363
 2470SOL     H122129   2.564   2.573   0.451
 2470SOL     H222130   2.618   2.571   0.309
 2471SOL    OH222131   4.735   5.173   5.120
 2471SOL     H122132   4.788   5.143   5.045
 2471SOL     H222133   4.776   5.131   5.196
 2472SOL    OH222134   2.182   4.862   5.294
 2472SOL     H122135   2.212   4.888   5.206
 2472SOL     H222136   2.131   4.783   5.280
 2473SOL    OH222137   2.910   1.667   0.343
 2473SOL     H122138   2.839   1.632   0.288
 2473SOL     H222139   2.866   1.727   0.403
 2474SOL    OH222140   6.245   5.276   5.180
 2474SOL     H122141   6.271   5.189   5.212
 2474SOL     H222142   6.189   5.311   5.248
 2475SOL    OH222143   3.928   0.625   0.095
 2475SOL     H122144   3.942   0.717   0.072
 2475SOL     H222145   3.946   0.577   0.015
 2476SOL    OH222146   4.684   2.808   5.693
 2476SOL     H122147   4.725   2.863   5.626
 2476SOL     H222148   4.739   2.820   5.770
 2477SOL    OH222149   0.997   5.518   4.998
 2477SOL     H122150   1.070   5.467   5.033
 2477SOL     H222151   0.930   5.514   5.067
 2478SOL    OH222152   6.289   6.110   5.739
 2478SOL     H122153   6.273   6.099   5.645
 2478SOL     H222154   0.033   6.199   5.746
 2479SOL    OH222155   2.964   1.381   0.618
 2479SOL     H122156   2.875   1.385   0.653
 2479SOL     H222157   3.012   1.327   0.681
 2480SOL    OH222158   3.066   3.225   0.602
 2480SOL     H122159   3.067   3.222   0.698
 2480SOL     H222160   3.135   3.287   0.579
 2481SOL    OH222161   1.415   5.743   5.714
 2481SOL     H122162   1.382   5.691   5.787
 2481SOL     H222163   1.417   5.682   5.640
 2482SOL    OH222164   3.673   5.421   6.184
 2482SOL     H122165   3.681   5.439   6.277
 2482SOL     H222166   3.689   5.506   6.142
 2483SOL    OH222167   5.488   0.792   5.872
 2483SOL     H122168   5.521   0.871   5.829
 2483SOL     H222169   5.562   0.732   5.871
 2484SOL    OH222170   5.691   1.280   5.170
 2484SOL     H122171   5.765   1.314   5.219
 2484SOL     H222172   5.730   1.244   5.090
 2485SOL    OH222173   2.429   5.874   5.874
 2485SOL     H122174   2.424   5.844   5.783
 2485SOL     H222175   2.516   5.913   5.881
 2486SOL    OH222176   4.475   3.078   5.731
 2486SOL     H122177   4.458   2.993   5.771
 2486SOL     H222178   4.389   3.115   5.714
 2487SOL    OH222179   5.044   5.807   6.028
 2487SOL     H122180   5.119   5.789   5.972
 2487SOL     H222181   5.031   5.902   6.021
 2488SOL    OH222182   3.944   0.939   0.708
 2488SOL     H122183   3.858   0.955   0.746
 2488SOL     H222184   3.932   0.948   0.614
 2489SOL    OH222185   1.290   1.623   0.345
 2489SOL     H122186   1.318   1.662   0.263
 2489SOL     H222187   1.197   1.643   0.352
 2490SOL    OH222188   5.700   5.989   6.316
 2490SOL     H122189   5.656   5.914   6.358
 2490SOL     H222190   5.765   6.018   0.023
 2491SOL    OH222191   4.503   4.873   4.994
 2491SOL     H122192   4.509   4.778   5.002
 2491SOL     H222193   4.579   4.897   4.940
 2492SOL    OH222194   0.240   5.927   1.451
 2492SOL     H122195   0.187   5.970   1.518
 2492SOL     H222196   0.186   5.929   1.372
 2493SOL    OH222197   3.124   3.341   5.639
 2493SOL     H122198   3.211   3.381   5.643
 2493SOL     H222199   3.065   3.415   5.626
 2494SOL    OH222200   0.950   5.818   1.426
 2494SOL     H122201   0.996   5.878   1.484
 2494SOL     H222202   0.858   5.842   1.435
 2495SOL    OH222203   2.919   2.197   5.440
 2495SOL     H122204   3.005   2.207   5.400
 2495SOL     H222205   2.912   2.103   5.459
 2496SOL    OH222206   0.961   4.931   1.267
 2496SOL     H122207   0.882   4.937   1.213
 2496SOL     H222208   0.974   5.019   1.301
 2497SOL    OH222209   1.221   6.217   1.576
 2497SOL     H122210   1.197   6.308   1.596
 2497SOL     H222211   1.314   6.222   1.551
 2498SOL    OH222212   1.791   3.632   0.151
 2498SOL     H122213   1.808   3.543   0.120
 2498SOL     H222214   1.833   3.636   0.237
 2499SOL    OH222215   6.187   5.562   1.985
 2499SOL     H122216   6.102   5.524   2.009
 2499SOL     H222217   6.227   5.586   2.068
 2500SOL    OH222218   2.925   5.973   0.546
 2500SOL     H122219   3.016   5.989   0.574
 2500SOL     H222220   2.888   6.061   0.534
 2501SOL    OH222221   4.767   0.684   5.892
 2501SOL     H122222   4.846   0.652   5.847
 2501SOL     H222223   4.755   0.773   5.857
 2502SOL    OH222224   1.685   4.396   0.521
 2502SOL     H122225   1.752   4.418   0.586
 2502SOL     H222226   1.677   4.475   0.467
 2503SOL    OH222227   2.291   1.451   1.329
 2503SOL     H122228   2.281   1.512   1.256
 2503SOL     H222229   2.201   1.436   1.360
 2504SOL    OH222230   1.906   2.893   6.039
 2504SOL     H122231   1.834   2.831   6.050
 2504SOL     H222232   1.959   2.884   6.118
 2505SOL    OH222233   6.225   3.422   4.550
 2505SOL     H122234   6.220   3.327   4.537
 2505SOL     H222235   6.134   3.451   4.554
 2506SOL    OH222236   5.479   0.499   0.657
 2506SOL     H122237   5.522   0.458   0.582
 2506SOL     H222238   5.429   0.428   0.697
 2507SOL    OH222239   0.001   4.020   5.083
 2507SOL     H122240   6.209   4.049   5.047
 2507SOL     H222241   0.033   3.953   5.022
 2508SOL    OH222242   1.122   3.012   4.840
 2508SOL     H122243   1.145   3.051   4.756
 2508SOL     H222244   1.026   3.012   4.841
 2509SOL    OH222245   5.328   5.209   0.562
 2509SOL     H122246   5.405   5.243   0.608
 2509SOL     H222247   5.256   5.226   0.623
 2510SOL    OH222248   0.085   0.608   5.640
 2510SOL     H122249   0.178   0.628   5.630
 2510SOL     H222250   0.082   0.516   5.664
 2511SOL    OH222251   3.453   2.240   1.931
 2511SOL     H122252   3.463   2.288   2.013
 2511SOL     H222253   3.516   2.168   1.937
 2512SOL    OH222254   2.892   2.062   1.371
 2512SOL     H122255   2.813   2.116   1.370
 2512SOL     H222256   2.904   2.038   1.463
 2513SOL    OH222257   1.022   1.660   0.373
 2513SOL     H122258   0.993   1.751   0.365
 2513SOL     H222259   0.944   1.608   0.356
 2514SOL    OH222260   2.415   2.603   5.984
 2514SOL     H122261   2.507   2.614   5.960
 2514SOL     H222262   2.393   2.684   6.030
 2515SOL    OH222263   6.123   5.392   0.634
 2515SOL     H122264   6.069   5.330   0.683
 2515SOL     H222265   6.213   5.365   0.651
 2516SOL    OH222266   1.771   3.773   0.537
 2516SOL     H122267   1.746   3.750   0.627
 2516SOL     H222268   1.692   3.814   0.501
 2517SOL    OH222269   3.234   2.286   0.048
 2517SOL     H122270   3.253   2.198   0.016
 2517SOL     H222271   3.299   2.342   0.005
 2518SOL    OH222272   5.727   4.678   5.978
 2518SOL     H122273   5.725   4.670   6.073
 2518SOL     H222274   5.637   4.662   5.950
 2519SOL    OH222275   0.145   0.987   1.355
 2519SOL     H122276   0.055   1.016   1.342
 2519SOL     H222277   0.136   0.898   1.391
 2520SOL    OH222278   1.861   5.292   6.207
 2520SOL     H122279   1.793   5.282   6.273
 2520SOL     H222280   1.856   5.385   6.182
 2521SOL    OH222281   1.010   1.187   1.898
 2521SOL     H122282   0.931   1.176   1.951
 2521SOL     H222283   1.030   1.281   1.902
 2522SOL    OH222284   5.608   0.175   5.687
 2522SOL     H122285   5.605   0.244   5.622
 2522SOL     H222286   5.527   0.126   5.674
 2523SOL    OH222287   4.244   2.579   1.155
 2523SOL     H122288   4.334   2.581   1.123
 2523SOL     H222289   4.215   2.670   1.149
 2524SOL    OH222290   4.030   1.909   5.040
 2524SOL     H122291   3.994   1.877   5.123
 2524SOL     H222292   3.960   1.961   5.002
 2525SOL    OH222293   3.471   4.548   5.358
 2525SOL     H122294   3.557   4.584   5.336
 2525SOL     H222295   3.444   4.501   5.279
 2526SOL    OH222296   0.438   4.502   5.625
 2526SOL     H122297   0.377   4.541   5.561
 2526SOL     H222298   0.381   4.475   5.697
 2527SOL    OH222299   4.072   1.347   0.676
 2527SOL     H122300   4.083   1.435   0.640
 2527SOL     H222301   4.064   1.360   0.770
 2528SOL    OH222302   5.252   1.068   5.138
 2528SOL     H122303   5.323   1.099   5.082
 2528SOL     H222304   5.186   1.137   5.133
 2529SOL    OH222305   3.318   4.099   1.053
 2529SOL     H122306   3.259   4.149   0.997
 2529SOL     H222307   3.398   4.089   1.000
 2530SOL    OH222308   3.464   0.919   5.317
 2530SOL     H122309   3.383   0.935   5.267
 2530SOL     H222310   3.439   0.856   5.384
 2531SOL    OH222311   5.400   2.177   6.276
 2531SOL     H122312   5.488   2.146   6.255
 2531SOL     H222313   5.387   2.252   6.219
 2532SOL    OH222314   0.246   2.429   6.074
 2532SOL     H122315   0.219   2.378   6.150
 2532SOL     H222316   0.248   2.366   6.001
 2533SOL    OH222317   3.949   5.529   0.001
 2533SOL     H122318   3.871   5.499   0.049
 2533SOL     H222319   3.922   5.611   6.318
 2534SOL    OH222320   5.817   5.910   5.178
 2534SOL     H122321   5.807   5.947   5.090
 2534SOL     H222322   5.735   5.933   5.222
 2535SOL    OH222323   3.460   5.130   0.682
 2535SOL     H122324   3.490   5.057   0.629
 2535SOL     H222325   3.427   5.089   0.762
 2536SOL    OH222326   3.493   3.610   5.516
 2536SOL     H122327   3.445   3.567   5.587
 2536SOL     H222328   3.485   3.703   5.535
 2537SOL    OH222329   2.814   1.133   0.797
 2537SOL     H122330   2.771   1.206   0.752
 2537SOL     H222331   2.758   1.115   0.873
 2538SOL    OH222332   1.204   5.230   4.860
 2538SOL     H122333   1.259   5.272   4.795
 2538SOL     H222334   1.202   5.292   4.933
 2539SOL    OH222335   1.523   3.203   5.631
 2539SOL     H122336   1.506   3.273   5.693
 2539SOL     H222337   1.529   3.124   5.685
 2540SOL    OH222338   4.790   3.510   0.313
 2540SOL     H122339   4.883   3.507   0.290
 2540SOL     H222340   4.785   3.469   0.399
 2541SOL    OH222341   3.730   4.956   5.710
 2541SOL     H122342   3.748   5.049   5.696
 2541SOL     H222343   3.809   4.912   5.680
 2542SOL    OH222344   1.632   5.424   4.523
 2542SOL     H122345   1.674   5.341   4.501
 2542SOL     H222346   1.660   5.442   4.612
 2543SOL    OH222347   0.410   0.234   1.175
 2543SOL     H122348   0.348   0.306   1.183
 2543SOL     H222349   0.359   0.162   1.139
 2544SOL    OH222350   0.131   4.726   1.916
 2544SOL     H122351   0.192   4.772   1.974
 2544SOL     H222352   0.045   4.759   1.943
 2545SOL    OH222353   5.596   3.667   1.472
 2545SOL     H122354   5.623   3.741   1.417
 2545SOL     H222355   5.653   3.595   1.446
 2546SOL    OH222356   3.560   6.127   6.244
 2546SOL     H122357   3.530   6.217   6.230
 2546SOL     H222358   3.485   6.073   6.221
 2547SOL    OH222359   0.129   4.594   5.201
 2547SOL     H122360   0.151   4.678   5.161
 2547SOL     H222361   0.035   4.600   5.219
 2548SOL    OH222362   2.241   5.439   6.001
 2548SOL     H122363   2.246   5.532   6.020
 2548SOL     H222364   2.326   5.418   5.963
 2549SOL    OH222365   0.420   5.588   0.703
 2549SOL     H122366   0.425   5.624   0.792
 2549SOL     H222367   0.493   5.629   0.657
 2550SOL    OH222368   4.953   0.607   0.525
 2550SOL     H122369   4.947   0.702   0.534
 2550SOL     H222370   5.002   0.579   0.602
 2551SOL    OH222371   4.089   0.724   5.637
 2551SOL     H122372   4.076   0.775   5.717
 2551SOL     H222373   4.184   0.713   5.631
 2552SOL    OH222374   2.583   1.491   5.831
 2552SOL     H122375   2.584   1.424   5.762
 2552SOL     H222376   2.546   1.568   5.789
 2553SOL    OH222377   4.182   1.682   0.341
 2553SOL     H122378   4.191   1.589   0.320
 2553SOL     H222379   4.157   1.683   0.434
 2554SOL    OH222380   2.599   0.781   0.149
 2554SOL     H122381   2.512   0.816   0.129
 2554SOL     H222382   2.606   0.786   0.244
 2555SOL    OH222383   4.935   4.035   5.572
 2555SOL     H122384   5.016   4.001   5.535
 2555SOL     H222385   4.867   4.011   5.508
 2556SOL    OH222386   5.166   0.009   0.643
 2556SOL     H122387   5.184   0.030   0.735
 2556SOL     H222388   5.243   0.041   0.596
 2557SOL    OH222389   5.454   3.727   6.178
 2557SOL     H122390   5.540   3.765   6.161
 2557SOL     H222391   5.464   3.634   6.156
 2558SOL    OH222392   3.425   2.222   6.119
 2558SOL     H122393   3.428   2.300   6.174
 2558SOL     H222394   3.386   2.154   6.174
 2559SOL    OH222395   3.676   5.346   4.629
 2559SOL     H122396   3.613   5.330   4.699
 2559SOL     H222397   3.623   5.376   4.556
 2560SOL    OH222398   4.236   5.365   5.861
 2560SOL     H122399   4.299   5.428   5.827
 2560SOL     H222400   4.289   5.293   5.894
 2561SOL    OH222401   5.764   4.024   5.622
 2561SOL     H122402   5.819   4.099   5.599
 2561SOL     H222403   5.791   4.001   5.711
 2562SOL    OH222404   0.288   0.849   0.808
 2562SOL     H122405   0.282   0.827   0.901
 2562SOL     H222406   0.235   0.927   0.798
 2563SOL    OH222407   0.732   2.633   6.002
 2563SOL     H122408   0.798   2.570   6.033
 2563SOL     H222409   0.650   2.583   6.000
 2564SOL    OH222410   1.386   3.019   0.275
 2564SOL     H122411   1.304   3.065   0.288
 2564SOL     H222412   1.402   3.025   0.180
 2565SOL    OH222413   3.333   0.507   0.778
 2565SOL     H122414   3.415   0.479   0.737
 2565SOL     H222415   3.360   0.564   0.849
 2566SOL    OH222416   2.257   1.361   1.729
 2566SOL     H122417   2.292   1.281   1.768
 2566SOL     H222418   2.172   1.336   1.694
 2567SOL    OH222419   0.302   1.260   0.278
 2567SOL     H122420   0.313   1.191   0.344
 2567SOL     H222421   0.370   1.241   0.213
 2568SOL    OH222422   6.159   3.610   0.236
 2568SOL     H122423   6.247   3.572   0.240
 2568SOL     H222424   6.122   3.594   0.323
 2569SOL    OH222425   2.348   3.052   0.341
 2569SOL     H122426   2.442   3.069   0.334
 2569SOL     H222427   2.339   2.958   0.329
 2570SOL    OH222428   2.007   1.363   6.295
 2570SOL     H122429   2.010   1.268   6.312
 2570SOL     H222430   2.015   1.371   6.200
 2571SOL    OH222431   5.135   2.130   0.474
 2571SOL     H122432   5.231   2.134   0.466
 2571SOL     H222433   5.119   2.128   0.568
 2572SOL    OH222434   3.837   4.633   0.609
 2572SOL     H122435   3.760   4.678   0.644
 2572SOL     H222436   3.810   4.542   0.600
 2573SOL    OH222437   5.935   0.335   5.998
 2573SOL     H122438   5.921   0.283   5.919
 2573SOL     H222439   5.849   0.371   6.020
 2574SOL    OH222440   0.529   1.459   4.985
 2574SOL     H122441   0.445   1.433   5.022
 2574SOL     H222442   0.590   1.455   5.059
 2575SOL    OH222443   5.655   1.568   0.411
 2575SOL     H122444   5.749   1.577   0.419
 2575SOL     H222445   5.639   1.555   0.318
 2576SOL    OH222446   5.199   4.245   0.507
 2576SOL     H122447   5.145   4.247   0.586
 2576SOL     H222448   5.240   4.332   0.504
 2577SOL    OH222449   3.970   1.736   5.920
 2577SOL     H122450   3.888   1.734   5.969
 2577SOL     H222451   4.030   1.684   5.974
 2578SOL    OH222452   1.397   4.654   0.872
 2578SOL     H122453   1.421   4.661   0.779
 2578SOL     H222454   1.426   4.566   0.897
 2579SOL    OH222455   6.171   5.744   5.439
 2579SOL     H122456   6.233   5.787   5.498
 2579SOL     H222457   6.124   5.816   5.397
 2580SOL    OH222458   5.495   5.391   1.737
 2580SOL     H122459   5.496   5.315   1.795
 2580SOL     H222460   5.558   5.452   1.776
 2581SOL    OH222461   0.237   0.664   0.609
 2581SOL     H122462   0.161   0.618   0.645
 2581SOL     H222463   0.261   0.728   0.676
 2582SOL    OH222464   5.051   4.700   0.153
 2582SOL     H122465   5.139   4.671   0.132
 2582SOL     H222466   5.007   4.708   0.069
 2583SOL    OH222467   3.593   5.366   0.325
 2583SOL     H122468   3.521   5.354   0.386
 2583SOL     H222469   3.671   5.374   0.380
 2584SOL    OH222470   1.991   3.208   1.378
 2584SOL     H122471   1.900   3.179   1.387
 2584SOL     H222472   2.039   3.157   1.443
 2585SOL    OH222473   3.810   1.691   4.810
 2585SOL     H122474   3.828   1.642   4.730
 2585SOL     H222475   3.799   1.782   4.781
 2586SOL    OH222476   0.797   4.823   5.878
 2586SOL     H122477   0.730   4.836   5.812
 2586SOL     H222478   0.772   4.742   5.923
 2587SOL    OH222479   3.303   5.820   2.011
 2587SOL     H122480   3.336   5.732   2.029
 2587SOL     H222481   3.254   5.844   2.090
 2588SOL    OH222482   0.675   1.834   5.697
 2588SOL     H122483   0.699   1.844   5.605
 2588SOL     H222484   0.709   1.913   5.739
 2589SOL    OH222485   4.398   0.626   5.358
 2589SOL     H122486   4.401   0.646   5.451
 2589SOL     H222487   4.449   0.695   5.316
 2590SOL    OH222488   5.252   0.835   4.993
 2590SOL     H122489   5.255   0.913   5.048
 2590SOL     H222490   5.182   0.853   4.930
 2591SOL    OH222491   5.306   5.514   0.382
 2591SOL     H122492   5.333   5.515   0.474
 2591SOL     H222493   5.216   5.482   0.385
 2592SOL    OH222494   1.217   3.961   0.713
 2592SOL     H122495   1.191   3.895   0.648
 2592SOL     H222496   1.253   4.033   0.662
 2593SOL    OH222497   2.045   5.582   5.395
 2593SOL     H122498   1.994   5.529   5.334
 2593SOL     H222499   1.980   5.622   5.453
 2594SOL    OH222500   4.697   4.937   5.551
 2594SOL     H122501   4.727   4.847   5.538
 2594SOL     H222502   4.604   4.935   5.527
 2595SOL    OH222503   3.478   4.010   4.895
 2595SOL     H122504   3.469   4.070   4.969
 2595SOL     H222505   3.549   3.951   4.920
 2596SOL    OH222506   4.756   2.302   6.283
 2596SOL     H122507   4.832   2.274   6.334
 2596SOL     H222508   4.754   2.397   6.292
 2597SOL    OH222509   6.123   5.614   0.285
 2597SOL     H122510   6.168   5.697   0.267
 2597SOL     H222511   6.193   5.550   0.292
 2598SOL    OH222512   4.025   2.683   5.286
 2598SOL     H122513   3.954   2.668   5.349
 2598SOL     H222514   4.094   2.621   5.312
 2599SOL    OH222515   2.299   2.814   5.324
 2599SOL     H122516   2.335   2.727   5.345
 2599SOL     H222517   2.372   2.860   5.282
 2600SOL    OH222518   3.992   0.619   1.291
 2600SOL     H122519   3.920   0.580   1.241
 2600SOL     H222520   4.002   0.563   1.367
 2601SOL    OH222521   3.172   0.200   4.967
 2601SOL     H122522   3.213   0.239   4.890
 2601SOL     H222523   3.128   0.122   4.934
 2602SOL    OH222524   3.504   6.192   0.966
 2602SOL     H122525   3.413   6.170   0.946
 2602SOL     H222526   3.554   6.151   0.895
 2603SOL    OH222527   2.261   6.056   5.986
 2603SOL     H122528   2.318   5.994   5.940
 2603SOL     H222529   2.268   6.032   6.078
 2604SOL    OH222530   5.492   5.955   5.768
 2604SOL     H122531   5.544   5.962   5.688
 2604SOL     H222532   5.542   5.896   5.824
 2605SOL    OH222533   5.385   2.819   0.616
 2605SOL     H122534   5.414   2.734   0.649
 2605SOL     H222535   5.379   2.874   0.694
 2606SOL    OH222536   0.698   4.174   0.178
 2606SOL     H122537   0.624   4.136   0.225
 2606SOL     H222538   0.663   4.197   0.092
 2607SOL    OH222539   3.951   3.411   1.240
 2607SOL     H122540   4.023   3.388   1.299
 2607SOL     H222541   3.948   3.338   1.177
 2608SOL    OH222542   5.836   4.790   0.025
 2608SOL     H122543   5.776   4.741   6.327
 2608SOL     H222544   5.806   4.881   0.019
 2609SOL    OH222545   4.656   5.538   0.745
 2609SOL     H122546   4.651   5.461   0.689
 2609SOL     H222547   4.566   5.550   0.778
 2610SOL    OH222548   4.277   4.542   6.122
 2610SOL     H122549   4.319   4.491   6.192
 2610SOL     H222550   4.216   4.600   6.168
 2611SOL    OH222551   1.214   5.931   0.208
 2611SOL     H122552   1.201   5.859   0.271
 2611SOL     H222553   1.202   5.890   0.123
 2612SOL    OH222554   3.210   4.327   0.663
 2612SOL     H122555   3.287   4.307   0.608
 2612SOL     H222556   3.218   4.420   0.682
 2613SOL    OH222557   5.869   2.378   5.237
 2613SOL     H122558   5.804   2.447   5.252
 2613SOL     H222559   5.851   2.347   5.148
 2614SOL    OH222560   4.349   3.564   0.753
 2614SOL     H122561   4.259   3.579   0.725
 2614SOL     H222562   4.398   3.638   0.717
 2615SOL    OH222563   1.584   4.635   5.583
 2615SOL     H122564   1.652   4.703   5.590
 2615SOL     H222565   1.541   4.635   5.668
 2616SOL    OH222566   1.171   4.972   0.886
 2616SOL     H122567   1.219   4.942   0.808
 2616SOL     H222568   1.090   4.921   0.886
 2617SOL    OH222569   0.698   3.867   0.325
 2617SOL     H122570   0.761   3.880   0.254
 2617SOL     H222571   0.637   3.941   0.317
 2618SOL    OH222572   5.258   3.520   5.782
 2618SOL     H122573   5.332   3.578   5.767
 2618SOL     H222574   5.186   3.578   5.806
 2619SOL    OH222575   6.070   1.111   4.823
 2619SOL     H122576   6.110   1.085   4.740
 2619SOL     H222577   6.131   1.080   4.890
 2620SOL    OH222578   0.022   0.928   1.086
 2620SOL     H122579   6.253   0.956   1.156
 2620SOL     H222580   0.066   1.009   1.059
 2621SOL    OH222581   3.489   5.313   5.776
 2621SOL     H122582   3.418   5.270   5.824
 2621SOL     H222583   3.558   5.326   5.840
 2622SOL    OH222584   1.364   3.563   5.597
 2622SOL     H122585   1.350   3.652   5.629
 2622SOL     H222586   1.405   3.574   5.512
 2623SOL    OH222587   3.101   5.486   0.174
 2623SOL     H122588   3.054   5.403   0.186
 2623SOL     H222589   3.153   5.496   0.254
 2624SOL    OH222590   5.674   4.815   0.358
 2624SOL     H122591   5.744   4.755   0.332
 2624SOL     H222592   5.701   4.900   0.326
 2625SOL    OH222593   5.841   2.009   1.535
 2625SOL     H122594   5.919   1.956   1.554
 2625SOL     H222595   5.768   1.947   1.538
 2626SOL    OH222596   5.411   0.744   0.992
 2626SOL     H122597   5.459   0.663   0.973
 2626SOL     H222598   5.479   0.811   0.993
 2627SOL    OH222599   1.717   2.002   5.050
 2627SOL     H122600   1.719   1.920   5.000
 2627SOL     H222601   1.693   2.068   4.985
 2628SOL    OH222602   5.413   1.148   0.180
 2628SOL     H122603   5.389   1.216   0.117
 2628SOL     H222604   5.351   1.159   0.252
 2629SOL    OH222605   0.423   2.352   0.175
 2629SOL     H122606   0.344   2.379   0.128
 2629SOL     H222607   0.407   2.376   0.266
 2630SOL    OH222608   6.131   2.149   0.648
 2630SOL     H122609   6.220   2.117   0.636
 2630SOL     H222610   6.075   2.081   0.609
 2631SOL    OH222611   3.395   0.708   5.488
 2631SOL     H122612   3.318   0.716   5.544
 2631SOL     H222613   3.413   0.614   5.486
 2632SOL    OH222614   2.347   2.100   6.261
 2632SOL     H122615   2.350   2.118   6.167
 2632SOL     H222616   2.381   2.179   6.302
 2633SOL    OH222617   4.601   1.333   6.211
 2633SOL     H122618   4.632   1.422   6.193
 2633SOL     H222619   4.653   1.304   6.286
 2634SOL    OH222620   1.594   6.009   0.963
 2634SOL     H122621   1.526   5.950   0.995
 2634SOL     H222622   1.600   6.078   1.028
 2635SOL    OH222623   1.721   3.369   5.880
 2635SOL     H122624   1.725   3.287   5.930
 2635SOL     H222625   1.629   3.378   5.856
 2636SOL    OH222626   6.277   0.684   0.959
 2636SOL     H122627   6.290   0.770   0.999
 2636SOL     H222628   6.277   0.623   1.033
 2637SOL    OH222629   3.143   0.328   0.705
 2637SOL     H122630   3.197   0.398   0.741
 2637SOL     H222631   3.157   0.333   0.610
 2638SOL    OH222632   3.148   5.970   1.850
 2638SOL     H122633   3.203   5.914   1.905
 2638SOL     H222634   3.204   5.994   1.776
 2639SOL    OH222635   5.678   3.204   0.727
 2639SOL     H122636   5.666   3.110   0.736
 2639SOL     H222637   5.618   3.243   0.791
 2640SOL    OH222638   2.316   0.099   1.709
 2640SOL     H122639   2.298   0.188   1.679
 2640SOL     H222640   2.411   0.097   1.723
 2641SOL    OH222641   3.379   2.591   2.084
 2641SOL     H122642   3.452   2.653   2.083
 2641SOL     H222643   3.417   2.510   2.119
 2642SOL    OH222644   5.493   0.261   1.134
 2642SOL     H122645   5.419   0.314   1.108
 2642SOL     H222646   5.454   0.186   1.179
 2643SOL    OH222647   6.162   3.156   5.663
 2643SOL     H122648   6.105   3.171   5.739
 2643SOL     H222649   6.225   3.228   5.666
 2644SOL    OH222650   5.631   2.848   4.891
 2644SOL     H122651   5.706   2.789   4.880
 2644SOL     H222652   5.670   2.935   4.899
 2645SOL    OH222653   0.169   5.601   0.119
 2645SOL     H122654   0.209   5.673   0.167
 2645SOL     H222655   0.121   5.552   0.186
 2646SOL    OH222656   6.210   4.076   0.349
 2646SOL     H122657   6.248   4.130   0.418
 2646SOL     H222658   6.267   3.999   0.345
 2647SOL    OH222659   0.523   1.402   5.997
 2647SOL     H122660   0.562   1.482   5.963
 2647SOL     H222661   0.467   1.432   6.069
 2648SOL    OH222662   3.791   3.338   5.334
 2648SOL     H122663   3.775   3.369   5.244
 2648SOL     H222664   3.706   3.308   5.364
 2649SOL    OH222665   4.453   2.828   1.764
 2649SOL     H122666   4.376   2.858   1.716
 2649SOL     H222667   4.491   2.760   1.708
 2650SOL    OH222668   4.925   0.753   0.018
 2650SOL     H122669   4.988   0.825   0.011
 2650SOL     H222670   4.921   0.718   6.286
 2651SOL    OH222671   1.858   1.906   0.553
 2651SOL     H122672   1.806   1.897   0.473
 2651SOL     H222673   1.795   1.932   0.620
 2652SOL    OH222674   2.917   2.072   5.788
 2652SOL     H122675   2.987   2.133   5.764
 2652SOL     H222676   2.923   2.002   5.722
 2653SOL    OH222677   3.542   1.298   0.060
 2653SOL     H122678   3.606   1.362   0.090
 2653SOL     H222679   3.551   1.299   6.322
 2654SOL    OH222680   5.728   4.213   0.675
 2654SOL     H122681   5.694   4.217   0.765
 2654SOL     H222682   5.821   4.193   0.687
 2655SOL    OH222683   0.624   4.519   0.384
 2655SOL     H122684   0.560   4.476   0.440
 2655SOL     H222685   0.628   4.609   0.416
 2656SOL    OH222686   0.499   3.357   1.094
 2656SOL     H122687   0.440   3.305   1.040
 2656SOL     H222688   0.472   3.447   1.079
 2657SOL    OH222689   2.026   1.012   0.712
 2657SOL     H122690   2.057   1.088   0.662
 2657SOL     H222691   1.985   1.050   0.790
 2658SOL    OH222692   3.375   3.989   1.810
 2658SOL     H122693   3.441   3.971   1.743
 2658SOL     H222694   3.425   4.003   1.891
 2659SOL    OH222695   1.353   5.265   0.468
 2659SOL     H122696   1.344   5.353   0.429
 2659SOL     H222697   1.263   5.240   0.491
 2660SOL    OH222698   2.761   2.067   6.278
 2660SOL     H122699   2.699   2.122   6.229
 2660SOL     H222700   2.824   2.038   6.212
 2661SOL    OH222701   5.808   4.787   5.601
 2661SOL     H122702   5.864   4.861   5.622
 2661SOL     H222703   5.838   4.716   5.658
 2662SOL    OH222704   0.968   5.380   4.572
 2662SOL     H122705   0.991   5.451   4.632
 2662SOL     H222706   1.040   5.376   4.510
 2663SOL    OH222707   1.950   4.473   0.169
 2663SOL     H122708   2.027   4.482   0.113
 2663SOL     H222709   1.956   4.546   0.231
 2664SOL    OH222710   1.292   1.288   5.004
 2664SOL     H122711   1.279   1.197   4.976
 2664SOL     H222712   1.262   1.289   5.095
 2665SOL    OH222713   1.572   1.284   0.577
 2665SOL     H122714   1.533   1.370   0.559
 2665SOL     H222715   1.636   1.300   0.646
 2666SOL    OH222716   4.286   6.247   0.262
 2666SOL     H122717   4.334   6.319   0.303
 2666SOL     H222718   4.232   6.290   0.195
 2667SOL    OH222719   2.819   5.004   2.285
 2667SOL     H122720   2.768   5.085   2.282
 2667SOL     H222721   2.781   4.948   2.217
 2668SOL    OH222722   0.021   3.373   0.495
 2668SOL     H122723   0.080   3.438   0.533
 2668SOL     H222724   0.076   3.324   0.434
 2669SOL    OH222725   6.082   1.892   4.236
 2669SOL     H122726   6.126   1.927   4.314
 2669SOL     H222727   6.016   1.958   4.214
 2670SOL    OH222728   5.482   6.317   0.725
 2670SOL     H122729   5.548   6.264   0.681
 2670SOL     H222730   5.492   6.297   0.818
 2671SOL    OH222731   2.546   5.973   5.424
 2671SOL     H122732   2.538   6.049   5.483
 2671SOL     H222733   2.506   6.002   5.342
 2672SOL    OH222734   4.559   6.200   5.012
 2672SOL     H122735   4.607   6.267   4.963
 2672SOL     H222736   4.625   6.133   5.030
 2673SOL    OH222737   5.504   4.459   5.607
 2673SOL     H122738   5.428   4.468   5.665
 2673SOL     H222739   5.495   4.531   5.545
 2674SOL    OH222740   4.552   2.943   0.643
 2674SOL     H122741   4.464   2.977   0.625
 2674SOL     H222742   4.569   2.968   0.733
 2675SOL    OH222743   3.744   1.389   0.864
 2675SOL     H122744   3.831   1.401   0.902
 2675SOL     H222745   3.759   1.332   0.788
 2676SOL    OH222746   3.502   4.145   0.155
 2676SOL     H122747   3.417   4.105   0.135
 2676SOL     H222748   3.493   4.236   0.128
 2677SOL    OH222749   2.903   3.007   5.405
 2677SOL     H122750   2.827   2.996   5.463
 2677SOL     H222751   2.901   2.931   5.347
 2678SOL    OH222752   5.317   2.043   5.286
 2678SOL     H122753   5.337   2.094   5.208
 2678SOL     H222754   5.402   2.031   5.328
 2679SOL    OH222755   3.091   2.607   5.123
 2679SOL     H122756   3.117   2.519   5.096
 2679SOL     H222757   3.133   2.665   5.060
 2680SOL    OH222758   4.762   3.425   0.957
 2680SOL     H122759   4.780   3.503   0.905
 2680SOL     H222760   4.666   3.419   0.959
 2681SOL    OH222761   3.409   0.059   1.132
 2681SOL     H122762   3.485   0.090   1.182
 2681SOL     H222763   3.446   6.327   1.070
 2682SOL    OH222764   2.340   5.702   4.900
 2682SOL     H122765   2.366   5.752   4.977
 2682SOL     H222766   2.300   5.766   4.842
 2683SOL    OH222767   2.699   2.565   5.204
 2683SOL     H122768   2.616   2.530   5.173
 2683SOL     H222769   2.693   2.559   5.299
 2684SOL    OH222770   2.645   4.151   6.182
 2684SOL     H122771   2.736   4.147   6.153
 2684SOL     H222772   2.608   4.225   6.135
 2685SOL    OH222773   1.140   3.495   5.930
 2685SOL     H122774   1.117   3.572   5.878
 2685SOL     H222775   1.107   3.513   6.018
 2686SOL    OH222776   0.944   4.832   0.820
 2686SOL     H122777   0.972   4.773   0.751
 2686SOL     H222778   0.900   4.775   0.884
 2687SOL    OH222779   0.155   5.680   0.768
 2687SOL     H122780   0.225   5.651   0.710
 2687SOL     H222781   0.076   5.674   0.715
 2688SOL    OH222782   1.008   4.302   6.065
 2688SOL     H122783   0.998   4.354   5.986
 2688SOL     H222784   1.004   4.365   6.136
 2689SOL    OH222785   2.146   4.033   5.732
 2689SOL     H122786   2.193   3.997   5.657
 2689SOL     H222787   2.142   3.961   5.795
 2690SOL    OH222788   1.873   5.639   0.692
 2690SOL     H122789   1.786   5.609   0.664
 2690SOL     H222790   1.883   5.725   0.651
 2691SOL    OH222791   5.235   3.924   5.702
 2691SOL     H122792   5.216   3.908   5.610
 2691SOL     H222793   5.331   3.926   5.707
 2692SOL    OH222794   0.435   3.258   0.182
 2692SOL     H122795   0.432   3.164   0.198
 2692SOL     H222796   0.504   3.269   0.116
 2693SOL    OH222797   5.852   2.917   0.968
 2693SOL     H122798   5.895   3.001   0.952
 2693SOL     H222799   5.852   2.908   1.063
 2694SOL    OH222800   4.953   4.310   0.380
 2694SOL     H122801   5.020   4.270   0.435
 2694SOL     H222802   4.986   4.301   0.291
 2695SOL    OH222803   2.308   3.671   5.765
 2695SOL     H122804   2.313   3.588   5.812
 2695SOL     H222805   2.289   3.647   5.675
 2696SOL    OH222806   5.364   5.721   1.068
 2696SOL     H122807   5.337   5.810   1.091
 2696SOL     H222808   5.283   5.670   1.073
 2697SOL    OH222809   3.874   3.085   5.155
 2697SOL     H122810   3.948   3.073   5.095
 2697SOL     H222811   3.909   3.063   5.241
 2698SOL    OH222812   0.276   3.656   5.813
 2698SOL     H122813   0.256   3.628   5.902
 2698SOL     H222814   0.190   3.669   5.772
 2699SOL    OH222815   4.273   0.507   6.258
 2699SOL     H122816   4.304   0.425   6.299
 2699SOL     H222817   4.268   0.569   6.331
 2700SOL    OH222818   6.110   5.854   4.885
 2700SOL     H122819   6.177   5.804   4.839
 2700SOL     H222820   6.036   5.856   4.824
 2701SOL    OH222821   0.079   5.317   0.712
 2701SOL     H122822   0.089   5.294   0.805
 2701SOL     H222823   0.169   5.321   0.679
 2702SOL    OH222824   2.035   1.084   6.323
 2702SOL     H122825   2.094   1.023   6.279
 2702SOL     H222826   2.073   1.096   0.053
 2703SOL    OH222827   3.440   5.904   0.715
 2703SOL     H122828   3.511   5.968   0.727
 2703SOL     H222829   3.401   5.895   0.802
 2704SOL    OH222830   5.698   5.240   5.459
 2704SOL     H122831   5.632   5.174   5.484
 2704SOL     H222832   5.649   5.303   5.407
 2705SOL    OH222833   4.628   3.999   1.217
 2705SOL     H122834   4.565   3.930   1.239
 2705SOL     H222835   4.595   4.037   1.136
 2706SOL    OH222836   4.048   2.644   6.024
 2706SOL     H122837   3.961   2.627   5.988
 2706SOL     H222838   4.094   2.692   5.955
 2707SOL    OH222839   1.405   0.871   6.104
 2707SOL     H122840   1.375   0.925   6.031
 2707SOL     H222841   1.325   0.835   6.142
 2708SOL    OH222842   3.607   3.785   0.366
 2708SOL     H122843   3.584   3.754   0.453
 2708SOL     H222844   3.525   3.782   0.317
 2709SOL    OH222845   1.139   3.152   0.305
 2709SOL     H122846   1.119   3.175   0.214
 2709SOL     H222847   1.054   3.152   0.349
 2710SOL    OH222848   1.464   2.157   1.378
 2710SOL     H122849   1.411   2.237   1.383
 2710SOL     H222850   1.496   2.144   1.467
 2711SOL    OH222851   2.171   5.912   1.792
 2711SOL     H122852   2.251   5.881   1.835
 2711SOL     H222853   2.190   6.003   1.768
 2712SOL    OH222854   3.279   3.382   0.548
 2712SOL     H122855   3.307   3.440   0.477
 2712SOL     H222856   3.360   3.351   0.588
 2713SOL    OH222857   6.003   2.234   1.207
 2713SOL     H122858   6.076   2.259   1.264
 2713SOL     H222859   5.983   2.314   1.158
 2714SOL    OH222860   4.207   1.706   4.983
 2714SOL     H122861   4.146   1.776   5.007
 2714SOL     H222862   4.152   1.641   4.939
 2715SOL    OH222863   5.403   3.265   5.067
 2715SOL     H122864   5.355   3.303   4.993
 2715SOL     H222865   5.495   3.277   5.045
 2716SOL    OH222866   0.744   4.470   1.150
 2716SOL     H122867   0.816   4.429   1.198
 2716SOL     H222868   0.665   4.440   1.194
 2717SOL    OH222869   0.054   0.470   5.978
 2717SOL     H122870   6.272   0.468   6.039
 2717SOL     H222871   0.097   0.554   5.994
 2718SOL    OH222872   3.271   5.161   5.861
 2718SOL     H122873   3.203   5.102   5.829
 2718SOL     H222874   3.322   5.108   5.922
 2719SOL    OH222875   2.549   3.559   1.028
 2719SOL     H122876   2.600   3.635   1.002
 2719SOL     H222877   2.614   3.493   1.053
 2720SOL    OH222878   3.988   4.543   1.140
 2720SOL     H122879   3.937   4.623   1.155
 2720SOL     H222880   4.036   4.560   1.059
 2721SOL    OH222881   0.768   0.498   6.011
 2721SOL     H122882   0.711   0.511   6.086
 2721SOL     H222883   0.852   0.473   6.049
 2722SOL    OH222884   0.529   5.133   0.237
 2722SOL     H122885   0.457   5.135   0.174
 2722SOL     H222886   0.562   5.223   0.240
 2723SOL    OH222887   4.312   3.395   1.541
 2723SOL     H122888   4.384   3.387   1.603
 2723SOL     H222889   4.333   3.473   1.489
 2724SOL    OH222890   5.463   4.874   0.036
 2724SOL     H122891   5.397   4.879   6.324
 2724SOL     H222892   5.538   4.923   0.002
 2725SOL    OH222893   1.383   4.235   5.299
 2725SOL     H122894   1.367   4.174   5.228
 2725SOL     H222895   1.353   4.320   5.266
 2726SOL    OH222896   2.405   5.531   0.418
 2726SOL     H122897   2.327   5.489   0.455
 2726SOL     H222898   2.446   5.575   0.492
 2727SOL    OH222899   0.351   2.533   1.731
 2727SOL     H122900   0.398   2.499   1.656
 2727SOL     H222901   0.384   2.623   1.742
 2728SOL    OH222902   1.203   5.370   5.104
 2728SOL     H122903   1.196   5.298   5.167
 2728SOL     H222904   1.283   5.416   5.130
 2729SOL    OH222905   5.970   3.403   0.909
 2729SOL     H122906   5.971   3.314   0.943
 2729SOL     H222907   6.025   3.400   0.831
 2730SOL    OH222908   4.502   5.427   1.284
 2730SOL     H122909   4.443   5.352   1.290
 2730SOL     H222910   4.445   5.503   1.297
 2731SOL    OH222911   4.518   3.997   5.273
 2731SOL     H122912   4.467   3.930   5.228
 2731SOL     H222913   4.507   4.076   5.220
 2732SOL    OH222914   1.301   3.529   0.115
 2732SOL     H122915   1.376   3.587   0.104
 2732SOL     H222916   1.300   3.474   0.037
 2733SOL    OH222917   2.200   1.841   1.602
 2733SOL     H122918   2.132   1.819   1.666
 2733SOL     H222919   2.247   1.758   1.589
 2734SOL    OH222920   3.551   1.527   0.448
 2734SOL     H122921   3.545   1.525   0.543
 2734SOL     H222922   3.569   1.436   0.422
 2735SOL    OH222923   0.201   3.273   1.630
 2735SOL     H122924   0.250   3.216   1.570
 2735SOL     H222925   0.262   3.344   1.649
 2736SOL    OH222926   4.328   1.891   0.963
 2736SOL     H122927   4.330   1.863   1.054
 2736SOL     H222928   4.334   1.986   0.967
 2737SOL    OH222929   5.082   0.693   5.608
 2737SOL     H122930   5.137   0.740   5.670
 2737SOL     H222931   5.042   0.623   5.659
 2738SOL    OH222932   5.510   2.697   5.089
 2738SOL     H122933   5.476   2.757   5.156
 2738SOL     H222934   5.547   2.755   5.022
 2739SOL    OH222935   5.689   0.083   6.180
 2739SOL     H122936   5.626   0.155   6.182
 2739SOL     H222937   5.638   0.005   6.202
 2740SOL    OH222938   2.676   0.122   0.602
 2740SOL     H122939   2.631   0.174   0.535
 2740SOL     H222940   2.741   0.183   0.639
 2741SOL    OH222941   5.533   0.255   5.944
 2741SOL     H122942   5.569   0.228   5.860
 2741SOL     H222943   5.443   0.221   5.944
 2742SOL    OH222944   5.693   3.872   1.317
 2742SOL     H122945   5.669   3.959   1.286
 2742SOL     H222946   5.760   3.842   1.256
 2743SOL    OH222947   4.813   1.795   6.010
 2743SOL     H122948   4.795   1.779   5.917
 2743SOL     H222949   4.874   1.869   6.010
 2744SOL    OH222950   0.766   6.045   5.502
 2744SOL     H122951   0.710   5.967   5.508
 2744SOL     H222952   0.854   6.013   5.523
 2745SOL    OH222953   3.582   0.474   0.038
 2745SOL     H122954   3.658   0.431   6.356
 2745SOL     H222955   3.616   0.516   0.117
 2746SOL    OH222956   5.944   2.072   5.002
 2746SOL     H122957   5.932   1.994   4.947
 2746SOL     H222958   5.977   2.038   5.085
 2747SOL    OH222959   6.116   1.707   0.786
 2747SOL     H122960   6.167   1.673   0.860
 2747SOL     H222961   6.182   1.742   0.726
 2748SOL    OH222962   1.833   2.188   0.795
 2748SOL     H122963   1.784   2.105   0.788
 2748SOL     H222964   1.870   2.201   0.707
 2749SOL    OH222965   1.743   3.140   6.046
 2749SOL     H122966   1.786   3.149   6.131
 2749SOL     H222967   1.784   3.063   6.007
 2750SOL    OH222968   2.862   5.748   2.124
 2750SOL     H122969   2.779   5.728   2.167
 2750SOL     H222970   2.928   5.705   2.178
 2751SOL    OH222971   2.713   5.162   1.427
 2751SOL     H122972   2.676   5.198   1.507
 2751SOL     H222973   2.636   5.147   1.371
 2752SOL    OH222974   5.292   4.355   5.081
 2752SOL     H122975   5.299   4.260   5.073
 2752SOL     H222976   5.247   4.382   5.001
 2753SOL    OH222977   4.966   4.009   0.226
 2753SOL     H122978   5.027   3.962   0.284
 2753SOL     H222979   5.016   4.085   0.197
 2754SOL    OH222980   0.430   3.331   1.367
 2754SOL     H122981   0.413   3.245   1.407
 2754SOL     H222982   0.466   3.311   1.281
 2755SOL    OH222983   2.913   3.147   1.089
 2755SOL     H122984   2.834   3.107   1.124
 2755SOL     H222985   2.973   3.151   1.163
 2756SOL    OH222986   3.834   2.074   4.945
 2756SOL     H122987   3.848   2.167   4.925
 2756SOL     H222988   3.807   2.036   4.861
 2757SOL    OH222989   2.449   0.526   1.280
 2757SOL     H122990   2.411   0.529   1.368
 2757SOL     H222991   2.529   0.579   1.287
 2758SOL    OH222992   2.701   6.028   0.161
 2758SOL     H122993   2.738   5.971   0.093
 2758SOL     H222994   2.691   6.113   0.118
 2759SOL    OH222995   1.436   0.286   5.816
 2759SOL     H122996   1.443   0.351   5.885
 2759SOL     H222997   1.522   0.243   5.814
 2760SOL    OH222998   5.838   6.291   1.113
 2760SOL     H122999   5.871   0.044   1.145
 2760SOL     H223000   5.760   6.275   1.165
 2761SOL    OH223001   0.648   2.043   1.265
 2761SOL     H123002   0.645   2.117   1.325
 2761SOL     H223003   0.621   1.968   1.318
 2762SOL    OH223004   1.712   3.318   0.039
 2762SOL     H123005   1.774   3.257   6.357
 2762SOL     H223006   1.681   3.274   0.118
 2763SOL    OH223007   3.146   1.027   0.574
 2763SOL     H123008   3.135   0.933   0.555
 2763SOL     H223009   3.130   1.070   0.490
 2764SOL    OH223010   5.096   0.075   5.493
 2764SOL     H123011   5.163   0.032   5.439
 2764SOL     H223012   5.017   0.074   5.439
 2765SOL    OH223013   4.845   3.024   1.122
 2765SOL     H123014   4.846   2.930   1.143
 2765SOL     H223015   4.756   3.052   1.142
 2766SOL    OH223016   5.106   3.866   0.650
 2766SOL     H123017   5.053   3.876   0.729
 2766SOL     H223018   5.190   3.833   0.681
 2767SOL    OH223019   2.613   3.272   1.292
 2767SOL     H123020   2.670   3.328   1.239
 2767SOL     H223021   2.641   3.183   1.272
 2768SOL    OH223022   1.115   3.885   5.105
 2768SOL     H123023   1.083   3.805   5.064
 2768SOL     H223024   1.125   3.863   5.197
 2769SOL    OH223025   2.116   4.678   0.892
 2769SOL     H123026   2.094   4.726   0.812
 2769SOL     H223027   2.047   4.613   0.901
 2770SOL    OH223028   4.790   2.536   5.854
 2770SOL     H123029   4.835   2.580   5.782
 2770SOL     H223030   4.794   2.443   5.832
 2771SOL    OH223031   4.102   3.878   1.020
 2771SOL     H123032   4.113   3.928   0.939
 2771SOL     H223033   4.029   3.819   1.001
 2772SOL    OH223034   2.040   4.813   0.654
 2772SOL     H123035   1.945   4.802   0.659
 2772SOL     H223036   2.052   4.893   0.603
 2773SOL    OH223037   5.628   4.387   0.476
 2773SOL     H123038   5.600   4.472   0.511
 2773SOL     H223039   5.666   4.342   0.551
 2774SOL    OH223040   2.131   0.149   1.471
 2774SOL     H123041   2.179   0.212   1.525
 2774SOL     H223042   2.124   0.071   1.525
 2775SOL    OH223043   2.996   4.184   1.366
 2775SOL     H123044   3.010   4.147   1.453
 2775SOL     H223045   3.080   4.222   1.342
 2776SOL    OH223046   0.045   0.747   5.404
 2776SOL     H123047   0.045   0.700   5.488
 2776SOL     H223048   0.130   0.724   5.365
 2777SOL    OH223049   0.248   5.136   0.460
 2777SOL     H123050   0.275   5.177   0.543
 2777SOL     H223051   0.304   5.059   0.452
 2778SOL    OH223052   2.987   1.961   5.133
 2778SOL     H123053   3.021   1.957   5.043
 2778SOL     H223054   2.904   1.913   5.130
 2779SOL    OH223055   3.129   0.597   1.058
 2779SOL     H123056   3.072   0.582   0.982
 2779SOL     H223057   3.146   0.509   1.092
 2780SOL    OH223058   6.181   3.490   5.889
 2780SOL     H123059   6.212   3.559   5.949
 2780SOL     H223060   6.087   3.484   5.907
 2781SOL    OH223061   1.526   1.828   6.122
 2781SOL     H123062   1.574   1.745   6.125
 2781SOL     H223063   1.523   1.857   6.214
 2782SOL    OH223064   2.824   2.192   0.166
 2782SOL     H123065   2.856   2.118   0.218
 2782SOL     H223066   2.802   2.153   0.081
 2783SOL    OH223067   4.408   6.007   4.895
 2783SOL     H123068   4.454   6.082   4.934
 2783SOL     H223069   4.470   5.973   4.830
 2784SOL    OH223070   3.810   4.855   0.919
 2784SOL     H123071   3.896   4.859   0.878
 2784SOL     H223072   3.827   4.826   1.009
 2785SOL    OH223073   0.671   2.429   4.452
 2785SOL     H123074   0.738   2.360   4.449
 2785SOL     H223075   0.695   2.488   4.380
 2786SOL    OH223076   0.403   5.662   0.980
 2786SOL     H123077   0.417   5.742   1.031
 2786SOL     H223078   0.315   5.634   1.005
 2787SOL    OH223079   6.182   1.308   5.850
 2787SOL     H123080   6.157   1.279   5.762
 2787SOL     H223081   6.255   1.252   5.875
 2788SOL    OH223082   3.185   4.775   0.522
 2788SOL     H123083   3.262   4.762   0.467
 2788SOL     H223084   3.185   4.869   0.542
 2789SOL    OH223085   6.054   0.555   4.563
 2789SOL     H123086   6.048   0.597   4.477
 2789SOL     H223087   6.076   0.464   4.544
 2790SOL    OH223088   1.921   1.144   0.930
 2790SOL     H123089   1.894   1.085   0.999
 2790SOL     H223090   1.970   1.213   0.975
 2791SOL    OH223091   4.059   2.171   4.382
 2791SOL     H123092   4.021   2.257   4.366
 2791SOL     H223093   4.123   2.159   4.312
 2792SOL    OH223094   1.076   5.248   0.517
 2792SOL     H123095   1.071   5.247   0.612
 2792SOL     H223096   1.037   5.164   0.490
 2793SOL    OH223097   4.975   1.576   5.369
 2793SOL     H123098   4.944   1.520   5.298
 2793SOL     H223099   5.010   1.515   5.434
 2794SOL    OH223100   2.917   2.965   5.897
 2794SOL     H123101   2.915   3.048   5.849
 2794SOL     H223102   3.006   2.958   5.931
 2795SOL    OH223103   1.316   5.172   4.260
 2795SOL     H123104   1.393   5.209   4.217
 2795SOL     H223105   1.342   5.084   4.286
 2796SOL    OH223106   4.677   0.050   4.841
 2796SOL     H123107   4.613   0.010   4.782
 2796SOL     H223108   4.651   0.142   4.846
 2797SOL    OH223109   6.018   2.498   6.195
 2797SOL     H123110   5.950   2.540   6.248
 2797SOL     H223111   6.070   2.570   6.159
 2798SOL    OH223112   1.420   5.565   5.502
 2798SOL     H123113   1.504   5.551   5.459
 2798SOL     H223114   1.384   5.477   5.513
 2799SOL    OH223115   3.066   2.525   5.646
 2799SOL     H123116   3.047   2.619   5.656
 2799SOL     H223117   3.098   2.516   5.556
 2800SOL    OH223118   1.034   2.299   0.198
 2800SOL     H123119   1.027   2.218   0.148
 2800SOL     H223120   1.042   2.367   0.131
 2801SOL    OH223121   1.597   4.448   5.007
 2801SOL     H123122   1.594   4.353   4.999
 2801SOL     H223123   1.675   4.474   4.957
 2802SOL    OH223124   0.349   5.327   0.652
 2802SOL     H123125   0.433   5.283   0.655
 2802SOL     H223126   0.369   5.419   0.670
 2803SOL    OH223127   5.060   0.998   6.354
 2803SOL     H123128   4.968   1.015   6.330
 2803SOL     H223129   5.095   1.084   0.018
 2804SOL    OH223130   4.192   4.671   5.062
 2804SOL     H123131   4.204   4.758   5.023
 2804SOL     H223132   4.160   4.689   5.150
 2805SOL    OH223133   3.180   3.369   0.034
 2805SOL     H123134   3.257   3.323   0.067
 2805SOL     H223135   3.106   3.327   0.079
 2806SOL    OH223136   3.854   5.159   0.252
 2806SOL     H123137   3.824   5.093   0.315
 2806SOL     H223138   3.903   5.109   0.186
 2807SOL    OH223139   3.647   5.609   5.385
 2807SOL     H123140   3.663   5.517   5.403
 2807SOL     H223141   3.640   5.615   5.290
 2808SOL    OH223142   2.105   1.238   0.577
 2808SOL     H123143   2.068   1.248   0.489
 2808SOL     H223144   2.085   1.320   0.621
 2809SOL    OH223145   1.645   6.010   6.009
 2809SOL     H123146   1.641   6.047   5.921
 2809SOL     H223147   1.735   5.979   6.018
 2810SOL    OH223148   3.809   4.952   0.427
 2810SOL     H123149   3.827   4.867   0.385
 2810SOL     H223150   3.719   4.944   0.458
 2811SOL    OH223151   2.350   4.468   0.598
 2811SOL     H123152   2.392   4.460   0.512
 2811SOL     H223153   2.418   4.444   0.661
 2812SOL    OH223154   0.014   4.714   5.516
 2812SOL     H123155   6.289   4.802   5.549
 2812SOL     H223156   6.269   4.656   5.583
 2813SOL    OH223157   1.506   5.563   1.669
 2813SOL     H123158   1.590   5.571   1.624
 2813SOL     H223159   1.490   5.469   1.673
 2814SOL    OH223160   2.525   5.363   6.326
 2814SOL     H123161   2.459   5.310   6.283
 2814SOL     H223162   2.531   5.327   0.057
 2815SOL    OH223163   4.436   1.608   5.101
 2815SOL     H123164   4.473   1.687   5.140
 2815SOL     H223165   4.353   1.636   5.062
 2816SOL    OH223166   0.534   0.200   6.260
 2816SOL     H123167   0.469   0.244   6.206
 2816SOL     H223168   0.506   0.109   6.263
 2817SOL    OH223169   4.149   1.402   0.327
 2817SOL     H123170   4.178   1.369   0.242
 2817SOL     H223171   4.188   1.342   0.391
 2818SOL    OH223172   2.900   5.357   5.266
 2818SOL     H123173   2.950   5.292   5.217
 2818SOL     H223174   2.838   5.392   5.202
 2819SOL    OH223175   0.696   1.644   4.864
 2819SOL     H123176   0.636   1.588   4.913
 2819SOL     H223177   0.778   1.640   4.914
 2820SOL    OH223178   1.423   2.862   0.501
 2820SOL     H123179   1.411   2.910   0.419
 2820SOL     H223180   1.402   2.771   0.479
 2821SOL    OH223181   2.925   3.643   0.407
 2821SOL     H123182   2.918   3.581   0.335
 2821SOL     H223183   2.834   3.662   0.432
 2822SOL    OH223184   0.507   0.466   5.753
 2822SOL     H123185   0.558   0.386   5.748
 2822SOL     H223186   0.573   0.536   5.763
 2823SOL    OH223187   3.157   5.150   5.498
 2823SOL     H123188   3.080   5.171   5.552
 2823SOL     H223189   3.120   5.107   5.421
 2824SOL    OH223190   3.247   5.646   6.133
 2824SOL     H123191   3.297   5.668   6.212
 2824SOL     H223192   3.314   5.620   6.069
 2825SOL    OH223193   0.621   4.157   0.965
 2825SOL     H123194   0.552   4.122   1.020
 2825SOL     H223195   0.668   4.080   0.933
 2826SOL    OH223196   3.651   6.070   0.768
 2826SOL     H123197   3.668   6.148   0.715
 2826SOL     H223198   3.730   6.017   0.758
 2827SOL    OH223199   5.299   2.006   0.945
 2827SOL     H123200   5.340   1.935   0.896
 2827SOL     H223201   5.252   1.963   1.016
 2828SOL    OH223202   1.981   0.012   1.154
 2828SOL     H123203   1.989   6.251   1.181
 2828SOL     H223204   1.901   0.015   1.102
 2829SOL    OH223205   0.057   3.340   1.063
 2829SOL     H123206   0.094   3.401   0.999
 2829SOL     H223207   6.275   3.388   1.102
 2830SOL    OH223208   3.840   2.762   5.094
 2830SOL     H123209   3.912   2.740   5.154
 2830SOL     H223210   3.834   2.688   5.034
 2831SOL    OH223211   1.792   5.070   5.776
 2831SOL     H123212   1.726   5.107   5.835
 2831SOL     H223213   1.857   5.140   5.766
 2832SOL    OH223214   6.034   6.014   5.791
 2832SOL     H123215   6.062   5.923   5.782
 2832SOL     H223216   6.114   6.065   5.780
 2833SOL    OH223217   5.064   3.464   0.295
 2833SOL     H123218   5.072   3.449   0.389
 2833SOL     H223219   5.124   3.536   0.277
 2834SOL    OH223220   0.594   0.235   0.173
 2834SOL     H123221   0.584   0.324   0.208
 2834SOL     H223222   0.568   0.242   0.081
 2835SOL    OH223223   3.099   4.511   1.353
 2835SOL     H123224   3.149   4.435   1.322
 2835SOL     H223225   3.139   4.586   1.309
 2836SOL    OH223226   0.965   3.680   5.505
 2836SOL     H123227   0.927   3.672   5.417
 2836SOL     H223228   1.008   3.595   5.520
 2837SOL    OH223229   4.253   5.088   5.563
 2837SOL     H123230   4.309   5.011   5.556
 2837SOL     H223231   4.310   5.162   5.543
 2838SOL    OH223232   0.550   2.691   5.569
 2838SOL     H123233   0.465   2.652   5.548
 2838SOL     H223234   0.607   2.616   5.585
 2839SOL    OH223235   1.023   0.701   5.866
 2839SOL     H123236   0.973   0.728   5.943
 2839SOL     H223237   1.023   0.605   5.870
 2840SOL    OH223238   0.603   2.149   0.207
 2840SOL     H123239   0.575   2.078   0.149
 2840SOL     H223240   0.536   2.216   0.198
 2841SOL    OH223241   2.006   5.893   5.772
 2841SOL     H123242   2.075   5.945   5.730
 2841SOL     H223243   1.982   5.827   5.707
 2842SOL    OH223244   1.035   0.970   5.805
 2842SOL     H123245   0.971   0.976   5.735
 2842SOL     H223246   1.032   0.879   5.833
 2843SOL    OH223247   1.637   5.069   0.755
 2843SOL     H123248   1.625   5.105   0.667
 2843SOL     H223249   1.644   4.975   0.742
 2844SOL    OH223250   1.266   4.302   1.106
 2844SOL     H123251   1.235   4.215   1.132
 2844SOL     H223252   1.257   4.354   1.186
 2845SOL    OH223253   2.563   0.980   5.738
 2845SOL     H123254   2.652   0.947   5.729
 2845SOL     H223255   2.511   0.904   5.764
 2846SOL    OH223256   5.507   0.051   0.284
 2846SOL     H123257   5.491   0.138   0.246
 2846SOL     H223258   5.594   0.027   0.252
 2847SOL    OH223259   0.464   0.862   0.218
 2847SOL     H123260   0.451   0.841   0.311
 2847SOL     H223261   0.375   0.870   0.183
 2848SOL    OH223262   3.804   0.147   6.082
 2848SOL     H123263   3.841   0.078   6.136
 2848SOL     H223264   3.863   0.153   6.007
 2849SOL    OH223265   1.047   0.165   0.927
 2849SOL     H123266   1.108   0.226   0.886
 2849SOL     H223267   0.961   0.194   0.899
 2850SOL    OH223268   3.116   0.780   0.449
 2850SOL     H123269   3.199   0.733   0.454
 2850SOL     H223270   3.096   0.785   0.355
 2851SOL    OH223271   4.669   1.430   0.733
 2851SOL     H123272   4.594   1.378   0.761
 2851SOL     H223273   4.742   1.396   0.784
 2852SOL    OH223274   2.445   0.223   6.320
 2852SOL     H123275   2.467   0.194   0.051
 2852SOL     H223276   2.466   0.316   6.319
 2853SOL    OH223277   2.446   0.442   0.218
 2853SOL     H123278   2.353   0.464   0.223
 2853SOL     H223279   2.474   0.472   0.132
 2854SOL    OH223280   3.653   4.124   0.556
 2854SOL     H123281   3.599   4.054   0.595
 2854SOL     H223282   3.671   4.094   0.467
 2855SOL    OH223283   1.286   0.087   6.173
 2855SOL     H123284   1.381   0.087   6.160
 2855SOL     H223285   1.269   0.004   6.217
 2856SOL    OH223286   4.313   0.727   1.001
 2856SOL     H123287   4.401   0.758   1.020
 2856SOL     H223288   4.284   0.777   0.925
 2857SOL    OH223289   5.656   1.689   5.853
 2857SOL     H123290   5.635   1.734   5.935
 2857SOL     H223291   5.645   1.756   5.785
 2858SOL    OH223292   4.995   4.264   6.241
 2858SOL     H123293   4.908   4.285   6.274
 2858SOL     H223294   4.979   4.211   6.163
 2859SOL    OH223295   4.860   1.665   0.142
 2859SOL     H123296   4.825   1.744   0.099
 2859SOL     H223297   4.784   1.608   0.154
 2860SOL    OH223298   2.528   6.187   5.604
 2860SOL     H123299   2.526   6.194   5.699
 2860SOL     H223300   2.466   6.254   5.574
 2861SOL    OH223301   5.186   5.276   0.807
 2861SOL     H123302   5.196   5.277   0.902
 2861SOL     H223303   5.184   5.369   0.782
 2862SOL    OH223304   6.021   0.904   5.137
 2862SOL     H123305   6.032   0.864   5.224
 2862SOL     H223306   5.951   0.853   5.096
 2863SOL    OH223307   1.150   4.370   4.523
 2863SOL     H123308   1.140   4.457   4.483
 2863SOL     H223309   1.064   4.353   4.563
 2864SOL    OH223310   0.796   2.732   0.237
 2864SOL     H123311   0.806   2.692   0.151
 2864SOL     H223312   0.742   2.810   0.221
 2865SOL    OH223313   3.523   2.999   6.116
 2865SOL     H123314   3.459   3.002   6.187
 2865SOL     H223315   3.590   2.938   6.148
 2866SOL    OH223316   3.673   1.608   5.600
 2866SOL     H123317   3.767   1.602   5.582
 2866SOL     H223318   3.665   1.586   5.693
 2867SOL    OH223319   2.511   0.976   0.717
 2867SOL     H123320   2.468   1.047   0.669
 2867SOL     H223321   2.535   1.016   0.801
 2868SOL    OH223322   6.003   1.010   0.272
 2868SOL     H123323   5.935   1.063   0.313
 2868SOL     H223324   6.078   1.069   0.264
 2869SOL    OH223325   3.219   1.260   1.127
 2869SOL     H123326   3.290   1.315   1.092
 2869SOL     H223327   3.236   1.255   1.221
 2870SOL    OH223328   6.119   0.686   1.340
 2870SOL     H123329   6.035   0.662   1.301
 2870SOL     H223330   6.096   0.729   1.423
 2871SOL    OH223331   1.852   6.123   5.218
 2871SOL     H123332   1.823   6.193   5.276
 2871SOL     H223333   1.876   6.167   5.136
 2872SOL    OH223334   1.253   5.403   0.821
 2872SOL     H123335   1.333   5.353   0.837
 2872SOL     H223336   1.185   5.337   0.811
 2873SOL    OH223337   0.137   5.141   6.212
 2873SOL     H123338   0.090   5.202   6.156
 2873SOL     H223339   0.073   5.117   6.280
 2874SOL    OH223340   0.301   0.682   5.335
 2874SOL     H123341   0.358   0.636   5.274
 2874SOL     H223342   0.335   0.658   5.422
 2875SOL    OH223343   6.119   3.894   5.379
 2875SOL     H123344   6.120   3.888   5.475
 2875SOL     H223345   6.110   3.988   5.361
 2876SOL    OH223346   4.398   5.617   1.777
 2876SOL     H123347   4.456   5.594   1.704
 2876SOL     H223348   4.428   5.703   1.805
 2877SOL    OH223349   1.843   2.049   6.178
 2877SOL     H123350   1.925   2.098   6.178
 2877SOL     H223351   1.863   1.969   6.227
 2878SOL    OH223352   1.802   4.101   1.896
 2878SOL     H123353   1.837   4.187   1.920
 2878SOL     H223354   1.876   4.055   1.857
 2879SOL    OH223355   2.937   3.487   1.491
 2879SOL     H123356   3.006   3.421   1.485
 2879SOL     H223357   2.898   3.473   1.577
 2880SOL    OH223358   5.232   1.137   0.391
 2880SOL     H123359   5.233   1.141   0.487
 2880SOL     H223360   5.206   1.048   0.371
 2881SOL    OH223361   5.971   1.461   4.974
 2881SOL     H123362   6.063   1.435   4.967
 2881SOL     H223363   5.923   1.378   4.973
 2882SOL    OH223364   4.464   0.976   5.665
 2882SOL     H123365   4.477   1.009   5.576
 2882SOL     H223366   4.384   1.019   5.695
 2883SOL    OH223367   4.147   0.629   5.224
 2883SOL     H123368   4.226   0.623   5.278
 2883SOL     H223369   4.162   0.565   5.154
 2884SOL    OH223370   5.877   6.199   4.418
 2884SOL     H123371   5.818   6.219   4.346
 2884SOL     H223372   5.934   6.276   4.425
 2885SOL    OH223373   2.968   0.319   5.935
 2885SOL     H123374   2.891   0.315   5.878
 2885SOL     H223375   3.029   0.378   5.890
 2886SOL    OH223376   4.248   6.282   0.678
 2886SOL     H123377   4.246   0.022   0.743
 2886SOL     H223378   4.341   6.266   0.663
 2887SOL    OH223379   1.080   1.127   1.306
 2887SOL     H123380   1.107   1.189   1.375
 2887SOL     H223381   1.028   1.180   1.246
 2888SOL    OH223382   3.212   5.985   0.579
 2888SOL     H123383   3.282   5.942   0.628
 2888SOL     H223384   3.238   5.976   0.487
 2889SOL    OH223385   1.870   1.734   5.177
 2889SOL     H123386   1.875   1.806   5.239
 2889SOL     H223387   1.840   1.659   5.229
 2890SOL    OH223388   4.419   5.950   5.930
 2890SOL     H123389   4.375   5.888   5.871
 2890SOL     H223390   4.409   6.034   5.886
 2891SOL    OH223391   0.668   1.983   5.105
 2891SOL     H123392   0.577   2.009   5.124
 2891SOL     H223393   0.669   1.888   5.120
 2892SOL    OH223394   2.152   5.046   5.744
 2892SOL     H123395   2.141   4.959   5.706
 2892SOL     H223396   2.122   5.036   5.835
 2893SOL    OH223397   0.194   3.558   0.613
 2893SOL     H123398   0.285   3.568   0.583
 2893SOL     H223399   0.203   3.529   0.704
 2894SOL    OH223400   4.923   6.092   0.446
 2894SOL     H123401   5.006   6.082   0.399
 2894SOL     H223402   4.857   6.095   0.377
 2895SOL    OH223403   0.072   5.573   1.781
 2895SOL     H123404   0.048   5.654   1.736
 2895SOL     H223405   0.006   5.564   1.850
 2896SOL    OH223406   4.278   4.124   0.238
 2896SOL     H123407   4.345   4.064   0.204
 2896SOL     H223408   4.311   4.152   0.323
 2897SOL    OH223409   5.803   0.543   0.709
 2897SOL     H123410   5.861   0.474   0.740
 2897SOL     H223411   5.736   0.551   0.777
 2898SOL    OH223412   3.634   3.426   1.055
 2898SOL     H123413   3.586   3.376   1.121
 2898SOL     H223414   3.707   3.370   1.030
 2899SOL    OH223415   0.115   6.111   0.606
 2899SOL     H123416   0.199   6.147   0.581
 2899SOL     H223417   0.114   6.116   0.702
 2900SOL    OH223418   3.079   3.147   1.305
 2900SOL     H123419   3.088   3.061   1.347
 2900SOL     H223420   3.092   3.210   1.376
 2901SOL    OH223421   0.409   1.728   1.235
 2901SOL     H123422   0.435   1.636   1.225
 2901SOL     H223423   0.470   1.763   1.299
 2902SOL    OH223424   1.643   3.417   5.198
 2902SOL     H123425   1.637   3.357   5.272
 2902SOL     H223426   1.728   3.398   5.158
 2903SOL    OH223427   6.091   1.999   1.097
 2903SOL     H123428   6.053   2.071   1.147
 2903SOL     H223429   6.036   1.923   1.118
 2904SOL    OH223430   3.492   1.210   0.943
 2904SOL     H123431   3.468   1.148   1.012
 2904SOL     H223432   3.508   1.292   0.989
 2905SOL    OH223433   1.999   5.948   0.986
 2905SOL     H123434   2.084   5.953   0.941
 2905SOL     H223435   1.935   5.974   0.920
 2906SOL    OH223436   5.990   3.530   6.250
 2906SOL     H123437   5.910   3.544   6.301
 2906SOL     H223438   6.054   3.589   6.290
 2907SOL    OH223439   0.843   3.899   0.088
 2907SOL     H123440   0.892   3.870   0.011
 2907SOL     H223441   0.898   3.967   0.127
 2908SOL    OH223442   5.475   1.383   0.510
 2908SOL     H123443   5.453   1.408   0.600
 2908SOL     H223444   5.540   1.447   0.482
 2909SOL    OH223445   0.802   2.548   4.664
 2909SOL     H123446   0.873   2.485   4.676
 2909SOL     H223447   0.749   2.512   4.593
 2910SOL    OH223448   1.313   5.590   4.643
 2910SOL     H123449   1.386   5.626   4.694
 2910SOL     H223450   1.235   5.617   4.690
 2911SOL    OH223451   4.063   5.618   5.663
 2911SOL     H123452   3.975   5.612   5.699
 2911SOL     H223453   4.062   5.564   5.585
 2912SOL    OH223454   0.266   1.914   6.043
 2912SOL     H123455   0.343   1.857   6.048
 2912SOL     H223456   0.259   1.937   5.951
 2913SOL    OH223457   0.924   6.009   0.511
 2913SOL     H123458   0.920   5.932   0.454
 2913SOL     H223459   0.977   6.072   0.462
 2914SOL    OH223460   5.498   3.492   5.433
 2914SOL     H123461   5.468   3.581   5.420
 2914SOL     H223462   5.552   3.496   5.512
 2915SOL    OH223463   2.913   1.678   6.318
 2915SOL     H123464   2.859   1.647   6.245
 2915SOL     H223465   2.854   1.734   0.012
 2916SOL    OH223466   0.690   3.037   1.884
 2916SOL     H123467   0.636   3.055   1.807
 2916SOL     H223468   0.743   3.117   1.895
 2917SOL    OH223469   5.819   1.178   4.622
 2917SOL     H123470   5.807   1.198   4.529
 2917SOL     H223471   5.879   1.104   4.623
 2918SOL    OH223472   2.491   6.048   0.567
 2918SOL     H123473   2.475   5.978   0.630
 2918SOL     H223474   2.543   6.112   0.615
 2919SOL    OH223475   5.281   1.449   5.027
 2919SOL     H123476   5.336   1.421   4.954
 2919SOL     H223477   5.222   1.514   4.989
 2920SOL    OH223478   5.925   4.244   5.603
 2920SOL     H123479   5.862   4.289   5.660
 2920SOL     H223480   5.962   4.313   5.548
 2921SOL    OH223481   0.472   3.955   0.677
 2921SOL     H123482   0.460   4.049   0.694
 2921SOL     H223483   0.418   3.912   0.744
 2922SOL    OH223484   4.199   5.608   0.082
 2922SOL     H123485   4.254   5.562   0.017
 2922SOL     H223486   4.111   5.576   0.064
 2923SOL    OH223487   2.756   2.474   6.102
 2923SOL     H123488   2.851   2.458   6.096
 2923SOL     H223489   2.738   2.535   6.030
 2924SOL    OH223490   1.629   4.441   0.192
 2924SOL     H123491   1.636   4.517   0.250
 2924SOL     H223492   1.714   4.436   0.148
 2925SOL    OH223493   2.869   6.007   1.631
 2925SOL     H123494   2.871   5.998   1.726
 2925SOL     H223495   2.782   6.042   1.612
 2926SOL    OH223496   0.690   2.926   5.030
 2926SOL     H123497   0.633   2.989   5.075
 2926SOL     H223498   0.632   2.854   5.007
 2927SOL    OH223499   5.487   4.359   1.176
 2927SOL     H123500   5.559   4.417   1.151
 2927SOL     H223501   5.417   4.419   1.203
 2928SOL    OH223502   4.539   0.918   0.189
 2928SOL     H123503   4.530   0.917   0.093
 2928SOL     H223504   4.474   0.982   0.218
 2929SOL    OH223505   1.114   3.055   0.893
 2929SOL     H123506   1.163   3.052   0.811
 2929SOL     H223507   1.182   3.051   0.961
 2930SOL    OH223508   1.030   2.108   0.892
 2930SOL     H123509   0.970   2.132   0.962
 2930SOL     H223510   0.987   2.137   0.811
 2931SOL    OH223511   1.660   4.866   4.242
 2931SOL     H123512   1.750   4.855   4.274
 2931SOL     H223513   1.630   4.777   4.223
 2932SOL    OH223514   2.304   5.591   5.467
 2932SOL     H123515   2.211   5.585   5.446
 2932SOL     H223516   2.332   5.500   5.477
 2933SOL    OH223517   5.459   4.660   5.423
 2933SOL     H123518   5.384   4.709   5.458
 2933SOL     H223519   5.431   4.633   5.335
 2934SOL    OH223520   5.765   4.082   6.117
 2934SOL     H123521   5.721   4.000   6.138
 2934SOL     H223522   5.807   4.108   6.200
 2935SOL    OH223523   5.957   5.556   4.629
 2935SOL     H123524   6.007   5.636   4.615
 2935SOL     H223525   5.867   5.580   4.606
 2936SOL    OH223526   5.522   4.651   0.519
 2936SOL     H123527   5.583   4.703   0.466
 2936SOL     H223528   5.460   4.715   0.553
 2937SOL    OH223529   6.062   3.467   4.838
 2937SOL     H123530   6.025   3.469   4.750
 2937SOL     H223531   6.001   3.413   4.888
 2938SOL    OH223532   3.046   2.800   5.618
 2938SOL     H123533   3.053   2.883   5.664
 2938SOL     H223534   3.106   2.808   5.544
 2939SOL    OH223535   2.263   1.682   5.516
 2939SOL     H123536   2.192   1.626   5.547
 2939SOL     H223537   2.298   1.636   5.440
 2940SOL    OH223538   2.963   5.658   1.789
 2940SOL     H123539   2.923   5.672   1.703
 2940SOL     H223540   2.947   5.739   1.836
 2941SOL    OH223541   3.228   6.162   0.956
 2941SOL     H123542   3.208   6.250   0.923
 2941SOL     H223543   3.171   6.152   1.032
 2942SOL    OH223544   5.280   0.399   1.020
 2942SOL     H123545   5.305   0.380   0.929
 2942SOL     H223546   5.186   0.416   1.015
 2943SOL    OH223547   3.755   4.377   0.563
 2943SOL     H123548   3.823   4.357   0.500
 2943SOL     H223549   3.713   4.292   0.581
 2944SOL    OH223550   2.336   2.780   0.303
 2944SOL     H123551   2.418   2.731   0.308
 2944SOL     H223552   2.278   2.735   0.365
 2945SOL    OH223553   5.306   4.404   0.211
 2945SOL     H123554   5.305   4.482   0.156
 2945SOL     H223555   5.292   4.437   0.300
 2946SOL    OH223556   5.049   2.514   0.595
 2946SOL     H123557   5.036   2.559   0.512
 2946SOL     H223558   4.979   2.449   0.599
 2947SOL    OH223559   6.199   5.666   0.642
 2947SOL     H123560   6.122   5.700   0.687
 2947SOL     H223561   6.179   5.574   0.626
 2948SOL    OH223562   2.733   0.543   5.933
 2948SOL     H123563   2.680   0.615   5.966
 2948SOL     H223564   2.739   0.559   5.838
 2949SOL    OH223565   2.294   1.619   6.288
 2949SOL     H123566   2.343   1.698   6.309
 2949SOL     H223567   2.350   1.572   6.226
 2950SOL    OH223568   3.800   5.222   5.676
 2950SOL     H123569   3.773   5.257   5.761
 2950SOL     H223570   3.893   5.241   5.670
 2951SOL    OH223571   1.786   2.215   0.307
 2951SOL     H123572   1.805   2.134   0.260
 2951SOL     H223573   1.796   2.284   0.242
 2952SOL    OH223574   0.406   1.426   1.178
 2952SOL     H123575   0.351   1.349   1.194
 2952SOL     H223576   0.468   1.427   1.251
 2953SOL    OH223577   3.069   3.762   0.913
 2953SOL     H123578   3.045   3.843   0.867
 2953SOL     H223579   3.137   3.723   0.858
 2954SOL    OH223580   2.465   2.346   6.304
 2954SOL     H123581   2.521   2.418   6.335
 2954SOL     H223582   2.514   2.306   6.232
 2955SOL    OH223583   5.911   5.801   0.287
 2955SOL     H123584   5.831   5.760   0.321
 2955SOL     H223585   5.974   5.729   0.281
 2956SOL    OH223586   2.466   1.266   1.423
 2956SOL     H123587   2.547   1.280   1.374
 2956SOL     H223588   2.405   1.330   1.387
 2957SOL    OH223589   2.406   5.947   1.067
 2957SOL     H123590   2.337   5.963   1.002
 2957SOL     H223591   2.451   6.031   1.076
 2958SOL    OH223592   3.577   0.819   0.232
 2958SOL     H123593   3.622   0.856   0.155
 2958SOL     H223594   3.614   0.731   0.241
 2959SOL    OH223595   6.088   4.685   6.328
 2959SOL     H123596   5.999   4.718   6.342
 2959SOL     H223597   6.104   4.628   0.046
 2960SOL    OH223598   2.538   6.242   5.880
 2960SOL     H123599   2.553   6.297   5.957
 2960SOL     H223600   2.581   6.159   5.902
 2961SOL    OH223601   2.425   4.147   5.546
 2961SOL     H123602   2.375   4.066   5.538
 2961SOL     H223603   2.435   4.179   5.457
 2962SOL    OH223604   3.069   6.102   1.174
 2962SOL     H123605   3.073   6.156   1.253
 2962SOL     H223606   2.976   6.085   1.161
 2963SOL    OH223607   5.727   3.803   6.192
 2963SOL     H123608   5.726   3.730   6.254
 2963SOL     H223609   5.819   3.827   6.185
 2964SOL    OH223610   1.870   5.210   0.802
 2964SOL     H123611   1.789   5.159   0.801
 2964SOL     H223612   1.904   5.200   0.891
 2965SOL    OH223613   4.416   3.468   5.576
 2965SOL     H123614   4.370   3.551   5.583
 2965SOL     H223615   4.401   3.425   5.661
 2966SOL    OH223616   3.462   6.125   5.004
 2966SOL     H123617   3.485   6.197   4.945
 2966SOL     H223618   3.368   6.135   5.019
 2967SOL    OH223619   5.042   2.869   5.630
 2967SOL     H123620   5.131   2.885   5.661
 2967SOL     H223621   5.025   2.778   5.654
 2968SOL    OH223622   1.700   2.908   0.033
 2968SOL     H123623   1.614   2.938   0.003
 2968SOL     H223624   1.703   2.934   0.125
 2969SOL    OH223625   1.174   2.883   5.535
 2969SOL     H123626   1.200   2.972   5.558
 2969SOL     H223627   1.236   2.857   5.466
 2970SOL    OH223628   1.280   1.976   5.655
 2970SOL     H123629   1.354   1.937   5.700
 2970SOL     H223630   1.317   2.050   5.607
 2971SOL    OH223631   3.575   2.581   0.421
 2971SOL     H123632   3.654   2.530   0.401
 2971SOL     H223633   3.504   2.530   0.383
 2972SOL    OH223634   3.394   3.784   0.177
 2972SOL     H123635   3.462   3.800   0.111
 2972SOL     H223636   3.338   3.862   0.173
 2973SOL    OH223637   5.260   1.741   0.071
 2973SOL     H123638   5.213   1.824   0.080
 2973SOL     H223639   5.290   1.721   0.160
 2974SOL    OH223640   5.662   5.946   1.255
 2974SOL     H123641   5.738   5.888   1.247
 2974SOL     H223642   5.624   5.926   1.340
 2975SOL    OH223643   4.756   1.247   0.071
 2975SOL     H123644   4.785   1.222   0.159
 2975SOL     H223645   4.779   1.172   0.016
 2976SOL    OH223646   2.846   5.740   1.559
 2976SOL     H123647   2.850   5.835   1.574
 2976SOL     H223648   2.882   5.728   1.471
 2977SOL    OH223649   5.174   2.447   0.056
 2977SOL     H123650   5.127   2.530   0.050
 2977SOL     H223651   5.226   2.443   6.333
 2978SOL    OH223652   2.003   1.543   5.445
 2978SOL     H123653   1.991   1.473   5.509
 2978SOL     H223654   1.929   1.533   5.384
 2979SOL    OH223655   2.805   6.189   5.620
 2979SOL     H123656   2.837   6.099   5.612
 2979SOL     H223657   2.709   6.180   5.614
 2980SOL    OH223658   1.704   1.829   0.342
 2980SOL     H123659   1.616   1.850   0.374
 2980SOL     H223660   1.702   1.734   0.330
 2981SOL    OH223661   3.649   1.159   5.606
 2981SOL     H123662   3.644   1.167   5.511
 2981SOL     H223663   3.578   1.099   5.629
 2982SOL    OH223664   5.499   4.682   1.018
 2982SOL     H123665   5.517   4.747   0.951
 2982SOL     H223666   5.424   4.718   1.067
 2983SOL    OH223667   0.507   4.163   2.036
 2983SOL     H123668   0.463   4.187   1.955
 2983SOL     H223669   0.436   4.140   2.096
 2984SOL    OH223670   0.946   4.344   1.307
 2984SOL     H123671   1.026   4.392   1.286
 2984SOL     H223672   0.973   4.278   1.371
 2985SOL    OH223673   4.196   5.506   6.094
 2985SOL     H123674   4.196   5.471   6.006
 2985SOL     H223675   4.154   5.439   6.148
 2986SOL    OH223676   1.655   3.937   5.527
 2986SOL     H123677   1.667   3.925   5.621
 2986SOL     H223678   1.560   3.929   5.514
 2987SOL    OH223679   1.404   0.315   5.543
 2987SOL     H123680   1.405   0.303   5.638
 2987SOL     H223681   1.497   0.315   5.518
 2988SOL    OH223682   3.299   5.978   0.319
 2988SOL     H123683   3.277   5.899   0.270
 2988SOL     H223684   3.387   6.002   0.288
 2989SOL    OH223685   3.911   2.863   5.828
 2989SOL     H123686   4.005   2.848   5.815
 2989SOL     H223687   3.874   2.776   5.841
 2990SOL    OH223688   4.581   0.866   6.240
 2990SOL     H123689   4.572   0.773   6.218
 2990SOL     H223690   4.574   0.911   6.156
 2991SOL    OH223691   2.592   4.870   6.023
 2991SOL     H123692   2.628   4.909   5.943
 2991SOL     H223693   2.601   4.939   6.089
 2992SOL    OH223694   3.242   1.747   0.837
 2992SOL     H123695   3.236   1.662   0.793
 2992SOL     H223696   3.189   1.806   0.784
 2993SOL    OH223697   0.439   5.043   5.418
 2993SOL     H123698   0.462   4.950   5.413
 2993SOL     H223699   0.362   5.046   5.473
 2994SOL    OH223700   0.986   0.619   0.538
 2994SOL     H123701   1.072   0.579   0.552
 2994SOL     H223702   0.995   0.666   0.455
 2995SOL    OH223703   0.049   4.340   5.282
 2995SOL     H123704   6.278   4.320   5.212
 2995SOL     H223705   0.091   4.422   5.254
 2996SOL    OH223706   3.704   0.866   1.284
 2996SOL     H123707   3.685   0.850   1.192
 2996SOL     H223708   3.694   0.960   1.295
 2997SOL    OH223709   1.160   5.436   6.244
 2997SOL     H123710   1.135   5.441   6.151
 2997SOL     H223711   1.181   5.343   6.258
 2998SOL    OH223712   4.902   5.465   0.845
 2998SOL     H123713   4.816   5.487   0.810
 2998SOL     H223714   4.894   5.478   0.939
 2999SOL    OH223715   4.578   6.319   1.026
 2999SOL     H123716   4.655   6.323   0.969
 2999SOL     H223717   4.612   6.283   1.108
 3000SOL    OH223718   5.396   4.079   0.101
 3000SOL     H123719   5.467   4.143   0.107
 3000SOL     H223720   5.363   4.071   0.190
 3001SOL    OH223721   1.162   0.766   6.171
 3001SOL     H123722   1.074   0.786   6.137
 3001SOL     H223723   1.181   0.678   6.139
 3002SOL    OH223724   3.546   0.194   0.472
 3002SOL     H123725   3.469   0.163   0.424
 3002SOL     H223726   3.575   0.118   0.523
 3003SOL    OH223727   5.366   2.712   5.815
 3003SOL     H123728   5.371   2.735   5.908
 3003SOL     H223729   5.344   2.794   5.771
 3004SOL    OH223730   3.427   4.291   0.497
 3004SOL     H123731   3.463   4.370   0.457
 3004SOL     H223732   3.503   4.238   0.521
 3005SOL    OH223733   0.474   5.860   4.961
 3005SOL     H123734   0.418   5.787   4.935
 3005SOL     H223735   0.453   5.930   4.900
 3006SOL    OH223736   2.322   1.582   1.581
 3006SOL     H123737   2.315   1.538   1.496
 3006SOL     H223738   2.304   1.513   1.645
 3007SOL    OH223739   3.901   5.207   4.694
 3007SOL     H123740   3.859   5.132   4.736
 3007SOL     H223741   3.829   5.257   4.655
 3008SOL    OH223742   6.272   1.227   1.529
 3008SOL     H123743   6.241   1.280   1.455
 3008SOL     H223744   6.202   1.163   1.544
 3009SOL    OH223745   2.117   4.839   6.189
 3009SOL     H123746   2.202   4.807   6.159
 3009SOL     H223747   2.091   4.905   6.123
 3010SOL    OH223748   3.341   0.620   0.459
 3010SOL     H123749   3.323   0.590   0.370
 3010SOL     H223750   3.331   0.541   0.513
 3011SOL    OH223751   1.773   4.871   5.584
 3011SOL     H123752   1.689   4.905   5.551
 3011SOL     H223753   1.795   4.928   5.657
 3012SOL    OH223754   1.291   4.992   4.573
 3012SOL     H123755   1.367   5.032   4.616
 3012SOL     H223756   1.326   4.961   4.488
 3013SOL    OH223757   2.152   2.883   0.852
 3013SOL     H123758   2.122   2.971   0.830
 3013SOL     H223759   2.132   2.873   0.945
 3014SOL    OH223760   3.720   2.251   1.302
 3014SOL     H123761   3.723   2.329   1.358
 3014SOL     H223762   3.684   2.183   1.358
 3015SOL    OH223763   0.546   2.841   5.976
 3015SOL     H123764   0.615   2.774   5.976
 3015SOL     H223765   0.536   2.865   5.884
 3016SOL    OH223766   2.705   3.871   1.269
 3016SOL     H123767   2.779   3.918   1.231
 3016SOL     H223768   2.736   3.781   1.277
 3017SOL    OH223769   2.476   2.641   0.984
 3017SOL     H123770   2.460   2.604   1.071
 3017SOL     H223771   2.529   2.719   1.001
 3018SOL    OH223772   5.793   6.200   0.860
 3018SOL     H123773   5.805   6.235   0.948
 3018SOL     H223774   5.746   6.118   0.873
 3019SOL    OH223775   1.814   6.024   0.796
 3019SOL     H123776   1.731   6.011   0.842
 3019SOL     H223777   1.804   5.973   0.715
 3020SOL    OH223778   1.568   1.572   1.124
 3020SOL     H123779   1.610   1.658   1.129
 3020SOL     H223780   1.565   1.541   1.214
 3021SOL    OH223781   2.906   4.972   1.444
 3021SOL     H123782   2.846   5.046   1.437
 3021SOL     H223783   2.852   4.895   1.424
 3022SOL    OH223784   1.102   1.065   1.666
 3022SOL     H123785   1.118   1.143   1.613
 3022SOL     H223786   1.071   1.099   1.750
 3023SOL    OH223787   3.588   0.985   4.988
 3023SOL     H123788   3.522   1.044   5.027
 3023SOL     H223789   3.639   0.954   5.063
 3024SOL    OH223790   3.051   6.271   0.613
 3024SOL     H123791   2.966   6.289   0.571
 3024SOL     H223792   3.108   6.246   0.540
 3025SOL    OH223793   4.133   5.694   0.537
 3025SOL     H123794   4.062   5.730   0.483
 3025SOL     H223795   4.194   5.656   0.473
 3026SOL    OH223796   3.285   3.099   5.786
 3026SOL     H123797   3.239   3.094   5.702
 3026SOL     H223798   3.283   3.192   5.808
 3027SOL    OH223799   0.399   3.929   5.552
 3027SOL     H123800   0.325   3.891   5.505
 3027SOL     H223801   0.435   3.857   5.603
 3028SOL    OH223802   2.722   4.675   1.646
 3028SOL     H123803   2.719   4.718   1.561
 3028SOL     H223804   2.734   4.582   1.625
 3029SOL    OH223805   1.843   0.423   6.353
 3029SOL     H123806   1.870   0.515   6.349
 3029SOL     H223807   1.918   0.378   0.034
 3030SOL    OH223808   4.433   2.159   5.555
 3030SOL     H123809   4.385   2.195   5.630
 3030SOL     H223810   4.365   2.134   5.493
 3031SOL    OH223811   3.175   0.177   5.672
 3031SOL     H123812   3.231   0.106   5.642
 3031SOL     H223813   3.096   0.135   5.703
 3032SOL    OH223814   6.256   0.511   1.173
 3032SOL     H123815   6.193   0.450   1.135
 3032SOL     H223816   6.205   0.565   1.233
 3033SOL    OH223817   2.699   3.766   0.909
 3033SOL     H123818   2.728   3.844   0.862
 3033SOL     H223819   2.727   3.692   0.854
 3034SOL    OH223820   3.980   4.270   1.099
 3034SOL     H123821   3.980   4.364   1.121
 3034SOL     H223822   4.068   4.254   1.065
 3035SOL    OH223823   5.134   4.528   5.512
 3035SOL     H123824   5.064   4.515   5.576
 3035SOL     H223825   5.172   4.613   5.536
 3036SOL    OH223826   3.601   3.261   6.088
 3036SOL     H123827   3.697   3.264   6.089
 3036SOL     H223828   3.581   3.168   6.083
 3037SOL    OH223829   5.958   2.684   0.863
 3037SOL     H123830   6.044   2.720   0.843
 3037SOL     H223831   5.909   2.757   0.901
 3038SOL    OH223832   0.269   1.332   1.565
 3038SOL     H123833   0.337   1.271   1.537
 3038SOL     H223834   0.187   1.288   1.544
 3039SOL    OH223835   6.285   3.745   0.552
 3039SOL     H123836   0.029   3.792   0.477
 3039SOL     H223837   0.064   3.684   0.576
 3040SOL    OH223838   5.487   0.763   0.607
 3040SOL     H123839   5.418   0.765   0.541
 3040SOL     H223840   5.489   0.673   0.638
 3041SOL    OH223841   1.187   4.536   4.967
 3041SOL     H123842   1.096   4.557   4.944
 3041SOL     H223843   1.238   4.610   4.934
 3042SOL    OH223844   1.260   1.658   1.176
 3042SOL     H123845   1.189   1.723   1.175
 3042SOL     H223846   1.334   1.704   1.138
 3043SOL    OH223847   4.811   2.385   5.371
 3043SOL     H123848   4.743   2.381   5.438
 3043SOL     H223849   4.788   2.461   5.318
 3044SOL    OH223850   3.694   1.882   5.613
 3044SOL     H123851   3.667   1.922   5.530
 3044SOL     H223852   3.679   1.789   5.600
 3045SOL    OH223853   5.776   1.433   4.072
 3045SOL     H123854   5.745   1.369   4.007
 3045SOL     H223855   5.704   1.440   4.135
 3046SOL    OH223856   1.581   3.923   0.409
 3046SOL     H123857   1.521   3.930   0.335
 3046SOL     H223858   1.630   4.006   0.408
 3047SOL    OH223859   1.742   1.310   0.786
 3047SOL     H123860   1.801   1.246   0.825
 3047SOL     H223861   1.756   1.390   0.836
 3048SOL    OH223862   2.179   6.073   5.462
 3048SOL     H123863   2.224   6.137   5.407
 3048SOL     H223864   2.192   6.105   5.551
 3049SOL    OH223865   2.037   1.464   1.440
 3049SOL     H123866   1.952   1.446   1.401
 3049SOL     H223867   2.040   1.408   1.518
 3050SOL    OH223868   0.961   5.903   6.025
 3050SOL     H123869   0.975   5.968   6.094
 3050SOL     H223870   0.933   5.954   5.949
 3051SOL    OH223871   0.336   3.838   2.170
 3051SOL     H123872   0.431   3.841   2.178
 3051SOL     H223873   0.308   3.929   2.175
 3052SOL    OH223874   5.584   4.937   5.669
 3052SOL     H123875   5.658   4.882   5.644
 3052SOL     H223876   5.549   4.968   5.585
 3053SOL    OH223877   3.616   4.251   5.763
 3053SOL     H123878   3.587   4.327   5.711
 3053SOL     H223879   3.633   4.286   5.850
 3054SOL    OH223880   2.914   3.174   4.668
 3054SOL     H123881   2.914   3.151   4.575
 3054SOL     H223882   2.947   3.264   4.670
 3055SOL    OH223883   3.190   0.384   1.226
 3055SOL     H123884   3.279   0.370   1.259
 3055SOL     H223885   3.147   0.433   1.296
 3056SOL    OH223886   2.541   5.223   0.210
 3056SOL     H123887   2.602   5.151   0.196
 3056SOL     H223888   2.589   5.286   0.264
 3057SOL    OH223889   2.085   2.172   6.184
 3057SOL     H123890   2.150   2.137   6.245
 3057SOL     H223891   2.134   2.231   6.127
 3058SOL    OH223892   1.905   0.696   6.349
 3058SOL     H123893   1.903   0.768   6.286
 3058SOL     H223894   1.979   0.716   0.049
 3059SOL    OH223895   5.824   5.313   6.287
 3059SOL     H123896   5.836   5.298   0.023
 3059SOL     H223897   5.862   5.236   6.245
 3060SOL    OH223898   3.033   5.770   6.021
 3060SOL     H123899   3.100   5.721   6.070
 3060SOL     H223900   3.043   5.739   5.931
 3061SOL    OH223901   3.895   3.009   6.062
 3061SOL     H123902   3.835   2.952   6.111
 3061SOL     H223903   3.903   2.967   5.977
 3062SOL    OH223904   0.156   3.879   6.042
 3062SOL     H123905   0.110   3.938   5.983
 3062SOL     H223906   0.248   3.905   6.036
 3063SOL    OH223907   2.816   2.375   5.618
 3063SOL     H123908   2.848   2.309   5.557
 3063SOL     H223909   2.894   2.425   5.642
 3064SOL    OH223910   4.305   2.463   5.055
 3064SOL     H123911   4.348   2.431   4.975
 3064SOL     H223912   4.223   2.414   5.059
 3065SOL    OH223913   2.275   4.012   1.356
 3065SOL     H123914   2.262   4.086   1.415
 3065SOL     H223915   2.367   4.020   1.329
 3066SOL    OH223916   0.652   4.605   5.311
 3066SOL     H123917   0.629   4.516   5.336
 3066SOL     H223918   0.732   4.595   5.259
 3067SOL    OH223919   2.774   3.728   6.279
 3067SOL     H123920   2.702   3.785   6.307
 3067SOL     H223921   2.817   3.778   6.209
 3068SOL    OH223922   0.874   3.801   4.304
 3068SOL     H123923   0.781   3.825   4.305
 3068SOL     H223924   0.875   3.708   4.283
 3069SOL    OH223925   5.795   5.930   4.403
 3069SOL     H123926   5.735   5.915   4.476
 3069SOL     H223927   5.826   6.019   4.416
 3070SOL    OH223928   4.054   1.111   0.176
 3070SOL     H123929   4.091   1.188   0.132
 3070SOL     H223930   3.967   1.140   0.205
 3071SOL    OH223931   3.633   6.087   5.833
 3071SOL     H123932   3.690   6.027   5.881
 3071SOL     H223933   3.668   6.086   5.744
 3072SOL    OH223934   5.357   2.853   6.073
 3072SOL     H123935   5.368   2.948   6.080
 3072SOL     H223936   5.381   2.820   6.160
 3073SOL    OH223937   2.769   2.748   5.651
 3073SOL     H123938   2.731   2.831   5.624
 3073SOL     H223939   2.864   2.763   5.647
 3074SOL    OH223940   3.730   5.262   5.957
 3074SOL     H123941   3.713   5.319   6.032
 3074SOL     H223942   3.811   5.216   5.980
 3075SOL    OH223943   1.804   2.971   0.847
 3075SOL     H123944   1.770   2.938   0.764
 3075SOL     H223945   1.885   3.017   0.823
 3076SOL    OH223946   2.822   3.189   0.483
 3076SOL     H123947   2.789   3.279   0.479
 3076SOL     H223948   2.909   3.197   0.521
 3077SOL    OH223949   2.584   5.734   1.018
 3077SOL     H123950   2.524   5.799   1.055
 3077SOL     H223951   2.620   5.689   1.095
 3078SOL    OH223952   3.724   0.578   0.267
 3078SOL     H123953   3.799   0.593   0.209
 3078SOL     H223954   3.736   0.489   0.299
 3079SOL    OH223955   5.374   3.518   0.412
 3079SOL     H123956   5.429   3.585   0.453
 3079SOL     H223957   5.326   3.565   0.345
 3080SOL    OH223958   0.950   5.671   6.348
 3080SOL     H123959   0.958   5.592   0.044
 3080SOL     H223960   0.930   5.639   6.260
 3081SOL    OH223961   0.201   0.702   6.028
 3081SOL     H123962   0.281   0.651   6.011
 3081SOL     H223963   0.222   0.790   5.997
 3082SOL    OH223964   4.609   4.565   0.990
 3082SOL     H123965   4.515   4.585   0.994
 3082SOL     H223966   4.647   4.639   0.941
 3083SOL    OH223967   0.576   1.272   1.868
 3083SOL     H123968   0.482   1.287   1.874
 3083SOL     H223969   0.586   1.200   1.806
 3084SOL    OH223970   5.550   0.944   0.296
 3084SOL     H123971   5.564   1.000   0.372
 3084SOL     H223972   5.492   0.996   0.239
 3085SOL    OH223973   2.516   3.952   1.028
 3085SOL     H123974   2.532   3.993   1.113
 3085SOL     H223975   2.593   3.897   1.014
 3086SOL    OH223976   0.826   3.537   4.239
 3086SOL     H123977   0.801   3.503   4.153
 3086SOL     H223978   0.773   3.488   4.301
 3087SOL    OH223979   1.075   2.997   6.111
 3087SOL     H123980   1.144   2.948   6.155
 3087SOL     H223981   0.995   2.948   6.130
 3088SOL    OH223982   4.690   3.709   6.107
 3088SOL     H123983   4.643   3.744   6.031
 3088SOL     H223984   4.762   3.769   6.120
 3089SOL    OH223985   6.039   3.098   2.062
 3089SOL     H123986   5.980   3.043   2.011
 3089SOL     H223987   6.019   3.077   2.153
 3090SOL    OH223988   5.443   5.432   5.619
 3090SOL     H123989   5.474   5.348   5.653
 3090SOL     H223990   5.484   5.497   5.676
 3091SOL    OH223991   1.554   4.225   6.202
 3091SOL     H123992   1.596   4.275   6.132
 3091SOL     H223993   1.522   4.146   6.159
 3092SOL    OH223994   5.968   0.342   0.791
 3092SOL     H123995   6.009   0.340   0.877
 3092SOL     H223996   5.918   0.261   0.786
 3093SOL    OH223997   4.679   3.745   5.106
 3093SOL     H123998   4.648   3.708   5.188
 3093SOL     H223999   4.769   3.714   5.097
 3094SOL    OH224000   4.915   4.682   0.924
 3094SOL     H124001   4.923   4.621   0.997
 3094SOL     H224002   5.004   4.715   0.911
 3095SOL    OH224003   5.283   1.849   5.702
 3095SOL     H124004   5.332   1.931   5.705
 3095SOL     H224005   5.313   1.800   5.779
 3096SOL    OH224006   3.474   2.811   0.312
 3096SOL     H124007   3.385   2.817   0.347
 3096SOL     H224008   3.509   2.730   0.350
 3097SOL    OH224009   5.862   0.533   0.444
 3097SOL     H124010   5.916   0.611   0.426
 3097SOL     H224011   5.832   0.545   0.534
 3098SOL    OH224012   2.252   5.400   5.195
 3098SOL     H124013   2.156   5.398   5.199
 3098SOL     H224014   2.280   5.364   5.279
 3099SOL    OH224015   2.164   0.805   0.590
 3099SOL     H124016   2.154   0.845   0.503
 3099SOL     H224017   2.114   0.863   0.648
 3100SOL    OH224018   2.235   3.020   5.682
 3100SOL     H124019   2.328   3.025   5.704
 3100SOL     H224020   2.197   2.967   5.752
 3101SOL    OH224021   0.486   3.823   1.210
 3101SOL     H124022   0.577   3.796   1.225
 3101SOL     H224023   0.441   3.800   1.291
 3102SOL    OH224024   5.191   5.248   1.331
 3102SOL     H124025   5.254   5.277   1.396
 3102SOL     H224026   5.106   5.254   1.375
 3103SOL    OH224027   0.924   3.488   1.299
 3103SOL     H124028   0.874   3.413   1.329
 3103SOL     H224029   0.952   3.532   1.379
 3104SOL    OH224030   2.910   5.650   5.553
 3104SOL     H124031   2.863   5.588   5.610
 3104SOL     H224032   2.842   5.685   5.495
 3105SOL    OH224033   5.848   3.974   5.872
 3105SOL     H124034   5.828   4.010   5.958
 3105SOL     H224035   5.906   3.900   5.889
 3106SOL    OH224036   0.303   6.222   4.936
 3106SOL     H124037   0.350   6.159   4.881
 3106SOL     H224038   0.287   6.297   4.879
 3107SOL    OH224039   0.292   5.001   1.040
 3107SOL     H124040   0.355   4.933   1.064
 3107SOL     H224041   0.343   5.083   1.045
 3108SOL    OH224042   0.029   5.510   6.259
 3108SOL     H124043   0.008   5.590   6.212
 3108SOL     H224044   0.086   5.539   6.330
 3109SOL    OH224045   1.461   2.404   5.423
 3109SOL     H124046   1.440   2.469   5.355
 3109SOL     H224047   1.533   2.443   5.472
 3110SOL    OH224048   4.405   3.050   0.330
 3110SOL     H124049   4.433   2.961   0.306
 3110SOL     H224050   4.361   3.039   0.414
 3111SOL    OH224051   1.259   4.772   1.483
 3111SOL     H124052   1.244   4.687   1.523
 3111SOL     H224053   1.218   4.765   1.397
 3112SOL    OH224054   0.416   4.073   1.131
 3112SOL     H124055   0.437   3.982   1.153
 3112SOL     H224056   0.390   4.113   1.213
 3113SOL    OH224057   0.993   2.823   0.799
 3113SOL     H124058   1.031   2.893   0.852
 3113SOL     H224059   1.069   2.775   0.765
 3114SOL    OH224060   4.674   4.324   0.376
 3114SOL     H124061   4.646   4.296   0.463
 3114SOL     H224062   4.768   4.338   0.385
 3115SOL    OH224063   0.170   1.784   5.063
 3115SOL     H124064   0.164   1.782   4.967
 3115SOL     H224065   0.089   1.740   5.092
 3116SOL    OH224066   6.231   1.012   4.218
 3116SOL     H124067   6.225   0.980   4.128
 3116SOL     H224068   0.031   1.038   4.228
 3117SOL    OH224069   3.995   3.771   5.130
 3117SOL     H124070   3.962   3.748   5.043
 3117SOL     H224071   3.931   3.734   5.191
 3118SOL    OH224072   1.380   6.030   6.098
 3118SOL     H124073   1.469   6.021   6.065
 3118SOL     H224074   1.338   5.947   6.076
 3119SOL    OH224075   1.779   1.526   0.951
 3119SOL     H124076   1.701   1.534   1.006
 3119SOL     H224077   1.845   1.580   0.995
 3120SOL    OH224078   3.494   1.864   0.868
 3120SOL     H124079   3.409   1.820   0.863
 3120SOL     H224080   3.527   1.862   0.778
 3121SOL    OH224081   3.982   2.022   5.483
 3121SOL     H124082   3.982   1.985   5.571
 3121SOL     H224083   3.916   2.091   5.486
 3122SOL    OH224084   3.449   0.440   5.508
 3122SOL     H124085   3.524   0.395   5.468
 3122SOL     H224086   3.459   0.424   5.602
 3123SOL    OH224087   0.366   5.845   5.408
 3123SOL     H124088   0.272   5.844   5.390
 3123SOL     H224089   0.404   5.796   5.335
 3124SOL    OH224090   4.122   5.767   6.142
 3124SOL     H124091   4.144   5.676   6.125
 3124SOL     H224092   4.035   5.764   6.182
 3125SOL    OH224093   3.880   4.798   1.178
 3125SOL     H124094   3.967   4.832   1.198
 3125SOL     H224095   3.822   4.842   1.240
 3126SOL    OH224096   0.139   5.561   1.009
 3126SOL     H124097   0.144   5.593   0.919
 3126SOL     H224098   0.059   5.600   1.044
 3127SOL    OH224099   2.389   4.685   0.008
 3127SOL     H124100   2.375   4.778   0.030
 3127SOL     H224101   2.462   4.658   0.063
 3128SOL    OH224102   5.275   1.246   5.584
 3128SOL     H124103   5.275   1.169   5.526
 3128SOL     H224104   5.346   1.300   5.550
 3129SOL    OH224105   3.931   6.287   6.228
 3129SOL     H124106   3.999   6.243   6.176
 3129SOL     H224107   3.908   6.223   6.295
 3130SOL    OH224108   2.401   2.371   0.321
 3130SOL     H124109   2.433   2.458   0.341
 3130SOL     H224110   2.456   2.341   0.248
 3131SOL    OH224111   5.233   2.548   5.624
 3131SOL     H124112   5.279   2.605   5.686
 3131SOL     H224113   5.254   2.584   5.538
 3132SOL    OH224114   2.644   3.698   0.436
 3132SOL     H124115   2.661   3.788   0.465
 3132SOL     H224116   2.574   3.706   0.371
 3133SOL    OH224117   4.264   3.691   5.601
 3133SOL     H124118   4.215   3.734   5.531
 3133SOL     H224119   4.212   3.707   5.680
 3134SOL    OH224120   2.140   2.365   0.227
 3134SOL     H124121   2.086   2.430   0.272
 3134SOL     H224122   2.224   2.368   0.273
 3135SOL    OH224123   0.887   2.395   1.373
 3135SOL     H124124   0.959   2.343   1.409
 3135SOL     H224125   0.809   2.341   1.384
 3136SOL    OH224126   5.373   4.048   0.805
 3136SOL     H124127   5.401   4.056   0.897
 3136SOL     H224128   5.353   3.955   0.794
 3137SOL    OH224129   5.981   4.918   1.413
 3137SOL     H124130   5.903   4.973   1.417
 3137SOL     H224131   6.048   4.968   1.460
 3138SOL    OH224132   4.283   4.487   1.482
 3138SOL     H124133   4.192   4.484   1.453
 3138SOL     H224134   4.317   4.568   1.444
 3139SOL    OH224135   3.596   1.930   0.606
 3139SOL     H124136   3.534   1.913   0.535
 3139SOL     H224137   3.679   1.949   0.561
 3140SOL    OH224138   3.745   0.730   0.504
 3140SOL     H124139   3.731   0.684   0.422
 3140SOL     H224140   3.793   0.809   0.480
 3141SOL    OH224141   1.571   3.491   6.239
 3141SOL     H124142   1.484   3.454   6.227
 3141SOL     H224143   1.617   3.427   6.293
 3142SOL    OH224144   2.315   5.006   0.934
 3142SOL     H124145   2.268   5.088   0.917
 3142SOL     H224146   2.256   4.954   0.988
 3143SOL    OH224147   2.820   3.630   1.296
 3143SOL     H124148   2.870   3.609   1.218
 3143SOL     H224149   2.857   3.574   1.364
 3144SOL    OH224150   1.485   3.118   5.108
 3144SOL     H124151   1.466   3.198   5.059
 3144SOL     H224152   1.414   3.113   5.172
 3145SOL    OH224153   3.815   1.235   0.644
 3145SOL     H124154   3.907   1.262   0.641
 3145SOL     H224155   3.781   1.251   0.556
 3146SOL    OH224156   2.353   2.265   0.989
 3146SOL     H124157   2.401   2.314   0.923
 3146SOL     H224158   2.408   2.268   1.067
 3147SOL    OH224159   2.695   0.973   6.082
 3147SOL     H124160   2.644   1.054   6.080
 3147SOL     H224161   2.783   0.999   6.057
 3148SOL    OH224162   6.243   0.980   5.000
 3148SOL     H124163   6.169   0.958   5.057
 3148SOL     H224164   6.257   0.902   4.947
 3149SOL    OH224165   4.028   6.120   5.502
 3149SOL     H124166   4.115   6.158   5.519
 3149SOL     H224167   4.047   6.036   5.461
 3150SOL    OH224168   2.041   3.505   1.644
 3150SOL     H124169   2.031   3.431   1.704
 3150SOL     H224170   2.118   3.552   1.676
 3151SOL    OH224171   0.768   5.389   0.788
 3151SOL     H124172   0.715   5.440   0.850
 3151SOL     H224173   0.813   5.455   0.735
 3152SOL    OH224174   1.541   5.942   0.593
 3152SOL     H124175   1.518   5.881   0.663
 3152SOL     H224176   1.457   5.965   0.552
 3153SOL    OH224177   2.624   3.073   0.335
 3153SOL     H124178   2.695   3.110   0.387
 3153SOL     H224179   2.667   3.040   0.256
 3154SOL    OH224180   0.459   5.777   1.494
 3154SOL     H124181   0.386   5.835   1.475
 3154SOL     H224182   0.537   5.828   1.475
 3155SOL    OH224183   2.226   1.157   1.162
 3155SOL     H124184   2.255   1.116   1.243
 3155SOL     H224185   2.139   1.192   1.183
 3156SOL    OH224186   0.647   4.653   0.768
 3156SOL     H124187   0.690   4.686   0.848
 3156SOL     H224188   0.648   4.558   0.778
 3157SOL    OH224189   4.833   1.159   0.326
 3157SOL     H124190   4.842   1.069   0.294
 3157SOL     H224191   4.762   1.155   0.390
 3158SOL    OH224192   4.235   1.775   6.269
 3158SOL     H124193   4.244   1.811   6.358
 3158SOL     H224194   4.325   1.764   6.239
 3159SOL    OH224195   5.399   4.869   5.851
 3159SOL     H124196   5.420   4.780   5.881
 3159SOL     H224197   5.466   4.889   5.787
 3160SOL    OH224198   4.335   0.657   5.939
 3160SOL     H124199   4.407   0.651   6.001
 3160SOL     H224200   4.264   0.699   5.988
 3161SOL    OH224201   4.091   6.226   0.453
 3161SOL     H124202   4.140   6.239   0.534
 3161SOL     H224203   4.157   6.221   0.385
 3162SOL    OH224204   4.830   0.789   5.237
 3162SOL     H124205   4.853   0.842   5.160
 3162SOL     H224206   4.798   0.707   5.200
 3163SOL    OH224207   4.520   3.913   5.648
 3163SOL     H124208   4.438   3.899   5.601
 3163SOL     H224209   4.532   4.008   5.648
 3164SOL    OH224210   4.069   5.268   5.665
 3164SOL     H124211   4.115   5.309   5.738
 3164SOL     H224212   4.127   5.195   5.639
 3165SOL    OH224213   4.961   5.270   1.469
 3165SOL     H124214   4.984   5.318   1.548
 3165SOL     H224215   4.868   5.287   1.456
 3166SOL    OH224216   4.897   2.170   1.513
 3166SOL     H124217   4.926   2.260   1.497
 3166SOL     H224218   4.802   2.174   1.508
 3167SOL    OH224219   0.828   5.069   5.448
 3167SOL     H124220   0.754   5.090   5.506
 3167SOL     H224221   0.828   4.974   5.442
 3168SOL    OH224222   2.108   4.300   5.764
 3168SOL     H124223   2.197   4.327   5.782
 3168SOL     H224224   2.115   4.206   5.744
 3169SOL    OH224225   0.262   4.622   5.446
 3169SOL     H124226   0.182   4.657   5.484
 3169SOL     H224227   0.237   4.595   5.357
 3170SOL    OH224228   1.082   4.463   5.403
 3170SOL     H124229   1.152   4.476   5.339
 3170SOL     H224230   1.112   4.391   5.458
 3171SOL    OH224231   2.205   4.958   1.739
 3171SOL     H124232   2.165   4.912   1.665
 3171SOL     H224233   2.265   5.021   1.698
 3172SOL    OH224234   1.140   4.051   1.151
 3172SOL     H124235   1.211   4.044   1.215
 3172SOL     H224236   1.067   4.006   1.192
 3173SOL    OH224237   2.822   4.365   0.834
 3173SOL     H124238   2.799   4.300   0.900
 3173SOL     H224239   2.890   4.418   0.875
 3174SOL    OH224240   5.720   2.417   1.438
 3174SOL     H124241   5.738   2.441   1.347
 3174SOL     H224242   5.636   2.458   1.458
 3175SOL    OH224243   4.302   5.898   5.124
 3175SOL     H124244   4.331   5.937   5.041
 3175SOL     H224245   4.207   5.902   5.120
 3176SOL    OH224246   5.172   4.450   4.859
 3176SOL     H124247   5.077   4.464   4.852
 3176SOL     H224248   5.211   4.523   4.811
 3177SOL    OH224249   3.837   3.991   6.018
 3177SOL     H124250   3.842   4.035   5.933
 3177SOL     H224251   3.904   4.034   6.071
 3178SOL    OH224252   2.808   6.182   1.351
 3178SOL     H124253   2.748   6.161   1.422
 3178SOL     H224254   2.890   6.207   1.396
 3179SOL    OH224255   1.004   3.224   0.066
 3179SOL     H124256   1.034   3.250   6.336
 3179SOL     H224257   0.932   3.163   0.049
 3180SOL    OH224258   5.297   4.501   0.468
 3180SOL     H124259   5.382   4.542   0.477
 3180SOL     H224260   5.246   4.534   0.543
 3181SOL    OH224261   5.280   1.763   0.358
 3181SOL     H124262   5.206   1.702   0.357
 3181SOL     H224263   5.244   1.845   0.325
 3182SOL    OH224264   1.456   2.623   0.808
 3182SOL     H124265   1.404   2.555   0.852
 3182SOL     H224266   1.511   2.575   0.746
 3183SOL    OH224267   5.661   4.509   0.125
 3183SOL     H124268   5.726   4.538   0.189
 3183SOL     H224269   5.631   4.424   0.159
 3184SOL    OH224270   2.962   5.839   0.313
 3184SOL     H124271   2.886   5.781   0.304
 3184SOL     H224272   2.951   5.879   0.400
 3185SOL    OH224273   2.360   1.132   6.269
 3185SOL     H124274   2.296   1.153   6.202
 3185SOL     H224275   2.352   1.202   6.333
 3186SOL    OH224276   1.992   1.312   0.336
 3186SOL     H124277   1.967   1.401   0.311
 3186SOL     H224278   1.909   1.269   0.357
 3187SOL    OH224279   5.386   3.263   5.345
 3187SOL     H124280   5.388   3.262   5.250
 3187SOL     H224281   5.432   3.343   5.370
 3188SOL    OH224282   2.441   0.608   5.577
 3188SOL     H124283   2.459   0.627   5.485
 3188SOL     H224284   2.378   0.536   5.574
 3189SOL    OH224285   3.848   5.902   5.811
 3189SOL     H124286   3.935   5.917   5.849
 3189SOL     H224287   3.846   5.959   5.734
 3190SOL    OH224288   0.322   1.171   1.276
 3190SOL     H124289   0.383   1.181   1.350
 3190SOL     H224290   0.259   1.105   1.306
 3191SOL    OH224291   5.107   2.905   5.969
 3191SOL     H124292   5.194   2.878   5.999
 3191SOL     H224293   5.122   2.988   5.923
 3192SOL    OH224294   5.428   3.169   0.062
 3192SOL     H124295   5.476   3.090   0.090
 3192SOL     H224296   5.383   3.198   0.141
 3193SOL    OH224297   4.403   0.405   1.244
 3193SOL     H124298   4.321   0.432   1.203
 3193SOL     H224299   4.453   0.486   1.253
 3194SOL    OH224300   1.862   6.061   0.057
 3194SOL     H124301   1.838   6.000   6.345
 3194SOL     H224302   1.957   6.049   0.066
 3195SOL    OH224303   6.084   4.347   0.577
 3195SOL     H124304   6.163   4.307   0.540
 3195SOL     H224305   6.042   4.277   0.627
 3196SOL    OH224306   2.552   3.956   1.928
 3196SOL     H124307   2.584   3.990   2.012
 3196SOL     H224308   2.560   4.030   1.868
 3197SOL    OH224309   1.800   0.951   0.553
 3197SOL     H124310   1.745   0.911   0.620
 3197SOL     H224311   1.885   0.962   0.596
 3198SOL    OH224312   2.156   3.777   0.813
 3198SOL     H124313   2.106   3.857   0.830
 3198SOL     H224314   2.212   3.768   0.890
 3199SOL    OH224315   5.589   3.832   4.696
 3199SOL     H124316   5.514   3.784   4.661
 3199SOL     H224317   5.552   3.914   4.728
 3200SOL    OH224318   6.015   1.162   4.277
 3200SOL     H124319   6.093   1.108   4.267
 3200SOL     H224320   6.033   1.241   4.227
 3201SOL    OH224321   5.368   3.250   0.329
 3201SOL     H124322   5.361   3.343   0.348
 3201SOL     H224323   5.447   3.222   0.375
 3202SOL    OH224324   5.777   0.236   4.410
 3202SOL     H124325   5.856   0.182   4.412
 3202SOL     H224326   5.732   0.210   4.330
 3203SOL    OH224327   6.175   1.063   1.289
 3203SOL     H124328   6.170   1.158   1.280
 3203SOL     H224329   6.125   1.044   1.368
 3204SOL    OH224330   2.587   1.427   6.338
 3204SOL     H124331   2.655   1.365   6.311
 3204SOL     H224332   2.551   1.461   6.256
 3205SOL    OH224333   1.475   5.381   5.764
 3205SOL     H124334   1.566   5.401   5.741
 3205SOL     H224335   1.437   5.347   5.683
 3206SOL    OH224336   3.289   3.187   1.134
 3206SOL     H124337   3.289   3.113   1.073
 3206SOL     H224338   3.220   3.166   1.197
 3207SOL    OH224339   1.173   2.288   6.184
 3207SOL     H124340   1.205   2.272   6.095
 3207SOL     H224341   1.204   2.214   6.235
 3208SOL    OH224342   4.134   0.294   5.716
 3208SOL     H124343   4.182   0.292   5.633
 3208SOL     H224344   4.059   0.351   5.699
 3209SOL    OH224345   0.764   3.059   5.464
 3209SOL     H124346   0.815   3.008   5.527
 3209SOL     H224347   0.715   2.993   5.415
 3210SOL    OH224348   3.535   6.073   0.213
 3210SOL     H124349   3.594   6.137   0.254
 3210SOL     H224350   3.590   6.028   0.149
 3211SOL    OH224351   4.198   5.233   0.510
 3211SOL     H124352   4.151   5.155   0.539
 3211SOL     H224353   4.135   5.281   0.456
 3212SOL    OH224354   0.925   5.350   1.568
 3212SOL     H124355   0.971   5.275   1.606
 3212SOL     H224356   0.974   5.426   1.600
 3213SOL    OH224357   4.836   1.273   5.508
 3213SOL     H124358   4.765   1.337   5.509
 3213SOL     H224359   4.915   1.323   5.528
 3214SOL    OH224360   1.478   4.278   0.684
 3214SOL     H124361   1.412   4.240   0.626
 3214SOL     H224362   1.544   4.314   0.624
 3215SOL    OH224363   2.399   5.819   1.913
 3215SOL     H124364   2.482   5.847   1.874
 3215SOL     H224365   2.390   5.872   1.992
 3216SOL    OH224366   4.583   5.981   1.388
 3216SOL     H124367   4.612   5.931   1.464
 3216SOL     H224368   4.488   5.965   1.384
 3217SOL    OH224369   4.868   4.429   5.961
 3217SOL     H124370   4.799   4.419   6.026
 3217SOL     H224371   4.911   4.344   5.958
 3218SOL    OH224372   2.476   0.935   1.689
 3218SOL     H124373   2.570   0.939   1.668
 3218SOL     H224374   2.437   0.892   1.613
 3219SOL    OH224375   5.365   0.042   1.254
 3219SOL     H124376   5.301   0.072   1.318
 3219SOL     H224377   5.316   6.317   1.194
 3220SOL    OH224378   3.614   3.122   0.106
 3220SOL     H124379   3.560   3.182   0.055
 3220SOL     H224380   3.604   3.152   0.197
 3221SOL    OH224381   1.196   1.401   0.936
 3221SOL     H124382   1.146   1.320   0.935
 3221SOL     H224383   1.130   1.470   0.940
 3222SOL    OH224384   5.559   5.880   0.496
 3222SOL     H124385   5.535   5.953   0.438
 3222SOL     H224386   5.636   5.912   0.542
 3223SOL    OH224387   3.208   2.561   1.872
 3223SOL     H124388   3.262   2.600   1.804
 3223SOL     H224389   3.259   2.571   1.952
 3224SOL    OH224390   0.892   6.070   5.811
 3224SOL     H124391   0.800   6.088   5.792
 3224SOL     H224392   0.924   6.026   5.732
 3225SOL    OH224393   6.072   1.225   6.180
 3225SOL     H124394   6.098   1.315   6.201
 3225SOL     H224395   6.009   1.234   6.109
 3226SOL    OH224396   5.418   2.091   5.668
 3226SOL     H124397   5.484   2.160   5.662
 3226SOL     H224398   5.334   2.138   5.664
 3227SOL    OH224399   4.318   1.217   5.954
 3227SOL     H124400   4.302   1.309   5.935
 3227SOL     H224401   4.279   1.170   5.880
 3228SOL    OH224402   3.107   3.765   5.618
 3228SOL     H124403   3.192   3.761   5.661
 3228SOL     H224404   3.064   3.842   5.656
 3229SOL    OH224405   1.404   1.084   0.471
 3229SOL     H124406   1.385   1.031   0.548
 3229SOL     H224407   1.460   1.154   0.503
 3230SOL    OH224408   4.954   4.764   4.775
 3230SOL     H124409   4.941   4.671   4.794
 3230SOL     H224410   5.049   4.774   4.767
 3231SOL    OH224411   0.954   2.679   5.822
 3231SOL     H124412   1.021   2.643   5.880
 3231SOL     H224413   0.872   2.668   5.870
 3232SOL    OH224414   5.597   4.179   5.905
 3232SOL     H124415   5.657   4.154   5.976
 3232SOL     H224416   5.646   4.241   5.852
 3233SOL    OH224417   1.957   1.947   5.334
 3233SOL     H124418   1.935   2.040   5.323
 3233SOL     H224419   2.024   1.946   5.402
 3234SOL    OH224420   5.020   2.652   0.361
 3234SOL     H124421   5.109   2.687   0.361
 3234SOL     H224422   4.987   2.668   0.273
 3235SOL    OH224423   6.105   5.382   5.382
 3235SOL     H124424   6.170   5.382   5.451
 3235SOL     H224425   6.022   5.398   5.427
 3236SOL    OH224426   6.230   4.842   0.245
 3236SOL     H124427   6.205   4.934   0.236
 3236SOL     H224428   6.194   4.816   0.330
 3237SOL    OH224429   5.412   2.954   0.863
 3237SOL     H124430   5.427   2.924   0.953
 3237SOL     H224431   5.392   3.047   0.872
 3238SOL    OH224432   4.891   6.108   5.378
 3238SOL     H124433   4.903   6.081   5.469
 3238SOL     H224434   4.813   6.060   5.349
 3239SOL    OH224435   2.602   0.817   0.422
 3239SOL     H124436   2.676   0.844   0.476
 3239SOL     H224437   2.551   0.759   0.478
 3240SOL    OH224438   0.084   1.009   0.362
 3240SOL     H124439   0.162   1.032   0.412
 3240SOL     H224440   0.118   0.957   0.288
 3241SOL    OH224441   2.001   3.487   1.379
 3241SOL     H124442   2.006   3.501   1.474
 3241SOL     H224443   1.988   3.392   1.369
 3242SOL    OH224444   1.616   2.173   1.150
 3242SOL     H124445   1.691   2.208   1.196
 3242SOL     H224446   1.553   2.151   1.219
 3243SOL    OH224447   2.732   4.840   0.750
 3243SOL     H124448   2.738   4.775   0.680
 3243SOL     H224449   2.638   4.856   0.761
 3244SOL    OH224450   5.183   3.733   1.482
 3244SOL     H124451   5.209   3.764   1.395
 3244SOL     H224452   5.236   3.655   1.496
 3245SOL    OH224453   4.064   0.192   5.378
 3245SOL     H124454   4.020   0.277   5.373
 3245SOL     H224455   4.152   0.213   5.411
 3246SOL    OH224456   2.952   5.992   5.859
 3246SOL     H124457   2.981   5.925   5.921
 3246SOL     H224458   3.030   6.042   5.839
 3247SOL    OH224459   3.529   0.365   5.756
 3247SOL     H124460   3.563   0.276   5.746
 3247SOL     H224461   3.472   0.360   5.833
 3248SOL    OH224462   0.575   2.639   0.638
 3248SOL     H124463   0.617   2.621   0.554
 3248SOL     H224464   0.647   2.652   0.699
 3249SOL    OH224465   1.332   4.746   4.891
 3249SOL     H124466   1.312   4.840   4.892
 3249SOL     H224467   1.404   4.736   4.953
 3250SOL    OH224468   0.216   4.217   6.020
 3250SOL     H124469   0.287   4.154   6.030
 3250SOL     H224470   0.146   4.168   5.976
 3251SOL    OH224471   5.679   2.971   5.793
 3251SOL     H124472   5.617   2.900   5.774
 3251SOL     H224473   5.709   2.953   5.882
 3252SOL    OH224474   0.219   4.988   4.479
 3252SOL     H124475   0.229   4.906   4.431
 3252SOL     H224476   0.282   4.981   4.551
 3253SOL    OH224477   4.945   2.503   6.087
 3253SOL     H124478   4.893   2.529   6.164
 3253SOL     H224479   4.894   2.534   6.012
 3254SOL    OH224480   2.764   1.625   6.095
 3254SOL     H124481   2.834   1.669   6.048
 3254SOL     H224482   2.689   1.684   6.089
 3255SOL    OH224483   2.534   4.075   1.285
 3255SOL     H124484   2.589   4.151   1.300
 3255SOL     H224485   2.594   4.000   1.292
 3256SOL    OH224486   4.925   4.312   5.318
 3256SOL     H124487   4.977   4.248   5.269
 3256SOL     H224488   4.843   4.319   5.269
 3257SOL    OH224489   1.011   1.616   5.256
 3257SOL     H124490   1.040   1.624   5.348
 3257SOL     H224491   0.988   1.524   5.247
 3258SOL    OH224492   2.505   2.421   0.826
 3258SOL     H124493   2.521   2.454   0.737
 3258SOL     H224494   2.499   2.499   0.880
 3259SOL    OH224495   0.886   5.200   1.340
 3259SOL     H124496   0.795   5.174   1.351
 3259SOL     H224497   0.907   5.251   1.418
 3260SOL    OH224498   2.130   1.825   0.536
 3260SOL     H124499   2.037   1.847   0.534
 3260SOL     H224500   2.136   1.743   0.488
 3261SOL    OH224501   5.510   5.199   5.752
 3261SOL     H124502   5.541   5.116   5.715
 3261SOL     H224503   5.534   5.194   5.845
 3262SOL    OH224504   4.373   4.163   0.494
 3262SOL     H124505   4.456   4.179   0.539
 3262SOL     H224506   4.344   4.078   0.527
 3263SOL    OH224507   3.663   4.913   6.191
 3263SOL     H124508   3.617   4.984   6.147
 3263SOL     H224509   3.657   4.839   6.131
 3264SOL    OH224510   1.990   4.008   4.664
 3264SOL     H124511   1.968   3.932   4.718
 3264SOL     H224512   2.031   4.070   4.725
 3265SOL    OH224513   5.241   5.295   5.197
 3265SOL     H124514   5.186   5.266   5.124
 3265SOL     H224515   5.330   5.293   5.162
 3266SOL    OH224516   3.710   4.532   0.167
 3266SOL     H124517   3.637   4.489   0.123
 3266SOL     H224518   3.786   4.514   0.110
 3267SOL    OH224519   5.487   5.385   0.221
 3267SOL     H124520   5.460   5.295   0.241
 3267SOL     H224521   5.430   5.440   0.275
 3268SOL    OH224522   2.294   5.709   6.058
 3268SOL     H124523   2.352   5.717   6.134
 3268SOL     H224524   2.338   5.760   5.989
 3269SOL    OH224525   3.546   4.918   0.529
 3269SOL     H124526   3.575   4.859   0.599
 3269SOL     H224527   3.497   4.862   0.470
 3270SOL    OH224528   0.115   5.892   0.949
 3270SOL     H124529   0.153   5.819   0.899
 3270SOL     H224530   0.033   5.911   0.905
 3271SOL    OH224531   5.585   2.829   0.426
 3271SOL     H124532   5.520   2.837   0.495
 3271SOL     H224533   5.638   2.909   0.433
 3272SOL    OH224534   0.920   2.889   5.634
 3272SOL     H124535   1.006   2.883   5.593
 3272SOL     H224536   0.918   2.816   5.696
 3273SOL    OH224537   2.723   1.840   0.083
 3273SOL     H124538   2.653   1.865   0.143
 3273SOL     H224539   2.735   1.917   0.027
 3274SOL    OH224540   5.791   3.573   0.429
 3274SOL     H124541   5.884   3.590   0.444
 3274SOL     H224542   5.766   3.638   0.363
 3275SOL    OH224543   1.938   0.828   5.988
 3275SOL     H124544   1.939   0.878   5.906
 3275SOL     H224545   1.883   0.879   6.047
 3276SOL    OH224546   5.662   4.631   6.244
 3276SOL     H124547   5.577   4.605   6.209
 3276SOL     H224548   5.669   4.583   6.327
 3277SOL    OH224549   3.158   4.171   6.282
 3277SOL     H124550   3.075   4.167   6.235
 3277SOL     H224551   3.219   4.122   6.226
 3278SOL    OH224552   4.864   3.583   5.776
 3278SOL     H124553   4.927   3.639   5.822
 3278SOL     H224554   4.792   3.571   5.839
 3279SOL    OH224555   2.337   1.061   5.070
 3279SOL     H124556   2.431   1.081   5.071
 3279SOL     H224557   2.296   1.137   5.112
 3280SOL    OH224558   2.085   2.904   1.109
 3280SOL     H124559   2.114   2.990   1.141
 3280SOL     H224560   2.086   2.848   1.187
 3281SOL    OH224561   0.219   2.715   1.235
 3281SOL     H124562   0.251   2.799   1.268
 3281SOL     H224563   0.257   2.650   1.294
 3282SOL    OH224564   2.319   4.101   0.244
 3282SOL     H124565   2.257   4.114   0.316
 3282SOL     H224566   2.405   4.112   0.284
 3283SOL    OH224567   6.093   5.556   5.631
 3283SOL     H124568   6.123   5.613   5.560
 3283SOL     H224569   6.009   5.522   5.601
 3284SOL    OH224570   0.024   4.844   6.024
 3284SOL     H124571   0.062   4.917   5.974
 3284SOL     H224572   6.255   4.886   6.086
 3285SOL    OH224573   0.503   5.967   0.317
 3285SOL     H124574   0.483   6.057   0.294
 3285SOL     H224575   0.550   5.974   0.400
 3286SOL    OH224576   3.180   0.996   1.007
 3286SOL     H124577   3.192   1.087   1.036
 3286SOL     H224578   3.253   0.981   0.947
 3287SOL    OH224579   0.265   2.979   1.289
 3287SOL     H124580   0.186   3.025   1.258
 3287SOL     H224581   0.296   3.032   1.362
 3288SOL    OH224582   4.782   3.681   0.850
 3288SOL     H124583   4.703   3.734   0.864
 3288SOL     H224584   4.853   3.744   0.845
 3289SOL    OH224585   4.670   2.162   0.277
 3289SOL     H124586   4.618   2.238   0.302
 3289SOL     H224587   4.760   2.187   0.295
 3290SOL    OH224588   4.390   5.677   1.368
 3290SOL     H124589   4.306   5.639   1.343
 3290SOL     H224590   4.373   5.771   1.375
 3291SOL    OH224591   3.281   3.348   5.942
 3291SOL     H124592   3.338   3.411   5.986
 3291SOL     H224593   3.249   3.291   6.012
 3292SOL    OH224594   4.780   1.948   5.034
 3292SOL     H124595   4.845   2.015   5.012
 3292SOL     H224596   4.710   1.961   4.970
 3293SOL    OH224597   0.559   5.239   6.030
 3293SOL     H124598   0.491   5.173   6.046
 3293SOL     H224599   0.634   5.189   5.999
 3294SOL    OH224600   4.957   3.246   1.017
 3294SOL     H124601   4.918   3.169   1.058
 3294SOL     H224602   4.882   3.303   0.998
 3295SOL    OH224603   3.640   3.795   1.399
 3295SOL     H124604   3.598   3.819   1.316
 3295SOL     H224605   3.671   3.706   1.385
 3296SOL    OH224606   6.151   4.074   6.122
 3296SOL     H124607   6.094   4.004   6.152
 3296SOL     H224608   6.208   4.093   6.197
 3297SOL    OH224609   2.395   0.768   5.796
 3297SOL     H124610   2.317   0.730   5.837
 3297SOL     H224611   2.413   0.711   5.722
 3298SOL    OH224612   2.945   3.149   4.395
 3298SOL     H124613   2.927   3.183   4.307
 3298SOL     H224614   3.040   3.155   4.404
 3299SOL    OH224615   3.319   4.422   1.571
 3299SOL     H124616   3.246   4.480   1.591
 3299SOL     H224617   3.293   4.337   1.608
 3300SOL    OH224618   2.708   4.655   0.546
 3300SOL     H124619   2.637   4.698   0.499
 3300SOL     H224620   2.676   4.566   0.561
 3301SOL    OH224621   3.482   1.898   0.096
 3301SOL     H124622   3.461   1.807   0.077
 3301SOL     H224623   3.576   1.898   0.115
 3302SOL    OH224624   5.227   3.576   0.917
 3302SOL     H124625   5.182   3.501   0.879
 3302SOL     H224626   5.300   3.538   0.965
 3303SOL    OH224627   3.971   1.764   0.174
 3303SOL     H124628   4.056   1.761   0.219
 3303SOL     H224629   3.925   1.685   0.203
 3304SOL    OH224630   3.524   5.083   6.011
 3304SOL     H124631   3.478   5.150   6.063
 3304SOL     H224632   3.597   5.131   5.971
 3305SOL    OH224633   5.385   2.841   5.292
 3305SOL     H124634   5.323   2.771   5.313
 3305SOL     H224635   5.339   2.895   5.228
 3306SOL    OH224636   0.870   2.705   0.502
 3306SOL     H124637   0.839   2.720   0.413
 3306SOL     H224638   0.944   2.765   0.512
 3307SOL    OH224639   1.333   5.590   0.030
 3307SOL     H124640   1.279   5.535   6.331
 3307SOL     H224641   1.303   5.679   0.012
 3308SOL    OH224642   2.843   4.427   6.244
 3308SOL     H124643   2.876   4.515   6.229
 3308SOL     H224644   2.860   4.411   6.337
 3309SOL    OH224645   4.054   5.109   1.055
 3309SOL     H124646   4.131   5.165   1.054
 3309SOL     H224647   4.016   5.120   0.968
 3310SOL    OH224648   6.281   6.188   1.186
 3310SOL     H124649   6.246   6.264   1.233
 3310SOL     H224650   6.209   6.159   1.130
 3311SOL    OH224651   5.652   0.981   5.048
 3311SOL     H124652   5.622   0.956   5.135
 3311SOL     H224653   5.580   1.032   5.011
 3312SOL    OH224654   2.321   3.249   5.549
 3312SOL     H124655   2.259   3.319   5.528
 3312SOL     H224656   2.269   3.182   5.592
 3313SOL    OH224657   3.175   3.697   0.518
 3313SOL     H124658   3.235   3.652   0.458
 3313SOL     H224659   3.088   3.669   0.489
 3314SOL    OH224660   6.089   0.569   4.898
 3314SOL     H124661   6.070   0.488   4.850
 3314SOL     H224662   6.025   0.632   4.865
 3315SOL    OH224663   0.081   1.728   6.146
 3315SOL     H124664   0.140   1.796   6.112
 3315SOL     H224665   0.039   1.693   6.068
 3316SOL    OH224666   1.167   3.446   1.667
 3316SOL     H124667   1.096   3.409   1.721
 3316SOL     H224668   1.122   3.509   1.610
 3317SOL    OH224669   5.352   4.847   0.611
 3317SOL     H124670   5.287   4.859   0.542
 3317SOL     H224671   5.331   4.913   0.677
 3318SOL    OH224672   6.241   2.289   1.339
 3318SOL     H124673   6.262   2.208   1.385
 3318SOL     H224674   0.031   2.310   1.291
 3319SOL    OH224675   3.080   4.198   5.017
 3319SOL     H124676   2.992   4.232   5.009
 3319SOL     H224677   3.115   4.239   5.096
 3320SOL    OH224678   4.083   3.403   0.797
 3320SOL     H124679   4.117   3.442   0.878
 3320SOL     H224680   4.082   3.476   0.735
 3321SOL    OH224681   5.079   3.297   0.075
 3321SOL     H124682   5.072   3.344   0.158
 3321SOL     H224683   5.083   3.366   0.009
 3322SOL    OH224684   0.700   0.754   0.549
 3322SOL     H124685   0.786   0.712   0.549
 3322SOL     H224686   0.717   0.843   0.579
 3323SOL    OH224687   2.919   4.496   4.866
 3323SOL     H124688   2.885   4.430   4.927
 3323SOL     H224689   2.987   4.450   4.818
 3324SOL    OH224690   2.562   0.942   1.193
 3324SOL     H124691   2.614   0.866   1.166
 3324SOL     H224692   2.612   0.981   1.265
 3325SOL    OH224693   1.393   4.027   5.847
 3325SOL     H124694   1.467   4.077   5.812
 3325SOL     H224695   1.337   4.093   5.889
 3326SOL    OH224696   0.838   4.357   0.317
 3326SOL     H124697   0.784   4.292   0.273
 3326SOL     H224698   0.776   4.422   0.348
 3327SOL    OH224699   0.942   4.602   4.625
 3327SOL     H124700   1.003   4.616   4.552
 3327SOL     H224701   0.921   4.509   4.622
 3328SOL    OH224702   0.900   2.438   0.549
 3328SOL     H124703   0.885   2.533   0.542
 3328SOL     H224704   0.860   2.402   0.470
 3329SOL    OH224705   2.294   0.973   5.434
 3329SOL     H124706   2.227   1.037   5.408
 3329SOL     H224707   2.273   0.894   5.383
 3330SOL    OH224708   5.526   2.298   0.150
 3330SOL     H124709   5.473   2.263   0.078
 3330SOL     H224710   5.559   2.221   0.196
 3331SOL    OH224711   0.757   1.609   0.621
 3331SOL     H124712   0.843   1.639   0.650
 3331SOL     H224713   0.729   1.547   0.688
 3332SOL    OH224714   4.732   3.177   5.675
 3332SOL     H124715   4.642   3.154   5.699
 3332SOL     H224716   4.759   3.108   5.615
 3333SOL    OH224717   4.056   4.107   6.139
 3333SOL     H124718   4.059   4.196   6.106
 3333SOL     H224719   4.145   4.073   6.128
 3334SOL    OH224720   1.884   5.997   4.600
 3334SOL     H124721   1.906   5.919   4.549
 3334SOL     H224722   1.794   5.982   4.629
 3335SOL    OH224723   3.794   0.973   5.901
 3335SOL     H124724   3.732   0.908   5.868
 3335SOL     H224725   3.746   1.056   5.899
 3336SOL    OH224726   3.722   4.313   4.721
 3336SOL     H124727   3.731   4.223   4.689
 3336SOL     H224728   3.647   4.310   4.781
 3337SOL    OH224729   4.554   3.569   6.310
 3337SOL     H124730   4.589   3.619   6.236
 3337SOL     H224731   4.520   3.489   6.271
 3338SOL    OH224732   5.154   6.073   5.284
 3338SOL     H124733   5.181   6.146   5.229
 3338SOL     H224734   5.060   6.086   5.296
 3339SOL    OH224735   6.016   5.643   6.026
 3339SOL     H124736   5.957   5.695   6.081
 3339SOL     H224737   6.103   5.671   6.053
 3340SOL    OH224738   2.422   4.502   5.424
 3340SOL     H124739   2.427   4.412   5.390
 3340SOL     H224740   2.423   4.557   5.346
 3341SOL    OH224741   1.006   5.492   0.404
 3341SOL     H124742   0.999   5.477   0.309
 3341SOL     H224743   1.032   5.407   0.440
 3342SOL    OH224744   2.655   5.421   0.365
 3342SOL     H124745   2.709   5.424   0.445
 3342SOL     H224746   2.569   5.450   0.394
 3343SOL    OH224747   3.656   0.609   4.695
 3343SOL     H124748   3.656   0.705   4.704
 3343SOL     H224749   3.565   0.588   4.674
 3344SOL    OH224750   4.643   3.710   0.168
 3344SOL     H124751   4.677   3.644   0.228
 3344SOL     H224752   4.604   3.660   0.097
 3345SOL    OH224753   4.753   5.732   0.199
 3345SOL     H124754   4.690   5.684   0.253
 3345SOL     H224755   4.836   5.723   0.246
 3346SOL    OH224756   3.210   2.495   0.933
 3346SOL     H124757   3.237   2.445   1.010
 3346SOL     H224758   3.220   2.434   0.859
 3347SOL    OH224759   3.627   5.666   5.111
 3347SOL     H124760   3.587   5.661   5.025
 3347SOL     H224761   3.688   5.739   5.105
 3348SOL    OH224762   4.561   1.919   0.227
 3348SOL     H124763   4.605   1.898   0.145
 3348SOL     H224764   4.592   2.007   0.248
 3349SOL    OH224765   0.228   1.973   5.776
 3349SOL     H124766   0.170   2.037   5.735
 3349SOL     H224767   0.201   1.889   5.739
 3350SOL    OH224768   4.703   2.148   6.043
 3350SOL     H124769   4.721   2.196   6.124
 3350SOL     H224770   4.737   2.205   5.973
 3351SOL    OH224771   0.689   0.664   5.810
 3351SOL     H124772   0.721   0.620   5.889
 3351SOL     H224773   0.756   0.648   5.744
 3352SOL    OH224774   0.672   5.629   0.294
 3352SOL     H124775   0.630   5.682   0.227
 3352SOL     H224776   0.660   5.539   0.264
 3353SOL    OH224777   3.579   2.702   4.932
 3353SOL     H124778   3.608   2.793   4.931
 3353SOL     H224779   3.659   2.650   4.928
 3354SOL    OH224780   0.197   2.039   0.882
 3354SOL     H124781   0.233   2.126   0.899
 3354SOL     H224782   0.154   2.046   0.797
 3355SOL    OH224783   6.194   2.880   5.672
 3355SOL     H124784   6.163   2.873   5.762
 3355SOL     H224785   6.191   2.973   5.651
 3356SOL    OH224786   2.687   3.385   5.434
 3356SOL     H124787   2.640   3.426   5.362
 3356SOL     H224788   2.771   3.359   5.397
 3357SOL    OH224789   0.743   1.045   6.038
 3357SOL     H124790   0.675   1.072   5.976
 3357SOL     H224791   0.705   1.060   6.124
 3358SOL    OH224792   5.678   4.382   4.597
 3358SOL     H124793   5.743   4.450   4.580
 3358SOL     H224794   5.729   4.300   4.597
 3359SOL    OH224795   0.583   2.193   5.464
 3359SOL     H124796   0.609   2.275   5.508
 3359SOL     H224797   0.542   2.141   5.533
 3360SOL    OH224798   4.184   4.168   5.826
 3360SOL     H124799   4.165   4.230   5.896
 3360SOL     H224800   4.267   4.128   5.851
 3361SOL    OH224801   6.260   0.215   6.195
 3361SOL     H124802   6.211   0.291   6.162
 3361SOL     H224803   0.029   0.251   6.260
 3362SOL    OH224804   1.539   5.123   4.629
 3362SOL     H124805   1.482   5.200   4.632
 3362SOL     H224806   1.600   5.141   4.558
 3363SOL    OH224807   1.323   5.564   5.913
 3363SOL     H124808   1.375   5.496   5.869
 3363SOL     H224809   1.240   5.522   5.934
 3364SOL    OH224810   1.417   6.070   4.786
 3364SOL     H124811   1.386   6.155   4.755
 3364SOL     H224812   1.447   6.087   4.875
 3365SOL    OH224813   1.664   0.294   0.164
 3365SOL     H124814   1.713   0.350   0.104
 3365SOL     H224815   1.730   0.242   0.209
 3366SOL    OH224816   0.799   2.132   5.292
 3366SOL     H124817   0.728   2.140   5.356
 3366SOL     H224818   0.760   2.085   5.218
 3367SOL    OH224819   2.945   1.651   1.347
 3367SOL     H124820   2.909   1.636   1.434
 3367SOL     H224821   3.037   1.626   1.355
 3368SOL    OH224822   3.062   5.237   6.175
 3368SOL     H124823   3.092   5.146   6.174
 3368SOL     H224824   3.131   5.285   6.222
 3369SOL    OH224825   5.596   0.764   0.075
 3369SOL     H124826   5.580   0.813   0.155
 3369SOL     H224827   5.566   0.821   0.005
 3370SOL    OH224828   4.379   0.045   6.303
 3370SOL     H124829   4.348   0.038   6.213
 3370SOL     H224830   4.414   6.289   6.324
 3371SOL    OH224831   5.488   0.930   6.233
 3371SOL     H124832   5.394   0.928   6.213
 3371SOL     H224833   5.529   0.960   6.152
 3372SOL    OH224834   4.173   4.368   0.127
 3372SOL     H124835   4.196   4.284   0.167
 3372SOL     H224836   4.243   4.385   0.064
 3373SOL    OH224837   4.827   0.425   0.363
 3373SOL     H124838   4.821   0.464   0.276
 3373SOL     H224839   4.867   0.494   0.417
 3374SOL    OH224840   1.282   4.572   6.218
 3374SOL     H124841   1.334   4.509   6.268
 3374SOL     H224842   1.294   4.655   6.263
 3375SOL    OH224843   4.491   5.975   0.747
 3375SOL     H124844   4.415   5.919   0.732
 3375SOL     H224845   4.530   5.987   0.660
 3376SOL    OH224846   3.535   2.669   5.841
 3376SOL     H124847   3.533   2.764   5.826
 3376SOL     H224848   3.461   2.654   5.900
 3377SOL    OH224849   6.255   1.015   5.403
 3377SOL     H124850   0.004   0.929   5.386
 3377SOL     H224851   6.194   0.999   5.474
 3378SOL    OH224852   0.042   5.440   0.302
 3378SOL     H124853   0.012   5.349   0.297
 3378SOL     H224854   0.133   5.433   0.331
 3379SOL    OH224855   4.910   4.319   5.591
 3379SOL     H124856   4.919   4.225   5.606
 3379SOL     H224857   4.917   4.328   5.496
 3380SOL    OH224858   0.612   6.126   5.771
 3380SOL     H124859   0.557   6.099   5.697
 3380SOL     H224860   0.594   6.220   5.781
 3381SOL    OH224861   0.499   0.576   4.189
 3381SOL     H124862   0.530   0.492   4.155
 3381SOL     H224863   0.414   0.589   4.147
 3382SOL    OH224864   0.488   4.877   0.791
 3382SOL     H124865   0.530   4.791   0.783
 3382SOL     H224866   0.559   4.940   0.782
 3383SOL    OH224867   3.323   2.011   5.027
 3383SOL     H124868   3.292   2.079   4.966
 3383SOL     H224869   3.387   1.961   4.977
 3384SOL    OH224870   0.176   3.257   0.300
 3384SOL     H124871   0.267   3.259   0.269
 3384SOL     H224872   0.146   3.169   0.282
 3385SOL    OH224873   1.674   4.645   0.382
 3385SOL     H124874   1.611   4.690   0.439
 3385SOL     H224875   1.713   4.716   0.330
 3386SOL    OH224876   1.980   5.274   5.748
 3386SOL     H124877   2.041   5.206   5.722
 3386SOL     H224878   2.033   5.335   5.800
 3387SOL    OH224879   6.165   4.634   5.298
 3387SOL     H124880   6.215   4.666   5.374
 3387SOL     H224881   6.098   4.701   5.283
 3388SOL    OH224882   5.833   6.018   5.978
 3388SOL     H124883   5.868   5.968   6.052
 3388SOL     H224884   5.904   6.017   5.913
 3389SOL    OH224885   5.802   1.959   0.091
 3389SOL     H124886   5.857   1.932   0.018
 3389SOL     H224887   5.843   1.921   0.168
 3390SOL    OH224888   0.128   1.334   6.164
 3390SOL     H124889   0.200   1.397   6.174
 3390SOL     H224890   0.050   1.386   6.182
 3391SOL    OH224891   1.162   1.289   1.507
 3391SOL     H124892   1.210   1.349   1.449
 3391SOL     H224893   1.099   1.345   1.552
 3392SOL    OH224894   6.235   3.700   6.064
 3392SOL     H124895   0.021   3.755   6.055
 3392SOL     H224896   6.219   3.697   6.159
 3393SOL    OH224897   3.584   2.769   0.625
 3393SOL     H124898   3.571   2.700   0.560
 3393SOL     H224899   3.652   2.734   0.684
 3394SOL    OH224900   4.049   0.253   4.785
 3394SOL     H124901   4.115   0.323   4.787
 3394SOL     H224902   3.966   0.299   4.799
 3395SOL    OH224903   1.310   3.634   4.982
 3395SOL     H124904   1.215   3.643   4.984
 3395SOL     H224905   1.336   3.678   4.901
 3396SOL    OH224906   1.530   5.680   0.342
 3396SOL     H124907   1.547   5.764   0.300
 3396SOL     H224908   1.565   5.616   0.280
 3397SOL    OH224909   0.075   2.043   1.138
 3397SOL     H124910   0.118   2.023   1.055
 3397SOL     H224911   6.273   2.027   1.121
 3398SOL    OH224912   1.016   4.518   6.235
 3398SOL     H124913   1.109   4.535   6.227
 3398SOL     H224914   1.002   4.503   6.329
 3399SOL    OH224915   5.174   6.064   0.307
 3399SOL     H124916   5.264   6.075   0.339
 3399SOL     H224917   5.165   6.130   0.238
 3400SOL    OH224918   0.129   4.847   5.084
 3400SOL     H124919   0.190   4.864   5.013
 3400SOL     H224920   0.056   4.800   5.044
 3401SOL    OH224921   4.619   4.209   0.625
 3401SOL     H124922   4.620   4.257   0.708
 3401SOL     H224923   4.685   4.141   0.636
 3402SOL    OH224924   2.386   1.417   0.422
 3402SOL     H124925   2.359   1.333   0.460
 3402SOL     H224926   2.478   1.403   0.397
 3403SOL    OH224927   2.855   1.579   5.797
 3403SOL     H124928   2.774   1.549   5.838
 3403SOL     H224929   2.840   1.565   5.703
 3404SOL    OH224930   3.794   3.430   0.043
 3404SOL     H124931   3.798   3.358   6.339
 3404SOL     H224932   3.817   3.391   0.128
 3405SOL    OH224933   2.549   1.089   5.486
 3405SOL     H124934   2.468   1.053   5.451
 3405SOL     H224935   2.557   1.051   5.573
 3406SOL    OH224936   3.625   3.235   1.569
 3406SOL     H124937   3.534   3.240   1.540
 3406SOL     H224938   3.625   3.169   1.638
 3407SOL    OH224939   1.234   1.358   0.291
 3407SOL     H124940   1.266   1.372   0.202
 3407SOL     H224941   1.250   1.442   0.336
 3408SOL    OH224942   4.668   5.915   0.023
 3408SOL     H124943   4.735   5.933   6.315
 3408SOL     H224944   4.709   5.852   0.083
 3409SOL    OH224945   0.601   5.396   0.154
 3409SOL     H124946   0.651   5.376   0.074
 3409SOL     H224947   0.514   5.421   0.123
 3410SOL    OH224948   0.033   4.548   0.347
 3410SOL     H124949   0.010   4.542   0.440
 3410SOL     H224950   0.095   4.621   0.343
 3411SOL    OH224951   1.624   5.872   0.165
 3411SOL     H124952   1.632   5.862   0.070
 3411SOL     H224953   1.712   5.855   0.199
 3412SOL    OH224954   0.714   4.230   5.723
 3412SOL     H124955   0.672   4.180   5.652
 3412SOL     H224956   0.747   4.162   5.782
 3413SOL    OH224957   3.973   3.127   4.388
 3413SOL     H124958   4.020   3.205   4.358
 3413SOL     H224959   4.016   3.104   4.471
 3414SOL    OH224960   5.721   1.886   0.650
 3414SOL     H124961   5.647   1.829   0.632
 3414SOL     H224962   5.759   1.851   0.731
 3415SOL    OH224963   4.465   2.724   6.226
 3415SOL     H124964   4.535   2.750   6.285
 3415SOL     H224965   4.509   2.685   6.150
 3416SOL    OH224966   3.959   0.888   0.021
 3416SOL     H124967   3.865   0.905   0.016
 3416SOL     H224968   3.994   0.960   0.072
 3417SOL    OH224969   0.073   2.657   5.026
 3417SOL     H124970   0.073   2.702   4.942
 3417SOL     H224971   0.137   2.587   5.016
 3418SOL    OH224972   5.904   3.044   0.657
 3418SOL     H124973   5.837   2.979   0.676
 3418SOL     H224974   5.859   3.128   0.667
 3419SOL    OH224975   5.601   1.011   4.587
 3419SOL     H124976   5.668   1.074   4.612
 3419SOL     H224977   5.608   1.005   4.492
 3420SOL    OH224978   3.214   4.701   6.221
 3420SOL     H124979   3.210   4.692   6.126
 3420SOL     H224980   3.197   4.613   6.255
 3421SOL    OH224981   3.052   4.985   1.209
 3421SOL     H124982   3.005   4.992   1.292
 3421SOL     H224983   2.985   4.995   1.142
 3422SOL    OH224984   5.905   5.088   5.369
 3422SOL     H124985   5.835   5.143   5.403
 3422SOL     H224986   5.908   5.107   5.275
 3423SOL    OH224987   1.683   1.356   0.164
 3423SOL     H124988   1.684   1.273   0.213
 3423SOL     H224989   1.631   1.337   0.086
 3424SOL    OH224990   2.557   5.882   0.341
 3424SOL     H124991   2.534   5.938   0.415
 3424SOL     H224992   2.605   5.939   0.281
 3425SOL    OH224993   5.310   2.459   6.154
 3425SOL     H124994   5.248   2.528   6.131
 3425SOL     H224995   5.313   2.402   6.077
 3426SOL    OH224996   5.608   0.276   0.883
 3426SOL     H124997   5.619   0.371   0.884
 3426SOL     H224998   5.564   0.255   0.965
 3427SOL    OH224999   0.134   3.823   6.308
 3427SOL     H125000   0.144   3.847   6.215
 3427SOL     H225001   0.194   3.882   6.354
 3428SOL    OH225002   2.303   2.281   6.024
 3428SOL     H125003   2.351   2.248   5.949
 3428SOL     H225004   2.348   2.362   6.048
 3429SOL    OH225005   3.006   0.632   5.429
 3429SOL     H125006   2.913   0.624   5.411
 3429SOL     H225007   3.041   0.677   5.352
 3430SOL    OH225008   1.037   4.685   0.602
 3430SOL     H125009   1.006   4.600   0.633
 3430SOL     H225010   1.037   4.678   0.506
 3431SOL    OH225011   3.645   2.979   0.456
 3431SOL     H125012   3.594   2.937   0.386
 3431SOL     H225013   3.637   2.919   0.530
 3432SOL    OH225014   0.510   2.927   5.718
 3432SOL     H125015   0.529   2.851   5.662
 3432SOL     H225016   0.428   2.963   5.683
 3433SOL    OH225017   3.945   5.797   0.356
 3433SOL     H125018   3.869   5.761   0.310
 3433SOL     H225019   3.919   5.886   0.379
 3434SOL    OH225020   1.820   2.836   1.084
 3434SOL     H125021   1.913   2.858   1.092
 3434SOL     H225022   1.795   2.870   0.997
 3435SOL    OH225023   0.247   3.470   0.870
 3435SOL     H125024   0.278   3.380   0.879
 3435SOL     H225025   0.308   3.522   0.923
 3436SOL    OH225026   4.719   1.684   5.753
 3436SOL     H125027   4.761   1.709   5.671
 3436SOL     H225028   4.625   1.692   5.736
 3437SOL    OH225029   5.059   3.450   6.133
 3437SOL     H125030   5.065   3.510   6.207
 3437SOL     H225031   4.966   3.447   6.112
 3438SOL    OH225032   2.409   1.187   5.845
 3438SOL     H125033   2.372   1.232   5.769
 3438SOL     H225034   2.464   1.118   5.808
 3439SOL    OH225035   0.621   3.431   4.927
 3439SOL     H125036   0.664   3.367   4.871
 3439SOL     H225037   0.677   3.508   4.924
 3440SOL    OH225038   4.094   2.987   6.262
 3440SOL     H125039   4.181   2.980   6.223
 3440SOL     H225040   4.034   2.988   6.187
 3441SOL    OH225041   2.346   4.324   6.236
 3441SOL     H125042   2.327   4.270   6.159
 3441SOL     H225043   2.424   4.374   6.211
 3442SOL    OH225044   4.733   4.913   4.844
 3442SOL     H125045   4.798   4.854   4.805
 3442SOL     H225046   4.785   4.985   4.879
 3443SOL    OH225047   4.516   0.653   1.254
 3443SOL     H125048   4.452   0.707   1.301
 3443SOL     H225049   4.539   0.704   1.177
 3444SOL    OH225050   1.847   5.562   6.151
 3444SOL     H125051   1.918   5.627   6.155
 3444SOL     H225052   1.807   5.576   6.065
 3445SOL    OH225053   3.896   1.984   4.482
 3445SOL     H125054   3.834   1.954   4.415
 3445SOL     H225055   3.954   2.044   4.436
 3446SOL    OH225056   3.857   0.316   0.853
 3446SOL     H125057   3.829   0.381   0.788
 3446SOL     H225058   3.782   0.307   0.912
 3447SOL    OH225059   1.248   4.868   0.644
 3447SOL     H125060   1.180   4.802   0.639
 3447SOL     H225061   1.247   4.910   0.558
 3448SOL    OH225062   3.266   4.900   1.915
 3448SOL     H125063   3.271   4.996   1.920
 3448SOL     H225064   3.246   4.873   2.005
 3449SOL    OH225065   4.357   4.731   0.076
 3449SOL     H125066   4.296   4.768   0.139
 3449SOL     H225067   4.398   4.658   0.122
 3450SOL    OH225068   1.440   5.809   1.565
 3450SOL     H125069   1.532   5.828   1.545
 3450SOL     H225070   1.443   5.724   1.610
 3451SOL    OH225071   5.475   5.068   5.462
 3451SOL     H125072   5.402   5.129   5.471
 3451SOL     H225073   5.479   5.050   5.368
 3452SOL    OH225074   5.826   0.189   0.043
 3452SOL     H125075   5.811   0.120   0.108
 3452SOL     H225076   5.787   0.155   6.320
 3453SOL    OH225077   1.692   0.471   4.731
 3453SOL     H125078   1.767   0.457   4.673
 3453SOL     H225079   1.712   0.553   4.776
 3454SOL    OH225080   0.132   5.288   0.982
 3454SOL     H125081   0.133   5.383   0.991
 3454SOL     H225082   0.223   5.262   1.001
 3455SOL    OH225083   3.228   3.153   4.869
 3455SOL     H125084   3.138   3.134   4.894
 3455SOL     H225085   3.277   3.146   4.951
 3456SOL    OH225086   1.983   5.109   4.963
 3456SOL     H125087   2.072   5.114   4.928
 3456SOL     H225088   1.948   5.198   4.951
 3457SOL    OH225089   2.903   2.607   0.403
 3457SOL     H125090   2.847   2.547   0.354
 3457SOL     H225091   2.897   2.576   0.494
 3458SOL    OH225092   3.344   5.090   1.654
 3458SOL     H125093   3.436   5.115   1.657
 3458SOL     H225094   3.311   5.108   1.742
 3459SOL    OH225095   5.590   4.480   0.862
 3459SOL     H125096   5.656   4.531   0.814
 3459SOL     H225097   5.555   4.542   0.926
 3460SOL    OH225098   4.368   2.119   6.101
 3460SOL     H125099   4.429   2.119   6.175
 3460SOL     H225100   4.407   2.060   6.037
 3461SOL    OH225101   5.627   4.136   1.248
 3461SOL     H125102   5.713   4.176   1.260
 3461SOL     H225103   5.568   4.209   1.230
 3462SOL    OH225104   2.515   4.804   0.417
 3462SOL     H125105   2.434   4.781   0.463
 3462SOL     H225106   2.529   4.897   0.437
 3463SOL    OH225107   3.311   1.833   5.791
 3463SOL     H125108   3.242   1.850   5.728
 3463SOL     H225109   3.327   1.739   5.785
 3464SOL    OH225110   2.303   1.314   5.621
 3464SOL     H125111   2.249   1.384   5.655
 3464SOL     H225112   2.247   1.268   5.558
 3465SOL    OH225113   2.157   4.065   0.481
 3465SOL     H125114   2.184   3.980   0.445
 3465SOL     H225115   2.067   4.051   0.510
 3466SOL    OH225116   0.244   2.809   5.352
 3466SOL     H125117   0.197   2.781   5.431
 3466SOL     H225118   0.230   2.903   5.348
 3467SOL    OH225119   6.127   3.316   5.125
 3467SOL     H125120   6.181   3.245   5.093
 3467SOL     H225121   6.051   3.317   5.067
 3468SOL    OH225122   5.958   0.950   4.559
 3468SOL     H125123   6.047   0.967   4.529
 3468SOL     H225124   5.916   0.904   4.486
 3469SOL    OH225125   5.936   2.814   0.371
 3469SOL     H125126   5.883   2.739   0.395
 3469SOL     H225127   5.945   2.810   0.276
 3470SOL    OH225128   2.795   1.880   0.502
 3470SOL     H125129   2.829   1.918   0.583
 3470SOL     H225130   2.838   1.929   0.432
 3471SOL    OH225131   1.001   5.153   0.176
 3471SOL     H125132   0.912   5.120   0.184
 3471SOL     H225133   1.035   5.152   0.266
 3472SOL    OH225134   1.376   2.601   0.417
 3472SOL     H125135   1.414   2.601   0.329
 3472SOL     H225136   1.309   2.533   0.414
 3473SOL    OH225137   1.129   3.865   5.377
 3473SOL     H125138   1.078   3.799   5.423
 3473SOL     H225139   1.090   3.948   5.402
 3474SOL    OH225140   0.061   6.056   6.193
 3474SOL     H125141   0.132   6.120   6.184
 3474SOL     H225142   0.048   6.022   6.105
 3475SOL    OH225143   5.403   3.285   1.690
 3475SOL     H125144   5.424   3.378   1.677
 3475SOL     H225145   5.365   3.281   1.777
 3476SOL    OH225146   2.443   3.720   0.242
 3476SOL     H125147   2.439   3.792   0.180
 3476SOL     H225148   2.424   3.642   0.190
 3477SOL    OH225149   2.377   2.093   5.218
 3477SOL     H125150   2.426   2.025   5.170
 3477SOL     H225151   2.359   2.160   5.152
 3478SOL    OH225152   2.534   1.788   6.095
 3478SOL     H125153   2.511   1.816   6.184
 3478SOL     H225154   2.488   1.849   6.038
 3479SOL    OH225155   0.774   5.005   0.236
 3479SOL     H125156   0.688   5.045   0.245
 3479SOL     H225157   0.768   4.954   0.155
 3480SOL    OH225158   4.302   3.684   5.978
 3480SOL     H125159   4.232   3.710   5.919
 3480SOL     H225160   4.282   3.594   6.001
 3481SOL    OH225161   1.024   1.625   0.909
 3481SOL     H125162   1.037   1.632   0.814
 3481SOL     H225163   1.065   1.704   0.945
 3482SOL    OH225164   0.523   2.987   4.662
 3482SOL     H125165   0.597   2.928   4.678
 3482SOL     H225166   0.562   3.064   4.620
 3483SOL    OH225167   6.143   0.719   6.052
 3483SOL     H125168   6.194   0.763   6.120
 3483SOL     H225169   6.133   0.629   6.084
 3484SOL    OH225170   1.996   1.361   6.019
 3484SOL     H125171   1.962   1.440   5.978
 3484SOL     H225172   1.935   1.292   5.994
 3485SOL    OH225173   1.718   5.352   1.434
 3485SOL     H125174   1.725   5.441   1.470
 3485SOL     H225175   1.624   5.336   1.427
 3486SOL    OH225176   5.665   0.803   4.766
 3486SOL     H125177   5.658   0.878   4.706
 3486SOL     H225178   5.758   0.781   4.764
 3487SOL    OH225179   6.064   0.020   6.201
 3487SOL     H125180   6.132   0.087   6.201
 3487SOL     H225181   5.987   0.062   6.163
 3488SOL    OH225182   4.236   2.067   5.389
 3488SOL     H125183   4.228   2.094   5.297
 3488SOL     H225184   4.146   2.059   5.420
 3489SOL    OH225185   4.487   1.073   4.766
 3489SOL     H125186   4.395   1.097   4.778
 3489SOL     H225187   4.519   1.135   4.700
 3490SOL    OH225188   3.718   4.207   1.052
 3490SOL     H125189   3.683   4.200   1.141
 3490SOL     H225190   3.811   4.226   1.064
 3491SOL    OH225191   3.798   1.179   6.304
 3491SOL     H125192   3.873   1.237   6.291
 3491SOL     H225193   3.730   1.215   6.247
 3492SOL    OH225194   2.513   4.127   0.819
 3492SOL     H125195   2.517   4.067   0.893
 3492SOL     H225196   2.426   4.113   0.781
 3493SOL    OH225197   4.454   2.820   5.839
 3493SOL     H125198   4.473   2.755   5.906
 3493SOL     H225199   4.529   2.815   5.779
 3494SOL    OH225200   3.031   0.068   6.017
 3494SOL     H125201   3.016   0.030   5.930
 3494SOL     H225202   3.022   0.162   6.004
 3495SOL    OH225203   4.025   3.242   6.341
 3495SOL     H125204   4.060   3.154   6.326
 3495SOL     H225205   4.098   3.292   0.019
 3496SOL    OH225206   4.520   4.597   5.014
 3496SOL     H125207   4.588   4.539   4.981
 3496SOL     H225208   4.446   4.539   5.034
 3497SOL    OH225209   1.054   3.268   6.155
 3497SOL     H125210   1.062   3.175   6.133
 3497SOL     H225211   0.977   3.297   6.106
 3498SOL    OH225212   6.028   4.930   1.137
 3498SOL     H125213   6.017   4.917   1.231
 3498SOL     H225214   6.097   4.996   1.130
 3499SOL    OH225215   3.897   1.535   0.311
 3499SOL     H125216   3.978   1.488   0.333
 3499SOL     H225217   3.867   1.572   0.394
 3500SOL    OH225218   0.038   5.936   5.947
 3500SOL     H125219   0.043   6.006   5.882
 3500SOL     H225220   6.276   5.868   5.905
 3501SOL    OH225221   3.200   0.074   0.791
 3501SOL     H125222   3.142   0.029   0.730
 3501SOL     H225223   3.181   0.167   0.778
 3502SOL    OH225224   1.549   2.236   0.465
 3502SOL     H125225   1.631   2.228   0.417
 3502SOL     H225226   1.485   2.192   0.410
 3503SOL    OH225227   6.213   1.680   1.435
 3503SOL     H125228   6.141   1.637   1.389
 3503SOL     H225229   0.001   1.653   1.388
 3504SOL    OH225230   3.939   3.213   4.815
 3504SOL     H125231   3.974   3.162   4.888
 3504SOL     H225232   3.911   3.296   4.855
 3505SOL    OH225233   2.135   6.000   0.068
 3505SOL     H125234   2.199   6.005   6.355
 3505SOL     H225235   2.129   5.906   0.088
 3506SOL    OH225236   2.017   0.370   6.020
 3506SOL     H125237   1.952   0.439   6.007
 3506SOL     H225238   2.070   0.401   6.093
 3507SOL    OH225239   0.871   4.067   6.105
 3507SOL     H125240   0.925   4.146   6.097
 3507SOL     H225241   0.927   4.005   6.152
 3508SOL    OH225242   5.446   5.559   4.661
 3508SOL     H125243   5.442   5.530   4.752
 3508SOL     H225244   5.373   5.515   4.618
 3509SOL    OH225245   3.565   2.261   0.245
 3509SOL     H125246   3.639   2.314   0.276
 3509SOL     H225247   3.599   2.216   0.168
 3510SOL    OH225248   5.104   0.519   0.735
 3510SOL     H125249   5.070   0.492   0.820
 3510SOL     H225250   5.176   0.459   0.717
 3511SOL    OH225251   4.757   3.023   0.202
 3511SOL     H125252   4.853   3.029   0.200
 3511SOL     H225253   4.727   3.114   0.194
 3512SOL    OH225254   1.785   5.571   0.068
 3512SOL     H125255   1.697   5.536   0.084
 3512SOL     H225256   1.789   5.580   6.330
 3513SOL    OH225257   1.964   2.539   6.236
 3513SOL     H125258   1.959   2.514   6.143
 3513SOL     H225259   2.046   2.502   6.267
 3514SOL    OH225260   3.883   5.922   0.752
 3514SOL     H125261   3.934   6.002   0.741
 3514SOL     H225262   3.933   5.870   0.815
 3515SOL    OH225263   1.263   4.218   5.991
 3515SOL     H125264   1.287   4.310   5.977
 3515SOL     H225265   1.173   4.222   6.025
 3516SOL    OH225266   5.612   1.891   5.667
 3516SOL     H125267   5.539   1.953   5.664
 3516SOL     H225268   5.622   1.861   5.577
 3517SOL    OH225269   1.524   1.894   5.751
 3517SOL     H125270   1.572   1.915   5.671
 3517SOL     H225271   1.576   1.934   5.821
 3518SOL    OH225272   0.547   2.155   1.014
 3518SOL     H125273   0.564   2.080   1.070
 3518SOL     H225274   0.578   2.230   1.064
 3519SOL    OH225275   2.959   2.002   0.314
 3519SOL     H125276   3.019   2.043   0.376
 3519SOL     H225277   3.012   1.937   0.267
 3520SOL    OH225278   0.301   2.802   6.103
 3520SOL     H125279   0.316   2.850   6.184
 3520SOL     H225280   0.387   2.797   6.062
 3521SOL    OH225281   1.747   1.754   4.930
 3521SOL     H125282   1.730   1.667   4.893
 3521SOL     H225283   1.795   1.737   5.011
 3522SOL    OH225284   5.108   3.857   1.724
 3522SOL     H125285   5.018   3.887   1.735
 3522SOL     H225286   5.111   3.822   1.635
 3523SOL    OH225287   2.532   5.601   5.301
 3523SOL     H125288   2.504   5.582   5.211
 3523SOL     H225289   2.450   5.609   5.350
 3524SOL    OH225290   0.841   3.940   5.590
 3524SOL     H125291   0.833   3.952   5.685
 3524SOL     H225292   0.868   3.848   5.580
 3525SOL    OH225293   2.779   4.994   5.330
 3525SOL     H125294   2.722   4.917   5.321
 3525SOL     H225295   2.750   5.053   5.261
 3526SOL    OH225296   2.710   3.435   0.457
 3526SOL     H125297   2.748   3.434   0.370
 3526SOL     H225298   2.667   3.521   0.464
 3527SOL    OH225299   0.307   3.833   0.854
 3527SOL     H125300   0.215   3.848   0.877
 3527SOL     H225301   0.334   3.758   0.908
 3528SOL    OH225302   0.261   3.507   6.056
 3528SOL     H125303   0.203   3.533   6.127
 3528SOL     H225304   0.327   3.451   6.098
 3529SOL    OH225305   5.582   1.126   0.499
 3529SOL     H125306   5.570   1.086   0.586
 3529SOL     H225307   5.530   1.206   0.503
 3530SOL    OH225308   4.221   0.008   4.772
 3530SOL     H125309   4.166   0.086   4.775
 3530SOL     H225310   4.191   6.291   4.694
 3531SOL    OH225311   3.947   0.486   5.634
 3531SOL     H125312   3.930   0.464   5.543
 3531SOL     H225313   3.995   0.568   5.630
 3532SOL    OH225314   5.342   0.042   6.290
 3532SOL     H125315   5.410   6.306   6.285
 3532SOL     H225316   5.389   0.125   6.299
 3533SOL    OH225317   2.496   3.121   5.738
 3533SOL     H125318   2.461   3.192   5.683
 3533SOL     H225319   2.541   3.167   5.809
 3534SOL    OH225320   6.050   2.593   5.556
 3534SOL     H125321   5.962   2.621   5.580
 3534SOL     H225322   6.098   2.590   5.639
 3535SOL    OH225323   6.086   5.064   0.437
 3535SOL     H125324   6.086   4.973   0.465
 3535SOL     H225325   5.999   5.097   0.463
 3536SOL    OH225326   1.678   6.104   5.743
 3536SOL     H125327   1.766   6.140   5.730
 3536SOL     H225328   1.621   6.160   5.690
 3537SOL    OH225329   4.281   1.497   5.892
 3537SOL     H125330   4.298   1.591   5.896
 3537SOL     H225331   4.201   1.489   5.840
 3538SOL    OH225332   5.548   2.401   0.499
 3538SOL     H125333   5.567   2.310   0.520
 3538SOL     H225334   5.469   2.398   0.444
 3539SOL    OH225335   2.816   0.691   5.180
 3539SOL     H125336   2.907   0.718   5.180
 3539SOL     H225337   2.768   0.765   5.142
 3540SOL    OH225338   2.762   0.937   6.349
 3540SOL     H125339   2.700   0.883   0.041
 3540SOL     H225340   2.728   0.935   6.260
 3541SOL    OH225341   1.929   3.446   5.710
 3541SOL     H125342   1.853   3.419   5.761
 3541SOL     H225343   2.001   3.393   5.746
 3542SOL    OH225344   0.940   3.359   1.793
 3542SOL     H125345   0.919   3.313   1.874
 3542SOL     H225346   0.864   3.344   1.737
 3543SOL    OH225347   0.994   4.047   4.281
 3543SOL     H125348   0.969   3.955   4.285
 3543SOL     H225349   0.915   4.092   4.251
 3544SOL    OH225350   1.358   1.713   0.089
 3544SOL     H125351   1.292   1.724   0.021
 3544SOL     H225352   1.417   1.788   0.078
 3545SOL    OH225353   2.106   2.091   0.252
 3545SOL     H125354   2.105   2.185   0.233
 3545SOL     H225355   2.022   2.059   0.218
 3546SOL    OH225356   5.743   6.298   4.638
 3546SOL     H125357   5.693   6.226   4.677
 3546SOL     H225358   5.793   6.257   4.568
 3547SOL    OH225359   5.950   5.208   0.758
 3547SOL     H125360   5.931   5.134   0.816
 3547SOL     H225361   5.912   5.182   0.674
 3548SOL    OH225362   3.517   0.590   1.884
 3548SOL     H125363   3.602   0.629   1.866
 3548SOL     H225364   3.482   0.566   1.798
 3549SOL    OH225365   1.281   5.961   5.592
 3549SOL     H125366   1.331   5.913   5.658
 3549SOL     H225367   1.284   5.905   5.514
 3550SOL    OH225368   3.159   5.962   2.201
 3550SOL     H125369   3.072   5.998   2.221
 3550SOL     H225370   3.210   6.037   2.172
 3551SOL    OH225371   1.130   0.814   5.376
 3551SOL     H125372   1.149   0.771   5.459
 3551SOL     H225373   1.169   0.900   5.384
 3552SOL    OH225374   2.982   2.588   6.288
 3552SOL     H125375   3.005   2.514   6.232
 3552SOL     H225376   3.025   2.569   0.014
 3553SOL    OH225377   1.942   3.723   5.763
 3553SOL     H125378   1.941   3.629   5.746
 3553SOL     H225379   2.010   3.736   5.828
 3554SOL    OH225380   2.084   1.954   5.961
 3554SOL     H125381   2.024   1.912   5.900
 3554SOL     H225382   2.081   1.900   6.039
 3555SOL    OH225383   0.627   0.593   5.402
 3555SOL     H125384   0.693   0.661   5.418
 3555SOL     H225385   0.647   0.562   5.313
 3556SOL    OH225386   1.566   2.493   0.581
 3556SOL     H125387   1.498   2.532   0.527
 3556SOL     H225388   1.567   2.401   0.555
 3557SOL    OH225389   2.132   5.235   6.147
 3557SOL     H125390   2.048   5.265   6.182
 3557SOL     H225391   2.166   5.311   6.099
 3558SOL    OH225392   2.425   1.361   0.767
 3558SOL     H125393   2.361   1.431   0.774
 3558SOL     H225394   2.435   1.328   0.857
 3559SOL    OH225395   0.492   0.180   5.458
 3559SOL     H125396   0.420   0.174   5.522
 3559SOL     H225397   0.536   0.096   5.465
 3560SOL    OH225398   1.043   4.309   0.501
 3560SOL     H125399   0.975   4.317   0.433
 3560SOL     H225400   1.008   4.357   0.576
 3561SOL    OH225401   1.025   6.267   5.962
 3561SOL     H125402   0.987   6.205   5.901
 3561SOL     H225403   1.104   6.299   5.918
 3562SOL    OH225404   2.299   1.104   1.817
 3562SOL     H125405   2.221   1.049   1.816
 3562SOL     H225406   2.367   1.049   1.776
 3563SOL    OH225407   0.312   0.287   6.122
 3563SOL     H125408   0.255   0.311   6.195
 3563SOL     H225409   0.259   0.229   6.068
 3564SOL    OH225410   4.875   1.683   5.017
 3564SOL     H125411   4.851   1.774   5.036
 3564SOL     H225412   4.969   1.687   4.996
 3565SOL    OH225413   3.548   5.632   5.646
 3565SOL     H125414   3.464   5.587   5.637
 3565SOL     H225415   3.586   5.630   5.558
 3566SOL    OH225416   4.729   5.020   0.030
 3566SOL     H125417   4.683   4.945   6.349
 3566SOL     H225418   4.762   5.069   6.312
 3567SOL    OH225419   1.930   6.215   5.993
 3567SOL     H125420   1.921   6.217   5.898
 3567SOL     H225421   1.923   6.122   6.016
 3568SOL    OH225422   5.232   1.279   5.851
 3568SOL     H125423   5.255   1.267   5.759
 3568SOL     H225424   5.189   1.364   5.854
 3569SOL    OH225425   4.989   2.412   1.423
 3569SOL     H125426   4.936   2.449   1.353
 3569SOL     H225427   5.073   2.458   1.418
 3570SOL    OH225428   1.226   4.262   5.529
 3570SOL     H125429   1.280   4.286   5.604
 3570SOL     H225430   1.288   4.243   5.459
 3571SOL    OH225431   3.072   5.953   6.224
 3571SOL     H125432   3.063   5.898   6.146
 3571SOL     H225433   2.993   5.936   6.275
 3572SOL    OH225434   5.393   1.793   0.799
 3572SOL     H125435   5.439   1.728   0.852
 3572SOL     H225436   5.428   1.780   0.711
 3573SOL    OH225437   3.548   0.397   0.655
 3573SOL     H125438   3.546   0.333   0.583
 3573SOL     H225439   3.637   0.433   0.652
 3574SOL    OH225440   1.025   3.880   6.236
 3574SOL     H125441   1.115   3.908   6.252
 3574SOL     H225442   1.034   3.789   6.206
 3575SOL    OH225443   1.545   1.390   6.023
 3575SOL     H125444   1.579   1.477   6.044
 3575SOL     H225445   1.603   1.357   5.955
 3576SOL    OH225446   3.087   0.348   2.104
 3576SOL     H125447   2.993   0.366   2.097
 3576SOL     H225448   3.126   0.431   2.131
 3577SOL    OH225449   3.673   3.828   4.964
 3577SOL     H125450   3.617   3.750   4.967
 3577SOL     H225451   3.759   3.795   4.938
 3578SOL    OH225452   2.737   4.267   1.293
 3578SOL     H125453   2.822   4.234   1.325
 3578SOL     H225454   2.743   4.362   1.302
 3579SOL    OH225455   3.818   1.675   0.541
 3579SOL     H125456   3.801   1.768   0.527
 3579SOL     H225457   3.737   1.642   0.581
 3580SOL    OH225458   4.511   0.534   0.106
 3580SOL     H125459   4.480   0.445   0.090
 3580SOL     H225460   4.606   0.526   0.116
 3581SOL    OH225461   3.135   6.120   5.467
 3581SOL     H125462   3.069   6.073   5.519
 3581SOL     H225463   3.187   6.167   5.533
 3582SOL    OH225464   0.105   5.914   5.111
 3582SOL     H125465   0.111   5.863   5.031
 3582SOL     H225466   0.117   5.850   5.181
 3583SOL    OH225467   3.643   0.281   1.021
 3583SOL     H125468   3.579   0.245   0.959
 3583SOL     H225469   3.626   0.235   1.103
 3584SOL    OH225470   1.000   4.100   0.185
 3584SOL     H125471   1.057   4.157   0.134
 3584SOL     H225472   0.921   4.152   0.201
 3585SOL    OH225473   1.578   1.677   0.753
 3585SOL     H125474   1.543   1.609   0.810
 3585SOL     H225475   1.664   1.645   0.727
 3586SOL    OH225476   5.539   6.190   6.225
 3586SOL     H125477   5.595   6.125   6.267
 3586SOL     H225478   5.499   6.144   6.151
 3587SOL    OH225479   1.139   2.021   4.704
 3587SOL     H125480   1.109   1.937   4.740
 3587SOL     H225481   1.111   2.086   4.768
 3588SOL    OH225482   5.088   4.653   6.080
 3588SOL     H125483   5.074   4.656   5.986
 3588SOL     H225484   5.121   4.564   6.096
 3589SOL    OH225485   1.449   1.482   0.900
 3589SOL     H125486   1.481   1.511   0.985
 3589SOL     H225487   1.356   1.464   0.914
 3590SOL    OH225488   1.556   1.042   6.262
 3590SOL     H125489   1.500   0.981   6.213
 3590SOL     H225490   1.645   1.012   6.243
 3591SOL    OH225491   1.546   3.519   1.123
 3591SOL     H125492   1.486   3.576   1.172
 3591SOL     H225493   1.522   3.533   1.031
 3592SOL    OH225494   5.083   1.894   5.083
 3592SOL     H125495   5.119   1.953   5.017
 3592SOL     H225496   5.062   1.951   5.157
 3593SOL    OH225497   0.940   0.308   0.208
 3593SOL     H125498   0.900   0.230   0.170
 3593SOL     H225499   0.949   0.368   0.134
 3594SOL    OH225500   3.232   2.792   5.402
 3594SOL     H125501   3.216   2.697   5.400
 3594SOL     H225502   3.260   2.813   5.313
 3595SOL    OH225503   3.579   3.689   0.628
 3595SOL     H125504   3.553   3.632   0.700
 3595SOL     H225505   3.543   3.774   0.650
 3596SOL    OH225506   2.874   4.226   5.635
 3596SOL     H125507   2.950   4.283   5.628
 3596SOL     H225508   2.815   4.254   5.565
 3597SOL    OH225509   2.729   2.881   6.068
 3597SOL     H125510   2.795   2.913   6.007
 3597SOL     H225511   2.662   2.949   6.069
 3598SOL    OH225512   1.340   2.548   6.176
 3598SOL     H125513   1.315   2.585   6.260
 3598SOL     H225514   1.404   2.610   6.141
 3599SOL    OH225515   4.577   5.598   0.371
 3599SOL     H125516   4.487   5.628   0.366
 3599SOL     H225517   4.571   5.503   0.381
 3600SOL    OH225518   6.175   2.272   6.222
 3600SOL     H125519   6.132   2.249   6.304
 3600SOL     H225520   6.130   2.351   6.192
 3601SOL    OH225521   3.543   6.175   5.418
 3601SOL     H125522   3.561   6.118   5.344
 3601SOL     H225523   3.615   6.159   5.479
 3602SOL    OH225524   1.689   1.976   5.965
 3602SOL     H125525   1.748   2.009   6.032
 3602SOL     H225526   1.624   1.925   6.014
 3603SOL    OH225527   1.806   3.559   1.027
 3603SOL     H125528   1.847   3.615   1.093
 3603SOL     H225529   1.720   3.539   1.062
 3604SOL    OH225530   1.717   3.138   1.383
 3604SOL     H125531   1.657   3.142   1.458
 3604SOL     H225532   1.717   3.046   1.357
 3605SOL    OH225533   1.075   4.890   5.385
 3605SOL     H125534   0.986   4.857   5.374
 3605SOL     H225535   1.118   4.873   5.300
 3606SOL    OH225536   5.901   3.833   0.866
 3606SOL     H125537   5.866   3.748   0.839
 3606SOL     H225538   5.983   3.842   0.817
 3607SOL    OH225539   1.074   0.413   1.617
 3607SOL     H125540   1.108   0.472   1.683
 3607SOL     H225541   1.143   0.409   1.550
 3608SOL    OH225542   4.610   0.539   5.711
 3608SOL     H125543   4.653   0.582   5.785
 3608SOL     H225544   4.538   0.597   5.688
 3609SOL    OH225545   5.726   4.372   5.742
 3609SOL     H125546   5.648   4.405   5.697
 3609SOL     H225547   5.776   4.451   5.762
 3610SOL    OH225548   3.182   0.758   6.272
 3610SOL     H125549   3.174   0.662   6.270
 3610SOL     H225550   3.143   0.784   6.356
 3611SOL    OH225551   2.947   3.545   5.602
 3611SOL     H125552   2.927   3.562   5.510
 3611SOL     H225553   2.998   3.621   5.630
 3612SOL    OH225554   0.954   5.723   0.857
 3612SOL     H125555   0.936   5.673   0.777
 3612SOL     H225556   0.986   5.808   0.826
 3613SOL    OH225557   4.221   3.391   0.100
 3613SOL     H125558   4.209   3.402   0.194
 3613SOL     H225559   4.298   3.335   0.092
 3614SOL    OH225560   3.237   5.604   1.745
 3614SOL     H125561   3.250   5.533   1.808
 3614SOL     H225562   3.144   5.627   1.755
 3615SOL    OH225563   0.419   3.909   4.678
 3615SOL     H125564   0.387   3.924   4.767
 3615SOL     H225565   0.487   3.843   4.687
 3616SOL    OH225566   0.189   1.717   5.685
 3616SOL     H125567   0.135   1.644   5.655
 3616SOL     H225568   0.225   1.687   5.769
 3617SOL    OH225569   1.816   0.568   5.120
 3617SOL     H125570   1.793   0.604   5.034
 3617SOL     H225571   1.811   0.643   5.179
 3618SOL    OH225572   0.354   6.250   0.708
 3618SOL     H125573   0.296   6.218   0.776
 3618SOL     H225574   0.438   6.209   0.726
 3619SOL    OH225575   2.849   1.598   1.098
 3619SOL     H125576   2.885   1.623   1.183
 3619SOL     H225577   2.874   1.506   1.088
 3620SOL    OH225578   5.834   0.627   0.141
 3620SOL     H125579   5.820   0.593   0.230
 3620SOL     H225580   5.750   0.666   0.117
 3621SOL    OH225581   0.413   3.679   4.946
 3621SOL     H125582   0.486   3.683   4.884
 3621SOL     H225583   0.378   3.768   4.948
 3622SOL    OH225584   4.313   4.515   1.750
 3622SOL     H125585   4.317   4.493   1.656
 3622SOL     H225586   4.396   4.559   1.767
 3623SOL    OH225587   0.906   5.711   1.856
 3623SOL     H125588   0.835   5.774   1.867
 3623SOL     H225589   0.922   5.676   1.944
 3624SOL    OH225590   5.877   0.165   5.788
 3624SOL     H125591   5.859   0.090   5.844
 3624SOL     H225592   5.796   0.179   5.739
 3625SOL    OH225593   1.366   3.690   1.247
 3625SOL     H125594   1.402   3.768   1.206
 3625SOL     H225595   1.284   3.718   1.287
 3626SOL    OH225596   0.377   5.911   6.307
 3626SOL     H125597   0.342   5.884   6.222
 3626SOL     H225598   0.300   5.932   0.001
 3627SOL    OH225599   3.413   5.254   5.522
 3627SOL     H125600   3.326   5.215   5.530
 3627SOL     H225601   3.438   5.277   5.612
 3628SOL    OH225602   2.338   4.030   1.684
 3628SOL     H125603   2.302   4.092   1.621
 3628SOL     H225604   2.425   4.064   1.705
 3629SOL    OH225605   4.696   0.594   5.099
 3629SOL     H125606   4.707   0.499   5.102
 3629SOL     H225607   4.609   0.606   5.060
 3630SOL    OH225608   1.893   4.646   5.476
 3630SOL     H125609   1.919   4.601   5.556
 3630SOL     H225610   1.850   4.726   5.505
 3631SOL    OH225611   2.502   4.458   0.378
 3631SOL     H125612   2.585   4.412   0.391
 3631SOL     H225613   2.518   4.515   0.303
 3632SOL    OH225614   1.173   2.841   1.172
 3632SOL     H125615   1.154   2.850   1.266
 3632SOL     H225616   1.137   2.755   1.149
 3633SOL    OH225617   0.846   2.186   6.176
 3633SOL     H125618   0.854   2.113   6.114
 3633SOL     H225619   0.755   2.213   6.171
 3634SOL    OH225620   5.640   1.835   6.111
 3634SOL     H125621   5.601   1.777   6.177
 3634SOL     H225622   5.634   1.922   6.149
 3635SOL    OH225623   5.270   5.256   5.462
 3635SOL     H125624   5.319   5.334   5.491
 3635SOL     H225625   5.254   5.272   5.369
 3636SOL    OH225626   3.234   5.098   0.332
 3636SOL     H125627   3.304   5.132   0.276
 3636SOL     H225628   3.180   5.045   0.273
 3637SOL    OH225629   1.402   5.822   1.045
 3637SOL     H125630   1.345   5.747   1.026
 3637SOL     H225631   1.395   5.835   1.140
 3638SOL    OH225632   3.868   3.447   0.433
 3638SOL     H125633   3.891   3.385   0.364
 3638SOL     H225634   3.884   3.533   0.394
 3639SOL    OH225635   3.318   1.171   5.949
 3639SOL     H125636   3.373   1.093   5.953
 3639SOL     H225637   3.287   1.184   6.038
 3640SOL    OH225638   1.813   1.547   6.351
 3640SOL     H125639   1.884   1.486   6.332
 3640SOL     H225640   1.760   1.503   0.060
 3641SOL    OH225641   4.442   3.547   1.930
 3641SOL     H125642   4.483   3.501   2.004
 3641SOL     H225643   4.465   3.494   1.853
 3642SOL    OH225644   5.712   5.535   0.176
 3642SOL     H125645   5.641   5.471   0.179
 3642SOL     H225646   5.711   5.577   0.262
 3643SOL    OH225647   5.729   2.597   0.433
 3643SOL     H125648   5.666   2.530   0.460
 3643SOL     H225649   5.676   2.677   0.428
 3644SOL    OH225650   2.889   3.919   6.107
 3644SOL     H125651   2.974   3.882   6.128
 3644SOL     H225652   2.902   4.014   6.113
 3645SOL    OH225653   4.799   0.522   0.098
 3645SOL     H125654   4.770   0.487   0.013
 3645SOL     H225655   4.836   0.608   0.076
 3646SOL    OH225656   0.720   3.857   0.603
 3646SOL     H125657   0.719   3.861   0.507
 3646SOL     H225658   0.633   3.888   0.628
 3647SOL    OH225659   2.811   5.464   5.725
 3647SOL     H125660   2.856   5.440   5.805
 3647SOL     H225661   2.760   5.386   5.702
 3648SOL    OH225662   1.324   1.279   5.905
 3648SOL     H125663   1.246   1.312   5.950
 3648SOL     H225664   1.397   1.325   5.945
 3649SOL    OH225665   0.645   2.837   5.355
 3649SOL     H125666   0.620   2.791   5.435
 3649SOL     H225667   0.581   2.808   5.290
 3650SOL    OH225668   1.893   3.326   5.119
 3650SOL     H125669   1.953   3.286   5.181
 3650SOL     H225670   1.948   3.353   5.045
 3651SOL    OH225671   2.794   5.735   0.632
 3651SOL     H125672   2.831   5.810   0.585
 3651SOL     H225673   2.804   5.759   0.725
 3652SOL    OH225674   4.210   2.192   0.490
 3652SOL     H125675   4.237   2.271   0.444
 3652SOL     H225676   4.276   2.179   0.558
 3653SOL    OH225677   2.049   5.751   6.174
 3653SOL     H125678   2.129   5.737   6.123
 3653SOL     H225679   2.078   5.748   6.265
 3654SOL    OH225680   1.859   4.342   6.236
 3654SOL     H125681   1.912   4.416   6.207
 3654SOL     H225682   1.923   4.277   6.266
 3655SOL    OH225683   3.140   6.171   0.013
 3655SOL     H125684   3.077   6.162   0.085
 3655SOL     H225685   3.120   6.098   6.313
 3656SOL    OH225686   2.908   0.613   1.238
 3656SOL     H125687   2.961   0.574   1.307
 3656SOL     H225688   2.969   0.626   1.165
 3657SOL    OH225689   5.464   3.098   1.308
 3657SOL     H125690   5.468   3.076   1.401
 3657SOL     H225691   5.371   3.105   1.289
 3658SOL    OH225692   0.945   4.771   6.151
 3658SOL     H125693   0.931   4.773   6.057
 3658SOL     H225694   0.964   4.679   6.170
 3659SOL    OH225695   0.858   3.081   1.013
 3659SOL     H125696   0.947   3.075   0.978
 3659SOL     H225697   0.824   3.162   0.976
 3660SOL    OH225698   1.242   5.613   0.993
 3660SOL     H125699   1.252   5.540   0.933
 3660SOL     H225700   1.156   5.600   1.034
 3661SOL    OH225701   0.962   1.573   6.351
 3661SOL     H125702   0.997   1.484   6.345
 3661SOL     H225703   0.869   1.561   0.012
 3662SOL    OH225704   4.463   0.481   0.399
 3662SOL     H125705   4.516   0.559   0.386
 3662SOL     H225706   4.384   0.496   0.348
 3663SOL    OH225707   6.026   2.343   5.453
 3663SOL     H125708   6.040   2.434   5.479
 3663SOL     H225709   5.978   2.349   5.370
 3664SOL    OH225710   6.120   3.343   1.252
 3664SOL     H125711   6.039   3.390   1.231
 3664SOL     H225712   6.095   3.250   1.251
 3665SOL    OH225713   2.359   4.742   6.093
 3665SOL     H125714   2.439   4.790   6.070
 3665SOL     H225715   2.378   4.704   6.179
 3666SOL    OH225716   3.185   2.399   0.470
 3666SOL     H125717   3.265   2.408   0.418
 3666SOL     H225718   3.115   2.387   0.406
 3667SOL    OH225719   1.443   4.336   1.447
 3667SOL     H125720   1.370   4.373   1.399
 3667SOL     H225721   1.478   4.408   1.499
 3668SOL    OH225722   1.411   4.928   4.333
 3668SOL     H125723   1.502   4.920   4.304
 3668SOL     H225724   1.378   4.838   4.333
 3669SOL    OH225725   4.437   5.268   5.500
 3669SOL     H125726   4.469   5.274   5.410
 3669SOL     H225727   4.502   5.315   5.552
 3670SOL    OH225728   2.633   3.608   5.926
 3670SOL     H125729   2.661   3.559   5.849
 3670SOL     H225730   2.669   3.695   5.913
 3671SOL    OH225731   4.932   2.951   4.963
 3671SOL     H125732   4.880   2.875   4.938
 3671SOL     H225733   4.996   2.960   4.892
 3672SOL    OH225734   1.820   4.125   1.003
 3672SOL     H125735   1.733   4.138   0.965
 3672SOL     H225736   1.807   4.064   1.075
 3673SOL    OH225737   4.488   5.672   6.354
 3673SOL     H125738   4.418   5.712   0.047
 3673SOL     H225739   4.560   5.735   6.357
 3674SOL    OH225740   3.576   3.913   6.082
 3674SOL     H125741   3.567   3.842   6.018
 3674SOL     H225742   3.661   3.953   6.061
 3675SOL    OH225743   6.027   4.165   1.009
 3675SOL     H125744   6.044   4.191   1.100
 3675SOL     H225745   6.030   4.070   1.011
 3676SOL    OH225746   0.002   2.270   5.405
 3676SOL     H125747   6.199   2.277   5.422
 3676SOL     H225748   0.024   2.350   5.357
 3677SOL    OH225749   2.213   3.819   0.366
 3677SOL     H125750   2.158   3.814   0.288
 3677SOL     H225751   2.298   3.784   0.338
 3678SOL    OH225752   0.562   0.893   0.831
 3678SOL     H125753   0.605   0.934   0.755
 3678SOL     H225754   0.472   0.881   0.803
 3679SOL    OH225755   3.971   3.626   6.303
 3679SOL     H125756   4.048   3.628   0.001
 3679SOL     H225757   3.918   3.553   6.338
 3680SOL    OH225758   2.678   6.001   5.921
 3680SOL     H125759   2.690   5.932   5.986
 3680SOL     H225760   2.766   6.016   5.886
 3681SOL    OH225761   0.059   2.045   1.420
 3681SOL     H125762   0.070   2.031   1.326
 3681SOL     H225763   0.098   1.967   1.460
 3682SOL    OH225764   3.477   0.182   0.828
 3682SOL     H125765   3.474   0.260   0.772
 3682SOL     H225766   3.386   0.152   0.830
 3683SOL    OH225767   1.483   3.975   6.103
 3683SOL     H125768   1.448   3.979   6.014
 3683SOL     H225769   1.562   3.922   6.096
 3684SOL    OH225770   0.004   1.085   6.245
 3684SOL     H125771   6.209   1.123   6.224
 3684SOL     H225772   0.066   1.157   6.236
 3685SOL    OH225773   5.630   1.135   5.410
 3685SOL     H125774   5.600   1.048   5.382
 3685SOL     H225775   5.643   1.183   5.328
 3686SOL    OH225776   1.890   1.113   5.538
 3686SOL     H125777   1.960   1.120   5.473
 3686SOL     H225778   1.821   1.064   5.494
 3687SOL    OH225779   1.253   2.190   1.022
 3687SOL     H125780   1.181   2.161   0.966
 3687SOL     H225781   1.224   2.171   1.111
 3688SOL    OH225782   4.716   6.115   0.265
 3688SOL     H125783   4.684   6.061   0.193
 3688SOL     H225784   4.715   6.204   0.230
 3689SOL    OH225785   0.354   1.533   6.180
 3689SOL     H125786   0.376   1.521   6.273
 3689SOL     H225787   0.391   1.618   6.157
 3690SOL    OH225788   2.761   3.002   5.090
 3690SOL     H125789   2.803   2.928   5.134
 3690SOL     H225790   2.828   3.036   5.030
 3691SOL    OH225791   5.577   5.978   5.298
 3691SOL     H125792   5.579   6.064   5.256
 3691SOL     H225793   5.501   5.982   5.356
 3692SOL    OH225794   3.072   5.675   5.775
 3692SOL     H125795   3.115   5.590   5.783
 3692SOL     H225796   3.020   5.669   5.695
 3693SOL    OH225797   4.599   2.025   4.838
 3693SOL     H125798   4.595   2.102   4.781
 3693SOL     H225799   4.551   2.050   4.917
 3694SOL    OH225800   4.606   1.438   5.241
 3694SOL     H125801   4.539   1.499   5.210
 3694SOL     H225802   4.607   1.450   5.336
 3695SOL    OH225803   2.735   3.552   0.738
 3695SOL     H125804   2.642   3.530   0.732
 3695SOL     H225805   2.772   3.519   0.657
 3696SOL    OH225806   0.475   2.046   5.673
 3696SOL     H125807   0.505   1.955   5.663
 3696SOL     H225808   0.388   2.038   5.712
 3697SOL    OH225809   0.444   2.423   5.723
 3697SOL     H125810   0.530   2.422   5.682
 3697SOL     H225811   0.387   2.462   5.657
 3698SOL    OH225812   4.787   1.942   5.304
 3698SOL     H125813   4.877   1.966   5.326
 3698SOL     H225814   4.786   1.939   5.208
 3699SOL    OH225815   1.475   0.435   0.459
 3699SOL     H125816   1.457   0.407   0.369
 3699SOL     H225817   1.544   0.375   0.489
 3700SOL    OH225818   5.889   2.278   1.606
 3700SOL     H125819   5.831   2.329   1.549
 3700SOL     H225820   5.872   2.187   1.582
 3701SOL    OH225821   1.103   0.131   1.633
 3701SOL     H125822   1.044   0.106   1.704
 3701SOL     H225823   1.109   0.226   1.639
 3702SOL    OH225824   2.265   3.914   1.914
 3702SOL     H125825   2.350   3.900   1.956
 3702SOL     H225826   2.286   3.947   1.827
 3703SOL    OH225827   3.784   2.207   1.597
 3703SOL     H125828   3.718   2.153   1.554
 3703SOL     H225829   3.765   2.296   1.566
 3704SOL    OH225830   3.390   0.668   1.003
 3704SOL     H125831   3.298   0.656   1.025
 3704SOL     H225832   3.437   0.628   1.076
 3705SOL    OH225833   0.499   1.959   0.034
 3705SOL     H125834   0.568   1.922   6.337
 3705SOL     H225835   0.447   2.012   6.332
 3706SOL    OH225836   1.225   1.236   5.637
 3706SOL     H125837   1.262   1.308   5.587
 3706SOL     H225838   1.256   1.250   5.727
 3707SOL    OH225839   1.656   2.181   6.336
 3707SOL     H125840   1.718   2.138   6.277
 3707SOL     H225841   1.707   2.250   0.021
 3708SOL    OH225842   1.977   4.543   5.714
 3708SOL     H125843   2.020   4.458   5.727
 3708SOL     H225844   1.925   4.556   5.793
 3709SOL    OH225845   2.116   3.400   0.678
 3709SOL     H125846   2.128   3.486   0.636
 3709SOL     H225847   2.091   3.421   0.768
 3710SOL    OH225848   0.434   3.627   1.014
 3710SOL     H125849   0.519   3.644   0.974
 3710SOL     H225850   0.430   3.688   1.089
 3711SOL    OH225851   2.747   0.415   5.442
 3711SOL     H125852   2.828   0.386   5.484
 3711SOL     H225853   2.763   0.404   5.348
 3712SOL    OH225854   6.212   4.515   1.127
 3712SOL     H125855   6.290   4.467   1.097
 3712SOL     H225856   6.245   4.602   1.151
 3713SOL    OH225857   5.805   3.563   1.788
 3713SOL     H125858   5.721   3.606   1.801
 3713SOL     H225859   5.796   3.477   1.829
 3714SOL    OH225860   0.101   5.785   5.604
 3714SOL     H125861   0.166   5.828   5.660
 3714SOL     H225862   0.153   5.736   5.540
 3715SOL    OH225863   4.299   5.588   0.341
 3715SOL     H125864   4.325   5.496   0.349
 3715SOL     H225865   4.258   5.594   0.255
 3716SOL    OH225866   0.430   4.626   1.990
 3716SOL     H125867   0.400   4.715   2.011
 3716SOL     H225868   0.496   4.608   2.057
 3717SOL    OH225869   0.054   1.488   5.616
 3717SOL     H125870   0.035   1.418   5.553
 3717SOL     H225871   6.269   1.546   5.611
 3718SOL    OH225872   1.396   5.732   5.001
 3718SOL     H125873   1.447   5.707   4.924
 3718SOL     H225874   1.322   5.781   4.965
 3719SOL    OH225875   1.501   4.938   5.789
 3719SOL     H125876   1.508   4.950   5.695
 3719SOL     H225877   1.468   4.848   5.799
 3720SOL    OH225878   5.130   2.121   0.762
 3720SOL     H125879   5.149   2.214   0.763
 3720SOL     H225880   5.198   2.081   0.817
 3721SOL    OH225881   1.635   5.455   5.365
 3721SOL     H125882   1.689   5.377   5.350
 3721SOL     H225883   1.581   5.463   5.287
 3722SOL    OH225884   5.712   4.745   5.350
 3722SOL     H125885   5.623   4.714   5.367
 3722SOL     H225886   5.749   4.759   5.437
 3723SOL    OH225887   5.830   0.971   6.220
 3723SOL     H125888   5.783   1.033   6.275
 3723SOL     H225889   5.894   0.930   6.279
 3724SOL    OH225890   4.714   0.427   6.212
 3724SOL     H125891   4.792   0.413   6.158
 3724SOL     H225892   4.648   0.369   6.174
 3725SOL    OH225893   4.084   2.870   0.513
 3725SOL     H125894   4.054   2.831   0.596
 3725SOL     H225895   4.017   2.934   0.490
 3726SOL    OH225896   3.351   0.200   1.560
 3726SOL     H125897   3.275   0.255   1.580
 3726SOL     H225898   3.316   0.110   1.562
 3727SOL    OH225899   1.273   4.984   6.138
 3727SOL     H125900   1.276   4.906   6.193
 3727SOL     H225901   1.362   5.020   6.144
 3728SOL    OH225902   3.604   3.039   0.846
 3728SOL     H125903   3.540   3.014   0.779
 3728SOL     H225904   3.587   2.979   0.918
 3729SOL    OH225905   4.303   2.671   0.092
 3729SOL     H125906   4.278   2.579   0.083
 3729SOL     H225907   4.358   2.687   0.015
 3730SOL    OH225908   0.260   3.095   5.926
 3730SOL     H125909   0.278   3.181   5.889
 3730SOL     H225910   0.331   3.080   5.989
 3731SOL    OH225911   2.816   4.396   1.892
 3731SOL     H125912   2.723   4.397   1.916
 3731SOL     H225913   2.823   4.328   1.826
 3732SOL    OH225914   3.115   4.962   6.200
 3732SOL     H125915   3.160   4.878   6.208
 3732SOL     H225916   3.049   4.949   6.131
 3733SOL    OH225917   2.498   5.411   5.902
 3733SOL     H125918   2.545   5.483   5.860
 3733SOL     H225919   2.565   5.345   5.919
 3734SOL    OH225920   6.202   1.564   5.965
 3734SOL     H125921   6.192   1.532   6.055
 3734SOL     H225922   6.201   1.485   5.911
 3735SOL    OH225923   4.997   4.190   5.952
 3735SOL     H125924   5.066   4.203   5.887
 3735SOL     H225925   4.955   4.108   5.925
 3736SOL    OH225926   1.453   3.405   5.805
 3736SOL     H125927   1.426   3.462   5.733
 3736SOL     H225928   1.383   3.413   5.869
 3737SOL    OH225929   2.497   1.806   5.332
 3737SOL     H125930   2.499   1.845   5.245
 3737SOL     H225931   2.450   1.723   5.319
 3738SOL    OH225932   3.893   1.923   0.799
 3738SOL     H125933   3.830   1.994   0.805
 3738SOL     H225934   3.957   1.953   0.733
 3739SOL    OH225935   5.195   4.264   5.467
 3739SOL     H125936   5.171   4.357   5.471
 3739SOL     H225937   5.146   4.231   5.392
 3740SOL    OH225938   5.428   3.804   0.084
 3740SOL     H125939   5.415   3.899   0.079
 3740SOL     H225940   5.431   3.776   6.350
 3741SOL    OH225941   6.176   1.921   5.472
 3741SOL     H125942   6.142   1.980   5.540
 3741SOL     H225943   6.122   1.940   5.395
 3742SOL    OH225944   1.856   0.145   6.016
 3742SOL     H125945   1.890   0.056   6.021
 3742SOL     H225946   1.934   0.201   6.018
 3743SOL    OH225947   4.953   0.880   0.524
 3743SOL     H125948   5.011   0.894   0.450
 3743SOL     H225949   4.919   0.967   0.545
 3744SOL    OH225950   0.504   2.479   5.986
 3744SOL     H125951   0.485   2.462   5.894
 3744SOL     H225952   0.418   2.485   6.028
 3745SOL    OH225953   5.818   2.186   5.553
 3745SOL     H125954   5.804   2.124   5.481
 3745SOL     H225955   5.889   2.242   5.523
 3746SOL    OH225956   1.738   3.372   0.829
 3746SOL     H125957   1.725   3.303   0.893
 3746SOL     H225958   1.768   3.447   0.880
 3747SOL    OH225959   1.000   4.191   4.924
 3747SOL     H125960   0.976   4.172   5.015
 3747SOL     H225961   0.917   4.208   4.880
 3748SOL    OH225962   3.148   4.549   2.126
 3748SOL     H125963   3.117   4.547   2.035
 3748SOL     H225964   3.150   4.458   2.153
 3749SOL    OH225965   1.202   2.135   5.086
 3749SOL     H125966   1.143   2.160   5.015
 3749SOL     H225967   1.285   2.115   5.043
 3750SOL    OH225968   2.361   4.942   0.106
 3750SOL     H125969   2.303   4.912   0.175
 3750SOL     H225970   2.434   4.984   0.152
 3751SOL    OH225971   0.585   2.267   6.155
 3751SOL     H125972   0.509   2.210   6.166
 3751SOL     H225973   0.559   2.329   6.087
 3752SOL    OH225974   4.899   3.962   5.837
 3752SOL     H125975   4.903   3.986   5.744
 3752SOL     H225976   4.954   3.884   5.844
 3753SOL    OH225977   3.025   3.461   5.922
 3753SOL     H125978   3.043   3.555   5.919
 3753SOL     H225979   3.111   3.420   5.913
 3754SOL    OH225980   4.979   0.890   5.446
 3754SOL     H125981   4.926   0.851   5.376
 3754SOL     H225982   5.007   0.815   5.499
 3755SOL    OH225983   0.489   4.776   5.448
 3755SOL     H125984   0.406   4.727   5.452
 3755SOL     H225985   0.547   4.720   5.396
 3756SOL    OH225986   1.007   1.810   4.826
 3756SOL     H125987   0.978   1.737   4.882
 3756SOL     H225988   0.947   1.882   4.848
 3757SOL    OH225989   0.741   0.264   0.840
 3757SOL     H125990   0.794   0.328   0.887
 3757SOL     H225991   0.656   0.307   0.829
 3758SOL    OH225992   2.822   0.416   5.186
 3758SOL     H125993   2.822   0.509   5.162
 3758SOL     H225994   2.913   0.389   5.179
 3759SOL    OH225995   6.009   0.539   5.614
 3759SOL     H125996   6.065   0.598   5.664
 3759SOL     H225997   6.069   0.477   5.574
 3760SOL    OH225998   1.689   0.183   5.804
 3760SOL     H125999   1.744   0.159   5.879
 3760SOL     H226000   1.687   0.104   5.750
 3761SOL    OH226001   5.895   4.104   0.013
 3761SOL     H126002   5.832   4.087   0.082
 3761SOL     H226003   5.962   4.159   0.053
 3762SOL    OH226004   4.100   3.100   4.630
 3762SOL     H126005   4.034   3.140   4.686
 3762SOL     H226006   4.176   3.085   4.687
 3763SOL    OH226007   5.626   5.374   6.108
 3763SOL     H126008   5.683   5.380   6.032
 3763SOL     H226009   5.686   5.361   6.182
 3764SOL    OH226010   1.665   3.246   5.403
 3764SOL     H126011   1.612   3.241   5.483
 3764SOL     H226012   1.708   3.161   5.399
 3765SOL    OH226013   3.954   1.679   0.897
 3765SOL     H126014   3.923   1.760   0.858
 3765SOL     H226015   4.006   1.707   0.973
 3766SOL    OH226016   5.194   0.282   6.155
 3766SOL     H126017   5.219   0.360   6.205
 3766SOL     H226018   5.204   0.210   6.216
 3767SOL    OH226019   2.942   4.910   5.994
 3767SOL     H126020   2.856   4.931   5.957
 3767SOL     H226021   3.003   4.927   5.922
 3768SOL    OH226022   5.088   3.749   5.856
 3768SOL     H126023   5.121   3.762   5.945
 3768SOL     H226024   5.143   3.806   5.801
 3769SOL    OH226025   4.402   1.528   0.061
 3769SOL     H126026   4.418   1.597   6.355
 3769SOL     H226027   4.487   1.515   0.104
 3770SOL    OH226028   4.469   4.211   5.110
 3770SOL     H126029   4.451   4.187   5.019
 3770SOL     H226030   4.416   4.289   5.125
 3771SOL    OH226031   2.178   4.680   4.745
 3771SOL     H126032   2.203   4.635   4.826
 3771SOL     H226033   2.086   4.702   4.757
 3772SOL    OH226034   1.117   5.042   5.912
 3772SOL     H126035   1.115   4.959   5.864
 3772SOL     H226036   1.170   5.023   5.989
 3773SOL    OH226037   0.050   4.052   1.481
 3773SOL     H126038   0.126   4.085   1.528
 3773SOL     H226039   0.049   4.102   1.399
 3774SOL    OH226040   5.457   0.681   4.888
 3774SOL     H126041   5.391   0.740   4.925
 3774SOL     H226042   5.523   0.739   4.852
 3775SOL    OH226043   1.602   0.682   6.153
 3775SOL     H126044   1.538   0.751   6.136
 3775SOL     H226045   1.613   0.683   6.248
 3776SOL    OH226046   4.266   2.425   0.334
 3776SOL     H126047   4.245   2.409   0.242
 3776SOL     H226048   4.215   2.503   0.357
 3777SOL    OH226049   6.236   5.120   0.054
 3777SOL     H126050   6.190   5.203   0.041
 3777SOL     H226051   6.273   5.127   0.142
 3778SOL    OH226052   4.417   0.279   5.047
 3778SOL     H126053   4.384   0.189   5.045
 3778SOL     H226054   4.480   0.283   4.975
 3779SOL    OH226055   0.573   5.811   0.106
 3779SOL     H126056   0.502   5.832   0.045
 3779SOL     H226057   0.553   5.862   0.184
 3780SOL    OH226058   4.742   0.321   5.075
 3780SOL     H126059   4.687   0.307   4.998
 3780SOL     H226060   4.790   0.239   5.086
 3781SOL    OH226061   3.384   5.741   0.001
 3781SOL     H126062   3.310   5.756   0.059
 3781SOL     H226063   3.454   5.711   0.059
 3782SOL    OH226064   2.570   1.939   5.554
 3782SOL     H126065   2.523   2.022   5.548
 3782SOL     H226066   2.544   1.891   5.476
 3783SOL    OH226067   4.400   2.360   5.294
 3783SOL     H126068   4.391   2.397   5.206
 3783SOL     H226069   4.476   2.302   5.288
 3784SOL    OH226070   5.145   0.887   0.321
 3784SOL     H126071   5.123   0.888   0.228
 3784SOL     H226072   5.175   0.797   0.338
 3785SOL    OH226073   3.449   1.061   0.554
 3785SOL     H126074   3.370   1.081   0.604
 3785SOL     H226075   3.475   0.974   0.584
 3786SOL    OH226076   1.639   0.654   0.511
 3786SOL     H126077   1.573   0.589   0.488
 3786SOL     H226078   1.641   0.714   0.437
 3787SOL    OH226079   1.977   4.605   6.195
 3787SOL     H126080   2.042   4.563   6.251
 3787SOL     H226081   2.008   4.695   6.185
 3788SOL    OH226082   4.693   4.611   5.850
 3788SOL     H126083   4.748   4.554   5.904
 3788SOL     H226084   4.626   4.644   5.910
 3789SOL    OH226085   4.115   4.706   6.270
 3789SOL     H126086   4.061   4.782   6.251
 3789SOL     H226087   4.186   4.740   6.324
 3790SOL    OH226088   5.012   6.012   4.990
 3790SOL     H126089   5.014   5.967   4.906
 3790SOL     H226090   5.048   6.099   4.972
 3791SOL    OH226091   0.128   3.888   0.344
 3791SOL     H126092   0.212   3.874   0.388
 3791SOL     H226093   0.151   3.909   0.254
 3792SOL    OH226094   2.882   5.072   0.772
 3792SOL     H126095   2.946   5.082   0.702
 3792SOL     H226096   2.835   4.991   0.750
 3793SOL    OH226097   3.203   0.342   0.428
 3793SOL     H126098   3.251   0.268   0.392
 3793SOL     H226099   3.195   0.404   0.356
 3794SOL    OH226100   4.117   1.576   6.116
 3794SOL     H126101   4.189   1.537   6.066
 3794SOL     H226102   4.158   1.641   6.172
 3795SOL    OH226103   5.078   0.360   5.482
 3795SOL     H126104   5.083   0.266   5.501
 3795SOL     H226105   4.993   0.388   5.518
 3796SOL    OH226106   5.357   2.469   0.282
 3796SOL     H126107   5.278   2.459   0.229
 3796SOL     H226108   5.423   2.417   0.236
 3797SOL    OH226109   1.116   2.078   0.525
 3797SOL     H126110   1.041   2.113   0.573
 3797SOL     H226111   1.191   2.090   0.585
 3798SOL    OH226112   2.549   0.282   5.589
 3798SOL     H126113   2.458   0.307   5.574
 3798SOL     H226114   2.599   0.330   5.523
 3799SOL    OH226115   1.978   5.187   1.053
 3799SOL     H126116   1.971   5.227   1.139
 3799SOL     H226117   1.971   5.093   1.069
 3800SOL    OH226118   2.476   4.553   5.144
 3800SOL     H126119   2.394   4.563   5.094
 3800SOL     H226120   2.516   4.473   5.109
 3801SOL    OH226121   4.540   2.385   0.365
 3801SOL     H126122   4.565   2.432   0.444
 3801SOL     H226123   4.446   2.402   0.355
 3802SOL    OH226124   2.125   3.663   4.832
 3802SOL     H126125   2.049   3.721   4.833
 3802SOL     H226126   2.200   3.723   4.835
 3803SOL    OH226127   1.499   0.084   0.236
 3803SOL     H126128   1.555   0.159   0.214
 3803SOL     H226129   1.557   0.008   0.227
 3804SOL    OH226130   3.260   5.524   0.390
 3804SOL     H126131   3.304   5.444   0.419
 3804SOL     H226132   3.238   5.570   0.470
 3805SOL    OH226133   0.910   5.894   2.138
 3805SOL     H126134   0.964   5.912   2.214
 3805SOL     H226135   0.910   5.798   2.130
 3806SOL    OH226136   4.313   0.251   5.501
 3806SOL     H126137   4.373   0.256   5.576
 3806SOL     H226138   4.365   0.283   5.427
 3807SOL    OH226139   2.775   4.606   5.682
 3807SOL     H126140   2.686   4.572   5.675
 3807SOL     H226141   2.799   4.629   5.592
 3808SOL    OH226142   4.169   0.218   0.511
 3808SOL     H126143   4.251   0.171   0.500
 3808SOL     H226144   4.121   0.168   0.577
 3809SOL    OH226145   0.434   1.493   4.715
 3809SOL     H126146   0.479   1.483   4.799
 3809SOL     H226147   0.488   1.556   4.666
 3810SOL    OH226148   5.793   5.375   5.888
 3810SOL     H126149   5.797   5.279   5.886
 3810SOL     H226150   5.884   5.403   5.878
 3811SOL    OH226151   1.186   1.882   0.898
 3811SOL     H126152   1.178   1.873   0.993
 3811SOL     H226153   1.131   1.957   0.876
 3812SOL    OH226154   2.891   5.910   1.906
 3812SOL     H126155   2.887   5.862   1.989
 3812SOL     H226156   2.982   5.938   1.899
 3813SOL    OH226157   0.133   2.199   0.224
 3813SOL     H126158   0.133   2.198   0.129
 3813SOL     H226159   0.058   2.253   0.248
 3814SOL    OH226160   0.495   5.448   5.644
 3814SOL     H126161   0.585   5.414   5.648
 3814SOL     H226162   0.498   5.514   5.575
 3815SOL    OH226163   5.451   0.320   0.223
 3815SOL     H126164   5.365   0.333   0.264
 3815SOL     H226165   5.513   0.358   0.285
 3816SOL    OH226166   5.216   3.140   0.692
 3816SOL     H126167   5.292   3.196   0.675
 3816SOL     H226168   5.187   3.112   0.605
 3817SOL    OH226169   4.596   3.114   1.183
 3817SOL     H126170   4.514   3.065   1.195
 3817SOL     H226171   4.604   3.166   1.263
 3818SOL    OH226172   4.996   4.256   0.687
 3818SOL     H126173   4.976   4.292   0.773
 3818SOL     H226174   4.934   4.184   0.676
 3819SOL    OH226175   3.090   2.597   0.193
 3819SOL     H126176   3.040   2.632   0.266
 3819SOL     H226177   3.085   2.502   0.204
 3820SOL    OH226178   5.610   6.235   1.247
 3820SOL     H126179   5.528   6.275   1.276
 3820SOL     H226180   5.600   6.142   1.266
 3821SOL    OH226181   4.349   4.627   5.433
 3821SOL     H126182   4.277   4.630   5.371
 3821SOL     H226183   4.422   4.590   5.383
 3822SOL    OH226184   5.553   0.893   5.294
 3822SOL     H126185   5.614   0.830   5.333
 3822SOL     H226186   5.467   0.851   5.300
 3823SOL    OH226187   5.568   4.830   0.793
 3823SOL     H126188   5.502   4.823   0.724
 3823SOL     H226189   5.638   4.770   0.766
 3824SOL    OH226190   1.187   4.245   0.047
 3824SOL     H126191   1.265   4.300   0.042
 3824SOL     H226192   1.208   4.168   6.351
 3825SOL    OH226193   3.563   4.020   0.926
 3825SOL     H126194   3.615   4.093   0.960
 3825SOL     H226195   3.624   3.947   0.923
 3826SOL    OH226196   6.036   1.390   4.137
 3826SOL     H126197   6.083   1.473   4.148
 3826SOL     H226198   5.949   1.416   4.107
 3827SOL    OH226199   3.729   3.550   1.307
 3827SOL     H126200   3.808   3.500   1.291
 3827SOL     H226201   3.671   3.527   1.235
 3828SOL    OH226202   6.288   2.571   0.648
 3828SOL     H126203   6.221   2.520   0.602
 3828SOL     H226204   0.027   2.635   0.583
 3829SOL    OH226205   3.471   3.305   6.324
 3829SOL     H126206   3.486   3.398   6.337
 3829SOL     H226207   3.505   3.287   6.237
 3830SOL    OH226208   0.240   3.529   1.311
 3830SOL     H126209   0.156   3.501   1.347
 3830SOL     H226210   0.299   3.455   1.328
 3831SOL    OH226211   2.932   0.312   6.321
 3831SOL     H126212   2.907   0.224   6.290
 3831SOL     H226213   2.899   0.316   0.053
 3832SOL    OH226214   2.243   5.838   5.338
 3832SOL     H126215   2.221   5.915   5.391
 3832SOL     H226216   2.244   5.765   5.400
 3833SOL    OH226217   6.063   3.582   0.503
 3833SOL     H126218   6.133   3.643   0.525
 3833SOL     H226219   6.074   3.509   0.563
 3834SOL    OH226220   4.912   0.647   6.127
 3834SOL     H126221   4.944   0.560   6.102
 3834SOL     H226222   4.851   0.671   6.057
 3835SOL    OH226223   5.993   4.135   0.733
 3835SOL     H126224   6.045   4.055   0.723
 3835SOL     H226225   6.000   4.157   0.825
 3836SOL    OH226226   6.080   5.424   5.875
 3836SOL     H126227   6.058   5.496   5.933
 3836SOL     H226228   6.098   5.466   5.791
 3837SOL    OH226229   3.734   2.831   6.199
 3837SOL     H126230   3.775   2.744   6.195
 3837SOL     H226231   3.692   2.834   6.285
 3838SOL    OH226232   0.354   0.550   0.984
 3838SOL     H126233   0.318   0.494   1.052
 3838SOL     H226234   0.322   0.638   1.005
 3839SOL    OH226235   1.058   5.206   5.498
 3839SOL     H126236   0.981   5.150   5.487
 3839SOL     H226237   1.113   5.187   5.422
 3840SOL    OH226238   2.168   2.363   0.600
 3840SOL     H126239   2.242   2.304   0.592
 3840SOL     H226240   2.092   2.309   0.576
 3841SOL    OH226241   0.123   2.729   5.589
 3841SOL     H126242   0.035   2.767   5.598
 3841SOL     H226243   0.166   2.749   5.672
 3842SOL    OH226244   0.775   1.195   2.043
 3842SOL     H126245   0.711   1.236   1.984
 3842SOL     H226246   0.722   1.140   2.101
 3843SOL    OH226247   4.508   3.751   0.633
 3843SOL     H126248   4.545   3.790   0.712
 3843SOL     H226249   4.572   3.684   0.608
 3844SOL    OH226250   2.162   0.663   5.891
 3844SOL     H126251   2.107   0.643   5.816
 3844SOL     H226252   2.104   0.712   5.951
 3845SOL    OH226253   4.708   0.930   5.788
 3845SOL     H126254   4.779   0.978   5.746
 3845SOL     H226255   4.631   0.948   5.734
 3846SOL    OH226256   3.361   6.214   0.657
 3846SOL     H126257   3.305   6.141   0.631
 3846SOL     H226258   3.305   6.271   0.709
 3847SOL    OH226259   4.874   1.144   6.027
 3847SOL     H126260   4.944   1.099   5.980
 3847SOL     H226261   4.916   1.221   6.065
 3848SOL    OH226262   3.315   4.008   6.126
 3848SOL     H126263   3.407   3.987   6.113
 3848SOL     H226264   3.278   4.010   6.037
 3849SOL    OH226265   4.606   3.470   5.877
 3849SOL     H126266   4.577   3.561   5.869
 3849SOL     H226267   4.529   3.418   5.853
 3850SOL    OH226268   1.065   5.206   0.788
 3850SOL     H126269   0.978   5.205   0.827
 3850SOL     H226270   1.106   5.126   0.819
 3851SOL    OH226271   5.902   6.052   0.129
 3851SOL     H126272   5.917   5.973   0.180
 3851SOL     H226273   5.988   6.075   0.095
 3852SOL    OH226274   3.688   0.931   0.002
 3852SOL     H126275   3.711   1.020   6.334
 3852SOL     H226276   3.607   0.913   6.313
 3853SOL    OH226277   4.240   4.244   5.571
 3853SOL     H126278   4.219   4.209   5.658
 3853SOL     H226279   4.182   4.320   5.562
 3854SOL    OH226280   3.042   4.882   2.378
 3854SOL     H126281   3.002   4.825   2.444
 3854SOL     H226282   2.971   4.935   2.344
 3855SOL    OH226283   1.282   2.863   6.222
 3855SOL     H126284   1.264   2.794   6.286
 3855SOL     H226285   1.352   2.828   6.168
 3856SOL    OH226286   1.616   5.087   0.240
 3856SOL     H126287   1.616   5.114   0.332
 3856SOL     H226288   1.670   5.009   0.238
 3857SOL    OH226289   5.671   3.943   0.965
 3857SOL     H126290   5.752   3.914   0.924
 3857SOL     H226291   5.670   4.038   0.952
 3858SOL    OH226292   6.026   1.378   0.143
 3858SOL     H126293   6.079   1.305   0.175
 3858SOL     H226294   5.936   1.344   0.144
 3859SOL    OH226295   2.758   1.729   5.346
 3859SOL     H126296   2.775   1.760   5.257
 3859SOL     H226297   2.665   1.745   5.360
 3860SOL    OH226298   0.742   3.253   4.764
 3860SOL     H126299   0.786   3.170   4.785
 3860SOL     H226300   0.699   3.236   4.681
 3861SOL    OH226301   2.132   0.101   5.323
 3861SOL     H126302   2.067   0.093   5.253
 3861SOL     H226303   2.190   0.026   5.311
 3862SOL    OH226304   4.920   1.055   5.661
 3862SOL     H126305   4.889   1.134   5.617
 3862SOL     H226306   4.946   0.997   5.589
 3863SOL    OH226307   0.373   5.456   0.012
 3863SOL     H126308   0.378   5.501   6.285
 3863SOL     H226309   0.304   5.502   0.059
 3864SOL    OH226310   0.950   4.602   5.606
 3864SOL     H126311   0.996   4.557   5.535
 3864SOL     H226312   0.865   4.558   5.611
 3865SOL    OH226313   4.131   5.870   0.168
 3865SOL     H126314   4.156   5.787   0.127
 3865SOL     H226315   4.070   5.845   0.237
 3866SOL    OH226316   5.283   2.729   0.366
 3866SOL     H126317   5.325   2.643   0.356
 3866SOL     H226318   5.316   2.761   0.450
 3867SOL    OH226319   0.546   1.789   1.001
 3867SOL     H126320   0.497   1.794   1.083
 3867SOL     H226321   0.529   1.701   0.968
 3868SOL    OH226322   5.949   0.317   5.181
 3868SOL     H126323   5.893   0.304   5.105
 3868SOL     H226324   5.962   0.230   5.218
 3869SOL    OH226325   6.149   3.896   0.747
 3869SOL     H126326   6.188   3.848   0.674
 3869SOL     H226327   6.218   3.899   0.814
 3870SOL    OH226328   3.529   4.979   0.070
 3870SOL     H126329   3.585   4.950   6.355
 3870SOL     H226330   3.467   4.906   0.083
 3871SOL    OH226331   2.282   5.195   0.307
 3871SOL     H126332   2.270   5.284   0.340
 3871SOL     H226333   2.371   5.195   0.271
 3872SOL    OH226334   2.668   5.578   6.236
 3872SOL     H126335   2.620   5.498   6.256
 3872SOL     H226336   2.744   5.576   6.295
 3873SOL    OH226337   0.915   3.661   0.581
 3873SOL     H126338   0.848   3.725   0.605
 3873SOL     H226339   0.989   3.713   0.550
 3874SOL    OH226340   5.464   3.686   5.740
 3874SOL     H126341   5.541   3.638   5.711
 3874SOL     H226342   5.491   3.778   5.742
 3875SOL    OH226343   1.760   5.407   0.474
 3875SOL     H126344   1.833   5.458   0.437
 3875SOL     H226345   1.706   5.471   0.519
 3876SOL    OH226346   5.365   3.119   6.143
 3876SOL     H126347   5.334   3.200   6.103
 3876SOL     H226348   5.382   3.141   6.234
 3877SOL    OH226349   3.215   3.962   0.597
 3877SOL     H126350   3.194   3.876   0.562
 3877SOL     H226351   3.147   3.980   0.661
 3878SOL    OH226352   3.476   5.013   1.397
 3878SOL     H126353   3.421   5.034   1.323
 3878SOL     H226354   3.418   5.019   1.473
 3879SOL    OH226355   3.864   5.758   6.238
 3879SOL     H126356   3.815   5.827   6.283
 3879SOL     H226357   3.806   5.730   6.167
 3880SOL    OH226358   6.088   2.926   5.936
 3880SOL     H126359   6.026   2.996   5.916
 3880SOL     H226360   6.166   2.972   5.969
 3881SOL    OH226361   0.727   4.255   5.154
 3881SOL     H126362   0.700   4.291   5.238
 3881SOL     H226363   0.811   4.212   5.173
 3882SOL    OH226364   0.131   5.301   5.450
 3882SOL     H126365   0.153   5.362   5.379
 3882SOL     H226366   0.118   5.217   5.406
 3883SOL    OH226367   3.517   2.247   1.126
 3883SOL     H126368   3.587   2.258   1.191
 3883SOL     H226369   3.527   2.157   1.095
 3884SOL    OH226370   6.071   3.295   6.122
 3884SOL     H126371   6.166   3.295   6.123
 3884SOL     H226372   6.046   3.374   6.170
 3885SOL    OH226373   6.184   4.766   0.773
 3885SOL     H126374   6.108   4.753   0.829
 3885SOL     H226375   6.244   4.819   0.825
 3886SOL    OH226376   4.386   2.923   1.201
 3886SOL     H126377   4.453   2.881   1.148
 3886SOL     H226378   4.391   2.878   1.286
 3887SOL    OH226379   3.807   0.497   0.644
 3887SOL     H126380   3.890   0.478   0.599
 3887SOL     H226381   3.784   0.585   0.613
 3888SOL    OH226382   3.469   4.595   5.986
 3888SOL     H126383   3.520   4.672   5.961
 3888SOL     H226384   3.379   4.626   5.991
 3889SOL    OH226385   0.516   0.409   0.805
 3889SOL     H126386   0.488   0.429   0.716
 3889SOL     H226387   0.451   0.452   0.861
 3890SOL    OH226388   5.991   0.843   0.052
 3890SOL     H126389   5.945   0.765   0.082
 3890SOL     H226390   5.993   0.901   0.128
 3891SOL    OH226391   4.248   2.535   6.171
 3891SOL     H126392   4.171   2.570   6.126
 3891SOL     H226393   4.307   2.610   6.178
 3892SOL    OH226394   6.218   4.491   5.656
 3892SOL     H126395   6.272   4.414   5.643
 3892SOL     H226396   6.185   4.482   5.746
 3893SOL    OH226397   5.775   1.494   6.023
 3893SOL     H126398   5.818   1.415   5.990
 3893SOL     H226399   5.761   1.548   5.945
 3894SOL    OH226400   0.587   1.022   5.652
 3894SOL     H126401   0.582   1.079   5.729
 3894SOL     H226402   0.680   1.005   5.640
 3895SOL    OH226403   6.174   3.853   1.563
 3895SOL     H126404   6.138   3.869   1.650
 3895SOL     H226405   6.224   3.932   1.543
 3896SOL    OH226406   6.071   2.787   5.344
 3896SOL     H126407   6.107   2.731   5.413
 3896SOL     H226408   5.977   2.771   5.346
 3897SOL    OH226409   1.217   2.282   5.329
 3897SOL     H126410   1.226   2.236   5.246
 3897SOL     H226411   1.303   2.322   5.344
 3898SOL    OH226412   4.417   5.338   0.372
 3898SOL     H126413   4.462   5.279   0.312
 3898SOL     H226414   4.346   5.286   0.409
 3899SOL    OH226415   2.865   2.537   0.694
 3899SOL     H126416   2.909   2.460   0.729
 3899SOL     H226417   2.844   2.590   0.771
 3900SOL    OH226418   2.616   6.100   1.529
 3900SOL     H126419   2.613   6.132   1.619
 3900SOL     H226420   2.526   6.075   1.508
 3901SOL    OH226421   2.466   3.496   0.769
 3901SOL     H126422   2.481   3.516   0.862
 3901SOL     H226423   2.386   3.543   0.747
 3902SOL    OH226424   5.898   0.830   5.995
 3902SOL     H126425   5.875   0.876   6.076
 3902SOL     H226426   5.984   0.793   6.012
 3903SOL    OH226427   2.851   5.072   0.377
 3903SOL     H126428   2.788   5.059   0.306
 3903SOL     H226429   2.866   4.984   0.412
 3904SOL    OH226430   5.249   5.651   6.277
 3904SOL     H126431   5.180   5.619   6.218
 3904SOL     H226432   5.203   5.704   6.341
 3905SOL    OH226433   1.131   1.612   5.510
 3905SOL     H126434   1.201   1.547   5.501
 3905SOL     H226435   1.170   1.693   5.478
 3906SOL    OH226436   6.248   0.827   6.308
 3906SOL     H126437   6.160   0.831   6.344
 3906SOL     H226438   6.270   0.917   6.285
 3907SOL    OH226439   2.369   3.351   1.194
 3907SOL     H126440   2.444   3.310   1.238
 3907SOL     H226441   2.408   3.407   1.127
 3908SOL    OH226442   4.924   4.295   0.952
 3908SOL     H126443   4.931   4.348   1.031
 3908SOL     H226444   4.987   4.224   0.965
 3909SOL    OH226445   1.712   4.061   4.659
 3909SOL     H126446   1.803   4.053   4.629
 3909SOL     H226447   1.718   4.051   4.754
 3910SOL    OH226448   1.347   0.562   0.960
 3910SOL     H126449   1.439   0.582   0.975
 3910SOL     H226450   1.319   0.625   0.893
 3911SOL    OH226451   5.059   1.338   0.323
 3911SOL     H126452   5.123   1.270   0.347
 3911SOL     H226453   4.977   1.291   0.313
 3912SOL    OH226454   5.858   3.144   6.201
 3912SOL     H126455   5.873   3.131   6.295
 3912SOL     H226456   5.936   3.190   6.171
 3913SOL    OH226457   3.543   1.509   0.715
 3913SOL     H126458   3.607   1.480   0.780
 3913SOL     H226459   3.462   1.465   0.739
 3914SOL    OH226460   3.304   2.603   0.619
 3914SOL     H126461   3.376   2.554   0.660
 3914SOL     H226462   3.253   2.537   0.573
 3915SOL    OH226463   1.880   4.208   0.170
 3915SOL     H126464   1.945   4.175   0.108
 3915SOL     H226465   1.900   4.302   0.177
 3916SOL    OH226466   4.465   5.561   6.095
 3916SOL     H126467   4.487   5.607   6.177
 3916SOL     H226468   4.371   5.546   6.101
 3917SOL    OH226469   4.112   2.886   1.231
 3917SOL     H126470   4.093   2.937   1.311
 3917SOL     H226471   4.205   2.901   1.215
 3918SOL    OH226472   6.281   0.087   0.341
 3918SOL     H126473   6.228   0.139   0.281
 3918SOL     H226474   0.025   0.152   0.403
 3919SOL    OH226475   5.965   1.964   0.539
 3919SOL     H126476   5.966   1.921   0.454
 3919SOL     H226477   5.883   1.937   0.579
 3920SOL    OH226478   3.714   5.648   6.037
 3920SOL     H126479   3.764   5.632   5.957
 3920SOL     H226480   3.627   5.676   6.006
 3921SOL    OH226481   0.705   1.623   0.115
 3921SOL     H126482   0.728   1.591   0.202
 3921SOL     H226483   0.739   1.712   0.112
 3922SOL    OH226484   4.301   1.803   5.375
 3922SOL     H126485   4.383   1.797   5.326
 3922SOL     H226486   4.280   1.896   5.376
 3923SOL    OH226487   0.080   3.828   4.906
 3923SOL     H126488   0.105   3.792   4.821
 3923SOL     H226489   0.017   3.766   4.942
 3924SOL    OH226490   2.083   3.878   1.528
 3924SOL     H126491   1.999   3.904   1.491
 3924SOL     H226492   2.148   3.916   1.469
 3925SOL    OH226493   2.578   1.084   0.958
 3925SOL     H126494   2.584   1.034   1.039
 3925SOL     H226495   2.534   1.165   0.983
 3926SOL    OH226496   3.969   4.077   4.817
 3926SOL     H126497   3.889   4.067   4.765
 3926SOL     H226498   4.001   4.165   4.796
 3927SOL    OH226499   5.354   5.155   0.298
 3927SOL     H126500   5.374   5.062   0.300
 3927SOL     H226501   5.338   5.178   0.390
 3928SOL    OH226502   5.106   5.619   4.688
 3928SOL     H126503   5.128   5.563   4.613
 3928SOL     H226504   5.124   5.566   4.765
 3929SOL    OH226505   5.929   5.560   0.015
 3929SOL     H126506   5.859   5.563   0.080
 3929SOL     H226507   5.897   5.500   6.305
 3930SOL    OH226508   1.213   2.702   0.692
 3930SOL     H126509   1.301   2.699   0.730
 3930SOL     H226510   1.192   2.610   0.675
 3931SOL    OH226511   1.771   1.189   0.417
 3931SOL     H126512   1.696   1.224   0.465
 3931SOL     H226513   1.785   1.102   0.455
 3932SOL    OH226514   3.534   3.215   0.357
 3932SOL     H126515   3.554   3.297   0.401
 3932SOL     H226516   3.571   3.147   0.413
 3933SOL    OH226517   3.877   3.278   6.114
 3933SOL     H126518   3.931   3.279   6.193
 3933SOL     H226519   3.887   3.190   6.078
 3934SOL    OH226520   4.279   4.405   0.742
 3934SOL     H126521   4.274   4.360   0.658
 3934SOL     H226522   4.351   4.468   0.731
 3935SOL    OH226523   4.492   3.446   0.979
 3935SOL     H126524   4.436   3.481   0.909
 3935SOL     H226525   4.432   3.433   1.053
 3936SOL    OH226526   4.173   5.515   1.006
 3936SOL     H126527   4.110   5.525   0.935
 3936SOL     H226528   4.184   5.420   1.016
 3937SOL    OH226529   3.381   1.568   5.854
 3937SOL     H126530   3.352   1.603   5.938
 3937SOL     H226531   3.476   1.562   5.862
 3938SOL    OH226532   0.491   2.049   0.584
 3938SOL     H126533   0.458   1.984   0.646
 3938SOL     H226534   0.418   2.062   0.522
 3939SOL    OH226535   0.446   5.701   5.196
 3939SOL     H126536   0.462   5.757   5.120
 3939SOL     H226537   0.417   5.618   5.159
 3940SOL    OH226538   5.085   1.279   5.124
 3940SOL     H126539   5.004   1.328   5.135
 3940SOL     H226540   5.149   1.345   5.097
 3941SOL    OH226541   5.879   5.079   5.085
 3941SOL     H126542   5.810   5.014   5.095
 3941SOL     H226543   5.956   5.029   5.058
 3942SOL    OH226544   0.765   0.766   5.176
 3942SOL     H126545   0.809   0.762   5.261
 3942SOL     H226546   0.744   0.675   5.156
 3943SOL    OH226547   1.608   0.654   0.977
 3943SOL     H126548   1.671   0.590   0.944
 3943SOL     H226549   1.656   0.703   1.044
 3944SOL    OH226550   1.246   4.916   0.373
 3944SOL     H126551   1.286   4.965   0.300
 3944SOL     H226552   1.286   4.829   0.368
 3945SOL    OH226553   4.620   1.554   0.494
 3945SOL     H126554   4.575   1.487   0.443
 3945SOL     H226555   4.639   1.512   0.578
 3946SOL    OH226556   4.247   1.067   5.306
 3946SOL     H126557   4.331   1.066   5.352
 3946SOL     H226558   4.268   1.103   5.220
 3947SOL    OH226559   1.065   6.252   0.799
 3947SOL     H126560   1.039   6.285   0.713
 3947SOL     H226561   1.060   6.328   0.857
 3948SOL    OH226562   5.932   4.580   0.530
 3948SOL     H126563   5.899   4.582   0.440
 3948SOL     H226564   5.975   4.495   0.538
 3949SOL    OH226565   1.833   1.724   5.571
 3949SOL     H126566   1.773   1.653   5.594
 3949SOL     H226567   1.902   1.681   5.521
 3950SOL    OH226568   3.113   2.247   5.717
 3950SOL     H126569   3.102   2.340   5.698
 3950SOL     H226570   3.199   2.241   5.759
 3951SOL    OH226571   3.958   2.203   0.366
 3951SOL     H126572   3.975   2.158   0.283
 3951SOL     H226573   4.042   2.201   0.412
 3952SOL    OH226574   4.508   4.502   0.193
 3952SOL     H126575   4.593   4.540   0.169
 3952SOL     H226576   4.528   4.445   0.268
 3953SOL    OH226577   3.358   2.039   5.494
 3953SOL     H126578   3.305   2.034   5.415
 3953SOL     H226579   3.306   1.995   5.561
 3954SOL    OH226580   0.897   3.198   0.429
 3954SOL     H126581   0.903   3.215   0.523
 3954SOL     H226582   0.823   3.138   0.420
 3955SOL    OH226583   4.551   0.833   5.250
 3955SOL     H126584   4.644   0.813   5.260
 3955SOL     H226585   4.543   0.863   5.159
 3956SOL    OH226586   5.611   1.013   5.752
 3956SOL     H126587   5.707   1.019   5.753
 3956SOL     H226588   5.586   1.048   5.667
 3957SOL    OH226589   3.412   5.794   1.643
 3957SOL     H126590   3.367   5.879   1.645
 3957SOL     H226591   3.348   5.733   1.679
 3958SOL    OH226592   2.972   2.290   0.787
 3958SOL     H126593   3.065   2.284   0.762
 3958SOL     H226594   2.936   2.204   0.767
 3959SOL    OH226595   1.629   4.158   5.778
 3959SOL     H126596   1.673   4.073   5.775
 3959SOL     H226597   1.685   4.212   5.833
 3960SOL    OH226598   0.452   1.530   0.080
 3960SOL     H126599   0.541   1.566   0.079
 3960SOL     H226600   0.417   1.556   0.165
 3961SOL    OH226601   2.639   4.759   5.224
 3961SOL     H126602   2.583   4.685   5.198
 3961SOL     H226603   2.676   4.791   5.142
 3962SOL    OH226604   3.155   3.898   1.138
 3962SOL     H126605   3.142   3.836   1.065
 3962SOL     H226606   3.217   3.962   1.104
 3963SOL    OH226607   3.222   5.606   0.650
 3963SOL     H126608   3.183   5.669   0.710
 3963SOL     H226609   3.173   5.525   0.665
 3964SOL    OH226610   2.052   5.679   1.720
 3964SOL     H126611   2.087   5.761   1.754
 3964SOL     H226612   2.007   5.704   1.640
 3965SOL    OH226613   0.001   4.988   5.558
 3965SOL     H126614   0.092   5.002   5.587
 3965SOL     H226615   6.240   5.048   5.612
 3966SOL    OH226616   1.226   4.158   4.370
 3966SOL     H126617   1.144   4.119   4.340
 3966SOL     H226618   1.198   4.232   4.425
 3967SOL    OH226619   2.982   5.450   1.438
 3967SOL     H126620   2.916   5.436   1.505
 3967SOL     H226621   2.968   5.541   1.409
 3968SOL    OH226622   1.562   5.168   5.919
 3968SOL     H126623   1.527   5.092   5.874
 3968SOL     H226624   1.525   5.243   5.872
   6.29095   6.33055   6.35764
