Na2-SO4 solution
 3242
    1SO4     O1    1   3.354   3.005   1.850
    1SO4     O2    2   3.349   2.872   1.665
    1SO4     O3    3   0.052   2.912   1.762
    1SO4     O4    4   3.441   3.086   1.643
    1SO4     S1    5   3.424   2.964   1.729
    2SO4     O1    6   0.092   0.747   3.318
    2SO4     O2    7   0.195   0.602   3.478
    2SO4     O3    8   3.467   0.565   3.416
    2SO4     O4    9   0.028   0.759   0.051
    2SO4     S1   10   0.072   0.672   3.440
    3SO4     O1   11   0.670   1.795   1.787
    3SO4     O2   12   0.544   1.590   1.764
    3SO4     O3   13   0.718   1.589   1.933
    3SO4     O4   14   0.778   1.600   1.691
    3SO4     S1   15   0.681   1.645   1.796
    4SO4     O1   16   0.145   2.481   2.537
    4SO4     O2   17   3.441   2.471   2.660
    4SO4     O3   18   0.007   2.278   2.541
    4SO4     O4   19   3.432   2.468   2.422
    4SO4     S1   20   0.007   2.419   2.539
    5SO4     O1   21   2.557   1.593   0.436
    5SO4     O2   22   2.427   1.734   0.600
    5SO4     O3   23   2.666   1.653   0.639
    5SO4     O4   24   2.491   1.496   0.646
    5SO4     S1   25   2.532   1.624   0.577
    6SO4     O1   26   2.365   3.001   2.255
    6SO4     O2   27   2.207   2.946   2.087
    6SO4     O3   28   2.131   2.963   2.321
    6SO4     O4   29   2.285   2.782   2.256
    6SO4     S1   30   2.246   2.925   2.231
    7Na      Na   31   2.611   1.602   1.461
    8Na      Na   32   3.276   1.635   3.323
    9Na      Na   33   2.255   0.827   0.045
   10Na      Na   34   2.826   2.329   1.929
   11Na      Na   35   2.854   2.756   2.163
   12Na      Na   36   1.077   3.217   3.066
   13Na      Na   37   3.321   1.876   2.040
   14Na      Na   38   2.653   1.325   0.872
   15Na      Na   39   0.744   0.360   2.615
   16Na      Na   40   2.047   1.740   1.582
   17Na      Na   41   1.874   1.239   0.742
   18Na      Na   42   2.757   2.986   3.124
   19SOL    OW1   43   0.642   0.396   3.141
   19SOL    HW1   44   0.679   0.473   3.098
   19SOL    HW2   45   0.548   0.414   3.147
   19SOL    MW1   46   0.637   0.404   3.138
   20SOL    OW1   47   3.015   2.101   3.246
   20SOL    HW1   48   3.053   2.186   3.222
   20SOL    HW2   49   3.014   2.101   3.341
   20SOL    MW1   50   3.019   2.109   3.252
   21SOL    OW1   51   0.057   3.125   3.019
   21SOL    HW1   52   0.077   3.207   2.975
   21SOL    HW2   53   0.074   3.058   2.953
   21SOL    MW1   54   0.061   3.126   3.009
   22SOL    OW1   55   0.924   3.143   0.594
   22SOL    HW1   56   0.961   3.231   0.586
   22SOL    HW2   57   0.975   3.089   0.534
   22SOL    MW1   58   0.931   3.146   0.588
   23SOL    OW1   59   2.817   0.007   2.643
   23SOL    HW1   60   2.761   0.084   2.648
   23SOL    HW2   61   2.904   0.039   2.668
   23SOL    MW1   62   2.820   0.016   2.646
   24SOL    OW1   63   0.510   1.004   1.851
   24SOL    HW1   64   0.475   1.093   1.842
   24SOL    HW2   65   0.602   1.016   1.875
   24SOL    MW1   66   0.515   1.013   1.853
   25SOL    OW1   67   2.575   1.185   2.020
   25SOL    HW1   68   2.552   1.116   1.957
   25SOL    HW2   69   2.658   1.219   1.987
   25SOL    MW1   70   2.581   1.182   2.011
   26SOL    OW1   71   0.696   0.453   1.323
   26SOL    HW1   72   0.644   0.434   1.245
   26SOL    HW2   73   0.656   0.532   1.359
   26SOL    MW1   74   0.688   0.458   1.319
   27SOL    OW1   75   1.481   1.014   2.465
   27SOL    HW1   76   1.506   0.922   2.470
   27SOL    HW2   77   1.468   1.041   2.556
   27SOL    MW1   78   1.482   1.009   2.474
   28SOL    OW1   79   0.087   0.114   1.052
   28SOL    HW1   80   0.165   0.103   0.997
   28SOL    HW2   81   0.027   0.045   1.021
   28SOL    MW1   82   0.088   0.107   1.044
   29SOL    OW1   83   1.580   0.485   1.376
   29SOL    HW1   84   1.648   0.453   1.317
   29SOL    HW2   85   1.507   0.508   1.318
   29SOL    MW1   86   1.579   0.484   1.365
   30SOL    OW1   87   1.676   0.172   2.748
   30SOL    HW1   88   1.632   0.115   2.685
   30SOL    HW2   89   1.752   0.206   2.701
   30SOL    MW1   90   1.679   0.170   2.738
   31SOL    OW1   91   2.980   3.486   3.164
   31SOL    HW1   92   2.923   3.454   3.234
   31SOL    HW2   93   3.031   3.409   3.137
   31SOL    MW1   94   2.980   3.476   3.167
   32SOL    OW1   95   1.588   2.723   3.095
   32SOL    HW1   96   1.641   2.800   3.113
   32SOL    HW2   97   1.647   2.662   3.050
   32SOL    MW1   98   1.598   2.724   3.093
   33SOL    OW1   99   2.994   2.342   2.101
   33SOL    HW1  100   3.077   2.295   2.105
   33SOL    HW2  101   3.008   2.421   2.153
   33SOL    MW1  102   3.003   2.345   2.106
   34SOL    OW1  103   0.873   3.207   1.018
   34SOL    HW1  104   0.818   3.168   1.085
   34SOL    HW2  105   0.899   3.133   0.962
   34SOL    MW1  106   0.871   3.197   1.019
   35SOL    OW1  107   2.885   0.997   2.548
   35SOL    HW1  108   2.809   1.051   2.567
   35SOL    HW2  109   2.849   0.918   2.507
   35SOL    MW1  110   2.875   0.994   2.546
   36SOL    OW1  111   0.085   2.796   2.229
   36SOL    HW1  112   0.106   2.737   2.157
   36SOL    HW2  113   0.144   2.770   2.300
   36SOL    MW1  114   0.092   2.788   2.229
   37SOL    OW1  115   2.029   0.099   2.509
   37SOL    HW1  116   2.107   0.098   2.453
   37SOL    HW2  117   1.976   0.026   2.478
   37SOL    MW1  118   2.031   0.092   2.501
   38SOL    OW1  119   0.696   2.713   0.162
   38SOL    HW1  120   0.689   2.677   0.250
   38SOL    HW2  121   0.620   2.680   0.116
   38SOL    MW1  122   0.689   2.707   0.166
   39SOL    OW1  123   2.336   1.410   2.769
   39SOL    HW1  124   2.389   1.469   2.822
   39SOL    HW2  125   2.380   1.409   2.683
   39SOL    MW1  126   2.345   1.415   2.766
   40SOL    OW1  127   1.250   2.238   2.092
   40SOL    HW1  128   1.183   2.173   2.072
   40SOL    HW2  129   1.261   2.232   2.187
   40SOL    MW1  130   1.245   2.232   2.099
   41SOL    OW1  131   3.143   0.034   1.533
   41SOL    HW1  132   3.176   3.473   1.466
   41SOL    HW2  133   3.081   0.089   1.485
   41SOL    MW1  134   3.140   0.033   1.522
   42SOL    OW1  135   0.107   1.644   0.794
   42SOL    HW1  136   0.122   1.617   0.884
   42SOL    HW2  137   0.017   1.676   0.793
   42SOL    MW1  138   0.100   1.645   0.802
   43SOL    OW1  139   0.785   0.864   1.941
   43SOL    HW1  140   0.751   0.784   1.979
   43SOL    HW2  141   0.872   0.840   1.909
   43SOL    MW1  142   0.790   0.855   1.942
   44SOL    OW1  143   0.202   2.372   1.709
   44SOL    HW1  144   0.179   2.459   1.678
   44SOL    HW2  145   0.244   2.330   1.634
   44SOL    MW1  146   0.203   2.376   1.700
   45SOL    OW1  147   2.957   2.862   2.349
   45SOL    HW1  148   2.918   2.941   2.386
   45SOL    HW2  149   3.048   2.884   2.332
   45SOL    MW1  150   2.961   2.871   2.351
   46SOL    OW1  151   2.282   1.394   0.776
   46SOL    HW1  152   2.255   1.459   0.841
   46SOL    HW2  153   2.354   1.437   0.728
   46SOL    MW1  154   2.286   1.404   0.777
   47SOL    OW1  155   1.954   2.306   0.578
   47SOL    HW1  156   2.038   2.321   0.620
   47SOL    HW2  157   1.976   2.287   0.487
   47SOL    MW1  158   1.963   2.305   0.573
   48SOL    OW1  159   2.512   2.624   2.978
   48SOL    HW1  160   2.475   2.608   3.064
   48SOL    HW2  161   2.490   2.546   2.927
   48SOL    MW1  162   2.507   2.616   2.981
   49SOL    OW1  163   3.067   2.945   3.211
   49SOL    HW1  164   3.138   2.983   3.159
   49SOL    HW2  165   3.105   2.936   3.298
   49SOL    MW1  166   3.077   2.948   3.214
   50SOL    OW1  167   0.650   2.552   2.974
   50SOL    HW1  168   0.573   2.572   3.026
   50SOL    HW2  169   0.620   2.485   2.912
   50SOL    MW1  170   0.641   2.548   2.973
   51SOL    OW1  171   3.080   0.588   2.275
   51SOL    HW1  172   3.138   0.628   2.210
   51SOL    HW2  173   3.085   0.647   2.351
   51SOL    MW1  174   3.085   0.597   2.276
   52SOL    OW1  175   2.690   0.948   1.381
   52SOL    HW1  176   2.706   0.959   1.288
   52SOL    HW2  177   2.731   1.025   1.422
   52SOL    MW1  178   2.695   0.956   1.376
   53SOL    OW1  179   3.065   1.921   1.113
   53SOL    HW1  180   3.152   1.903   1.150
   53SOL    HW2  181   3.052   1.852   1.048
   53SOL    MW1  182   3.072   1.913   1.110
   54SOL    OW1  183   2.091   1.979   2.336
   54SOL    HW1  184   2.023   2.015   2.393
   54SOL    HW2  185   2.138   2.055   2.303
   54SOL    MW1  186   2.089   1.989   2.338
   55SOL    OW1  187   1.061   2.808   2.222
   55SOL    HW1  188   1.044   2.728   2.271
   55SOL    HW2  189   1.102   2.779   2.141
   55SOL    MW1  190   1.063   2.798   2.219
   56SOL    OW1  191   0.875   3.463   1.913
   56SOL    HW1  192   0.873   0.051   1.875
   56SOL    HW2  193   0.880   3.404   1.838
   56SOL    MW1  194   0.875   3.466   1.903
   57SOL    OW1  195   1.899   1.327   1.198
   57SOL    HW1  196   1.816   1.367   1.224
   57SOL    HW2  197   1.902   1.245   1.246
   57SOL    MW1  198   1.891   1.324   1.204
   58SOL    OW1  199   2.885   2.087   2.323
   58SOL    HW1  200   2.789   2.083   2.320
   58SOL    HW2  201   2.905   2.180   2.335
   58SOL    MW1  202   2.878   2.095   2.324
   59SOL    OW1  203   0.137   2.636   2.004
   59SOL    HW1  204   0.220   2.619   1.960
   59SOL    HW2  205   0.089   2.694   1.944
   59SOL    MW1  206   0.140   2.640   1.995
   60SOL    OW1  207   0.742   0.351   0.334
   60SOL    HW1  208   0.722   0.258   0.341
   60SOL    HW2  209   0.765   0.363   0.242
   60SOL    MW1  210   0.743   0.344   0.326
   61SOL    OW1  211   1.875   1.996   3.323
   61SOL    HW1  212   1.879   1.988   3.228
   61SOL    HW2  213   1.965   2.007   3.351
   61SOL    MW1  214   1.883   1.996   3.317
   62SOL    OW1  215   2.495   3.203   0.224
   62SOL    HW1  216   2.569   3.166   0.272
   62SOL    HW2  217   2.501   3.297   0.239
   62SOL    MW1  218   2.502   3.208   0.230
   63SOL    OW1  219   1.831   1.940   0.308
   63SOL    HW1  220   1.735   1.937   0.317
   63SOL    HW2  221   1.857   1.849   0.294
   63SOL    MW1  222   1.824   1.932   0.308
   64SOL    OW1  223   2.586   0.867   2.947
   64SOL    HW1  224   2.672   0.834   2.972
   64SOL    HW2  225   2.588   0.960   2.972
   64SOL    MW1  226   2.594   0.873   2.951
   65SOL    OW1  227   1.019   3.159   1.315
   65SOL    HW1  228   1.041   3.229   1.376
   65SOL    HW2  229   1.046   3.192   1.229
   65SOL    MW1  230   1.024   3.168   1.313
   66SOL    OW1  231   0.412   3.332   0.006
   66SOL    HW1  232   0.411   3.309   0.099
   66SOL    HW2  233   0.462   3.413   0.002
   66SOL    MW1  234   0.416   3.337   0.014
   67SOL    OW1  235   1.289   0.594   0.572
   67SOL    HW1  236   1.204   0.556   0.598
   67SOL    HW2  237   1.272   0.633   0.486
   67SOL    MW1  238   1.280   0.594   0.567
   68SOL    OW1  239   2.160   2.615   1.220
   68SOL    HW1  240   2.161   2.551   1.148
   68SOL    HW2  241   2.212   2.689   1.188
   68SOL    MW1  242   2.165   2.616   1.211
   69SOL    OW1  243   2.113   3.418   1.006
   69SOL    HW1  244   2.026   3.388   0.978
   69SOL    HW2  245   2.172   3.347   0.983
   69SOL    MW1  246   2.110   3.409   1.001
   70SOL    OW1  247   0.710   3.085   1.520
   70SOL    HW1  248   0.696   3.114   1.430
   70SOL    HW2  249   0.625   3.050   1.547
   70SOL    MW1  250   0.701   3.084   1.514
   71SOL    OW1  251   0.075   2.122   1.861
   71SOL    HW1  252   0.136   2.182   1.818
   71SOL    HW2  253   0.128   2.076   1.926
   71SOL    MW1  254   0.085   2.124   1.863
   72SOL    OW1  255   2.929   1.763   0.845
   72SOL    HW1  256   2.870   1.838   0.837
   72SOL    HW2  257   2.929   1.723   0.758
   72SOL    MW1  258   2.923   1.766   0.837
   73SOL    OW1  259   1.310   0.808   1.490
   73SOL    HW1  260   1.298   0.713   1.484
   73SOL    HW2  261   1.254   0.843   1.420
   73SOL    MW1  262   1.304   0.803   1.483
   74SOL    OW1  263   0.331   1.369   1.739
   74SOL    HW1  264   0.368   1.331   1.660
   74SOL    HW2  265   0.389   1.442   1.760
   74SOL    MW1  266   0.339   1.373   1.734
   75SOL    OW1  267   1.466   1.546   0.925
   75SOL    HW1  268   1.538   1.557   0.988
   75SOL    HW2  269   1.392   1.590   0.965
   75SOL    MW1  270   1.466   1.551   0.934
   76SOL    OW1  271   0.317   2.351   2.316
   76SOL    HW1  272   0.254   2.404   2.364
   76SOL    HW2  273   0.347   2.286   2.379
   76SOL    MW1  274   0.314   2.350   2.326
   77SOL    OW1  275   1.864   0.683   1.232
   77SOL    HW1  276   1.789   0.679   1.291
   77SOL    HW2  277   1.918   0.754   1.266
   77SOL    MW1  278   1.863   0.689   1.241
   78SOL    OW1  279   1.875   3.382   2.411
   78SOL    HW1  280   1.779   3.372   2.414
   78SOL    HW2  281   1.908   3.302   2.452
   78SOL    MW1  282   1.869   3.374   2.415
   79SOL    OW1  283   0.537   3.493   1.286
   79SOL    HW1  284   0.596   0.062   1.317
   79SOL    HW2  285   0.462   3.498   1.345
   79SOL    MW1  286   0.535   3.500   1.294
   80SOL    OW1  287   1.724   2.429   1.586
   80SOL    HW1  288   1.759   2.403   1.671
   80SOL    HW2  289   1.769   2.372   1.523
   80SOL    MW1  290   1.731   2.421   1.588
   81SOL    OW1  291   1.965   2.745   0.529
   81SOL    HW1  292   1.880   2.733   0.572
   81SOL    HW2  293   2.027   2.755   0.601
   81SOL    MW1  294   1.963   2.744   0.539
   82SOL    OW1  295   1.437   0.554   0.845
   82SOL    HW1  296   1.379   0.623   0.812
   82SOL    HW2  297   1.470   0.510   0.767
   82SOL    MW1  298   1.435   0.557   0.835
   83SOL    OW1  299   0.899   0.780   1.275
   83SOL    HW1  300   0.821   0.819   1.234
   83SOL    HW2  301   0.916   0.836   1.351
   83SOL    MW1  302   0.893   0.789   1.278
   84SOL    OW1  303   2.254   0.632   0.175
   84SOL    HW1  304   2.300   0.666   0.252
   84SOL    HW2  305   2.245   0.538   0.192
   84SOL    MW1  306   2.258   0.627   0.184
   85SOL    OW1  307   0.206   1.546   1.055
   85SOL    HW1  308   0.296   1.514   1.056
   85SOL    HW2  309   0.196   1.593   1.137
   85SOL    MW1  310   0.213   1.548   1.062
   86SOL    OW1  311   2.190   1.576   0.474
   86SOL    HW1  312   2.247   1.504   0.446
   86SOL    HW2  313   2.249   1.637   0.520
   86SOL    MW1  314   2.201   1.575   0.476
   87SOL    OW1  315   2.916   3.298   1.089
   87SOL    HW1  316   3.010   3.311   1.102
   87SOL    HW2  317   2.877   3.383   1.112
   87SOL    MW1  318   2.921   3.307   1.092
   88SOL    OW1  319   2.041   0.885   0.631
   88SOL    HW1  320   2.035   0.960   0.572
   88SOL    HW2  321   1.986   0.818   0.589
   88SOL    MW1  322   2.036   0.886   0.622
   89SOL    OW1  323   1.086   2.685   1.616
   89SOL    HW1  324   1.158   2.742   1.641
   89SOL    HW2  325   1.119   2.596   1.630
   89SOL    MW1  326   1.095   2.682   1.619
   90SOL    OW1  327   0.083   3.087   2.124
   90SOL    HW1  328   0.022   3.062   2.055
   90SOL    HW2  329   0.105   3.005   2.167
   90SOL    MW1  330   0.080   3.077   2.121
   91SOL    OW1  331   0.474   0.194   2.842
   91SOL    HW1  332   0.399   0.251   2.828
   91SOL    HW2  333   0.513   0.225   2.924
   91SOL    MW1  334   0.471   0.202   2.848
   92SOL    OW1  335   1.307   1.608   3.083
   92SOL    HW1  336   1.318   1.672   3.013
   92SOL    HW2  337   1.389   1.558   3.082
   92SOL    MW1  338   1.315   1.609   3.077
   93SOL    OW1  339   1.897   1.566   2.756
   93SOL    HW1  340   1.875   1.654   2.728
   93SOL    HW2  341   1.970   1.577   2.817
   93SOL    MW1  342   1.902   1.575   2.759
   94SOL    OW1  343   0.294   1.511   2.669
   94SOL    HW1  344   0.221   1.450   2.662
   94SOL    HW2  345   0.329   1.496   2.757
   94SOL    MW1  346   0.290   1.505   2.677
   95SOL    OW1  347   1.977   2.764   2.491
   95SOL    HW1  348   2.032   2.818   2.434
   95SOL    HW2  349   1.958   2.686   2.438
   95SOL    MW1  350   1.980   2.762   2.481
   96SOL    OW1  351   1.694   1.974   2.637
   96SOL    HW1  352   1.725   1.917   2.707
   96SOL    HW2  353   1.607   2.002   2.665
   96SOL    MW1  354   1.689   1.971   2.645
   97SOL    OW1  355   1.879   2.422   1.838
   97SOL    HW1  356   1.899   2.403   1.929
   97SOL    HW2  357   1.862   2.516   1.836
   97SOL    MW1  358   1.880   2.429   1.846
   98SOL    OW1  359   2.380   3.287   0.978
   98SOL    HW1  360   2.397   3.376   1.010
   98SOL    HW2  361   2.460   3.262   0.933
   98SOL    MW1  362   2.389   3.293   0.977
   99SOL    OW1  363   3.496   3.192   0.133
   99SOL    HW1  364   0.010   3.264   0.195
   99SOL    HW2  365   0.083   3.172   0.099
   99SOL    MW1  366   0.005   3.197   0.135
  100SOL    OW1  367   2.627   2.822   1.239
  100SOL    HW1  368   2.698   2.792   1.182
  100SOL    HW2  369   2.671   2.849   1.319
  100SOL    MW1  370   2.638   2.821   1.241
  101SOL    OW1  371   0.856   1.761   0.394
  101SOL    HW1  372   0.928   1.718   0.440
  101SOL    HW2  373   0.884   1.764   0.302
  101SOL    MW1  374   0.865   1.758   0.390
  102SOL    OW1  375   2.439   0.339   0.860
  102SOL    HW1  376   2.509   0.286   0.899
  102SOL    HW2  377   2.360   0.285   0.869
  102SOL    MW1  378   2.438   0.330   0.865
  103SOL    OW1  379   2.967   0.581   0.497
  103SOL    HW1  380   3.028   0.608   0.428
  103SOL    HW2  381   3.006   0.502   0.534
  103SOL    MW1  382   2.976   0.577   0.495
  104SOL    OW1  383   0.869   2.581   2.486
  104SOL    HW1  384   0.849   2.546   2.573
  104SOL    HW2  385   0.857   2.675   2.495
  104SOL    MW1  386   0.866   2.586   2.495
  105SOL    OW1  387   0.016   1.035   0.433
  105SOL    HW1  388   3.497   0.943   0.414
  105SOL    HW2  389   0.100   1.051   0.391
  105SOL    MW1  390   0.022   1.028   0.428
  106SOL    OW1  391   0.927   1.401   2.466
  106SOL    HW1  392   1.021   1.420   2.473
  106SOL    HW2  393   0.916   1.366   2.378
  106SOL    MW1  394   0.934   1.400   2.459
  107SOL    OW1  395   2.866   1.910   1.339
  107SOL    HW1  396   2.883   2.003   1.351
  107SOL    HW2  397   2.921   1.885   1.265
  107SOL    MW1  398   2.872   1.916   1.333
  108SOL    OW1  399   2.101   1.212   2.140
  108SOL    HW1  400   2.119   1.205   2.234
  108SOL    HW2  401   2.185   1.237   2.101
  108SOL    MW1  402   2.110   1.214   2.145
  109SOL    OW1  403   0.427   3.293   1.027
  109SOL    HW1  404   0.469   3.365   1.074
  109SOL    HW2  405   0.387   3.239   1.095
  109SOL    MW1  406   0.427   3.295   1.037
  110SOL    OW1  407   0.916   2.344   2.145
  110SOL    HW1  408   0.939   2.315   2.234
  110SOL    HW2  409   0.830   2.383   2.155
  110SOL    MW1  410   0.911   2.345   2.154
  111SOL    OW1  411   0.172   1.416   3.111
  111SOL    HW1  412   0.099   1.476   3.096
  111SOL    HW2  413   0.132   1.341   3.156
  111SOL    MW1  414   0.162   1.414   3.114
  112SOL    OW1  415   1.544   1.765   2.123
  112SOL    HW1  416   1.525   1.856   2.098
  112SOL    HW2  417   1.546   1.717   2.041
  112SOL    MW1  418   1.543   1.769   2.114
  113SOL    OW1  419   1.885   0.320   0.050
  113SOL    HW1  420   1.807   0.308   3.497
  113SOL    HW2  421   1.922   0.232   0.058
  113SOL    MW1  422   1.881   0.311   0.046
  114SOL    OW1  423   3.040   3.384   2.023
  114SOL    HW1  424   3.062   3.423   1.938
  114SOL    HW2  425   3.123   3.378   2.070
  114SOL    MW1  426   3.049   3.387   2.019
  115SOL    OW1  427   2.892   0.625   2.993
  115SOL    HW1  428   2.946   0.702   3.011
  115SOL    HW2  429   2.941   0.552   3.031
  115SOL    MW1  430   2.901   0.625   2.998
  116SOL    OW1  431   1.073   1.956   2.958
  116SOL    HW1  432   1.160   1.933   2.991
  116SOL    HW2  433   1.036   1.873   2.928
  116SOL    MW1  434   1.077   1.947   2.958
  117SOL    OW1  435   3.377   3.140   0.951
  117SOL    HW1  436   3.298   3.088   0.965
  117SOL    HW2  437   3.447   3.076   0.941
  117SOL    MW1  438   3.376   3.130   0.951
  118SOL    OW1  439   3.139   1.610   0.233
  118SOL    HW1  440   3.098   1.638   0.316
  118SOL    HW2  441   3.223   1.573   0.259
  118SOL    MW1  442   3.143   1.609   0.243
  119SOL    OW1  443   2.315   3.114   2.981
  119SOL    HW1  444   2.379   3.177   3.015
  119SOL    HW2  445   2.359   3.030   2.988
  119SOL    MW1  446   2.325   3.112   2.985
  120SOL    OW1  447   2.622   2.334   2.045
  120SOL    HW1  448   2.545   2.387   2.024
  120SOL    HW2  449   2.600   2.293   2.129
  120SOL    MW1  450   2.613   2.335   2.051
  121SOL    OW1  451   2.049   1.843   3.151
  121SOL    HW1  452   1.988   1.779   3.189
  121SOL    HW2  453   2.135   1.814   3.179
  121SOL    MW1  454   2.051   1.835   3.157
  122SOL    OW1  455   3.283   2.819   0.076
  122SOL    HW1  456   3.195   2.856   0.080
  122SOL    HW2  457   3.342   2.894   0.086
  122SOL    MW1  458   3.281   2.829   0.077
  123SOL    OW1  459   2.560   2.148   0.043
  123SOL    HW1  460   2.623   2.214   0.015
  123SOL    HW2  461   2.476   2.179   0.008
  123SOL    MW1  462   2.558   2.157   0.037
  124SOL    OW1  463   1.531   1.104   3.043
  124SOL    HW1  464   1.552   1.192   3.074
  124SOL    HW2  465   1.516   1.053   3.123
  124SOL    MW1  466   1.531   1.107   3.053
  125SOL    OW1  467   1.892   1.767   1.930
  125SOL    HW1  468   1.903   1.732   2.018
  125SOL    HW2  469   1.885   1.862   1.942
  125SOL    MW1  470   1.892   1.773   1.939
  126SOL    OW1  471   1.528   0.466   0.608
  126SOL    HW1  472   1.537   0.384   0.559
  126SOL    HW2  473   1.449   0.507   0.572
  126SOL    MW1  474   1.521   0.462   0.601
  127SOL    OW1  475   0.057   1.955   0.995
  127SOL    HW1  476   0.142   1.930   0.960
  127SOL    HW2  477   0.077   1.995   1.080
  127SOL    MW1  478   0.066   1.957   1.000
  128SOL    OW1  479   2.391   0.624   1.851
  128SOL    HW1  480   2.308   0.604   1.809
  128SOL    HW2  481   2.457   0.579   1.798
  128SOL    MW1  482   2.390   0.618   1.843
  129SOL    OW1  483   1.272   2.743   0.777
  129SOL    HW1  484   1.195   2.785   0.816
  129SOL    HW2  485   1.344   2.803   0.796
  129SOL    MW1  486   1.271   2.752   0.782
  130SOL    OW1  487   1.143   3.025   0.452
  130SOL    HW1  488   1.164   2.959   0.387
  130SOL    HW2  489   1.151   3.108   0.406
  130SOL    MW1  490   1.146   3.026   0.442
  131SOL    OW1  491   0.711   1.350   1.351
  131SOL    HW1  492   0.799   1.314   1.341
  131SOL    HW2  493   0.720   1.415   1.421
  131SOL    MW1  494   0.720   1.353   1.356
  132SOL    OW1  495   0.906   0.143   0.693
  132SOL    HW1  496   0.845   0.213   0.716
  132SOL    HW2  497   0.856   0.083   0.639
  132SOL    MW1  498   0.896   0.144   0.690
  133SOL    OW1  499   1.308   0.023   1.067
  133SOL    HW1  500   1.218   3.496   1.050
  133SOL    HW2  501   1.351   3.445   1.102
  133SOL    MW1  502   1.304   0.014   1.069
  134SOL    OW1  503   0.720   2.226   1.089
  134SOL    HW1  504   0.706   2.177   1.170
  134SOL    HW2  505   0.774   2.301   1.116
  134SOL    MW1  506   0.724   2.229   1.099
  135SOL    OW1  507   0.397   3.081   0.284
  135SOL    HW1  508   0.328   3.052   0.344
  135SOL    HW2  509   0.354   3.083   0.198
  135SOL    MW1  510   0.387   3.078   0.281
  136SOL    OW1  511   2.354   0.795   1.563
  136SOL    HW1  512   2.430   0.837   1.604
  136SOL    HW2  513   2.392   0.734   1.499
  136SOL    MW1  514   2.364   0.793   1.561
  137SOL    OW1  515   0.433   3.022   1.521
  137SOL    HW1  516   0.361   2.961   1.541
  137SOL    HW2  517   0.403   3.070   1.444
  137SOL    MW1  518   0.423   3.021   1.516
  138SOL    OW1  519   1.433   2.908   2.456
  138SOL    HW1  520   1.372   2.972   2.419
  138SOL    HW2  521   1.513   2.958   2.471
  138SOL    MW1  522   1.434   2.919   2.454
  139SOL    OW1  523   0.923   0.385   1.188
  139SOL    HW1  524   0.846   0.418   1.232
  139SOL    HW2  525   0.901   0.294   1.166
  139SOL    MW1  526   0.914   0.380   1.190
  140SOL    OW1  527   3.099   1.238   0.025
  140SOL    HW1  528   3.144   1.212   0.106
  140SOL    HW2  529   3.121   1.330   0.013
  140SOL    MW1  530   3.105   1.244   0.031
  141SOL    OW1  531   0.697   0.882   0.810
  141SOL    HW1  532   0.622   0.822   0.817
  141SOL    HW2  533   0.678   0.935   0.733
  141SOL    MW1  534   0.689   0.881   0.804
  142SOL    OW1  535   1.710   2.531   2.911
  142SOL    HW1  536   1.622   2.499   2.892
  142SOL    HW2  537   1.752   2.538   2.826
  142SOL    MW1  538   1.706   2.529   2.902
  143SOL    OW1  539   0.939   1.253   3.429
  143SOL    HW1  540   0.972   1.215   0.010
  143SOL    HW2  541   1.011   1.309   3.398
  143SOL    MW1  542   0.949   1.255   3.434
  144SOL    OW1  543   1.843   1.513   0.296
  144SOL    HW1  544   1.935   1.538   0.288
  144SOL    HW2  545   1.815   1.552   0.379
  144SOL    MW1  546   1.849   1.519   0.303
  145SOL    OW1  547   1.799   2.425   3.490
  145SOL    HW1  548   1.846   2.491   3.439
  145SOL    HW2  549   1.714   2.418   3.446
  145SOL    MW1  550   1.796   2.430   3.481
  146SOL    OW1  551   2.624   1.355   2.659
  146SOL    HW1  552   2.685   1.356   2.732
  146SOL    HW2  553   2.680   1.359   2.581
  146SOL    MW1  554   2.634   1.356   2.658
  147SOL    OW1  555   0.353   1.194   2.771
  147SOL    HW1  556   0.373   1.262   2.835
  147SOL    HW2  557   0.413   1.122   2.791
  147SOL    MW1  558   0.360   1.193   2.778
  148SOL    OW1  559   0.483   0.238   1.621
  148SOL    HW1  560   0.495   0.269   1.710
  148SOL    HW2  561   0.568   0.204   1.595
  148SOL    MW1  562   0.491   0.237   1.627
  149SOL    OW1  563   2.639   0.718   0.727
  149SOL    HW1  564   2.625   0.629   0.759
  149SOL    HW2  565   2.633   0.710   0.632
  149SOL    MW1  566   2.638   0.710   0.721
  150SOL    OW1  567   3.136   2.918   1.228
  150SOL    HW1  568   3.149   3.005   1.267
  150SOL    HW2  569   3.201   2.863   1.271
  150SOL    MW1  570   3.143   2.921   1.235
  151SOL    OW1  571   1.708   2.025   2.351
  151SOL    HW1  572   1.774   2.082   2.392
  151SOL    HW2  573   1.694   1.956   2.416
  151SOL    MW1  574   1.713   2.024   2.361
  152SOL    OW1  575   3.404   0.078   2.219
  152SOL    HW1  576   3.339   0.102   2.285
  152SOL    HW2  577   3.375   0.122   2.140
  152SOL    MW1  578   3.396   0.084   2.218
  153SOL    OW1  579   2.715   0.556   1.738
  153SOL    HW1  580   2.663   0.479   1.760
  153SOL    HW2  581   2.802   0.522   1.718
  153SOL    MW1  582   2.718   0.546   1.739
  154SOL    OW1  583   1.323   1.113   0.379
  154SOL    HW1  584   1.391   1.052   0.408
  154SOL    HW2  585   1.248   1.057   0.360
  154SOL    MW1  586   1.322   1.103   0.380
  155SOL    OW1  587   3.424   3.472   2.864
  155SOL    HW1  588   3.370   0.027   2.919
  155SOL    HW2  589   3.385   3.384   2.872
  155SOL    MW1  590   3.416   3.469   2.869
  156SOL    OW1  591   1.999   3.387   1.532
  156SOL    HW1  592   2.066   3.411   1.468
  156SOL    HW2  593   1.969   3.301   1.504
  156SOL    MW1  594   2.002   3.381   1.524
  157SOL    OW1  595   1.915   0.535   3.014
  157SOL    HW1  596   1.917   0.628   3.036
  157SOL    HW2  597   1.973   0.527   2.938
  157SOL    MW1  598   1.921   0.543   3.009
  158SOL    OW1  599   0.602   1.003   2.720
  158SOL    HW1  600   0.633   0.939   2.656
  158SOL    HW2  601   0.635   1.087   2.689
  158SOL    MW1  602   0.607   1.005   2.712
  159SOL    OW1  603   1.590   0.802   0.141
  159SOL    HW1  604   1.560   0.805   0.232
  159SOL    HW2  605   1.596   0.709   0.121
  159SOL    MW1  606   1.588   0.794   0.148
  160SOL    OW1  607   1.701   2.114   0.685
  160SOL    HW1  608   1.707   2.201   0.646
  160SOL    HW2  609   1.611   2.087   0.670
  160SOL    MW1  610   1.694   2.119   0.680
  161SOL    OW1  611   2.599   2.886   2.336
  161SOL    HW1  612   2.568   2.836   2.412
  161SOL    HW2  613   2.521   2.931   2.303
  161SOL    MW1  614   2.589   2.885   2.340
  162SOL    OW1  615   0.379   2.122   2.453
  162SOL    HW1  616   0.287   2.099   2.461
  162SOL    HW2  617   0.403   2.094   2.365
  162SOL    MW1  618   0.373   2.117   2.446
  163SOL    OW1  619   2.360   1.986   2.222
  163SOL    HW1  620   2.319   1.930   2.156
  163SOL    HW2  621   2.358   1.933   2.302
  163SOL    MW1  622   2.356   1.976   2.223
  164SOL    OW1  623   2.806   1.482   1.482
  164SOL    HW1  624   2.792   1.394   1.515
  164SOL    HW2  625   2.899   1.486   1.461
  164SOL    MW1  626   2.813   1.475   1.483
  165SOL    OW1  627   2.079   0.877   1.616
  165SOL    HW1  628   2.164   0.836   1.603
  165SOL    HW2  629   2.078   0.902   1.709
  165SOL    MW1  630   2.087   0.876   1.624
  166SOL    OW1  631   3.488   0.439   0.401
  166SOL    HW1  632   3.423   0.368   0.403
  166SOL    HW2  633   0.039   0.423   0.322
  166SOL    MW1  634   3.487   0.431   0.394
  167SOL    OW1  635   0.456   2.606   2.160
  167SOL    HW1  636   0.482   2.631   2.071
  167SOL    HW2  637   0.372   2.561   2.148
  167SOL    MW1  638   0.451   2.605   2.151
  168SOL    OW1  639   3.393   0.286   3.215
  168SOL    HW1  640   3.430   0.371   3.238
  168SOL    HW2  641   3.388   0.287   3.119
  168SOL    MW1  642   3.396   0.294   3.208
  169SOL    OW1  643   2.837   1.021   0.048
  169SOL    HW1  644   2.924   1.063   0.047
  169SOL    HW2  645   2.854   0.931   0.019
  169SOL    MW1  646   2.846   1.017   0.045
  170SOL    OW1  647   2.652   2.676   0.002
  170SOL    HW1  648   2.644   2.761   3.457
  170SOL    HW2  649   2.692   2.697   0.086
  170SOL    MW1  650   2.655   2.686   0.005
  171SOL    OW1  651   2.572   1.961   2.634
  171SOL    HW1  652   2.657   1.993   2.606
  171SOL    HW2  653   2.588   1.922   2.720
  171SOL    MW1  654   2.581   1.960   2.639
  172SOL    OW1  655   3.146   2.781   0.634
  172SOL    HW1  656   3.095   2.830   0.569
  172SOL    HW2  657   3.229   2.764   0.590
  172SOL    MW1  658   3.149   2.784   0.624
  173SOL    OW1  659   1.628   0.151   1.734
  173SOL    HW1  660   1.637   0.056   1.736
  173SOL    HW2  661   1.560   0.168   1.669
  173SOL    MW1  662   1.623   0.144   1.728
  174SOL    OW1  663   3.122   0.394   0.620
  174SOL    HW1  664   3.200   0.431   0.578
  174SOL    HW2  665   3.105   0.451   0.694
  174SOL    MW1  666   3.128   0.402   0.623
  175SOL    OW1  667   1.304   2.275   0.306
  175SOL    HW1  668   1.248   2.202   0.280
  175SOL    HW2  669   1.283   2.289   0.399
  175SOL    MW1  670   1.297   2.270   0.312
  176SOL    OW1  671   3.495   3.385   0.340
  176SOL    HW1  672   3.493   3.480   0.333
  176SOL    HW2  673   3.458   3.367   0.427
  176SOL    MW1  674   3.492   3.392   0.347
  177SOL    OW1  675   2.733   1.657   0.200
  177SOL    HW1  676   2.667   1.641   0.267
  177SOL    HW2  677   2.804   1.597   0.223
  177SOL    MW1  678   2.734   1.650   0.208
  178SOL    OW1  679   1.603   2.682   0.925
  178SOL    HW1  680   1.588   2.775   0.911
  178SOL    HW2  681   1.521   2.640   0.902
  178SOL    MW1  682   1.595   2.687   0.922
  179SOL    OW1  683   1.014   1.544   1.537
  179SOL    HW1  684   0.937   1.566   1.588
  179SOL    HW2  685   0.991   1.463   1.492
  179SOL    MW1  686   1.005   1.539   1.537
  180SOL    OW1  687   2.735   2.433   3.364
  180SOL    HW1  688   2.824   2.459   3.342
  180SOL    HW2  689   2.693   2.514   3.393
  180SOL    MW1  690   2.739   2.442   3.365
  181SOL    OW1  691   2.563   2.591   0.498
  181SOL    HW1  692   2.513   2.622   0.573
  181SOL    HW2  693   2.536   2.500   0.487
  181SOL    MW1  694   2.556   2.586   0.504
  182SOL    OW1  695   0.377   1.961   3.084
  182SOL    HW1  696   0.437   1.902   3.038
  182SOL    HW2  697   0.328   2.004   3.014
  182SOL    MW1  698   0.378   1.960   3.073
  183SOL    OW1  699   1.812   1.856   2.871
  183SOL    HW1  700   1.869   1.891   2.940
  183SOL    HW2  701   1.759   1.790   2.916
  183SOL    MW1  702   1.812   1.853   2.881
  184SOL    OW1  703   1.893   3.043   1.375
  184SOL    HW1  704   1.918   3.008   1.461
  184SOL    HW2  705   1.844   2.973   1.334
  184SOL    MW1  706   1.891   3.034   1.379
  185SOL    OW1  707   1.610   2.109   1.452
  185SOL    HW1  708   1.583   2.200   1.440
  185SOL    HW2  709   1.539   2.069   1.501
  185SOL    MW1  710   1.601   2.114   1.456
  186SOL    OW1  711   1.064   1.651   0.538
  186SOL    HW1  712   1.086   1.697   0.619
  186SOL    HW2  713   1.112   1.569   0.542
  186SOL    MW1  714   1.070   1.648   0.546
  187SOL    OW1  715   0.403   0.953   1.407
  187SOL    HW1  716   0.404   0.905   1.490
  187SOL    HW2  717   0.450   1.034   1.425
  187SOL    MW1  718   0.407   0.956   1.416
  188SOL    OW1  719   3.014   0.935   2.305
  188SOL    HW1  720   3.008   0.970   2.394
  188SOL    HW2  721   2.972   1.002   2.250
  188SOL    MW1  722   3.010   0.944   2.308
  189SOL    OW1  723   2.475   3.386   2.835
  189SOL    HW1  724   2.379   3.387   2.837
  189SOL    HW2  725   2.499   3.476   2.810
  189SOL    MW1  726   2.468   3.395   2.833
  190SOL    OW1  727   2.414   0.939   0.168
  190SOL    HW1  728   2.382   1.011   0.222
  190SOL    HW2  729   2.509   0.950   0.168
  190SOL    MW1  730   2.420   0.947   0.172
  191SOL    OW1  731   2.645   0.242   0.685
  191SOL    HW1  732   2.563   0.291   0.688
  191SOL    HW2  733   2.619   0.154   0.658
  191SOL    MW1  734   2.635   0.238   0.683
  192SOL    OW1  735   2.567   3.082   1.666
  192SOL    HW1  736   2.560   3.022   1.741
  192SOL    HW2  737   2.610   3.159   1.702
  192SOL    MW1  738   2.570   3.083   1.676
  193SOL    OW1  739   1.628   2.755   2.125
  193SOL    HW1  740   1.545   2.762   2.078
  193SOL    HW2  741   1.618   2.814   2.200
  193SOL    MW1  742   1.620   2.761   2.127
  194SOL    OW1  743   3.036   1.374   0.693
  194SOL    HW1  744   3.043   1.395   0.786
  194SOL    HW2  745   2.946   1.343   0.683
  194SOL    MW1  746   3.028   1.373   0.700
  195SOL    OW1  747   1.310   2.898   1.709
  195SOL    HW1  748   1.324   2.892   1.803
  195SOL    HW2  749   1.367   2.970   1.681
  195SOL    MW1  750   1.317   2.904   1.715
  196SOL    OW1  751   1.042   0.977   3.111
  196SOL    HW1  752   1.084   1.060   3.087
  196SOL    HW2  753   0.957   0.979   3.066
  196SOL    MW1  754   1.038   0.985   3.105
  197SOL    OW1  755   1.000   0.634   1.775
  197SOL    HW1  756   1.004   0.605   1.684
  197SOL    HW2  757   1.089   0.621   1.808
  197SOL    MW1  758   1.009   0.631   1.770
  198SOL    OW1  759   2.627   2.686   2.122
  198SOL    HW1  760   2.582   2.740   2.186
  198SOL    HW2  761   2.561   2.666   2.056
  198SOL    MW1  762   2.617   2.689   2.122
  199SOL    OW1  763   1.931   0.852   3.046
  199SOL    HW1  764   1.873   0.887   2.978
  199SOL    HW2  765   1.983   0.927   3.074
  199SOL    MW1  766   1.931   0.862   3.042
  200SOL    OW1  767   3.500   2.580   3.239
  200SOL    HW1  768   3.470   2.527   3.165
  200SOL    HW2  769   3.420   2.601   3.288
  200SOL    MW1  770   3.490   2.577   3.237
  201SOL    OW1  771   2.225   0.140   2.807
  201SOL    HW1  772   2.167   0.214   2.822
  201SOL    HW2  773   2.166   0.067   2.787
  201SOL    MW1  774   2.214   0.140   2.807
  202SOL    OW1  775   2.419   1.139   2.774
  202SOL    HW1  776   2.325   1.152   2.781
  202SOL    HW2  777   2.453   1.224   2.747
  202SOL    MW1  778   2.414   1.148   2.773
  203SOL    OW1  779   2.985   2.370   2.844
  203SOL    HW1  780   3.004   2.435   2.911
  203SOL    HW2  781   3.058   2.374   2.783
  203SOL    MW1  782   2.993   2.376   2.845
  204SOL    OW1  783   0.716   1.433   1.073
  204SOL    HW1  784   0.687   1.524   1.071
  204SOL    HW2  785   0.707   1.406   1.164
  204SOL    MW1  786   0.713   1.439   1.081
  205SOL    OW1  787   1.180   0.461   2.912
  205SOL    HW1  788   1.228   0.543   2.924
  205SOL    HW2  789   1.128   0.452   2.992
  205SOL    MW1  790   1.179   0.468   2.920
  206SOL    OW1  791   0.294   1.038   0.350
  206SOL    HW1  792   0.300   0.952   0.309
  206SOL    HW2  793   0.320   1.024   0.441
  206SOL    MW1  794   0.297   1.029   0.355
  207SOL    OW1  795   1.131   1.088   1.713
  207SOL    HW1  796   1.099   1.149   1.779
  207SOL    HW2  797   1.213   1.127   1.683
  207SOL    MW1  798   1.136   1.097   1.716
  208SOL    OW1  799   0.965   0.847   0.303
  208SOL    HW1  800   0.896   0.908   0.275
  208SOL    HW2  801   0.948   0.834   0.396
  208SOL    MW1  802   0.957   0.852   0.309
  209SOL    OW1  803   2.421   1.376   1.628
  209SOL    HW1  804   2.328   1.395   1.645
  209SOL    HW2  805   2.437   1.293   1.673
  209SOL    MW1  806   2.414   1.370   1.634
  210SOL    OW1  807   1.983   0.391   1.866
  210SOL    HW1  808   2.014   0.446   1.795
  210SOL    HW2  809   2.046   0.406   1.937
  210SOL    MW1  810   1.992   0.397   1.866
  211SOL    OW1  811   2.767   0.752   2.342
  211SOL    HW1  812   2.718   0.702   2.277
  211SOL    HW2  813   2.850   0.774   2.298
  211SOL    MW1  814   2.770   0.750   2.332
  212SOL    OW1  815   2.989   1.190   1.287
  212SOL    HW1  816   2.990   1.095   1.299
  212SOL    HW2  817   3.063   1.208   1.230
  212SOL    MW1  818   2.996   1.183   1.283
  213SOL    OW1  819   0.292   1.308   2.053
  213SOL    HW1  820   0.316   1.388   2.099
  213SOL    HW2  821   0.367   1.290   1.997
  213SOL    MW1  822   0.301   1.314   2.052
  214SOL    OW1  823   3.259   2.488   2.914
  214SOL    HW1  824   3.308   2.504   2.833
  214SOL    HW2  825   3.257   2.393   2.922
  214SOL    MW1  826   3.263   2.481   2.907
  215SOL    OW1  827   2.296   0.658   1.143
  215SOL    HW1  828   2.343   0.620   1.069
  215SOL    HW2  829   2.278   0.584   1.200
  215SOL    MW1  830   2.298   0.648   1.141
  216SOL    OW1  831   1.135   3.008   0.756
  216SOL    HW1  832   1.062   3.056   0.718
  216SOL    HW2  833   1.174   2.960   0.683
  216SOL    MW1  834   1.132   3.008   0.746
  217SOL    OW1  835   1.906   3.224   2.968
  217SOL    HW1  836   1.904   3.143   2.917
  217SOL    HW2  837   1.977   3.211   3.031
  217SOL    MW1  838   1.912   3.215   2.969
  218SOL    OW1  839   1.392   2.807   1.968
  218SOL    HW1  840   1.363   2.716   1.957
  218SOL    HW2  841   1.466   2.816   1.908
  218SOL    MW1  842   1.396   2.800   1.962
  219SOL    OW1  843   2.112   1.648   1.272
  219SOL    HW1  844   2.049   1.651   1.201
  219SOL    HW2  845   2.190   1.691   1.238
  219SOL    MW1  846   2.113   1.652   1.263
  220SOL    OW1  847   2.294   0.234   1.400
  220SOL    HW1  848   2.386   0.225   1.422
  220SOL    HW2  849   2.281   0.329   1.389
  220SOL    MW1  850   2.301   0.242   1.401
  221SOL    OW1  851   2.205   0.187   0.900
  221SOL    HW1  852   2.142   0.260   0.904
  221SOL    HW2  853   2.161   0.116   0.947
  221SOL    MW1  854   2.195   0.187   0.904
  222SOL    OW1  855   0.199   0.023   3.111
  222SOL    HW1  856   0.162   0.033   3.199
  222SOL    HW2  857   0.153   0.089   3.059
  222SOL    MW1  858   0.192   0.030   3.114
  223SOL    OW1  859   2.595   3.253   2.097
  223SOL    HW1  860   2.540   3.187   2.140
  223SOL    HW2  861   2.647   3.291   2.168
  223SOL    MW1  862   2.594   3.251   2.107
  224SOL    OW1  863   2.746   1.357   0.652
  224SOL    HW1  864   2.748   1.452   0.644
  224SOL    HW2  865   2.666   1.330   0.607
  224SOL    MW1  866   2.739   1.363   0.647
  225SOL    OW1  867   1.853   3.040   0.011
  225SOL    HW1  868   1.814   2.961   3.472
  225SOL    HW2  869   1.852   3.024   0.105
  225SOL    MW1  870   1.849   3.031   0.016
  226SOL    OW1  871   1.197   1.894   1.896
  226SOL    HW1  872   1.109   1.897   1.858
  226SOL    HW2  873   1.182   1.878   1.989
  226SOL    MW1  874   1.187   1.893   1.901
  227SOL    OW1  875   0.284   0.242   1.924
  227SOL    HW1  876   0.213   0.202   1.976
  227SOL    HW2  877   0.343   0.169   1.906
  227SOL    MW1  878   0.283   0.232   1.927
  228SOL    OW1  879   2.114   3.197   0.024
  228SOL    HW1  880   2.022   3.185   0.004
  228SOL    HW2  881   2.126   3.292   0.031
  228SOL    MW1  882   2.107   3.204   0.023
  229SOL    OW1  883   1.831   3.144   2.112
  229SOL    HW1  884   1.882   3.067   2.138
  229SOL    HW2  885   1.894   3.199   2.064
  229SOL    MW1  886   1.841   3.142   2.110
  230SOL    OW1  887   1.400   3.294   3.330
  230SOL    HW1  888   1.410   3.289   3.235
  230SOL    HW2  889   1.430   3.209   3.361
  230SOL    MW1  890   1.404   3.286   3.324
  231SOL    OW1  891   2.831   2.206   1.121
  231SOL    HW1  892   2.865   2.245   1.202
  231SOL    HW2  893   2.736   2.202   1.135
  231SOL    MW1  894   2.826   2.209   1.129
  232SOL    OW1  895   0.688   0.595   2.066
  232SOL    HW1  896   0.685   0.504   2.096
  232SOL    HW2  897   0.596   0.620   2.056
  232SOL    MW1  898   0.680   0.589   2.068
  233SOL    OW1  899   0.253   2.576   1.351
  233SOL    HW1  900   0.282   2.651   1.405
  233SOL    HW2  901   0.157   2.584   1.349
  233SOL    MW1  902   0.247   2.584   1.356
  234SOL    OW1  903   0.409   3.410   0.437
  234SOL    HW1  904   0.325   3.381   0.475
  234SOL    HW2  905   0.387   3.489   0.387
  234SOL    MW1  906   0.399   3.414   0.436
  235SOL    OW1  907   2.446   0.033   1.156
  235SOL    HW1  908   2.363   0.019   1.201
  235SOL    HW2  909   2.472   0.122   1.181
  235SOL    MW1  910   2.441   0.039   1.162
  236SOL    OW1  911   0.165   2.882   3.338
  236SOL    HW1  912   0.145   2.976   3.335
  236SOL    HW2  913   0.163   2.854   3.246
  236SOL    MW1  914   0.163   2.888   3.329
  237SOL    OW1  915   2.834   0.133   0.211
  237SOL    HW1  916   2.805   0.202   0.270
  237SOL    HW2  917   2.915   0.167   0.173
  237SOL    MW1  918   2.839   0.142   0.213
  238SOL    OW1  919   0.295   3.468   2.619
  238SOL    HW1  920   0.260   3.477   2.531
  238SOL    HW2  921   0.384   3.435   2.606
  238SOL    MW1  922   0.300   3.466   2.610
  239SOL    OW1  923   2.767   0.370   3.219
  239SOL    HW1  924   2.767   0.418   3.302
  239SOL    HW2  925   2.675   0.359   3.197
  239SOL    MW1  926   2.759   0.373   3.224
  240SOL    OW1  927   2.482   1.786   1.436
  240SOL    HW1  928   2.428   1.825   1.505
  240SOL    HW2  929   2.513   1.861   1.385
  240SOL    MW1  930   2.480   1.797   1.438
  241SOL    OW1  931   1.243   1.970   3.299
  241SOL    HW1  932   1.158   1.939   3.270
  241SOL    HW2  933   1.253   1.934   3.387
  241SOL    MW1  934   1.236   1.964   3.304
  242SOL    OW1  935   3.406   1.474   0.353
  242SOL    HW1  936   3.475   1.476   0.286
  242SOL    HW2  937   3.371   1.385   0.348
  242SOL    MW1  938   3.409   1.466   0.346
  243SOL    OW1  939   0.797   3.074   0.053
  243SOL    HW1  940   0.793   2.984   0.086
  243SOL    HW2  941   0.753   3.070   3.468
  243SOL    MW1  942   0.793   3.065   0.048
  244SOL    OW1  943   1.696   1.429   3.458
  244SOL    HW1  944   1.643   1.507   3.439
  244SOL    HW2  945   1.703   1.427   0.053
  244SOL    MW1  946   1.692   1.436   3.465
  245SOL    OW1  947   0.111   1.198   2.609
  245SOL    HW1  948   0.136   1.219   2.518
  245SOL    HW2  949   0.194   1.201   2.657
  245SOL    MW1  950   0.121   1.200   2.605
  246SOL    OW1  951   2.946   2.248   0.782
  246SOL    HW1  952   2.963   2.179   0.718
  246SOL    HW2  953   2.947   2.203   0.867
  246SOL    MW1  954   2.947   2.237   0.784
  247SOL    OW1  955   3.273   2.674   1.294
  247SOL    HW1  956   3.252   2.656   1.202
  247SOL    HW2  957   3.345   2.614   1.314
  247SOL    MW1  958   3.278   2.667   1.288
  248SOL    OW1  959   1.357   0.201   2.144
  248SOL    HW1  960   1.282   0.255   2.168
  248SOL    HW2  961   1.349   0.188   2.050
  248SOL    MW1  962   1.350   0.204   2.138
  249SOL    OW1  963   2.670   3.365   1.837
  249SOL    HW1  964   2.576   3.371   1.819
  249SOL    HW2  965   2.675   3.318   1.920
  249SOL    MW1  966   2.662   3.361   1.843
  250SOL    OW1  967   1.215   3.108   2.340
  250SOL    HW1  968   1.144   3.044   2.338
  250SOL    HW2  969   1.259   3.098   2.256
  250SOL    MW1  970   1.213   3.102   2.332
  251SOL    OW1  971   2.223   2.327   3.148
  251SOL    HW1  972   2.138   2.332   3.193
  251SOL    HW2  973   2.206   2.366   3.062
  251SOL    MW1  974   2.214   2.331   3.144
  252SOL    OW1  975   1.240   2.575   0.557
  252SOL    HW1  976   1.308   2.596   0.493
  252SOL    HW2  977   1.257   2.633   0.631
  252SOL    MW1  978   1.248   2.582   0.558
  253SOL    OW1  979   0.242   0.401   2.447
  253SOL    HW1  980   0.186   0.432   2.518
  253SOL    HW2  981   0.187   0.340   2.398
  253SOL    MW1  982   0.232   0.398   2.449
  254SOL    OW1  983   2.768   2.747   0.640
  254SOL    HW1  984   2.744   2.662   0.603
  254SOL    HW2  985   2.697   2.805   0.616
  254SOL    MW1  986   2.760   2.744   0.635
  255SOL    OW1  987   1.521   2.179   2.234
  255SOL    HW1  988   1.572   2.114   2.281
  255SOL    HW2  989   1.531   2.260   2.285
  255SOL    MW1  990   1.526   2.181   2.242
  256SOL    OW1  991   3.388   0.825   2.954
  256SOL    HW1  992   3.474   0.864   2.969
  256SOL    HW2  993   3.362   0.790   3.039
  256SOL    MW1  994   3.393   0.825   2.963
  257SOL    OW1  995   1.201   1.292   3.104
  257SOL    HW1  996   1.288   1.265   3.076
  257SOL    HW2  997   1.210   1.384   3.127
  257SOL    MW1  998   1.209   1.298   3.104
  258SOL    OW1  999   1.613   3.364   0.224
  258SOL    HW1 1000   1.618   3.435   0.160
  258SOL    HW2 1001   1.603   3.284   0.171
  258SOL    MW1 1002   1.613   3.363   0.213
  259SOL    OW1 1003   2.571   2.226   1.221
  259SOL    HW1 1004   2.515   2.274   1.161
  259SOL    HW2 1005   2.572   2.279   1.301
  259SOL    MW1 1006   2.566   2.235   1.223
  260SOL    OW1 1007   2.910   2.000   2.792
  260SOL    HW1 1008   2.968   2.055   2.844
  260SOL    HW2 1009   2.966   1.964   2.724
  260SOL    MW1 1010   2.920   2.002   2.791
  261SOL    OW1 1011   1.155   3.181   2.854
  261SOL    HW1 1012   1.095   3.112   2.827
  261SOL    HW2 1013   1.146   3.249   2.787
  261SOL    MW1 1014   1.149   3.181   2.846
  262SOL    OW1 1015   1.145   0.178   0.521
  262SOL    HW1 1016   1.204   0.201   0.592
  262SOL    HW2 1017   1.059   0.170   0.562
  262SOL    MW1 1018   1.143   0.179   0.531
  263SOL    OW1 1019   1.375   1.845   0.449
  263SOL    HW1 1020   1.331   1.807   0.373
  263SOL    HW2 1021   1.424   1.773   0.487
  263SOL    MW1 1022   1.375   1.835   0.445
  264SOL    OW1 1023   1.657   0.393   0.902
  264SOL    HW1 1024   1.685   0.391   0.994
  264SOL    HW2 1025   1.580   0.450   0.902
  264SOL    MW1 1026   1.653   0.398   0.911
  265SOL    OW1 1027   3.468   2.472   1.299
  265SOL    HW1 1028   3.401   2.408   1.279
  265SOL    HW2 1029   0.032   2.463   1.229
  265SOL    MW1 1030   3.468   2.465   1.291
  266SOL    OW1 1031   2.054   1.302   0.615
  266SOL    HW1 1032   2.129   1.248   0.589
  266SOL    HW2 1033   2.091   1.388   0.633
  266SOL    MW1 1034   2.064   1.305   0.614
  267SOL    OW1 1035   0.567   1.402   2.095
  267SOL    HW1 1036   0.600   1.464   2.031
  267SOL    HW2 1037   0.646   1.363   2.134
  267SOL    MW1 1038   0.577   1.404   2.093
  268SOL    OW1 1039   1.318   0.863   1.134
  268SOL    HW1 1040   1.267   0.788   1.164
  268SOL    HW2 1041   1.408   0.830   1.130
  268SOL    MW1 1042   1.322   0.853   1.137
  269SOL    OW1 1043   0.642   1.915   0.125
  269SOL    HW1 1044   0.658   2.008   0.111
  269SOL    HW2 1045   0.632   1.879   0.037
  269SOL    MW1 1046   0.642   1.920   0.116
  270SOL    OW1 1047   1.500   1.365   0.175
  270SOL    HW1 1048   1.471   1.340   0.087
  270SOL    HW2 1049   1.431   1.333   0.233
  270SOL    MW1 1050   1.491   1.360   0.172
  271SOL    OW1 1051   0.828   1.316   2.189
  271SOL    HW1 1052   0.833   1.235   2.139
  271SOL    HW2 1053   0.849   1.384   2.124
  271SOL    MW1 1054   0.830   1.315   2.178
  272SOL    OW1 1055   0.470   3.423   2.921
  272SOL    HW1 1056   0.388   3.427   2.970
  272SOL    HW2 1057   0.464   3.495   2.858
  272SOL    MW1 1058   0.462   3.430   2.919
  273SOL    OW1 1059   3.445   2.007   3.180
  273SOL    HW1 1060   0.016   2.015   3.117
  273SOL    HW2 1061   3.386   2.079   3.159
  273SOL    MW1 1062   3.446   2.014   3.173
  274SOL    OW1 1063   0.065   2.129   2.903
  274SOL    HW1 1064   0.066   2.125   2.808
  274SOL    HW2 1065   0.097   2.217   2.924
  274SOL    MW1 1066   0.068   2.137   2.897
  275SOL    OW1 1067   2.655   2.428   0.980
  275SOL    HW1 1068   2.670   2.513   0.938
  275SOL    HW2 1069   2.717   2.369   0.937
  275SOL    MW1 1070   2.662   2.430   0.972
  276SOL    OW1 1071   1.805   2.665   1.727
  276SOL    HW1 1072   1.885   2.702   1.690
  276SOL    HW2 1073   1.778   2.598   1.663
  276SOL    MW1 1074   1.809   2.662   1.718
  277SOL    OW1 1075   1.148   0.971   2.456
  277SOL    HW1 1076   1.239   0.981   2.428
  277SOL    HW2 1077   1.124   1.057   2.491
  277SOL    MW1 1078   1.154   0.980   2.456
  278SOL    OW1 1079   1.497   0.898   2.821
  278SOL    HW1 1080   1.494   0.959   2.896
  278SOL    HW2 1081   1.517   0.813   2.860
  278SOL    MW1 1082   1.498   0.896   2.832
  279SOL    OW1 1083   1.931   0.396   0.458
  279SOL    HW1 1084   2.004   0.456   0.448
  279SOL    HW2 1085   1.896   0.385   0.369
  279SOL    MW1 1086   1.934   0.400   0.449
  280SOL    OW1 1087   0.892   2.920   3.129
  280SOL    HW1 1088   0.881   2.892   3.038
  280SOL    HW2 1089   0.884   2.839   3.180
  280SOL    MW1 1090   0.891   2.910   3.126
  281SOL    OW1 1091   0.199   0.428   1.004
  281SOL    HW1 1092   0.117   0.407   1.049
  281SOL    HW2 1093   0.171   0.475   0.925
  281SOL    MW1 1094   0.189   0.431   1.001
  282SOL    OW1 1095   0.877   2.319   1.815
  282SOL    HW1 1096   0.941   2.345   1.882
  282SOL    HW2 1097   0.807   2.277   1.864
  282SOL    MW1 1098   0.877   2.318   1.826
  283SOL    OW1 1099   2.753   1.976   0.410
  283SOL    HW1 1100   2.660   1.956   0.413
  283SOL    HW2 1101   2.796   1.898   0.446
  283SOL    MW1 1102   2.749   1.967   0.414
  284SOL    OW1 1103   0.413   2.264   1.015
  284SOL    HW1 1104   0.502   2.297   1.004
  284SOL    HW2 1105   0.421   2.195   1.081
  284SOL    MW1 1106   0.422   2.261   1.020
  285SOL    OW1 1107   1.074   0.572   3.430
  285SOL    HW1 1108   1.169   0.565   3.437
  285SOL    HW2 1109   1.059   0.660   3.397
  285SOL    MW1 1110   1.081   0.579   3.428
  286SOL    OW1 1111   2.043   3.404   0.685
  286SOL    HW1 1112   1.999   3.479   0.644
  286SOL    HW2 1113   2.096   3.443   0.754
  286SOL    MW1 1114   2.044   3.414   0.687
  287SOL    OW1 1115   2.018   2.682   1.495
  287SOL    HW1 1116   2.100   2.665   1.448
  287SOL    HW2 1117   1.959   2.716   1.428
  287SOL    MW1 1118   2.020   2.683   1.485
  288SOL    OW1 1119   0.008   0.696   1.646
  288SOL    HW1 1120   0.076   0.762   1.633
  288SOL    HW2 1121   0.056   0.613   1.643
  288SOL    MW1 1122   0.019   0.694   1.644
  289SOL    OW1 1123   0.872   2.522   2.794
  289SOL    HW1 1124   0.798   2.543   2.852
  289SOL    HW2 1125   0.949   2.543   2.845
  289SOL    MW1 1126   0.872   2.525   2.804
  290SOL    OW1 1127   0.590   0.340   3.472
  290SOL    HW1 1128   0.497   0.358   3.456
  290SOL    HW2 1129   0.635   0.375   3.394
  290SOL    MW1 1130   0.586   0.345   3.463
  291SOL    OW1 1131   0.965   1.733   0.106
  291SOL    HW1 1132   0.949   1.649   0.062
  291SOL    HW2 1133   1.052   1.724   0.144
  291SOL    MW1 1134   0.971   1.725   0.105
  292SOL    OW1 1135   0.069   2.021   1.279
  292SOL    HW1 1136   0.037   1.977   1.358
  292SOL    HW2 1137   0.154   2.057   1.304
  292SOL    MW1 1138   0.074   2.020   1.289
  293SOL    OW1 1139   0.175   0.160   1.498
  293SOL    HW1 1140   0.256   0.181   1.545
  293SOL    HW2 1141   0.107   0.166   1.564
  293SOL    MW1 1142   0.176   0.162   1.508
  294SOL    OW1 1143   1.853   1.006   0.089
  294SOL    HW1 1144   1.817   1.080   0.139
  294SOL    HW2 1145   1.828   1.024   3.499
  294SOL    MW1 1146   1.847   1.014   0.086
  295SOL    OW1 1147   2.695   3.033   0.341
  295SOL    HW1 1148   2.647   2.954   0.367
  295SOL    HW2 1149   2.767   3.040   0.403
  295SOL    MW1 1150   2.697   3.027   0.348
  296SOL    OW1 1151   1.830   0.921   1.973
  296SOL    HW1 1152   1.813   0.904   2.066
  296SOL    HW2 1153   1.747   0.900   1.929
  296SOL    MW1 1154   1.821   0.918   1.978
  297SOL    OW1 1155   1.525   1.662   3.451
  297SOL    HW1 1156   1.439   1.629   3.477
  297SOL    HW2 1157   1.506   1.739   3.397
  297SOL    MW1 1158   1.516   1.666   3.448
  298SOL    OW1 1159   2.008   2.453   2.686
  298SOL    HW1 1160   2.075   2.514   2.654
  298SOL    HW2 1161   2.000   2.388   2.616
  298SOL    MW1 1162   2.014   2.453   2.677
  299SOL    OW1 1163   1.242   0.812   2.145
  299SOL    HW1 1164   1.278   0.896   2.118
  299SOL    HW2 1165   1.307   0.748   2.117
  299SOL    MW1 1166   1.251   0.814   2.140
  300SOL    OW1 1167   0.769   1.190   1.759
  300SOL    HW1 1168   0.820   1.140   1.694
  300SOL    HW2 1169   0.772   1.280   1.727
  300SOL    MW1 1170   0.774   1.194   1.750
  301SOL    OW1 1171   0.497   3.001   3.322
  301SOL    HW1 1172   0.523   3.090   3.302
  301SOL    HW2 1173   0.511   2.952   3.241
  301SOL    MW1 1174   0.500   3.004   3.313
  302SOL    OW1 1175   0.385   1.001   3.199
  302SOL    HW1 1176   0.377   0.906   3.198
  302SOL    HW2 1177   0.327   1.029   3.270
  302SOL    MW1 1178   0.379   0.995   3.205
  303SOL    OW1 1179   3.020   2.621   1.401
  303SOL    HW1 1180   3.109   2.647   1.378
  303SOL    HW2 1181   2.973   2.703   1.415
  303SOL    MW1 1182   3.024   2.630   1.400
  304SOL    OW1 1183   1.064   1.279   0.193
  304SOL    HW1 1184   1.067   1.211   0.261
  304SOL    HW2 1185   0.993   1.337   0.219
  304SOL    MW1 1186   1.058   1.278   0.202
  305SOL    OW1 1187   2.217   1.737   2.680
  305SOL    HW1 1188   2.267   1.802   2.730
  305SOL    HW2 1189   2.219   1.770   2.590
  305SOL    MW1 1190   2.222   1.746   2.676
  306SOL    OW1 1191   3.322   2.369   0.682
  306SOL    HW1 1192   3.261   2.374   0.608
  306SOL    HW2 1193   3.365   2.284   0.672
  306SOL    MW1 1194   3.321   2.362   0.674
  307SOL    OW1 1195   1.385   1.287   2.244
  307SOL    HW1 1196   1.361   1.238   2.165
  307SOL    HW2 1197   1.480   1.290   2.242
  307SOL    MW1 1198   1.391   1.283   2.237
  308SOL    OW1 1199   2.239   2.915   0.927
  308SOL    HW1 1200   2.272   2.976   0.992
  308SOL    HW2 1201   2.147   2.939   0.915
  308SOL    MW1 1202   2.234   2.922   0.932
  309SOL    OW1 1203   1.166   2.654   1.227
  309SOL    HW1 1204   1.111   2.670   1.304
  309SOL    HW2 1205   1.215   2.575   1.249
  309SOL    MW1 1206   1.165   2.648   1.236
  310SOL    OW1 1207   2.462   3.307   2.486
  310SOL    HW1 1208   2.449   3.281   2.577
  310SOL    HW2 1209   2.413   3.243   2.435
  310SOL    MW1 1210   2.456   3.299   2.490
  311SOL    OW1 1211   0.395   2.052   3.430
  311SOL    HW1 1212   0.486   2.082   3.429
  311SOL    HW2 1213   0.376   2.029   3.339
  311SOL    MW1 1214   0.401   2.052   3.422
  312SOL    OW1 1215   1.883   1.771   1.119
  312SOL    HW1 1216   1.794   1.804   1.126
  312SOL    HW2 1217   1.936   1.848   1.098
  312SOL    MW1 1218   1.880   1.781   1.118
  313SOL    OW1 1219   1.341   2.356   1.273
  313SOL    HW1 1220   1.281   2.290   1.239
  313SOL    HW2 1221   1.336   2.348   1.368
  313SOL    MW1 1222   1.335   2.350   1.278
  314SOL    OW1 1223   3.349   1.871   1.563
  314SOL    HW1 1224   3.433   1.856   1.607
  314SOL    HW2 1225   3.309   1.942   1.613
  314SOL    MW1 1226   3.353   1.876   1.572
  315SOL    OW1 1227   2.066   0.783   2.035
  315SOL    HW1 1228   2.139   0.845   2.040
  315SOL    HW2 1229   1.998   0.831   1.987
  315SOL    MW1 1230   2.067   0.793   2.031
  316SOL    OW1 1231   1.143   1.842   2.160
  316SOL    HW1 1232   1.186   1.809   2.239
  316SOL    HW2 1233   1.052   1.852   2.185
  316SOL    MW1 1234   1.139   1.840   2.169
  317SOL    OW1 1235   2.402   3.461   0.551
  317SOL    HW1 1236   2.324   3.490   0.598
  317SOL    HW2 1237   2.380   3.373   0.519
  317SOL    MW1 1238   2.393   3.456   0.552
  318SOL    OW1 1239   0.987   2.688   3.325
  318SOL    HW1 1240   0.952   2.662   3.410
  318SOL    HW2 1241   0.963   2.617   3.266
  318SOL    MW1 1242   0.982   2.679   3.327
  319SOL    OW1 1243   1.099   2.557   0.120
  319SOL    HW1 1244   1.192   2.583   0.119
  319SOL    HW2 1245   1.100   2.464   0.098
  319SOL    MW1 1246   1.108   2.551   0.118
  320SOL    OW1 1247   0.013   1.867   0.498
  320SOL    HW1 1248   0.106   1.858   0.518
  320SOL    HW2 1249   3.480   1.777   0.496
  320SOL    MW1 1250   0.018   1.858   0.499
  321SOL    OW1 1251   2.350   2.018   0.699
  321SOL    HW1 1252   2.258   2.001   0.719
  321SOL    HW2 1253   2.384   1.934   0.670
  321SOL    MW1 1254   2.345   2.009   0.698
  322SOL    OW1 1255   2.525   1.580   2.235
  322SOL    HW1 1256   2.439   1.601   2.199
  322SOL    HW2 1257   2.527   1.623   2.320
  322SOL    MW1 1258   2.518   1.586   2.240
  323SOL    OW1 1259   1.364   1.371   2.533
  323SOL    HW1 1260   1.292   1.319   2.569
  323SOL    HW2 1261   1.372   1.341   2.442
  323SOL    MW1 1262   1.358   1.363   2.528
  324SOL    OW1 1263   0.651   1.002   0.573
  324SOL    HW1 1264   0.657   0.907   0.560
  324SOL    HW2 1265   0.742   1.032   0.570
  324SOL    MW1 1266   0.660   0.996   0.571
  325SOL    OW1 1267   0.325   0.202   0.913
  325SOL    HW1 1268   0.276   0.275   0.951
  325SOL    HW2 1269   0.396   0.186   0.975
  325SOL    MW1 1270   0.327   0.207   0.922
  326SOL    OW1 1271   2.867   0.937   0.838
  326SOL    HW1 1272   2.923   0.952   0.915
  326SOL    HW2 1273   2.839   0.846   0.847
  326SOL    MW1 1274   2.869   0.930   0.846
  327SOL    OW1 1275   3.359   2.423   3.448
  327SOL    HW1 1276   3.341   2.454   0.037
  327SOL    HW2 1277   3.440   2.372   3.457
  327SOL    MW1 1278   3.364   2.421   3.457
  328SOL    OW1 1279   2.817   2.508   2.355
  328SOL    HW1 1280   2.809   2.477   2.445
  328SOL    HW2 1281   2.732   2.548   2.336
  328SOL    MW1 1282   2.808   2.509   2.362
  329SOL    OW1 1283   3.212   2.929   2.717
  329SOL    HW1 1284   3.250   2.927   2.629
  329SOL    HW2 1285   3.223   2.840   2.751
  329SOL    MW1 1286   3.216   2.921   2.712
  330SOL    OW1 1287   1.688   0.503   2.702
  330SOL    HW1 1288   1.686   0.413   2.736
  330SOL    HW2 1289   1.761   0.503   2.641
  330SOL    MW1 1290   1.694   0.495   2.700
  331SOL    OW1 1291   1.664   1.287   0.645
  331SOL    HW1 1292   1.584   1.302   0.694
  331SOL    HW2 1293   1.638   1.296   0.553
  331SOL    MW1 1294   1.655   1.289   0.641
  332SOL    OW1 1295   2.029   0.397   0.908
  332SOL    HW1 1296   1.941   0.416   0.877
  332SOL    HW2 1297   2.058   0.479   0.949
  332SOL    MW1 1298   2.024   0.406   0.909
  333SOL    OW1 1299   3.033   2.148   0.012
  333SOL    HW1 1300   3.088   2.225   0.029
  333SOL    HW2 1301   2.997   2.125   0.097
  333SOL    MW1 1302   3.035   2.153   0.021
  334SOL    OW1 1303   2.392   0.970   2.565
  334SOL    HW1 1304   2.451   0.898   2.587
  334SOL    HW2 1305   2.397   1.029   2.640
  334SOL    MW1 1306   2.398   0.969   2.573
  335SOL    OW1 1307   0.596   0.912   0.179
  335SOL    HW1 1308   0.648   0.881   0.105
  335SOL    HW2 1309   0.536   0.976   0.141
  335SOL    MW1 1310   0.596   0.915   0.169
  336SOL    OW1 1311   2.064   2.056   0.733
  336SOL    HW1 1312   2.017   2.086   0.654
  336SOL    HW2 1313   1.994   2.036   0.795
  336SOL    MW1 1314   2.053   2.057   0.731
  337SOL    OW1 1315   0.695   1.654   2.207
  337SOL    HW1 1316   0.648   1.575   2.234
  337SOL    HW2 1317   0.709   1.642   2.113
  337SOL    MW1 1318   0.692   1.646   2.201
  338SOL    OW1 1319   2.095   3.487   2.215
  338SOL    HW1 1320   2.082   3.460   2.124
  338SOL    HW2 1321   2.032   3.435   2.265
  338SOL    MW1 1322   2.088   3.480   2.212
  339SOL    OW1 1323   1.602   0.794   0.426
  339SOL    HW1 1324   1.627   0.738   0.498
  339SOL    HW2 1325   1.685   0.828   0.392
  339SOL    MW1 1326   1.611   0.792   0.429
  340SOL    OW1 1327   0.209   1.820   0.214
  340SOL    HW1 1328   0.270   1.886   0.181
  340SOL    HW2 1329   0.254   1.781   0.289
  340SOL    MW1 1330   0.219   1.822   0.218
  341SOL    OW1 1331   1.299   0.618   3.195
  341SOL    HW1 1332   1.238   0.691   3.207
  341SOL    HW2 1333   1.374   0.640   3.250
  341SOL    MW1 1334   1.300   0.627   3.201
  342SOL    OW1 1335   2.524   0.484   0.265
  342SOL    HW1 1336   2.537   0.393   0.293
  342SOL    HW2 1337   2.601   0.503   0.212
  342SOL    MW1 1338   2.532   0.477   0.262
  343SOL    OW1 1339   0.237   3.377   1.419
  343SOL    HW1 1340   0.214   3.328   1.498
  343SOL    HW2 1341   0.190   3.460   1.428
  343SOL    MW1 1342   0.231   3.380   1.427
  344SOL    OW1 1343   2.356   2.347   1.086
  344SOL    HW1 1344   2.371   2.437   1.057
  344SOL    HW2 1345   2.301   2.309   1.017
  344SOL    MW1 1346   2.352   2.352   1.077
  345SOL    OW1 1347   1.898   3.149   2.553
  345SOL    HW1 1348   1.948   3.086   2.501
  345SOL    HW2 1349   1.807   3.117   2.547
  345SOL    MW1 1350   1.894   3.140   2.548
  346SOL    OW1 1351   1.380   1.768   2.426
  346SOL    HW1 1352   1.400   1.836   2.362
  346SOL    HW2 1353   1.394   1.686   2.379
  346SOL    MW1 1354   1.383   1.767   2.416
  347SOL    OW1 1355   0.355   2.133   0.577
  347SOL    HW1 1356   0.303   2.053   0.573
  347SOL    HW2 1357   0.446   2.104   0.581
  347SOL    MW1 1358   0.358   2.123   0.577
  348SOL    OW1 1359   2.216   1.874   1.679
  348SOL    HW1 1360   2.273   1.881   1.757
  348SOL    HW2 1361   2.225   1.958   1.635
  348SOL    MW1 1362   2.222   1.882   1.682
  349SOL    OW1 1363   1.252   1.025   0.927
  349SOL    HW1 1364   1.306   1.001   0.852
  349SOL    HW2 1365   1.273   0.961   0.994
  349SOL    MW1 1366   1.258   1.017   0.926
  350SOL    OW1 1367   0.460   0.718   0.669
  350SOL    HW1 1368   0.380   0.670   0.691
  350SOL    HW2 1369   0.444   0.753   0.582
  350SOL    MW1 1370   0.452   0.717   0.663
  351SOL    OW1 1371   0.520   0.781   2.354
  351SOL    HW1 1372   0.508   0.758   2.261
  351SOL    HW2 1373   0.478   0.867   2.363
  351SOL    MW1 1374   0.515   0.787   2.346
  352SOL    OW1 1375   3.242   3.296   2.320
  352SOL    HW1 1376   3.256   3.318   2.412
  352SOL    HW2 1377   3.242   3.200   2.318
  352SOL    MW1 1378   3.243   3.290   2.328
  353SOL    OW1 1379   1.392   2.503   1.979
  353SOL    HW1 1380   1.329   2.438   2.011
  353SOL    HW2 1381   1.444   2.456   1.913
  353SOL    MW1 1382   1.391   2.493   1.976
  354SOL    OW1 1383   1.780   3.481   3.094
  354SOL    HW1 1384   1.854   3.421   3.096
  354SOL    HW2 1385   1.772   0.007   3.002
  354SOL    MW1 1386   1.786   3.478   3.086
  355SOL    OW1 1387   1.477   3.262   1.083
  355SOL    HW1 1388   1.560   3.235   1.122
  355SOL    HW2 1389   1.494   3.261   0.989
  355SOL    MW1 1390   1.486   3.260   1.078
  356SOL    OW1 1391   0.632   0.425   1.048
  356SOL    HW1 1392   0.707   0.471   1.009
  356SOL    HW2 1393   0.564   0.491   1.056
  356SOL    MW1 1394   0.633   0.435   1.045
  357SOL    OW1 1395   1.638   3.200   2.342
  357SOL    HW1 1396   1.716   3.203   2.286
  357SOL    HW2 1397   1.564   3.209   2.282
  357SOL    MW1 1398   1.638   3.201   2.332
  358SOL    OW1 1399   2.623   1.745   3.221
  358SOL    HW1 1400   2.668   1.829   3.212
  358SOL    HW2 1401   2.621   1.729   3.315
  358SOL    MW1 1402   2.627   1.751   3.229
  359SOL    OW1 1403   2.232   1.712   2.248
  359SOL    HW1 1404   2.206   1.648   2.314
  359SOL    HW2 1405   2.168   1.783   2.258
  359SOL    MW1 1406   2.224   1.713   2.255
  360SOL    OW1 1407   3.094   2.407   0.193
  360SOL    HW1 1408   3.176   2.428   0.238
  360SOL    HW2 1409   3.058   2.333   0.242
  360SOL    MW1 1410   3.098   2.402   0.201
  361SOL    OW1 1411   2.007   2.252   0.300
  361SOL    HW1 1412   1.980   2.168   0.265
  361SOL    HW2 1413   1.938   2.313   0.273
  361SOL    MW1 1414   1.998   2.250   0.295
  362SOL    OW1 1415   2.003   1.230   0.946
  362SOL    HW1 1416   1.974   1.268   1.029
  362SOL    HW2 1417   2.015   1.137   0.965
  362SOL    MW1 1418   2.002   1.225   0.955
  363SOL    OW1 1419   3.273   0.836   1.464
  363SOL    HW1 1420   3.243   0.752   1.430
  363SOL    HW2 1421   3.274   0.825   1.559
  363SOL    MW1 1422   3.271   0.827   1.470
  364SOL    OW1 1423   2.555   1.077   1.076
  364SOL    HW1 1424   2.554   1.067   0.980
  364SOL    HW2 1425   2.464   1.098   1.099
  364SOL    MW1 1426   2.547   1.078   1.069
  365SOL    OW1 1427   3.158   1.449   3.169
  365SOL    HW1 1428   3.064   1.442   3.183
  365SOL    HW2 1429   3.172   1.408   3.083
  365SOL    MW1 1430   3.151   1.444   3.162
  366SOL    OW1 1431   0.850   3.040   1.892
  366SOL    HW1 1432   0.826   2.964   1.945
  366SOL    HW2 1433   0.901   3.096   1.950
  366SOL    MW1 1434   0.852   3.038   1.902
  367SOL    OW1 1435   0.140   2.800   2.588
  367SOL    HW1 1436   0.104   2.716   2.560
  367SOL    HW2 1437   0.137   2.797   2.684
  367SOL    MW1 1438   0.136   2.792   2.594
  368SOL    OW1 1439   1.862   2.412   1.098
  368SOL    HW1 1440   1.800   2.470   1.054
  368SOL    HW2 1441   1.880   2.343   1.033
  368SOL    MW1 1442   1.858   2.411   1.088
  369SOL    OW1 1443   1.107   3.482   2.696
  369SOL    HW1 1444   1.153   0.064   2.717
  369SOL    HW2 1445   1.099   3.484   2.600
  369SOL    MW1 1446   1.110   3.490   2.689
  370SOL    OW1 1447   1.882   1.304   2.588
  370SOL    HW1 1448   1.847   1.337   2.504
  370SOL    HW2 1449   1.882   1.381   2.645
  370SOL    MW1 1450   1.879   1.314   2.585
  371SOL    OW1 1451   2.650   0.359   2.791
  371SOL    HW1 1452   2.730   0.397   2.827
  371SOL    HW2 1453   2.657   0.376   2.697
  371SOL    MW1 1454   2.658   0.364   2.786
  372SOL    OW1 1455   3.065   1.459   1.990
  372SOL    HW1 1456   3.157   1.452   2.015
  372SOL    HW2 1457   3.017   1.429   2.067
  372SOL    MW1 1458   3.069   1.456   1.999
  373SOL    OW1 1459   2.248   3.191   1.941
  373SOL    HW1 1460   2.341   3.203   1.958
  373SOL    HW2 1461   2.223   3.116   1.995
  373SOL    MW1 1462   2.254   3.185   1.947
  374SOL    OW1 1463   0.531   2.542   0.459
  374SOL    HW1 1464   0.476   2.507   0.529
  374SOL    HW2 1465   0.474   2.602   0.412
  374SOL    MW1 1466   0.521   2.544   0.461
  375SOL    OW1 1467   2.104   2.892   2.709
  375SOL    HW1 1468   2.103   2.982   2.677
  375SOL    HW2 1469   2.056   2.842   2.643
  375SOL    MW1 1470   2.100   2.896   2.700
  376SOL    OW1 1471   0.962   2.291   1.317
  376SOL    HW1 1472   0.953   2.378   1.356
  376SOL    HW2 1473   0.911   2.234   1.375
  376SOL    MW1 1474   0.956   2.294   1.326
  377SOL    OW1 1475   0.008   1.743   1.978
  377SOL    HW1 1476   0.052   1.719   2.059
  377SOL    HW2 1477   0.079   1.753   1.914
  377SOL    MW1 1478   0.018   1.742   1.979
  378SOL    OW1 1479   2.180   0.454   2.055
  378SOL    HW1 1480   2.265   0.410   2.061
  378SOL    HW2 1481   2.202   0.548   2.056
  378SOL    MW1 1482   2.190   0.459   2.055
  379SOL    OW1 1483   0.744   0.747   3.480
  379SOL    HW1 1484   0.796   0.700   0.046
  379SOL    HW2 1485   0.668   0.691   3.465
  379SOL    MW1 1486   0.742   0.738   3.485
  380SOL    OW1 1487   2.766   3.074   0.031
  380SOL    HW1 1488   2.848   3.101   0.072
  380SOL    HW2 1489   2.707   3.056   0.104
  380SOL    MW1 1490   2.768   3.075   0.041
  381SOL    OW1 1491   1.931   1.931   1.508
  381SOL    HW1 1492   1.845   1.963   1.481
  381SOL    HW2 1493   1.991   2.003   1.487
  381SOL    MW1 1494   1.929   1.940   1.504
  382SOL    OW1 1495   1.714   3.435   0.490
  382SOL    HW1 1496   1.789   3.493   0.474
  382SOL    HW2 1497   1.682   3.412   0.403
  382SOL    MW1 1498   1.718   3.438   0.481
  383SOL    OW1 1499   0.876   0.929   1.522
  383SOL    HW1 1500   0.961   0.963   1.549
  383SOL    HW2 1501   0.843   0.882   1.598
  383SOL    MW1 1502   0.881   0.928   1.531
  384SOL    OW1 1503   2.962   0.349   2.173
  384SOL    HW1 1504   3.007   0.430   2.199
  384SOL    HW2 1505   2.870   0.375   2.164
  384SOL    MW1 1506   2.958   0.359   2.175
  385SOL    OW1 1507   2.876   0.611   1.077
  385SOL    HW1 1508   2.921   0.620   1.161
  385SOL    HW2 1509   2.868   0.516   1.064
  385SOL    MW1 1510   2.879   0.603   1.083
  386SOL    OW1 1511   0.764   0.777   2.490
  386SOL    HW1 1512   0.684   0.788   2.438
  386SOL    HW2 1513   0.827   0.838   2.451
  386SOL    MW1 1514   0.762   0.783   2.482
  387SOL    OW1 1515   1.739   1.166   3.352
  387SOL    HW1 1516   1.781   1.178   3.267
  387SOL    HW2 1517   1.733   1.255   3.388
  387SOL    MW1 1518   1.742   1.175   3.348
  388SOL    OW1 1519   1.559   1.192   1.202
  388SOL    HW1 1520   1.493   1.262   1.208
  388SOL    HW2 1521   1.571   1.179   1.108
  388SOL    MW1 1522   1.554   1.197   1.194
  389SOL    OW1 1523   2.823   3.233   0.689
  389SOL    HW1 1524   2.765   3.216   0.763
  389SOL    HW2 1525   2.899   3.176   0.705
  389SOL    MW1 1526   2.825   3.226   0.697
  390SOL    OW1 1527   0.336   1.805   1.762
  390SOL    HW1 1528   0.385   1.863   1.704
  390SOL    HW2 1529   0.396   1.732   1.778
  390SOL    MW1 1530   0.346   1.803   1.758
  391SOL    OW1 1531   1.899   2.138   2.529
  391SOL    HW1 1532   1.852   2.077   2.586
  391SOL    HW2 1533   1.846   2.218   2.530
  391SOL    MW1 1534   1.890   2.140   2.534
  392SOL    OW1 1535   2.982   3.160   0.179
  392SOL    HW1 1536   2.991   3.237   0.235
  392SOL    HW2 1537   3.058   3.106   0.200
  392SOL    MW1 1538   2.990   3.162   0.186
  393SOL    OW1 1539   2.940   1.387   2.880
  393SOL    HW1 1540   3.013   1.444   2.854
  393SOL    HW2 1541   2.864   1.445   2.880
  393SOL    MW1 1542   2.940   1.398   2.878
  394SOL    OW1 1543   2.484   2.855   0.447
  394SOL    HW1 1544   2.506   2.764   0.429
  394SOL    HW2 1545   2.418   2.878   0.382
  394SOL    MW1 1546   2.480   2.849   0.440
  395SOL    OW1 1547   0.036   2.780   0.902
  395SOL    HW1 1548   0.131   2.784   0.903
  395SOL    HW2 1549   0.015   2.735   0.820
  395SOL    MW1 1550   0.042   2.776   0.894
  396SOL    OW1 1551   0.077   0.594   0.723
  396SOL    HW1 1552   0.092   0.685   0.697
  396SOL    HW2 1553   0.040   0.552   0.645
  396SOL    MW1 1554   0.075   0.598   0.713
  397SOL    OW1 1555   1.362   1.807   1.438
  397SOL    HW1 1556   1.362   1.757   1.519
  397SOL    HW2 1557   1.270   1.828   1.421
  397SOL    MW1 1558   1.354   1.804   1.443
  398SOL    OW1 1559   1.080   2.121   2.728
  398SOL    HW1 1560   1.109   2.063   2.659
  398SOL    HW2 1561   1.080   2.067   2.807
  398SOL    MW1 1562   1.082   2.111   2.729
  399SOL    OW1 1563   2.634   1.210   2.305
  399SOL    HW1 1564   2.594   1.260   2.235
  399SOL    HW2 1565   2.661   1.128   2.264
  399SOL    MW1 1566   2.633   1.207   2.295
  400SOL    OW1 1567   3.036   2.249   1.390
  400SOL    HW1 1568   3.113   2.197   1.367
  400SOL    HW2 1569   3.066   2.340   1.385
  400SOL    MW1 1570   3.046   2.252   1.387
  401SOL    OW1 1571   2.384   2.647   1.934
  401SOL    HW1 1572   2.356   2.592   2.007
  401SOL    HW2 1573   2.341   2.731   1.949
  401SOL    MW1 1574   2.378   2.650   1.942
  402SOL    OW1 1575   2.757   0.929   1.762
  402SOL    HW1 1576   2.699   0.915   1.837
  402SOL    HW2 1577   2.778   0.841   1.731
  402SOL    MW1 1578   2.754   0.920   1.766
  403SOL    OW1 1579   0.369   3.215   0.753
  403SOL    HW1 1580   0.395   3.252   0.838
  403SOL    HW2 1581   0.404   3.277   0.689
  403SOL    MW1 1582   0.375   3.224   0.755
  404SOL    OW1 1583   2.192   1.146   3.089
  404SOL    HW1 1584   2.278   1.189   3.099
  404SOL    HW2 1585   2.172   1.154   2.996
  404SOL    MW1 1586   2.198   1.151   3.082
  405SOL    OW1 1587   0.412   2.563   2.555
  405SOL    HW1 1588   0.319   2.544   2.548
  405SOL    HW2 1589   0.437   2.595   2.468
  405SOL    MW1 1590   0.406   2.565   2.547
  406SOL    OW1 1591   2.051   0.003   0.003
  406SOL    HW1 1592   1.971   3.468   3.462
  406SOL    HW2 1593   2.039   3.486   0.097
  406SOL    MW1 1594   2.043   3.498   0.008
  407SOL    OW1 1595   2.136   2.683   3.470
  407SOL    HW1 1596   2.213   2.732   3.444
  407SOL    HW2 1597   2.063   2.727   3.426
  407SOL    MW1 1598   2.136   2.691   3.464
  408SOL    OW1 1599   2.068   3.456   1.879
  408SOL    HW1 1600   2.044   3.472   1.787
  408SOL    HW2 1601   2.144   3.398   1.874
  408SOL    MW1 1602   2.073   3.452   1.870
  409SOL    OW1 1603   0.215   3.010   0.477
  409SOL    HW1 1604   0.184   2.922   0.499
  409SOL    HW2 1605   0.255   3.042   0.557
  409SOL    MW1 1606   0.215   3.005   0.486
  410SOL    OW1 1607   1.421   1.650   2.698
  410SOL    HW1 1608   1.419   1.557   2.675
  410SOL    HW2 1609   1.425   1.695   2.613
  410SOL    MW1 1610   1.421   1.646   2.688
  411SOL    OW1 1611   0.825   2.744   1.508
  411SOL    HW1 1612   0.905   2.756   1.559
  411SOL    HW2 1613   0.799   2.832   1.481
  411SOL    MW1 1614   0.830   2.753   1.510
  412SOL    OW1 1615   2.265   1.552   0.105
  412SOL    HW1 1616   2.352   1.531   0.070
  412SOL    HW2 1617   2.275   1.638   0.145
  412SOL    MW1 1618   2.274   1.558   0.106
  413SOL    OW1 1619   3.316   3.381   0.615
  413SOL    HW1 1620   3.346   3.295   0.586
  413SOL    HW2 1621   3.232   3.363   0.659
  413SOL    MW1 1622   3.311   3.371   0.616
  414SOL    OW1 1623   1.458   2.938   0.853
  414SOL    HW1 1624   1.489   3.021   0.816
  414SOL    HW2 1625   1.406   2.964   0.929
  414SOL    MW1 1626   1.456   2.948   0.857
  415SOL    OW1 1627   1.682   3.224   1.647
  415SOL    HW1 1628   1.704   3.131   1.643
  415SOL    HW2 1629   1.752   3.262   1.700
  415SOL    MW1 1630   1.691   3.219   1.652
  416SOL    OW1 1631   0.790   0.506   2.440
  416SOL    HW1 1632   0.882   0.505   2.414
  416SOL    HW2 1633   0.767   0.599   2.443
  416SOL    MW1 1634   0.796   0.515   2.438
  417SOL    OW1 1635   2.293   2.362   0.045
  417SOL    HW1 1636   2.303   2.408   0.129
  417SOL    HW2 1637   2.200   2.371   0.024
  417SOL    MW1 1638   2.285   2.367   0.051
  418SOL    OW1 1639   0.747   0.592   0.548
  418SOL    HW1 1640   0.715   0.522   0.492
  418SOL    HW2 1641   0.736   0.560   0.637
  418SOL    MW1 1642   0.743   0.583   0.551
  419SOL    OW1 1643   0.743   2.093   1.591
  419SOL    HW1 1644   0.726   2.010   1.637
  419SOL    HW2 1645   0.794   2.145   1.653
  419SOL    MW1 1646   0.746   2.090   1.601
  420SOL    OW1 1647   3.054   2.919   1.786
  420SOL    HW1 1648   3.120   2.885   1.726
  420SOL    HW2 1649   3.096   2.991   1.832
  420SOL    MW1 1650   3.063   2.922   1.785
  421SOL    OW1 1651   2.682   1.456   0.012
  421SOL    HW1 1652   2.717   1.379   0.057
  421SOL    HW2 1653   2.695   1.528   0.074
  421SOL    MW1 1654   2.686   1.456   0.021
  422SOL    OW1 1655   0.485   2.128   2.194
  422SOL    HW1 1656   0.399   2.165   2.171
  422SOL    HW2 1657   0.541   2.205   2.206
  422SOL    MW1 1658   0.482   2.138   2.193
  423SOL    OW1 1659   2.311   2.898   3.302
  423SOL    HW1 1660   2.262   2.885   3.221
  423SOL    HW2 1661   2.269   2.973   3.344
  423SOL    MW1 1662   2.303   2.903   3.298
  424SOL    OW1 1663   1.207   2.884   3.305
  424SOL    HW1 1664   1.245   2.849   3.224
  424SOL    HW2 1665   1.128   2.830   3.319
  424SOL    MW1 1666   1.203   2.876   3.299
  425SOL    OW1 1667   0.539   3.356   2.388
  425SOL    HW1 1668   0.461   3.367   2.334
  425SOL    HW2 1669   0.610   3.342   2.325
  425SOL    MW1 1670   0.538   3.355   2.377
  426SOL    OW1 1671   3.441   1.066   2.418
  426SOL    HW1 1672   3.471   1.093   2.505
  426SOL    HW2 1673   3.403   0.979   2.432
  426SOL    MW1 1674   3.441   1.061   2.427
  427SOL    OW1 1675   0.498   1.262   0.953
  427SOL    HW1 1676   0.549   1.340   0.930
  427SOL    HW2 1677   0.561   1.205   0.998
  427SOL    MW1 1678   0.509   1.264   0.955
  428SOL    OW1 1679   2.182   2.337   1.650
  428SOL    HW1 1680   2.203   2.425   1.618
  428SOL    HW2 1681   2.123   2.352   1.724
  428SOL    MW1 1682   2.179   2.346   1.654
  429SOL    OW1 1683   0.296   1.977   1.974
  429SOL    HW1 1684   0.384   1.994   2.008
  429SOL    HW2 1685   0.311   1.917   1.901
  429SOL    MW1 1686   0.306   1.973   1.971
  430SOL    OW1 1687   1.867   1.697   3.276
  430SOL    HW1 1688   1.862   1.616   3.326
  430SOL    HW2 1689   1.861   1.766   3.342
  430SOL    MW1 1690   1.866   1.696   3.286
  431SOL    OW1 1691   2.826   3.164   1.449
  431SOL    HW1 1692   2.797   3.248   1.413
  431SOL    HW2 1693   2.914   3.182   1.482
  431SOL    MW1 1694   2.832   3.173   1.449
  432SOL    OW1 1695   2.705   0.388   2.505
  432SOL    HW1 1696   2.722   0.472   2.464
  432SOL    HW2 1697   2.641   0.346   2.447
  432SOL    MW1 1698   2.701   0.391   2.496
  433SOL    OW1 1699   1.472   1.250   1.962
  433SOL    HW1 1700   1.419   1.329   1.953
  433SOL    HW2 1701   1.562   1.280   1.954
  433SOL    MW1 1702   1.475   1.260   1.960
  434SOL    OW1 1703   0.011   3.288   2.571
  434SOL    HW1 1704   0.058   3.337   2.639
  434SOL    HW2 1705   3.419   3.295   2.595
  434SOL    MW1 1706   0.007   3.293   2.579
  435SOL    OW1 1707   0.085   1.527   0.135
  435SOL    HW1 1708   0.105   1.620   0.140
  435SOL    HW2 1709   0.109   1.502   0.045
  435SOL    MW1 1710   0.089   1.533   0.127
  436SOL    OW1 1711   0.947   3.269   1.579
  436SOL    HW1 1712   0.945   3.177   1.556
  436SOL    HW2 1713   0.854   3.295   1.583
  436SOL    MW1 1714   0.938   3.263   1.578
  437SOL    OW1 1715   2.207   3.012   1.724
  437SOL    HW1 1716   2.211   3.086   1.784
  437SOL    HW2 1717   2.233   2.937   1.777
  437SOL    MW1 1718   2.210   3.012   1.734
  438SOL    OW1 1719   0.078   0.175   3.432
  438SOL    HW1 1720   0.005   0.205   3.377
  438SOL    HW2 1721   0.069   0.225   0.013
  438SOL    MW1 1722   0.071   0.182   3.434
  439SOL    OW1 1723   3.273   0.727   3.260
  439SOL    HW1 1724   3.297   0.809   3.302
  439SOL    HW2 1725   3.336   0.663   3.294
  439SOL    MW1 1726   3.281   0.729   3.266
  440SOL    OW1 1727   2.500   1.726   2.477
  440SOL    HW1 1728   2.509   1.804   2.531
  440SOL    HW2 1729   2.479   1.656   2.539
  440SOL    MW1 1730   2.499   1.726   2.488
  441SOL    OW1 1731   0.663   2.596   0.879
  441SOL    HW1 1732   0.584   2.651   0.879
  441SOL    HW2 1733   0.702   2.609   0.793
  441SOL    MW1 1734   0.659   2.602   0.872
  442SOL    OW1 1735   0.904   2.423   0.935
  442SOL    HW1 1736   0.822   2.467   0.913
  442SOL    HW2 1737   0.964   2.494   0.960
  442SOL    MW1 1738   0.902   2.433   0.935
  443SOL    OW1 1739   3.047   2.429   1.749
  443SOL    HW1 1740   3.094   2.445   1.668
  443SOL    HW2 1741   3.047   2.513   1.794
  443SOL    MW1 1742   3.051   2.438   1.746
  444SOL    OW1 1743   3.261   1.234   1.045
  444SOL    HW1 1744   3.319   1.202   0.976
  444SOL    HW2 1745   3.318   1.250   1.120
  444SOL    MW1 1746   3.271   1.233   1.045
  445SOL    OW1 1747   1.153   2.222   0.558
  445SOL    HW1 1748   1.095   2.196   0.629
  445SOL    HW2 1749   1.150   2.318   0.558
  445SOL    MW1 1750   1.147   2.229   0.564
  446SOL    OW1 1751   1.817   0.452   2.345
  446SOL    HW1 1752   1.829   0.544   2.321
  446SOL    HW2 1753   1.840   0.404   2.265
  446SOL    MW1 1754   1.820   0.456   2.335
  447SOL    OW1 1755   0.405   1.284   0.303
  447SOL    HW1 1756   0.337   1.346   0.329
  447SOL    HW2 1757   0.373   1.199   0.333
  447SOL    MW1 1758   0.396   1.282   0.308
  448SOL    OW1 1759   0.061   1.017   3.306
  448SOL    HW1 1760   0.075   0.923   3.293
  448SOL    HW2 1761   0.036   1.025   3.398
  448SOL    MW1 1762   0.060   1.009   3.313
  449SOL    OW1 1763   0.133   0.405   2.729
  449SOL    HW1 1764   0.109   0.421   2.820
  449SOL    HW2 1765   0.141   0.310   2.722
  449SOL    MW1 1766   0.132   0.398   2.736
  450SOL    OW1 1767   0.764   0.143   3.253
  450SOL    HW1 1768   0.709   0.147   3.331
  450SOL    HW2 1769   0.760   0.232   3.216
  450SOL    MW1 1770   0.759   0.152   3.257
  451SOL    OW1 1771   3.380   1.826   3.426
  451SOL    HW1 1772   3.436   1.838   0.003
  451SOL    HW2 1773   3.376   1.913   3.386
  451SOL    MW1 1774   3.385   1.835   3.430
  452SOL    OW1 1775   3.364   1.423   3.363
  452SOL    HW1 1776   3.319   1.368   3.298
  452SOL    HW2 1777   3.378   1.364   3.438
  452SOL    MW1 1778   3.361   1.413   3.364
  453SOL    OW1 1779   1.662   1.168   2.714
  453SOL    HW1 1780   1.734   1.184   2.653
  453SOL    HW2 1781   1.651   1.073   2.714
  453SOL    MW1 1782   1.668   1.161   2.709
  454SOL    OW1 1783   0.674   1.932   2.926
  454SOL    HW1 1784   0.756   1.883   2.929
  454SOL    HW2 1785   0.692   2.012   2.976
  454SOL    MW1 1786   0.683   1.935   2.931
  455SOL    OW1 1787   1.853   1.583   1.466
  455SOL    HW1 1788   1.759   1.572   1.454
  455SOL    HW2 1789   1.888   1.589   1.378
  455SOL    MW1 1790   1.848   1.582   1.457
  456SOL    OW1 1791   2.725   0.110   1.534
  456SOL    HW1 1792   2.709   0.105   1.628
  456SOL    HW2 1793   2.679   0.034   1.498
  456SOL    MW1 1794   2.719   0.103   1.539
  457SOL    OW1 1795   0.515   1.663   3.405
  457SOL    HW1 1796   0.436   1.704   3.439
  457SOL    HW2 1797   0.506   1.571   3.430
  457SOL    MW1 1798   0.507   1.658   3.410
  458SOL    OW1 1799   2.863   2.770   1.092
  458SOL    HW1 1800   2.898   2.682   1.075
  458SOL    HW2 1801   2.930   2.812   1.146
  458SOL    MW1 1802   2.872   2.766   1.095
  459SOL    OW1 1803   3.011   1.678   3.371
  459SOL    HW1 1804   2.983   1.766   3.396
  459SOL    HW2 1805   2.940   1.621   3.402
  459SOL    MW1 1806   3.002   1.681   3.376
  460SOL    OW1 1807   2.617   3.367   1.293
  460SOL    HW1 1808   2.598   3.277   1.265
  460SOL    HW2 1809   2.561   3.421   1.239
  460SOL    MW1 1810   2.610   3.364   1.286
  461SOL    OW1 1811   2.273   3.081   1.435
  461SOL    HW1 1812   2.237   3.029   1.507
  461SOL    HW2 1813   2.356   3.114   1.468
  461SOL    MW1 1814   2.277   3.079   1.444
  462SOL    OW1 1815   1.501   3.210   2.735
  462SOL    HW1 1816   1.451   3.139   2.696
  462SOL    HW2 1817   1.435   3.273   2.763
  462SOL    MW1 1818   1.490   3.209   2.734
  463SOL    OW1 1819   0.016   1.095   1.526
  463SOL    HW1 1820   3.441   1.039   1.506
  463SOL    HW2 1821   0.057   1.111   1.441
  463SOL    MW1 1822   0.013   1.091   1.517
  464SOL    OW1 1823   1.660   1.269   1.631
  464SOL    HW1 1824   1.568   1.252   1.653
  464SOL    HW2 1825   1.707   1.258   1.714
  464SOL    MW1 1826   1.656   1.267   1.641
  465SOL    OW1 1827   1.145   1.434   1.921
  465SOL    HW1 1828   1.151   1.492   1.997
  465SOL    HW2 1829   1.076   1.472   1.867
  465SOL    MW1 1830   1.140   1.443   1.923
  466SOL    OW1 1831   0.654   2.411   2.251
  466SOL    HW1 1832   0.647   2.412   2.346
  466SOL    HW2 1833   0.596   2.481   2.222
  466SOL    MW1 1834   0.648   2.417   2.257
  467SOL    OW1 1835   3.255   2.102   1.761
  467SOL    HW1 1836   3.212   2.184   1.784
  467SOL    HW2 1837   3.348   2.118   1.777
  467SOL    MW1 1838   3.260   2.110   1.764
  468SOL    OW1 1839   0.439   2.852   2.647
  468SOL    HW1 1840   0.387   2.926   2.615
  468SOL    HW2 1841   0.394   2.775   2.614
  468SOL    MW1 1842   0.430   2.852   2.641
  469SOL    OW1 1843   3.359   1.834   0.740
  469SOL    HW1 1844   3.387   1.896   0.807
  469SOL    HW2 1845   3.391   1.872   0.657
  469SOL    MW1 1846   3.365   1.843   0.738
  470SOL    OW1 1847   2.862   1.368   2.303
  470SOL    HW1 1848   2.792   1.305   2.318
  470SOL    HW2 1849   2.821   1.453   2.319
  470SOL    MW1 1850   2.852   1.370   2.305
  471SOL    OW1 1851   1.372   0.374   1.706
  471SOL    HW1 1852   1.459   0.381   1.746
  471SOL    HW2 1853   1.357   0.280   1.695
  471SOL    MW1 1854   1.378   0.366   1.708
  472SOL    OW1 1855   1.608   0.185   3.374
  472SOL    HW1 1856   1.585   0.259   3.318
  472SOL    HW2 1857   1.657   0.126   3.317
  472SOL    MW1 1858   1.610   0.187   3.364
  473SOL    OW1 1859   1.560   3.295   0.797
  473SOL    HW1 1860   1.485   3.311   0.738
  473SOL    HW2 1861   1.598   3.382   0.811
  473SOL    MW1 1862   1.556   3.305   0.793
  474SOL    OW1 1863   2.999   0.309   1.759
  474SOL    HW1 1864   3.022   0.216   1.763
  474SOL    HW2 1865   3.076   0.351   1.720
  474SOL    MW1 1866   3.008   0.304   1.756
  475SOL    OW1 1867   3.214   1.217   0.307
  475SOL    HW1 1868   3.234   1.142   0.363
  475SOL    HW2 1869   3.123   1.238   0.327
  475SOL    MW1 1870   3.208   1.212   0.314
  476SOL    OW1 1871   0.393   0.486   1.201
  476SOL    HW1 1872   0.358   0.427   1.268
  476SOL    HW2 1873   0.331   0.480   1.129
  476SOL    MW1 1874   0.384   0.481   1.200
  477SOL    OW1 1875   0.479   2.334   1.335
  477SOL    HW1 1876   0.542   2.364   1.401
  477SOL    HW2 1877   0.420   2.408   1.322
  477SOL    MW1 1878   0.480   2.343   1.340
  478SOL    OW1 1879   0.742   3.309   0.225
  478SOL    HW1 1880   0.675   3.262   0.275
  478SOL    HW2 1881   0.771   3.248   0.158
  478SOL    MW1 1882   0.738   3.300   0.224
  479SOL    OW1 1883   3.230   2.135   2.524
  479SOL    HW1 1884   3.188   2.209   2.479
  479SOL    HW2 1885   3.319   2.165   2.542
  479SOL    MW1 1886   3.234   2.144   2.521
  480SOL    OW1 1887   3.183   0.023   1.814
  480SOL    HW1 1888   3.178   0.034   1.719
  480SOL    HW2 1889   3.231   3.442   1.827
  480SOL    MW1 1890   3.187   0.017   1.806
  481SOL    OW1 1891   1.932   0.937   2.487
  481SOL    HW1 1892   1.873   0.991   2.433
  481SOL    HW2 1893   1.878   0.862   2.513
  481SOL    MW1 1894   1.922   0.935   2.484
  482SOL    OW1 1895   2.453   0.490   3.475
  482SOL    HW1 1896   2.495   0.406   3.496
  482SOL    HW2 1897   2.408   0.514   0.056
  482SOL    MW1 1898   2.453   0.484   3.484
  483SOL    OW1 1899   1.575   1.597   1.825
  483SOL    HW1 1900   1.491   1.614   1.784
  483SOL    HW2 1901   1.640   1.618   1.757
  483SOL    MW1 1902   1.573   1.600   1.815
  484SOL    OW1 1903   0.125   2.186   0.748
  484SOL    HW1 1904   0.166   2.222   0.669
  484SOL    HW2 1905   0.199   2.154   0.800
  484SOL    MW1 1906   0.135   2.186   0.745
  485SOL    OW1 1907   2.680   2.432   1.489
  485SOL    HW1 1908   2.687   2.490   1.565
  485SOL    HW2 1909   2.763   2.444   1.443
  485SOL    MW1 1910   2.688   2.438   1.492
  486SOL    OW1 1911   1.812   1.019   0.798
  486SOL    HW1 1912   1.856   0.977   0.871
  486SOL    HW2 1913   1.783   0.947   0.743
  486SOL    MW1 1914   1.813   1.009   0.800
  487SOL    OW1 1915   1.704   0.716   3.193
  487SOL    HW1 1916   1.761   0.791   3.174
  487SOL    HW2 1917   1.677   0.683   3.108
  487SOL    MW1 1918   1.707   0.720   3.184
  488SOL    OW1 1919   1.510   1.864   1.197
  488SOL    HW1 1920   1.538   1.956   1.203
  488SOL    HW2 1921   1.459   1.849   1.276
  488SOL    MW1 1922   1.508   1.871   1.204
  489SOL    OW1 1923   3.245   0.833   0.180
  489SOL    HW1 1924   3.298   0.787   0.245
  489SOL    HW2 1925   3.303   0.848   0.106
  489SOL    MW1 1926   3.255   0.831   0.179
  490SOL    OW1 1927   0.755   0.323   1.808
  490SOL    HW1 1928   0.806   0.403   1.817
  490SOL    HW2 1929   0.736   0.296   1.898
  490SOL    MW1 1930   0.758   0.327   1.817
  491SOL    OW1 1931   2.847   2.044   1.942
  491SOL    HW1 1932   2.895   2.014   1.865
  491SOL    HW2 1933   2.899   2.013   2.016
  491SOL    MW1 1934   2.856   2.039   1.942
  492SOL    OW1 1935   3.165   1.532   2.755
  492SOL    HW1 1936   3.189   1.477   2.680
  492SOL    HW2 1937   3.194   1.619   2.730
  492SOL    MW1 1938   3.170   1.535   2.746
  493SOL    OW1 1939   0.439   0.508   0.346
  493SOL    HW1 1940   0.475   0.423   0.371
  493SOL    HW2 1941   0.358   0.515   0.397
  493SOL    MW1 1942   0.435   0.501   0.353
  494SOL    OW1 1943   0.310   0.722   2.804
  494SOL    HW1 1944   0.275   0.803   2.765
  494SOL    HW2 1945   0.249   0.654   2.775
  494SOL    MW1 1946   0.301   0.723   2.798
  495SOL    OW1 1947   1.206   1.418   0.530
  495SOL    HW1 1948   1.140   1.349   0.516
  495SOL    HW2 1949   1.263   1.382   0.597
  495SOL    MW1 1950   1.205   1.408   0.535
  496SOL    OW1 1951   2.554   1.221   3.304
  496SOL    HW1 1952   2.526   1.268   3.382
  496SOL    HW2 1953   2.647   1.238   3.296
  496SOL    MW1 1954   2.560   1.226   3.310
  497SOL    OW1 1955   1.177   2.397   1.653
  497SOL    HW1 1956   1.129   2.317   1.672
  497SOL    HW2 1957   1.261   2.385   1.696
  497SOL    MW1 1958   1.180   2.389   1.659
  498SOL    OW1 1959   1.107   2.187   3.419
  498SOL    HW1 1960   1.023   2.142   3.411
  498SOL    HW2 1961   1.170   2.128   3.377
  498SOL    MW1 1962   1.105   2.178   3.414
  499SOL    OW1 1963   3.387   1.742   3.140
  499SOL    HW1 1964   3.419   1.828   3.167
  499SOL    HW2 1965   3.351   1.757   3.053
  499SOL    MW1 1966   3.387   1.751   3.135
  500SOL    OW1 1967   0.041   2.762   0.543
  500SOL    HW1 1968   0.077   2.682   0.580
  500SOL    HW2 1969   0.012   2.737   0.455
  500SOL    MW1 1970   0.042   2.753   0.538
  501SOL    OW1 1971   0.933   0.786   0.575
  501SOL    HW1 1972   0.965   0.766   0.664
  501SOL    HW2 1973   0.862   0.724   0.561
  501SOL    MW1 1974   0.930   0.779   0.582
  502SOL    OW1 1975   2.351   2.080   3.108
  502SOL    HW1 1976   2.307   2.163   3.124
  502SOL    HW2 1977   2.393   2.058   3.191
  502SOL    MW1 1978   2.351   2.085   3.117
  503SOL    OW1 1979   0.922   3.378   2.971
  503SOL    HW1 1980   0.963   3.436   2.906
  503SOL    HW2 1981   0.844   3.425   3.000
  503SOL    MW1 1982   0.919   3.387   2.968
  504SOL    OW1 1983   1.498   0.121   2.371
  504SOL    HW1 1984   1.452   0.141   2.290
  504SOL    HW2 1985   1.589   0.111   2.346
  504SOL    MW1 1986   1.502   0.122   2.362
  505SOL    OW1 1987   1.053   2.089   1.151
  505SOL    HW1 1988   1.029   2.162   1.208
  505SOL    HW2 1989   0.985   2.087   1.084
  505SOL    MW1 1990   1.045   2.095   1.150
  506SOL    OW1 1991   1.320   3.379   1.452
  506SOL    HW1 1992   1.405   3.351   1.486
  506SOL    HW2 1993   1.273   3.412   1.528
  506SOL    MW1 1994   1.324   3.380   1.462
  507SOL    OW1 1995   0.695   2.904   2.213
  507SOL    HW1 1996   0.654   2.819   2.228
  507SOL    HW2 1997   0.789   2.888   2.225
  507SOL    MW1 1998   0.700   2.895   2.215
  508SOL    OW1 1999   0.120   2.369   0.313
  508SOL    HW1 2000   0.095   2.278   0.295
  508SOL    HW2 2001   0.213   2.373   0.291
  508SOL    MW1 2002   0.126   2.361   0.310
  509SOL    OW1 2003   1.490   0.184   1.496
  509SOL    HW1 2004   1.584   0.185   1.479
  509SOL    HW2 2005   1.456   0.263   1.453
  509SOL    MW1 2006   1.495   0.192   1.491
  510SOL    OW1 2007   2.421   2.716   2.513
  510SOL    HW1 2008   2.366   2.739   2.438
  510SOL    HW2 2009   2.382   2.764   2.587
  510SOL    MW1 2010   2.413   2.722   2.513
  511SOL    OW1 2011   1.875   0.829   0.317
  511SOL    HW1 2012   1.868   0.736   0.295
  511SOL    HW2 2013   1.855   0.875   0.236
  511SOL    MW1 2014   1.873   0.825   0.308
  512SOL    OW1 2015   1.055   0.610   2.100
  512SOL    HW1 2016   0.964   0.641   2.105
  512SOL    HW2 2017   1.107   0.684   2.131
  512SOL    MW1 2018   1.051   0.620   2.103
  513SOL    OW1 2019   0.647   1.882   0.978
  513SOL    HW1 2020   0.667   1.975   0.983
  513SOL    HW2 2021   0.702   1.849   0.907
  513SOL    MW1 2022   0.654   1.887   0.972
  514SOL    OW1 2023   2.338   0.108   1.782
  514SOL    HW1 2024   2.267   0.115   1.845
  514SOL    HW2 2025   2.355   0.198   1.754
  514SOL    MW1 2026   2.333   0.117   1.785
  515SOL    OW1 2027   1.707   0.430   3.180
  515SOL    HW1 2028   1.786   0.433   3.125
  515SOL    HW2 2029   1.707   0.514   3.227
  515SOL    MW1 2030   1.714   0.438   3.180
  516SOL    OW1 2031   3.205   2.896   0.926
  516SOL    HW1 2032   3.274   2.836   0.898
  516SOL    HW2 2033   3.173   2.860   1.008
  516SOL    MW1 2034   3.208   2.888   0.931
  517SOL    OW1 2035   0.095   0.674   2.147
  517SOL    HW1 2036   0.077   0.596   2.201
  517SOL    HW2 2037   0.153   0.728   2.202
  517SOL    MW1 2038   0.099   0.672   2.157
  518SOL    OW1 2039   1.865   0.317   2.584
  518SOL    HW1 2040   1.937   0.256   2.564
  518SOL    HW2 2041   1.840   0.352   2.499
  518SOL    MW1 2042   1.869   0.314   2.575
  519SOL    OW1 2043   0.709   2.499   1.576
  519SOL    HW1 2044   0.769   2.460   1.639
  519SOL    HW2 2045   0.750   2.581   1.551
  519SOL    MW1 2046   0.718   2.503   1.579
  520SOL    OW1 2047   0.572   1.438   0.566
  520SOL    HW1 2048   0.553   1.403   0.479
  520SOL    HW2 2049   0.653   1.488   0.555
  520SOL    MW1 2050   0.578   1.439   0.557
  521SOL    OW1 2051   0.427   0.662   2.022
  521SOL    HW1 2052   0.336   0.663   2.053
  521SOL    HW2 2053   0.423   0.699   1.934
  521SOL    MW1 2054   0.419   0.665   2.017
  522SOL    OW1 2055   1.021   2.066   0.345
  522SOL    HW1 2056   0.949   2.010   0.375
  522SOL    HW2 2057   1.059   2.102   0.425
  522SOL    MW1 2058   1.018   2.064   0.354
  523SOL    OW1 2059   2.999   0.639   0.795
  523SOL    HW1 2060   2.941   0.639   0.871
  523SOL    HW2 2061   2.945   0.669   0.723
  523SOL    MW1 2062   2.989   0.642   0.795
  524SOL    OW1 2063   1.796   1.247   0.214
  524SOL    HW1 2064   1.824   1.324   0.264
  524SOL    HW2 2065   1.700   1.255   0.209
  524SOL    MW1 2066   1.790   1.255   0.218
  525SOL    OW1 2067   0.779   0.981   2.997
  525SOL    HW1 2068   0.711   0.918   3.020
  525SOL    HW2 2069   0.775   0.988   2.902
  525SOL    MW1 2070   0.773   0.976   2.990
  526SOL    OW1 2071   1.099   3.397   3.214
  526SOL    HW1 2072   1.097   3.390   3.309
  526SOL    HW2 2073   1.051   3.477   3.195
  526SOL    MW1 2074   1.094   3.403   3.221
  527SOL    OW1 2075   0.639   2.809   1.191
  527SOL    HW1 2076   0.687   2.730   1.214
  527SOL    HW2 2077   0.571   2.778   1.130
  527SOL    MW1 2078   0.637   2.799   1.187
  528SOL    OW1 2079   0.037   1.717   2.374
  528SOL    HW1 2080   0.089   1.637   2.373
  528SOL    HW2 2081   0.088   1.779   2.426
  528SOL    MW1 2082   0.046   1.716   2.378
  529SOL    OW1 2083   2.284   0.681   3.358
  529SOL    HW1 2084   2.359   0.622   3.366
  529SOL    HW2 2085   2.237   0.650   3.282
  529SOL    MW1 2086   2.287   0.673   3.352
  530SOL    OW1 2087   2.598   2.631   1.730
  530SOL    HW1 2088   2.524   2.627   1.790
  530SOL    HW2 2089   2.561   2.662   1.648
  530SOL    MW1 2090   2.588   2.634   1.728
  531SOL    OW1 2091   0.688   2.201   0.084
  531SOL    HW1 2092   0.684   2.276   0.025
  531SOL    HW2 2093   0.707   2.239   0.170
  531SOL    MW1 2094   0.689   2.211   0.087
  532SOL    OW1 2095   1.869   2.756   1.018
  532SOL    HW1 2096   1.782   2.719   1.001
  532SOL    HW2 2097   1.884   2.743   1.111
  532SOL    MW1 2098   1.862   2.752   1.025
  533SOL    OW1 2099   2.091   1.506   1.611
  533SOL    HW1 2100   2.124   1.447   1.542
  533SOL    HW2 2101   2.001   1.478   1.625
  533SOL    MW1 2102   2.086   1.498   1.606
  534SOL    OW1 2103   3.297   1.883   1.272
  534SOL    HW1 2104   3.386   1.897   1.240
  534SOL    HW2 2105   3.306   1.868   1.365
  534SOL    MW1 2106   3.305   1.883   1.277
  535SOL    OW1 2107   3.316   2.686   2.255
  535SOL    HW1 2108   3.345   2.611   2.308
  535SOL    HW2 2109   3.397   2.728   2.226
  535SOL    MW1 2110   3.326   2.683   2.258
  536SOL    OW1 2111   2.560   1.601   1.694
  536SOL    HW1 2112   2.517   1.516   1.689
  536SOL    HW2 2113   2.539   1.635   1.781
  536SOL    MW1 2114   2.554   1.596   1.701
  537SOL    OW1 2115   3.026   1.586   0.510
  537SOL    HW1 2116   3.053   1.515   0.568
  537SOL    HW2 2117   2.936   1.566   0.487
  537SOL    MW1 2118   3.021   1.578   0.513
  538SOL    OW1 2119   1.430   2.227   1.887
  538SOL    HW1 2120   1.511   2.189   1.921
  538SOL    HW2 2121   1.368   2.217   1.959
  538SOL    MW1 2122   1.432   2.223   1.897
  539SOL    OW1 2123   2.335   0.171   3.419
  539SOL    HW1 2124   2.252   0.124   3.420
  539SOL    HW2 2125   2.325   0.236   3.349
  539SOL    MW1 2126   2.326   0.173   3.413
  540SOL    OW1 2127   1.551   0.415   0.188
  540SOL    HW1 2128   1.593   0.349   0.133
  540SOL    HW2 2129   1.465   0.377   0.210
  540SOL    MW1 2130   1.547   0.406   0.185
  541SOL    OW1 2131   2.071   2.183   1.185
  541SOL    HW1 2132   2.001   2.248   1.195
  541SOL    HW2 2133   2.122   2.215   1.111
  541SOL    MW1 2134   2.069   2.192   1.179
  542SOL    OW1 2135   2.944   2.944   0.512
  542SOL    HW1 2136   2.894   2.871   0.548
  542SOL    HW2 2137   2.975   2.992   0.589
  542SOL    MW1 2138   2.943   2.942   0.522
  543SOL    OW1 2139   3.297   1.821   2.265
  543SOL    HW1 2140   3.230   1.831   2.333
  543SOL    HW2 2141   3.373   1.785   2.311
  543SOL    MW1 2142   3.298   1.819   2.275
  544SOL    OW1 2143   2.612   2.202   1.686
  544SOL    HW1 2144   2.525   2.165   1.672
  544SOL    HW2 2145   2.631   2.251   1.606
  544SOL    MW1 2146   2.606   2.203   1.678
  545SOL    OW1 2147   1.518   1.731   0.704
  545SOL    HW1 2148   1.469   1.809   0.729
  545SOL    HW2 2149   1.497   1.667   0.772
  545SOL    MW1 2150   1.511   1.732   0.712
  546SOL    OW1 2151   2.790   2.763   3.050
  546SOL    HW1 2152   2.717   2.703   3.033
  546SOL    HW2 2153   2.854   2.744   2.981
  546SOL    MW1 2154   2.789   2.756   3.042
  547SOL    OW1 2155   3.092   0.909   2.926
  547SOL    HW1 2156   3.181   0.876   2.932
  547SOL    HW2 2157   3.056   0.868   2.847
  547SOL    MW1 2158   3.097   0.903   2.919
  548SOL    OW1 2159   0.215   3.170   1.752
  548SOL    HW1 2160   0.133   3.158   1.703
  548SOL    HW2 2161   0.220   3.093   1.808
  548SOL    MW1 2162   0.208   3.162   1.752
  549SOL    OW1 2163   3.260   1.284   2.534
  549SOL    HW1 2164   3.288   1.231   2.460
  549SOL    HW2 2165   3.282   1.231   2.611
  549SOL    MW1 2166   3.265   1.275   2.534
  550SOL    OW1 2167   0.534   3.261   3.266
  550SOL    HW1 2168   0.485   3.272   3.347
  550SOL    HW2 2169   0.473   3.289   3.197
  550SOL    MW1 2170   0.524   3.265   3.267
  551SOL    OW1 2171   2.229   0.843   2.876
  551SOL    HW1 2172   2.323   0.833   2.889
  551SOL    HW2 2173   2.192   0.834   2.964
  551SOL    MW1 2174   2.234   0.841   2.885
  552SOL    OW1 2175   0.655   0.256   2.249
  552SOL    HW1 2176   0.598   0.239   2.324
  552SOL    HW2 2177   0.690   0.169   2.226
  552SOL    MW1 2178   0.653   0.247   2.254
  553SOL    OW1 2179   3.240   2.362   1.110
  553SOL    HW1 2180   3.289   2.369   1.028
  553SOL    HW2 2181   3.160   2.315   1.085
  553SOL    MW1 2182   3.237   2.358   1.101
  554SOL    OW1 2183   0.862   2.501   3.149
  554SOL    HW1 2184   0.890   2.421   3.104
  554SOL    HW2 2185   0.779   2.524   3.108
  554SOL    MW1 2186   0.857   2.496   3.141
  555SOL    OW1 2187   3.330   3.255   3.184
  555SOL    HW1 2188   3.384   3.310   3.241
  555SOL    HW2 2189   3.380   3.174   3.175
  555SOL    MW1 2190   3.339   3.253   3.189
  556SOL    OW1 2191   2.248   2.579   0.934
  556SOL    HW1 2192   2.195   2.658   0.943
  556SOL    HW2 2193   2.327   2.608   0.888
  556SOL    MW1 2194   2.251   2.588   0.931
  557SOL    OW1 2195   1.024   0.444   3.136
  557SOL    HW1 2196   1.064   0.366   3.174
  557SOL    HW2 2197   1.031   0.510   3.206
  557SOL    MW1 2198   1.029   0.443   3.146
  558SOL    OW1 2199   2.238   2.099   1.520
  558SOL    HW1 2200   2.243   2.123   1.427
  558SOL    HW2 2201   2.221   2.182   1.565
  558SOL    MW1 2202   2.237   2.109   1.515
  559SOL    OW1 2203   3.046   0.642   1.354
  559SOL    HW1 2204   3.061   0.581   1.427
  559SOL    HW2 2205   2.999   0.715   1.393
  559SOL    MW1 2206   3.043   0.643   1.364
  560SOL    OW1 2207   1.402   2.487   2.796
  560SOL    HW1 2208   1.320   2.533   2.810
  560SOL    HW2 2209   1.377   2.396   2.782
  560SOL    MW1 2210   1.393   2.483   2.796
  561SOL    OW1 2211   3.449   0.659   1.139
  561SOL    HW1 2212   3.359   0.656   1.107
  561SOL    HW2 2213   3.441   0.688   1.230
  561SOL    MW1 2214   3.440   0.662   1.144
  562SOL    OW1 2215   0.076   1.130   2.036
  562SOL    HW1 2216   0.139   1.200   2.055
  562SOL    HW2 2217   0.051   1.144   1.945
  562SOL    MW1 2218   0.080   1.138   2.030
  563SOL    OW1 2219   1.282   0.275   0.262
  563SOL    HW1 2220   1.222   0.255   0.191
  563SOL    HW2 2221   1.244   0.232   0.339
  563SOL    MW1 2222   1.273   0.269   0.263
  564SOL    OW1 2223   2.425   2.282   2.279
  564SOL    HW1 2224   2.371   2.207   2.255
  564SOL    HW2 2225   2.484   2.249   2.348
  564SOL    MW1 2226   2.426   2.273   2.283
  565SOL    OW1 2227   3.217   0.297   3.498
  565SOL    HW1 2228   3.130   0.337   3.495
  565SOL    HW2 2229   3.273   0.359   3.452
  565SOL    MW1 2230   3.214   0.306   3.493
  566SOL    OW1 2231   0.813   1.406   0.125
  566SOL    HW1 2232   0.720   1.405   0.149
  566SOL    HW2 2233   0.819   1.345   0.051
  566SOL    MW1 2234   0.805   1.400   0.120
  567SOL    OW1 2235   2.044   1.371   3.256
  567SOL    HW1 2236   2.068   1.435   3.189
  567SOL    HW2 2237   2.098   1.294   3.236
  567SOL    MW1 2238   2.051   1.370   3.248
  568SOL    OW1 2239   2.472   1.030   0.462
  568SOL    HW1 2240   2.407   0.983   0.514
  568SOL    HW2 2241   2.433   1.117   0.447
  568SOL    MW1 2242   2.462   1.034   0.465
  569SOL    OW1 2243   3.299   1.349   1.664
  569SOL    HW1 2244   3.328   1.383   1.579
  569SOL    HW2 2245   3.379   1.317   1.706
  569SOL    MW1 2246   3.309   1.349   1.660
  570SOL    OW1 2247   2.502   0.345   1.808
  570SOL    HW1 2248   2.556   0.266   1.806
  570SOL    HW2 2249   2.463   0.346   1.895
  570SOL    MW1 2250   2.504   0.338   1.815
  571SOL    OW1 2251   0.021   1.404   1.358
  571SOL    HW1 2252   0.062   1.333   1.309
  571SOL    HW2 2253   0.094   1.463   1.379
  571SOL    MW1 2254   0.031   1.403   1.355
  572SOL    OW1 2255   0.640   2.092   1.318
  572SOL    HW1 2256   0.569   2.157   1.321
  572SOL    HW2 2257   0.663   2.077   1.410
  572SOL    MW1 2258   0.635   2.097   1.327
  573SOL    OW1 2259   0.114   0.384   0.154
  573SOL    HW1 2260   0.195   0.435   0.148
  573SOL    HW2 2261   0.054   0.426   0.093
  573SOL    MW1 2262   0.116   0.392   0.148
  574SOL    OW1 2263   2.121   1.133   2.724
  574SOL    HW1 2264   2.110   1.047   2.684
  574SOL    HW2 2265   2.072   1.192   2.666
  574SOL    MW1 2266   2.115   1.131   2.715
  575SOL    OW1 2267   1.845   2.007   0.894
  575SOL    HW1 2268   1.826   1.920   0.860
  575SOL    HW2 2269   1.788   2.066   0.844
  575SOL    MW1 2270   1.838   2.005   0.887
  576SOL    OW1 2271   1.207   1.711   1.060
  576SOL    HW1 2272   1.205   1.807   1.060
  576SOL    HW2 2273   1.154   1.686   1.136
  576SOL    MW1 2274   1.202   1.717   1.067
  577SOL    OW1 2275   3.405   2.350   2.149
  577SOL    HW1 2276   3.485   2.380   2.106
  577SOL    HW2 2277   3.399   2.402   2.229
  577SOL    MW1 2278   3.411   2.357   2.152
  578SOL    OW1 2279   0.924   1.733   2.895
  578SOL    HW1 2280   0.899   1.683   2.817
  578SOL    HW2 2281   0.932   1.667   2.964
  578SOL    MW1 2282   0.922   1.723   2.894
  579SOL    OW1 2283   1.040   1.314   0.836
  579SOL    HW1 2284   1.044   1.245   0.902
  579SOL    HW2 2285   0.966   1.368   0.863
  579SOL    MW1 2286   1.034   1.312   0.844
  580SOL    OW1 2287   3.088   0.322   2.774
  580SOL    HW1 2288   3.017   0.287   2.827
  580SOL    HW2 2289   3.049   0.338   2.688
  580SOL    MW1 2290   3.079   0.320   2.771
  581SOL    OW1 2291   0.441   1.866   2.762
  581SOL    HW1 2292   0.522   1.878   2.812
  581SOL    HW2 2293   0.453   1.918   2.683
  581SOL    MW1 2294   0.450   1.872   2.760
  582SOL    OW1 2295   1.176   1.110   1.277
  582SOL    HW1 2296   1.239   1.112   1.350
  582SOL    HW2 2297   1.219   1.058   1.210
  582SOL    MW1 2298   1.186   1.105   1.278
  583SOL    OW1 2299   2.438   0.560   3.089
  583SOL    HW1 2300   2.512   0.585   3.034
  583SOL    HW2 2301   2.379   0.513   3.029
  583SOL    MW1 2302   2.439   0.558   3.079
  584SOL    OW1 2303   0.917   2.276   2.411
  584SOL    HW1 2304   0.888   2.361   2.446
  584SOL    HW2 2305   0.838   2.223   2.406
  584SOL    MW1 2306   0.908   2.279   2.414
  585SOL    OW1 2307   2.758   1.889   0.029
  585SOL    HW1 2308   2.701   1.954   0.069
  585SOL    HW2 2309   2.762   1.817   0.092
  585SOL    MW1 2310   2.754   1.889   0.038
  586SOL    OW1 2311   2.425   0.328   2.092
  586SOL    HW1 2312   2.405   0.235   2.103
  586SOL    HW2 2313   2.509   0.339   2.137
  586SOL    MW1 2314   2.431   0.321   2.097
  587SOL    OW1 2315   2.834   1.232   3.256
  587SOL    HW1 2316   2.835   1.195   3.167
  587SOL    HW2 2317   2.890   1.173   3.307
  587SOL    MW1 2318   2.839   1.223   3.252
  588SOL    OW1 2319   1.521   0.584   2.069
  588SOL    HW1 2320   1.512   0.488   2.068
  588SOL    HW2 2321   1.598   0.600   2.014
  588SOL    MW1 2322   1.527   0.576   2.064
  589SOL    OW1 2323   0.744   0.221   1.531
  589SOL    HW1 2324   0.726   0.299   1.478
  589SOL    HW2 2325   0.767   0.255   1.617
  589SOL    MW1 2326   0.745   0.231   1.534
  590SOL    OW1 2327   2.910   2.178   0.288
  590SOL    HW1 2328   2.878   2.095   0.322
  590SOL    HW2 2329   2.843   2.242   0.313
  590SOL    MW1 2330   2.901   2.176   0.293
  591SOL    OW1 2331   0.476   0.821   1.644
  591SOL    HW1 2332   0.494   0.885   1.713
  591SOL    HW2 2333   0.548   0.758   1.651
  591SOL    MW1 2334   0.484   0.822   1.651
  592SOL    OW1 2335   2.341   2.524   2.165
  592SOL    HW1 2336   2.369   2.462   2.232
  592SOL    HW2 2337   2.322   2.604   2.213
  592SOL    MW1 2338   2.341   2.526   2.175
  593SOL    OW1 2339   0.320   0.368   3.405
  593SOL    HW1 2340   0.249   0.303   3.406
  593SOL    HW2 2341   0.277   0.451   3.427
  593SOL    MW1 2342   0.310   0.370   3.407
  594SOL    OW1 2343   0.142   2.749   3.060
  594SOL    HW1 2344   0.108   2.679   3.116
  594SOL    HW2 2345   0.209   2.707   3.006
  594SOL    MW1 2346   0.145   2.739   3.060
  595SOL    OW1 2347   2.296   2.072   2.838
  595SOL    HW1 2348   2.227   2.139   2.836
  595SOL    HW2 2349   2.309   2.055   2.932
  595SOL    MW1 2350   2.291   2.076   2.847
  596SOL    OW1 2351   0.423   1.416   2.930
  596SOL    HW1 2352   0.354   1.418   2.997
  596SOL    HW2 2353   0.503   1.401   2.980
  596SOL    MW1 2354   0.424   1.415   2.941
  597SOL    OW1 2355   1.466   2.936   3.455
  597SOL    HW1 2356   1.376   2.921   3.428
  597SOL    HW2 2357   1.502   2.849   3.471
  597SOL    MW1 2358   1.462   2.927   3.454
  598SOL    OW1 2359   0.955   1.918   3.308
  598SOL    HW1 2360   0.923   1.851   3.247
  598SOL    HW2 2361   0.934   1.883   3.395
  598SOL    MW1 2362   0.950   1.908   3.310
  599SOL    OW1 2363   0.257   1.765   0.576
  599SOL    HW1 2364   0.350   1.740   0.577
  599SOL    HW2 2365   0.218   1.715   0.648
  599SOL    MW1 2366   0.262   1.758   0.582
  600SOL    OW1 2367   2.589   1.868   2.942
  600SOL    HW1 2368   2.530   1.892   3.013
  600SOL    HW2 2369   2.676   1.892   2.974
  600SOL    MW1 2370   2.592   1.873   2.951
  601SOL    OW1 2371   0.406   2.521   0.026
  601SOL    HW1 2372   0.400   2.455   3.458
  601SOL    HW2 2373   0.323   2.568   0.021
  601SOL    MW1 2374   0.398   2.519   0.020
  602SOL    OW1 2375   3.063   0.925   1.977
  602SOL    HW1 2376   3.123   0.909   2.049
  602SOL    HW2 2377   3.089   1.011   1.943
  602SOL    MW1 2378   3.071   0.932   1.980
  603SOL    OW1 2379   1.357   2.858   1.259
  603SOL    HW1 2380   1.285   2.796   1.251
  603SOL    HW2 2381   1.324   2.924   1.320
  603SOL    MW1 2382   1.347   2.858   1.264
  604SOL    OW1 2383   0.761   1.247   2.632
  604SOL    HW1 2384   0.707   1.310   2.681
  604SOL    HW2 2385   0.803   1.300   2.564
  604SOL    MW1 2386   0.760   1.258   2.631
  605SOL    OW1 2387   0.359   0.151   0.254
  605SOL    HW1 2388   0.274   0.187   0.279
  605SOL    HW2 2389   0.379   0.192   0.170
  605SOL    MW1 2390   0.353   0.158   0.248
  606SOL    OW1 2391   2.087   1.597   2.465
  606SOL    HW1 2392   2.127   1.582   2.551
  606SOL    HW2 2393   2.007   1.646   2.485
  606SOL    MW1 2394   2.083   1.600   2.475
  607SOL    OW1 2395   2.983   3.390   0.344
  607SOL    HW1 2396   2.974   3.392   0.440
  607SOL    HW2 2397   2.916   3.450   0.312
  607SOL    MW1 2398   2.976   3.395   0.350
  608SOL    OW1 2399   2.725   3.123   0.945
  608SOL    HW1 2400   2.793   3.177   0.985
  608SOL    HW2 2401   2.728   3.041   0.995
  608SOL    MW1 2402   2.731   3.120   0.953
  609SOL    OW1 2403   0.124   0.141   2.762
  609SOL    HW1 2404   0.182   0.084   2.711
  609SOL    HW2 2405   0.058   0.081   2.798
  609SOL    MW1 2406   0.123   0.130   2.760
  610SOL    OW1 2407   1.841   1.667   0.540
  610SOL    HW1 2408   1.780   1.722   0.589
  610SOL    HW2 2409   1.925   1.711   0.548
  610SOL    MW1 2410   1.843   1.676   0.545
  611SOL    OW1 2411   2.548   1.555   2.942
  611SOL    HW1 2412   2.555   1.650   2.944
  611SOL    HW2 2413   2.590   1.525   3.022
  611SOL    MW1 2414   2.552   1.561   2.949
  612SOL    OW1 2415   2.614   2.057   2.269
  612SOL    HW1 2416   2.662   1.983   2.231
  612SOL    HW2 2417   2.522   2.039   2.249
  612SOL    MW1 2418   2.610   2.049   2.264
  613SOL    OW1 2419   0.966   2.133   0.747
  613SOL    HW1 2420   0.947   2.205   0.808
  613SOL    HW2 2421   0.884   2.118   0.701
  613SOL    MW1 2422   0.957   2.138   0.749
  614SOL    OW1 2423   0.794   1.906   2.221
  614SOL    HW1 2424   0.768   1.816   2.206
  614SOL    HW2 2425   0.714   1.949   2.252
  614SOL    MW1 2426   0.784   1.902   2.223
  615SOL    OW1 2427   1.760   3.316   3.423
  615SOL    HW1 2428   1.768   3.222   3.439
  615SOL    HW2 2429   1.685   3.324   3.364
  615SOL    MW1 2430   1.754   3.308   3.419
  616SOL    OW1 2431   1.429   1.526   1.258
  616SOL    HW1 2432   1.434   1.620   1.275
  616SOL    HW2 2433   1.345   1.500   1.296
  616SOL    MW1 2434   1.422   1.532   1.263
  617SOL    OW1 2435   1.930   3.035   1.674
  617SOL    HW1 2436   2.011   2.987   1.692
  617SOL    HW2 2437   1.951   3.126   1.696
  617SOL    MW1 2438   1.939   3.039   1.677
  618SOL    OW1 2439   3.161   0.257   0.855
  618SOL    HW1 2440   3.248   0.218   0.866
  618SOL    HW2 2441   3.152   0.269   0.760
  618SOL    MW1 2442   3.168   0.254   0.847
  619SOL    OW1 2443   0.230   1.180   0.755
  619SOL    HW1 2444   0.202   1.244   0.820
  619SOL    HW2 2445   0.322   1.162   0.775
  619SOL    MW1 2446   0.236   1.184   0.762
  620SOL    OW1 2447   2.071   0.971   1.041
  620SOL    HW1 2448   2.163   0.967   1.066
  620SOL    HW2 2449   2.036   0.885   1.064
  620SOL    MW1 2450   2.076   0.963   1.045
  621SOL    OW1 2451   0.681   2.166   1.944
  621SOL    HW1 2452   0.660   2.080   1.908
  621SOL    HW2 2453   0.691   2.151   2.038
  621SOL    MW1 2454   0.680   2.157   1.950
  622SOL    OW1 2455   2.296   1.966   0.140
  622SOL    HW1 2456   2.294   1.929   0.228
  622SOL    HW2 2457   2.363   2.034   0.143
  622SOL    MW1 2458   2.302   1.968   0.148
  623SOL    OW1 2459   0.562   2.813   1.896
  623SOL    HW1 2460   0.479   2.853   1.921
  623SOL    HW2 2461   0.587   2.858   1.815
  623SOL    MW1 2462   0.557   2.821   1.891
  624SOL    OW1 2463   2.126   3.356   1.286
  624SOL    HW1 2464   2.116   3.370   1.192
  624SOL    HW2 2465   2.144   3.262   1.295
  624SOL    MW1 2466   2.127   3.348   1.279
  625SOL    OW1 2467   1.942   0.301   1.355
  625SOL    HW1 2468   1.920   0.222   1.405
  625SOL    HW2 2469   2.031   0.286   1.325
  625SOL    MW1 2470   1.948   0.292   1.357
  626SOL    OW1 2471   1.624   1.378   3.131
  626SOL    HW1 2472   1.691   1.357   3.065
  626SOL    HW2 2473   1.674   1.398   3.210
  626SOL    MW1 2474   1.635   1.378   3.132
  627SOL    OW1 2475   1.305   2.545   2.298
  627SOL    HW1 2476   1.369   2.518   2.232
  627SOL    HW2 2477   1.322   2.639   2.310
  627SOL    MW1 2478   1.312   2.551   2.293
  628SOL    OW1 2479   2.272   1.216   1.147
  628SOL    HW1 2480   2.253   1.127   1.175
  628SOL    HW2 2481   2.204   1.237   1.083
  628SOL    MW1 2482   2.264   1.210   1.144
  629SOL    OW1 2483   1.764   3.137   0.580
  629SOL    HW1 2484   1.827   3.209   0.573
  629SOL    HW2 2485   1.684   3.179   0.610
  629SOL    MW1 2486   1.763   3.147   0.582
  630SOL    OW1 2487   1.617   2.838   1.833
  630SOL    HW1 2488   1.674   2.783   1.778
  630SOL    HW2 2489   1.663   2.844   1.916
  630SOL    MW1 2490   1.626   2.833   1.835
  631SOL    OW1 2491   2.639   1.552   0.920
  631SOL    HW1 2492   2.582   1.578   0.847
  631SOL    HW2 2493   2.713   1.612   0.916
  631SOL    MW1 2494   2.640   1.560   0.913
  632SOL    OW1 2495   2.685   3.426   2.363
  632SOL    HW1 2496   2.601   3.409   2.406
  632SOL    HW2 2497   2.747   3.436   2.435
  632SOL    MW1 2498   2.683   3.425   2.373
  633SOL    OW1 2499   2.313   0.447   2.393
  633SOL    HW1 2500   2.225   0.469   2.424
  633SOL    HW2 2501   2.299   0.406   2.307
  633SOL    MW1 2502   2.304   0.445   2.388
  634SOL    OW1 2503   0.433   1.047   2.412
  634SOL    HW1 2504   0.393   1.099   2.343
  634SOL    HW2 2505   0.366   1.040   2.480
  634SOL    MW1 2506   0.424   1.051   2.412
  635SOL    OW1 2507   1.801   1.258   2.944
  635SOL    HW1 2508   1.879   1.289   2.898
  635SOL    HW2 2509   1.742   1.229   2.874
  635SOL    MW1 2510   1.803   1.259   2.933
  636SOL    OW1 2511   1.068   1.263   2.693
  636SOL    HW1 2512   1.072   1.288   2.785
  636SOL    HW2 2513   0.974   1.255   2.674
  636SOL    MW1 2514   1.060   1.264   2.699
  637SOL    OW1 2515   2.603   1.147   3.026
  637SOL    HW1 2516   2.540   1.168   2.957
  637SOL    HW2 2517   2.563   1.179   3.106
  637SOL    MW1 2518   2.594   1.152   3.027
  638SOL    OW1 2519   2.766   2.368   2.665
  638SOL    HW1 2520   2.681   2.356   2.709
  638SOL    HW2 2521   2.830   2.361   2.735
  638SOL    MW1 2522   2.764   2.366   2.675
  639SOL    OW1 2523   0.326   0.527   3.145
  639SOL    HW1 2524   0.248   0.581   3.130
  639SOL    HW2 2525   0.327   0.513   3.240
  639SOL    MW1 2526   0.319   0.531   3.152
  640SOL    OW1 2527   1.247   0.230   2.737
  640SOL    HW1 2528   1.236   0.309   2.790
  640SOL    HW2 2529   1.334   0.239   2.698
  640SOL    MW1 2530   1.254   0.238   2.738
  641SOL    OW1 2531   0.572   1.768   0.353
  641SOL    HW1 2532   0.662   1.755   0.382
  641SOL    HW2 2533   0.580   1.829   0.279
  641SOL    MW1 2534   0.581   1.773   0.349
  642SOL    OW1 2535   0.147   0.871   0.667
  642SOL    HW1 2536   0.109   0.952   0.633
  642SOL    HW2 2537   0.198   0.899   0.743
  642SOL    MW1 2538   0.148   0.881   0.671
  643SOL    OW1 2539   2.600   0.690   0.428
  643SOL    HW1 2540   2.566   0.614   0.382
  643SOL    HW2 2541   2.651   0.737   0.363
  643SOL    MW1 2542   2.601   0.688   0.418
  644SOL    OW1 2543   3.012   0.933   1.407
  644SOL    HW1 2544   3.005   0.977   1.492
  644SOL    HW2 2545   3.104   0.908   1.400
  644SOL    MW1 2546   3.019   0.935   1.414
  645SOL    OW1 2547   0.608   3.034   0.534
  645SOL    HW1 2548   0.557   3.056   0.455
  645SOL    HW2 2549   0.689   3.083   0.525
  645SOL    MW1 2550   0.610   3.040   0.526
  646SOL    OW1 2551   0.950   3.009   2.799
  646SOL    HW1 2552   0.872   3.063   2.794
  646SOL    HW2 2553   0.942   2.947   2.726
  646SOL    MW1 2554   0.942   3.008   2.792
  647SOL    OW1 2555   2.567   2.958   2.992
  647SOL    HW1 2556   2.562   3.023   2.921
  647SOL    HW2 2557   2.538   2.876   2.951
  647SOL    MW1 2558   2.564   2.956   2.982
  648SOL    OW1 2559   2.994   0.628   0.018
  648SOL    HW1 2560   3.040   0.664   0.094
  648SOL    HW2 2561   3.055   0.639   3.445
  648SOL    MW1 2562   3.003   0.633   0.018
  649SOL    OW1 2563   3.212   1.506   1.183
  649SOL    HW1 2564   3.300   1.471   1.200
  649SOL    HW2 2565   3.207   1.512   1.087
  649SOL    MW1 2566   3.219   1.504   1.176
  650SOL    OW1 2567   2.948   0.179   1.382
  650SOL    HW1 2568   2.910   0.201   1.297
  650SOL    HW2 2569   2.872   0.160   1.437
  650SOL    MW1 2570   2.938   0.180   1.379
  651SOL    OW1 2571   2.831   0.325   0.930
  651SOL    HW1 2572   2.916   0.292   0.903
  651SOL    HW2 2573   2.777   0.323   0.851
  651SOL    MW1 2574   2.833   0.322   0.921
  652SOL    OW1 2575   2.432   2.743   0.771
  652SOL    HW1 2576   2.511   2.788   0.800
  652SOL    HW2 2577   2.361   2.803   0.794
  652SOL    MW1 2578   2.432   2.753   0.776
  653SOL    OW1 2579   2.729   0.673   0.109
  653SOL    HW1 2580   2.817   0.657   0.076
  653SOL    HW2 2581   2.673   0.669   0.031
  653SOL    MW1 2582   2.732   0.671   0.099
  654SOL    OW1 2583   1.785   3.398   1.254
  654SOL    HW1 2584   1.853   3.340   1.286
  654SOL    HW2 2585   1.715   3.391   1.319
  654SOL    MW1 2586   1.785   3.393   1.263
  655SOL    OW1 2587   3.338   1.481   1.972
  655SOL    HW1 2588   3.392   1.553   1.940
  655SOL    HW2 2589   3.395   1.404   1.967
  655SOL    MW1 2590   3.348   1.481   1.969
  656SOL    OW1 2591   0.309   3.161   1.269
  656SOL    HW1 2592   0.292   3.243   1.315
  656SOL    HW2 2593   0.223   3.125   1.250
  656SOL    MW1 2594   0.300   3.165   1.271
  657SOL    OW1 2595   3.249   1.620   0.888
  657SOL    HW1 2596   3.232   1.667   0.807
  657SOL    HW2 2597   3.290   1.685   0.946
  657SOL    MW1 2598   3.251   1.630   0.886
  658SOL    OW1 2599   2.746   2.909   1.475
  658SOL    HW1 2600   2.678   2.927   1.539
  658SOL    HW2 2601   2.783   2.994   1.454
  658SOL    MW1 2602   2.744   2.918   1.479
  659SOL    OW1 2603   1.070   3.304   0.005
  659SOL    HW1 2604   1.155   3.275   0.037
  659SOL    HW2 2605   1.018   3.224   3.498
  659SOL    MW1 2606   1.073   3.294   0.007
  660SOL    OW1 2607   0.633   0.099   0.357
  660SOL    HW1 2608   0.548   0.117   0.317
  660SOL    HW2 2609   0.642   0.004   0.351
  660SOL    MW1 2610   0.626   0.092   0.353
  661SOL    OW1 2611   1.553   2.426   3.375
  661SOL    HW1 2612   1.493   2.355   3.353
  661SOL    HW2 2613   1.519   2.462   3.457
  661SOL    MW1 2614   1.545   2.423   3.381
  662SOL    OW1 2615   3.054   1.298   1.770
  662SOL    HW1 2616   3.138   1.311   1.726
  662SOL    HW2 2617   3.058   1.354   1.847
  662SOL    MW1 2618   3.062   1.304   1.773
  663SOL    OW1 2619   2.139   0.743   2.526
  663SOL    HW1 2620   2.189   0.727   2.607
  663SOL    HW2 2621   2.097   0.828   2.541
  663SOL    MW1 2622   2.140   0.749   2.535
  664SOL    OW1 2623   2.263   2.234   0.533
  664SOL    HW1 2624   2.302   2.172   0.593
  664SOL    HW2 2625   2.240   2.182   0.456
  664SOL    MW1 2626   2.264   2.224   0.531
  665SOL    OW1 2627   3.311   0.767   2.142
  665SOL    HW1 2628   3.393   0.723   2.117
  665SOL    HW2 2629   3.339   0.846   2.188
  665SOL    MW1 2630   3.321   0.770   2.144
  666SOL    OW1 2631   2.379   2.562   3.233
  666SOL    HW1 2632   2.349   2.472   3.238
  666SOL    HW2 2633   2.418   2.579   3.319
  666SOL    MW1 2634   2.379   2.556   3.241
  667SOL    OW1 2635   0.574   0.791   2.897
  667SOL    HW1 2636   0.572   0.873   2.847
  667SOL    HW2 2637   0.492   0.747   2.874
  667SOL    MW1 2638   0.566   0.794   2.890
  668SOL    OW1 2639   2.325   0.836   2.259
  668SOL    HW1 2640   2.270   0.850   2.336
  668SOL    HW2 2641   2.414   0.853   2.290
  668SOL    MW1 2642   2.328   0.839   2.269
  669SOL    OW1 2643   2.684   0.129   1.813
  669SOL    HW1 2644   2.763   0.165   1.855
  669SOL    HW2 2645   2.688   0.035   1.830
  669SOL    MW1 2646   2.692   0.124   1.818
  670SOL    OW1 2647   2.546   2.193   2.799
  670SOL    HW1 2648   2.572   2.125   2.736
  670SOL    HW2 2649   2.463   2.161   2.835
  670SOL    MW1 2650   2.541   2.184   2.796
  671SOL    OW1 2651   3.339   0.260   2.477
  671SOL    HW1 2652   3.340   0.199   2.551
  671SOL    HW2 2653   3.258   0.240   2.430
  671SOL    MW1 2654   3.332   0.253   2.479
  672SOL    OW1 2655   2.114   1.278   0.103
  672SOL    HW1 2656   2.021   1.253   0.099
  672SOL    HW2 2657   2.116   1.365   0.064
  672SOL    MW1 2658   2.106   1.284   0.099
  673SOL    OW1 2659   1.216   2.297   2.431
  673SOL    HW1 2660   1.121   2.282   2.433
  673SOL    HW2 2661   1.226   2.382   2.389
  673SOL    MW1 2662   1.208   2.303   2.428
  674SOL    OW1 2663   2.805   3.220   2.950
  674SOL    HW1 2664   2.813   3.207   2.855
  674SOL    HW2 2665   2.806   3.315   2.962
  674SOL    MW1 2666   2.806   3.227   2.942
  675SOL    OW1 2667   3.368   0.743   2.626
  675SOL    HW1 2668   3.410   0.657   2.631
  675SOL    HW2 2669   3.341   0.762   2.716
  675SOL    MW1 2670   3.370   0.737   2.634
  676SOL    OW1 2671   0.445   2.820   0.839
  676SOL    HW1 2672   0.455   2.832   0.744
  676SOL    HW2 2673   0.437   2.910   0.873
  676SOL    MW1 2674   0.445   2.829   0.834
  677SOL    OW1 2675   0.397   1.098   0.051
  677SOL    HW1 2676   0.406   1.160   0.123
  677SOL    HW2 2677   0.312   1.057   0.064
  677SOL    MW1 2678   0.390   1.100   0.058
  678SOL    OW1 2679   0.325   1.793   1.441
  678SOL    HW1 2680   0.321   1.749   1.525
  678SOL    HW2 2681   0.417   1.784   1.414
  678SOL    MW1 2682   0.333   1.789   1.446
  679SOL    OW1 2683   2.096   3.452   0.278
  679SOL    HW1 2684   2.167   0.015   0.293
  679SOL    HW2 2685   2.116   3.379   0.337
  679SOL    MW1 2686   2.104   3.451   0.285
  680SOL    OW1 2687   0.632   1.297   3.171
  680SOL    HW1 2688   0.709   1.242   3.187
  680SOL    HW2 2689   0.558   1.238   3.182
  680SOL    MW1 2690   0.632   1.287   3.173
  681SOL    OW1 2691   2.306   1.135   0.699
  681SOL    HW1 2692   2.301   1.230   0.713
  681SOL    HW2 2693   2.309   1.098   0.787
  681SOL    MW1 2694   2.306   1.140   0.708
  682SOL    OW1 2695   1.452   1.075   3.478
  682SOL    HW1 2696   1.528   1.091   3.422
  682SOL    HW2 2697   1.471   0.993   0.023
  682SOL    MW1 2698   1.460   1.069   3.477
  683SOL    OW1 2699   1.151   0.039   2.403
  683SOL    HW1 2700   1.225   0.002   2.354
  683SOL    HW2 2701   1.179   0.127   2.427
  683SOL    MW1 2702   1.160   0.043   2.400
  684SOL    OW1 2703   1.732   1.329   1.964
  684SOL    HW1 2704   1.786   1.276   2.023
  684SOL    HW2 2705   1.770   1.417   1.969
  684SOL    MW1 2706   1.740   1.332   1.970
  685SOL    OW1 2707   0.394   2.513   1.877
  685SOL    HW1 2708   0.480   2.477   1.853
  685SOL    HW2 2709   0.331   2.449   1.842
  685SOL    MW1 2710   0.396   2.504   1.872
  686SOL    OW1 2711   0.456   0.024   1.876
  686SOL    HW1 2712   0.415   3.474   1.805
  686SOL    HW2 2713   0.525   3.468   1.909
  686SOL    MW1 2714   0.458   0.015   1.872
  687SOL    OW1 2715   3.014   3.036   0.762
  687SOL    HW1 2716   3.097   2.994   0.785
  687SOL    HW2 2717   2.952   3.005   0.828
  687SOL    MW1 2718   3.016   3.030   0.770
  688SOL    OW1 2719   0.042   1.242   1.765
  688SOL    HW1 2720   0.128   1.282   1.768
  688SOL    HW2 2721   0.040   1.194   1.682
  688SOL    MW1 2722   0.049   1.241   1.758
  689SOL    OW1 2723   3.042   2.417   0.545
  689SOL    HW1 2724   2.984   2.487   0.514
  689SOL    HW2 2725   2.996   2.380   0.620
  689SOL    MW1 2726   3.033   2.420   0.549
  690SOL    OW1 2727   2.885   3.122   2.450
  690SOL    HW1 2728   2.804   3.167   2.475
  690SOL    HW2 2729   2.924   3.178   2.384
  690SOL    MW1 2730   2.881   3.131   2.446
  691SOL    OW1 2731   1.045   0.333   2.096
  691SOL    HW1 2732   0.991   0.320   2.174
  691SOL    HW2 2733   1.057   0.428   2.091
  691SOL    MW1 2734   1.042   0.341   2.103
  692SOL    OW1 2735   1.462   2.453   1.684
  692SOL    HW1 2736   1.546   2.456   1.639
  692SOL    HW2 2737   1.431   2.544   1.685
  692SOL    MW1 2738   1.466   2.462   1.680
  693SOL    OW1 2739   1.002   0.810   3.329
  693SOL    HW1 2740   0.913   0.825   3.360
  693SOL    HW2 2741   1.016   0.878   3.263
  693SOL    MW1 2742   0.995   0.818   3.326
  694SOL    OW1 2743   0.023   2.019   0.247
  694SOL    HW1 2744   0.088   1.949   0.239
  694SOL    HW2 2745   3.466   1.990   0.318
  694SOL    MW1 2746   0.023   2.010   0.252
  695SOL    OW1 2747   3.004   1.332   1.002
  695SOL    HW1 2748   3.090   1.291   1.006
  695SOL    HW2 2749   3.011   1.407   1.062
  695SOL    MW1 2750   3.013   1.335   1.008
  696SOL    OW1 2751   3.331   3.294   1.846
  696SOL    HW1 2752   3.338   3.210   1.799
  696SOL    HW2 2753   3.379   3.280   1.927
  696SOL    MW1 2754   3.336   3.285   1.849
  697SOL    OW1 2755   2.179   2.786   3.077
  697SOL    HW1 2756   2.224   2.711   3.116
  697SOL    HW2 2757   2.172   2.764   2.984
  697SOL    MW1 2758   2.182   2.777   3.072
  698SOL    OW1 2759   0.146   1.197   1.217
  698SOL    HW1 2760   0.119   1.150   1.138
  698SOL    HW2 2761   0.242   1.191   1.217
  698SOL    MW1 2762   0.152   1.192   1.210
  699SOL    OW1 2763   2.344   1.261   2.447
  699SOL    HW1 2764   2.435   1.252   2.420
  699SOL    HW2 2765   2.326   1.182   2.498
  699SOL    MW1 2766   2.350   1.253   2.449
  700SOL    OW1 2767   1.859   1.042   1.341
  700SOL    HW1 2768   1.764   1.050   1.350
  700SOL    HW2 2769   1.890   1.021   1.429
  700SOL    MW1 2770   1.853   1.041   1.349
  701SOL    OW1 2771   0.992   0.545   1.462
  701SOL    HW1 2772   0.946   0.595   1.395
  701SOL    HW2 2773   0.996   0.456   1.428
  701SOL    MW1 2774   0.988   0.541   1.453
  702SOL    OW1 2775   1.199   0.138   1.410
  702SOL    HW1 2776   1.272   0.077   1.398
  702SOL    HW2 2777   1.127   0.098   1.362
  702SOL    MW1 2778   1.199   0.129   1.405
  703SOL    OW1 2779   0.973   2.543   0.560
  703SOL    HW1 2780   0.962   2.553   0.465
  703SOL    HW2 2781   1.067   2.560   0.574
  703SOL    MW1 2782   0.981   2.546   0.553
  704SOL    OW1 2783   0.879   1.581   3.121
  704SOL    HW1 2784   0.885   1.488   3.143
  704SOL    HW2 2785   0.785   1.598   3.115
  704SOL    MW1 2786   0.871   1.574   3.122
  705SOL    OW1 2787   2.154   0.325   0.167
  705SOL    HW1 2788   2.170   0.261   0.097
  705SOL    HW2 2789   2.076   0.372   0.140
  705SOL    MW1 2790   2.149   0.323   0.159
  706SOL    OW1 2791   2.311   0.950   1.195
  706SOL    HW1 2792   2.400   0.922   1.217
  706SOL    HW2 2793   2.256   0.876   1.224
  706SOL    MW1 2794   2.314   0.941   1.200
  707SOL    OW1 2795   2.748   1.988   3.184
  707SOL    HW1 2796   2.843   1.992   3.194
  707SOL    HW2 2797   2.718   2.077   3.205
  707SOL    MW1 2798   2.754   1.997   3.187
  708SOL    OW1 2799   3.415   3.122   1.349
  708SOL    HW1 2800   3.418   3.136   1.444
  708SOL    HW2 2801   3.434   3.029   1.337
  708SOL    MW1 2802   3.417   3.115   1.356
  709SOL    OW1 2803   2.603   1.095   0.802
  709SOL    HW1 2804   2.551   1.072   0.725
  709SOL    HW2 2805   2.677   1.034   0.799
  709SOL    MW1 2806   2.605   1.087   0.795
  710SOL    OW1 2807   1.621   0.621   1.611
  710SOL    HW1 2808   1.608   0.570   1.532
  710SOL    HW2 2809   1.532   0.636   1.644
  710SOL    MW1 2810   1.612   0.618   1.607
  711SOL    OW1 2811   2.317   1.925   1.073
  711SOL    HW1 2812   2.391   1.981   1.048
  711SOL    HW2 2813   2.243   1.986   1.082
  711SOL    MW1 2814   2.317   1.936   1.071
  712SOL    OW1 2815   0.491   0.787   1.180
  712SOL    HW1 2816   0.442   0.705   1.189
  712SOL    HW2 2817   0.455   0.844   1.248
  712SOL    MW1 2818   0.483   0.784   1.187
  713SOL    OW1 2819   2.750   3.287   3.287
  713SOL    HW1 2820   2.690   3.357   3.311
  713SOL    HW2 2821   2.771   3.244   3.370
  713SOL    MW1 2822   2.747   3.289   3.296
  714SOL    OW1 2823   3.487   0.039   1.747
  714SOL    HW1 2824   0.052   3.472   1.770
  714SOL    HW2 2825   3.403   3.495   1.755
  714SOL    MW1 2826   3.486   0.029   1.750
  715SOL    OW1 2827   2.364   1.277   0.267
  715SOL    HW1 2828   2.375   1.372   0.266
  715SOL    HW2 2829   2.288   1.260   0.212
  715SOL    MW1 2830   2.359   1.284   0.262
  716SOL    OW1 2831   1.280   0.144   3.172
  716SOL    HW1 2832   1.350   0.154   3.108
  716SOL    HW2 2833   1.277   0.050   3.189
  716SOL    MW1 2834   1.286   0.137   3.168
  717SOL    OW1 2835   0.760   3.204   2.804
  717SOL    HW1 2836   0.818   3.269   2.844
  717SOL    HW2 2837   0.684   3.253   2.776
  717SOL    MW1 2838   0.759   3.214   2.805
  718SOL    OW1 2839   1.457   3.215   2.020
  718SOL    HW1 2840   1.384   3.239   1.963
  718SOL    HW2 2841   1.530   3.200   1.961
  718SOL    MW1 2842   1.457   3.216   2.010
  719SOL    OW1 2843   3.288   0.206   1.999
  719SOL    HW1 2844   3.250   0.146   1.936
  719SOL    HW2 2845   3.240   0.288   1.986
  719SOL    MW1 2846   3.280   0.208   1.992
  720SOL    OW1 2847   2.142   0.586   0.592
  720SOL    HW1 2848   2.154   0.496   0.621
  720SOL    HW2 2849   2.195   0.638   0.652
  720SOL    MW1 2850   2.148   0.583   0.600
  721SOL    OW1 2851   1.057   0.577   2.427
  721SOL    HW1 2852   1.051   0.654   2.484
  721SOL    HW2 2853   1.149   0.576   2.399
  721SOL    MW1 2854   1.065   0.584   2.429
  722SOL    OW1 2855   0.185   2.381   2.849
  722SOL    HW1 2856   0.112   2.412   2.797
  722SOL    HW2 2857   0.258   2.377   2.787
  722SOL    MW1 2858   0.185   2.383   2.839
  723SOL    OW1 2859   1.989   0.529   1.521
  723SOL    HW1 2860   1.914   0.588   1.529
  723SOL    HW2 2861   1.957   0.457   1.467
  723SOL    MW1 2862   1.979   0.528   1.517
  724SOL    OW1 2863   3.402   3.426   0.919
  724SOL    HW1 2864   3.394   3.424   0.824
  724SOL    HW2 2865   3.400   3.334   0.945
  724SOL    MW1 2866   3.401   3.418   0.913
  725SOL    OW1 2867   1.194   0.629   1.220
  725SOL    HW1 2868   1.106   0.660   1.202
  725SOL    HW2 2869   1.182   0.539   1.252
  725SOL    MW1 2870   1.185   0.623   1.221
  726SOL    OW1 2871   0.806   0.452   2.817
  726SOL    HW1 2872   0.868   0.432   2.887
  726SOL    HW2 2873   0.806   0.548   2.812
  726SOL    MW1 2874   0.812   0.459   2.823
  727SOL    OW1 2875   0.166   2.657   0.015
  727SOL    HW1 2876   0.173   2.742   3.471
  727SOL    HW2 2877   0.106   2.606   3.461
  727SOL    MW1 2878   0.161   2.660   0.007
  728SOL    OW1 2879   1.797   1.712   2.345
  728SOL    HW1 2880   1.809   1.619   2.327
  728SOL    HW2 2881   1.714   1.734   2.304
  728SOL    MW1 2882   1.791   1.706   2.340
  729SOL    OW1 2883   1.382   1.108   1.545
  729SOL    HW1 2884   1.470   1.102   1.509
  729SOL    HW2 2885   1.361   1.019   1.572
  729SOL    MW1 2886   1.388   1.100   1.544
  730SOL    OW1 2887   1.735   0.343   1.167
  730SOL    HW1 2888   1.816   0.343   1.217
  730SOL    HW2 2889   1.730   0.256   1.128
  730SOL    MW1 2890   1.741   0.336   1.168
  731SOL    OW1 2891   1.144   3.251   0.306
  731SOL    HW1 2892   1.065   3.294   0.273
  731SOL    HW2 2893   1.210   3.321   0.308
  731SOL    MW1 2894   1.143   3.261   0.303
  732SOL    OW1 2895   3.240   3.255   2.606
  732SOL    HW1 2896   3.154   3.251   2.648
  732SOL    HW2 2897   3.254   3.166   2.573
  732SOL    MW1 2898   3.233   3.246   2.607
  733SOL    OW1 2899   0.167   3.471   2.379
  733SOL    HW1 2900   0.110   0.012   2.314
  733SOL    HW2 2901   0.117   3.397   2.412
  733SOL    MW1 2902   0.158   3.468   2.376
  734SOL    OW1 2903   3.329   0.190   0.343
  734SOL    HW1 2904   3.271   0.151   0.408
  734SOL    HW2 2905   3.307   0.145   0.262
  734SOL    MW1 2906   3.322   0.182   0.342
  735SOL    OW1 2907   2.117   3.207   3.138
  735SOL    HW1 2908   2.185   3.174   3.079
  735SOL    HW2 2909   2.142   3.174   3.225
  735SOL    MW1 2910   2.126   3.201   3.141
  736SOL    OW1 2911   2.810   1.220   1.874
  736SOL    HW1 2912   2.894   1.250   1.841
  736SOL    HW2 2913   2.799   1.132   1.836
  736SOL    MW1 2914   2.816   1.215   1.867
  737SOL    OW1 2915   1.814   2.940   0.321
  737SOL    HW1 2916   1.774   2.985   0.395
  737SOL    HW2 2917   1.904   2.922   0.349
  737SOL    MW1 2918   1.818   2.942   0.330
  738SOL    OW1 2919   0.591   3.239   2.090
  738SOL    HW1 2920   0.637   3.159   2.116
  738SOL    HW2 2921   0.513   3.209   2.044
  738SOL    MW1 2922   0.588   3.230   2.088
  739SOL    OW1 2923   0.742   2.336   0.469
  739SOL    HW1 2924   0.675   2.403   0.456
  739SOL    HW2 2925   0.812   2.380   0.517
  739SOL    MW1 2926   0.742   2.346   0.472
  740SOL    OW1 2927   0.577   2.922   3.042
  740SOL    HW1 2928   0.532   2.892   2.963
  740SOL    HW2 2929   0.649   2.977   3.009
  740SOL    MW1 2930   0.579   2.925   3.032
  741SOL    OW1 2931   1.144   0.497   0.912
  741SOL    HW1 2932   1.237   0.501   0.931
  741SOL    HW2 2933   1.107   0.440   0.979
  741SOL    MW1 2934   1.149   0.493   0.920
  742SOL    OW1 2935   2.230   0.766   0.800
  742SOL    HW1 2936   2.308   0.821   0.807
  742SOL    HW2 2937   2.168   0.819   0.748
  742SOL    MW1 2938   2.231   0.776   0.796
  743SOL    OW1 2939   1.630   2.365   2.494
  743SOL    HW1 2940   1.653   2.455   2.472
  743SOL    HW2 2941   1.538   2.371   2.520
  743SOL    MW1 2942   1.624   2.374   2.494
  744SOL    OW1 2943   2.605   0.664   1.425
  744SOL    HW1 2944   2.646   0.750   1.430
  744SOL    HW2 2945   2.629   0.630   1.339
  744SOL    MW1 2946   2.610   0.669   1.418
  745SOL    OW1 2947   2.299   3.003   0.178
  745SOL    HW1 2948   2.235   3.049   0.123
  745SOL    HW2 2949   2.372   3.064   0.185
  745SOL    MW1 2950   2.300   3.013   0.173
  746SOL    OW1 2951   3.082   0.138   2.308
  746SOL    HW1 2952   3.065   0.064   2.250
  746SOL    HW2 2953   3.035   0.211   2.269
  746SOL    MW1 2954   3.076   0.138   2.300
  747SOL    OW1 2955   1.780   2.753   1.310
  747SOL    HW1 2956   1.771   2.658   1.319
  747SOL    HW2 2957   1.691   2.785   1.295
  747SOL    MW1 2958   1.771   2.748   1.310
  748SOL    OW1 2959   0.244   2.790   1.589
  748SOL    HW1 2960   0.175   2.835   1.637
  748SOL    HW2 2961   0.294   2.744   1.657
  748SOL    MW1 2962   0.243   2.790   1.600
  749SOL    OW1 2963   0.992   1.315   1.319
  749SOL    HW1 2964   1.009   1.369   1.242
  749SOL    HW2 2965   1.050   1.239   1.308
  749SOL    MW1 2966   0.999   1.313   1.311
  750SOL    OW1 2967   0.643   1.768   1.459
  750SOL    HW1 2968   0.707   1.834   1.433
  750SOL    HW2 2969   0.673   1.737   1.544
  750SOL    MW1 2970   0.651   1.771   1.464
  751SOL    OW1 2971   3.203   0.815   1.758
  751SOL    HW1 2972   3.140   0.841   1.826
  751SOL    HW2 2973   3.283   0.797   1.806
  751SOL    MW1 2974   3.204   0.816   1.768
  752SOL    OW1 2975   2.392   0.068   2.159
  752SOL    HW1 2976   2.305   0.033   2.182
  752SOL    HW2 2977   2.449   3.491   2.160
  752SOL    MW1 2978   2.389   0.058   2.161
  753SOL    OW1 2979   2.430   2.586   1.456
  753SOL    HW1 2980   2.514   2.541   1.454
  753SOL    HW2 2981   2.393   2.574   1.369
  753SOL    MW1 2982   2.434   2.581   1.448
  754SOL    OW1 2983   2.539   1.897   1.823
  754SOL    HW1 2984   2.598   1.865   1.754
  754SOL    HW2 2985   2.597   1.941   1.885
  754SOL    MW1 2986   2.550   1.898   1.822
  755SOL    OW1 2987   2.911   0.205   2.959
  755SOL    HW1 2988   2.953   0.165   3.035
  755SOL    HW2 2989   2.823   0.227   2.990
  755SOL    MW1 2990   2.906   0.204   2.969
  756SOL    OW1 2991   2.079   3.399   2.761
  756SOL    HW1 2992   2.028   3.389   2.681
  756SOL    HW2 2993   2.049   3.328   2.817
  756SOL    MW1 2994   2.072   3.392   2.759
  757SOL    OW1 2995   1.670   2.591   0.228
  757SOL    HW1 2996   1.715   2.670   0.258
  757SOL    HW2 2997   1.740   2.531   0.203
  757SOL    MW1 2998   1.680   2.593   0.229
  758SOL    OW1 2999   0.863   3.388   2.204
  758SOL    HW1 3000   0.839   3.415   2.116
  758SOL    HW2 3001   0.959   3.396   2.207
  758SOL    MW1 3002   0.870   3.391   2.196
  759SOL    OW1 3003   0.250   0.076   0.602
  759SOL    HW1 3004   0.337   0.057   0.636
  759SOL    HW2 3005   0.212   0.135   0.667
  759SOL    MW1 3006   0.254   0.080   0.611
  760SOL    OW1 3007   1.574   0.651   2.910
  760SOL    HW1 3008   1.612   0.615   2.830
  760SOL    HW2 3009   1.520   0.580   2.946
  760SOL    MW1 3010   1.573   0.642   2.906
  761SOL    OW1 3011   0.895   2.249   2.997
  761SOL    HW1 3012   0.921   2.160   3.020
  761SOL    HW2 3013   0.923   2.260   2.907
  761SOL    MW1 3014   0.900   2.242   2.991
  762SOL    OW1 3015   2.871   2.580   0.255
  762SOL    HW1 3016   2.799   2.523   0.229
  762SOL    HW2 3017   2.950   2.532   0.230
  762SOL    MW1 3018   2.871   2.570   0.251
  763SOL    OW1 3019   0.703   0.053   2.991
  763SOL    HW1 3020   0.621   0.005   2.978
  763SOL    HW2 3021   0.703   0.074   3.085
  763SOL    MW1 3022   0.696   0.051   2.999
  764SOL    OW1 3023   3.156   1.727   1.883
  764SOL    HW1 3024   3.151   1.719   1.788
  764SOL    HW2 3025   3.131   1.641   1.916
  764SOL    MW1 3026   3.153   1.719   1.877
  765SOL    OW1 3027   3.213   2.623   2.632
  765SOL    HW1 3028   3.198   2.629   2.537
  765SOL    HW2 3029   3.294   2.572   2.640
  765SOL    MW1 3030   3.219   2.619   2.624
  766SOL    OW1 3031   0.261   3.104   0.034
  766SOL    HW1 3032   0.303   3.181   3.496
  766SOL    HW2 3033   0.294   3.031   3.483
  766SOL    MW1 3034   0.267   3.105   0.026
  767SOL    OW1 3035   3.401   1.253   0.085
  767SOL    HW1 3036   3.483   1.267   0.133
  767SOL    HW2 3037   3.339   1.224   0.152
  767SOL    MW1 3038   3.403   1.251   0.095
  768SOL    OW1 3039   3.030   1.911   2.551
  768SOL    HW1 3040   3.086   1.989   2.557
  768SOL    HW2 3041   2.976   1.926   2.473
  768SOL    MW1 3042   3.030   1.920   2.545
  769SOL    OW1 3043   1.999   2.529   2.246
  769SOL    HW1 3044   2.082   2.529   2.198
  769SOL    HW2 3045   1.959   2.614   2.225
  769SOL    MW1 3046   2.003   2.537   2.240
  770SOL    OW1 3047   1.373   2.775   2.938
  770SOL    HW1 3048   1.411   2.777   2.850
  770SOL    HW2 3049   1.447   2.754   2.995
  770SOL    MW1 3050   1.383   2.774   2.935
  771SOL    OW1 3051   1.412   2.043   0.696
  771SOL    HW1 3052   1.378   2.016   0.611
  771SOL    HW2 3053   1.365   2.124   0.717
  771SOL    MW1 3054   1.405   2.048   0.691
  772SOL    OW1 3055   3.341   2.981   2.447
  772SOL    HW1 3056   3.422   3.030   2.432
  772SOL    HW2 3057   3.355   2.897   2.404
  772SOL    MW1 3058   3.349   2.978   2.442
  773SOL    OW1 3059   0.241   0.929   2.162
  773SOL    HW1 3060   0.315   0.959   2.109
  773SOL    HW2 3061   0.167   0.984   2.134
  773SOL    MW1 3062   0.241   0.937   2.155
  774SOL    OW1 3063   1.827   2.283   2.987
  774SOL    HW1 3064   1.800   2.371   2.964
  774SOL    HW2 3065   1.751   2.245   3.031
  774SOL    MW1 3066   1.818   2.287   2.989
  775SOL    OW1 3067   1.678   0.339   1.937
  775SOL    HW1 3068   1.768   0.367   1.918
  775SOL    HW2 3069   1.664   0.263   1.880
  775SOL    MW1 3070   1.685   0.335   1.930
  776SOL    OW1 3071   1.554   0.080   0.851
  776SOL    HW1 3072   1.484   0.078   0.916
  776SOL    HW2 3073   1.583   0.172   0.850
  776SOL    MW1 3074   1.551   0.088   0.857
  777SOL    OW1 3075   3.364   2.473   0.299
  777SOL    HW1 3076   3.370   2.568   0.294
  777SOL    HW2 3077   3.454   2.442   0.303
  777SOL    MW1 3078   3.372   2.478   0.299
  778SOL    OW1 3079   1.206   1.693   0.257
  778SOL    HW1 3080   1.249   1.608   0.263
  778SOL    HW2 3081   1.152   1.699   0.336
  778SOL    MW1 3082   1.205   1.686   0.264
  779SOL    OW1 3083   0.438   0.785   0.392
  779SOL    HW1 3084   0.451   0.699   0.353
  779SOL    HW2 3085   0.498   0.842   0.344
  779SOL    MW1 3086   0.444   0.783   0.384
  780SOL    OW1 3087   3.428   3.149   0.506
  780SOL    HW1 3088   3.448   3.145   0.412
  780SOL    HW2 3089   3.491   3.089   0.546
  780SOL    MW1 3090   3.435   3.143   0.501
  781SOL    OW1 3091   2.261   0.494   1.461
  781SOL    HW1 3092   2.172   0.529   1.474
  781SOL    HW2 3093   2.272   0.429   1.530
  781SOL    MW1 3094   2.254   0.492   1.468
  782SOL    OW1 3095   3.179   3.375   1.176
  782SOL    HW1 3096   3.235   3.443   1.137
  782SOL    HW2 3097   3.240   3.305   1.200
  782SOL    MW1 3098   3.190   3.375   1.174
  783SOL    OW1 3099   2.602   0.234   0.000
  783SOL    HW1 3100   2.655   0.171   0.049
  783SOL    HW2 3101   2.520   0.188   3.482
  783SOL    MW1 3102   2.599   0.225   0.003
  784SOL    OW1 3103   1.488   3.255   3.027
  784SOL    HW1 3104   1.553   3.325   3.017
  784SOL    HW2 3105   1.506   3.195   2.955
  784SOL    MW1 3106   1.495   3.256   3.020
  785SOL    OW1 3107   2.117   0.947   0.195
  785SOL    HW1 3108   2.084   0.905   0.274
  785SOL    HW2 3109   2.040   0.986   0.154
  785SOL    MW1 3110   2.107   0.947   0.198
  786SOL    OW1 3111   1.239   0.039   1.673
  786SOL    HW1 3112   1.153   0.037   1.715
  786SOL    HW2 3113   1.227   0.095   1.596
  786SOL    MW1 3114   1.231   0.044   1.670
  787SOL    OW1 3115   2.930   2.892   2.758
  787SOL    HW1 3116   3.021   2.907   2.733
  787SOL    HW2 3117   2.900   2.822   2.699
  787SOL    MW1 3118   2.935   2.887   2.750
  788SOL    OW1 3119   2.253   0.401   2.701
  788SOL    HW1 3120   2.305   0.439   2.630
  788SOL    HW2 3121   2.274   0.308   2.699
  788SOL    MW1 3122   2.259   0.396   2.694
  789SOL    OW1 3123   3.373   0.260   2.897
  789SOL    HW1 3124   3.284   0.288   2.877
  789SOL    HW2 3125   3.419   0.264   2.813
  789SOL    MW1 3126   3.369   0.263   2.887
  790SOL    OW1 3127   2.529   0.887   1.933
  790SOL    HW1 3128   2.497   0.801   1.903
  790SOL    HW2 3129   2.477   0.906   2.011
  790SOL    MW1 3130   2.521   0.881   1.937
  791SOL    OW1 3131   3.464   0.712   0.326
  791SOL    HW1 3132   3.491   0.721   0.234
  791SOL    HW2 3133   3.480   0.620   0.346
  791SOL    MW1 3134   3.468   0.705   0.319
  792SOL    OW1 3135   3.204   0.983   0.866
  792SOL    HW1 3136   3.174   0.900   0.829
  792SOL    HW2 3137   3.149   1.049   0.825
  792SOL    MW1 3138   3.196   0.981   0.859
  793SOL    OW1 3139   3.100   3.052   2.134
  793SOL    HW1 3140   3.181   3.008   2.108
  793SOL    HW2 3141   3.099   3.133   2.082
  793SOL    MW1 3142   3.107   3.056   2.127
  794SOL    OW1 3143   1.729   0.719   0.678
  794SOL    HW1 3144   1.648   0.676   0.705
  794SOL    HW2 3145   1.792   0.648   0.671
  794SOL    MW1 3146   1.727   0.709   0.680
  795SOL    OW1 3147   3.443   2.087   2.190
  795SOL    HW1 3148   3.467   2.081   2.283
  795SOL    HW2 3149   3.426   2.180   2.175
  795SOL    MW1 3150   3.443   2.094   2.197
  796SOL    OW1 3151   2.523   3.254   3.084
  796SOL    HW1 3152   2.529   3.310   3.006
  796SOL    HW2 3153   2.603   3.273   3.133
  796SOL    MW1 3154   2.531   3.261   3.081
  797SOL    OW1 3155   0.997   3.450   0.995
  797SOL    HW1 3156   0.956   3.365   1.013
  797SOL    HW2 3157   0.944   3.488   0.925
  797SOL    MW1 3158   0.989   3.446   0.990
  798SOL    OW1 3159   2.558   0.339   1.454
  798SOL    HW1 3160   2.539   0.430   1.475
  798SOL    HW2 3161   2.626   0.314   1.517
  798SOL    MW1 3162   2.563   0.345   1.462
  799SOL    OW1 3163   1.889   0.715   2.241
  799SOL    HW1 3164   1.955   0.739   2.306
  799SOL    HW2 3165   1.934   0.717   2.157
  799SOL    MW1 3166   1.899   0.717   2.240
  800SOL    OW1 3167   2.543   0.586   2.220
  800SOL    HW1 3168   2.496   0.580   2.136
  800SOL    HW2 3169   2.474   0.591   2.286
  800SOL    MW1 3170   2.532   0.586   2.218
  801SOL    OW1 3171   3.008   2.527   3.329
  801SOL    HW1 3172   3.042   2.520   3.418
  801SOL    HW2 3173   3.057   2.601   3.291
  801SOL    MW1 3174   3.016   2.533   3.334
  802SOL    OW1 3175   0.604   2.352   2.560
  802SOL    HW1 3176   0.555   2.270   2.566
  802SOL    HW2 3177   0.540   2.420   2.579
  802SOL    MW1 3178   0.594   2.351   2.562
  803SOL    OW1 3179   0.659   1.507   2.686
  803SOL    HW1 3180   0.580   1.531   2.734
  803SOL    HW2 3181   0.646   1.542   2.598
  803SOL    MW1 3182   0.651   1.512   2.682
  804SOL    OW1 3183   3.435   1.231   0.818
  804SOL    HW1 3184   0.002   1.230   0.749
  804SOL    HW2 3185   3.374   1.299   0.791
  804SOL    MW1 3186   3.436   1.237   0.809
  805SOL    OW1 3187   2.920   2.719   1.920
  805SOL    HW1 3188   2.976   2.788   1.884
  805SOL    HW2 3189   2.847   2.713   1.857
  805SOL    MW1 3190   2.918   2.725   1.911
  806SOL    OW1 3191   2.235   3.227   0.417
  806SOL    HW1 3192   2.218   3.177   0.337
  806SOL    HW2 3193   2.245   3.161   0.485
  806SOL    MW1 3194   2.234   3.217   0.416
  807SOL    OW1 3195   1.920   0.143   0.592
  807SOL    HW1 3196   1.931   0.224   0.543
  807SOL    HW2 3197   1.846   0.159   0.651
  807SOL    MW1 3198   1.914   0.151   0.593
  808SOL    OW1 3199   2.163   2.266   0.898
  808SOL    HW1 3200   2.189   2.342   0.847
  808SOL    HW2 3201   2.140   2.199   0.834
  808SOL    MW1 3202   2.163   2.267   0.888
  809SOL    OW1 3203   3.168   1.224   2.917
  809SOL    HW1 3204   3.086   1.270   2.896
  809SOL    HW2 3205   3.147   1.131   2.907
  809SOL    MW1 3206   3.159   1.220   2.914
  810SOL    OW1 3207   3.355   1.102   2.718
  810SOL    HW1 3208   3.449   1.114   2.709
  810SOL    HW2 3209   3.334   1.140   2.803
  810SOL    MW1 3210   3.361   1.107   2.725
  811SOL    OW1 3211   1.826   2.139   2.097
  811SOL    HW1 3212   1.801   2.230   2.114
  811SOL    HW2 3213   1.790   2.090   2.171
  811SOL    MW1 3214   1.821   2.143   2.105
  812SOL    OW1 3215   1.395   0.525   2.366
  812SOL    HW1 3216   1.445   0.567   2.296
  812SOL    HW2 3217   1.451   0.452   2.394
  812SOL    MW1 3218   1.405   0.522   2.362
  813SOL    OW1 3219   0.542   0.376   2.506
  813SOL    HW1 3220   0.446   0.384   2.498
  813SOL    HW2 3221   0.576   0.444   2.448
  813SOL    MW1 3222   0.536   0.383   2.500
  814SOL    OW1 3223   0.934   1.062   0.589
  814SOL    HW1 3224   0.948   1.093   0.679
  814SOL    HW2 3225   0.948   0.967   0.594
  814SOL    MW1 3226   0.936   1.056   0.597
  815SOL    OW1 3227   2.756   1.386   0.306
  815SOL    HW1 3228   2.711   1.301   0.298
  815SOL    HW2 3229   2.700   1.437   0.365
  815SOL    MW1 3230   2.747   1.383   0.311
  816SOL    OW1 3231   1.194   0.690   0.333
  816SOL    HW1 3232   1.181   0.612   0.280
  816SOL    HW2 3233   1.117   0.744   0.316
  816SOL    MW1 3234   1.186   0.688   0.327
  817SOL    OW1 3235   0.050   1.040   1.000
  817SOL    HW1 3236   0.010   0.953   1.006
  817SOL    HW2 3237   0.007   1.081   0.925
  817SOL    MW1 3238   0.043   1.036   0.994
  818SOL    OW1 3239   3.097   2.601   0.849
  818SOL    HW1 3240   3.096   2.523   0.795
  818SOL    HW2 3241   3.103   2.674   0.788
  818SOL    MW1 3242   3.097   2.601   0.839
   3.50000   3.50000   3.50000
