DLPC in SPC/E
13815
    1DLPC    C1    1   2.615   2.669   1.272
    1DLPC    C2    2   2.422   2.634   1.138
    1DLPC    C3    3   2.573   2.454   1.176
    1DLPC    N4    4   2.510   2.572   1.238
    1DLPC    C5    5   2.428   2.535   1.355
    1DLPC    C6    6   2.492   2.467   1.478
    1DLPC   OS7    7   2.399   2.402   1.564
    1DLPC    P8    8   2.373   2.484   1.695
    1DLPC   OM9    9   2.502   2.520   1.755
    1DLPC  OM10   10   2.264   2.579   1.670
    1DLPC  OS11   11   2.318   2.360   1.772
    1DLPC   C12   12   2.245   2.402   1.887
    1DLPC   C13   13   2.232   2.294   1.995
    1DLPC  OS14   14   2.139   2.329   2.100
    1DLPC   C15   15   2.029   2.251   2.115
    1DLPC   O16   16   1.999   2.162   2.033
    1DLPC   C17   17   1.943   2.299   2.230
    1DLPC   C18   18   1.830   2.201   2.262
    1DLPC   C19   19   1.882   2.075   2.332
    1DLPC   C20   20   1.767   1.977   2.355
    1DLPC   C21   21   1.815   1.848   2.422
    1DLPC   C22   22   1.698   1.752   2.443
    1DLPC   C23   23   1.596   1.813   2.540
    1DLPC   C24   24   1.478   1.718   2.561
    1DLPC   C25   25   1.377   1.777   2.659
    1DLPC   C26   26   1.257   1.683   2.677
    1DLPC   C27   27   1.301   1.553   2.745
    1DLPC   C28   28   2.375   2.262   2.042
    1DLPC  OS29   29   2.450   2.377   2.085
    1DLPC   C30   30   2.581   2.360   2.116
    1DLPC   O31   31   2.646   2.257   2.092
    1DLPC   C32   32   2.642   2.489   2.167
    1DLPC   C33   33   2.675   2.478   2.316
    1DLPC   C34   34   2.548   2.490   2.400
    1DLPC   C35   35   2.577   2.462   2.548
    1DLPC   C36   36   2.453   2.487   2.634
    1DLPC   C37   37   2.340   2.388   2.603
    1DLPC   C38   38   2.375   2.247   2.649
    1DLPC   C39   39   2.256   2.153   2.631
    1DLPC   C40   40   2.290   2.011   2.678
    1DLPC   C41   41   2.168   1.920   2.671
    1DLPC   C42   42   2.064   1.960   2.776
    2DLPC    C1   43   3.543   2.290   1.016
    2DLPC    C2   44   3.514   2.525   1.032
    2DLPC    C3   45   3.712   2.426   1.116
    2DLPC    N4   46   3.567   2.407   1.101
    2DLPC    C5   47   3.500   2.397   1.233
    2DLPC    C6   48   3.538   2.282   1.330
    2DLPC   OS7   49   3.459   2.280   1.449
    2DLPC    P8   50   3.503   2.159   1.539
    2DLPC   OM9   51   3.456   2.036   1.475
    2DLPC  OM10   52   3.643   2.177   1.579
    2DLPC  OS11   53   3.410   2.185   1.662
    2DLPC   C12   54   3.450   2.297   1.741
    2DLPC   C13   55   3.380   2.297   1.877
    2DLPC  OS14   56   3.404   2.419   1.954
    2DLPC   C15   57   3.291   2.488   1.987
    2DLPC   O16   58   3.187   2.480   1.921
    2DLPC   C17   59   3.323   2.600   2.084
    2DLPC   C18   60   3.211   2.704   2.089
    2DLPC   C19   61   3.242   2.805   2.200
    2DLPC   C20   62   3.139   2.917   2.211
    2DLPC   C21   63   3.182   3.010   2.324
    2DLPC   C22   64   3.094   3.134   2.335
    2DLPC   C23   65   3.147   3.225   2.445
    2DLPC   C24   66   3.288   3.272   2.410
    2DLPC   C25   67   3.352   3.351   2.525
    2DLPC   C26   68   3.496   3.386   2.491
    2DLPC   C27   69   3.566   3.454   2.610
    2DLPC   C28   70   3.425   2.165   1.944
    2DLPC  OS29   71   3.357   2.128   2.066
    2DLPC   C30   72   3.437   2.068   2.159
    2DLPC   O31   73   3.554   2.036   2.138
    2DLPC   C32   74   3.361   2.036   2.287
    2DLPC   C33   75   3.340   2.158   2.378
    2DLPC   C34   76   3.223   2.246   2.334
    2DLPC   C35   77   3.201   2.362   2.430
    2DLPC   C36   78   3.083   2.448   2.384
    2DLPC   C37   79   3.056   2.563   2.481
    2DLPC   C38   80   2.999   2.512   2.613
    2DLPC   C39   81   2.965   2.628   2.706
    2DLPC   C40   82   2.902   2.576   2.836
    2DLPC   C41   83   2.867   2.692   2.930
    2DLPC   C42   84   2.993   2.762   2.980
    3DLPC    C1   85   5.525   5.316   1.629
    3DLPC    C2   86   0.010   5.451   1.670
    3DLPC    C3   87   5.585   5.371   1.852
    3DLPC    N4   88   5.578   5.422   1.715
    3DLPC    C5   89   5.493   5.544   1.712
    3DLPC    C6   90   5.474   5.619   1.578
    3DLPC   OS7   91   5.376   0.070   1.578
    3DLPC    P8   92   5.431   0.214   1.611
    3DLPC   OM9   93   5.576   0.216   1.586
    3DLPC  OM10   94   5.339   0.307   1.544
    3DLPC  OS11   95   5.405   0.211   1.766
    3DLPC   C12   96   5.268   0.241   1.795
    3DLPC   C13   97   5.226   0.229   1.942
    3DLPC  OS14   98   5.084   0.251   1.959
    3DLPC   C15   99   5.017   0.144   2.008
    3DLPC   O16  100   5.052   0.030   1.978
    3DLPC   C17  101   4.876   0.185   2.050
    3DLPC   C18  102   4.841   0.129   2.188
    3DLPC   C19  103   4.931   0.189   2.295
    3DLPC   C20  104   4.891   0.143   2.435
    3DLPC   C21  105   4.995   0.188   2.538
    3DLPC   C22  106   4.949   0.157   2.681
    3DLPC   C23  107   5.059   0.191   2.783
    3DLPC   C24  108   5.090   0.341   2.785
    3DLPC   C25  109   4.979   0.424   2.850
    3DLPC   C26  110   4.973   0.402   3.001
    3DLPC   C27  111   4.867   0.492   3.065
    3DLPC   C28  112   5.316   0.325   2.022
    3DLPC  OS29  113   5.301   0.320   2.166
    3DLPC   C30  114   5.412   0.350   2.237
    3DLPC   O31  115   5.526   0.352   2.190
    3DLPC   C32  116   5.381   0.351   2.386
    3DLPC   C33  117   5.510   0.376   2.465
    3DLPC   C34  118   5.484   0.378   2.616
    3DLPC   C35  119   5.613   0.406   2.691
    3DLPC   C36  120   5.591   0.405   2.842
    3DLPC   C37  121   0.016   0.436   2.916
    3DLPC   C38  122   5.699   0.438   3.068
    3DLPC   C39  123   0.123   0.470   3.142
    3DLPC   C40  124   0.099   0.474   3.293
    3DLPC   C41  125   0.010   0.593   3.330
    3DLPC   C42  126   5.684   0.593   3.480
    4DLPC    C1  127   1.074   0.793   1.408
    4DLPC    C2  128   0.931   0.732   1.229
    4DLPC    C3  129   1.125   0.858   1.182
    4DLPC    N4  130   1.018   0.839   1.281
    4DLPC    C5  131   0.934   0.960   1.298
    4DLPC    C6  132   1.000   1.096   1.331
    4DLPC   OS7  133   0.910   1.192   1.388
    4DLPC    P8  134   0.963   1.339   1.363
    4DLPC   OM9  135   1.097   1.340   1.424
    4DLPC  OM10  136   0.943   1.361   1.219
    4DLPC  OS11  137   0.855   1.406   1.453
    4DLPC   C12  138   0.902   1.437   1.584
    4DLPC   C13  139   0.797   1.501   1.676
    4DLPC  OS14  140   0.854   1.546   1.801
    4DLPC   C15  141   0.858   1.681   1.822
    4DLPC   O16  142   0.840   1.763   1.732
    4DLPC   C17  143   0.913   1.716   1.959
    4DLPC   C18  144   0.814   1.681   2.070
    4DLPC   C19  145   0.866   1.734   2.204
    4DLPC   C20  146   0.780   1.686   2.321
    4DLPC   C21  147   0.837   1.736   2.453
    4DLPC   C22  148   0.765   1.669   2.570
    4DLPC   C23  149   0.784   1.518   2.559
    4DLPC   C24  150   0.729   1.441   2.679
    4DLPC   C25  151   0.740   1.291   2.651
    4DLPC   C26  152   0.886   1.252   2.629
    4DLPC   C27  153   0.897   1.107   2.581
    4DLPC   C28  154   0.680   1.400   1.685
    4DLPC  OS29  155   0.574   1.439   1.775
    4DLPC   C30  156   0.567   1.367   1.891
    4DLPC   O31  157   0.598   1.247   1.898
    4DLPC   C32  158   0.479   1.439   1.991
    4DLPC   C33  159   0.511   1.404   2.136
    4DLPC   C34  160   0.438   1.280   2.185
    4DLPC   C35  161   0.458   1.261   2.336
    4DLPC   C36  162   0.372   1.147   2.390
    4DLPC   C37  163   0.386   1.136   2.542
    4DLPC   C38  164   0.298   1.024   2.597
    4DLPC   C39  165   0.307   1.015   2.750
    4DLPC   C40  166   0.217   0.902   2.802
    4DLPC   C41  167   0.216   0.898   2.955
    4DLPC   C42  168   0.353   0.856   3.010
    5DLPC    C1  169   1.168   5.564   1.844
    5DLPC    C2  170   1.163   5.497   2.071
    5DLPC    C3  171   1.103   0.065   2.014
    5DLPC    N4  172   1.195   5.609   1.982
    5DLPC    C5  173   1.337   5.648   2.000
    5DLPC    C6  174   1.403   0.103   1.912
    5DLPC   OS7  175   1.532   0.141   1.958
    5DLPC    P8  176   1.601   0.254   1.873
    5DLPC   OM9  177   1.743   0.273   1.904
    5DLPC  OM10  178   1.552   0.264   1.735
    5DLPC  OS11  179   1.524   0.373   1.941
    5DLPC   C12  180   1.575   0.410   2.070
    5DLPC   C13  181   1.475   0.501   2.141
    5DLPC  OS14  182   1.530   0.587   2.245
    5DLPC   C15  183   1.586   0.706   2.210
    5DLPC   O16  184   1.600   0.745   2.094
    5DLPC   C17  185   1.621   0.784   2.335
    5DLPC   C18  186   1.674   0.690   2.443
    5DLPC   C19  187   1.657   0.751   2.582
    5DLPC   C20  188   1.717   0.661   2.691
    5DLPC   C21  189   1.651   0.524   2.693
    5DLPC   C22  190   1.700   0.443   2.814
    5DLPC   C23  191   1.645   0.300   2.814
    5DLPC   C24  192   1.722   0.210   2.718
    5DLPC   C25  193   1.863   0.184   2.771
    5DLPC   C26  194   1.941   0.089   2.680
    5DLPC   C27  195   2.080   0.060   2.735
    5DLPC   C28  196   1.361   0.408   2.187
    5DLPC  OS29  197   1.399   0.308   2.284
    5DLPC   C30  198   1.298   0.237   2.341
    5DLPC   O31  199   1.193   0.210   2.282
    5DLPC   C32  200   1.353   0.158   2.458
    5DLPC   C33  201   1.263   0.170   2.581
    5DLPC   C34  202   1.271   0.310   2.641
    5DLPC   C35  203   1.174   0.324   2.758
    5DLPC   C36  204   1.031   0.303   2.708
    5DLPC   C37  205   0.927   0.329   2.817
    5DLPC   C38  206   0.788   0.298   2.760
    5DLPC   C39  207   0.676   0.336   2.858
    5DLPC   C40  208   0.540   0.300   2.797
    5DLPC   C41  209   0.427   0.352   2.885
    5DLPC   C42  210   0.423   0.505   2.882
    6DLPC    C1  211   1.117   1.990   1.759
    6DLPC    C2  212   0.943   2.077   1.623
    6DLPC    C3  213   1.064   1.884   1.550
    6DLPC    N4  214   1.075   2.013   1.620
    6DLPC    C5  215   1.171   2.103   1.552
    6DLPC    C6  216   1.317   2.055   1.537
    6DLPC   OS7  217   1.410   2.162   1.525
    6DLPC    P8  218   1.556   2.110   1.549
    6DLPC   OM9  219   1.648   2.219   1.517
    6DLPC  OM10  220   1.574   1.975   1.497
    6DLPC  OS11  221   1.547   2.092   1.706
    6DLPC   C12  222   1.577   2.212   1.777
    6DLPC   C13  223   1.533   2.214   1.925
    6DLPC  OS14  224   1.577   2.332   1.997
    6DLPC   C15  225   1.485   2.433   2.007
    6DLPC   O16  226   1.407   2.457   1.915
    6DLPC   C17  227   1.523   2.530   2.117
    6DLPC   C18  228   1.414   2.637   2.135
    6DLPC   C19  229   1.287   2.583   2.200
    6DLPC   C20  230   1.177   2.689   2.196
    6DLPC   C21  231   1.046   2.641   2.258
    6DLPC   C22  232   1.055   2.629   2.410
    6DLPC   C23  233   0.918   2.599   2.471
    6DLPC   C24  234   0.925   2.592   2.623
    6DLPC   C25  235   0.785   2.574   2.683
    6DLPC   C26  236   0.791   2.564   2.836
    6DLPC   C27  237   0.650   2.547   2.894
    6DLPC   C28  238   1.576   2.082   1.991
    6DLPC  OS29  239   1.468   1.987   2.003
    6DLPC   C30  240   1.497   1.865   2.056
    6DLPC   O31  241   1.611   1.817   2.063
    6DLPC   C32  242   1.368   1.785   2.066
    6DLPC   C33  243   1.371   1.678   2.175
    6DLPC   C34  244   1.234   1.610   2.183
    6DLPC   C35  245   1.221   1.512   2.300
    6DLPC   C36  246   1.303   1.385   2.278
    6DLPC   C37  247   1.281   1.287   2.393
    6DLPC   C38  248   1.357   1.157   2.370
    6DLPC   C39  249   1.332   1.058   2.485
    6DLPC   C40  250   1.395   1.106   2.615
    6DLPC   C41  251   1.369   1.006   2.728
    6DLPC   C42  252   1.222   1.005   2.769
    7DLPC    C1  253   4.094   4.424   1.020
    7DLPC    C2  254   4.206   4.255   0.901
    7DLPC    C3  255   4.289   4.476   0.892
    7DLPC    N4  256   4.227   4.376   0.980
    7DLPC    C5  257   4.315   4.344   1.095
    7DLPC    C6  258   4.347   4.453   1.201
    7DLPC   OS7  259   4.240   4.478   1.292
    7DLPC    P8  260   4.207   4.629   1.315
    7DLPC   OM9  261   4.219   4.695   1.184
    7DLPC  OM10  262   4.083   4.642   1.391
    7DLPC  OS11  263   4.330   4.676   1.401
    7DLPC   C12  264   4.316   4.635   1.537
    7DLPC   C13  265   4.412   4.708   1.633
    7DLPC  OS14  266   4.421   4.644   1.762
    7DLPC   C15  267   4.543   4.597   1.801
    7DLPC   O16  268   4.635   4.578   1.720
    7DLPC   C17  269   4.536   4.546   1.944
    7DLPC   C18  270   4.671   4.496   1.995
    7DLPC   C19  271   4.653   4.442   2.137
    7DLPC   C20  272   4.782   4.384   2.195
    7DLPC   C21  273   4.751   4.319   2.330
    7DLPC   C22  274   4.873   4.250   2.391
    7DLPC   C23  275   4.830   4.174   2.517
    7DLPC   C24  276   4.789   4.271   2.628
    7DLPC   C25  277   4.720   4.195   2.742
    7DLPC   C26  278   4.815   4.095   2.808
    7DLPC   C27  279   4.744   4.016   2.917
    7DLPC   C28  280   4.365   4.854   1.638
    7DLPC  OS29  281   4.233   4.874   1.693
    7DLPC   C30  282   4.228   4.962   1.797
    7DLPC   O31  283   4.318   5.041   1.824
    7DLPC   C32  284   4.089   4.965   1.859
    7DLPC   C33  285   4.071   5.092   1.942
    7DLPC   C34  286   3.931   5.100   2.004
    7DLPC   C35  287   3.914   5.001   2.119
    7DLPC   C36  288   3.779   5.022   2.188
    7DLPC   C37  289   3.766   4.937   2.314
    7DLPC   C38  290   3.639   4.974   2.390
    7DLPC   C39  291   3.630   4.900   2.524
    7DLPC   C40  292   3.509   4.948   2.604
    7DLPC   C41  293   3.499   4.878   2.739
    7DLPC   C42  294   3.378   4.927   2.818
    8DLPC    C1  295   4.618   5.627   1.117
    8DLPC    C2  296   4.812   5.642   1.252
    8DLPC    C3  297   4.657   5.469   1.295
    8DLPC    N4  298   4.669   5.610   1.254
    8DLPC    C5  299   4.604   0.049   1.348
    8DLPC    C6  300   4.456   0.027   1.389
    8DLPC   OS7  301   4.405   0.131   1.471
    8DLPC    P8  302   4.289   0.074   1.559
    8DLPC   OM9  303   4.179   0.035   1.471
    8DLPC  OM10  304   4.353   5.633   1.650
    8DLPC  OS11  305   4.253   0.205   1.637
    8DLPC   C12  306   4.340   0.228   1.748
    8DLPC   C13  307   4.333   0.368   1.809
    8DLPC  OS14  308   4.425   0.381   1.920
    8DLPC   C15  309   4.492   0.498   1.936
    8DLPC   O16  310   4.492   0.589   1.851
    8DLPC   C17  311   4.576   0.496   2.062
    8DLPC   C18  312   4.514   0.585   2.169
    8DLPC   C19  313   4.575   0.557   2.307
    8DLPC   C20  314   4.506   0.641   2.414
    8DLPC   C21  315   4.553   0.601   2.554
    8DLPC   C22  316   4.482   0.683   2.661
    8DLPC   C23  317   4.526   0.639   2.801
    8DLPC   C24  318   4.455   0.720   2.909
    8DLPC   C25  319   4.494   0.670   3.048
    8DLPC   C26  320   4.421   0.748   3.157
    8DLPC   C27  321   4.456   0.694   3.296
    8DLPC   C28  322   4.185   0.396   1.843
    8DLPC  OS29  323   4.122   0.300   1.930
    8DLPC   C30  324   4.002   0.335   1.984
    8DLPC   O31  325   3.934   0.430   1.944
    8DLPC   C32  326   3.953   0.225   2.076
    8DLPC   C33  327   3.801   0.224   2.091
    8DLPC   C34  328   3.759   0.099   2.170
    8DLPC   C35  329   3.816   0.103   2.312
    8DLPC   C36  330   3.793   5.626   2.385
    8DLPC   C37  331   3.878   5.514   2.322
    8DLPC   C38  332   3.854   5.380   2.393
    8DLPC   C39  333   3.905   5.384   2.537
    8DLPC   C40  334   3.882   5.249   2.606
    8DLPC   C41  335   3.930   5.253   2.751
    8DLPC   C42  336   4.083   5.268   2.758
    9DLPC    C1  337   2.150   1.029   1.557
    9DLPC    C2  338   2.098   0.921   1.349
    9DLPC    C3  339   2.175   1.147   1.353
    9DLPC    N4  340   2.189   1.015   1.416
    9DLPC    C5  341   2.331   0.973   1.403
    9DLPC    C6  342   2.372   0.835   1.459
    9DLPC   OS7  343   2.512   0.807   1.450
    9DLPC    P8  344   2.548   0.665   1.509
    9DLPC   OM9  345   2.439   0.573   1.472
    9DLPC  OM10  346   2.687   0.635   1.474
    9DLPC  OS11  347   2.537   0.701   1.661
    9DLPC   C12  348   2.645   0.783   1.705
    9DLPC   C13  349   2.631   0.824   1.853
    9DLPC  OS14  350   2.712   0.938   1.892
    9DLPC   C15  351   2.638   1.045   1.933
    9DLPC   O16  352   2.529   1.071   1.881
    9DLPC   C17  353   2.722   1.142   2.014
    9DLPC   C18  354   2.734   1.091   2.158
    9DLPC   C19  355   2.811   1.188   2.248
    9DLPC   C20  356   2.734   1.320   2.261
    9DLPC   C21  357   2.812   1.420   2.347
    9DLPC   C22  358   2.791   1.403   2.497
    9DLPC   C23  359   2.653   1.456   2.538
    9DLPC   C24  360   2.646   1.487   2.688
    9DLPC   C25  361   2.659   1.361   2.774
    9DLPC   C26  362   2.650   1.397   2.922
    9DLPC   C27  363   2.662   1.272   3.010
    9DLPC   C28  364   2.653   0.695   1.934
    9DLPC  OS29  365   2.641   0.709   2.077
    9DLPC   C30  366   2.673   0.599   2.150
    9DLPC   O31  367   2.726   0.498   2.103
    9DLPC   C32  368   2.655   0.627   2.298
    9DLPC   C33  369   2.630   0.497   2.374
    9DLPC   C34  370   2.620   0.522   2.525
    9DLPC   C35  371   2.756   0.563   2.582
    9DLPC   C36  372   2.749   0.577   2.734
    9DLPC   C37  373   2.884   0.619   2.791
    9DLPC   C38  374   2.881   0.623   2.944
    9DLPC   C39  375   3.015   0.672   2.997
    9DLPC   C40  376   3.127   0.577   2.955
    9DLPC   C41  377   3.263   0.628   3.001
    9DLPC   C42  378   3.375   0.536   2.954
   10DLPC    C1  379   3.926   1.764   1.659
   10DLPC    C2  380   3.758   1.911   1.738
   10DLPC    C3  381   3.830   1.929   1.513
   10DLPC    N4  382   3.875   1.902   1.650
   10DLPC    C5  383   3.974   2.001   1.698
   10DLPC    C6  384   4.102   2.028   1.616
   10DLPC   OS7  385   4.190   1.916   1.606
   10DLPC    P8  386   4.311   1.940   1.510
   10DLPC   OM9  387   4.372   1.809   1.487
   10DLPC  OM10  388   4.267   2.026   1.398
   10DLPC  OS11  389   4.401   2.031   1.601
   10DLPC   C12  390   4.472   1.958   1.701
   10DLPC   C13  391   4.560   2.048   1.788
   10DLPC  OS14  392   4.645   1.976   1.882
   10DLPC   C15  393   4.775   1.954   1.852
   10DLPC   O16  394   4.816   1.935   1.736
   10DLPC   C17  395   4.846   1.908   1.979
   10DLPC   C18  396   4.822   2.014   2.087
   10DLPC   C19  397   4.850   1.967   2.230
   10DLPC   C20  398   4.814   2.079   2.327
   10DLPC   C21  399   4.812   2.033   2.473
   10DLPC   C22  400   4.778   2.148   2.567
   10DLPC   C23  401   4.893   2.249   2.575
   10DLPC   C24  402   4.855   2.373   2.656
   10DLPC   C25  403   4.831   2.341   2.803
   10DLPC   C26  404   4.793   2.468   2.880
   10DLPC   C27  405   4.910   2.567   2.884
   10DLPC   C28  406   4.467   2.152   1.854
   10DLPC  OS29  407   4.361   2.101   1.938
   10DLPC   C30  408   4.303   2.196   2.016
   10DLPC   O31  409   4.318   2.317   2.001
   10DLPC   C32  410   4.197   2.132   2.105
   10DLPC   C33  411   4.198   2.189   2.247
   10DLPC   C34  412   4.320   2.139   2.325
   10DLPC   C35  413   4.304   2.165   2.475
   10DLPC   C36  414   4.313   2.314   2.510
   10DLPC   C37  415   4.291   2.333   2.660
   10DLPC   C38  416   4.400   2.260   2.739
   10DLPC   C39  417   4.373   2.266   2.890
   10DLPC   C40  418   4.478   2.184   2.966
   10DLPC   C41  419   4.449   2.184   3.116
   10DLPC   C42  420   4.467   2.323   3.176
   11DLPC    C1  421   4.818   1.368   1.248
   11DLPC    C2  422   4.748   1.223   1.421
   11DLPC    C3  423   4.928   1.161   1.276
   11DLPC    N4  424   4.866   1.272   1.348
   11DLPC    C5  425   4.961   1.341   1.439
   11DLPC    C6  426   5.049   1.258   1.536
   11DLPC   OS7  427   4.983   1.188   1.642
   11DLPC    P8  428   5.079   1.075   1.695
   11DLPC   OM9  429   5.093   0.984   1.580
   11DLPC  OM10  430   5.195   1.147   1.749
   11DLPC  OS11  431   4.983   1.017   1.804
   11DLPC   C12  432   4.999   1.079   1.931
   11DLPC   C13  433   4.875   1.066   2.020
   11DLPC  OS14  434   4.866   1.167   2.124
   11DLPC   C15  435   4.803   1.283   2.095
   11DLPC   O16  436   4.755   1.309   1.984
   11DLPC   C17  437   4.805   1.378   2.213
   11DLPC   C18  438   4.697   1.485   2.200
   11DLPC   C19  439   4.700   1.577   2.322
   11DLPC   C20  440   4.589   1.683   2.314
   11DLPC   C21  441   4.451   1.620   2.326
   11DLPC   C22  442   4.344   1.729   2.338
   11DLPC   C23  443   4.205   1.669   2.358
   11DLPC   C24  444   4.106   1.779   2.398
   11DLPC   C25  445   3.968   1.721   2.428
   11DLPC   C26  446   3.877   1.828   2.487
   11DLPC   C27  447   3.846   1.937   2.385
   11DLPC   C28  448   4.861   0.917   2.061
   11DLPC  OS29  449   4.974   0.854   2.126
   11DLPC   C30  450   4.972   0.718   2.126
   11DLPC   O31  451   4.902   0.650   2.051
   11DLPC   C32  452   5.088   0.663   2.209
   11DLPC   C33  453   5.080   0.712   2.353
   11DLPC   C34  454   4.966   0.641   2.427
   11DLPC   C35  455   4.946   0.699   2.567
   11DLPC   C36  456   4.893   0.843   2.559
   11DLPC   C37  457   4.852   0.893   2.698
   11DLPC   C38  458   4.972   0.905   2.792
   11DLPC   C39  459   4.926   0.949   2.931
   11DLPC   C40  460   5.045   0.960   3.027
   11DLPC   C41  461   4.998   0.996   3.168
   11DLPC   C42  462   5.117   1.006   3.264
   12DLPC    C1  463   3.834   5.540   1.638
   12DLPC    C2  464   3.853   5.503   1.870
   12DLPC    C3  465   4.012   5.641   1.760
   12DLPC    N4  466   3.930   5.521   1.746
   12DLPC    C5  467   4.010   5.398   1.724
   12DLPC    C6  468   4.097   5.385   1.596
   12DLPC   OS7  469   4.165   5.260   1.585
   12DLPC    P8  470   4.266   5.257   1.465
   12DLPC   OM9  471   4.309   5.118   1.442
   12DLPC  OM10  472   4.211   5.336   1.354
   12DLPC  OS11  473   4.384   5.335   1.532
   12DLPC   C12  474   4.460   5.255   1.622
   12DLPC   C13  475   4.525   5.335   1.735
   12DLPC  OS14  476   4.637   5.268   1.800
   12DLPC   C15  477   4.736   5.351   1.842
   12DLPC   O16  478   4.779   5.440   1.768
   12DLPC   C17  479   4.812   5.287   1.957
   12DLPC   C18  480   4.918   5.381   2.013
   12DLPC   C19  481   4.956   5.342   2.156
   12DLPC   C20  482   4.840   5.374   2.251
   12DLPC   C21  483   4.878   5.345   2.397
   12DLPC   C22  484   4.766   5.387   2.492
   12DLPC   C23  485   4.808   5.365   2.637
   12DLPC   C24  486   4.702   5.415   2.736
   12DLPC   C25  487   4.577   5.327   2.734
   12DLPC   C26  488   4.475   5.376   2.838
   12DLPC   C27  489   4.527   5.356   2.980
   12DLPC   C28  490   4.409   5.373   1.829
   12DLPC  OS29  491   4.445   5.466   1.934
   12DLPC   C30  492   4.344   5.532   1.995
   12DLPC   O31  493   4.224   5.519   1.967
   12DLPC   C32  494   4.400   5.626   2.100
   12DLPC   C33  495   4.292   0.064   2.154
   12DLPC   C34  496   4.349   0.163   2.256
   12DLPC   C35  497   4.395   0.089   2.383
   12DLPC   C36  498   4.440   0.189   2.490
   12DLPC   C37  499   4.477   0.116   2.619
   12DLPC   C38  500   4.504   0.215   2.732
   12DLPC   C39  501   4.536   0.142   2.862
   12DLPC   C40  502   4.549   0.241   2.978
   12DLPC   C41  503   4.581   0.167   3.108
   12DLPC   C42  504   4.466   0.074   3.148
   13DLPC    C1  505   0.243   1.810   1.188
   13DLPC    C2  506   0.016   1.765   1.129
   13DLPC    C3  507   0.166   1.847   0.966
   13DLPC    N4  508   0.155   1.758   1.082
   13DLPC    C5  509   0.190   1.620   1.040
   13DLPC    C6  510   0.210   1.508   1.144
   13DLPC   OS7  511   0.332   1.518   1.217
   13DLPC    P8  512   0.343   1.412   1.334
   13DLPC   OM9  513   0.259   1.296   1.304
   13DLPC  OM10  514   0.486   1.398   1.363
   13DLPC  OS11  515   0.275   1.501   1.444
   13DLPC   C12  516   0.367   1.592   1.505
   13DLPC   C13  517   0.308   1.685   1.612
   13DLPC  OS14  518   0.409   1.778   1.662
   13DLPC   C15  519   0.363   1.897   1.713
   13DLPC   O16  520   0.258   1.948   1.673
   13DLPC   C17  521   0.479   1.975   1.772
   13DLPC   C18  522   0.449   2.034   1.909
   13DLPC   C19  523   0.453   1.927   2.018
   13DLPC   C20  524   0.434   1.988   2.157
   13DLPC   C21  525   0.439   1.881   2.266
   13DLPC   C22  526   0.320   1.786   2.252
   13DLPC   C23  527   0.331   1.666   2.347
   13DLPC   C24  528   0.306   1.702   2.493
   13DLPC   C25  529   0.314   1.574   2.578
   13DLPC   C26  530   0.280   1.601   2.725
   13DLPC   C27  531   0.291   1.473   2.808
   13DLPC   C28  532   0.242   1.589   1.715
   13DLPC  OS29  533   0.167   1.649   1.822
   13DLPC   C30  534   0.102   1.563   1.905
   13DLPC   O31  535   0.110   1.440   1.901
   13DLPC   C32  536   0.027   1.640   2.013
   13DLPC   C33  537   5.704   1.545   2.130
   13DLPC   C34  538   5.641   1.615   2.250
   13DLPC   C35  539   5.617   1.513   2.360
   13DLPC   C36  540   5.548   1.572   2.484
   13DLPC   C37  541   5.510   1.460   2.580
   13DLPC   C38  542   5.431   1.512   2.700
   13DLPC   C39  543   5.383   1.396   2.786
   13DLPC   C40  544   5.299   1.444   2.904
   13DLPC   C41  545   5.246   1.326   2.985
   13DLPC   C42  546   5.361   1.249   3.051
   14DLPC    C1  547   0.479   3.172   1.388
   14DLPC    C2  548   0.598   3.199   1.592
   14DLPC    C3  549   0.584   3.377   1.431
   14DLPC    N4  550   0.598   3.232   1.449
   14DLPC    C5  551   0.718   3.177   1.382
   14DLPC    C6  552   0.857   3.238   1.413
   14DLPC   OS7  553   0.901   3.223   1.548
   14DLPC    P8  554   1.016   3.323   1.584
   14DLPC   OM9  555   1.092   3.260   1.692
   14DLPC  OM10  556   1.084   3.367   1.461
   14DLPC  OS11  557   0.922   3.436   1.643
   14DLPC   C12  558   0.892   3.406   1.780
   14DLPC   C13  559   0.834   3.518   1.867
   14DLPC  OS14  560   0.861   3.496   2.008
   14DLPC   C15  561   0.841   3.597   2.098
   14DLPC   O16  562   0.829   3.715   2.063
   14DLPC   C17  563   0.880   3.551   2.237
   14DLPC   C18  564   0.862   3.399   2.252
   14DLPC   C19  565   0.724   3.363   2.306
   14DLPC   C20  566   0.727   3.362   2.459
   14DLPC   C21  567   0.590   3.332   2.518
   14DLPC   C22  568   0.500   3.456   2.512
   14DLPC   C23  569   0.363   3.427   2.573
   14DLPC   C24  570   0.283   3.556   2.589
   14DLPC   C25  571   0.347   3.643   2.697
   14DLPC   C26  572   0.269   3.773   2.718
   14DLPC   C27  573   0.334   3.858   2.827
   14DLPC   C28  574   0.688   3.538   1.822
   14DLPC  OS29  575   0.600   3.424   1.835
   14DLPC   C30  576   0.510   3.431   1.937
   14DLPC   O31  577   0.501   3.527   2.014
   14DLPC   C32  578   0.416   3.312   1.935
   14DLPC   C33  579   0.446   3.211   2.047
   14DLPC   C34  580   0.349   3.093   2.039
   14DLPC   C35  581   0.210   3.129   2.093
   14DLPC   C36  582   0.214   3.137   2.246
   14DLPC   C37  583   0.078   3.170   2.307
   14DLPC   C38  584   0.089   3.171   2.459
   14DLPC   C39  585   5.663   3.214   2.527
   14DLPC   C40  586   5.683   3.218   2.679
   14DLPC   C41  587   5.557   3.264   2.751
   14DLPC   C42  588   5.579   3.267   2.902
   15DLPC    C1  589   0.369   2.523   0.956
   15DLPC    C2  590   0.347   2.615   1.174
   15DLPC    C3  591   0.565   2.575   1.082
   15DLPC    N4  592   0.427   2.525   1.090
   15DLPC    C5  593   0.424   2.386   1.141
   15DLPC    C6  594   0.450   2.355   1.290
   15DLPC   OS7  595   0.580   2.385   1.342
   15DLPC    P8  596   0.595   2.327   1.487
   15DLPC   OM9  597   0.519   2.202   1.497
   15DLPC  OM10  598   0.737   2.335   1.521
   15DLPC  OS11  599   0.513   2.443   1.553
   15DLPC   C12  600   0.504   2.428   1.694
   15DLPC   C13  601   0.411   2.533   1.756
   15DLPC  OS14  602   0.436   2.552   1.898
   15DLPC   C15  603   0.376   2.655   1.964
   15DLPC   O16  604   0.330   2.754   1.906
   15DLPC   C17  605   0.414   2.648   2.111
   15DLPC   C18  606   0.412   2.504   2.161
   15DLPC   C19  607   0.483   2.490   2.295
   15DLPC   C20  608   0.475   2.347   2.348
   15DLPC   C21  609   0.561   2.332   2.474
   15DLPC   C22  610   0.551   2.191   2.534
   15DLPC   C23  611   0.650   2.177   2.650
   15DLPC   C24  612   0.638   2.042   2.719
   15DLPC   C25  613   0.508   2.033   2.800
   15DLPC   C26  614   0.501   1.903   2.880
   15DLPC   C27  615   0.373   1.898   2.965
   15DLPC   C28  616   0.269   2.490   1.714
   15DLPC  OS29  617   0.224   2.365   1.768
   15DLPC   C30  618   0.110   2.313   1.715
   15DLPC   O31  619   0.049   2.364   1.621
   15DLPC   C32  620   0.063   2.193   1.796
   15DLPC   C33  621   0.093   2.217   1.944
   15DLPC   C34  622   0.030   2.110   2.034
   15DLPC   C35  623   0.061   2.140   2.181
   15DLPC   C36  624   5.692   2.043   2.273
   15DLPC   C37  625   0.025   2.067   2.420
   15DLPC   C38  626   5.651   1.974   2.511
   15DLPC   C39  627   5.697   1.986   2.657
   15DLPC   C40  628   5.616   1.892   2.747
   15DLPC   C41  629   5.670   1.893   2.890
   15DLPC   C42  630   5.649   2.029   2.956
   16DLPC    C1  631   2.118   2.913   1.717
   16DLPC    C2  632   2.179   3.139   1.777
   16DLPC    C3  633   1.963   3.089   1.695
   16DLPC    N4  634   2.105   3.056   1.681
   16DLPC    C5  635   2.145   3.083   1.542
   16DLPC    C6  636   2.294   3.068   1.501
   16DLPC   OS7  637   2.343   2.934   1.503
   16DLPC    P8  638   2.482   2.921   1.576
   16DLPC   OM9  639   2.550   3.051   1.581
   16DLPC  OM10  640   2.553   2.802   1.531
   16DLPC  OS11  641   2.431   2.898   1.722
   16DLPC   C12  642   2.541   2.880   1.810
   16DLPC   C13  643   2.496   2.874   1.957
   16DLPC  OS14  644   2.603   2.901   2.052
   16DLPC   C15  645   2.564   2.986   2.151
   16DLPC   O16  646   2.464   3.058   2.137
   16DLPC   C17  647   2.671   3.003   2.257
   16DLPC   C18  648   2.651   2.904   2.373
   16DLPC   C19  649   2.747   2.934   2.487
   16DLPC   C20  650   2.712   3.067   2.554
   16DLPC   C21  651   2.803   3.095   2.674
   16DLPC   C22  652   2.760   3.223   2.747
   16DLPC   C23  653   2.858   3.253   2.862
   16DLPC   C24  654   2.847   3.150   2.974
   16DLPC   C25  655   2.742   3.187   3.079
   16DLPC   C26  656   2.792   3.303   3.166
   16DLPC   C27  657   2.693   3.334   3.278
   16DLPC   C28  658   2.423   2.740   1.974
   16DLPC  OS29  659   2.355   2.721   2.099
   16DLPC   C30  660   2.221   2.743   2.100
   16DLPC   O31  661   2.153   2.753   1.997
   16DLPC   C32  662   2.163   2.729   2.239
   16DLPC   C33  663   2.017   2.772   2.236
   16DLPC   C34  664   1.945   2.751   2.369
   16DLPC   C35  665   1.799   2.794   2.353
   16DLPC   C36  666   1.717   2.769   2.479
   16DLPC   C37  667   1.572   2.811   2.453
   16DLPC   C38  668   1.481   2.785   2.573
   16DLPC   C39  669   1.467   2.636   2.603
   16DLPC   C40  670   1.347   2.612   2.694
   16DLPC   C41  671   1.362   2.686   2.827
   16DLPC   C42  672   1.234   2.672   2.910
   17DLPC    C1  673   2.877   2.197   1.771
   17DLPC    C2  674   2.804   2.007   1.648
   17DLPC    C3  675   2.753   2.024   1.881
   17DLPC    N4  676   2.768   2.100   1.756
   17DLPC    C5  677   2.645   2.177   1.726
   17DLPC    C6  678   2.519   2.103   1.673
   17DLPC   OS7  679   2.469   2.000   1.758
   17DLPC    P8  680   2.355   1.916   1.689
   17DLPC   OM9  681   2.232   1.922   1.769
   17DLPC  OM10  682   2.358   1.939   1.543
   17DLPC  OS11  683   2.415   1.772   1.706
   17DLPC   C12  684   2.422   1.731   1.842
   17DLPC   C13  685   2.467   1.585   1.858
   17DLPC  OS14  686   2.443   1.529   1.990
   17DLPC   C15  687   2.329   1.456   2.010
   17DLPC   O16  688   2.246   1.436   1.921
   17DLPC   C17  689   2.320   1.406   2.153
   17DLPC   C18  690   2.380   1.506   2.251
   17DLPC   C19  691   2.289   1.628   2.273
   17DLPC   C20  692   2.359   1.731   2.362
   17DLPC   C21  693   2.476   1.798   2.290
   17DLPC   C22  694   2.548   1.898   2.381
   17DLPC   C23  695   2.655   1.974   2.303
   17DLPC   C24  696   2.729   2.075   2.391
   17DLPC   C25  697   2.822   2.006   2.492
   17DLPC   C26  698   2.895   2.110   2.576
   17DLPC   C27  699   2.992   2.044   2.674
   17DLPC   C28  700   2.612   1.575   1.807
   17DLPC  OS29  701   2.711   1.657   1.873
   17DLPC   C30  702   2.836   1.603   1.874
   17DLPC   O31  703   2.869   1.507   1.804
   17DLPC   C32  704   2.934   1.690   1.952
   17DLPC   C33  705   2.896   1.698   2.100
   17DLPC   C34  706   2.985   1.798   2.175
   17DLPC   C35  707   3.129   1.748   2.192
   17DLPC   C36  708   3.142   1.644   2.304
   17DLPC   C37  709   3.116   1.705   2.442
   17DLPC   C38  710   3.130   1.598   2.551
   17DLPC   C39  711   3.089   1.652   2.688
   17DLPC   C40  712   3.097   1.543   2.795
   17DLPC   C41  713   3.049   1.596   2.930
   17DLPC   C42  714   3.057   1.486   3.037
   18DLPC    C1  715   4.527   2.459   1.287
   18DLPC    C2  716   4.469   2.297   1.450
   18DLPC    C3  717   4.416   2.259   1.222
   18DLPC    N4  718   4.424   2.362   1.326
   18DLPC    C5  719   4.296   2.434   1.344
   18DLPC    C6  720   4.169   2.357   1.386
   18DLPC   OS7  721   4.051   2.438   1.392
   18DLPC    P8  722   3.925   2.353   1.433
   18DLPC   OM9  723   3.815   2.448   1.412
   18DLPC  OM10  724   3.934   2.228   1.355
   18DLPC  OS11  725   3.960   2.331   1.584
   18DLPC   C12  726   3.873   2.400   1.674
   18DLPC   C13  727   3.918   2.382   1.820
   18DLPC  OS14  728   3.814   2.399   1.920
   18DLPC   C15  729   3.823   2.308   2.021
   18DLPC   O16  730   3.882   2.202   2.006
   18DLPC   C17  731   3.733   2.343   2.139
   18DLPC   C18  732   3.809   2.318   2.269
   18DLPC   C19  733   3.721   2.338   2.392
   18DLPC   C20  734   3.804   2.312   2.518
   18DLPC   C21  735   3.719   2.319   2.645
   18DLPC   C22  736   3.806   2.288   2.767
   18DLPC   C23  737   3.862   2.146   2.756
   18DLPC   C24  738   3.954   2.112   2.874
   18DLPC   C25  739   4.009   1.970   2.857
   18DLPC   C26  740   4.101   1.932   2.973
   18DLPC   C27  741   4.154   1.790   2.955
   18DLPC   C28  742   4.041   2.473   1.840
   18DLPC  OS29  743   4.014   2.615   1.834
   18DLPC   C30  744   4.048   2.683   1.947
   18DLPC   O31  745   4.007   2.799   1.966
   18DLPC   C32  746   4.129   2.597   2.043
   18DLPC   C33  747   4.170   2.665   2.174
   18DLPC   C34  748   4.059   2.656   2.279
   18DLPC   C35  749   4.112   2.699   2.416
   18DLPC   C36  750   4.007   2.675   2.525
   18DLPC   C37  751   4.066   2.698   2.665
   18DLPC   C38  752   3.965   2.658   2.772
   18DLPC   C39  753   4.028   2.660   2.911
   18DLPC   C40  754   3.929   2.605   3.015
   18DLPC   C41  755   3.993   2.596   3.154
   18DLPC   C42  756   4.106   2.492   3.156
   19DLPC    C1  757   3.850   1.068   1.435
   19DLPC    C2  758   3.814   1.057   1.198
   19DLPC    C3  759   3.898   0.868   1.317
   19DLPC    N4  760   3.806   0.982   1.324
   19DLPC    C5  761   3.670   0.929   1.349
   19DLPC    C6  762   3.551   1.027   1.359
   19DLPC   OS7  763   3.427   0.964   1.387
   19DLPC    P8  764   3.305   1.060   1.375
   19DLPC   OM9  765   3.334   1.158   1.269
   19DLPC  OM10  766   3.183   0.979   1.371
   19DLPC  OS11  767   3.321   1.133   1.513
   19DLPC   C12  768   3.253   1.064   1.618
   19DLPC   C13  769   3.307   1.086   1.761
   19DLPC  OS14  770   3.287   1.217   1.820
   19DLPC   C15  771   3.177   1.226   1.901
   19DLPC   O16  772   3.072   1.171   1.869
   19DLPC   C17  773   3.188   1.346   1.993
   19DLPC   C18  774   3.187   1.303   2.140
   19DLPC   C19  775   3.311   1.221   2.174
   19DLPC   C20  776   3.323   1.203   2.326
   19DLPC   C21  777   3.430   1.099   2.361
   19DLPC   C22  778   3.452   1.094   2.512
   19DLPC   C23  779   3.539   0.975   2.552
   19DLPC   C24  780   3.578   0.983   2.700
   19DLPC   C25  781   3.454   0.980   2.790
   19DLPC   C26  782   3.493   0.998   2.936
   19DLPC   C27  783   3.370   1.004   3.026
   19DLPC   C28  784   3.451   1.033   1.762
   19DLPC  OS29  785   3.457   0.890   1.753
   19DLPC   C30  786   3.580   0.832   1.746
   19DLPC   O31  787   3.685   0.894   1.725
   19DLPC   C32  788   3.566   0.681   1.743
   19DLPC   C33  789   3.491   0.628   1.865
   19DLPC   C34  790   3.579   0.626   1.990
   19DLPC   C35  791   3.505   0.557   2.105
   19DLPC   C36  792   3.593   0.544   2.230
   19DLPC   C37  793   3.522   0.462   2.338
   19DLPC   C38  794   3.611   0.439   2.460
   19DLPC   C39  795   3.541   0.350   2.562
   19DLPC   C40  796   3.631   0.324   2.683
   19DLPC   C41  797   3.561   0.234   2.786
   19DLPC   C42  798   3.649   0.211   2.909
   20DLPC    C1  799   3.132   1.395   1.389
   20DLPC    C2  800   3.104   1.602   1.275
   20DLPC    C3  801   3.233   1.431   1.173
   20DLPC    N4  802   3.199   1.493   1.302
   20DLPC    C5  803   3.319   1.550   1.366
   20DLPC    C6  804   3.441   1.460   1.396
   20DLPC   OS7  805   3.560   1.535   1.427
   20DLPC    P8  806   3.681   1.441   1.463
   20DLPC   OM9  807   3.683   1.335   1.361
   20DLPC  OM10  808   3.791   1.539   1.472
   20DLPC  OS11  809   3.633   1.388   1.602
   20DLPC   C12  810   3.670   1.473   1.710
   20DLPC   C13  811   3.634   1.415   1.847
   20DLPC  OS14  812   3.646   1.510   1.957
   20DLPC   C15  813   3.535   1.580   1.991
   20DLPC   O16  814   3.442   1.600   1.912
   20DLPC   C17  815   3.555   1.652   2.123
   20DLPC   C18  816   3.550   1.550   2.238
   20DLPC   C19  817   3.564   1.617   2.374
   20DLPC   C20  818   3.557   1.514   2.486
   20DLPC   C21  819   3.577   1.581   2.623
   20DLPC   C22  820   3.563   1.481   2.738
   20DLPC   C23  821   3.679   1.381   2.742
   20DLPC   C24  822   3.811   1.449   2.778
   20DLPC   C25  823   3.921   1.344   2.796
   20DLPC   C26  824   4.056   1.407   2.828
   20DLPC   C27  825   4.114   1.480   2.707
   20DLPC   C28  826   3.718   1.286   1.860
   20DLPC  OS29  827   3.714   1.216   1.986
   20DLPC   C30  828   3.815   1.245   2.072
   20DLPC   O31  829   3.914   1.313   2.043
   20DLPC   C32  830   3.795   1.171   2.203
   20DLPC   C33  831   3.925   1.162   2.283
   20DLPC   C34  832   3.899   1.091   2.416
   20DLPC   C35  833   4.027   1.071   2.497
   20DLPC   C36  834   3.998   1.000   2.628
   20DLPC   C37  835   4.126   0.973   2.707
   20DLPC   C38  836   4.096   0.917   2.846
   20DLPC   C39  837   4.032   0.779   2.838
   20DLPC   C40  838   4.004   0.724   2.978
   20DLPC   C41  839   3.934   0.588   2.970
   20DLPC   C42  840   3.793   0.604   2.911
   21DLPC    C1  841   5.512   1.274   1.742
   21DLPC    C2  842   5.518   1.052   1.658
   21DLPC    C3  843   5.424   1.220   1.524
   21DLPC    N4  844   5.531   1.193   1.621
   21DLPC    C5  845   5.666   1.216   1.565
   21DLPC    C6  846   5.691   1.342   1.479
   21DLPC   OS7  847   5.662   1.466   1.542
   21DLPC    P8  848   5.628   1.580   1.440
   21DLPC   OM9  849   0.012   1.695   1.450
   21DLPC  OM10  850   5.595   1.522   1.308
   21DLPC  OS11  851   5.489   1.621   1.501
   21DLPC   C12  852   5.506   1.683   1.629
   21DLPC   C13  853   5.379   1.748   1.686
   21DLPC  OS14  854   5.404   1.816   1.812
   21DLPC   C15  855   5.330   1.925   1.842
   21DLPC   O16  856   5.258   1.982   1.759
   21DLPC   C17  857   5.362   1.976   1.982
   21DLPC   C18  858   5.276   2.098   2.018
   21DLPC   C19  859   5.321   2.156   2.151
   21DLPC   C20  860   5.240   2.280   2.188
   21DLPC   C21  861   5.297   2.347   2.313
   21DLPC   C22  862   5.277   2.262   2.438
   21DLPC   C23  863   5.336   2.333   2.560
   21DLPC   C24  864   5.306   2.256   2.689
   21DLPC   C25  865   5.364   2.328   2.810
   21DLPC   C26  866   5.327   2.256   2.939
   21DLPC   C27  867   5.177   2.270   2.968
   21DLPC   C28  868   5.272   1.638   1.693
   21DLPC  OS29  869   5.298   1.531   1.786
   21DLPC   C30  870   5.190   1.489   1.858
   21DLPC   O31  871   5.074   1.516   1.828
   21DLPC   C32  872   5.233   1.397   1.970
   21DLPC   C33  873   5.285   1.480   2.088
   21DLPC   C34  874   5.170   1.538   2.170
   21DLPC   C35  875   5.224   1.635   2.276
   21DLPC   C36  876   5.120   1.667   2.383
   21DLPC   C37  877   5.176   1.769   2.481
   21DLPC   C38  878   5.086   1.785   2.604
   21DLPC   C39  879   5.137   1.899   2.693
   21DLPC   C40  880   5.053   1.912   2.820
   21DLPC   C41  881   5.091   1.804   2.921
   21DLPC   C42  882   5.231   1.829   2.978
   22DLPC    C1  883   3.984   2.789   1.532
   22DLPC    C2  884   4.110   2.979   1.606
   22DLPC    C3  885   4.082   2.939   1.374
   22DLPC    N4  886   4.101   2.873   1.504
   22DLPC    C5  887   4.226   2.796   1.494
   22DLPC    C6  888   4.264   2.703   1.611
   22DLPC   OS7  889   4.396   2.648   1.608
   22DLPC    P8  890   4.412   2.536   1.717
   22DLPC   OM9  891   4.551   2.492   1.703
   22DLPC  OM10  892   4.303   2.443   1.686
   22DLPC  OS11  893   4.386   2.627   1.843
   22DLPC   C12  894   4.503   2.658   1.920
   22DLPC   C13  895   4.586   2.780   1.876
   22DLPC  OS14  896   4.714   2.788   1.944
   22DLPC   C15  897   4.815   2.849   1.877
   22DLPC   O16  898   4.808   2.881   1.758
   22DLPC   C17  899   4.941   2.860   1.962
   22DLPC   C18  900   4.961   3.002   2.014
   22DLPC   C19  901   4.861   3.033   2.126
   22DLPC   C20  902   4.885   3.171   2.187
   22DLPC   C21  903   4.785   3.195   2.300
   22DLPC   C22  904   4.812   3.328   2.372
   22DLPC   C23  905   4.725   3.336   2.497
   22DLPC   C24  906   4.758   3.460   2.581
   22DLPC   C25  907   4.686   3.451   2.716
   22DLPC   C26  908   4.738   3.330   2.794
   22DLPC   C27  909   4.672   3.320   2.932
   22DLPC   C28  910   4.495   2.905   1.887
   22DLPC  OS29  911   4.411   2.920   2.003
   22DLPC   C30  912   4.415   3.041   2.067
   22DLPC   O31  913   4.505   3.124   2.054
   22DLPC   C32  914   4.297   3.054   2.162
   22DLPC   C33  915   4.325   3.013   2.307
   22DLPC   C34  916   4.400   3.121   2.385
   22DLPC   C35  917   4.383   3.100   2.536
   22DLPC   C36  918   4.449   2.971   2.584
   22DLPC   C37  919   4.414   2.944   2.731
   22DLPC   C38  920   4.483   2.817   2.782
   22DLPC   C39  921   4.434   2.780   2.922
   22DLPC   C40  922   4.471   2.886   3.026
   22DLPC   C41  923   4.421   2.845   3.165
   22DLPC   C42  924   4.452   2.952   3.269
   23DLPC    C1  925   0.056   2.898   1.024
   23DLPC    C2  926   0.023   2.966   1.250
   23DLPC    C3  927   5.598   3.063   1.075
   23DLPC    N4  928   5.660   2.938   1.122
   23DLPC    C5  929   5.560   2.830   1.136
   23DLPC    C6  930   5.455   2.834   1.250
   23DLPC   OS7  931   5.362   2.942   1.251
   23DLPC    P8  932   5.302   2.962   1.395
   23DLPC   OM9  933   5.413   2.960   1.491
   23DLPC  OM10  934   5.211   3.076   1.387
   23DLPC  OS11  935   5.219   2.830   1.412
   23DLPC   C12  936   5.195   2.801   1.549
   23DLPC   C13  937   5.163   2.652   1.574
   23DLPC  OS14  938   5.123   2.625   1.712
   23DLPC   C15  939   5.038   2.522   1.733
   23DLPC   O16  940   4.961   2.482   1.645
   23DLPC   C17  941   5.037   2.483   1.880
   23DLPC   C18  942   4.956   2.356   1.906
   23DLPC   C19  943   4.815   2.386   1.958
   23DLPC   C20  944   4.821   2.434   2.103
   23DLPC   C21  945   4.681   2.451   2.162
   23DLPC   C22  946   4.687   2.503   2.306
   23DLPC   C23  947   4.750   2.642   2.311
   23DLPC   C24  948   4.760   2.691   2.456
   23DLPC   C25  949   4.836   2.824   2.465
   23DLPC   C26  950   4.851   2.869   2.610
   23DLPC   C27  951   4.929   3.000   2.620
   23DLPC   C28  952   5.288   2.574   1.528
   23DLPC  OS29  953   5.408   2.604   1.602
   23DLPC   C30  954   5.439   2.518   1.704
   23DLPC   O31  955   5.400   2.401   1.709
   23DLPC   C32  956   5.547   2.577   1.792
   23DLPC   C33  957   5.532   2.527   1.936
   23DLPC   C34  958   5.640   2.585   2.027
   23DLPC   C35  959   5.621   2.533   2.170
   23DLPC   C36  960   0.026   2.585   2.263
   23DLPC   C37  961   0.010   2.524   2.403
   23DLPC   C38  962   0.129   2.561   2.491
   23DLPC   C39  963   0.120   2.494   2.628
   23DLPC   C40  964   0.248   2.516   2.708
   23DLPC   C41  965   0.240   2.450   2.845
   23DLPC   C42  966   0.229   2.298   2.832
   24DLPC    C1  967   1.645   4.917   1.535
   24DLPC    C2  968   1.608   4.942   1.768
   24DLPC    C3  969   1.779   4.796   1.687
   24DLPC    N4  970   1.711   4.924   1.666
   24DLPC    C5  971   1.806   5.039   1.663
   24DLPC    C6  972   1.909   5.055   1.778
   24DLPC   OS7  973   1.854   5.077   1.908
   24DLPC    P8  974   1.961   5.053   2.021
   24DLPC   OM9  975   2.094   5.081   1.965
   24DLPC  OM10  976   1.912   5.133   2.134
   24DLPC  OS11  977   1.933   4.900   2.040
   24DLPC   C12  978   1.834   4.874   2.140
   24DLPC   C13  979   1.777   4.731   2.139
   24DLPC  OS14  980   1.650   4.721   2.210
   24DLPC   C15  981   1.569   4.616   2.180
   24DLPC   O16  982   1.597   4.531   2.095
   24DLPC   C17  983   1.442   4.618   2.264
   24DLPC   C18  984   1.474   4.585   2.410
   24DLPC   C19  985   1.512   4.438   2.427
   24DLPC   C20  986   1.547   4.406   2.572
   24DLPC   C21  987   1.423   4.416   2.662
   24DLPC   C22  988   1.459   4.383   2.807
   24DLPC   C23  989   1.336   4.399   2.898
   24DLPC   C24  990   1.372   4.371   3.044
   24DLPC   C25  991   1.250   4.395   3.134
   24DLPC   C26  992   1.209   4.543   3.129
   24DLPC   C27  993   1.091   4.571   3.222
   24DLPC   C28  994   1.890   4.635   2.183
   24DLPC  OS29  995   1.949   4.653   2.313
   24DLPC   C30  996   2.046   4.564   2.346
   24DLPC   O31  997   2.086   4.473   2.272
   24DLPC   C32  998   2.099   4.590   2.486
   24DLPC   C33  999   1.985   4.629   2.581
   24DLPC   C34 1000   2.034   4.645   2.726
   24DLPC   C35 1001   2.132   4.761   2.742
   24DLPC   C36 1002   2.170   4.780   2.889
   24DLPC   C37 1003   2.275   4.890   2.907
   24DLPC   C38 1004   2.219   5.028   2.870
   24DLPC   C39 1005   2.321   5.137   2.901
   24DLPC   C40 1006   2.266   5.276   2.868
   24DLPC   C41 1007   2.260   5.300   2.717
   24DLPC   C42 1008   2.401   5.313   2.658
   25DLPC    C1 1009   1.551   3.221   1.777
   25DLPC    C2 1010   1.352   3.111   1.704
   25DLPC    C3 1011   1.558   3.057   1.605
   25DLPC    N4 1012   1.480   3.167   1.661
   25DLPC    C5 1013   1.462   3.268   1.554
   25DLPC    C6 1014   1.381   3.397   1.579
   25DLPC   OS7 1015   1.445   3.497   1.659
   25DLPC    P8 1016   1.355   3.624   1.679
   25DLPC   OM9 1017   1.440   3.731   1.734
   25DLPC  OM10 1018   1.286   3.646   1.550
   25DLPC  OS11 1019   1.259   3.568   1.789
   25DLPC   C12 1020   1.326   3.561   1.915
   25DLPC   C13 1021   1.236   3.511   2.030
   25DLPC  OS14 1022   1.292   3.533   2.162
   25DLPC   C15 1023   1.275   3.655   2.219
   25DLPC   O16 1024   1.214   3.747   2.163
   25DLPC   C17 1025   1.338   3.662   2.357
   25DLPC   C18 1026   1.271   3.562   2.451
   25DLPC   C19 1027   1.330   3.570   2.592
   25DLPC   C20 1028   1.255   3.478   2.688
   25DLPC   C21 1029   1.109   3.524   2.701
   25DLPC   C22 1030   1.034   3.438   2.803
   25DLPC   C23 1031   0.888   3.482   2.813
   25DLPC   C24 1032   0.878   3.626   2.865
   25DLPC   C25 1033   0.732   3.669   2.878
   25DLPC   C26 1034   0.723   3.815   2.923
   25DLPC   C27 1035   0.773   3.909   2.813
   25DLPC   C28 1036   1.199   3.365   2.000
   25DLPC  OS29 1037   1.308   3.271   1.985
   25DLPC   C30 1038   1.309   3.167   2.074
   25DLPC   O31 1039   1.380   3.068   2.055
   25DLPC   C32 1040   1.204   3.180   2.183
   25DLPC   C33 1041   1.238   3.089   2.301
   25DLPC   C34 1042   1.145   3.116   2.420
   25DLPC   C35 1043   1.185   3.026   2.537
   25DLPC   C36 1044   1.103   3.058   2.663
   25DLPC   C37 1045   0.956   3.019   2.646
   25DLPC   C38 1046   0.880   3.046   2.776
   25DLPC   C39 1047   0.932   2.956   2.888
   25DLPC   C40 1048   0.864   2.988   3.021
   25DLPC   C41 1049   0.714   2.956   3.016
   25DLPC   C42 1050   0.648   2.990   3.149
   26DLPC    C1 1051   2.499   4.539   1.452
   26DLPC    C2 1052   2.318   4.439   1.336
   26DLPC    C3 1053   2.313   4.673   1.378
   26DLPC    N4 1054   2.354   4.543   1.433
   26DLPC    C5 1055   2.283   4.513   1.560
   26DLPC    C6 1056   2.299   4.611   1.678
   26DLPC   OS7 1057   2.216   4.578   1.788
   26DLPC    P8 1058   2.122   4.696   1.832
   26DLPC   OM9 1059   2.090   4.774   1.712
   26DLPC  OM10 1060   2.017   4.625   1.905
   26DLPC  OS11 1061   2.222   4.778   1.920
   26DLPC   C12 1062   2.239   4.721   2.048
   26DLPC   C13 1063   2.356   4.782   2.127
   26DLPC  OS14 1064   2.409   4.692   2.228
   26DLPC   C15 1065   2.505   4.604   2.188
   26DLPC   O16 1066   2.540   4.593   2.071
   26DLPC   C17 1067   2.545   4.511   2.302
   26DLPC   C18 1068   2.691   4.527   2.342
   26DLPC   C19 1069   2.735   4.409   2.429
   26DLPC   C20 1070   2.880   4.425   2.475
   26DLPC   C21 1071   2.937   4.291   2.526
   26DLPC   C22 1072   2.877   4.245   2.658
   26DLPC   C23 1073   2.927   4.328   2.777
   26DLPC   C24 1074   2.892   4.260   2.909
   26DLPC   C25 1075   2.941   4.340   3.029
   26DLPC   C26 1076   2.923   4.261   3.159
   26DLPC   C27 1077   2.776   4.233   3.188
   26DLPC   C28 1078   2.311   4.921   2.175
   26DLPC  OS29 1079   2.197   4.919   2.263
   26DLPC   C30 1080   2.184   5.023   2.349
   26DLPC   O31 1081   2.262   5.119   2.357
   26DLPC   C32 1082   2.062   5.001   2.437
   26DLPC   C33 1083   1.992   5.131   2.476
   26DLPC   C34 1084   1.860   5.097   2.545
   26DLPC   C35 1085   1.783   5.222   2.587
   26DLPC   C36 1086   1.849   5.293   2.705
   26DLPC   C37 1087   1.759   5.407   2.753
   26DLPC   C38 1088   1.628   5.352   2.808
   26DLPC   C39 1089   1.530   5.465   2.842
   26DLPC   C40 1090   1.395   5.407   2.884
   26DLPC   C41 1091   1.291   5.517   2.903
   26DLPC   C42 1092   1.154   5.458   2.937
   27DLPC    C1 1093   3.552   3.511   1.485
   27DLPC    C2 1094   3.497   3.309   1.599
   27DLPC    C3 1095   3.696   3.322   1.477
   27DLPC    N4 1096   3.556   3.365   1.477
   27DLPC    C5 1097   3.487   3.309   1.358
   27DLPC    C6 1098   3.348   3.364   1.318
   27DLPC   OS7 1099   3.247   3.353   1.418
   27DLPC    P8 1100   3.122   3.438   1.377
   27DLPC   OM9 1101   3.170   3.577   1.366
   27DLPC  OM10 1102   3.060   3.363   1.267
   27DLPC  OS11 1103   3.034   3.424   1.506
   27DLPC   C12 1104   3.094   3.485   1.621
   27DLPC   C13 1105   2.994   3.548   1.720
   27DLPC  OS14 1106   3.057   3.602   1.840
   27DLPC   C15 1107   3.050   3.737   1.855
   27DLPC   O16 1108   3.023   3.813   1.761
   27DLPC   C17 1109   3.102   3.784   1.990
   27DLPC   C18 1110   3.071   3.683   2.101
   27DLPC   C19 1111   3.085   3.748   2.239
   27DLPC   C20 1112   3.069   3.645   2.351
   27DLPC   C21 1113   3.056   3.713   2.488
   27DLPC   C22 1114   3.182   3.792   2.522
   27DLPC   C23 1115   3.169   3.863   2.657
   27DLPC   C24 1116   3.184   3.764   2.773
   27DLPC   C25 1117   3.329   3.717   2.787
   27DLPC   C26 1118   3.345   3.621   2.905
   27DLPC   C27 1119   3.323   3.692   3.038
   27DLPC   C28 1120   2.881   3.446   1.748
   27DLPC  OS29 1121   2.922   3.309   1.776
   27DLPC   C30 1122   2.890   3.262   1.900
   27DLPC   O31 1123   2.926   3.149   1.936
   27DLPC   C32 1124   2.809   3.359   1.984
   27DLPC   C33 1125   2.835   3.333   2.132
   27DLPC   C34 1126   2.774   3.441   2.221
   27DLPC   C35 1127   2.622   3.430   2.233
   27DLPC   C36 1128   2.569   3.543   2.321
   27DLPC   C37 1129   2.627   3.533   2.462
   27DLPC   C38 1130   2.579   3.648   2.551
   27DLPC   C39 1131   2.641   3.640   2.690
   27DLPC   C40 1132   2.591   3.753   2.780
   27DLPC   C41 1133   2.642   3.889   2.733
   27DLPC   C42 1134   2.590   4.001   2.823
   28DLPC    C1 1135   2.749   4.044   1.372
   28DLPC    C2 1136   2.699   4.022   1.141
   28DLPC    C3 1137   2.554   4.148   1.281
   28DLPC    N4 1138   2.639   4.028   1.275
   28DLPC    C5 1139   2.561   3.904   1.298
   28DLPC    C6 1140   2.478   3.886   1.427
   28DLPC   OS7 1141   2.403   3.765   1.426
   28DLPC    P8 1142   2.282   3.760   1.525
   28DLPC   OM9 1143   2.182   3.673   1.460
   28DLPC  OM10 1144   2.251   3.897   1.569
   28DLPC  OS11 1145   2.347   3.677   1.641
   28DLPC   C12 1146   2.269   3.690   1.760
   28DLPC   C13 1147   2.307   3.595   1.875
   28DLPC  OS14 1148   2.225   3.612   1.995
   28DLPC   C15 1149   2.218   3.505   2.080
   28DLPC   O16 1150   2.257   3.392   2.049
   28DLPC   C17 1151   2.142   3.541   2.206
   28DLPC   C18 1152   2.103   3.418   2.288
   28DLPC   C19 1153   2.216   3.371   2.381
   28DLPC   C20 1154   2.177   3.241   2.451
   28DLPC   C21 1155   2.286   3.198   2.549
   28DLPC   C22 1156   2.257   3.058   2.604
   28DLPC   C23 1157   2.364   3.016   2.705
   28DLPC   C24 1158   2.350   2.869   2.743
   28DLPC   C25 1159   2.457   2.826   2.843
   28DLPC   C26 1160   2.433   2.894   2.979
   28DLPC   C27 1161   2.536   2.848   3.082
   28DLPC   C28 1162   2.459   3.615   1.897
   28DLPC  OS29 1163   2.500   3.746   1.941
   28DLPC   C30 1164   2.635   3.761   1.953
   28DLPC   O31 1165   2.716   3.676   1.916
   28DLPC   C32 1166   2.671   3.893   2.017
   28DLPC   C33 1167   2.584   3.919   2.140
   28DLPC   C34 1168   2.642   4.029   2.228
   28DLPC   C35 1169   2.548   4.059   2.345
   28DLPC   C36 1170   2.423   4.132   2.296
   28DLPC   C37 1171   2.327   4.165   2.410
   28DLPC   C38 1172   2.253   4.040   2.458
   28DLPC   C39 1173   2.153   4.074   2.569
   28DLPC   C40 1174   2.039   4.163   2.516
   28DLPC   C41 1175   1.949   4.086   2.419
   28DLPC   C42 1176   1.839   4.177   2.364
   29DLPC    C1 1177   3.863   3.596   0.877
   29DLPC    C2 1178   3.868   3.728   0.679
   29DLPC    C3 1179   3.687   3.749   0.836
   29DLPC    N4 1180   3.832   3.728   0.822
   29DLPC    C5 1181   3.910   3.829   0.898
   29DLPC    C6 1182   3.903   3.979   0.861
   29DLPC   OS7 1183   3.775   4.041   0.876
   29DLPC    P8 1184   3.786   4.191   0.924
   29DLPC   OM9 1185   3.888   4.254   0.838
   29DLPC  OM10 1186   3.648   4.241   0.931
   29DLPC  OS11 1187   3.847   4.171   1.067
   29DLPC   C12 1188   3.749   4.143   1.167
   29DLPC   C13 1189   3.809   4.110   1.305
   29DLPC  OS14 1190   3.706   4.079   1.403
   29DLPC   C15 1191   3.721   3.963   1.472
   29DLPC   O16 1192   3.778   3.865   1.424
   29DLPC   C17 1193   3.624   3.956   1.589
   29DLPC   C18 1194   3.691   3.994   1.721
   29DLPC   C19 1195   3.712   4.145   1.731
   29DLPC   C20 1196   3.774   4.186   1.864
   29DLPC   C21 1197   3.684   4.147   1.981
   29DLPC   C22 1198   3.737   4.206   2.112
   29DLPC   C23 1199   3.697   4.353   2.127
   29DLPC   C24 1200   3.762   4.414   2.251
   29DLPC   C25 1201   3.719   4.341   2.378
   29DLPC   C26 1202   3.790   4.400   2.501
   29DLPC   C27 1203   3.759   4.319   2.627
   29DLPC   C28 1204   3.894   4.233   1.341
   29DLPC  OS29 1205   3.981   4.226   1.456
   29DLPC   C30 1206   4.111   4.196   1.432
   29DLPC   O31 1207   4.151   4.143   1.328
   29DLPC   C32 1208   4.193   4.214   1.559
   29DLPC   C33 1209   4.343   4.208   1.528
   29DLPC   C34 1210   4.426   4.238   1.653
   29DLPC   C35 1211   4.408   4.129   1.758
   29DLPC   C36 1212   4.507   4.147   1.874
   29DLPC   C37 1213   4.496   4.031   1.973
   29DLPC   C38 1214   4.618   4.027   2.065
   29DLPC   C39 1215   4.627   3.894   2.140
   29DLPC   C40 1216   4.763   3.880   2.208
   29DLPC   C41 1217   4.778   3.743   2.273
   29DLPC   C42 1218   4.916   3.728   2.337
   30DLPC    C1 1219   2.821   3.170   1.485
   30DLPC    C2 1220   2.844   3.021   1.302
   30DLPC    C3 1221   2.856   2.935   1.523
   30DLPC    N4 1222   2.891   3.049   1.438
   30DLPC    C5 1223   3.037   3.072   1.434
   30DLPC    C6 1224   3.115   3.098   1.565
   30DLPC   OS7 1225   3.148   2.981   1.641
   30DLPC    P8 1226   3.303   2.952   1.633
   30DLPC   OM9 1227   3.320   2.817   1.688
   30DLPC  OM10 1228   3.349   2.982   1.497
   30DLPC  OS11 1229   3.352   3.063   1.732
   30DLPC   C12 1230   3.389   3.012   1.860
   30DLPC   C13 1231   3.447   3.118   1.954
   30DLPC  OS14 1232   3.503   3.053   2.072
   30DLPC   C15 1233   3.637   3.066   2.095
   30DLPC   O16 1234   3.716   3.119   2.016
   30DLPC   C17 1235   3.676   2.986   2.218
   30DLPC   C18 1236   3.666   2.837   2.188
   30DLPC   C19 1237   3.680   2.753   2.315
   30DLPC   C20 1238   3.562   2.777   2.408
   30DLPC   C21 1239   3.570   2.691   2.534
   30DLPC   C22 1240   3.451   2.721   2.625
   30DLPC   C23 1241   3.458   2.867   2.670
   30DLPC   C24 1242   3.341   2.905   2.761
   30DLPC   C25 1243   3.354   3.052   2.803
   30DLPC   C26 1244   3.239   3.095   2.893
   30DLPC   C27 1245   3.253   3.243   2.930
   30DLPC   C28 1246   3.334   3.219   1.981
   30DLPC  OS29 1247   3.370   3.339   2.053
   30DLPC   C30 1248   3.414   3.445   1.980
   30DLPC   O31 1249   3.412   3.452   1.857
   30DLPC   C32 1250   3.457   3.558   2.072
   30DLPC   C33 1251   3.582   3.629   2.020
   30DLPC   C34 1252   3.705   3.539   2.033
   30DLPC   C35 1253   3.738   3.511   2.180
   30DLPC   C36 1254   3.846   3.403   2.192
   30DLPC   C37 1255   3.870   3.365   2.338
   30DLPC   C38 1256   3.965   3.245   2.347
   30DLPC   C39 1257   3.993   3.208   2.493
   30DLPC   C40 1258   3.869   3.152   2.563
   30DLPC   C41 1259   3.902   3.114   2.707
   30DLPC   C42 1260   3.779   3.059   2.779
   31DLPC    C1 1261   0.900   4.133   1.689
   31DLPC    C2 1262   1.004   4.178   1.898
   31DLPC    C3 1263   0.801   4.291   1.836
   31DLPC    N4 1264   0.930   4.238   1.787
   31DLPC    C5 1265   1.010   4.342   1.717
   31DLPC    C6 1266   1.063   4.464   1.796
   31DLPC   OS7 1267   0.962   4.553   1.843
   31DLPC    P8 1268   1.003   4.619   1.979
   31DLPC   OM9 1269   1.148   4.616   2.000
   31DLPC  OM10 1270   0.926   4.743   1.993
   31DLPC  OS11 1271   0.938   4.508   2.069
   31DLPC   C12 1272   0.960   4.538   2.206
   31DLPC   C13 1273   0.845   4.489   2.296
   31DLPC  OS14 1274   0.853   4.541   2.431
   31DLPC   C15 1275   0.736   4.583   2.486
   31DLPC   O16 1276   0.629   4.582   2.423
   31DLPC   C17 1277   0.755   4.629   2.629
   31DLPC   C18 1278   0.684   4.763   2.653
   31DLPC   C19 1279   0.692   4.803   2.800
   31DLPC   C20 1280   0.604   4.713   2.887
   31DLPC   C21 1281   0.611   4.757   3.034
   31DLPC   C22 1282   0.559   4.900   3.049
   31DLPC   C23 1283   0.569   4.947   3.193
   31DLPC   C24 1284   0.532   5.095   3.203
   31DLPC   C25 1285   0.542   5.147   3.346
   31DLPC   C26 1286   0.503   5.295   3.352
   31DLPC   C27 1287   0.511   5.351   3.493
   31DLPC   C28 1288   0.838   4.336   2.282
   31DLPC  OS29 1289   0.956   4.262   2.322
   31DLPC   C30 1290   0.936   4.128   2.337
   31DLPC   O31 1291   0.839   4.068   2.291
   31DLPC   C32 1292   1.058   4.061   2.398
   31DLPC   C33 1293   1.057   4.072   2.551
   31DLPC   C34 1294   1.176   3.998   2.612
   31DLPC   C35 1295   1.172   4.006   2.765
   31DLPC   C36 1296   1.288   3.928   2.828
   31DLPC   C37 1297   1.280   3.934   2.981
   31DLPC   C38 1298   1.392   3.851   3.044
   31DLPC   C39 1299   1.382   3.852   3.196
   31DLPC   C40 1300   1.489   3.762   3.259
   31DLPC   C41 1301   1.468   3.617   3.217
   31DLPC   C42 1302   1.570   3.524   3.284
   32DLPC    C1 1303   0.742   0.061   1.560
   32DLPC    C2 1304   0.703   0.193   1.756
   32DLPC    C3 1305   0.771   5.623   1.780
   32DLPC    N4 1306   0.690   0.059   1.697
   32DLPC    C5 1307   0.547   0.025   1.700
   32DLPC    C6 1308   0.499   5.537   1.665
   32DLPC   OS7 1309   0.530   5.436   1.761
   32DLPC    P8 1310   0.414   5.334   1.783
   32DLPC   OM9 1311   0.293   5.381   1.714
   32DLPC  OM10 1312   0.471   5.204   1.743
   32DLPC  OS11 1313   0.397   5.342   1.938
   32DLPC   C12 1314   0.497   5.273   2.012
   32DLPC   C13 1315   0.470   5.277   2.164
   32DLPC  OS14 1316   0.564   5.201   2.247
   32DLPC   C15 1317   0.671   5.270   2.295
   32DLPC   O16 1318   0.743   5.338   2.221
   32DLPC   C17 1319   0.718   5.205   2.424
   32DLPC   C18 1320   0.639   5.265   2.540
   32DLPC   C19 1321   0.681   5.212   2.677
   32DLPC   C20 1322   0.610   5.293   2.785
   32DLPC   C21 1323   0.658   5.438   2.778
   32DLPC   C22 1324   0.580   5.531   2.870
   32DLPC   C23 1325   0.605   5.499   3.017
   32DLPC   C24 1326   0.537   5.603   3.107
   32DLPC   C25 1327   0.385   5.600   3.092
   32DLPC   C26 1328   0.321   0.051   3.182
   32DLPC   C27 1329   0.168   0.049   3.167
   32DLPC   C28 1330   0.325   5.228   2.179
   32DLPC  OS29 1331   0.265   5.248   2.309
   32DLPC   C30 1332   0.130   5.240   2.314
   32DLPC   O31 1333   0.058   5.214   2.217
   32DLPC   C32 1334   0.082   5.267   2.456
   32DLPC   C33 1335   5.677   5.170   2.500
   32DLPC   C34 1336   5.655   5.182   2.651
   32DLPC   C35 1337   5.552   5.081   2.701
   32DLPC   C36 1338   5.550   5.081   2.854
   32DLPC   C37 1339   5.447   4.982   2.910
   32DLPC   C38 1340   5.464   4.972   3.062
   32DLPC   C39 1341   5.361   4.876   3.124
   32DLPC   C40 1342   5.394   4.850   3.271
   32DLPC   C41 1343   5.383   4.979   3.354
   32DLPC   C42 1344   5.422   4.952   3.500
   33DLPC    C1 1345   5.082   3.410   1.466
   33DLPC    C2 1346   4.993   3.451   1.684
   33DLPC    C3 1347   5.082   3.238   1.630
   33DLPC    N4 1348   5.099   3.382   1.610
   33DLPC    C5 1349   5.234   3.418   1.659
   33DLPC    C6 1350   5.285   3.563   1.643
   33DLPC   OS7 1351   5.405   3.590   1.716
   33DLPC    P8 1352   5.443   3.742   1.712
   33DLPC   OM9 1353   5.574   3.761   1.776
   33DLPC  OM10 1354   5.421   3.790   1.575
   33DLPC  OS11 1355   5.326   3.794   1.802
   33DLPC   C12 1356   5.364   3.813   1.939
   33DLPC   C13 1357   5.243   3.818   2.033
   33DLPC  OS14 1358   5.269   3.883   2.160
   33DLPC   C15 1359   5.219   4.009   2.173
   33DLPC   O16 1360   5.160   4.066   2.080
   33DLPC   C17 1361   5.252   4.069   2.309
   33DLPC   C18 1362   5.206   3.978   2.423
   33DLPC   C19 1363   5.238   4.039   2.560
   33DLPC   C20 1364   5.187   3.948   2.672
   33DLPC   C21 1365   5.218   4.005   2.811
   33DLPC   C22 1366   5.165   3.912   2.920
   33DLPC   C23 1367   5.198   3.964   3.061
   33DLPC   C24 1368   5.118   4.089   3.096
   33DLPC   C25 1369   5.150   4.135   3.239
   33DLPC   C26 1370   5.070   4.259   3.277
   33DLPC   C27 1371   5.099   4.302   3.421
   33DLPC   C28 1372   5.185   3.675   2.039
   33DLPC  OS29 1373   5.276   3.570   2.076
   33DLPC   C30 1374   5.224   3.445   2.084
   33DLPC   O31 1375   5.121   3.408   2.026
   33DLPC   C32 1376   5.327   3.350   2.144
   33DLPC   C33 1377   5.273   3.283   2.270
   33DLPC   C34 1378   5.257   3.385   2.382
   33DLPC   C35 1379   5.208   3.321   2.512
   33DLPC   C36 1380   5.191   3.429   2.620
   33DLPC   C37 1381   5.150   3.369   2.754
   33DLPC   C38 1382   5.134   3.479   2.859
   33DLPC   C39 1383   5.097   3.422   2.996
   33DLPC   C40 1384   5.212   3.341   3.055
   33DLPC   C41 1385   5.175   3.286   3.192
   33DLPC   C42 1386   5.288   3.200   3.249
   34DLPC    C1 1387   2.722   0.223   1.258
   34DLPC    C2 1388   2.571   0.070   1.362
   34DLPC    C3 1389   2.514   0.298   1.344
   34DLPC    N4 1390   2.625   0.206   1.367
   34DLPC    C5 1391   2.683   0.239   1.500
   34DLPC    C6 1392   2.805   0.161   1.552
   34DLPC   OS7 1393   2.781   0.023   1.578
   34DLPC    P8 1394   2.914   5.596   1.570
   34DLPC   OM9 1395   2.922   5.551   1.431
   34DLPC  OM10 1396   3.023   0.019   1.630
   34DLPC  OS11 1397   2.876   5.472   1.656
   34DLPC   C12 1398   2.892   5.495   1.795
   34DLPC   C13 1399   2.897   5.366   1.879
   34DLPC  OS14 1400   2.891   5.389   2.022
   34DLPC   C15 1401   2.772   5.364   2.084
   34DLPC   O16 1402   2.672   5.325   2.023
   34DLPC   C17 1403   2.781   5.393   2.233
   34DLPC   C18 1404   2.674   5.318   2.313
   34DLPC   C19 1405   2.704   5.168   2.317
   34DLPC   C20 1406   2.614   5.097   2.418
   34DLPC   C21 1407   2.641   4.946   2.419
   34DLPC   C22 1408   2.559   4.877   2.528
   34DLPC   C23 1409   2.619   4.900   2.667
   34DLPC   C24 1410   2.751   4.824   2.681
   34DLPC   C25 1411   2.811   4.844   2.821
   34DLPC   C26 1412   2.941   4.766   2.837
   34DLPC   C27 1413   2.998   4.783   2.977
   34DLPC   C28 1414   3.018   5.285   1.829
   34DLPC  OS29 1415   3.143   5.356   1.822
   34DLPC   C30 1416   3.255   5.280   1.806
   34DLPC   O31 1417   3.254   5.158   1.785
   34DLPC   C32 1418   3.379   5.368   1.806
   34DLPC   C33 1419   3.378   5.466   1.924
   34DLPC   C34 1420   3.402   5.393   2.056
   34DLPC   C35 1421   3.396   5.491   2.174
   34DLPC   C36 1422   3.412   5.417   2.307
   34DLPC   C37 1423   3.405   5.514   2.425
   34DLPC   C38 1424   3.416   5.439   2.558
   34DLPC   C39 1425   3.413   5.537   2.675
   34DLPC   C40 1426   3.417   5.463   2.809
   34DLPC   C41 1427   3.286   5.387   2.832
   34DLPC   C42 1428   3.285   5.316   2.967
   35DLPC    C1 1429   1.903   3.795   1.405
   35DLPC    C2 1430   1.686   3.880   1.458
   35DLPC    C3 1431   1.727   3.778   1.247
   35DLPC    N4 1432   1.759   3.772   1.391
   35DLPC    C5 1433   1.719   3.639   1.441
   35DLPC    C6 1434   1.726   3.608   1.593
   35DLPC   OS7 1435   1.855   3.591   1.653
   35DLPC    P8 1436   1.868   3.447   1.716
   35DLPC   OM9 1437   1.805   3.351   1.625
   35DLPC  OM10 1438   2.003   3.425   1.766
   35DLPC  OS11 1439   1.769   3.462   1.838
   35DLPC   C12 1440   1.830   3.514   1.956
   35DLPC   C13 1441   1.738   3.517   2.079
   35DLPC  OS14 1442   1.805   3.564   2.199
   35DLPC   C15 1443   1.759   3.678   2.258
   35DLPC   O16 1444   1.711   3.771   2.192
   35DLPC   C17 1445   1.827   3.696   2.393
   35DLPC   C18 1446   1.726   3.722   2.505
   35DLPC   C19 1447   1.798   3.735   2.639
   35DLPC   C20 1448   1.699   3.754   2.755
   35DLPC   C21 1449   1.773   3.764   2.888
   35DLPC   C22 1450   1.851   3.895   2.898
   35DLPC   C23 1451   1.933   3.900   3.028
   35DLPC   C24 1452   1.842   3.896   3.150
   35DLPC   C25 1453   1.921   3.904   3.281
   35DLPC   C26 1454   2.008   3.779   3.302
   35DLPC   C27 1455   1.923   3.656   3.332
   35DLPC   C28 1456   1.683   3.373   2.091
   35DLPC  OS29 1457   1.614   3.335   2.211
   35DLPC   C30 1458   1.683   3.247   2.288
   35DLPC   O31 1459   1.772   3.174   2.244
   35DLPC   C32 1460   1.614   3.228   2.422
   35DLPC   C33 1461   1.719   3.210   2.532
   35DLPC   C34 1462   1.655   3.193   2.670
   35DLPC   C35 1463   1.763   3.184   2.777
   35DLPC   C36 1464   1.839   3.317   2.786
   35DLPC   C37 1465   1.953   3.310   2.887
   35DLPC   C38 1466   2.026   3.445   2.894
   35DLPC   C39 1467   2.143   3.440   2.992
   35DLPC   C40 1468   2.213   3.575   2.999
   35DLPC   C41 1469   2.334   3.569   3.092
   35DLPC   C42 1470   2.442   3.477   3.034
   36DLPC    C1 1471   1.557   0.787   1.639
   36DLPC    C2 1472   1.477   0.563   1.660
   36DLPC    C3 1473   1.657   0.640   1.796
   36DLPC    N4 1474   1.597   0.647   1.663
   36DLPC    C5 1475   1.695   0.608   1.558
   36DLPC    C6 1476   1.756   0.466   1.561
   36DLPC   OS7 1477   1.866   0.450   1.471
   36DLPC    P8 1478   1.965   0.339   1.522
   36DLPC   OM9 1479   2.067   0.321   1.417
   36DLPC  OM10 1480   1.893   0.224   1.577
   36DLPC  OS11 1481   2.030   0.423   1.639
   36DLPC   C12 1482   2.082   0.340   1.743
   36DLPC   C13 1483   2.118   0.416   1.872
   36DLPC  OS14 1484   2.186   0.333   1.970
   36DLPC   C15 1485   2.292   0.391   2.033
   36DLPC   O16 1486   2.366   0.471   1.975
   36DLPC   C17 1487   2.330   0.309   2.156
   36DLPC   C18 1488   2.418   0.190   2.119
   36DLPC   C19 1489   2.416   0.082   2.228
   36DLPC   C20 1490   2.488   0.126   2.356
   36DLPC   C21 1491   2.478   0.015   2.461
   36DLPC   C22 1492   2.555   0.048   2.589
   36DLPC   C23 1493   2.492   0.165   2.665
   36DLPC   C24 1494   2.563   0.187   2.798
   36DLPC   C25 1495   2.511   0.311   2.871
   36DLPC   C26 1496   2.364   0.297   2.911
   36DLPC   C27 1497   2.316   0.422   2.984
   36DLPC   C28 1498   1.983   0.472   1.922
   36DLPC  OS29 1499   1.983   0.580   2.017
   36DLPC   C30 1500   1.982   0.707   1.965
   36DLPC   O31 1501   1.969   0.730   1.845
   36DLPC   C32 1502   1.969   0.810   2.076
   36DLPC   C33 1503   2.104   0.871   2.116
   36DLPC   C34 1504   2.184   0.777   2.206
   36DLPC   C35 1505   2.314   0.845   2.249
   36DLPC   C36 1506   2.283   0.976   2.320
   36DLPC   C37 1507   2.408   1.038   2.382
   36DLPC   C38 1508   2.451   0.958   2.505
   36DLPC   C39 1509   2.573   1.022   2.573
   36DLPC   C40 1510   2.606   0.948   2.702
   36DLPC   C41 1511   2.495   0.965   2.805
   36DLPC   C42 1512   2.527   0.889   2.934
   37DLPC    C1 1513   1.453   2.531   1.529
   37DLPC    C2 1514   1.243   2.503   1.417
   37DLPC    C3 1515   1.442   2.411   1.327
   37DLPC    N4 1516   1.387   2.527   1.398
   37DLPC    C5 1517   1.416   2.648   1.317
   37DLPC    C6 1518   1.365   2.788   1.359
   37DLPC   OS7 1519   1.225   2.810   1.341
   37DLPC    P8 1520   1.176   2.954   1.383
   37DLPC   OM9 1521   1.290   3.048   1.375
   37DLPC  OM10 1522   1.048   2.978   1.316
   37DLPC  OS11 1523   1.152   2.927   1.536
   37DLPC   C12 1524   1.028   2.863   1.561
   37DLPC   C13 1525   1.001   2.840   1.710
   37DLPC  OS14 1526   0.899   2.739   1.733
   37DLPC   C15 1527   0.948   2.621   1.782
   37DLPC   O16 1528   1.067   2.591   1.772
   37DLPC   C17 1529   0.835   2.529   1.825
   37DLPC   C18 1530   0.885   2.410   1.907
   37DLPC   C19 1531   0.765   2.331   1.960
   37DLPC   C20 1532   0.807   2.207   2.039
   37DLPC   C21 1533   0.883   2.246   2.166
   37DLPC   C22 1534   0.904   2.123   2.255
   37DLPC   C23 1535   0.995   2.154   2.374
   37DLPC   C24 1536   1.139   2.174   2.327
   37DLPC   C25 1537   1.233   2.196   2.445
   37DLPC   C26 1538   1.378   2.209   2.398
   37DLPC   C27 1539   1.473   2.228   2.516
   37DLPC   C28 1540   0.977   2.978   1.774
   37DLPC  OS29 1541   0.962   2.980   1.918
   37DLPC   C30 1542   0.837   2.971   1.970
   37DLPC   O31 1543   0.732   2.978   1.904
   37DLPC   C32 1544   0.842   2.963   2.121
   37DLPC   C33 1545   0.702   2.942   2.178
   37DLPC   C34 1546   0.703   2.931   2.331
   37DLPC   C35 1547   0.560   2.923   2.385
   37DLPC   C36 1548   0.558   2.910   2.537
   37DLPC   C37 1549   0.415   2.916   2.590
   37DLPC   C38 1550   0.412   2.901   2.743
   37DLPC   C39 1551   0.269   2.917   2.796
   37DLPC   C40 1552   0.265   2.898   2.948
   37DLPC   C41 1553   0.125   2.921   3.003
   37DLPC   C42 1554   0.027   2.815   2.952
   38DLPC    C1 1555   3.870   4.879   1.304
   38DLPC    C2 1556   4.080   4.982   1.258
   38DLPC    C3 1557   4.006   4.961   1.482
   38DLPC    N4 1558   3.962   4.987   1.345
   38DLPC    C5 1559   3.900   5.121   1.330
   38DLPC    C6 1560   3.775   5.161   1.411
   38DLPC   OS7 1561   3.797   5.174   1.551
   38DLPC    P8 1562   3.667   5.217   1.628
   38DLPC   OM9 1563   3.711   5.251   1.764
   38DLPC  OM10 1564   3.599   5.318   1.545
   38DLPC  OS11 1565   3.591   5.080   1.625
   38DLPC   C12 1566   3.619   5.001   1.740
   38DLPC   C13 1567   3.540   4.869   1.742
   38DLPC  OS14 1568   3.547   4.803   1.871
   38DLPC   C15 1569   3.434   4.743   1.918
   38DLPC   O16 1570   3.330   4.732   1.851
   38DLPC   C17 1571   3.460   4.682   2.054
   38DLPC   C18 1572   3.332   4.675   2.138
   38DLPC   C19 1573   3.361   4.636   2.283
   38DLPC   C20 1574   3.233   4.640   2.365
   38DLPC   C21 1575   3.261   4.606   2.512
   38DLPC   C22 1576   3.307   4.461   2.525
   38DLPC   C23 1577   3.331   4.424   2.672
   38DLPC   C24 1578   3.376   4.279   2.684
   38DLPC   C25 1579   3.405   4.242   2.829
   38DLPC   C26 1580   3.460   4.100   2.841
   38DLPC   C27 1581   3.488   4.065   2.987
   38DLPC   C28 1582   3.592   4.788   1.622
   38DLPC  OS29 1583   3.731   4.748   1.627
   38DLPC   C30 1584   3.755   4.624   1.679
   38DLPC   O31 1585   3.675   4.530   1.669
   38DLPC   C32 1586   3.905   4.606   1.696
   38DLPC   C33 1587   3.940   4.545   1.832
   38DLPC   C34 1588   4.091   4.519   1.841
   38DLPC   C35 1589   4.130   4.463   1.978
   38DLPC   C36 1590   4.111   4.567   2.088
   38DLPC   C37 1591   4.158   4.513   2.223
   38DLPC   C38 1592   4.126   4.612   2.336
   38DLPC   C39 1593   4.172   4.558   2.471
   38DLPC   C40 1594   4.126   4.649   2.585
   38DLPC   C41 1595   4.195   4.785   2.579
   38DLPC   C42 1596   4.148   4.876   2.692
   39DLPC    C1 1597   0.150   3.818   1.620
   39DLPC    C2 1598   0.228   3.859   1.398
   39DLPC    C3 1599   0.033   3.968   1.481
   39DLPC    N4 1600   0.108   3.842   1.481
   39DLPC    C5 1601   0.019   3.735   1.430
   39DLPC    C6 1602   0.073   3.590   1.420
   39DLPC   OS7 1603   5.683   3.497   1.368
   39DLPC    P8 1604   0.031   3.349   1.368
   39DLPC   OM9 1605   5.630   3.267   1.309
   39DLPC  OM10 1606   0.166   3.350   1.308
   39DLPC  OS11 1607   0.041   3.323   1.523
   39DLPC   C12 1608   5.621   3.288   1.581
   39DLPC   C13 1609   5.622   3.262   1.733
   39DLPC  OS14 1610   5.499   3.198   1.776
   39DLPC   C15 1611   5.506   3.067   1.814
   39DLPC   O16 1612   5.612   3.005   1.827
   39DLPC   C17 1613   5.366   3.014   1.835
   39DLPC   C18 1614   5.357   2.893   1.928
   39DLPC   C19 1615   5.362   2.934   2.075
   39DLPC   C20 1616   5.323   2.814   2.162
   39DLPC   C21 1617   5.315   2.851   2.311
   39DLPC   C22 1618   5.268   2.730   2.391
   39DLPC   C23 1619   5.257   2.761   2.540
   39DLPC   C24 1620   5.395   2.785   2.602
   39DLPC   C25 1621   5.382   2.812   2.752
   39DLPC   C26 1622   5.305   2.942   2.776
   39DLPC   C27 1623   5.292   2.969   2.926
   39DLPC   C28 1624   5.646   3.395   1.807
   39DLPC  OS29 1625   0.067   3.460   1.780
   39DLPC   C30 1626   0.109   3.547   1.876
   39DLPC   O31 1627   0.213   3.612   1.862
   39DLPC   C32 1628   0.020   3.547   1.999
   39DLPC   C33 1629   0.100   3.584   2.124
   39DLPC   C34 1630   0.010   3.581   2.248
   39DLPC   C35 1631   5.614   3.696   2.245
   39DLPC   C36 1632   5.521   3.687   2.366
   39DLPC   C37 1633   5.599   3.703   2.496
   39DLPC   C38 1634   5.506   3.688   2.617
   39DLPC   C39 1635   5.584   3.697   2.748
   39DLPC   C40 1636   5.489   3.681   2.867
   39DLPC   C41 1637   5.565   3.691   3.000
   39DLPC   C42 1638   5.467   3.680   3.118
   40DLPC    C1 1639   4.926   4.997   1.166
   40DLPC    C2 1640   5.087   4.823   1.168
   40DLPC    C3 1641   5.032   4.939   1.370
   40DLPC    N4 1642   5.053   4.954   1.226
   40DLPC    C5 1643   5.157   5.055   1.193
   40DLPC    C6 1644   5.304   5.033   1.237
   40DLPC   OS7 1645   5.325   5.035   1.378
   40DLPC    P8 1646   5.471   4.988   1.412
   40DLPC   OM9 1647   5.558   5.090   1.349
   40DLPC  OM10 1648   5.474   4.847   1.372
   40DLPC  OS11 1649   5.457   5.012   1.566
   40DLPC   C12 1650   5.401   4.900   1.633
   40DLPC   C13 1651   5.357   4.927   1.778
   40DLPC  OS14 1652   5.227   4.993   1.792
   40DLPC   C15 1653   5.119   4.911   1.780
   40DLPC   O16 1654   5.126   4.798   1.731
   40DLPC   C17 1655   4.988   4.982   1.809
   40DLPC   C18 1656   4.880   4.879   1.842
   40DLPC   C19 1657   4.894   4.825   1.984
   40DLPC   C20 1658   4.826   4.918   2.085
   40DLPC   C21 1659   4.675   4.908   2.071
   40DLPC   C22 1660   4.600   5.008   2.159
   40DLPC   C23 1661   4.449   4.987   2.145
   40DLPC   C24 1662   4.370   5.098   2.215
   40DLPC   C25 1663   4.390   5.093   2.367
   40DLPC   C26 1664   4.302   5.198   2.435
   40DLPC   C27 1665   4.345   5.339   2.395
   40DLPC   C28 1666   5.478   4.993   1.847
   40DLPC  OS29 1667   5.453   5.072   1.965
   40DLPC   C30 1668   5.451   5.007   2.085
   40DLPC   O31 1669   5.490   4.891   2.103
   40DLPC   C32 1670   5.419   5.108   2.194
   40DLPC   C33 1671   5.345   5.048   2.313
   40DLPC   C34 1672   5.200   5.012   2.278
   40DLPC   C35 1673   5.121   4.982   2.405
   40DLPC   C36 1674   5.189   4.870   2.484
   40DLPC   C37 1675   5.110   4.832   2.609
   40DLPC   C38 1676   5.188   4.729   2.691
   40DLPC   C39 1677   5.109   4.681   2.813
   40DLPC   C40 1678   5.195   4.590   2.900
   40DLPC   C41 1679   5.234   4.462   2.825
   40DLPC   C42 1680   5.326   4.376   2.912
   41DLPC    C1 1681   0.186   0.493   1.865
   41DLPC    C2 1682   5.691   0.607   1.915
   41DLPC    C3 1683   0.004   0.491   1.708
   41DLPC    N4 1684   0.040   0.487   1.850
   41DLPC    C5 1685   5.685   0.370   1.916
   41DLPC    C6 1686   0.024   0.227   1.877
   41DLPC   OS7 1687   0.152   0.190   1.930
   41DLPC    P8 1688   0.200   0.051   1.872
   41DLPC   OM9 1689   0.174   0.062   1.728
   41DLPC  OM10 1690   0.335   0.040   1.924
   41DLPC  OS11 1691   0.097   5.615   1.950
   41DLPC   C12 1692   0.147   5.562   2.073
   41DLPC   C13 1693   0.144   0.001   2.196
   41DLPC  OS14 1694   0.217   5.603   2.310
   41DLPC   C15 1695   0.335   0.009   2.342
   41DLPC   O16 1696   0.387   0.096   2.272
   41DLPC   C17 1697   0.398   5.599   2.465
   41DLPC   C18 1698   0.294   5.578   2.575
   41DLPC   C19 1699   0.253   0.056   2.638
   41DLPC   C20 1700   0.141   0.038   2.741
   41DLPC   C21 1701   0.013   5.643   2.674
   41DLPC   C22 1702   5.599   5.649   2.770
   41DLPC   C23 1703   5.618   5.555   2.889
   41DLPC   C24 1704   5.500   5.567   2.986
   41DLPC   C25 1705   5.495   0.051   3.050
   41DLPC   C26 1706   5.377   0.063   3.147
   41DLPC   C27 1707   5.372   0.202   3.210
   41DLPC   C28 1708   5.701   0.038   2.221
   41DLPC  OS29 1709   5.611   5.586   2.261
   41DLPC   C30 1710   5.485   5.586   2.209
   41DLPC   O31 1711   5.456   5.630   2.098
   41DLPC   C32 1712   5.401   5.484   2.283
   41DLPC   C33 1713   5.373   5.524   2.428
   41DLPC   C34 1714   5.296   5.411   2.498
   41DLPC   C35 1715   5.273   5.440   2.647
   41DLPC   C36 1716   5.213   5.316   2.714
   41DLPC   C37 1717   5.201   5.333   2.866
   41DLPC   C38 1718   5.087   5.427   2.904
   41DLPC   C39 1719   5.073   5.433   3.057
   41DLPC   C40 1720   4.944   5.503   3.099
   41DLPC   C41 1721   4.929   5.498   3.251
   41DLPC   C42 1722   4.793   5.552   3.296
   42DLPC    C1 1723   4.894   0.719   1.731
   42DLPC    C2 1724   4.772   0.577   1.586
   42DLPC    C3 1725   4.892   0.482   1.769
   42DLPC    N4 1726   4.894   0.587   1.667
   42DLPC    C5 1727   5.011   0.577   1.576
   42DLPC    C6 1728   5.155   0.567   1.633
   42DLPC   OS7 1729   5.195   0.674   1.718
   42DLPC    P8 1730   5.350   0.675   1.735
   42DLPC   OM9 1731   5.410   0.693   1.602
   42DLPC  OM10 1732   5.386   0.559   1.817
   42DLPC  OS11 1733   5.368   0.807   1.817
   42DLPC   C12 1734   5.344   0.788   1.956
   42DLPC   C13 1735   5.444   0.868   2.042
   42DLPC  OS14 1736   5.474   0.806   2.169
   42DLPC   C15 1737   5.602   0.820   2.215
   42DLPC   O16 1738   5.695   0.856   2.140
   42DLPC   C17 1739   5.618   0.754   2.351
   42DLPC   C18 1740   5.669   0.852   2.457
   42DLPC   C19 1741   5.559   0.950   2.500
   42DLPC   C20 1742   5.449   0.882   2.582
   42DLPC   C21 1743   5.495   0.851   2.724
   42DLPC   C22 1744   5.385   0.781   2.803
   42DLPC   C23 1745   5.426   0.759   2.949
   42DLPC   C24 1746   5.319   0.682   3.026
   42DLPC   C25 1747   5.357   0.666   3.173
   42DLPC   C26 1748   5.249   0.590   3.250
   42DLPC   C27 1749   5.287   0.574   3.397
   42DLPC   C28 1750   5.396   1.015   2.040
   42DLPC  OS29 1751   5.275   1.042   2.114
   42DLPC   C30 1752   5.293   1.096   2.238
   42DLPC   O31 1753   5.397   1.154   2.272
   42DLPC   C32 1754   5.160   1.107   2.310
   42DLPC   C33 1755   5.169   1.194   2.435
   42DLPC   C34 1756   5.028   1.221   2.488
   42DLPC   C35 1757   5.026   1.315   2.607
   42DLPC   C36 1758   4.882   1.358   2.637
   42DLPC   C37 1759   4.875   1.459   2.752
   42DLPC   C38 1760   4.735   1.521   2.757
   42DLPC   C39 1761   4.723   1.625   2.869
   42DLPC   C40 1762   4.589   1.698   2.859
   42DLPC   C41 1763   4.585   1.782   2.732
   42DLPC   C42 1764   4.451   1.854   2.716
   43DLPC    C1 1765   2.081   5.422   1.888
   43DLPC    C2 1766   2.111   5.645   1.964
   43DLPC    C3 1767   2.113   5.599   1.730
   43DLPC    N4 1768   2.051   5.563   1.858
   43DLPC    C5 1769   1.905   5.588   1.855
   43DLPC    C6 1770   1.815   5.505   1.760
   43DLPC   OS7 1771   1.678   5.539   1.772
   43DLPC    P8 1772   1.581   5.430   1.718
   43DLPC   OM9 1773   1.446   5.484   1.731
   43DLPC  OM10 1774   1.628   5.381   1.588
   43DLPC  OS11 1775   1.608   5.317   1.825
   43DLPC   C12 1776   1.500   5.305   1.916
   43DLPC   C13 1777   1.530   5.227   2.045
   43DLPC  OS14 1778   1.409   5.194   2.119
   43DLPC   C15 1779   1.341   5.080   2.087
   43DLPC   O16 1780   1.358   5.017   1.982
   43DLPC   C17 1781   1.223   5.064   2.181
   43DLPC   C18 1782   1.171   4.920   2.187
   43DLPC   C19 1783   1.072   4.908   2.303
   43DLPC   C20 1784   1.147   4.932   2.434
   43DLPC   C21 1785   1.054   4.938   2.556
   43DLPC   C22 1786   1.137   4.980   2.678
   43DLPC   C23 1787   1.051   5.000   2.803
   43DLPC   C24 1788   1.139   5.056   2.916
   43DLPC   C25 1789   1.059   5.077   3.045
   43DLPC   C26 1790   1.021   4.944   3.108
   43DLPC   C27 1791   0.950   4.965   3.241
   43DLPC   C28 1792   1.635   5.310   2.122
   43DLPC  OS29 1793   1.596   5.447   2.150
   43DLPC   C30 1794   1.683   5.520   2.226
   43DLPC   O31 1795   1.788   5.476   2.273
   43DLPC   C32 1796   1.631   0.005   2.252
   43DLPC   C33 1797   1.739   0.096   2.311
   43DLPC   C34 1798   1.838   0.143   2.204
   43DLPC   C35 1799   1.947   0.232   2.263
   43DLPC   C36 1800   1.887   0.359   2.324
   43DLPC   C37 1801   1.997   0.454   2.372
   43DLPC   C38 1802   2.085   0.388   2.478
   43DLPC   C39 1803   2.183   0.488   2.539
   43DLPC   C40 1804   2.108   0.587   2.629
   43DLPC   C41 1805   2.204   0.686   2.695
   43DLPC   C42 1806   2.128   0.779   2.790
   44DLPC    C1 1807   1.808   1.762   1.515
   44DLPC    C2 1808   1.839   1.921   1.691
   44DLPC    C3 1809   1.974   1.728   1.683
   44DLPC    N4 1810   1.838   1.778   1.658
   44DLPC    C5 1811   1.745   1.705   1.747
   44DLPC    C6 1812   1.592   1.723   1.730
   44DLPC   OS7 1813   1.535   1.643   1.626
   44DLPC    P8 1814   1.380   1.663   1.611
   44DLPC   OM9 1815   1.356   1.685   1.468
   44DLPC  OM10 1816   1.324   1.754   1.712
   44DLPC  OS11 1817   1.347   1.513   1.642
   44DLPC   C12 1818   1.281   1.497   1.768
   44DLPC   C13 1819   1.269   1.350   1.813
   44DLPC  OS14 1820   1.177   1.332   1.923
   44DLPC   C15 1821   1.068   1.254   1.899
   44DLPC   O16 1822   1.046   1.205   1.788
   44DLPC   C17 1823   0.983   1.236   2.023
   44DLPC   C18 1824   0.901   1.107   2.011
   44DLPC   C19 1825   0.832   1.073   2.143
   44DLPC   C20 1826   0.754   0.942   2.131
   44DLPC   C21 1827   0.688   0.907   2.264
   44DLPC   C22 1828   0.600   0.783   2.251
   44DLPC   C23 1829   0.525   0.756   2.381
   44DLPC   C24 1830   0.422   0.645   2.363
   44DLPC   C25 1831   0.340   0.626   2.490
   44DLPC   C26 1832   0.232   0.519   2.470
   44DLPC   C27 1833   0.296   0.382   2.450
   44DLPC   C28 1834   1.412   1.299   1.837
   44DLPC  OS29 1835   1.495   1.378   1.924
   44DLPC   C30 1836   1.586   1.309   1.997
   44DLPC   O31 1837   1.593   1.186   1.999
   44DLPC   C32 1838   1.673   1.404   2.078
   44DLPC   C33 1839   1.786   1.332   2.153
   44DLPC   C34 1840   1.740   1.270   2.285
   44DLPC   C35 1841   1.855   1.195   2.352
   44DLPC   C36 1842   1.813   1.139   2.488
   44DLPC   C37 1843   1.925   1.056   2.551
   44DLPC   C38 1844   2.043   1.142   2.596
   44DLPC   C39 1845   2.011   1.222   2.722
   44DLPC   C40 1846   2.133   1.302   2.768
   44DLPC   C41 1847   2.102   1.379   2.897
   44DLPC   C42 1848   2.224   1.459   2.944
   45DLPC    C1 1849   1.528   0.198   1.338
   45DLPC    C2 1850   1.657   0.039   1.457
   45DLPC    C3 1851   1.480   5.617   1.315
   45DLPC    N4 1852   1.522   0.069   1.408
   45DLPC    C5 1853   1.433   0.077   1.525
   45DLPC    C6 1854   1.287   0.125   1.509
   45DLPC   OS7 1855   1.224   0.150   1.635
   45DLPC    P8 1856   1.083   0.215   1.622
   45DLPC   OM9 1857   1.025   0.192   1.489
   45DLPC  OM10 1858   1.010   0.177   1.743
   45DLPC  OS11 1859   1.116   0.367   1.633
   45DLPC   C12 1860   1.159   0.406   1.763
   45DLPC   C13 1861   1.105   0.545   1.799
   45DLPC  OS14 1862   1.199   0.625   1.877
   45DLPC   C15 1863   1.174   0.759   1.883
   45DLPC   O16 1864   1.103   0.815   1.800
   45DLPC   C17 1865   1.267   0.829   1.980
   45DLPC   C18 1866   1.196   0.866   2.110
   45DLPC   C19 1867   1.165   0.741   2.193
   45DLPC   C20 1868   1.111   0.774   2.332
   45DLPC   C21 1869   1.107   0.646   2.417
   45DLPC   C22 1870   1.076   0.677   2.563
   45DLPC   C23 1871   0.929   0.709   2.587
   45DLPC   C24 1872   0.906   0.741   2.735
   45DLPC   C25 1873   0.759   0.766   2.766
   45DLPC   C26 1874   0.742   0.807   2.913
   45DLPC   C27 1875   0.782   0.694   3.008
   45DLPC   C28 1876   0.964   0.522   1.857
   45DLPC  OS29 1877   0.963   0.450   1.982
   45DLPC   C30 1878   0.842   0.437   2.044
   45DLPC   O31 1879   0.733   0.462   1.991
   45DLPC   C32 1880   0.859   0.371   2.179
   45DLPC   C33 1881   0.723   0.329   2.235
   45DLPC   C34 1882   0.743   0.253   2.366
   45DLPC   C35 1883   0.828   0.128   2.340
   45DLPC   C36 1884   0.852   0.048   2.468
   45DLPC   C37 1885   0.944   5.584   2.440
   45DLPC   C38 1886   0.974   5.509   2.570
   45DLPC   C39 1887   1.062   5.386   2.545
   45DLPC   C40 1888   1.202   5.427   2.502
   45DLPC   C41 1889   1.292   5.304   2.489
   45DLPC   C42 1890   1.435   5.345   2.453
   46DLPC    C1 1891   3.256   5.593   1.439
   46DLPC    C2 1892   3.261   0.176   1.416
   46DLPC    C3 1893   3.303   0.037   1.228
   46DLPC    N4 1894   3.323   0.051   1.372
   46DLPC    C5 1895   3.469   0.048   1.400
   46DLPC    C6 1896   3.519   0.053   1.546
   46DLPC   OS7 1897   3.506   0.180   1.610
   46DLPC    P8 1898   3.525   0.170   1.767
   46DLPC   OM9 1899   3.565   0.307   1.800
   46DLPC  OM10 1900   3.612   0.055   1.794
   46DLPC  OS11 1901   3.372   0.144   1.794
   46DLPC   C12 1902   3.300   0.264   1.821
   46DLPC   C13 1903   3.147   0.248   1.812
   46DLPC  OS14 1904   3.070   0.372   1.817
   46DLPC   C15 1905   3.075   0.456   1.709
   46DLPC   O16 1906   3.106   0.417   1.596
   46DLPC   C17 1907   3.005   0.588   1.736
   46DLPC   C18 1908   3.081   0.681   1.832
   46DLPC   C19 1909   3.052   0.650   1.979
   46DLPC   C20 1910   3.099   0.765   2.069
   46DLPC   C21 1911   3.058   0.742   2.214
   46DLPC   C22 1912   3.084   0.868   2.298
   46DLPC   C23 1913   3.038   0.851   2.443
   46DLPC   C24 1914   3.056   0.982   2.520
   46DLPC   C25 1915   3.014   0.968   2.666
   46DLPC   C26 1916   3.032   1.100   2.741
   46DLPC   C27 1917   2.991   1.086   2.888
   46DLPC   C28 1918   3.109   0.143   1.918
   46DLPC  OS29 1919   3.142   0.180   2.053
   46DLPC   C30 1920   3.051   0.146   2.149
   46DLPC   O31 1921   2.940   0.099   2.127
   46DLPC   C32 1922   3.104   0.189   2.285
   46DLPC   C33 1923   3.012   0.143   2.399
   46DLPC   C34 1924   3.079   0.170   2.534
   46DLPC   C35 1925   2.993   0.118   2.649
   46DLPC   C36 1926   3.069   0.125   2.781
   46DLPC   C37 1927   2.988   0.060   2.892
   46DLPC   C38 1928   3.070   0.044   3.020
   46DLPC   C39 1929   2.990   5.623   3.126
   46DLPC   C40 1930   3.074   5.598   3.252
   46DLPC   C41 1931   2.992   5.522   3.356
   46DLPC   C42 1932   2.957   5.382   3.305
   47DLPC    C1 1933   2.102   4.196   2.050
   47DLPC    C2 1934   2.117   4.279   1.828
   47DLPC    C3 1935   2.279   4.342   1.992
   47DLPC    N4 1936   2.196   4.232   1.943
   47DLPC    C5 1937   2.275   4.112   1.906
   47DLPC    C6 1938   2.381   4.118   1.793
   47DLPC   OS7 1939   2.491   4.204   1.820
   47DLPC    P8 1940   2.597   4.200   1.705
   47DLPC   OM9 1941   2.662   4.069   1.707
   47DLPC  OM10 1942   2.535   4.250   1.582
   47DLPC  OS11 1943   2.698   4.309   1.757
   47DLPC   C12 1944   2.757   4.267   1.881
   47DLPC   C13 1945   2.876   4.352   1.929
   47DLPC  OS14 1946   2.942   4.292   2.043
   47DLPC   C15 1947   3.078   4.298   2.044
   47DLPC   O16 1948   3.144   4.319   1.941
   47DLPC   C17 1949   3.134   4.249   2.176
   47DLPC   C18 1950   3.249   4.151   2.154
   47DLPC   C19 1951   3.316   4.118   2.287
   47DLPC   C20 1952   3.424   4.011   2.271
   47DLPC   C21 1953   3.501   3.994   2.402
   47DLPC   C22 1954   3.607   3.884   2.391
   47DLPC   C23 1955   3.691   3.882   2.519
   47DLPC   C24 1956   3.795   3.770   2.514
   47DLPC   C25 1957   3.887   3.779   2.637
   47DLPC   C26 1958   3.809   3.754   2.766
   47DLPC   C27 1959   3.901   3.764   2.887
   47DLPC   C28 1960   2.823   4.496   1.949
   47DLPC  OS29 1961   2.916   4.590   2.006
   47DLPC   C30 1962   2.891   4.722   1.991
   47DLPC   O31 1963   2.830   4.771   1.895
   47DLPC   C32 1964   2.985   4.801   2.080
   47DLPC   C33 1965   2.993   4.948   2.039
   47DLPC   C34 1966   3.105   5.018   2.117
   47DLPC   C35 1967   3.071   5.022   2.266
   47DLPC   C36 1968   3.187   5.082   2.347
   47DLPC   C37 1969   3.149   5.089   2.495
   47DLPC   C38 1970   3.041   5.195   2.517
   47DLPC   C39 1971   2.995   5.198   2.663
   47DLPC   C40 1972   2.888   5.305   2.684
   47DLPC   C41 1973   2.842   5.308   2.830
   47DLPC   C42 1974   2.733   5.413   2.851
   48DLPC    C1 1975   4.328   1.472   1.940
   48DLPC    C2 1976   4.486   1.408   1.770
   48DLPC    C3 1977   4.506   1.616   1.884
   48DLPC    N4 1978   4.410   1.519   1.828
   48DLPC    C5 1979   4.327   1.590   1.727
   48DLPC    C6 1980   4.233   1.509   1.635
   48DLPC   OS7 1981   4.126   1.440   1.700
   48DLPC    P8 1982   4.081   1.313   1.617
   48DLPC   OM9 1983   4.123   1.322   1.476
   48DLPC  OM10 1984   3.943   1.283   1.652
   48DLPC  OS11 1985   4.177   1.211   1.687
   48DLPC   C12 1986   4.122   1.154   1.807
   48DLPC   C13 1987   4.191   1.022   1.846
   48DLPC  OS14 1988   4.130   0.958   1.961
   48DLPC   C15 1989   4.101   0.825   1.949
   48DLPC   O16 1990   4.110   0.767   1.840
   48DLPC   C17 1991   4.051   0.766   2.079
   48DLPC   C18 1992   4.157   0.783   2.188
   48DLPC   C19 1993   4.110   0.733   2.324
   48DLPC   C20 1994   4.101   0.580   2.330
   48DLPC   C21 1995   4.070   0.538   2.474
   48DLPC   C22 1996   4.069   0.386   2.490
   48DLPC   C23 1997   4.049   0.350   2.637
   48DLPC   C24 1998   4.052   0.198   2.659
   48DLPC   C25 1999   4.036   0.166   2.807
   48DLPC   C26 2000   4.038   0.015   2.832
   48DLPC   C27 2001   4.019   5.639   2.981
   48DLPC   C28 2002   4.341   1.055   1.861
   48DLPC  OS29 2003   4.378   1.136   1.975
   48DLPC   C30 2004   4.435   1.064   2.075
   48DLPC   O31 2005   4.498   0.959   2.056
   48DLPC   C32 2006   4.448   1.146   2.203
   48DLPC   C33 2007   4.525   1.063   2.307
   48DLPC   C34 2008   4.551   1.141   2.436
   48DLPC   C35 2009   4.420   1.170   2.510
   48DLPC   C36 2010   4.447   1.231   2.647
   48DLPC   C37 2011   4.517   1.130   2.738
   48DLPC   C38 2012   4.533   1.185   2.880
   48DLPC   C39 2013   4.398   1.195   2.950
   48DLPC   C40 2014   4.412   1.252   3.091
   48DLPC   C41 2015   4.276   1.256   3.162
   48DLPC   C42 2016   4.224   1.116   3.191
   49DLPC    C1 2017   0.681   4.725   1.786
   49DLPC    C2 2018   0.595   4.836   1.595
   49DLPC    C3 2019   0.544   4.916   1.815
   49DLPC    N4 2020   0.564   4.796   1.734
   49DLPC    C5 2021   0.447   4.706   1.742
   49DLPC    C6 2022   0.311   4.750   1.682
   49DLPC   OS7 2023   0.210   4.649   1.693
   49DLPC    P8 2024   0.093   4.681   1.594
   49DLPC   OM9 2025   0.042   4.814   1.631
   49DLPC  OM10 2026   0.150   4.654   1.461
   49DLPC  OS11 2027   5.699   4.568   1.639
   49DLPC   C12 2028   5.630   4.606   1.757
   49DLPC   C13 2029   5.512   4.516   1.797
   49DLPC  OS14 2030   5.424   4.586   1.890
   49DLPC   C15 2031   5.307   4.528   1.928
   49DLPC   O16 2032   5.259   4.427   1.875
   49DLPC   C17 2033   5.238   4.610   2.036
   49DLPC   C18 2034   5.198   4.521   2.155
   49DLPC   C19 2035   5.321   4.479   2.235
   49DLPC   C20 2036   5.387   4.599   2.301
   49DLPC   C21 2037   5.519   4.562   2.369
   49DLPC   C22 2038   5.589   4.687   2.422
   49DLPC   C23 2039   0.028   4.656   2.465
   49DLPC   C24 2040   0.100   4.783   2.509
   49DLPC   C25 2041   0.246   4.756   2.543
   49DLPC   C26 2042   0.317   4.885   2.586
   49DLPC   C27 2043   0.265   4.932   2.722
   49DLPC   C28 2044   5.576   4.385   1.846
   49DLPC  OS29 2045   5.636   4.393   1.977
   49DLPC   C30 2046   5.674   4.273   2.030
   49DLPC   O31 2047   5.662   4.164   1.973
   49DLPC   C32 2048   0.016   4.292   2.173
   49DLPC   C33 2049   0.037   4.158   2.245
   49DLPC   C34 2050   0.180   4.106   2.226
   49DLPC   C35 2051   0.199   3.975   2.304
   49DLPC   C36 2052   0.347   3.952   2.335
   49DLPC   C37 2053   0.396   4.068   2.422
   49DLPC   C38 2054   0.532   4.043   2.486
   49DLPC   C39 2055   0.573   4.168   2.564
   49DLPC   C40 2056   0.467   4.204   2.667
   49DLPC   C41 2057   0.499   4.337   2.736
   49DLPC   C42 2058   0.386   4.380   2.830
   50DLPC    C1 2059   5.286   4.069   1.546
   50DLPC    C2 2060   5.150   4.111   1.355
   50DLPC    C3 2061   5.083   4.194   1.567
   50DLPC    N4 2062   5.147   4.081   1.499
   50DLPC    C5 2063   5.071   3.955   1.519
   50DLPC    C6 2064   5.046   3.900   1.662
   50DLPC   OS7 2065   4.962   3.784   1.664
   50DLPC    P8 2066   4.861   3.788   1.784
   50DLPC   OM9 2067   4.913   3.700   1.889
   50DLPC  OM10 2068   4.823   3.928   1.806
   50DLPC  OS11 2069   4.747   3.710   1.709
   50DLPC   C12 2070   4.618   3.758   1.749
   50DLPC   C13 2071   4.500   3.676   1.695
   50DLPC  OS14 2072   4.375   3.750   1.696
   50DLPC   C15 2073   4.295   3.741   1.586
   50DLPC   O16 2074   4.336   3.691   1.480
   50DLPC   C17 2075   4.161   3.811   1.602
   50DLPC   C18 2076   4.090   3.781   1.735
   50DLPC   C19 2077   4.128   3.881   1.845
   50DLPC   C20 2078   4.057   3.849   1.977
   50DLPC   C21 2079   4.093   3.954   2.083
   50DLPC   C22 2080   4.021   3.925   2.214
   50DLPC   C23 2081   4.049   4.035   2.317
   50DLPC   C24 2082   4.195   4.031   2.363
   50DLPC   C25 2083   4.222   4.142   2.466
   50DLPC   C26 2084   4.366   4.137   2.516
   50DLPC   C27 2085   4.391   4.011   2.600
   50DLPC   C28 2086   4.500   3.542   1.771
   50DLPC  OS29 2087   4.495   3.550   1.915
   50DLPC   C30 2088   4.385   3.500   1.976
   50DLPC   O31 2089   4.286   3.450   1.919
   50DLPC   C32 2090   4.397   3.511   2.127
   50DLPC   C33 2091   4.257   3.533   2.185
   50DLPC   C34 2092   4.251   3.514   2.337
   50DLPC   C35 2093   4.329   3.620   2.415
   50DLPC   C36 2094   4.267   3.634   2.554
   50DLPC   C37 2095   4.280   3.507   2.639
   50DLPC   C38 2096   4.175   3.510   2.750
   50DLPC   C39 2097   4.186   3.392   2.846
   50DLPC   C40 2098   4.288   3.419   2.957
   50DLPC   C41 2099   4.287   3.306   3.060
   50DLPC   C42 2100   4.378   3.338   3.178
   51DLPC    C1 2101   1.583   1.558   4.574
   51DLPC    C2 2102   1.761   1.454   4.456
   51DLPC    C3 2103   1.554   1.490   4.347
   51DLPC    N4 2104   1.615   1.455   4.475
   51DLPC    C5 2105   1.576   1.319   4.520
   51DLPC    C6 2106   1.428   1.284   4.549
   51DLPC   OS7 2107   1.412   1.154   4.604
   51DLPC    P8 2108   1.264   1.116   4.641
   51DLPC   OM9 2109   1.181   1.238   4.644
   51DLPC  OM10 2110   1.260   1.019   4.751
   51DLPC  OS11 2111   1.229   1.042   4.507
   51DLPC   C12 2112   1.287   0.912   4.501
   51DLPC   C13 2113   1.260   0.840   4.368
   51DLPC  OS14 2114   1.311   0.703   4.366
   51DLPC   C15 2115   1.243   0.614   4.288
   51DLPC   O16 2116   1.123   0.626   4.264
   51DLPC   C17 2117   1.319   0.482   4.285
   51DLPC   C18 2118   1.386   0.456   4.151
   51DLPC   C19 2119   1.283   0.413   4.047
   51DLPC   C20 2120   1.352   0.377   3.915
   51DLPC   C21 2121   1.249   0.332   3.812
   51DLPC   C22 2122   1.316   0.294   3.681
   51DLPC   C23 2123   1.210   0.252   3.579
   51DLPC   C24 2124   1.274   0.218   3.444
   51DLPC   C25 2125   1.165   0.187   3.342
   51DLPC   C26 2126   1.224   0.159   3.204
   51DLPC   C27 2127   1.111   0.138   3.103
   51DLPC   C28 2128   1.324   0.933   4.262
   51DLPC  OS29 2129   1.287   0.905   4.126
   51DLPC   C30 2130   1.185   0.979   4.073
   51DLPC   O31 2131   1.145   1.085   4.122
   51DLPC   C32 2132   1.152   0.926   3.935
   51DLPC   C33 2133   1.125   1.039   3.835
   51DLPC   C34 2134   1.253   1.117   3.804
   51DLPC   C35 2135   1.227   1.221   3.695
   51DLPC   C36 2136   1.121   1.322   3.740
   51DLPC   C37 2137   1.094   1.421   3.627
   51DLPC   C38 2138   1.025   1.351   3.510
   51DLPC   C39 2139   1.021   1.441   3.386
   51DLPC   C40 2140   0.955   1.370   3.269
   51DLPC   C41 2141   0.962   1.455   3.142
   51DLPC   C42 2142   1.106   1.466   3.092
   52DLPC    C1 2143   1.454   2.806   4.599
   52DLPC    C2 2144   1.654   2.769   4.477
   52DLPC    C3 2145   1.614   2.985   4.570
   52DLPC    N4 2146   1.550   2.868   4.506
   52DLPC    C5 2147   1.484   2.905   4.378
   52DLPC    C6 2148   1.372   3.013   4.371
   52DLPC   OS7 2149   1.252   2.981   4.442
   52DLPC    P8 2150   1.212   3.089   4.551
   52DLPC   OM9 2151   1.335   3.161   4.587
   52DLPC  OM10 2152   1.132   3.020   4.652
   52DLPC  OS11 2153   1.119   3.184   4.469
   52DLPC   C12 2154   0.998   3.116   4.432
   52DLPC   C13 2155   0.890   3.197   4.359
   52DLPC  OS14 2156   0.777   3.111   4.324
   52DLPC   C15 2157   0.663   3.166   4.273
   52DLPC   O16 2158   0.638   3.287   4.273
   52DLPC   C17 2159   0.564   3.058   4.234
   52DLPC   C18 2160   0.538   3.056   4.083
   52DLPC   C19 2161   0.655   2.991   4.010
   52DLPC   C20 2162   0.626   2.977   3.860
   52DLPC   C21 2163   0.739   2.898   3.793
   52DLPC   C22 2164   0.711   2.875   3.644
   52DLPC   C23 2165   0.820   2.786   3.586
   52DLPC   C24 2166   0.798   2.755   3.437
   52DLPC   C25 2167   0.908   2.661   3.387
   52DLPC   C26 2168   0.892   2.632   3.238
   52DLPC   C27 2169   1.002   2.536   3.191
   52DLPC   C28 2170   0.962   3.268   4.242
   52DLPC  OS29 2171   1.026   3.181   4.147
   52DLPC   C30 2172   1.094   3.242   4.047
   52DLPC   O31 2173   1.115   3.363   4.041
   52DLPC   C32 2174   1.145   3.139   3.948
   52DLPC   C33 2175   1.136   3.194   3.806
   52DLPC   C34 2176   1.153   3.081   3.704
   52DLPC   C35 2177   1.138   3.134   3.562
   52DLPC   C36 2178   1.138   3.018   3.462
   52DLPC   C37 2179   1.274   2.948   3.458
   52DLPC   C38 2180   1.271   2.832   3.359
   52DLPC   C39 2181   1.405   2.759   3.354
   52DLPC   C40 2182   1.398   2.641   3.258
   52DLPC   C41 2183   1.532   2.569   3.248
   52DLPC   C42 2184   1.522   2.454   3.148
   53DLPC    C1 2185   5.026   5.252   4.832
   53DLPC    C2 2186   4.915   5.072   4.725
   53DLPC    C3 2187   4.968   5.270   4.602
   53DLPC    N4 2188   5.015   5.177   4.706
   53DLPC    C5 2189   5.149   5.121   4.674
   53DLPC    C6 2190   5.175   5.043   4.542
   53DLPC   OS7 2191   5.101   4.921   4.530
   53DLPC    P8 2192   5.143   4.834   4.406
   53DLPC   OM9 2193   5.077   4.707   4.439
   53DLPC  OM10 2194   5.288   4.842   4.391
   53DLPC  OS11 2195   5.070   4.901   4.285
   53DLPC   C12 2196   5.033   4.799   4.192
   53DLPC   C13 2197   4.963   4.841   4.061
   53DLPC  OS14 2198   4.889   4.731   4.002
   53DLPC   C15 2199   4.753   4.741   3.996
   53DLPC   O16 2200   4.691   4.811   4.076
   53DLPC   C17 2201   4.694   4.625   3.918
   53DLPC   C18 2202   4.663   4.663   3.773
   53DLPC   C19 2203   4.790   4.671   3.688
   53DLPC   C20 2204   4.761   4.715   3.544
   53DLPC   C21 2205   4.685   4.608   3.466
   53DLPC   C22 2206   4.668   4.651   3.320
   53DLPC   C23 2207   4.594   4.544   3.239
   53DLPC   C24 2208   4.581   4.586   3.092
   53DLPC   C25 2209   4.506   4.481   3.010
   53DLPC   C26 2210   4.359   4.475   3.049
   53DLPC   C27 2211   4.283   4.373   2.963
   53DLPC   C28 2212   5.070   4.892   3.964
   53DLPC  OS29 2213   5.149   5.006   4.002
   53DLPC   C30 2214   5.233   5.044   3.902
   53DLPC   O31 2215   5.242   4.984   3.796
   53DLPC   C32 2216   5.319   5.164   3.940
   53DLPC   C33 2217   5.366   5.234   3.812
   53DLPC   C34 2218   5.484   5.327   3.838
   53DLPC   C35 2219   5.505   5.421   3.719
   53DLPC   C36 2220   5.539   5.344   3.591
   53DLPC   C37 2221   5.532   5.440   3.471
   53DLPC   C38 2222   5.558   5.368   3.338
   53DLPC   C39 2223   0.000   5.333   3.319
   53DLPC   C40 2224   0.022   5.275   3.179
   53DLPC   C41 2225   0.170   5.252   3.151
   53DLPC   C42 2226   0.192   5.202   3.008
   54DLPC    C1 2227   5.659   1.264   4.894
   54DLPC    C2 2228   5.531   1.243   4.695
   54DLPC    C3 2229   5.564   1.458   4.797
   54DLPC    N4 2230   5.541   1.316   4.823
   54DLPC    C5 2231   5.420   1.297   4.907
   54DLPC    C6 2232   5.284   1.350   4.855
   54DLPC   OS7 2233   5.227   1.274   4.748
   54DLPC    P8 2234   5.128   1.363   4.664
   54DLPC   OM9 2235   5.221   1.458   4.602
   54DLPC  OM10 2236   5.026   1.402   4.762
   54DLPC  OS11 2237   5.082   1.245   4.572
   54DLPC   C12 2238   5.123   1.266   4.437
   54DLPC   C13 2239   5.153   1.138   4.358
   54DLPC  OS14 2240   5.233   1.164   4.239
   54DLPC   C15 2241   5.305   1.060   4.188
   54DLPC   O16 2242   5.323   0.958   4.255
   54DLPC   C17 2243   5.391   1.099   4.068
   54DLPC   C18 2244   5.346   1.223   3.991
   54DLPC   C19 2245   5.229   1.192   3.899
   54DLPC   C20 2246   5.198   1.307   3.803
   54DLPC   C21 2247   5.302   1.318   3.691
   54DLPC   C22 2248   5.255   1.417   3.584
   54DLPC   C23 2249   5.266   1.563   3.629
   54DLPC   C24 2250   5.411   1.611   3.622
   54DLPC   C25 2251   5.422   1.760   3.653
   54DLPC   C26 2252   5.565   1.809   3.630
   54DLPC   C27 2253   5.579   1.958   3.663
   54DLPC   C28 2254   5.018   1.063   4.343
   54DLPC  OS29 2255   4.916   1.132   4.269
   54DLPC   C30 2256   4.883   1.078   4.148
   54DLPC   O31 2257   4.921   0.967   4.111
   54DLPC   C32 2258   4.786   1.167   4.073
   54DLPC   C33 2259   4.860   1.285   4.009
   54DLPC   C34 2260   4.771   1.365   3.914
   54DLPC   C35 2261   4.853   1.474   3.844
   54DLPC   C36 2262   4.770   1.554   3.744
   54DLPC   C37 2263   4.858   1.655   3.670
   54DLPC   C38 2264   4.776   1.741   3.574
   54DLPC   C39 2265   4.689   1.841   3.650
   54DLPC   C40 2266   4.610   1.932   3.556
   54DLPC   C41 2267   4.525   2.032   3.635
   54DLPC   C42 2268   4.447   2.123   3.541
   55DLPC    C1 2269   0.558   4.441   4.079
   55DLPC    C2 2270   0.695   4.377   4.266
   55DLPC    C3 2271   0.473   4.447   4.300
   55DLPC    N4 2272   0.592   4.471   4.219
   55DLPC    C5 2273   0.633   4.612   4.237
   55DLPC    C6 2274   0.763   4.662   4.169
   55DLPC   OS7 2275   0.781   4.803   4.179
   55DLPC    P8 2276   0.917   4.849   4.115
   55DLPC   OM9 2277   1.014   4.846   4.225
   55DLPC  OM10 2278   0.939   4.769   3.994
   55DLPC  OS11 2279   0.872   4.996   4.084
   55DLPC   C12 2280   0.804   5.001   3.958
   55DLPC   C13 2281   0.703   5.117   3.944
   55DLPC  OS14 2282   0.620   5.102   3.827
   55DLPC   C15 2283   0.488   5.077   3.849
   55DLPC   O16 2284   0.445   5.055   3.962
   55DLPC   C17 2285   0.411   5.057   3.719
   55DLPC   C18 2286   0.260   5.051   3.745
   55DLPC   C19 2287   0.184   5.008   3.620
   55DLPC   C20 2288   0.210   4.860   3.590
   55DLPC   C21 2289   0.128   4.811   3.471
   55DLPC   C22 2290   0.178   4.870   3.339
   55DLPC   C23 2291   0.095   4.817   3.222
   55DLPC   C24 2292   0.115   4.666   3.205
   55DLPC   C25 2293   0.021   4.609   3.099
   55DLPC   C26 2294   0.057   4.659   2.959
   55DLPC   C27 2295   5.666   4.600   2.855
   55DLPC   C28 2296   0.784   5.248   3.957
   55DLPC  OS29 2297   0.873   5.280   3.849
   55DLPC   C30 2298   0.823   5.366   3.756
   55DLPC   O31 2299   0.723   5.436   3.775
   55DLPC   C32 2300   0.924   5.389   3.645
   55DLPC   C33 2301   0.894   5.305   3.521
   55DLPC   C34 2302   0.982   5.348   3.404
   55DLPC   C35 2303   1.129   5.314   3.431
   55DLPC   C36 2304   1.218   5.366   3.317
   55DLPC   C37 2305   1.364   5.327   3.341
   55DLPC   C38 2306   1.385   5.177   3.321
   55DLPC   C39 2307   1.529   5.138   3.356
   55DLPC   C40 2308   1.551   5.146   3.507
   55DLPC   C41 2309   1.693   5.104   3.545
   55DLPC   C42 2310   1.713   5.110   3.697
   56DLPC    C1 2311   0.805   1.310   4.313
   56DLPC    C2 2312   1.034   1.341   4.371
   56DLPC    C3 2313   0.934   1.131   4.408
   56DLPC    N4 2314   0.909   1.275   4.411
   56DLPC    C5 2315   0.877   1.323   4.547
   56DLPC    C6 2316   0.754   1.271   4.624
   56DLPC   OS7 2317   0.628   1.311   4.570
   56DLPC    P8 2318   0.506   1.268   4.660
   56DLPC   OM9 2319   0.390   1.351   4.625
   56DLPC  OM10 2320   0.550   1.246   4.798
   56DLPC  OS11 2321   0.488   1.124   4.598
   56DLPC   C12 2322   0.434   1.131   4.466
   56DLPC   C13 2323   0.488   1.018   4.376
   56DLPC  OS14 2324   0.490   1.051   4.234
   56DLPC   C15 2325   0.600   1.006   4.167
   56DLPC   O16 2326   0.700   0.965   4.226
   56DLPC   C17 2327   0.591   1.036   4.018
   56DLPC   C18 2328   0.726   1.081   3.961
   56DLPC   C19 2329   0.713   1.117   3.813
   56DLPC   C20 2330   0.689   0.992   3.729
   56DLPC   C21 2331   0.658   1.024   3.582
   56DLPC   C22 2332   0.522   1.094   3.572
   56DLPC   C23 2333   0.467   1.092   3.429
   56DLPC   C24 2334   0.552   1.174   3.331
   56DLPC   C25 2335   0.483   1.180   3.195
   56DLPC   C26 2336   0.566   1.254   3.091
   56DLPC   C27 2337   0.689   1.172   3.051
   56DLPC   C28 2338   0.419   0.887   4.420
   56DLPC  OS29 2339   0.276   0.877   4.407
   56DLPC   C30 2340   0.227   0.749   4.411
   56DLPC   O31 2341   0.292   0.653   4.453
   56DLPC   C32 2342   0.080   0.741   4.377
   56DLPC   C33 2343   0.038   0.594   4.384
   56DLPC   C34 2344   5.595   0.569   4.350
   56DLPC   C35 2345   5.565   0.586   4.202
   56DLPC   C36 2346   5.429   0.522   4.170
   56DLPC   C37 2347   5.398   0.527   4.020
   56DLPC   C38 2348   5.344   0.663   3.976
   56DLPC   C39 2349   5.320   0.663   3.824
   56DLPC   C40 2350   5.242   0.786   3.779
   56DLPC   C41 2351   5.097   0.778   3.826
   56DLPC   C42 2352   5.015   0.898   3.776
   57DLPC    C1 2353   2.108   4.922   4.527
   57DLPC    C2 2354   2.178   5.142   4.461
   57DLPC    C3 2355   2.276   5.034   4.649
   57DLPC    N4 2356   2.151   5.054   4.576
   57DLPC    C5 2357   2.051   5.113   4.668
   57DLPC    C6 2358   1.911   5.155   4.617
   57DLPC   OS7 2359   1.833   5.049   4.564
   57DLPC    P8 2360   1.685   5.093   4.535
   57DLPC   OM9 2361   1.679   5.233   4.494
   57DLPC  OM10 2362   1.611   5.048   4.654
   57DLPC  OS11 2363   1.652   4.995   4.417
   57DLPC   C12 2364   1.710   5.035   4.293
   57DLPC   C13 2365   1.825   4.945   4.245
   57DLPC  OS14 2366   1.895   5.001   4.131
   57DLPC   C15 2367   2.027   4.972   4.112
   57DLPC   O16 2368   2.091   4.893   4.184
   57DLPC   C17 2369   2.084   5.047   3.994
   57DLPC   C18 2370   2.148   4.953   3.891
   57DLPC   C19 2371   2.042   4.886   3.803
   57DLPC   C20 2372   2.109   4.804   3.693
   57DLPC   C21 2373   2.006   4.745   3.596
   57DLPC   C22 2374   2.077   4.672   3.481
   57DLPC   C23 2375   1.976   4.613   3.383
   57DLPC   C24 2376   2.047   4.542   3.267
   57DLPC   C25 2377   1.945   4.481   3.170
   57DLPC   C26 2378   1.867   4.368   3.237
   57DLPC   C27 2379   1.765   4.307   3.141
   57DLPC   C28 2380   1.764   4.804   4.228
   57DLPC  OS29 2381   1.662   4.789   4.127
   57DLPC   C30 2382   1.706   4.742   4.006
   57DLPC   O31 2383   1.812   4.682   3.991
   57DLPC   C32 2384   1.598   4.756   3.899
   57DLPC   C33 2385   1.645   4.695   3.767
   57DLPC   C34 2386   1.545   4.724   3.655
   57DLPC   C35 2387   1.602   4.678   3.520
   57DLPC   C36 2388   1.518   4.732   3.404
   57DLPC   C37 2389   1.588   4.706   3.270
   57DLPC   C38 2390   1.516   4.778   3.155
   57DLPC   C39 2391   1.589   4.758   3.023
   57DLPC   C40 2392   1.520   4.835   2.910
   57DLPC   C41 2393   1.595   4.818   2.778
   57DLPC   C42 2394   1.527   4.896   2.666
   58DLPC    C1 2395   5.059   1.955   4.695
   58DLPC    C2 2396   4.901   1.870   4.539
   58DLPC    C3 2397   5.002   1.722   4.696
   58DLPC    N4 2398   5.025   1.840   4.611
   58DLPC    C5 2399   5.133   1.820   4.512
   58DLPC    C6 2400   5.270   1.779   4.569
   58DLPC   OS7 2401   5.387   1.816   4.497
   58DLPC    P8 2402   5.515   1.785   4.584
   58DLPC   OM9 2403   5.479   1.794   4.727
   58DLPC  OM10 2404   5.632   1.854   4.529
   58DLPC  OS11 2405   5.522   1.632   4.551
   58DLPC   C12 2406   5.585   1.605   4.426
   58DLPC   C13 2407   5.551   1.465   4.373
   58DLPC  OS14 2408   5.649   1.413   4.279
   58DLPC   C15 2409   5.678   1.280   4.281
   58DLPC   O16 2410   5.653   1.206   4.377
   58DLPC   C17 2411   0.060   1.244   4.162
   58DLPC   C18 2412   0.091   1.094   4.159
   58DLPC   C19 2413   0.150   1.054   4.024
   58DLPC   C20 2414   0.180   0.904   4.023
   58DLPC   C21 2415   0.219   0.854   3.883
   58DLPC   C22 2416   0.246   0.703   3.889
   58DLPC   C23 2417   0.259   0.642   3.749
   58DLPC   C24 2418   0.387   0.686   3.678
   58DLPC   C25 2419   0.393   0.622   3.539
   58DLPC   C26 2420   0.517   0.666   3.462
   58DLPC   C27 2421   0.517   0.607   3.320
   58DLPC   C28 2422   5.405   1.474   4.324
   58DLPC  OS29 2423   5.381   1.570   4.218
   58DLPC   C30 2424   5.252   1.605   4.191
   58DLPC   O31 2425   5.153   1.573   4.257
   58DLPC   C32 2426   5.253   1.701   4.073
   58DLPC   C33 2427   5.127   1.787   4.065
   58DLPC   C34 2428   5.143   1.887   3.951
   58DLPC   C35 2429   5.020   1.974   3.929
   58DLPC   C36 2430   5.046   2.069   3.811
   58DLPC   C37 2431   4.925   2.153   3.773
   58DLPC   C38 2432   4.960   2.239   3.652
   58DLPC   C39 2433   4.840   2.312   3.593
   58DLPC   C40 2434   4.881   2.392   3.469
   58DLPC   C41 2435   4.762   2.463   3.406
   58DLPC   C42 2436   4.806   2.544   3.284
   59DLPC    C1 2437   2.628   4.620   4.735
   59DLPC    C2 2438   2.840   4.551   4.649
   59DLPC    C3 2439   2.739   4.430   4.825
   59DLPC    N4 2440   2.760   4.565   4.771
   59DLPC    C5 2441   2.828   4.644   4.877
   59DLPC    C6 2442   2.867   4.793   4.853
   59DLPC   OS7 2443   2.965   4.811   4.751
   59DLPC    P8 2444   3.002   4.961   4.729
   59DLPC   OM9 2445   3.111   4.992   4.822
   59DLPC  OM10 2446   2.879   5.041   4.727
   59DLPC  OS11 2447   3.060   4.957   4.584
   59DLPC   C12 2448   2.963   4.910   4.490
   59DLPC   C13 2449   2.995   4.944   4.344
   59DLPC  OS14 2450   2.888   4.903   4.254
   59DLPC   C15 2451   2.859   4.990   4.154
   59DLPC   O16 2452   2.883   5.111   4.165
   59DLPC   C17 2453   2.763   4.927   4.055
   59DLPC   C18 2454   2.695   5.030   3.965
   59DLPC   C19 2455   2.612   4.959   3.857
   59DLPC   C20 2456   2.544   5.060   3.764
   59DLPC   C21 2457   2.473   4.988   3.650
   59DLPC   C22 2458   2.409   5.089   3.554
   59DLPC   C23 2459   2.343   5.020   3.435
   59DLPC   C24 2460   2.447   4.955   3.344
   59DLPC   C25 2461   2.537   5.059   3.277
   59DLPC   C26 2462   2.645   4.991   3.193
   59DLPC   C27 2463   2.740   5.095   3.133
   59DLPC   C28 2464   3.133   4.882   4.314
   59DLPC  OS29 2465   3.201   4.939   4.201
   59DLPC   C30 2466   3.270   5.054   4.224
   59DLPC   O31 2467   3.305   5.092   4.336
   59DLPC   C32 2468   3.322   5.112   4.093
   59DLPC   C33 2469   3.448   5.039   4.046
   59DLPC   C34 2470   3.497   5.095   3.913
   59DLPC   C35 2471   3.625   5.024   3.870
   59DLPC   C36 2472   3.670   5.068   3.731
   59DLPC   C37 2473   3.714   5.215   3.729
   59DLPC   C38 2474   3.766   5.252   3.590
   59DLPC   C39 2475   3.653   5.245   3.487
   59DLPC   C40 2476   3.706   5.279   3.348
   59DLPC   C41 2477   3.596   5.272   3.242
   59DLPC   C42 2478   3.652   5.302   3.103
   60DLPC    C1 2479   1.099   5.072   4.423
   60DLPC    C2 2480   0.916   4.949   4.509
   60DLPC    C3 2481   0.875   5.149   4.390
   60DLPC    N4 2482   0.967   5.085   4.485
   60DLPC    C5 2483   0.975   5.156   4.614
   60DLPC    C6 2484   1.003   5.309   4.618
   60DLPC   OS7 2485   1.124   5.352   4.557
   60DLPC    P8 2486   1.144   5.505   4.580
   60DLPC   OM9 2487   1.136   5.526   4.725
   60DLPC  OM10 2488   1.049   5.566   4.485
   60DLPC  OS11 2489   1.292   5.509   4.532
   60DLPC   C12 2490   1.310   5.552   4.398
   60DLPC   C13 2491   1.441   5.499   4.339
   60DLPC  OS14 2492   1.497   5.578   4.230
   60DLPC   C15 2493   1.579   0.028   4.260
   60DLPC   O16 2494   1.578   0.087   4.370
   60DLPC   C17 2495   1.644   0.080   4.133
   60DLPC   C18 2496   1.766   0.167   4.162
   60DLPC   C19 2497   1.831   0.212   4.031
   60DLPC   C20 2498   1.727   0.287   3.947
   60DLPC   C21 2499   1.788   0.353   3.823
   60DLPC   C22 2500   1.845   0.253   3.722
   60DLPC   C23 2501   1.887   0.329   3.596
   60DLPC   C24 2502   1.961   0.241   3.496
   60DLPC   C25 2503   2.099   0.201   3.550
   60DLPC   C26 2504   2.182   0.132   3.442
   60DLPC   C27 2505   2.220   0.230   3.330
   60DLPC   C28 2506   1.418   5.349   4.309
   60DLPC  OS29 2507   1.309   5.317   4.218
   60DLPC   C30 2508   1.322   5.195   4.158
   60DLPC   O31 2509   1.382   5.100   4.209
   60DLPC   C32 2510   1.218   5.177   4.049
   60DLPC   C33 2511   1.278   5.100   3.931
   60DLPC   C34 2512   1.170   5.058   3.831
   60DLPC   C35 2513   1.232   4.993   3.707
   60DLPC   C36 2514   1.122   4.938   3.615
   60DLPC   C37 2515   1.062   4.810   3.674
   60DLPC   C38 2516   0.941   4.762   3.594
   60DLPC   C39 2517   0.823   4.857   3.613
   60DLPC   C40 2518   0.694   4.804   3.548
   60DLPC   C41 2519   0.641   4.680   3.620
   60DLPC   C42 2520   0.595   4.709   3.762
   61DLPC    C1 2521   4.101   1.524   5.208
   61DLPC    C2 2522   3.944   1.357   5.150
   61DLPC    C3 2523   4.145   1.387   5.019
   61DLPC    N4 2524   4.039   1.455   5.095
   61DLPC    C5 2525   3.971   1.556   5.011
   61DLPC    C6 2526   3.901   1.513   4.879
   61DLPC   OS7 2527   3.840   1.623   4.812
   61DLPC    P8 2528   3.799   1.583   4.666
   61DLPC   OM9 2529   3.724   1.701   4.620
   61DLPC  OM10 2530   3.731   1.453   4.671
   61DLPC  OS11 2531   3.943   1.580   4.605
   61DLPC   C12 2532   3.953   1.649   4.481
   61DLPC   C13 2533   4.085   1.723   4.458
   61DLPC  OS14 2534   4.081   1.809   4.341
   61DLPC   C15 2535   4.157   1.922   4.343
   61DLPC   O16 2536   4.247   1.941   4.424
   61DLPC   C17 2537   4.139   2.002   4.214
   61DLPC   C18 2538   4.179   2.148   4.232
   61DLPC   C19 2539   4.061   2.233   4.280
   61DLPC   C20 2540   3.968   2.264   4.163
   61DLPC   C21 2541   4.034   2.362   4.066
   61DLPC   C22 2542   3.952   2.379   3.938
   61DLPC   C23 2543   3.955   2.252   3.854
   61DLPC   C24 2544   3.875   2.267   3.725
   61DLPC   C25 2545   3.947   2.355   3.622
   61DLPC   C26 2546   4.066   2.282   3.559
   61DLPC   C27 2547   4.020   2.168   3.469
   61DLPC   C28 2548   4.197   1.616   4.459
   61DLPC  OS29 2549   4.188   1.515   4.357
   61DLPC   C30 2550   4.305   1.478   4.297
   61DLPC   O31 2551   4.418   1.506   4.339
   61DLPC   C32 2552   4.277   1.385   4.180
   61DLPC   C33 2553   4.408   1.338   4.116
   61DLPC   C34 2554   4.380   1.266   3.984
   61DLPC   C35 2555   4.330   1.366   3.880
   61DLPC   C36 2556   4.301   1.301   3.745
   61DLPC   C37 2557   4.267   1.410   3.644
   61DLPC   C38 2558   4.390   1.498   3.621
   61DLPC   C39 2559   4.357   1.621   3.537
   61DLPC   C40 2560   4.322   1.584   3.393
   61DLPC   C41 2561   4.295   1.710   3.311
   61DLPC   C42 2562   4.171   1.784   3.364
   62DLPC    C1 2563   3.128   2.464   5.088
   62DLPC    C2 2564   2.938   2.319   5.091
   62DLPC    C3 2565   3.074   2.345   5.285
   62DLPC    N4 2566   3.076   2.336   5.139
   62DLPC    C5 2567   3.164   2.223   5.101
   62DLPC    C6 2568   3.173   2.177   4.953
   62DLPC   OS7 2569   3.232   2.270   4.862
   62DLPC    P8 2570   3.238   2.216   4.715
   62DLPC   OM9 2571   3.137   2.289   4.638
   62DLPC  OM10 2572   3.235   2.069   4.718
   62DLPC  OS11 2573   3.384   2.260   4.678
   62DLPC   C12 2574   3.396   2.267   4.536
   62DLPC   C13 2575   3.533   2.315   4.486
   62DLPC  OS14 2576   3.532   2.356   4.347
   62DLPC   C15 2577   3.605   2.467   4.316
   62DLPC   O16 2578   3.667   2.530   4.402
   62DLPC   C17 2579   3.591   2.502   4.169
   62DLPC   C18 2580   3.644   2.642   4.138
   62DLPC   C19 2581   3.596   2.687   3.999
   62DLPC   C20 2582   3.645   2.829   3.968
   62DLPC   C21 2583   3.582   2.884   3.840
   62DLPC   C22 2584   3.629   2.810   3.715
   62DLPC   C23 2585   3.569   2.875   3.590
   62DLPC   C24 2586   3.614   2.806   3.461
   62DLPC   C25 2587   3.558   2.880   3.339
   62DLPC   C26 2588   3.602   2.815   3.208
   62DLPC   C27 2589   3.537   2.678   3.189
   62DLPC   C28 2590   3.634   2.204   4.522
   62DLPC  OS29 2591   3.609   2.077   4.459
   62DLPC   C30 2592   3.719   2.006   4.423
   62DLPC   O31 2593   3.831   2.027   4.469
   62DLPC   C32 2594   3.680   1.887   4.336
   62DLPC   C33 2595   3.565   1.923   4.242
   62DLPC   C34 2596   3.611   2.014   4.127
   62DLPC   C35 2597   3.490   2.068   4.051
   62DLPC   C36 2598   3.532   2.159   3.935
   62DLPC   C37 2599   3.409   2.224   3.871
   62DLPC   C38 2600   3.446   2.312   3.752
   62DLPC   C39 2601   3.492   2.227   3.634
   62DLPC   C40 2602   3.531   2.313   3.514
   62DLPC   C41 2603   3.580   2.226   3.398
   62DLPC   C42 2604   3.624   2.312   3.279
   63DLPC    C1 2605   0.996   0.725   4.970
   63DLPC    C2 2606   1.061   0.496   4.978
   63DLPC    C3 2607   0.876   0.563   4.844
   63DLPC    N4 2608   1.010   0.602   4.891
   63DLPC    C5 2609   1.103   0.629   4.778
   63DLPC    C6 2610   1.148   0.511   4.688
   63DLPC   OS7 2611   1.044   0.453   4.609
   63DLPC    P8 2612   1.077   0.302   4.581
   63DLPC   OM9 2613   1.214   0.299   4.530
   63DLPC  OM10 2614   1.042   0.235   4.707
   63DLPC  OS11 2615   0.971   0.275   4.469
   63DLPC   C12 2616   1.035   0.214   4.357
   63DLPC   C13 2617   0.954   0.193   4.228
   63DLPC  OS14 2618   1.033   0.129   4.125
   63DLPC   C15 2619   0.964   0.054   4.035
   63DLPC   O16 2620   0.841   0.046   4.039
   63DLPC   C17 2621   1.052   5.652   3.925
   63DLPC   C18 2622   1.189   5.607   3.974
   63DLPC   C19 2623   1.273   5.556   3.857
   63DLPC   C20 2624   1.414   5.518   3.901
   63DLPC   C21 2625   1.499   5.470   3.784
   63DLPC   C22 2626   1.524   5.584   3.684
   63DLPC   C23 2627   1.611   5.537   3.569
   63DLPC   C24 2628   1.625   5.644   3.461
   63DLPC   C25 2629   1.709   5.592   3.344
   63DLPC   C26 2630   1.721   0.042   3.233
   63DLPC   C27 2631   1.808   5.644   3.119
   63DLPC   C28 2632   0.902   0.331   4.184
   63DLPC  OS29 2633   0.780   0.376   4.246
   63DLPC   C30 2634   0.734   0.493   4.193
   63DLPC   O31 2635   0.628   0.544   4.230
   63DLPC   C32 2636   0.826   0.546   4.084
   63DLPC   C33 2637   0.751   0.631   3.982
   63DLPC   C34 2638   0.845   0.676   3.870
   63DLPC   C35 2639   0.902   0.555   3.796
   63DLPC   C36 2640   0.987   0.595   3.675
   63DLPC   C37 2641   0.899   0.656   3.565
   63DLPC   C38 2642   0.972   0.657   3.430
   63DLPC   C39 2643   1.085   0.759   3.423
   63DLPC   C40 2644   1.032   0.902   3.409
   63DLPC   C41 2645   1.146   0.998   3.378
   63DLPC   C42 2646   1.203   0.973   3.238
   64DLPC    C1 2647   3.621   2.745   4.920
   64DLPC    C2 2648   3.621   2.599   4.732
   64DLPC    C3 2649   3.815   2.728   4.781
   64DLPC    N4 2650   3.668   2.729   4.782
   64DLPC    C5 2651   3.613   2.834   4.694
   64DLPC    C6 2652   3.646   2.981   4.727
   64DLPC   OS7 2653   3.563   3.074   4.659
   64DLPC    P8 2654   3.537   3.205   4.741
   64DLPC   OM9 2655   3.546   3.171   4.883
   64DLPC  OM10 2656   3.415   3.264   4.685
   64DLPC  OS11 2657   3.665   3.286   4.701
   64DLPC   C12 2658   3.648   3.351   4.574
   64DLPC   C13 2659   3.774   3.425   4.527
   64DLPC  OS14 2660   3.745   3.520   4.421
   64DLPC   C15 2661   3.773   3.650   4.446
   64DLPC   O16 2662   3.834   3.688   4.548
   64DLPC   C17 2663   3.732   3.740   4.331
   64DLPC   C18 2664   3.716   3.664   4.200
   64DLPC   C19 2665   3.701   3.765   4.086
   64DLPC   C20 2666   3.690   3.704   3.947
   64DLPC   C21 2667   3.701   3.818   3.846
   64DLPC   C22 2668   3.700   3.774   3.699
   64DLPC   C23 2669   3.558   3.742   3.651
   64DLPC   C24 2670   3.559   3.727   3.498
   64DLPC   C25 2671   3.593   3.862   3.434
   64DLPC   C26 2672   3.599   3.851   3.282
   64DLPC   C27 2673   3.719   3.768   3.237
   64DLPC   C28 2674   3.879   3.317   4.494
   64DLPC  OS29 2675   3.848   3.235   4.379
   64DLPC   C30 2676   3.920   3.265   4.268
   64DLPC   O31 2677   4.040   3.296   4.273
   64DLPC   C32 2678   3.855   3.202   4.146
   64DLPC   C33 2679   3.851   3.301   4.029
   64DLPC   C34 2680   3.790   3.236   3.905
   64DLPC   C35 2681   3.793   3.331   3.786
   64DLPC   C36 2682   3.736   3.264   3.661
   64DLPC   C37 2683   3.747   3.355   3.539
   64DLPC   C38 2684   3.688   3.287   3.415
   64DLPC   C39 2685   3.703   3.375   3.291
   64DLPC   C40 2686   3.643   3.306   3.168
   64DLPC   C41 2687   3.662   3.392   3.043
   64DLPC   C42 2688   3.810   3.404   3.006
   65DLPC    C1 2689   0.480   5.587   4.480
   65DLPC    C2 2690   0.416   5.578   4.248
   65DLPC    C3 2691   0.529   0.114   4.335
   65DLPC    N4 2692   0.428   0.011   4.366
   65DLPC    C5 2693   0.300   0.075   4.403
   65DLPC    C6 2694   0.179   5.637   4.429
   65DLPC   OS7 2695   0.059   0.042   4.477
   65DLPC    P8 2696   5.646   5.592   4.481
   65DLPC   OM9 2697   5.704   5.459   4.509
   65DLPC  OM10 2698   5.539   5.647   4.565
   65DLPC  OS11 2699   5.606   5.605   4.329
   65DLPC   C12 2700   5.521   0.064   4.305
   65DLPC   C13 2701   5.476   0.079   4.159
   65DLPC  OS14 2702   5.383   5.631   4.113
   65DLPC   C15 2703   5.252   0.014   4.104
   65DLPC   O16 2704   5.206   0.114   4.159
   65DLPC   C17 2705   5.169   5.559   4.038
   65DLPC   C18 2706   5.175   5.571   3.885
   65DLPC   C19 2707   5.087   0.030   3.834
   65DLPC   C20 2708   5.100   0.046   3.682
   65DLPC   C21 2709   5.003   0.152   3.631
   65DLPC   C22 2710   5.020   0.179   3.482
   65DLPC   C23 2711   4.906   0.268   3.432
   65DLPC   C24 2712   4.912   0.407   3.496
   65DLPC   C25 2713   4.788   0.489   3.457
   65DLPC   C26 2714   4.795   0.630   3.517
   65DLPC   C27 2715   4.906   0.711   3.450
   65DLPC   C28 2716   5.604   0.089   4.074
   65DLPC  OS29 2717   5.676   0.213   4.087
   65DLPC   C30 2718   0.107   0.203   4.079
   65DLPC   O31 2719   0.170   0.101   4.109
   65DLPC   C32 2720   0.169   0.342   4.073
   65DLPC   C33 2721   0.321   0.335   4.061
   65DLPC   C34 2722   0.365   0.290   3.921
   65DLPC   C35 2723   0.517   0.281   3.910
   65DLPC   C36 2724   0.558   0.229   3.773
   65DLPC   C37 2725   0.710   0.215   3.762
   65DLPC   C38 2726   0.750   0.148   3.630
   65DLPC   C39 2727   0.719   0.238   3.510
   65DLPC   C40 2728   0.754   0.165   3.380
   65DLPC   C41 2729   0.722   0.252   3.258
   65DLPC   C42 2730   0.820   0.369   3.246
   66DLPC    C1 2731   4.317   2.808   4.734
   66DLPC    C2 2732   4.320   3.000   4.873
   66DLPC    C3 2733   4.422   3.012   4.661
   66DLPC    N4 2734   4.398   2.923   4.776
   66DLPC    C5 2735   4.524   2.881   4.842
   66DLPC    C6 2736   4.639   2.818   4.759
   66DLPC   OS7 2737   4.598   2.701   4.689
   66DLPC    P8 2738   4.711   2.621   4.618
   66DLPC   OM9 2739   4.659   2.485   4.601
   66DLPC  OM10 2740   4.839   2.648   4.685
   66DLPC  OS11 2741   4.718   2.701   4.483
   66DLPC   C12 2742   4.605   2.683   4.399
   66DLPC   C13 2743   4.585   2.805   4.307
   66DLPC  OS14 2744   4.452   2.816   4.248
   66DLPC   C15 2745   4.401   2.943   4.247
   66DLPC   O16 2746   4.455   3.036   4.307
   66DLPC   C17 2747   4.260   2.947   4.192
   66DLPC   C18 2748   4.242   2.865   4.064
   66DLPC   C19 2749   4.093   2.857   4.029
   66DLPC   C20 2750   4.068   2.762   3.913
   66DLPC   C21 2751   4.116   2.820   3.780
   66DLPC   C22 2752   4.097   2.717   3.668
   66DLPC   C23 2753   4.135   2.775   3.532
   66DLPC   C24 2754   4.032   2.880   3.487
   66DLPC   C25 2755   4.065   2.928   3.345
   66DLPC   C26 2756   3.959   3.025   3.293
   66DLPC   C27 2757   3.988   3.065   3.148
   66DLPC   C28 2758   4.708   2.814   4.214
   66DLPC  OS29 2759   4.742   2.696   4.138
   66DLPC   C30 2760   4.873   2.688   4.102
   66DLPC   O31 2761   4.960   2.762   4.149
   66DLPC   C32 2762   4.901   2.565   4.019
   66DLPC   C33 2763   5.013   2.588   3.917
   66DLPC   C34 2764   4.968   2.673   3.799
   66DLPC   C35 2765   5.080   2.684   3.695
   66DLPC   C36 2766   5.037   2.759   3.569
   66DLPC   C37 2767   5.015   2.908   3.596
   66DLPC   C38 2768   4.989   2.983   3.466
   66DLPC   C39 2769   4.853   2.944   3.406
   66DLPC   C40 2770   4.833   3.010   3.269
   66DLPC   C41 2771   4.925   2.948   3.164
   66DLPC   C42 2772   4.901   3.011   3.027
   67DLPC    C1 2773   1.042   1.948   4.602
   67DLPC    C2 2774   1.144   1.971   4.813
   67DLPC    C3 2775   0.984   2.133   4.741
   67DLPC    N4 2776   1.017   1.990   4.740
   67DLPC    C5 2777   0.912   1.908   4.804
   67DLPC    C6 2778   0.770   1.897   4.742
   67DLPC   OS7 2779   0.687   2.014   4.743
   67DLPC    P8 2780   0.549   1.984   4.674
   67DLPC   OM9 2781   0.505   1.847   4.708
   67DLPC  OM10 2782   0.466   2.103   4.700
   67DLPC  OS11 2783   0.598   1.984   4.525
   67DLPC   C12 2784   0.525   2.076   4.443
   67DLPC   C13 2785   0.608   2.150   4.337
   67DLPC  OS14 2786   0.536   2.264   4.283
   67DLPC   C15 2787   0.613   2.371   4.245
   67DLPC   O16 2788   0.733   2.378   4.272
   67DLPC   C17 2789   0.530   2.479   4.179
   67DLPC   C18 2790   0.594   2.519   4.045
   67DLPC   C19 2791   0.587   2.401   3.948
   67DLPC   C20 2792   0.651   2.433   3.813
   67DLPC   C21 2793   0.659   2.306   3.729
   67DLPC   C22 2794   0.722   2.332   3.592
   67DLPC   C23 2795   0.738   2.200   3.515
   67DLPC   C24 2796   0.796   2.223   3.376
   67DLPC   C25 2797   0.693   2.284   3.281
   67DLPC   C26 2798   0.584   2.183   3.246
   67DLPC   C27 2799   0.480   2.245   3.152
   67DLPC   C28 2800   0.655   2.045   4.234
   67DLPC  OS29 2801   0.553   1.990   4.148
   67DLPC   C30 2802   0.598   1.922   4.038
   67DLPC   O31 2803   0.706   1.862   4.031
   67DLPC   C32 2804   0.483   1.899   3.943
   67DLPC   C33 2805   0.410   2.030   3.914
   67DLPC   C34 2806   0.310   2.014   3.799
   67DLPC   C35 2807   0.383   1.979   3.669
   67DLPC   C36 2808   0.289   1.983   3.549
   67DLPC   C37 2809   0.245   2.126   3.521
   67DLPC   C38 2810   0.158   2.135   3.396
   67DLPC   C39 2811   0.120   2.281   3.368
   67DLPC   C40 2812   0.042   2.294   3.238
   67DLPC   C41 2813   0.008   2.441   3.211
   67DLPC   C42 2814   5.633   2.455   3.081
   68DLPC    C1 2815   2.352   0.375   4.554
   68DLPC    C2 2816   2.431   0.442   4.769
   68DLPC    C3 2817   2.300   0.245   4.745
   68DLPC    N4 2818   2.318   0.383   4.696
   68DLPC    C5 2819   2.190   0.455   4.716
   68DLPC    C6 2820   2.178   0.607   4.687
   68DLPC   OS7 2821   2.245   0.691   4.782
   68DLPC    P8 2822   2.253   0.840   4.732
   68DLPC   OM9 2823   2.310   0.923   4.839
   68DLPC  OM10 2824   2.129   0.878   4.664
   68DLPC  OS11 2825   2.364   0.820   4.623
   68DLPC   C12 2826   2.364   0.925   4.527
   68DLPC   C13 2827   2.416   0.884   4.388
   68DLPC  OS14 2828   2.443   0.999   4.304
   68DLPC   C15 2829   2.573   1.031   4.279
   68DLPC   O16 2830   2.669   0.976   4.334
   68DLPC   C17 2831   2.583   1.150   4.186
   68DLPC   C18 2832   2.713   1.146   4.105
   68DLPC   C19 2833   2.717   1.260   4.004
   68DLPC   C20 2834   2.842   1.253   3.916
   68DLPC   C21 2835   2.839   1.364   3.811
   68DLPC   C22 2836   2.965   1.363   3.724
   68DLPC   C23 2837   2.959   1.474   3.619
   68DLPC   C24 2838   2.844   1.449   3.521
   68DLPC   C25 2839   2.839   1.556   3.413
   68DLPC   C26 2840   2.721   1.532   3.318
   68DLPC   C27 2841   2.587   1.552   3.391
   68DLPC   C28 2842   2.308   0.795   4.323
   68DLPC  OS29 2843   2.282   0.661   4.371
   68DLPC   C30 2844   2.192   0.596   4.292
   68DLPC   O31 2845   2.158   0.478   4.311
   68DLPC   C32 2846   2.143   0.689   4.183
   68DLPC   C33 2847   2.094   0.619   4.056
   68DLPC   C34 2848   2.076   0.724   3.947
   68DLPC   C35 2849   2.025   0.664   3.816
   68DLPC   C36 2850   2.015   0.771   3.707
   68DLPC   C37 2851   1.952   0.713   3.580
   68DLPC   C38 2852   1.946   0.816   3.468
   68DLPC   C39 2853   1.875   0.757   3.345
   68DLPC   C40 2854   1.953   0.638   3.290
   68DLPC   C41 2855   1.878   0.575   3.172
   68DLPC   C42 2856   1.952   0.451   3.120
   69DLPC    C1 2857   1.965   1.078   5.124
   69DLPC    C2 2858   1.918   1.305   5.055
   69DLPC    C3 2859   2.138   1.238   5.115
   69DLPC    N4 2860   2.015   1.194   5.049
   69DLPC    C5 2861   2.050   1.156   4.910
   69DLPC    C6 2862   1.936   1.130   4.809
   69DLPC   OS7 2863   1.848   1.019   4.832
   69DLPC    P8 2864   1.706   1.044   4.769
   69DLPC   OM9 2865   1.664   1.169   4.835
   69DLPC  OM10 2866   1.633   0.919   4.791
   69DLPC  OS11 2867   1.748   1.063   4.619
   69DLPC   C12 2868   1.752   0.941   4.545
   69DLPC   C13 2869   1.814   0.959   4.405
   69DLPC  OS14 2870   1.786   0.848   4.315
   69DLPC   C15 2871   1.711   0.885   4.207
   69DLPC   O16 2872   1.662   0.997   4.197
   69DLPC   C17 2873   1.688   0.770   4.111
   69DLPC   C18 2874   1.623   0.821   3.982
   69DLPC   C19 2875   1.608   0.708   3.880
   69DLPC   C20 2876   1.549   0.759   3.749
   69DLPC   C21 2877   1.544   0.647   3.645
   69DLPC   C22 2878   1.489   0.696   3.512
   69DLPC   C23 2879   1.490   0.584   3.408
   69DLPC   C24 2880   1.432   0.633   3.275
   69DLPC   C25 2881   1.430   0.521   3.171
   69DLPC   C26 2882   1.364   0.568   3.041
   69DLPC   C27 2883   1.214   0.593   3.062
   69DLPC   C28 2884   1.963   0.994   4.428
   69DLPC  OS29 2885   2.046   1.014   4.312
   69DLPC   C30 2886   2.051   1.138   4.256
   69DLPC   O31 2887   2.016   1.243   4.312
   69DLPC   C32 2888   2.137   1.133   4.131
   69DLPC   C33 2889   2.074   1.215   4.018
   69DLPC   C34 2890   1.958   1.139   3.953
   69DLPC   C35 2891   1.902   1.221   3.836
   69DLPC   C36 2892   1.800   1.141   3.754
   69DLPC   C37 2893   1.755   1.224   3.634
   69DLPC   C38 2894   1.675   1.140   3.534
   69DLPC   C39 2895   1.646   1.223   3.410
   69DLPC   C40 2896   1.588   1.138   3.297
   69DLPC   C41 2897   1.569   1.222   3.171
   69DLPC   C42 2898   1.519   1.136   3.055
   70DLPC    C1 2899   3.149   3.255   4.873
   70DLPC    C2 2900   3.132   3.093   4.700
   70DLPC    C3 2901   2.987   3.084   4.892
   70DLPC    N4 2902   3.123   3.113   4.846
   70DLPC    C5 2903   3.224   3.034   4.919
   70DLPC    C6 2904   3.222   2.879   4.917
   70DLPC   OS7 2905   3.252   2.820   4.791
   70DLPC    P8 2906   3.239   2.664   4.796
   70DLPC   OM9 2907   3.095   2.641   4.815
   70DLPC  OM10 2908   3.337   2.620   4.897
   70DLPC  OS11 2909   3.285   2.635   4.650
   70DLPC   C12 2910   3.178   2.658   4.557
   70DLPC   C13 2911   3.213   2.653   4.407
   70DLPC  OS14 2912   3.229   2.520   4.350
   70DLPC   C15 2913   3.124   2.465   4.283
   70DLPC   O16 2914   3.008   2.507   4.291
   70DLPC   C17 2915   3.166   2.332   4.220
   70DLPC   C18 2916   3.056   2.267   4.137
   70DLPC   C19 2917   3.039   2.333   3.999
   70DLPC   C20 2918   2.927   2.262   3.922
   70DLPC   C21 2919   2.906   2.320   3.782
   70DLPC   C22 2920   3.022   2.285   3.688
   70DLPC   C23 2921   2.992   2.334   3.546
   70DLPC   C24 2922   3.109   2.304   3.452
   70DLPC   C25 2923   3.079   2.354   3.311
   70DLPC   C26 2924   3.198   2.328   3.218
   70DLPC   C27 2925   3.169   2.378   3.076
   70DLPC   C28 2926   3.336   2.743   4.388
   70DLPC  OS29 2927   3.310   2.884   4.396
   70DLPC   C30 2928   3.418   2.963   4.373
   70DLPC   O31 2929   3.533   2.920   4.357
   70DLPC   C32 2930   3.380   3.109   4.363
   70DLPC   C33 2931   3.435   3.164   4.233
   70DLPC   C34 2932   3.374   3.300   4.197
   70DLPC   C35 2933   3.409   3.334   4.053
   70DLPC   C36 2934   3.333   3.457   4.004
   70DLPC   C37 2935   3.358   3.476   3.854
   70DLPC   C38 2936   3.300   3.360   3.773
   70DLPC   C39 2937   3.320   3.382   3.624
   70DLPC   C40 2938   3.261   3.267   3.542
   70DLPC   C41 2939   3.278   3.293   3.392
   70DLPC   C42 2940   3.221   3.177   3.310
   71DLPC    C1 2941   3.523   0.088   4.904
   71DLPC    C2 2942   3.615   0.224   4.735
   71DLPC    C3 2943   3.648   0.280   4.967
   71DLPC    N4 2944   3.553   0.227   4.868
   71DLPC    C5 2945   3.425   0.301   4.868
   71DLPC    C6 2946   3.424   0.450   4.827
   71DLPC   OS7 2947   3.297   0.514   4.838
   71DLPC    P8 2948   3.307   0.668   4.809
   71DLPC   OM9 2949   3.172   0.723   4.825
   71DLPC  OM10 2950   3.420   0.716   4.890
   71DLPC  OS11 2951   3.355   0.668   4.660
   71DLPC   C12 2952   3.254   0.704   4.566
   71DLPC   C13 2953   3.314   0.746   4.430
   71DLPC  OS14 2954   3.215   0.802   4.339
   71DLPC   C15 2955   3.205   0.938   4.336
   71DLPC   O16 2956   3.260   1.012   4.418
   71DLPC   C17 2957   3.098   0.982   4.237
   71DLPC   C18 2958   3.111   1.130   4.201
   71DLPC   C19 2959   3.224   1.154   4.102
   71DLPC   C20 2960   3.234   1.303   4.067
   71DLPC   C21 2961   3.339   1.327   3.958
   71DLPC   C22 2962   3.348   1.476   3.925
   71DLPC   C23 2963   3.443   1.502   3.808
   71DLPC   C24 2964   3.386   1.443   3.679
   71DLPC   C25 2965   3.477   1.471   3.560
   71DLPC   C26 2966   3.422   1.409   3.432
   71DLPC   C27 2967   3.293   1.479   3.388
   71DLPC   C28 2968   3.391   0.624   4.377
   71DLPC  OS29 2969   3.309   0.510   4.343
   71DLPC   C30 2970   3.369   0.390   4.330
   71DLPC   O31 2971   3.490   0.369   4.349
   71DLPC   C32 2972   3.269   0.284   4.288
   71DLPC   C33 2973   3.189   0.329   4.165
   71DLPC   C34 2974   3.096   0.219   4.117
   71DLPC   C35 2975   3.012   0.265   3.997
   71DLPC   C36 2976   2.915   0.154   3.955
   71DLPC   C37 2977   2.819   0.201   3.846
   71DLPC   C38 2978   2.886   0.214   3.710
   71DLPC   C39 2979   2.781   0.249   3.603
   71DLPC   C40 2980   2.843   0.261   3.464
   71DLPC   C41 2981   2.734   0.289   3.360
   71DLPC   C42 2982   2.794   0.306   3.220
   72DLPC    C1 2983   2.543   2.996   4.307
   72DLPC    C2 2984   2.440   2.829   4.440
   72DLPC    C3 2985   2.318   2.926   4.260
   72DLPC    N4 2986   2.415   2.954   4.367
   72DLPC    C5 2987   2.364   3.052   4.465
   72DLPC    C6 2988   2.312   3.190   4.416
   72DLPC   OS7 2989   2.408   3.274   4.352
   72DLPC    P8 2990   2.345   3.410   4.307
   72DLPC   OM9 2991   2.455   3.490   4.253
   72DLPC  OM10 2992   2.266   3.458   4.421
   72DLPC  OS11 2993   2.247   3.363   4.194
   72DLPC   C12 2994   2.309   3.350   4.067
   72DLPC   C13 2995   2.272   3.219   3.995
   72DLPC  OS14 2996   2.356   3.193   3.879
   72DLPC   C15 2997   2.465   3.115   3.902
   72DLPC   O16 2998   2.478   3.050   4.005
   72DLPC   C17 2999   2.554   3.107   3.779
   72DLPC   C18 3000   2.697   3.152   3.811
   72DLPC   C19 3001   2.703   3.304   3.833
   72DLPC   C20 3002   2.689   3.381   3.701
   72DLPC   C21 3003   2.674   3.531   3.728
   72DLPC   C22 3004   2.802   3.594   3.785
   72DLPC   C23 3005   2.905   3.626   3.676
   72DLPC   C24 3006   3.028   3.693   3.739
   72DLPC   C25 3007   3.128   3.739   3.633
   72DLPC   C26 3008   3.076   3.861   3.556
   72DLPC   C27 3009   3.178   3.908   3.452
   72DLPC   C28 3010   2.120   3.217   3.974
   72DLPC  OS29 3011   2.062   3.324   3.896
   72DLPC   C30 3012   1.927   3.319   3.881
   72DLPC   O31 3013   1.851   3.266   3.962
   72DLPC   C32 3014   1.881   3.423   3.780
   72DLPC   C33 3015   1.728   3.431   3.780
   72DLPC   C34 3016   1.679   3.540   3.684
   72DLPC   C35 3017   1.725   3.678   3.731
   72DLPC   C36 3018   1.670   3.789   3.641
   72DLPC   C37 3019   1.725   3.924   3.684
   72DLPC   C38 3020   1.666   4.038   3.601
   72DLPC   C39 3021   1.518   4.058   3.635
   72DLPC   C40 3022   1.460   4.179   3.562
   72DLPC   C41 3023   1.314   4.202   3.601
   72DLPC   C42 3024   1.258   4.327   3.533
   73DLPC    C1 3025   2.687   3.712   4.418
   73DLPC    C2 3026   2.530   3.696   4.594
   73DLPC    C3 3027   2.465   3.779   4.377
   73DLPC    N4 3028   2.571   3.778   4.478
   73DLPC    C5 3029   2.612   3.915   4.518
   73DLPC    C6 3030   2.505   4.018   4.564
   73DLPC   OS7 3031   2.560   4.148   4.587
   73DLPC    P8 3032   2.453   4.256   4.628
   73DLPC   OM9 3033   2.470   4.285   4.771
   73DLPC  OM10 3034   2.321   4.218   4.575
   73DLPC  OS11 3035   2.518   4.368   4.540
   73DLPC   C12 3036   2.469   4.364   4.406
   73DLPC   C13 3037   2.531   4.464   4.307
   73DLPC  OS14 3038   2.449   4.478   4.188
   73DLPC   C15 3039   2.459   4.597   4.120
   73DLPC   O16 3040   2.489   4.702   4.177
   73DLPC   C17 3041   2.389   4.587   3.985
   73DLPC   C18 3042   2.490   4.571   3.872
   73DLPC   C19 3043   2.420   4.561   3.736
   73DLPC   C20 3044   2.522   4.551   3.622
   73DLPC   C21 3045   2.453   4.552   3.485
   73DLPC   C22 3046   2.556   4.552   3.372
   73DLPC   C23 3047   2.491   4.560   3.234
   73DLPC   C24 3048   2.599   4.575   3.126
   73DLPC   C25 3049   2.540   4.581   2.985
   73DLPC   C26 3050   2.484   4.445   2.943
   73DLPC   C27 3051   2.430   4.450   2.800
   73DLPC   C28 3052   2.676   4.416   4.286
   73DLPC  OS29 3053   2.758   4.501   4.204
   73DLPC   C30 3054   2.886   4.464   4.179
   73DLPC   O31 3055   2.936   4.357   4.215
   73DLPC   C32 3056   2.955   4.568   4.093
   73DLPC   C33 3057   3.096   4.524   4.052
   73DLPC   C34 3058   3.161   4.630   3.963
   73DLPC   C35 3059   3.301   4.585   3.919
   73DLPC   C36 3060   3.368   4.691   3.832
   73DLPC   C37 3061   3.297   4.707   3.697
   73DLPC   C38 3062   3.366   4.812   3.611
   73DLPC   C39 3063   3.294   4.829   3.477
   73DLPC   C40 3064   3.363   4.936   3.391
   73DLPC   C41 3065   3.289   4.956   3.259
   73DLPC   C42 3066   3.150   5.016   3.281
   74DLPC    C1 3067   5.035   3.707   4.625
   74DLPC    C2 3068   5.105   3.498   4.718
   74DLPC    C3 3069   5.143   3.544   4.490
   74DLPC    N4 3070   5.047   3.563   4.600
   74DLPC    C5 3071   4.920   3.497   4.559
   74DLPC    C6 3072   4.791   3.515   4.643
   74DLPC   OS7 3073   4.736   3.647   4.635
   74DLPC    P8 3074   4.612   3.665   4.729
   74DLPC   OM9 3075   4.530   3.544   4.719
   74DLPC  OM10 3076   4.670   3.708   4.857
   74DLPC  OS11 3077   4.533   3.785   4.665
   74DLPC   C12 3078   4.500   3.755   4.529
   74DLPC   C13 3079   4.419   3.864   4.458
   74DLPC  OS14 3080   4.393   3.829   4.319
   74DLPC   C15 3081   4.265   3.795   4.288
   74DLPC   O16 3082   4.173   3.809   4.369
   74DLPC   C17 3083   4.251   3.756   4.142
   74DLPC   C18 3084   4.110   3.705   4.115
   74DLPC   C19 3085   4.098   3.648   3.973
   74DLPC   C20 3086   4.116   3.756   3.867
   74DLPC   C21 3087   4.096   3.696   3.728
   74DLPC   C22 3088   4.107   3.800   3.617
   74DLPC   C23 3089   4.082   3.734   3.481
   74DLPC   C24 3090   4.089   3.835   3.367
   74DLPC   C25 3091   4.230   3.892   3.352
   74DLPC   C26 3092   4.237   3.988   3.233
   74DLPC   C27 3093   4.221   3.913   3.101
   74DLPC   C28 3094   4.500   3.994   4.471
   74DLPC  OS29 3095   4.423   4.115   4.455
   74DLPC   C30 3096   4.473   4.204   4.364
   74DLPC   O31 3097   4.458   4.325   4.380
   74DLPC   C32 3098   4.580   4.142   4.275
   74DLPC   C33 3099   4.578   4.201   4.133
   74DLPC   C34 3100   4.468   4.138   4.048
   74DLPC   C35 3101   4.472   4.191   3.905
   74DLPC   C36 3102   4.374   4.115   3.815
   74DLPC   C37 3103   4.378   4.168   3.671
   74DLPC   C38 3104   4.516   4.150   3.609
   74DLPC   C39 3105   4.517   4.192   3.462
   74DLPC   C40 3106   4.658   4.184   3.402
   74DLPC   C41 3107   4.709   4.040   3.393
   74DLPC   C42 3108   4.633   3.958   3.289
   75DLPC    C1 3109   5.479   1.977   5.033
   75DLPC    C2 3110   5.681   1.899   4.930
   75DLPC    C3 3111   5.692   2.051   5.111
   75DLPC    N4 3112   5.614   2.015   4.991
   75DLPC    C5 3113   5.613   2.131   4.899
   75DLPC    C6 3114   5.535   2.122   4.766
   75DLPC   OS7 3115   5.520   2.247   4.700
   75DLPC    P8 3116   5.402   2.246   4.597
   75DLPC   OM9 3117   5.296   2.160   4.650
   75DLPC  OM10 3118   5.379   2.386   4.559
   75DLPC  OS11 3119   5.477   2.176   4.479
   75DLPC   C12 3120   5.392   2.165   4.366
   75DLPC   C13 3121   5.467   2.134   4.235
   75DLPC  OS14 3122   5.394   2.174   4.116
   75DLPC   C15 3123   5.473   2.227   4.017
   75DLPC   O16 3124   5.574   2.292   4.044
   75DLPC   C17 3125   5.393   2.241   3.889
   75DLPC   C18 3126   5.426   2.374   3.820
   75DLPC   C19 3127   5.347   2.390   3.690
   75DLPC   C20 3128   5.391   2.289   3.585
   75DLPC   C21 3129   5.325   2.318   3.450
   75DLPC   C22 3130   5.366   2.216   3.344
   75DLPC   C23 3131   5.292   2.083   3.360
   75DLPC   C24 3132   5.144   2.103   3.327
   75DLPC   C25 3133   5.067   1.971   3.329
   75DLPC   C26 3134   4.918   1.996   3.305
   75DLPC   C27 3135   4.893   2.055   3.166
   75DLPC   C28 3136   5.514   1.987   4.245
   75DLPC  OS29 3137   5.569   1.929   4.124
   75DLPC   C30 3138   5.673   1.842   4.135
   75DLPC   O31 3139   0.039   1.827   4.235
   75DLPC   C32 3140   0.001   1.781   4.001
   75DLPC   C33 3141   0.118   1.684   4.019
   75DLPC   C34 3142   0.172   1.626   3.888
   75DLPC   C35 3143   0.078   1.523   3.826
   75DLPC   C36 3144   0.147   1.457   3.707
   75DLPC   C37 3145   0.056   1.358   3.635
   75DLPC   C38 3146   0.134   1.290   3.522
   75DLPC   C39 3147   0.044   1.199   3.438
   75DLPC   C40 3148   5.697   1.080   3.519
   75DLPC   C41 3149   5.611   0.990   3.431
   75DLPC   C42 3150   5.485   1.063   3.385
   76DLPC    C1 3151   0.141   2.311   4.543
   76DLPC    C2 3152   5.682   2.429   4.420
   76DLPC    C3 3153   0.182   2.537   4.479
   76DLPC    N4 3154   0.079   2.443   4.525
   76DLPC    C5 3155   0.018   2.482   4.654
   76DLPC    C6 3156   5.632   2.607   4.662
   76DLPC   OS7 3157   5.699   2.732   4.648
   76DLPC    P8 3158   5.597   2.852   4.630
   76DLPC   OM9 3159   5.478   2.821   4.711
   76DLPC  OM10 3160   5.674   2.975   4.652
   76DLPC  OS11 3161   5.568   2.831   4.477
   76DLPC   C12 3162   5.674   2.882   4.397
   76DLPC   C13 3163   5.672   2.835   4.251
   76DLPC  OS14 3164   0.093   2.856   4.181
   76DLPC   C15 3165   0.134   2.749   4.108
   76DLPC   O16 3166   0.098   2.633   4.136
   76DLPC   C17 3167   0.244   2.786   4.011
   76DLPC   C18 3168   0.246   2.688   3.893
   76DLPC   C19 3169   0.120   2.701   3.808
   76DLPC   C20 3170   0.118   2.594   3.699
   76DLPC   C21 3171   5.688   2.590   3.626
   76DLPC   C22 3172   5.663   2.714   3.540
   76DLPC   C23 3173   5.526   2.703   3.473
   76DLPC   C24 3174   5.500   2.819   3.377
   76DLPC   C25 3175   5.360   2.806   3.316
   76DLPC   C26 3176   5.349   2.680   3.230
   76DLPC   C27 3177   5.208   2.663   3.173
   76DLPC   C28 3178   5.548   2.899   4.187
   76DLPC  OS29 3179   5.529   2.870   4.048
   76DLPC   C30 3180   5.413   2.913   3.992
   76DLPC   O31 3181   5.329   2.981   4.052
   76DLPC   C32 3182   5.405   2.871   3.846
   76DLPC   C33 3183   5.363   2.989   3.759
   76DLPC   C34 3184   5.481   3.081   3.725
   76DLPC   C35 3185   5.431   3.207   3.654
   76DLPC   C36 3186   5.543   3.281   3.581
   76DLPC   C37 3187   5.489   3.410   3.519
   76DLPC   C38 3188   5.581   3.462   3.408
   76DLPC   C39 3189   0.012   3.510   3.459
   76DLPC   C40 3190   0.094   3.566   3.342
   76DLPC   C41 3191   0.230   3.617   3.387
   76DLPC   C42 3192   0.304   3.684   3.271
   77DLPC    C1 3193   3.140   4.105   4.545
   77DLPC    C2 3194   3.069   4.157   4.769
   77DLPC    C3 3195   3.300   4.144   4.715
   77DLPC    N4 3196   3.168   4.085   4.688
   77DLPC    C5 3197   3.172   3.941   4.725
   77DLPC    C6 3198   3.044   3.855   4.716
   77DLPC   OS7 3199   3.062   3.722   4.764
   77DLPC    P8 3200   2.927   3.643   4.773
   77DLPC   OM9 3201   2.957   3.525   4.856
   77DLPC  OM10 3202   2.819   3.736   4.809
   77DLPC  OS11 3203   2.912   3.606   4.622
   77DLPC   C12 3204   2.977   3.483   4.590
   77DLPC   C13 3205   2.994   3.457   4.439
   77DLPC  OS14 3206   3.029   3.320   4.406
   77DLPC   C15 3207   2.947   3.263   4.313
   77DLPC   O16 3208   2.834   3.308   4.292
   77DLPC   C17 3209   3.001   3.132   4.260
   77DLPC   C18 3210   2.964   3.117   4.113
   77DLPC   C19 3211   3.058   3.020   4.040
   77DLPC   C20 3212   3.042   2.877   4.089
   77DLPC   C21 3213   3.135   2.784   4.011
   77DLPC   C22 3214   3.090   2.777   3.864
   77DLPC   C23 3215   3.187   2.694   3.780
   77DLPC   C24 3216   3.140   2.690   3.635
   77DLPC   C25 3217   3.145   2.829   3.571
   77DLPC   C26 3218   3.089   2.826   3.429
   77DLPC   C27 3219   3.178   2.743   3.337
   77DLPC   C28 3220   3.092   3.563   4.387
   77DLPC  OS29 3221   3.026   3.678   4.329
   77DLPC   C30 3222   3.106   3.775   4.277
   77DLPC   O31 3223   3.214   3.809   4.327
   77DLPC   C32 3224   3.019   3.866   4.193
   77DLPC   C33 3225   3.098   3.942   4.086
   77DLPC   C34 3226   3.003   4.032   4.007
   77DLPC   C35 3227   3.076   4.108   3.896
   77DLPC   C36 3228   2.979   4.200   3.821
   77DLPC   C37 3229   3.051   4.274   3.708
   77DLPC   C38 3230   2.959   4.375   3.639
   77DLPC   C39 3231   3.034   4.448   3.528
   77DLPC   C40 3232   2.948   4.556   3.463
   77DLPC   C41 3233   2.920   4.670   3.560
   77DLPC   C42 3234   2.840   4.781   3.492
   78DLPC    C1 3235   1.430   4.567   4.289
   78DLPC    C2 3236   1.306   4.742   4.182
   78DLPC    C3 3237   1.405   4.779   4.393
   78DLPC    N4 3238   1.337   4.679   4.311
   78DLPC    C5 3239   1.214   4.636   4.383
   78DLPC    C6 3240   1.116   4.532   4.322
   78DLPC   OS7 3241   1.163   4.397   4.314
   78DLPC    P8 3242   1.059   4.303   4.240
   78DLPC   OM9 3243   1.006   4.381   4.127
   78DLPC  OM10 3244   0.969   4.253   4.344
   78DLPC  OS11 3245   1.160   4.193   4.195
   78DLPC   C12 3246   1.234   4.232   4.080
   78DLPC   C13 3247   1.369   4.161   4.069
   78DLPC  OS14 3248   1.467   4.234   3.989
   78DLPC   C15 3249   1.595   4.222   4.032
   78DLPC   O16 3250   1.622   4.166   4.138
   78DLPC   C17 3251   1.696   4.293   3.943
   78DLPC   C18 3252   1.833   4.294   4.012
   78DLPC   C19 3253   1.943   4.344   3.918
   78DLPC   C20 3254   1.965   4.246   3.804
   78DLPC   C21 3255   2.080   4.290   3.713
   78DLPC   C22 3256   2.093   4.195   3.593
   78DLPC   C23 3257   2.209   4.237   3.503
   78DLPC   C24 3258   2.211   4.154   3.375
   78DLPC   C25 3259   2.326   4.196   3.283
   78DLPC   C26 3260   2.316   4.126   3.147
   78DLPC   C27 3261   2.338   3.975   3.161
   78DLPC   C28 3262   1.338   4.014   4.034
   78DLPC  OS29 3263   1.257   3.994   3.917
   78DLPC   C30 3264   1.229   3.864   3.885
   78DLPC   O31 3265   1.274   3.767   3.947
   78DLPC   C32 3266   1.140   3.858   3.762
   78DLPC   C33 3267   1.177   3.742   3.670
   78DLPC   C34 3268   1.087   3.744   3.546
   78DLPC   C35 3269   1.123   3.632   3.448
   78DLPC   C36 3270   1.035   3.639   3.323
   78DLPC   C37 3271   1.076   3.534   3.220
   78DLPC   C38 3272   1.048   3.393   3.271
   78DLPC   C39 3273   1.086   3.287   3.167
   78DLPC   C40 3274   1.238   3.278   3.149
   78DLPC   C41 3275   1.275   3.169   3.049
   78DLPC   C42 3276   1.426   3.158   3.032
   79DLPC    C1 3277   5.035   2.790   4.484
   79DLPC    C2 3278   5.258   2.787   4.406
   79DLPC    C3 3279   5.208   2.681   4.612
   79DLPC    N4 3280   5.157   2.708   4.477
   79DLPC    C5 3281   5.138   2.583   4.400
   79DLPC    C6 3282   5.047   2.470   4.453
   79DLPC   OS7 3283   5.046   2.356   4.367
   79DLPC    P8 3284   4.992   2.227   4.439
   79DLPC   OM9 3285   5.066   2.112   4.386
   79DLPC  OM10 3286   4.979   2.248   4.584
   79DLPC  OS11 3287   4.846   2.222   4.382
   79DLPC   C12 3288   4.839   2.165   4.251
   79DLPC   C13 3289   4.697   2.117   4.216
   79DLPC  OS14 3290   4.694   2.013   4.115
   79DLPC   C15 3291   4.663   1.886   4.155
   79DLPC   O16 3292   4.658   1.852   4.274
   79DLPC   C17 3293   4.659   1.791   4.037
   79DLPC   C18 3294   4.522   1.725   4.022
   79DLPC   C19 3295   4.420   1.822   3.962
   79DLPC   C20 3296   4.287   1.751   3.935
   79DLPC   C21 3297   4.185   1.844   3.869
   79DLPC   C22 3298   4.052   1.772   3.847
   79DLPC   C23 3299   3.945   1.869   3.797
   79DLPC   C24 3300   3.809   1.800   3.781
   79DLPC   C25 3301   3.808   1.709   3.658
   79DLPC   C26 3302   3.799   1.791   3.528
   79DLPC   C27 3303   3.661   1.854   3.514
   79DLPC   C28 3304   4.612   2.242   4.186
   79DLPC  OS29 3305   4.645   2.311   4.063
   79DLPC   C30 3306   4.541   2.374   4.001
   79DLPC   O31 3307   4.434   2.401   4.056
   79DLPC   C32 3308   4.582   2.429   3.866
   79DLPC   C33 3309   4.531   2.572   3.846
   79DLPC   C34 3310   4.575   2.628   3.711
   79DLPC   C35 3311   4.535   2.775   3.697
   79DLPC   C36 3312   4.616   2.863   3.792
   79DLPC   C37 3313   4.566   3.007   3.787
   79DLPC   C38 3314   4.640   3.098   3.885
   79DLPC   C39 3315   4.775   3.144   3.832
   79DLPC   C40 3316   4.833   3.251   3.926
   79DLPC   C41 3317   4.963   3.310   3.871
   79DLPC   C42 3318   5.076   3.207   3.878
   80DLPC    C1 3319   2.148   4.319   4.849
   80DLPC    C2 3320   2.010   4.243   5.027
   80DLPC    C3 3321   2.211   4.128   4.982
   80DLPC    N4 3322   2.099   4.199   4.919
   80DLPC    C5 3323   2.022   4.109   4.829
   80DLPC    C6 3324   2.101   4.038   4.718
   80DLPC   OS7 3325   2.031   3.937   4.646
   80DLPC    P8 3326   2.130   3.849   4.561
   80DLPC   OM9 3327   2.053   3.732   4.516
   80DLPC  OM10 3328   2.253   3.832   4.640
   80DLPC  OS11 3329   2.165   3.940   4.439
   80DLPC   C12 3330   2.054   3.957   4.352
   80DLPC   C13 3331   2.087   4.005   4.209
   80DLPC  OS14 3332   2.121   3.898   4.116
   80DLPC   C15 3333   2.018   3.841   4.048
   80DLPC   O16 3334   1.903   3.835   4.094
   80DLPC   C17 3335   2.069   3.752   3.936
   80DLPC   C18 3336   2.158   3.831   3.839
   80DLPC   C19 3337   2.166   3.759   3.704
   80DLPC   C20 3338   2.237   3.624   3.715
   80DLPC   C21 3339   2.211   3.544   3.587
   80DLPC   C22 3340   2.263   3.401   3.597
   80DLPC   C23 3341   2.178   3.310   3.509
   80DLPC   C24 3342   2.221   3.163   3.517
   80DLPC   C25 3343   2.340   3.135   3.424
   80DLPC   C26 3344   2.295   3.142   3.278
   80DLPC   C27 3345   2.196   3.029   3.246
   80DLPC   C28 3346   2.189   4.120   4.224
   80DLPC  OS29 3347   2.243   4.172   4.101
   80DLPC   C30 3348   2.371   4.135   4.074
   80DLPC   O31 3349   2.455   4.103   4.160
   80DLPC   C32 3350   2.406   4.166   3.929
   80DLPC   C33 3351   2.555   4.144   3.900
   80DLPC   C34 3352   2.575   4.113   3.751
   80DLPC   C35 3353   2.515   3.976   3.721
   80DLPC   C36 3354   2.513   3.942   3.572
   80DLPC   C37 3355   2.652   3.914   3.515
   80DLPC   C38 3356   2.639   3.861   3.372
   80DLPC   C39 3357   2.775   3.828   3.311
   80DLPC   C40 3358   2.758   3.771   3.170
   80DLPC   C41 3359   2.894   3.741   3.107
   80DLPC   C42 3360   2.971   3.871   3.083
   81DLPC    C1 3361   5.497   4.648   4.501
   81DLPC    C2 3362   5.319   4.495   4.534
   81DLPC    C3 3363   5.405   4.534   4.314
   81DLPC    N4 3364   5.441   4.520   4.456
   81DLPC    C5 3365   5.544   4.416   4.478
   81DLPC    C6 3366   5.519   4.271   4.430
   81DLPC   OS7 3367   5.414   4.205   4.498
   81DLPC    P8 3368   5.382   4.065   4.437
   81DLPC   OM9 3369   5.447   4.046   4.307
   81DLPC  OM10 3370   5.399   3.963   4.542
   81DLPC  OS11 3371   5.228   4.088   4.420
   81DLPC   C12 3372   5.177   4.009   4.313
   81DLPC   C13 3373   5.024   4.015   4.304
   81DLPC  OS14 3374   4.972   3.909   4.219
   81DLPC   C15 3375   4.858   3.844   4.255
   81DLPC   O16 3376   4.796   3.870   4.359
   81DLPC   C17 3377   4.823   3.738   4.152
   81DLPC   C18 3378   4.685   3.675   4.168
   81DLPC   C19 3379   4.688   3.548   4.253
   81DLPC   C20 3380   4.552   3.478   4.249
   81DLPC   C21 3381   4.519   3.438   4.105
   81DLPC   C22 3382   4.383   3.369   4.094
   81DLPC   C23 3383   4.356   3.333   3.947
   81DLPC   C24 3384   4.225   3.257   3.931
   81DLPC   C25 3385   4.208   3.207   3.787
   81DLPC   C26 3386   4.193   3.323   3.689
   81DLPC   C27 3387   4.176   3.273   3.546
   81DLPC   C28 3388   4.989   4.161   4.269
   81DLPC  OS29 3389   5.040   4.210   4.143
   81DLPC   C30 3390   5.055   4.345   4.128
   81DLPC   O31 3391   5.078   4.423   4.221
   81DLPC   C32 3392   5.088   4.378   3.983
   81DLPC   C33 3393   5.054   4.263   3.888
   81DLPC   C34 3394   4.906   4.259   3.847
   81DLPC   C35 3395   4.879   4.129   3.771
   81DLPC   C36 3396   4.876   4.011   3.868
   81DLPC   C37 3397   4.886   3.876   3.796
   81DLPC   C38 3398   4.763   3.840   3.713
   81DLPC   C39 3399   4.645   3.797   3.800
   81DLPC   C40 3400   4.530   3.747   3.712
   81DLPC   C41 3401   4.570   3.619   3.639
   81DLPC   C42 3402   4.460   3.573   3.543
   82DLPC    C1 3403   3.584   4.951   4.749
   82DLPC    C2 3404   3.532   4.818   4.562
   82DLPC    C3 3405   3.382   4.993   4.629
   82DLPC    N4 3406   3.473   4.888   4.677
   82DLPC    C5 3407   3.402   4.798   4.771
   82DLPC    C6 3408   3.289   4.705   4.722
   82DLPC   OS7 3409   3.333   4.593   4.644
   82DLPC    P8 3410   3.209   4.522   4.579
   82DLPC   OM9 3411   3.141   4.622   4.496
   82DLPC  OM10 3412   3.143   4.453   4.689
   82DLPC  OS11 3413   3.288   4.419   4.492
   82DLPC   C12 3414   3.337   4.477   4.371
   82DLPC   C13 3415   3.491   4.485   4.365
   82DLPC  OS14 3416   3.541   4.571   4.259
   82DLPC   C15 3417   3.672   4.609   4.266
   82DLPC   O16 3418   3.734   4.605   4.373
   82DLPC   C17 3419   3.717   4.682   4.142
   82DLPC   C18 3420   3.723   4.591   4.019
   82DLPC   C19 3421   3.776   4.671   3.900
   82DLPC   C20 3422   3.762   4.599   3.766
   82DLPC   C21 3423   3.799   4.697   3.654
   82DLPC   C22 3424   3.774   4.642   3.513
   82DLPC   C23 3425   3.803   4.752   3.411
   82DLPC   C24 3426   3.785   4.706   3.267
   82DLPC   C25 3427   3.813   4.821   3.171
   82DLPC   C26 3428   3.800   4.778   3.024
   82DLPC   C27 3429   3.910   4.680   2.985
   82DLPC   C28 3430   3.540   4.339   4.367
   82DLPC  OS29 3431   3.489   4.259   4.259
   82DLPC   C30 3432   3.536   4.132   4.250
   82DLPC   O31 3433   3.561   4.062   4.348
   82DLPC   C32 3434   3.495   4.080   4.113
   82DLPC   C33 3435   3.526   4.185   4.006
   82DLPC   C34 3436   3.477   4.145   3.867
   82DLPC   C35 3437   3.506   4.257   3.767
   82DLPC   C36 3438   3.450   4.225   3.628
   82DLPC   C37 3439   3.470   4.344   3.534
   82DLPC   C38 3440   3.401   4.321   3.400
   82DLPC   C39 3441   3.408   4.447   3.313
   82DLPC   C40 3442   3.324   4.430   3.186
   82DLPC   C41 3443   3.324   4.558   3.102
   82DLPC   C42 3444   3.463   4.584   3.043
   83DLPC    C1 3445   2.216   1.616   4.547
   83DLPC    C2 3446   2.430   1.722   4.568
   83DLPC    C3 3447   2.344   1.595   4.746
   83DLPC    N4 3448   2.306   1.687   4.638
   83DLPC    C5 3449   2.243   1.807   4.698
   83DLPC    C6 3450   2.180   1.918   4.609
   83DLPC   OS7 3451   2.272   1.980   4.519
   83DLPC    P8 3452   2.221   2.113   4.455
   83DLPC   OM9 3453   2.130   2.180   4.550
   83DLPC  OM10 3454   2.341   2.182   4.408
   83DLPC  OS11 3455   2.139   2.059   4.332
   83DLPC   C12 3456   2.220   1.990   4.236
   83DLPC   C13 3457   2.138   1.932   4.120
   83DLPC  OS14 3458   2.210   1.834   4.040
   83DLPC   C15 3459   2.139   1.723   4.006
   83DLPC   O16 3460   2.045   1.682   4.075
   83DLPC   C17 3461   2.208   1.643   3.897
   83DLPC   C18 3462   2.351   1.607   3.934
   83DLPC   C19 3463   2.421   1.528   3.823
   83DLPC   C20 3464   2.364   1.387   3.809
   83DLPC   C21 3465   2.449   1.303   3.713
   83DLPC   C22 3466   2.405   1.157   3.713
   83DLPC   C23 3467   2.283   1.132   3.623
   83DLPC   C24 3468   2.324   1.139   3.476
   83DLPC   C25 3469   2.208   1.101   3.384
   83DLPC   C26 3470   2.250   1.103   3.237
   83DLPC   C27 3471   2.134   1.060   3.147
   83DLPC   C28 3472   2.085   2.053   4.041
   83DLPC  OS29 3473   2.004   2.018   3.927
   83DLPC   C30 3474   1.964   2.118   3.844
   83DLPC   O31 3475   1.967   2.238   3.874
   83DLPC   C32 3476   1.893   2.059   3.723
   83DLPC   C33 3477   1.912   2.144   3.598
   83DLPC   C34 3478   1.844   2.077   3.478
   83DLPC   C35 3479   1.854   2.163   3.352
   83DLPC   C36 3480   1.790   2.092   3.233
   83DLPC   C37 3481   1.786   2.182   3.109
   83DLPC   C38 3482   1.718   2.111   2.992
   83DLPC   C39 3483   1.694   2.206   2.875
   83DLPC   C40 3484   1.825   2.257   2.814
   83DLPC   C41 3485   1.798   2.351   2.697
   83DLPC   C42 3486   1.928   2.401   2.634
   84DLPC    C1 3487   1.892   2.281   4.297
   84DLPC    C2 3488   1.830   2.274   4.526
   84DLPC    C3 3489   1.822   2.075   4.392
   84DLPC    N4 3490   1.799   2.220   4.393
   84DLPC    C5 3491   1.662   2.259   4.352
   84DLPC    C6 3492   1.540   2.195   4.422
   84DLPC   OS7 3493   1.518   2.059   4.385
   84DLPC    P8 3494   1.379   2.005   4.434
   84DLPC   OM9 3495   1.380   1.861   4.402
   84DLPC  OM10 3496   1.351   2.057   4.568
   84DLPC  OS11 3497   1.297   2.086   4.327
   84DLPC   C12 3498   1.268   2.015   4.207
   84DLPC   C13 3499   1.257   2.108   4.085
   84DLPC  OS14 3500   1.184   2.048   3.974
   84DLPC   C15 3501   1.053   2.084   3.962
   84DLPC   O16 3502   0.991   2.141   4.052
   84DLPC   C17 3503   0.991   2.028   3.834
   84DLPC   C18 3504   1.051   1.892   3.800
   84DLPC   C19 3505   0.982   1.828   3.679
   84DLPC   C20 3506   1.021   1.894   3.547
   84DLPC   C21 3507   0.950   1.825   3.430
   84DLPC   C22 3508   0.994   1.883   3.295
   84DLPC   C23 3509   1.140   1.850   3.265
   84DLPC   C24 3510   1.181   1.900   3.127
   84DLPC   C25 3511   1.176   2.053   3.119
   84DLPC   C26 3512   1.217   2.102   2.980
   84DLPC   C27 3513   1.211   2.255   2.972
   84DLPC   C28 3514   1.403   2.145   4.052
   84DLPC  OS29 3515   1.429   2.265   3.978
   84DLPC   C30 3516   1.553   2.273   3.923
   84DLPC   O31 3517   1.638   2.185   3.936
   84DLPC   C32 3518   1.576   2.408   3.856
   84DLPC   C33 3519   1.647   2.392   3.722
   84DLPC   C34 3520   1.731   2.516   3.688
   84DLPC   C35 3521   1.645   2.641   3.668
   84DLPC   C36 3522   1.733   2.764   3.647
   84DLPC   C37 3523   1.650   2.892   3.641
   84DLPC   C38 3524   1.738   3.017   3.638
   84DLPC   C39 3525   1.806   3.037   3.502
   84DLPC   C40 3526   1.704   3.075   3.395
   84DLPC   C41 3527   1.773   3.106   3.262
   84DLPC   C42 3528   1.854   3.235   3.272
   85DLPC    C1 3529   1.756   3.441   4.224
   85DLPC    C2 3530   1.794   3.640   4.348
   85DLPC    C3 3531   1.980   3.525   4.256
   85DLPC    N4 3532   1.848   3.507   4.318
   85DLPC    C5 3533   1.860   3.433   4.446
   85DLPC    C6 3534   1.923   3.292   4.446
   85DLPC   OS7 3535   1.847   3.192   4.378
   85DLPC    P8 3536   1.929   3.059   4.366
   85DLPC   OM9 3537   2.042   3.094   4.279
   85DLPC  OM10 3538   1.950   3.017   4.505
   85DLPC  OS11 3539   1.824   2.970   4.292
   85DLPC   C12 3540   1.800   3.016   4.159
   85DLPC   C13 3541   1.773   2.906   4.054
   85DLPC  OS14 3542   1.656   2.821   4.073
   85DLPC   C15 3543   1.540   2.867   4.016
   85DLPC   O16 3544   1.517   2.987   4.004
   85DLPC   C17 3545   1.434   2.759   4.020
   85DLPC   C18 3546   1.333   2.775   3.906
   85DLPC   C19 3547   1.234   2.659   3.909
   85DLPC   C20 3548   1.136   2.665   3.792
   85DLPC   C21 3549   1.043   2.543   3.796
   85DLPC   C22 3550   1.123   2.415   3.770
   85DLPC   C23 3551   1.163   2.403   3.623
   85DLPC   C24 3552   1.264   2.289   3.606
   85DLPC   C25 3553   1.302   2.270   3.459
   85DLPC   C26 3554   1.422   2.175   3.448
   85DLPC   C27 3555   1.389   2.038   3.506
   85DLPC   C28 3556   1.905   2.827   4.044
   85DLPC  OS29 3557   2.001   2.880   3.952
   85DLPC   C30 3558   2.075   2.783   3.892
   85DLPC   O31 3559   2.053   2.663   3.909
   85DLPC   C32 3560   2.178   2.841   3.797
   85DLPC   C33 3561   2.239   2.732   3.708
   85DLPC   C34 3562   2.141   2.689   3.598
   85DLPC   C35 3563   2.196   2.569   3.519
   85DLPC   C36 3564   2.096   2.524   3.413
   85DLPC   C37 3565   2.081   2.631   3.304
   85DLPC   C38 3566   1.980   2.587   3.198
   85DLPC   C39 3567   1.966   2.694   3.089
   85DLPC   C40 3568   1.863   2.653   2.985
   85DLPC   C41 3569   1.849   2.760   2.876
   85DLPC   C42 3570   1.977   2.771   2.793
   86DLPC    C1 3571   5.488   3.017   4.955
   86DLPC    C2 3572   5.662   3.171   4.902
   86DLPC    C3 3573   5.513   3.216   5.081
   86DLPC    N4 3574   5.522   3.159   4.946
   86DLPC    C5 3575   5.430   3.233   4.857
   86DLPC    C6 3576   5.414   3.185   4.710
   86DLPC   OS7 3577   5.313   3.253   4.635
   86DLPC    P8 3578   5.234   3.153   4.543
   86DLPC   OM9 3579   5.125   3.231   4.482
   86DLPC  OM10 3580   5.206   3.034   4.624
   86DLPC  OS11 3581   5.346   3.119   4.438
   86DLPC   C12 3582   5.338   3.195   4.316
   86DLPC   C13 3583   5.408   3.332   4.317
   86DLPC  OS14 3584   5.370   3.411   4.202
   86DLPC   C15 3585   5.388   3.546   4.205
   86DLPC   O16 3586   5.422   3.607   4.307
   86DLPC   C17 3587   5.335   3.609   4.077
   86DLPC   C18 3588   5.431   3.715   4.023
   86DLPC   C19 3589   5.552   3.649   3.957
   86DLPC   C20 3590   5.649   3.755   3.905
   86DLPC   C21 3591   0.071   3.690   3.848
   86DLPC   C22 3592   0.172   3.797   3.808
   86DLPC   C23 3593   0.303   3.732   3.761
   86DLPC   C24 3594   0.405   3.839   3.721
   86DLPC   C25 3595   0.535   3.775   3.672
   86DLPC   C26 3596   0.635   3.881   3.628
   86DLPC   C27 3597   0.585   3.954   3.502
   86DLPC   C28 3598   5.559   3.305   4.344
   86DLPC  OS29 3599   5.631   3.226   4.247
   86DLPC   C30 3600   0.000   3.298   4.157
   86DLPC   O31 3601   0.016   3.420   4.164
   86DLPC   C32 3602   0.074   3.206   4.062
   86DLPC   C33 3603   0.105   3.277   3.930
   86DLPC   C34 3604   0.193   3.190   3.839
   86DLPC   C35 3605   0.214   3.260   3.704
   86DLPC   C36 3606   0.311   3.183   3.614
   86DLPC   C37 3607   0.258   3.046   3.573
   86DLPC   C38 3608   0.354   2.980   3.474
   86DLPC   C39 3609   0.313   2.836   3.442
   86DLPC   C40 3610   0.406   2.773   3.338
   86DLPC   C41 3611   0.374   2.626   3.316
   86DLPC   C42 3612   0.412   2.543   3.440
   87DLPC    C1 3613   4.981   0.428   4.362
   87DLPC    C2 3614   4.904   0.618   4.479
   87DLPC    C3 3615   4.823   0.405   4.542
   87DLPC    N4 3616   4.864   0.487   4.427
   87DLPC    C5 3617   4.756   0.509   4.328
   87DLPC    C6 3618   4.676   0.390   4.271
   87DLPC   OS7 3619   4.580   0.335   4.361
   87DLPC    P8 3620   4.484   0.233   4.289
   87DLPC   OM9 3621   4.558   0.160   4.186
   87DLPC  OM10 3622   4.397   0.170   4.389
   87DLPC  OS11 3623   4.397   0.343   4.218
   87DLPC   C12 3624   4.309   0.286   4.122
   87DLPC   C13 3625   4.256   0.392   4.024
   87DLPC  OS14 3626   4.132   0.355   3.956
   87DLPC   C15 3627   4.016   0.399   4.012
   87DLPC   O16 3628   4.009   0.449   4.125
   87DLPC   C17 3629   3.898   0.362   3.924
   87DLPC   C18 3630   3.767   0.421   3.973
   87DLPC   C19 3631   3.659   0.391   3.870
   87DLPC   C20 3632   3.523   0.451   3.906
   87DLPC   C21 3633   3.427   0.429   3.789
   87DLPC   C22 3634   3.291   0.495   3.810
   87DLPC   C23 3635   3.206   0.474   3.685
   87DLPC   C24 3636   3.264   0.554   3.568
   87DLPC   C25 3637   3.201   0.512   3.435
   87DLPC   C26 3638   3.248   0.371   3.398
   87DLPC   C27 3639   3.192   0.328   3.263
   87DLPC   C28 3640   4.374   0.436   3.935
   87DLPC  OS29 3641   4.445   0.332   3.865
   87DLPC   C30 3642   4.581   0.337   3.869
   87DLPC   O31 3643   4.645   0.425   3.927
   87DLPC   C32 3644   4.647   0.223   3.793
   87DLPC   C33 3645   4.550   0.118   3.735
   87DLPC   C34 3646   4.496   0.020   3.839
   87DLPC   C35 3647   4.420   5.562   3.770
   87DLPC   C36 3648   4.305   5.618   3.685
   87DLPC   C37 3649   4.241   5.506   3.603
   87DLPC   C38 3650   4.140   5.560   3.502
   87DLPC   C39 3651   4.086   5.446   3.416
   87DLPC   C40 3652   4.198   5.387   3.329
   87DLPC   C41 3653   4.151   5.262   3.255
   87DLPC   C42 3654   4.046   5.296   3.149
   88DLPC    C1 3655   1.094   3.540   4.766
   88DLPC    C2 3656   1.277   3.390   4.789
   88DLPC    C3 3657   1.321   3.619   4.756
   88DLPC    N4 3658   1.230   3.510   4.718
   88DLPC    C5 3659   1.235   3.484   4.572
   88DLPC    C6 3660   1.213   3.600   4.473
   88DLPC   OS7 3661   1.081   3.657   4.475
   88DLPC    P8 3662   1.079   3.814   4.463
   88DLPC   OM9 3663   1.209   3.858   4.408
   88DLPC  OM10 3664   1.036   3.852   4.598
   88DLPC  OS11 3665   0.962   3.825   4.360
   88DLPC   C12 3666   1.004   3.804   4.225
   88DLPC   C13 3667   0.884   3.779   4.133
   88DLPC  OS14 3668   0.918   3.704   4.013
   88DLPC   C15 3669   0.824   3.616   3.969
   88DLPC   O16 3670   0.718   3.597   4.031
   88DLPC   C17 3671   0.865   3.548   3.840
   88DLPC   C18 3672   0.760   3.447   3.793
   88DLPC   C19 3673   0.783   3.412   3.645
   88DLPC   C20 3674   0.674   3.318   3.594
   88DLPC   C21 3675   0.679   3.307   3.441
   88DLPC   C22 3676   0.644   3.442   3.379
   88DLPC   C23 3677   0.642   3.436   3.226
   88DLPC   C24 3678   0.520   3.358   3.175
   88DLPC   C25 3679   0.516   3.358   3.022
   88DLPC   C26 3680   0.393   3.284   2.969
   88DLPC   C27 3681   0.265   3.359   3.004
   88DLPC   C28 3682   0.812   3.914   4.113
   88DLPC  OS29 3683   0.881   4.006   4.026
   88DLPC   C30 3684   0.807   4.108   3.977
   88DLPC   O31 3685   0.709   4.158   4.033
   88DLPC   C32 3686   0.880   4.174   3.861
   88DLPC   C33 3687   0.827   4.315   3.837
   88DLPC   C34 3688   0.882   4.374   3.707
   88DLPC   C35 3689   0.816   4.310   3.584
   88DLPC   C36 3690   0.855   4.388   3.458
   88DLPC   C37 3691   0.778   4.341   3.335
   88DLPC   C38 3692   0.831   4.208   3.281
   88DLPC   C39 3693   0.750   4.164   3.159
   88DLPC   C40 3694   0.767   4.260   3.041
   88DLPC   C41 3695   0.906   4.248   2.978
   88DLPC   C42 3696   0.921   4.343   2.859
   89DLPC    C1 3697   4.254   4.333   4.655
   89DLPC    C2 3698   4.440   4.310   4.802
   89DLPC    C3 3699   4.415   4.509   4.674
   89DLPC    N4 3700   4.342   4.405   4.748
   89DLPC    C5 3701   4.266   4.463   4.862
   89DLPC    C6 3702   4.141   4.551   4.836
   89DLPC   OS7 3703   4.166   4.668   4.757
   89DLPC    P8 3704   4.039   4.716   4.680
   89DLPC   OM9 3705   4.058   4.853   4.630
   89DLPC  OM10 3706   3.915   4.676   4.750
   89DLPC  OS11 3707   4.054   4.611   4.565
   89DLPC   C12 3708   4.083   4.669   4.438
   89DLPC   C13 3709   4.136   4.568   4.335
   89DLPC  OS14 3710   4.171   4.633   4.209
   89DLPC   C15 3711   4.299   4.676   4.195
   89DLPC   O16 3712   4.373   4.698   4.292
   89DLPC   C17 3713   4.323   4.736   4.058
   89DLPC   C18 3714   4.229   4.684   3.948
   89DLPC   C19 3715   4.268   4.543   3.902
   89DLPC   C20 3716   4.196   4.509   3.772
   89DLPC   C21 3717   4.253   4.593   3.657
   89DLPC   C22 3718   4.182   4.561   3.525
   89DLPC   C23 3719   4.243   4.642   3.411
   89DLPC   C24 3720   4.221   4.792   3.430
   89DLPC   C25 3721   4.287   4.872   3.317
   89DLPC   C26 3722   4.219   4.844   3.183
   89DLPC   C27 3723   4.285   4.925   3.071
   89DLPC   C28 3724   4.028   4.458   4.323
   89DLPC  OS29 3725   4.070   4.334   4.265
   89DLPC   C30 3726   3.969   4.258   4.213
   89DLPC   O31 3727   3.849   4.283   4.226
   89DLPC   C32 3728   4.024   4.132   4.149
   89DLPC   C33 3729   3.945   4.093   4.024
   89DLPC   C34 3730   3.979   4.185   3.907
   89DLPC   C35 3731   3.908   4.139   3.779
   89DLPC   C36 3732   3.949   4.226   3.660
   89DLPC   C37 3733   3.882   4.179   3.531
   89DLPC   C38 3734   3.928   4.266   3.414
   89DLPC   C39 3735   3.863   4.223   3.282
   89DLPC   C40 3736   3.910   4.314   3.169
   89DLPC   C41 3737   3.846   4.274   3.036
   89DLPC   C42 3738   3.898   4.138   2.989
   90DLPC    C1 3739   4.159   0.697   4.562
   90DLPC    C2 3740   4.078   0.760   4.777
   90DLPC    C3 3741   3.993   0.865   4.581
   90DLPC    N4 3742   4.114   0.810   4.644
   90DLPC    C5 3743   4.225   0.909   4.648
   90DLPC    C6 3744   4.215   1.038   4.733
   90DLPC   OS7 3745   4.107   1.126   4.699
   90DLPC    P8 3746   4.148   1.249   4.609
   90DLPC   OM9 3747   4.243   1.195   4.511
   90DLPC  OM10 3748   4.190   1.351   4.707
   90DLPC  OS11 3749   4.003   1.266   4.553
   90DLPC   C12 3750   3.989   1.221   4.418
   90DLPC   C13 3751   3.845   1.177   4.386
   90DLPC  OS14 3752   3.833   1.106   4.260
   90DLPC   C15 3753   3.738   1.010   4.252
   90DLPC   O16 3754   3.679   0.966   4.352
   90DLPC   C17 3755   3.720   0.959   4.110
   90DLPC   C18 3756   3.598   0.866   4.101
   90DLPC   C19 3757   3.564   0.835   3.955
   90DLPC   C20 3758   3.510   0.958   3.883
   90DLPC   C21 3759   3.468   0.925   3.740
   90DLPC   C22 3760   3.590   0.892   3.653
   90DLPC   C23 3761   3.548   0.860   3.510
   90DLPC   C24 3762   3.671   0.832   3.422
   90DLPC   C25 3763   3.631   0.792   3.280
   90DLPC   C26 3764   3.565   0.654   3.278
   90DLPC   C27 3765   3.666   0.543   3.308
   90DLPC   C28 3766   3.758   1.304   4.400
   90DLPC  OS29 3767   3.786   1.409   4.306
   90DLPC   C30 3768   3.690   1.433   4.213
   90DLPC   O31 3769   3.569   1.421   4.236
   90DLPC   C32 3770   3.746   1.521   4.102
   90DLPC   C33 3771   3.891   1.483   4.068
   90DLPC   C34 3772   3.900   1.349   3.995
   90DLPC   C35 3773   3.845   1.357   3.852
   90DLPC   C36 3774   3.857   1.222   3.781
   90DLPC   C37 3775   3.805   1.232   3.638
   90DLPC   C38 3776   3.895   1.323   3.554
   90DLPC   C39 3777   3.842   1.341   3.412
   90DLPC   C40 3778   3.931   1.437   3.333
   90DLPC   C41 3779   3.875   1.462   3.193
   90DLPC   C42 3780   3.744   1.541   3.199
   91DLPC    C1 3781   3.068   5.328   4.550
   91DLPC    C2 3782   2.864   5.373   4.662
   91DLPC    C3 3783   3.029   5.543   4.653
   91DLPC    N4 3784   3.008   5.398   4.665
   91DLPC    C5 3785   3.060   5.346   4.794
   91DLPC    C6 3786   3.208   5.368   4.837
   91DLPC   OS7 3787   3.303   5.308   4.749
   91DLPC    P8 3788   3.449   5.313   4.807
   91DLPC   OM9 3789   3.462   5.194   4.892
   91DLPC  OM10 3790   3.482   5.447   4.857
   91DLPC  OS11 3791   3.526   5.292   4.672
   91DLPC   C12 3792   3.507   5.405   4.585
   91DLPC   C13 3793   3.587   5.405   4.454
   91DLPC  OS14 3794   3.537   5.506   4.362
   91DLPC   C15 3795   3.622   5.608   4.327
   91DLPC   O16 3796   3.700   0.004   4.408
   91DLPC   C17 3797   3.567   0.025   4.206
   91DLPC   C18 3798   3.485   5.582   4.120
   91DLPC   C19 3799   3.424   5.649   3.997
   91DLPC   C20 3800   3.338   5.547   3.922
   91DLPC   C21 3801   3.276   5.605   3.795
   91DLPC   C22 3802   3.190   5.498   3.728
   91DLPC   C23 3803   3.277   5.381   3.682
   91DLPC   C24 3804   3.190   5.265   3.632
   91DLPC   C25 3805   3.111   5.204   3.747
   91DLPC   C26 3806   3.025   5.086   3.698
   91DLPC   C27 3807   2.916   5.135   3.603
   91DLPC   C28 3808   3.576   5.262   4.398
   91DLPC  OS29 3809   3.668   5.228   4.293
   91DLPC   C30 3810   3.745   5.118   4.315
   91DLPC   O31 3811   3.733   5.043   4.412
   91DLPC   C32 3812   3.842   5.097   4.200
   91DLPC   C33 3813   3.976   5.043   4.249
   91DLPC   C34 3814   4.074   5.033   4.132
   91DLPC   C35 3815   4.101   5.173   4.075
   91DLPC   C36 3816   4.197   5.169   3.956
   91DLPC   C37 3817   4.340   5.136   4.000
   91DLPC   C38 3818   4.435   5.140   3.880
   91DLPC   C39 3819   4.403   5.028   3.781
   91DLPC   C40 3820   4.490   5.039   3.655
   91DLPC   C41 3821   4.454   5.164   3.575
   91DLPC   C42 3822   4.535   5.173   3.446
   92DLPC    C1 3823   4.512   1.355   4.607
   92DLPC    C2 3824   4.592   1.364   4.833
   92DLPC    C3 3825   4.668   1.520   4.670
   92DLPC    N4 3826   4.629   1.381   4.692
   92DLPC    C5 3827   4.743   1.294   4.653
   92DLPC    C6 3828   4.739   1.142   4.682
   92DLPC   OS7 3829   4.630   1.074   4.620
   92DLPC    P8 3830   4.632   0.920   4.648
   92DLPC   OM9 3831   4.569   0.901   4.780
   92DLPC  OM10 3832   4.767   0.872   4.619
   92DLPC  OS11 3833   4.532   0.881   4.534
   92DLPC   C12 3834   4.593   0.898   4.406
   92DLPC   C13 3835   4.499   0.885   4.287
   92DLPC  OS14 3836   4.573   0.886   4.162
   92DLPC   C15 3837   4.530   0.800   4.066
   92DLPC   O16 3838   4.446   0.712   4.088
   92DLPC   C17 3839   4.605   0.822   3.936
   92DLPC   C18 3840   4.507   0.836   3.819
   92DLPC   C19 3841   4.563   0.932   3.714
   92DLPC   C20 3842   4.467   0.946   3.596
   92DLPC   C21 3843   4.511   1.060   3.504
   92DLPC   C22 3844   4.650   1.034   3.444
   92DLPC   C23 3845   4.692   1.150   3.354
   92DLPC   C24 3846   4.707   1.279   3.434
   92DLPC   C25 3847   4.748   1.396   3.343
   92DLPC   C26 3848   4.891   1.379   3.293
   92DLPC   C27 3849   4.934   1.497   3.206
   92DLPC   C28 3850   4.391   0.995   4.304
   92DLPC  OS29 3851   4.296   1.011   4.197
   92DLPC   C30 3852   4.187   0.931   4.190
   92DLPC   O31 3853   4.141   0.863   4.283
   92DLPC   C32 3854   4.117   0.953   4.057
   92DLPC   C33 3855   4.109   0.821   3.981
   92DLPC   C34 3856   4.050   0.840   3.841
   92DLPC   C35 3857   4.045   0.704   3.770
   92DLPC   C36 3858   3.980   0.714   3.632
   92DLPC   C37 3859   3.961   0.574   3.573
   92DLPC   C38 3860   4.095   0.510   3.535
   92DLPC   C39 3861   4.075   0.365   3.491
   92DLPC   C40 3862   4.205   0.305   3.437
   92DLPC   C41 3863   4.238   0.363   3.299
   92DLPC   C42 3864   4.139   0.314   3.194
   93DLPC    C1 3865   0.168   3.685   4.223
   93DLPC    C2 3866   0.025   3.870   4.281
   93DLPC    C3 3867   0.023   3.672   4.410
   93DLPC    N4 3868   0.110   3.762   4.334
   93DLPC    C5 3869   0.214   3.815   4.426
   93DLPC    C6 3870   0.337   3.889   4.369
   93DLPC   OS7 3871   0.308   4.012   4.302
   93DLPC    P8 3872   0.430   4.055   4.212
   93DLPC   OM9 3873   0.457   3.939   4.127
   93DLPC  OM10 3874   0.523   4.109   4.313
   93DLPC  OS11 3875   0.354   4.171   4.137
   93DLPC   C12 3876   0.252   4.119   4.052
   93DLPC   C13 3877   0.137   4.220   4.035
   93DLPC  OS14 3878   0.008   4.162   4.004
   93DLPC   C15 3879   5.603   4.236   4.037
   93DLPC   O16 3880   5.611   4.347   4.091
   93DLPC   C17 3881   5.475   4.164   4.000
   93DLPC   C18 3882   5.470   4.131   3.851
   93DLPC   C19 3883   5.358   4.030   3.824
   93DLPC   C20 3884   5.343   3.994   3.677
   93DLPC   C21 3885   5.251   3.872   3.664
   93DLPC   C22 3886   5.211   3.842   3.520
   93DLPC   C23 3887   5.118   3.720   3.519
   93DLPC   C24 3888   5.045   3.701   3.386
   93DLPC   C25 3889   4.945   3.586   3.399
   93DLPC   C26 3890   4.859   3.572   3.273
   93DLPC   C27 3891   4.762   3.454   3.288
   93DLPC   C28 3892   0.190   4.329   3.940
   93DLPC  OS29 3893   0.245   4.288   3.814
   93DLPC   C30 3894   0.275   4.391   3.729
   93DLPC   O31 3895   0.277   4.509   3.765
   93DLPC   C32 3896   0.326   4.337   3.597
   93DLPC   C33 3897   0.326   4.443   3.488
   93DLPC   C34 3898   0.378   4.384   3.357
   93DLPC   C35 3899   0.281   4.279   3.302
   93DLPC   C36 3900   0.342   4.203   3.185
   93DLPC   C37 3901   0.244   4.099   3.129
   93DLPC   C38 3902   0.134   4.165   3.046
   93DLPC   C39 3903   0.036   4.059   2.993
   93DLPC   C40 3904   5.641   4.119   2.895
   93DLPC   C41 3905   0.006   4.158   2.764
   93DLPC   C42 3906   5.611   4.215   2.663
   94DLPC    C1 3907   0.430   4.992   4.974
   94DLPC    C2 3908   0.272   4.816   4.996
   94DLPC    C3 3909   0.386   4.853   4.788
   94DLPC    N4 3910   0.324   4.918   4.904
   94DLPC    C5 3911   0.219   5.017   4.865
   94DLPC    C6 3912   0.100   4.972   4.777
   94DLPC   OS7 3913   0.006   5.074   4.743
   94DLPC    P8 3914   5.574   5.015   4.690
   94DLPC   OM9 3915   5.471   5.118   4.704
   94DLPC  OM10 3916   5.555   4.879   4.744
   94DLPC  OS11 3917   5.612   4.998   4.538
   94DLPC   C12 3918   5.596   5.120   4.464
   94DLPC   C13 3919   5.630   5.105   4.315
   94DLPC  OS14 3920   5.652   5.232   4.248
   94DLPC   C15 3921   0.068   5.243   4.187
   94DLPC   O16 3922   0.168   5.185   4.231
   94DLPC   C17 3923   0.074   5.370   4.103
   94DLPC   C18 3924   0.177   5.355   3.991
   94DLPC   C19 3925   0.186   5.483   3.908
   94DLPC   C20 3926   0.281   5.467   3.790
   94DLPC   C21 3927   0.292   5.598   3.713
   94DLPC   C22 3928   0.157   5.638   3.655
   94DLPC   C23 3929   0.166   0.117   3.581
   94DLPC   C24 3930   0.028   0.161   3.532
   94DLPC   C25 3931   5.642   0.196   3.650
   94DLPC   C26 3932   5.503   0.238   3.602
   94DLPC   C27 3933   5.414   0.275   3.721
   94DLPC   C28 3934   5.522   5.014   4.253
   94DLPC  OS29 3935   5.544   4.984   4.113
   94DLPC   C30 3936   5.593   4.862   4.080
   94DLPC   O31 3937   5.604   4.767   4.157
   94DLPC   C32 3938   5.626   4.859   3.931
   94DLPC   C33 3939   5.610   4.720   3.870
   94DLPC   C34 3940   5.462   4.685   3.850
   94DLPC   C35 3941   5.447   4.549   3.782
   94DLPC   C36 3942   5.504   4.553   3.640
   94DLPC   C37 3943   5.490   4.417   3.572
   94DLPC   C38 3944   5.550   4.419   3.431
   94DLPC   C39 3945   5.537   4.281   3.366
   94DLPC   C40 3946   5.621   4.178   3.442
   94DLPC   C41 3947   5.608   4.039   3.380
   94DLPC   C42 3948   5.692   3.937   3.458
   95DLPC    C1 3949   1.381   5.415   4.940
   95DLPC    C2 3950   1.459   5.338   4.730
   95DLPC    C3 3951   1.473   5.572   4.791
   95DLPC    N4 3952   1.486   5.433   4.839
   95DLPC    C5 3953   1.618   5.405   4.900
   95DLPC    C6 3954   1.745   5.440   4.818
   95DLPC   OS7 3955   1.869   5.396   4.875
   95DLPC    P8 3956   1.987   5.495   4.845
   95DLPC   OM9 3957   2.106   5.441   4.912
   95DLPC  OM10 3958   1.940   5.632   4.872
   95DLPC  OS11 3959   2.002   5.468   4.690
   95DLPC   C12 3960   2.050   5.583   4.620
   95DLPC   C13 3961   2.059   5.565   4.467
   95DLPC  OS14 3962   2.119   0.026   4.402
   95DLPC   C15 3963   2.195   5.653   4.292
   95DLPC   O16 3964   2.230   5.539   4.260
   95DLPC   C17 3965   2.249   0.128   4.232
   95DLPC   C18 3966   2.278   0.118   4.082
   95DLPC   C19 3967   2.312   0.257   4.029
   95DLPC   C20 3968   2.349   0.256   3.881
   95DLPC   C21 3969   2.366   0.400   3.832
   95DLPC   C22 3970   2.409   0.408   3.686
   95DLPC   C23 3971   2.413   0.554   3.639
   95DLPC   C24 3972   2.461   0.565   3.495
   95DLPC   C25 3973   2.461   0.711   3.449
   95DLPC   C26 3974   2.517   0.724   3.307
   95DLPC   C27 3975   2.667   0.694   3.305
   95DLPC   C28 3976   1.916   5.527   4.423
   95DLPC  OS29 3977   1.888   5.508   4.283
   95DLPC   C30 3978   1.913   5.384   4.232
   95DLPC   O31 3979   1.957   5.289   4.297
   95DLPC   C32 3980   1.870   5.378   4.086
   95DLPC   C33 3981   1.983   5.420   3.992
   95DLPC   C34 3982   1.939   5.406   3.846
   95DLPC   C35 3983   2.055   5.424   3.749
   95DLPC   C36 3984   2.008   5.401   3.605
   95DLPC   C37 3985   2.125   5.405   3.506
   95DLPC   C38 3986   2.076   5.386   3.363
   95DLPC   C39 3987   2.020   5.246   3.342
   95DLPC   C40 3988   1.967   5.227   3.199
   95DLPC   C41 3989   1.912   5.086   3.180
   95DLPC   C42 3990   1.856   5.068   3.039
   96DLPC    C1 3991   0.303   1.694   4.521
   96DLPC    C2 3992   0.362   1.760   4.299
   96DLPC    C3 3993   0.239   1.559   4.339
   96DLPC    N4 3994   0.346   1.646   4.390
   96DLPC    C5 3995   0.467   1.562   4.398
   96DLPC    C6 3996   0.601   1.618   4.450
   96DLPC   OS7 3997   0.668   1.707   4.360
   96DLPC    P8 3998   0.820   1.723   4.395
   96DLPC   OM9 3999   0.850   1.664   4.527
   96DLPC  OM10 4000   0.866   1.859   4.366
   96DLPC  OS11 4001   0.880   1.621   4.292
   96DLPC   C12 4002   0.954   1.687   4.189
   96DLPC   C13 4003   1.008   1.591   4.081
   96DLPC  OS14 4004   1.131   1.636   4.019
   96DLPC   C15 4005   1.248   1.600   4.080
   96DLPC   O16 4006   1.251   1.528   4.180
   96DLPC   C17 4007   1.369   1.655   4.006
   96DLPC   C18 4008   1.357   1.622   3.857
   96DLPC   C19 4009   1.475   1.674   3.775
   96DLPC   C20 4010   1.454   1.637   3.628
   96DLPC   C21 4011   1.570   1.683   3.539
   96DLPC   C22 4012   1.541   1.645   3.394
   96DLPC   C23 4013   1.654   1.687   3.301
   96DLPC   C24 4014   1.624   1.644   3.157
   96DLPC   C25 4015   1.740   1.678   3.064
   96DLPC   C26 4016   1.711   1.629   2.922
   96DLPC   C27 4017   1.828   1.660   2.828
   96DLPC   C28 4018   0.892   1.565   3.984
   96DLPC  OS29 4019   0.787   1.480   4.035
   96DLPC   C30 4020   0.672   1.482   3.962
   96DLPC   O31 4021   0.571   1.420   3.997
   96DLPC   C32 4022   0.688   1.560   3.833
   96DLPC   C33 4023   0.579   1.523   3.732
   96DLPC   C34 4024   0.597   1.600   3.602
   96DLPC   C35 4025   0.489   1.561   3.501
   96DLPC   C36 4026   0.504   1.639   3.370
   96DLPC   C37 4027   0.396   1.599   3.270
   96DLPC   C38 4028   0.257   1.640   3.320
   96DLPC   C39 4029   0.148   1.596   3.222
   96DLPC   C40 4030   0.009   1.636   3.273
   96DLPC   C41 4031   5.605   1.589   3.178
   96DLPC   C42 4032   5.466   1.630   3.228
   97DLPC    C1 4033   2.670   0.790   4.743
   97DLPC    C2 4034   2.775   0.839   4.948
   97DLPC    C3 4035   2.897   0.873   4.747
   97DLPC    N4 4036   2.799   0.785   4.814
   97DLPC    C5 4037   2.850   0.647   4.829
   97DLPC    C6 4038   2.887   0.560   4.706
   97DLPC   OS7 4039   2.918   0.424   4.738
   97DLPC    P8 4040   2.984   0.348   4.616
   97DLPC   OM9 4041   3.075   0.243   4.664
   97DLPC  OM10 4042   3.020   0.439   4.508
   97DLPC  OS11 4043   2.856   0.269   4.569
   97DLPC   C12 4044   2.887   0.197   4.450
   97DLPC   C13 4045   2.765   0.122   4.391
   97DLPC  OS14 4046   2.799   0.011   4.303
   97DLPC   C15 4047   2.698   5.579   4.273
   97DLPC   O16 4048   2.598   5.566   4.345
   97DLPC   C17 4049   2.744   5.480   4.167
   97DLPC   C18 4050   2.636   5.442   4.066
   97DLPC   C19 4051   2.599   5.561   3.977
   97DLPC   C20 4052   2.555   5.515   3.838
   97DLPC   C21 4053   2.678   5.468   3.759
   97DLPC   C22 4054   2.640   5.414   3.622
   97DLPC   C23 4055   2.586   5.522   3.529
   97DLPC   C24 4056   2.552   5.460   3.393
   97DLPC   C25 4057   2.494   5.564   3.297
   97DLPC   C26 4058   2.457   5.497   3.164
   97DLPC   C27 4059   2.391   5.597   3.069
   97DLPC   C28 4060   2.671   0.232   4.338
   97DLPC  OS29 4061   2.727   0.322   4.240
   97DLPC   C30 4062   2.653   0.433   4.213
   97DLPC   O31 4063   2.548   0.461   4.271
   97DLPC   C32 4064   2.724   0.523   4.114
   97DLPC   C33 4065   2.626   0.618   4.045
   97DLPC   C34 4066   2.702   0.711   3.950
   97DLPC   C35 4067   2.779   0.629   3.847
   97DLPC   C36 4068   2.858   0.717   3.750
   97DLPC   C37 4069   2.959   0.805   3.824
   97DLPC   C38 4070   3.057   0.869   3.726
   97DLPC   C39 4071   2.984   0.955   3.622
   97DLPC   C40 4072   3.083   1.009   3.519
   97DLPC   C41 4073   3.010   1.087   3.409
   97DLPC   C42 4074   3.108   1.140   3.305
   98DLPC    C1 4075   2.353   2.484   4.910
   98DLPC    C2 4076   2.170   2.358   4.827
   98DLPC    C3 4077   2.390   2.326   4.734
   98DLPC    N4 4078   2.295   2.425   4.789
   98DLPC    C5 4079   2.273   2.536   4.694
   98DLPC    C6 4080   2.205   2.508   4.558
   98DLPC   OS7 4081   2.181   2.627   4.483
   98DLPC    P8 4082   2.070   2.606   4.373
   98DLPC   OM9 4083   2.070   2.735   4.303
   98DLPC  OM10 4084   1.955   2.557   4.450
   98DLPC  OS11 4085   2.137   2.492   4.288
   98DLPC   C12 4086   2.204   2.541   4.171
   98DLPC   C13 4087   2.356   2.521   4.171
   98DLPC  OS14 4088   2.423   2.603   4.072
   98DLPC   C15 4089   2.549   2.647   4.100
   98DLPC   O16 4090   2.593   2.648   4.216
   98DLPC   C17 4091   2.611   2.720   3.982
   98DLPC   C18 4092   2.618   2.629   3.860
   98DLPC   C19 4093   2.668   2.703   3.736
   98DLPC   C20 4094   2.669   2.610   3.615
   98DLPC   C21 4095   2.712   2.683   3.488
   98DLPC   C22 4096   2.712   2.587   3.368
   98DLPC   C23 4097   2.570   2.539   3.338
   98DLPC   C24 4098   2.567   2.444   3.218
   98DLPC   C25 4099   2.423   2.399   3.191
   98DLPC   C26 4100   2.415   2.304   3.072
   98DLPC   C27 4101   2.271   2.258   3.048
   98DLPC   C28 4102   2.379   2.369   4.162
   98DLPC  OS29 4103   2.332   2.306   4.040
   98DLPC   C30 4104   2.428   2.291   3.944
   98DLPC   O31 4105   2.547   2.277   3.970
   98DLPC   C32 4106   2.363   2.253   3.812
   98DLPC   C33 4107   2.469   2.245   3.701
   98DLPC   C34 4108   2.405   2.205   3.568
   98DLPC   C35 4109   2.342   2.066   3.579
   98DLPC   C36 4110   2.290   2.017   3.444
   98DLPC   C37 4111   2.215   1.885   3.461
   98DLPC   C38 4112   2.162   1.833   3.328
   98DLPC   C39 4113   2.068   1.714   3.350
   98DLPC   C40 4114   2.141   1.594   3.409
   98DLPC   C41 4115   2.043   1.480   3.438
   98DLPC   C42 4116   1.983   1.426   3.308
   99DLPC    C1 4117   4.444   5.479   4.785
   99DLPC    C2 4118   4.273   5.588   4.662
   99DLPC    C3 4119   4.363   0.042   4.850
   99DLPC    N4 4120   4.397   5.610   4.737
   99DLPC    C5 4121   4.495   0.018   4.645
   99DLPC    C6 4122   4.631   0.066   4.700
   99DLPC   OS7 4123   4.730   0.092   4.600
   99DLPC    P8 4124   4.853   5.648   4.607
   99DLPC   OM9 4125   4.860   5.591   4.743
   99DLPC  OM10 4126   4.970   0.060   4.548
   99DLPC  OS11 4127   4.798   5.534   4.513
   99DLPC   C12 4128   4.808   5.563   4.373
   99DLPC   C13 4129   4.776   5.439   4.287
   99DLPC  OS14 4130   4.810   5.452   4.146
   99DLPC   C15 4131   4.812   5.338   4.072
   99DLPC   O16 4132   4.810   5.226   4.124
   99DLPC   C17 4133   4.842   5.365   3.925
   99DLPC   C18 4134   4.844   5.235   3.844
   99DLPC   C19 4135   4.901   5.261   3.704
   99DLPC   C20 4136   4.892   5.137   3.615
   99DLPC   C21 4137   4.956   5.165   3.479
   99DLPC   C22 4138   4.925   5.056   3.377
   99DLPC   C23 4139   4.996   5.085   3.245
   99DLPC   C24 4140   4.956   4.988   3.133
   99DLPC   C25 4141   4.814   5.018   3.083
   99DLPC   C26 4142   4.779   4.927   2.965
   99DLPC   C27 4143   4.639   4.958   2.912
   99DLPC   C28 4144   4.629   5.403   4.319
   99DLPC  OS29 4145   4.530   5.489   4.260
   99DLPC   C30 4146   4.402   5.467   4.300
   99DLPC   O31 4147   4.374   5.408   4.405
   99DLPC   C32 4148   4.302   5.546   4.218
   99DLPC   C33 4149   4.162   5.527   4.276
   99DLPC   C34 4150   4.056   5.609   4.202
   99DLPC   C35 4151   4.037   5.561   4.059
   99DLPC   C36 4152   3.918   5.632   3.995
   99DLPC   C37 4153   3.899   5.593   3.848
   99DLPC   C38 4154   3.778   0.012   3.790
   99DLPC   C39 4155   3.765   5.644   3.639
   99DLPC   C40 4156   3.645   0.067   3.583
   99DLPC   C41 4157   3.633   0.047   3.432
   99DLPC   C42 4158   3.751   0.112   3.359
  100DLPC    C1 4159   3.445   1.568   4.504
  100DLPC    C2 4160   3.318   1.375   4.450
  100DLPC    C3 4161   3.260   1.585   4.357
  100DLPC    N4 4162   3.309   1.518   4.478
  100DLPC    C5 4163   3.226   1.548   4.597
  100DLPC    C6 4164   3.079   1.499   4.606
  100DLPC   OS7 4165   2.988   1.556   4.512
  100DLPC    P8 4166   2.898   1.446   4.443
  100DLPC   OM9 4167   2.762   1.472   4.492
  100DLPC  OM10 4168   2.961   1.314   4.456
  100DLPC  OS11 4169   2.923   1.505   4.299
  100DLPC   C12 4170   2.814   1.585   4.252
  100DLPC   C13 4171   2.854   1.697   4.155
  100DLPC  OS14 4172   2.737   1.762   4.098
  100DLPC   C15 4173   2.752   1.890   4.053
  100DLPC   O16 4174   2.822   1.972   4.114
  100DLPC   C17 4175   2.630   1.929   3.971
  100DLPC   C18 4176   2.633   1.867   3.831
  100DLPC   C19 4177   2.734   1.937   3.740
  100DLPC   C20 4178   2.705   1.897   3.595
  100DLPC   C21 4179   2.788   1.975   3.494
  100DLPC   C22 4180   2.724   1.958   3.356
  100DLPC   C23 4181   2.801   2.028   3.244
  100DLPC   C24 4182   2.718   2.020   3.116
  100DLPC   C25 4183   2.698   1.875   3.074
  100DLPC   C26 4184   2.595   1.864   2.961
  100DLPC   C27 4185   2.646   1.930   2.833
  100DLPC   C28 4186   2.951   1.634   4.052
  100DLPC  OS29 4187   3.011   1.722   3.954
  100DLPC   C30 4188   3.122   1.792   3.990
  100DLPC   O31 4189   3.185   1.773   4.095
  100DLPC   C32 4190   3.166   1.886   3.879
  100DLPC   C33 4191   3.149   1.821   3.742
  100DLPC   C34 4192   3.213   1.909   3.634
  100DLPC   C35 4193   3.195   1.848   3.495
  100DLPC   C36 4194   3.272   1.930   3.391
  100DLPC   C37 4195   3.255   1.872   3.251
  100DLPC   C38 4196   3.343   1.948   3.151
  100DLPC   C39 4197   3.327   1.893   3.010
  100DLPC   C40 4198   3.422   1.964   2.913
  100DLPC   C41 4199   3.405   1.909   2.771
  100DLPC   C42 4200   3.506   1.973   2.675
  101SOL     OW 4201   4.930   5.253   0.678
  101SOL    HW1 4202   4.873   5.197   0.618
  101SOL    HW2 4203   4.885   5.263   0.767
  102SOL     OW 4204   1.799   2.705   0.449
  102SOL    HW1 4205   1.711   2.724   0.493
  102SOL    HW2 4206   1.871   2.759   0.493
  103SOL     OW 4207   2.114   4.164   1.257
  103SOL    HW1 4208   2.184   4.122   1.199
  103SOL    HW2 4209   2.026   4.121   1.240
  104SOL     OW 4210   1.350   1.641   5.265
  104SOL    HW1 4211   1.345   1.623   5.166
  104SOL    HW2 4212   1.338   1.555   5.315
  105SOL     OW 4213   3.992   5.215   1.023
  105SOL    HW1 4214   4.073   5.222   0.965
  105SOL    HW2 4215   3.943   5.130   1.002
  106SOL     OW 4216   5.641   3.133   0.477
  106SOL    HW1 4217   5.562   3.168   0.527
  106SOL    HW2 4218   0.016   3.130   0.538
  107SOL     OW 4219   4.617   4.688   0.740
  107SOL    HW1 4220   4.625   4.589   0.735
  107SOL    HW2 4221   4.567   4.714   0.823
  108SOL     OW 4222   1.641   5.122   5.799
  108SOL    HW1 4223   1.638   5.196   5.732
  108SOL    HW2 4224   1.731   5.078   5.796
  109SOL     OW 4225   3.833   3.817   5.623
  109SOL    HW1 4226   3.820   3.769   5.710
  109SOL    HW2 4227   3.820   3.754   5.547
  110SOL     OW 4228   5.376   3.815   0.838
  110SOL    HW1 4229   5.328   3.745   0.891
  110SOL    HW2 4230   5.373   3.902   0.887
  111SOL     OW 4231   0.776   3.121   5.033
  111SOL    HW1 4232   0.714   3.189   4.994
  111SOL    HW2 4233   0.747   3.030   5.004
  112SOL     OW 4234   0.881   2.414   4.489
  112SOL    HW1 4235   0.827   2.403   4.405
  112SOL    HW2 4236   0.961   2.354   4.484
  113SOL     OW 4237   0.031   4.290   5.178
  113SOL    HW1 4238   5.653   4.241   5.205
  113SOL    HW2 4239   0.109   4.256   5.231
  114SOL     OW 4240   0.870   5.014   1.555
  114SOL    HW1 4241   0.932   4.974   1.623
  114SOL    HW2 4242   0.821   5.091   1.596
  115SOL     OW 4243   0.585   1.682   5.094
  115SOL    HW1 4244   0.667   1.631   5.122
  115SOL    HW2 4245   0.563   1.660   5.000
  116SOL     OW 4246   2.476   1.209   0.378
  116SOL    HW1 4247   2.443   1.258   0.297
  116SOL    HW2 4248   2.565   1.246   0.405
  117SOL     OW 4249   4.118   0.602   5.117
  117SOL    HW1 4250   4.140   0.595   5.214
  117SOL    HW2 4251   4.196   0.642   5.068
  118SOL     OW 4252   3.558   3.619   0.160
  118SOL    HW1 4253   3.560   3.604   0.061
  118SOL    HW2 4254   3.643   3.664   0.189
  119SOL     OW 4255   0.320   4.660   0.541
  119SOL    HW1 4256   0.397   4.597   0.554
  119SOL    HW2 4257   0.234   4.612   0.561
  120SOL     OW 4258   0.616   2.383   5.902
  120SOL    HW1 4259   0.691   2.368   5.965
  120SOL    HW2 4260   0.576   2.295   5.875
  121SOL     OW 4261   2.657   4.341   5.654
  121SOL    HW1 4262   2.653   4.347   5.554
  121SOL    HW2 4263   2.737   4.286   5.681
  122SOL     OW 4264   0.690   3.933   2.119
  122SOL    HW1 4265   0.737   3.984   2.191
  122SOL    HW2 4266   0.745   3.852   2.094
  123SOL     OW 4267   2.968   4.580   5.211
  123SOL    HW1 4268   3.023   4.564   5.294
  123SOL    HW2 4269   2.955   4.493   5.163
  124SOL     OW 4270   0.340   1.801   0.314
  124SOL    HW1 4271   0.370   1.832   0.404
  124SOL    HW2 4272   0.339   1.701   0.312
  125SOL     OW 4273   4.414   0.331   5.609
  125SOL    HW1 4274   4.454   0.239   5.609
  125SOL    HW2 4275   4.339   0.334   5.542
  126SOL     OW 4276   1.508   3.754   0.889
  126SOL    HW1 4277   1.417   3.735   0.927
  126SOL    HW2 4278   1.500   3.818   0.813
  127SOL     OW 4279   1.215   4.126   0.116
  127SOL    HW1 4280   1.127   4.124   0.164
  127SOL    HW2 4281   1.207   4.076   0.030
  128SOL     OW 4282   0.163   3.593   0.218
  128SOL    HW1 4283   0.174   3.640   0.306
  128SOL    HW2 4284   0.067   3.592   0.192
  129SOL     OW 4285   4.851   4.989   0.134
  129SOL    HW1 4286   4.874   5.083   0.157
  129SOL    HW2 4287   4.936   4.938   0.118
  130SOL     OW 4288   5.105   0.044   5.408
  130SOL    HW1 4289   5.050   5.653   5.338
  130SOL    HW2 4290   5.142   0.129   5.371
  131SOL     OW 4291   3.726   4.069   5.559
  131SOL    HW1 4292   3.806   4.126   5.542
  131SOL    HW2 4293   3.757   3.977   5.584
  132SOL     OW 4294   0.937   4.998   1.126
  132SOL    HW1 4295   0.922   5.067   1.197
  132SOL    HW2 4296   0.848   4.963   1.096
  133SOL     OW 4297   5.168   5.359   0.938
  133SOL    HW1 4298   5.207   5.448   0.914
  133SOL    HW2 4299   5.174   5.298   0.859
  134SOL     OW 4300   0.374   2.940   4.690
  134SOL    HW1 4301   0.318   3.022   4.679
  134SOL    HW2 4302   0.470   2.964   4.686
  135SOL     OW 4303   5.039   4.576   1.630
  135SOL    HW1 4304   5.025   4.510   1.704
  135SOL    HW2 4305   5.077   4.660   1.668
  136SOL     OW 4306   1.688   2.559   4.150
  136SOL    HW1 4307   1.677   2.655   4.124
  136SOL    HW2 4308   1.764   2.518   4.099
  137SOL     OW 4309   5.471   3.804   1.156
  137SOL    HW1 4310   5.495   3.709   1.133
  137SOL    HW2 4311   5.548   3.864   1.136
  138SOL     OW 4312   1.507   0.523   5.635
  138SOL    HW1 4313   1.494   0.458   5.561
  138SOL    HW2 4314   1.602   0.554   5.636
  139SOL     OW 4315   4.525   4.643   5.023
  139SOL    HW1 4316   4.525   4.732   4.979
  139SOL    HW2 4317   4.582   4.646   5.105
  140SOL     OW 4318   3.232   5.056   0.875
  140SOL    HW1 4319   3.253   4.968   0.917
  140SOL    HW2 4320   3.208   5.043   0.778
  141SOL     OW 4321   3.572   4.971   1.213
  141SOL    HW1 4322   3.578   4.874   1.238
  141SOL    HW2 4323   3.484   5.007   1.243
  142SOL     OW 4324   0.283   0.216   1.526
  142SOL    HW1 4325   0.241   0.162   1.599
  142SOL    HW2 4326   0.293   0.311   1.557
  143SOL     OW 4327   2.477   5.050   1.424
  143SOL    HW1 4328   2.481   4.980   1.495
  143SOL    HW2 4329   2.502   5.139   1.463
  144SOL     OW 4330   3.122   3.213   5.446
  144SOL    HW1 4331   3.154   3.217   5.351
  144SOL    HW2 4332   3.037   3.265   5.454
  145SOL     OW 4333   0.269   2.093   1.395
  145SOL    HW1 4334   0.198   2.049   1.450
  145SOL    HW2 4335   0.346   2.117   1.454
  146SOL     OW 4336   4.684   5.054   5.081
  146SOL    HW1 4337   4.607   5.054   5.145
  146SOL    HW2 4338   4.769   5.073   5.130
  147SOL     OW 4339   0.136   1.193   2.020
  147SOL    HW1 4340   0.067   1.199   2.093
  147SOL    HW2 4341   0.138   1.279   1.969
  148SOL     OW 4342   4.799   5.036   5.462
  148SOL    HW1 4343   4.767   5.079   5.547
  148SOL    HW2 4344   4.738   4.959   5.439
  149SOL     OW 4345   5.668   4.498   4.835
  149SOL    HW1 4346   0.005   4.409   4.856
  149SOL    HW2 4347   0.025   4.551   4.777
  150SOL     OW 4348   2.429   4.611   0.722
  150SOL    HW1 4349   2.483   4.553   0.784
  150SOL    HW2 4350   2.362   4.555   0.674
  151SOL     OW 4351   2.576   4.526   5.137
  151SOL    HW1 4352   2.639   4.590   5.181
  151SOL    HW2 4353   2.508   4.577   5.084
  152SOL     OW 4354   0.961   1.501   0.476
  152SOL    HW1 4355   0.886   1.558   0.509
  152SOL    HW2 4356   0.930   1.407   0.466
  153SOL     OW 4357   1.513   4.659   5.635
  153SOL    HW1 4358   1.562   4.745   5.620
  153SOL    HW2 4359   1.427   4.679   5.683
  154SOL     OW 4360   4.800   0.542   0.619
  154SOL    HW1 4361   4.715   0.521   0.667
  154SOL    HW2 4362   4.785   0.615   0.552
  155SOL     OW 4363   0.891   1.154   5.606
  155SOL    HW1 4364   0.868   1.061   5.577
  155SOL    HW2 4365   0.959   1.150   5.679
  156SOL     OW 4366   4.339   5.055   5.028
  156SOL    HW1 4367   4.393   4.990   4.975
  156SOL    HW2 4368   4.366   5.049   5.125
  157SOL     OW 4369   2.664   3.950   5.830
  157SOL    HW1 4370   2.612   3.867   5.809
  157SOL    HW2 4371   2.761   3.933   5.813
  158SOL     OW 4372   2.422   1.011   0.556
  158SOL    HW1 4373   2.421   0.932   0.494
  158SOL    HW2 4374   2.454   1.092   0.506
  159SOL     OW 4375   4.826   5.325   1.524
  159SOL    HW1 4376   4.814   5.370   1.612
  159SOL    HW2 4377   4.909   5.361   1.480
  160SOL     OW 4378   1.020   2.716   5.680
  160SOL    HW1 4379   1.056   2.808   5.664
  160SOL    HW2 4380   0.965   2.716   5.763
  161SOL     OW 4381   5.036   2.553   5.007
  161SOL    HW1 4382   4.959   2.570   5.069
  161SOL    HW2 4383   5.016   2.473   4.951
  162SOL     OW 4384   0.285   2.622   0.379
  162SOL    HW1 4385   0.257   2.701   0.433
  162SOL    HW2 4386   0.211   2.595   0.317
  163SOL     OW 4387   1.456   2.075   0.291
  163SOL    HW1 4388   1.473   2.020   0.373
  163SOL    HW2 4389   1.436   2.169   0.317
  164SOL     OW 4390   0.909   0.701   0.870
  164SOL    HW1 4391   0.858   0.767   0.925
  164SOL    HW2 4392   0.885   0.711   0.774
  165SOL     OW 4393   0.978   3.154   0.867
  165SOL    HW1 4394   1.011   3.074   0.816
  165SOL    HW2 4395   0.929   3.214   0.805
  166SOL     OW 4396   4.749   5.077   0.563
  166SOL    HW1 4397   4.730   5.020   0.483
  166SOL    HW2 4398   4.759   5.020   0.644
  167SOL     OW 4399   5.129   5.624   1.133
  167SOL    HW1 4400   5.123   0.054   1.186
  167SOL    HW2 4401   5.195   5.635   1.059
  168SOL     OW 4402   2.180   4.160   1.526
  168SOL    HW1 4403   2.203   4.065   1.546
  168SOL    HW2 4404   2.150   4.168   1.430
  169SOL     OW 4405   3.446   4.363   1.682
  169SOL    HW1 4406   3.531   4.413   1.694
  169SOL    HW2 4407   3.369   4.421   1.709
  170SOL     OW 4408   2.453   2.255   0.686
  170SOL    HW1 4409   2.431   2.178   0.747
  170SOL    HW2 4410   2.537   2.299   0.718
  171SOL     OW 4411   5.607   1.841   5.451
  171SOL    HW1 4412   5.613   1.926   5.503
  171SOL    HW2 4413   5.510   1.820   5.433
  172SOL     OW 4414   0.568   4.143   0.361
  172SOL    HW1 4415   0.528   4.090   0.287
  172SOL    HW2 4416   0.496   4.170   0.425
  173SOL     OW 4417   0.636   1.276   0.613
  173SOL    HW1 4418   0.697   1.319   0.679
  173SOL    HW2 4419   0.544   1.271   0.651
  174SOL     OW 4420   0.989   2.750   0.861
  174SOL    HW1 4421   1.022   2.737   0.954
  174SOL    HW2 4422   1.041   2.823   0.817
  175SOL     OW 4423   5.655   4.743   4.966
  175SOL    HW1 4424   5.613   4.793   4.890
  175SOL    HW2 4425   5.659   4.645   4.943
  176SOL     OW 4426   2.512   5.116   4.377
  176SOL    HW1 4427   2.476   5.206   4.353
  176SOL    HW2 4428   2.464   5.045   4.326
  177SOL     OW 4429   3.062   3.904   0.892
  177SOL    HW1 4430   3.161   3.893   0.890
  177SOL    HW2 4431   3.039   4.001   0.896
  178SOL     OW 4432   0.117   5.200   1.336
  178SOL    HW1 4433   0.030   5.155   1.355
  178SOL    HW2 4434   0.185   5.171   1.403
  179SOL     OW 4435   2.719   0.938   5.813
  179SOL    HW1 4436   2.725   0.850   5.859
  179SOL    HW2 4437   2.623   0.965   5.805
  180SOL     OW 4438   2.960   0.396   0.808
  180SOL    HW1 4439   3.043   0.384   0.864
  180SOL    HW2 4440   2.986   0.410   0.713
  181SOL     OW 4441   0.994   1.324   5.982
  181SOL    HW1 4442   0.902   1.364   5.975
  181SOL    HW2 4443   1.027   1.332   0.060
  182SOL     OW 4444   0.876   4.070   4.686
  182SOL    HW1 4445   0.950   4.003   4.681
  182SOL    HW2 4446   0.821   4.065   4.602
  183SOL     OW 4447   0.472   4.565   0.872
  183SOL    HW1 4448   0.490   4.522   0.783
  183SOL    HW2 4449   0.442   4.660   0.858
  184SOL     OW 4450   5.080   1.791   1.367
  184SOL    HW1 4451   5.145   1.715   1.369
  184SOL    HW2 4452   5.076   1.834   1.458
  185SOL     OW 4453   1.568   4.102   1.246
  185SOL    HW1 4454   1.529   4.194   1.254
  185SOL    HW2 4455   1.494   4.035   1.244
  186SOL     OW 4456   2.679   1.944   0.319
  186SOL    HW1 4457   2.718   1.902   0.237
  186SOL    HW2 4458   2.725   2.031   0.336
  187SOL     OW 4459   4.708   5.054   4.470
  187SOL    HW1 4460   4.681   5.059   4.374
  187SOL    HW2 4461   4.752   4.966   4.487
  188SOL     OW 4462   2.980   3.547   5.728
  188SOL    HW1 4463   2.954   3.568   5.822
  188SOL    HW2 4464   2.910   3.582   5.665
  189SOL     OW 4465   5.419   5.377   4.230
  189SOL    HW1 4466   5.511   5.337   4.230
  189SOL    HW2 4467   5.422   5.465   4.184
  190SOL     OW 4468   1.610   4.341   0.189
  190SOL    HW1 4469   1.689   4.384   0.145
  190SOL    HW2 4470   1.637   4.252   0.226
  191SOL     OW 4471   2.726   2.495   5.887
  191SOL    HW1 4472   2.821   2.508   5.859
  191SOL    HW2 4473   2.685   2.583   5.910
  192SOL     OW 4474   4.750   2.298   0.746
  192SOL    HW1 4475   4.662   2.341   0.725
  192SOL    HW2 4476   4.804   2.289   0.663
  193SOL     OW 4477   0.772   2.869   0.728
  193SOL    HW1 4478   0.845   2.828   0.783
  193SOL    HW2 4479   0.687   2.817   0.741
  194SOL     OW 4480   4.343   0.846   0.939
  194SOL    HW1 4481   4.429   0.885   0.907
  194SOL    HW2 4482   4.275   0.851   0.866
  195SOL     OW 4483   3.990   3.236   5.511
  195SOL    HW1 4484   4.078   3.235   5.558
  195SOL    HW2 4485   3.925   3.292   5.563
  196SOL     OW 4486   3.659   0.644   4.997
  196SOL    HW1 4487   3.568   0.674   4.968
  196SOL    HW2 4488   3.709   0.608   4.918
  197SOL     OW 4489   3.188   4.407   4.954
  197SOL    HW1 4490   3.245   4.481   4.988
  197SOL    HW2 4491   3.169   4.421   4.857
  198SOL     OW 4492   0.441   2.046   5.016
  198SOL    HW1 4493   0.537   2.022   5.030
  198SOL    HW2 4494   0.429   2.145   5.024
  199SOL     OW 4495   5.296   2.611   4.117
  199SOL    HW1 4496   5.247   2.525   4.111
  199SOL    HW2 4497   5.395   2.593   4.122
  200SOL     OW 4498   2.190   4.427   5.865
  200SOL    HW1 4499   2.109   4.480   5.840
  200SOL    HW2 4500   2.272   4.478   5.839
  201SOL     OW 4501   2.047   5.140   5.589
  201SOL    HW1 4502   2.130   5.195   5.578
  201SOL    HW2 4503   2.045   5.068   5.519
  202SOL     OW 4504   3.247   4.275   5.189
  202SOL    HW1 4505   3.230   4.322   5.103
  202SOL    HW2 4506   3.295   4.337   5.252
  203SOL     OW 4507   0.532   2.722   0.737
  203SOL    HW1 4508   0.582   2.645   0.697
  203SOL    HW2 4509   0.435   2.714   0.717
  204SOL     OW 4510   1.810   2.528   1.585
  204SOL    HW1 4511   1.808   2.471   1.667
  204SOL    HW2 4512   1.766   2.615   1.604
  205SOL     OW 4513   1.398   4.996   0.639
  205SOL    HW1 4514   1.419   5.092   0.656
  205SOL    HW2 4515   1.480   4.940   0.656
  206SOL     OW 4516   3.882   0.223   1.522
  206SOL    HW1 4517   3.842   0.279   1.595
  206SOL    HW2 4518   3.975   0.255   1.503
  207SOL     OW 4519   1.837   4.109   1.243
  207SOL    HW1 4520   1.738   4.105   1.229
  207SOL    HW2 4521   1.857   4.152   1.331
  208SOL     OW 4522   0.751   0.553   5.485
  208SOL    HW1 4523   0.819   0.499   5.535
  208SOL    HW2 4524   0.784   0.572   5.393
  209SOL     OW 4525   0.594   0.615   0.687
  209SOL    HW1 4526   0.667   0.682   0.673
  209SOL    HW2 4527   0.532   0.648   0.759
  210SOL     OW 4528   3.753   2.573   5.526
  210SOL    HW1 4529   3.843   2.616   5.522
  210SOL    HW2 4530   3.705   2.588   5.439
  211SOL     OW 4531   1.843   2.278   5.664
  211SOL    HW1 4532   1.798   2.278   5.753
  211SOL    HW2 4533   1.835   2.188   5.622
  212SOL     OW 4534   2.949   1.922   1.024
  212SOL    HW1 4535   2.885   1.993   0.995
  212SOL    HW2 4536   2.988   1.946   1.113
  213SOL     OW 4537   3.466   2.818   5.365
  213SOL    HW1 4538   3.388   2.775   5.408
  213SOL    HW2 4539   3.529   2.748   5.332
  214SOL     OW 4540   0.156   0.317   5.262
  214SOL    HW1 4541   0.073   0.374   5.266
  214SOL    HW2 4542   0.170   0.285   5.168
  215SOL     OW 4543   0.231   0.048   5.902
  215SOL    HW1 4544   0.182   5.620   5.875
  215SOL    HW2 4545   0.209   0.071   5.997
  216SOL     OW 4546   0.134   4.639   4.682
  216SOL    HW1 4547   0.213   4.583   4.661
  216SOL    HW2 4548   0.114   4.698   4.603
  217SOL     OW 4549   5.458   3.527   0.336
  217SOL    HW1 4550   5.505   3.558   0.253
  217SOL    HW2 4551   5.525   3.505   0.407
  218SOL     OW 4552   2.252   2.736   0.585
  218SOL    HW1 4553   2.285   2.763   0.676
  218SOL    HW2 4554   2.281   2.642   0.566
  219SOL     OW 4555   3.771   0.075   5.615
  219SOL    HW1 4556   3.771   0.175   5.622
  219SOL    HW2 4557   3.859   0.044   5.579
  220SOL     OW 4558   5.523   4.147   1.298
  220SOL    HW1 4559   5.593   4.213   1.325
  220SOL    HW2 4560   5.564   4.077   1.240
  221SOL     OW 4561   2.000   0.406   5.268
  221SOL    HW1 4562   1.977   0.501   5.251
  221SOL    HW2 4563   1.937   0.367   5.335
  222SOL     OW 4564   1.341   2.473   4.542
  222SOL    HW1 4565   1.378   2.497   4.452
  222SOL    HW2 4566   1.243   2.496   4.545
  223SOL     OW 4567   3.463   0.260   0.752
  223SOL    HW1 4568   3.556   0.227   0.733
  223SOL    HW2 4569   3.462   0.308   0.840
  224SOL     OW 4570   5.567   4.590   0.765
  224SOL    HW1 4571   5.508   4.626   0.693
  224SOL    HW2 4572   5.512   4.539   0.831
  225SOL     OW 4573   4.200   4.194   0.570
  225SOL    HW1 4574   4.276   4.207   0.505
  225SOL    HW2 4575   4.207   4.104   0.612
  226SOL     OW 4576   5.005   0.801   4.740
  226SOL    HW1 4577   5.062   0.882   4.758
  226SOL    HW2 4578   4.921   0.830   4.694
  227SOL     OW 4579   1.577   4.589   1.513
  227SOL    HW1 4580   1.609   4.495   1.523
  227SOL    HW2 4581   1.492   4.601   1.564
  228SOL     OW 4582   0.358   3.103   5.263
  228SOL    HW1 4583   0.426   3.174   5.282
  228SOL    HW2 4584   0.356   3.037   5.338
  229SOL     OW 4585   5.675   2.810   5.642
  229SOL    HW1 4586   0.064   2.790   5.670
  229SOL    HW2 4587   5.657   2.767   5.553
  230SOL     OW 4588   1.427   0.524   4.921
  230SOL    HW1 4589   1.424   0.427   4.896
  230SOL    HW2 4590   1.476   0.575   4.850
  231SOL     OW 4591   4.066   4.086   4.804
  231SOL    HW1 4592   4.024   4.168   4.766
  231SOL    HW2 4593   4.018   4.005   4.769
  232SOL     OW 4594   2.129   1.554   4.988
  232SOL    HW1 4595   2.058   1.596   4.932
  232SOL    HW2 4596   2.189   1.626   5.025
  233SOL     OW 4597   2.762   0.693   5.939
  233SOL    HW1 4598   2.860   0.674   5.931
  233SOL    HW2 4599   2.736   0.691   0.019
  234SOL     OW 4600   1.367   1.311   1.403
  234SOL    HW1 4601   1.418   1.369   1.465
  234SOL    HW2 4602   1.269   1.327   1.414
  235SOL     OW 4603   2.048   0.297   0.402
  235SOL    HW1 4604   1.984   0.348   0.344
  235SOL    HW2 4605   2.072   0.211   0.357
  236SOL     OW 4606   2.549   5.198   5.936
  236SOL    HW1 4607   2.639   5.197   5.892
  236SOL    HW2 4608   2.528   5.106   5.970
  237SOL     OW 4609   0.522   3.470   0.633
  237SOL    HW1 4610   0.512   3.538   0.560
  237SOL    HW2 4611   0.556   3.384   0.595
  238SOL     OW 4612   2.778   0.758   4.435
  238SOL    HW1 4613   2.743   0.840   4.390
  238SOL    HW2 4614   2.856   0.721   4.384
  239SOL     OW 4615   3.816   0.537   4.498
  239SOL    HW1 4616   3.787   0.444   4.474
  239SOL    HW2 4617   3.875   0.572   4.425
  240SOL     OW 4618   5.099   3.441   0.240
  240SOL    HW1 4619   5.168   3.385   0.286
  240SOL    HW2 4620   5.144   3.497   0.170
  241SOL     OW 4621   1.661   5.308   1.326
  241SOL    HW1 4622   1.743   5.252   1.317
  241SOL    HW2 4623   1.653   5.340   1.421
  242SOL     OW 4624   3.023   2.920   5.885
  242SOL    HW1 4625   3.081   2.974   5.947
  242SOL    HW2 4626   3.007   2.972   5.801
  243SOL     OW 4627   0.836   1.576   4.780
  243SOL    HW1 4628   0.845   1.606   4.685
  243SOL    HW2 4629   0.916   1.522   4.805
  244SOL     OW 4630   4.673   0.295   0.334
  244SOL    HW1 4631   4.758   0.345   0.319
  244SOL    HW2 4632   4.668   0.218   0.270
  245SOL     OW 4633   1.968   1.403   1.178
  245SOL    HW1 4634   1.932   1.373   1.090
  245SOL    HW2 4635   1.972   1.503   1.180
  246SOL     OW 4636   3.498   1.102   4.493
  246SOL    HW1 4637   3.407   1.067   4.470
  246SOL    HW2 4638   3.568   1.046   4.447
  247SOL     OW 4639   2.022   2.020   1.446
  247SOL    HW1 4640   2.067   1.934   1.421
  247SOL    HW2 4641   2.086   2.078   1.496
  248SOL     OW 4642   5.563   5.244   0.788
  248SOL    HW1 4643   5.611   5.165   0.749
  248SOL    HW2 4644   5.628   5.304   0.834
  249SOL     OW 4645   0.053   1.958   1.516
  249SOL    HW1 4646   0.121   1.958   1.589
  249SOL    HW2 4647   0.033   1.864   1.489
  250SOL     OW 4648   0.034   4.984   6.011
  250SOL    HW1 4649   0.095   5.060   5.989
  250SOL    HW2 4650   0.053   4.953   0.089
  251SOL     OW 4651   4.712   1.105   0.991
  251SOL    HW1 4652   4.649   1.137   1.061
  251SOL    HW2 4653   4.669   1.034   0.936
  252SOL     OW 4654   0.411   1.314   4.181
  252SOL    HW1 4655   0.430   1.216   4.188
  252SOL    HW2 4656   0.466   1.353   4.107
  253SOL     OW 4657   4.140   0.399   0.813
  253SOL    HW1 4658   4.195   0.465   0.762
  253SOL    HW2 4659   4.199   0.326   0.847
  254SOL     OW 4660   0.465   2.585   6.008
  254SOL    HW1 4661   0.373   2.547   0.005
  254SOL    HW2 4662   0.525   2.514   5.971
  255SOL     OW 4663   4.685   0.960   1.638
  255SOL    HW1 4664   4.703   1.052   1.672
  255SOL    HW2 4665   4.651   0.902   1.712
  256SOL     OW 4666   0.649   0.529   5.920
  256SOL    HW1 4667   0.736   0.536   5.872
  256SOL    HW2 4668   0.658   0.565   6.012
  257SOL     OW 4669   2.097   4.896   5.945
  257SOL    HW1 4670   2.170   4.872   5.882
  257SOL    HW2 4671   2.135   4.938   0.011
  258SOL     OW 4672   1.589   4.004   4.971
  258SOL    HW1 4673   1.506   4.049   5.005
  258SOL    HW2 4674   1.603   4.028   4.875
  259SOL     OW 4675   3.059   1.860   4.767
  259SOL    HW1 4676   2.997   1.849   4.690
  259SOL    HW2 4677   3.121   1.937   4.750
  260SOL     OW 4678   4.217   4.502   0.132
  260SOL    HW1 4679   4.247   4.519   0.226
  260SOL    HW2 4680   4.135   4.445   0.133
  261SOL     OW 4681   4.062   0.197   0.123
  261SOL    HW1 4682   4.132   0.197   0.052
  261SOL    HW2 4683   3.974   0.223   0.082
  262SOL     OW 4684   4.229   0.660   1.307
  262SOL    HW1 4685   4.267   0.573   1.337
  262SOL    HW2 4686   4.155   0.643   1.242
  263SOL     OW 4687   0.623   4.789   5.541
  263SOL    HW1 4688   0.615   4.712   5.604
  263SOL    HW2 4689   0.705   4.777   5.485
  264SOL     OW 4690   3.945   5.437   0.575
  264SOL    HW1 4691   3.967   5.532   0.553
  264SOL    HW2 4692   3.887   5.399   0.502
  265SOL     OW 4693   1.792   3.192   1.404
  265SOL    HW1 4694   1.802   3.252   1.484
  265SOL    HW2 4695   1.766   3.247   1.325
  266SOL     OW 4696   2.217   5.005   1.638
  266SOL    HW1 4697   2.175   4.920   1.672
  266SOL    HW2 4698   2.268   5.049   1.712
  267SOL     OW 4699   0.603   0.262   0.419
  267SOL    HW1 4700   0.657   0.286   0.338
  267SOL    HW2 4701   0.510   0.296   0.409
  268SOL     OW 4702   4.139   0.897   0.753
  268SOL    HW1 4703   4.118   0.857   0.663
  268SOL    HW2 4704   4.059   0.889   0.812
  269SOL     OW 4705   5.216   1.660   5.984
  269SOL    HW1 4706   5.162   1.578   5.965
  269SOL    HW2 4707   5.202   1.727   5.911
  270SOL     OW 4708   1.971   0.925   0.521
  270SOL    HW1 4709   2.001   0.880   0.605
  270SOL    HW2 4710   1.879   0.961   0.533
  271SOL     OW 4711   0.363   2.807   4.452
  271SOL    HW1 4712   0.325   2.878   4.393
  271SOL    HW2 4713   0.364   2.838   4.547
  272SOL     OW 4714   1.324   4.047   1.011
  272SOL    HW1 4715   1.284   3.990   0.939
  272SOL    HW2 4716   1.347   3.990   1.089
  273SOL     OW 4717   2.862   2.000   5.479
  273SOL    HW1 4718   2.903   1.910   5.496
  273SOL    HW2 4719   2.811   2.028   5.560
  274SOL     OW 4720   5.688   3.269   5.476
  274SOL    HW1 4721   0.028   3.237   5.393
  274SOL    HW2 4722   5.651   3.190   5.526
  275SOL     OW 4723   3.532   4.031   5.363
  275SOL    HW1 4724   3.595   4.045   5.440
  275SOL    HW2 4725   3.567   4.079   5.282
  276SOL     OW 4726   4.153   2.094   5.591
  276SOL    HW1 4727   4.148   2.133   5.683
  276SOL    HW2 4728   4.223   2.023   5.589
  277SOL     OW 4729   0.173   0.961   5.937
  277SOL    HW1 4730   0.219   0.910   6.009
  277SOL    HW2 4731   0.241   1.005   5.878
  278SOL     OW 4732   0.109   0.871   1.074
  278SOL    HW1 4733   0.071   0.845   0.985
  278SOL    HW2 4734   0.118   0.970   1.079
  279SOL     OW 4735   1.480   3.789   4.353
  279SOL    HW1 4736   1.532   3.832   4.279
  279SOL    HW2 4737   1.384   3.817   4.347
  280SOL     OW 4738   1.850   4.057   1.714
  280SOL    HW1 4739   1.761   4.018   1.735
  280SOL    HW2 4740   1.920   3.985   1.716
  281SOL     OW 4741   3.941   5.328   4.591
  281SOL    HW1 4742   4.039   5.321   4.578
  281SOL    HW2 4743   3.904   5.240   4.620
  282SOL     OW 4744   2.814   4.220   4.587
  282SOL    HW1 4745   2.719   4.195   4.599
  282SOL    HW2 4746   2.846   4.189   4.497
  283SOL     OW 4747   5.548   4.078   5.844
  283SOL    HW1 4748   5.640   4.078   5.883
  283SOL    HW2 4749   5.540   4.153   5.777
  284SOL     OW 4750   4.058   3.000   5.746
  284SOL    HW1 4751   4.002   2.976   5.667
  284SOL    HW2 4752   4.136   3.054   5.716
  285SOL     OW 4753   3.451   4.858   5.410
  285SOL    HW1 4754   3.380   4.925   5.434
  285SOL    HW2 4755   3.531   4.905   5.375
  286SOL     OW 4756   5.350   0.580   0.496
  286SOL    HW1 4757   5.345   0.487   0.461
  286SOL    HW2 4758   5.444   0.615   0.488
  287SOL     OW 4759   3.037   3.779   1.231
  287SOL    HW1 4760   3.085   3.712   1.287
  287SOL    HW2 4761   3.014   3.738   1.143
  288SOL     OW 4762   0.784   0.269   0.849
  288SOL    HW1 4763   0.706   0.206   0.840
  288SOL    HW2 4764   0.789   0.326   0.767
  289SOL     OW 4765   4.620   4.838   5.405
  289SOL    HW1 4766   4.601   4.796   5.493
  289SOL    HW2 4767   4.644   4.768   5.339
  290SOL     OW 4768   4.811   1.876   1.065
  290SOL    HW1 4769   4.761   1.911   1.144
  290SOL    HW2 4770   4.828   1.950   1.000
  291SOL     OW 4771   3.277   5.589   4.427
  291SOL    HW1 4772   3.199   5.574   4.366
  291SOL    HW2 4773   3.361   5.558   4.383
  292SOL     OW 4774   1.618   3.936   1.789
  292SOL    HW1 4775   1.564   4.019   1.774
  292SOL    HW2 4776   1.560   3.855   1.780
  293SOL     OW 4777   1.036   4.670   0.839
  293SOL    HW1 4778   1.085   4.755   0.820
  293SOL    HW2 4779   0.938   4.686   0.833
  294SOL     OW 4780   1.754   4.042   6.011
  294SOL    HW1 4781   1.777   4.129   5.968
  294SOL    HW2 4782   1.818   4.023   0.070
  295SOL     OW 4783   5.371   3.335   0.066
  295SOL    HW1 4784   5.351   3.297   0.156
  295SOL    HW2 4785   5.469   3.330   0.049
  296SOL     OW 4786   0.673   5.173   1.038
  296SOL    HW1 4787   0.596   5.235   1.052
  296SOL    HW2 4788   0.656   5.087   1.085
  297SOL     OW 4789   0.414   4.667   0.150
  297SOL    HW1 4790   0.417   4.739   0.219
  297SOL    HW2 4791   0.466   4.695   0.069
  298SOL     OW 4792   1.955   0.675   5.230
  298SOL    HW1 4793   1.930   0.714   5.141
  298SOL    HW2 4794   1.932   0.741   5.302
  299SOL     OW 4795   3.521   0.986   5.630
  299SOL    HW1 4796   3.555   0.925   5.560
  299SOL    HW2 4797   3.482   0.933   5.705
  300SOL     OW 4798   2.331   2.233   0.273
  300SOL    HW1 4799   2.428   2.253   0.285
  300SOL    HW2 4800   2.283   2.317   0.249
  301SOL     OW 4801   0.268   5.597   0.321
  301SOL    HW1 4802   0.224   5.654   0.251
  301SOL    HW2 4803   0.367   5.612   0.317
  302SOL     OW 4804   2.669   1.170   4.764
  302SOL    HW1 4805   2.728   1.240   4.804
  302SOL    HW2 4806   2.707   1.142   4.676
  303SOL     OW 4807   0.400   1.064   5.816
  303SOL    HW1 4808   0.434   1.128   5.747
  303SOL    HW2 4809   0.466   0.990   5.829
  304SOL     OW 4810   0.072   4.256   4.899
  304SOL    HW1 4811   0.086   4.274   4.997
  304SOL    HW2 4812   5.699   4.195   4.888
  305SOL     OW 4813   3.500   3.805   5.206
  305SOL    HW1 4814   3.507   3.876   5.276
  305SOL    HW2 4815   3.499   3.848   5.116
  306SOL     OW 4816   4.240   1.140   0.855
  306SOL    HW1 4817   4.282   1.193   0.781
  306SOL    HW2 4818   4.201   1.055   0.817
  307SOL     OW 4819   2.717   4.195   0.015
  307SOL    HW1 4820   2.631   4.145   0.021
  307SOL    HW2 4821   2.756   4.184   5.939
  308SOL     OW 4822   5.104   4.896   0.023
  308SOL    HW1 4823   5.109   4.799   6.014
  308SOL    HW2 4824   5.179   4.918   0.085
  309SOL     OW 4825   3.965   5.460   1.288
  309SOL    HW1 4826   4.058   5.425   1.304
  309SOL    HW2 4827   3.943   5.453   1.191
  310SOL     OW 4828   2.142   1.492   4.247
  310SOL    HW1 4829   2.096   1.556   4.185
  310SOL    HW2 4830   2.083   1.414   4.264
  311SOL     OW 4831   3.069   5.646   0.783
  311SOL    HW1 4832   3.006   0.026   0.853
  311SOL    HW2 4833   3.087   5.549   0.799
  312SOL     OW 4834   2.445   5.371   0.106
  312SOL    HW1 4835   2.360   5.326   0.133
  312SOL    HW2 4836   2.491   5.316   0.036
  313SOL     OW 4837   0.558   3.299   5.314
  313SOL    HW1 4838   0.646   3.253   5.328
  313SOL    HW2 4839   0.568   3.369   5.243
  314SOL     OW 4840   5.221   2.419   0.002
  314SOL    HW1 4841   5.168   2.446   5.937
  314SOL    HW2 4842   5.318   2.413   5.994
  315SOL     OW 4843   0.558   4.493   1.513
  315SOL    HW1 4844   0.562   4.406   1.563
  315SOL    HW2 4845   0.650   4.529   1.501
  316SOL     OW 4846   0.828   3.782   5.427
  316SOL    HW1 4847   0.917   3.798   5.383
  316SOL    HW2 4848   0.759   3.763   5.358
  317SOL     OW 4849   4.648   1.193   5.407
  317SOL    HW1 4850   4.568   1.214   5.463
  317SOL    HW2 4851   4.621   1.135   5.330
  318SOL     OW 4852   1.475   5.346   5.248
  318SOL    HW1 4853   1.563   5.322   5.289
  318SOL    HW2 4854   1.412   5.269   5.256
  319SOL     OW 4855   1.748   2.775   1.211
  319SOL    HW1 4856   1.751   2.683   1.251
  319SOL    HW2 4857   1.773   2.770   1.114
  320SOL     OW 4858   4.333   0.715   4.992
  320SOL    HW1 4859   4.368   0.669   4.910
  320SOL    HW2 4860   4.365   0.809   4.994
  321SOL     OW 4861   3.854   1.152   0.247
  321SOL    HW1 4862   3.935   1.105   0.212
  321SOL    HW2 4863   3.848   1.138   0.346
  322SOL     OW 4864   4.544   0.084   5.615
  322SOL    HW1 4865   4.639   0.115   5.609
  322SOL    HW2 4866   4.538   0.005   5.676
  323SOL     OW 4867   0.901   3.539   5.142
  323SOL    HW1 4868   0.965   3.474   5.101
  323SOL    HW2 4869   0.808   3.514   5.118
  324SOL     OW 4870   2.003   3.843   1.072
  324SOL    HW1 4871   2.100   3.828   1.050
  324SOL    HW2 4872   1.972   3.928   1.031
  325SOL     OW 4873   3.305   1.468   5.936
  325SOL    HW1 4874   3.333   1.539   5.872
  325SOL    HW2 4875   3.384   1.438   5.989
  326SOL     OW 4876   2.106   3.352   5.965
  326SOL    HW1 4877   2.205   3.334   5.960
  326SOL    HW2 4878   2.067   3.344   5.873
  327SOL     OW 4879   2.366   3.663   0.384
  327SOL    HW1 4880   2.413   3.713   0.311
  327SOL    HW2 4881   2.429   3.599   0.428
  328SOL     OW 4882   0.631   0.999   0.634
  328SOL    HW1 4883   0.643   1.097   0.615
  328SOL    HW2 4884   0.591   0.988   0.725
  329SOL     OW 4885   0.881   5.350   1.090
  329SOL    HW1 4886   0.804   5.289   1.070
  329SOL    HW2 4887   0.918   5.326   1.180
  330SOL     OW 4888   4.807   0.191   5.330
  330SOL    HW1 4889   4.864   0.270   5.304
  330SOL    HW2 4890   4.813   0.177   5.429
  331SOL     OW 4891   5.339   1.749   5.426
  331SOL    HW1 4892   5.342   1.659   5.384
  331SOL    HW2 4893   5.248   1.789   5.411
  332SOL     OW 4894   0.256   3.127   5.621
  332SOL    HW1 4895   0.324   3.199   5.604
  332SOL    HW2 4896   0.182   3.163   5.677
  333SOL     OW 4897   2.100   3.863   2.041
  333SOL    HW1 4898   2.001   3.854   2.027
  333SOL    HW2 4899   2.143   3.773   2.030
  334SOL     OW 4900   4.496   3.809   0.628
  334SOL    HW1 4901   4.455   3.827   0.539
  334SOL    HW2 4902   4.429   3.762   0.686
  335SOL     OW 4903   2.984   3.662   0.985
  335SOL    HW1 4904   3.025   3.745   0.947
  335SOL    HW2 4905   2.887   3.658   0.962
  336SOL     OW 4906   4.715   2.864   1.044
  336SOL    HW1 4907   4.730   2.782   0.989
  336SOL    HW2 4908   4.778   2.865   1.122
  337SOL     OW 4909   2.156   5.574   5.734
  337SOL    HW1 4910   2.144   5.499   5.799
  337SOL    HW2 4911   2.067   5.613   5.711
  338SOL     OW 4912   3.902   2.575   4.500
  338SOL    HW1 4913   3.810   2.557   4.465
  338SOL    HW2 4914   3.967   2.580   4.424
  339SOL     OW 4915   3.609   3.350   1.000
  339SOL    HW1 4916   3.613   3.367   0.901
  339SOL    HW2 4917   3.651   3.261   1.020
  340SOL     OW 4918   3.049   2.901   0.984
  340SOL    HW1 4919   3.141   2.862   0.972
  340SOL    HW2 4920   3.058   2.997   1.014
  341SOL     OW 4921   0.847   4.328   1.424
  341SOL    HW1 4922   0.769   4.286   1.378
  341SOL    HW2 4923   0.926   4.330   1.361
  342SOL     OW 4924   2.841   4.119   0.429
  342SOL    HW1 4925   2.844   4.076   0.339
  342SOL    HW2 4926   2.885   4.209   0.425
  343SOL     OW 4927   3.334   0.638   5.237
  343SOL    HW1 4928   3.394   0.714   5.211
  343SOL    HW2 4929   3.302   0.651   5.330
  344SOL     OW 4930   0.852   1.937   0.831
  344SOL    HW1 4931   0.837   1.922   0.733
  344SOL    HW2 4932   0.907   2.019   0.844
  345SOL     OW 4933   0.698   5.135   4.810
  345SOL    HW1 4934   0.667   5.070   4.742
  345SOL    HW2 4935   0.689   5.228   4.774
  346SOL     OW 4936   1.436   3.323   0.070
  346SOL    HW1 4937   1.404   3.342   5.993
  346SOL    HW2 4938   1.400   3.234   0.100
  347SOL     OW 4939   0.666   2.158   0.227
  347SOL    HW1 4940   0.600   2.107   0.171
  347SOL    HW2 4941   0.711   2.227   0.170
  348SOL     OW 4942   3.860   4.546   1.258
  348SOL    HW1 4943   3.935   4.576   1.317
  348SOL    HW2 4944   3.783   4.517   1.315
  349SOL     OW 4945   4.979   4.095   0.371
  349SOL    HW1 4946   5.013   4.162   0.305
  349SOL    HW2 4947   4.991   4.003   0.334
  350SOL     OW 4948   3.343   3.413   0.982
  350SOL    HW1 4949   3.335   3.500   1.031
  350SOL    HW2 4950   3.437   3.379   0.990
  351SOL     OW 4951   1.157   2.948   5.978
  351SOL    HW1 4952   1.149   2.974   5.882
  351SOL    HW2 4953   1.067   2.927   6.015
  352SOL     OW 4954   4.515   4.050   0.375
  352SOL    HW1 4955   4.603   4.072   0.417
  352SOL    HW2 4956   4.464   4.134   0.359
  353SOL     OW 4957   3.253   1.688   0.522
  353SOL    HW1 4958   3.270   1.593   0.546
  353SOL    HW2 4959   3.158   1.700   0.493
  354SOL     OW 4960   4.366   5.009   0.815
  354SOL    HW1 4961   4.361   5.005   0.715
  354SOL    HW2 4962   4.307   4.938   0.854
  355SOL     OW 4963   0.841   3.930   1.021
  355SOL    HW1 4964   0.840   3.862   1.094
  355SOL    HW2 4965   0.748   3.964   1.006
  356SOL     OW 4966   2.365   3.235   5.692
  356SOL    HW1 4967   2.453   3.234   5.645
  356SOL    HW2 4968   2.372   3.288   5.777
  357SOL     OW 4969   0.710   3.535   4.286
  357SOL    HW1 4970   0.677   3.440   4.292
  357SOL    HW2 4971   0.714   3.563   4.191
  358SOL     OW 4972   0.854   5.411   5.568
  358SOL    HW1 4973   0.893   5.501   5.545
  358SOL    HW2 4974   0.910   5.339   5.525
  359SOL     OW 4975   0.546   1.211   5.379
  359SOL    HW1 4976   0.522   1.121   5.344
  359SOL    HW2 4977   0.643   1.229   5.362
  360SOL     OW 4978   4.811   5.267   0.917
  360SOL    HW1 4979   4.848   5.292   1.006
  360SOL    HW2 4980   4.732   5.207   0.929
  361SOL     OW 4981   4.787   1.253   0.773
  361SOL    HW1 4982   4.761   1.205   0.857
  361SOL    HW2 4983   4.776   1.351   0.785
  362SOL     OW 4984   0.459   0.053   5.291
  362SOL    HW1 4985   0.502   0.099   5.213
  362SOL    HW2 4986   0.520   0.055   5.370
  363SOL     OW 4987   5.244   3.586   0.063
  363SOL    HW1 4988   5.258   3.643   5.997
  363SOL    HW2 4989   5.300   3.504   0.057
  364SOL     OW 4990   0.888   5.207   2.041
  364SOL    HW1 4991   0.840   5.262   2.109
  364SOL    HW2 4992   0.852   5.114   2.041
  365SOL     OW 4993   5.321   4.824   0.855
  365SOL    HW1 4994   5.346   4.920   0.867
  365SOL    HW2 4995   5.344   4.773   0.938
  366SOL     OW 4996   4.840   0.909   5.153
  366SOL    HW1 4997   4.799   0.839   5.094
  366SOL    HW2 4998   4.934   0.927   5.123
  367SOL     OW 4999   1.896   2.354   1.134
  367SOL    HW1 5000   1.878   2.283   1.202
  367SOL    HW2 5001   1.994   2.367   1.123
  368SOL     OW 5002   3.204   0.391   0.962
  368SOL    HW1 5003   3.216   0.481   0.921
  368SOL    HW2 5004   3.294   0.354   0.988
  369SOL     OW 5005   2.434   1.025   5.337
  369SOL    HW1 5006   2.389   1.011   5.249
  369SOL    HW2 5007   2.515   0.966   5.343
  370SOL     OW 5008   4.151   0.076   1.194
  370SOL    HW1 5009   4.150   0.050   1.291
  370SOL    HW2 5010   4.238   0.121   1.173
  371SOL     OW 5011   4.960   3.318   0.436
  371SOL    HW1 5012   4.932   3.227   0.406
  371SOL    HW2 5013   5.000   3.367   0.359
  372SOL     OW 5014   3.491   3.952   4.967
  372SOL    HW1 5015   3.542   4.035   4.943
  372SOL    HW2 5016   3.488   3.890   4.889
  373SOL     OW 5017   1.307   4.265   2.152
  373SOL    HW1 5018   1.293   4.166   2.154
  373SOL    HW2 5019   1.254   4.308   2.225
  374SOL     OW 5020   4.462   2.482   5.090
  374SOL    HW1 5021   4.506   2.458   5.003
  374SOL    HW2 5022   4.448   2.398   5.143
  375SOL     OW 5023   4.010   3.927   5.427
  375SOL    HW1 5024   3.957   3.947   5.345
  375SOL    HW2 5025   3.952   3.882   5.495
  376SOL     OW 5026   0.789   1.493   1.020
  376SOL    HW1 5027   0.838   1.444   1.093
  376SOL    HW2 5028   0.700   1.522   1.054
  377SOL     OW 5029   1.055   4.678   0.385
  377SOL    HW1 5030   1.129   4.744   0.395
  377SOL    HW2 5031   1.054   4.617   0.465
  378SOL     OW 5032   4.532   0.231   5.291
  378SOL    HW1 5033   4.632   0.232   5.295
  378SOL    HW2 5034   4.500   0.136   5.286
  379SOL     OW 5035   0.245   2.762   1.525
  379SOL    HW1 5036   0.200   2.801   1.606
  379SOL    HW2 5037   0.177   2.718   1.467
  380SOL     OW 5038   2.794   5.178   5.788
  380SOL    HW1 5039   2.859   5.252   5.773
  380SOL    HW2 5040   2.836   5.091   5.763
  381SOL     OW 5041   4.070   1.339   0.083
  381SOL    HW1 5042   4.159   1.380   0.064
  381SOL    HW2 5043   4.032   1.377   0.168
  382SOL     OW 5044   4.023   2.943   0.515
  382SOL    HW1 5045   3.941   2.998   0.532
  382SOL    HW2 5046   4.022   2.909   0.421
  383SOL     OW 5047   3.873   5.023   5.955
  383SOL    HW1 5048   3.816   4.971   5.892
  383SOL    HW2 5049   3.893   5.113   5.916
  384SOL     OW 5050   1.075   3.532   0.905
  384SOL    HW1 5051   1.061   3.457   0.969
  384SOL    HW2 5052   0.990   3.551   0.857
  385SOL     OW 5053   0.662   2.513   4.618
  385SOL    HW1 5054   0.694   2.568   4.695
  385SOL    HW2 5055   0.740   2.469   4.574
  386SOL     OW 5056   2.211   3.452   0.285
  386SOL    HW1 5057   2.265   3.521   0.334
  386SOL    HW2 5058   2.166   3.494   0.206
  387SOL     OW 5059   1.597   1.690   0.877
  387SOL    HW1 5060   1.634   1.695   0.970
  387SOL    HW2 5061   1.660   1.737   0.814
  388SOL     OW 5062   4.787   3.646   5.640
  388SOL    HW1 5063   4.861   3.606   5.587
  388SOL    HW2 5064   4.792   3.746   5.634
  389SOL     OW 5065   4.357   3.358   4.812
  389SOL    HW1 5066   4.264   3.374   4.780
  389SOL    HW2 5067   4.419   3.422   4.767
  390SOL     OW 5068   4.209   4.819   0.944
  390SOL    HW1 5069   4.118   4.804   0.906
  390SOL    HW2 5070   4.214   4.780   1.036
  391SOL     OW 5071   3.113   1.994   0.526
  391SOL    HW1 5072   3.151   1.965   0.438
  391SOL    HW2 5073   3.174   1.965   0.600
  392SOL     OW 5074   5.194   0.745   4.336
  392SOL    HW1 5075   5.249   0.822   4.303
  392SOL    HW2 5076   5.121   0.726   4.270
  393SOL     OW 5077   4.532   4.771   1.238
  393SOL    HW1 5078   4.546   4.864   1.271
  393SOL    HW2 5079   4.461   4.727   1.292
  394SOL     OW 5080   2.014   4.618   4.688
  394SOL    HW1 5081   1.941   4.657   4.632
  394SOL    HW2 5082   2.096   4.606   4.632
  395SOL     OW 5083   5.548   4.323   5.695
  395SOL    HW1 5084   5.462   4.365   5.669
  395SOL    HW2 5085   5.623   4.365   5.644
  396SOL     OW 5086   3.707   1.702   5.150
  396SOL    HW1 5087   3.626   1.682   5.094
  396SOL    HW2 5088   3.729   1.799   5.142
  397SOL     OW 5089   5.328   1.494   5.313
  397SOL    HW1 5090   5.240   1.465   5.351
  397SOL    HW2 5091   5.383   1.413   5.293
  398SOL     OW 5092   4.020   5.349   4.933
  398SOL    HW1 5093   3.936   5.391   4.899
  398SOL    HW2 5094   4.046   5.274   4.873
  399SOL     OW 5095   2.206   2.125   5.534
  399SOL    HW1 5096   2.184   2.060   5.462
  399SOL    HW2 5097   2.246   2.077   5.612
  400SOL     OW 5098   3.816   1.567   0.622
  400SOL    HW1 5099   3.813   1.502   0.698
  400SOL    HW2 5100   3.909   1.601   0.611
  401SOL     OW 5101   1.704   0.779   5.697
  401SOL    HW1 5102   1.757   0.698   5.677
  401SOL    HW2 5103   1.723   0.809   5.790
  402SOL     OW 5104   2.144   3.517   4.659
  402SOL    HW1 5105   2.203   3.469   4.595
  402SOL    HW2 5106   2.105   3.598   4.614
  403SOL     OW 5107   1.127   4.881   1.293
  403SOL    HW1 5108   1.061   4.917   1.227
  403SOL    HW2 5109   1.200   4.833   1.244
  404SOL     OW 5110   2.299   5.337   1.639
  404SOL    HW1 5111   2.384   5.368   1.597
  404SOL    HW2 5112   2.320   5.268   1.709
  405SOL     OW 5113   4.805   0.530   5.447
  405SOL    HW1 5114   4.782   0.507   5.352
  405SOL    HW2 5115   4.904   0.525   5.459
  406SOL     OW 5116   2.500   2.536   0.324
  406SOL    HW1 5117   2.551   2.452   0.303
  406SOL    HW2 5118   2.431   2.551   0.253
  407SOL     OW 5119   3.662   1.725   0.464
  407SOL    HW1 5120   3.723   1.803   0.460
  407SOL    HW2 5121   3.706   1.651   0.516
  408SOL     OW 5122   1.231   0.046   1.126
  408SOL    HW1 5123   1.139   0.037   1.164
  408SOL    HW2 5124   1.239   0.134   1.077
  409SOL     OW 5125   3.346   3.488   5.110
  409SOL    HW1 5126   3.333   3.533   5.021
  409SOL    HW2 5127   3.441   3.502   5.140
  410SOL     OW 5128   0.420   0.111   4.890
  410SOL    HW1 5129   0.468   0.024   4.902
  410SOL    HW2 5130   0.445   0.151   4.802
  411SOL     OW 5131   1.837   1.823   0.483
  411SOL    HW1 5132   1.809   1.813   0.578
  411SOL    HW2 5133   1.840   1.920   0.459
  412SOL     OW 5134   0.289   3.295   4.419
  412SOL    HW1 5135   0.357   3.318   4.489
  412SOL    HW2 5136   0.312   3.341   4.333
  413SOL     OW 5137   4.013   0.374   0.334
  413SOL    HW1 5138   4.037   0.302   0.269
  413SOL    HW2 5139   3.958   0.444   0.287
  414SOL     OW 5140   3.222   4.503   1.765
  414SOL    HW1 5141   3.252   4.591   1.801
  414SOL    HW2 5142   3.191   4.445   1.841
  415SOL     OW 5143   4.940   5.607   5.208
  415SOL    HW1 5144   4.887   0.037   5.201
  415SOL    HW2 5145   4.986   5.590   5.121
  416SOL     OW 5146   1.114   2.956   0.729
  416SOL    HW1 5147   1.128   2.935   0.632
  416SOL    HW2 5148   1.193   3.006   0.764
  417SOL     OW 5149   1.719   2.285   5.921
  417SOL    HW1 5150   1.685   2.197   5.954
  417SOL    HW2 5151   1.734   2.346   5.998
  418SOL     OW 5152   1.713   1.122   6.014
  418SOL    HW1 5153   1.752   1.120   0.091
  418SOL    HW2 5154   1.615   1.139   0.004
  419SOL     OW 5155   3.621   5.545   0.437
  419SOL    HW1 5156   3.679   5.469   0.408
  419SOL    HW2 5157   3.571   5.520   0.520
  420SOL     OW 5158   1.108   0.112   5.925
  420SOL    HW1 5159   1.085   0.071   6.013
  420SOL    HW2 5160   1.070   0.056   5.851
  421SOL     OW 5161   3.975   4.332   5.261
  421SOL    HW1 5162   4.001   4.426   5.238
  421SOL    HW2 5163   4.011   4.270   5.191
  422SOL     OW 5164   2.678   0.474   5.781
  422SOL    HW1 5165   2.580   0.454   5.776
  422SOL    HW2 5166   2.693   0.556   5.837
  423SOL     OW 5167   1.899   0.012   0.717
  423SOL    HW1 5168   1.912   0.109   0.697
  423SOL    HW2 5169   1.986   5.618   0.705
  424SOL     OW 5170   0.226   3.194   1.079
  424SOL    HW1 5171   0.278   3.115   1.112
  424SOL    HW2 5172   0.209   3.257   1.155
  425SOL     OW 5173   3.384   1.883   5.905
  425SOL    HW1 5174   3.390   1.793   5.861
  425SOL    HW2 5175   3.407   1.954   5.838
  426SOL     OW 5176   4.548   5.234   5.434
  426SOL    HW1 5177   4.614   5.263   5.366
  426SOL    HW2 5178   4.595   5.205   5.517
  427SOL     OW 5179   2.203   0.227   0.862
  427SOL    HW1 5180   2.252   0.163   0.804
  427SOL    HW2 5181   2.265   0.262   0.932
  428SOL     OW 5182   2.632   0.646   0.625
  428SOL    HW1 5183   2.539   0.628   0.592
  428SOL    HW2 5184   2.698   0.625   0.552
  429SOL     OW 5185   5.227   0.190   4.972
  429SOL    HW1 5186   5.226   0.130   4.892
  429SOL    HW2 5187   5.276   0.274   4.950
  430SOL     OW 5188   5.420   0.692   0.833
  430SOL    HW1 5189   5.400   0.713   0.929
  430SOL    HW2 5190   5.353   0.627   0.798
  431SOL     OW 5191   5.212   2.028   0.173
  431SOL    HW1 5192   5.298   2.024   0.122
  431SOL    HW2 5193   5.168   1.938   0.172
  432SOL     OW 5194   1.016   2.163   0.827
  432SOL    HW1 5195   1.037   2.208   0.913
  432SOL    HW2 5196   1.099   2.118   0.792
  433SOL     OW 5197   4.460   4.331   5.928
  433SOL    HW1 5198   4.545   4.316   5.877
  433SOL    HW2 5199   4.429   4.425   5.916
  434SOL     OW 5200   3.152   1.430   5.542
  434SOL    HW1 5201   3.204   1.345   5.547
  434SOL    HW2 5202   3.056   1.412   5.561
  435SOL     OW 5203   4.128   2.458   5.724
  435SOL    HW1 5204   4.128   2.364   5.758
  435SOL    HW2 5205   4.035   2.484   5.698
  436SOL     OW 5206   1.673   0.499   0.847
  436SOL    HW1 5207   1.592   0.460   0.890
  436SOL    HW2 5208   1.749   0.497   0.912
  437SOL     OW 5209   3.540   3.476   5.511
  437SOL    HW1 5210   3.512   3.549   5.574
  437SOL    HW2 5211   3.481   3.396   5.525
  438SOL     OW 5212   4.716   0.902   5.895
  438SOL    HW1 5213   4.765   0.932   5.813
  438SOL    HW2 5214   4.781   0.876   5.966
  439SOL     OW 5215   0.447   3.661   4.991
  439SOL    HW1 5216   0.427   3.703   4.902
  439SOL    HW2 5217   0.369   3.673   5.052
  440SOL     OW 5218   3.044   0.482   5.443
  440SOL    HW1 5219   3.080   0.396   5.409
  440SOL    HW2 5220   3.008   0.536   5.366
  441SOL     OW 5221   4.599   0.227   0.790
  441SOL    HW1 5222   4.690   0.224   0.832
  441SOL    HW2 5223   4.604   0.186   0.699
  442SOL     OW 5224   3.221   2.399   1.475
  442SOL    HW1 5225   3.312   2.357   1.478
  442SOL    HW2 5226   3.213   2.466   1.549
  443SOL     OW 5227   5.526   4.129   5.269
  443SOL    HW1 5228   5.558   4.058   5.206
  443SOL    HW2 5229   5.503   4.088   5.357
  444SOL     OW 5230   3.823   1.117   0.529
  444SOL    HW1 5231   3.802   1.077   0.618
  444SOL    HW2 5232   3.899   1.181   0.537
  445SOL     OW 5233   2.230   1.555   5.774
  445SOL    HW1 5234   2.165   1.604   5.831
  445SOL    HW2 5235   2.213   1.456   5.781
  446SOL     OW 5236   0.425   4.368   5.441
  446SOL    HW1 5237   0.508   4.314   5.452
  446SOL    HW2 5238   0.391   4.395   5.531
  447SOL     OW 5239   5.634   2.196   1.138
  447SOL    HW1 5240   5.593   2.159   1.221
  447SOL    HW2 5241   5.571   2.181   1.061
  448SOL     OW 5242   3.780   3.262   1.803
  448SOL    HW1 5243   3.872   3.299   1.815
  448SOL    HW2 5244   3.750   3.219   1.888
  449SOL     OW 5245   4.663   5.145   5.677
  449SOL    HW1 5246   4.716   5.205   5.737
  449SOL    HW2 5247   4.615   5.077   5.732
  450SOL     OW 5248   5.337   4.729   4.816
  450SOL    HW1 5249   5.361   4.641   4.856
  450SOL    HW2 5250   5.419   4.776   4.786
  451SOL     OW 5251   0.924   3.849   0.775
  451SOL    HW1 5252   0.893   3.873   0.867
  451SOL    HW2 5253   0.893   3.919   0.711
  452SOL     OW 5254   0.323   1.706   5.531
  452SOL    HW1 5255   0.347   1.732   5.437
  452SOL    HW2 5256   0.397   1.651   5.570
  453SOL     OW 5257   3.644   0.832   5.443
  453SOL    HW1 5258   3.717   0.764   5.443
  453SOL    HW2 5259   3.599   0.833   5.354
  454SOL     OW 5260   4.041   1.751   0.592
  454SOL    HW1 5261   3.975   1.812   0.549
  454SOL    HW2 5262   4.047   1.771   0.690
  455SOL     OW 5263   0.287   0.999   5.531
  455SOL    HW1 5264   0.264   1.091   5.565
  455SOL    HW2 5265   0.357   1.006   5.460
  456SOL     OW 5266   1.986   4.730   0.986
  456SOL    HW1 5267   2.006   4.828   0.982
  456SOL    HW2 5268   1.941   4.703   0.901
  457SOL     OW 5269   1.712   1.014   0.545
  457SOL    HW1 5270   1.692   1.000   0.642
  457SOL    HW2 5271   1.657   1.090   0.511
  458SOL     OW 5272   2.775   5.210   4.392
  458SOL    HW1 5273   2.820   5.183   4.307
  458SOL    HW2 5274   2.680   5.182   4.391
  459SOL     OW 5275   1.298   3.524   5.186
  459SOL    HW1 5276   1.311   3.542   5.283
  459SOL    HW2 5277   1.284   3.610   5.137
  460SOL     OW 5278   1.709   4.478   4.690
  460SOL    HW1 5279   1.734   4.397   4.637
  460SOL    HW2 5280   1.768   4.484   4.771
  461SOL     OW 5281   2.887   4.073   5.034
  461SOL    HW1 5282   2.943   3.991   5.047
  461SOL    HW2 5283   2.805   4.048   4.982
  462SOL     OW 5284   1.471   3.190   1.238
  462SOL    HW1 5285   1.404   3.137   1.289
  462SOL    HW2 5286   1.528   3.128   1.184
  463SOL     OW 5287   2.853   2.750   4.747
  463SOL    HW1 5288   2.943   2.709   4.761
  463SOL    HW2 5289   2.815   2.777   4.835
  464SOL     OW 5290   0.565   4.747   5.952
  464SOL    HW1 5291   0.512   4.828   5.930
  464SOL    HW2 5292   0.653   4.774   5.993
  465SOL     OW 5293   5.145   0.099   0.702
  465SOL    HW1 5294   5.087   0.181   0.700
  465SOL    HW2 5295   5.088   0.018   0.687
  466SOL     OW 5296   1.201   4.443   5.896
  466SOL    HW1 5297   1.260   4.415   5.972
  466SOL    HW2 5298   1.105   4.436   5.924
  467SOL     OW 5299   4.435   0.970   5.008
  467SOL    HW1 5300   4.489   0.965   4.924
  467SOL    HW2 5301   4.495   0.988   5.086
  468SOL     OW 5302   5.075   1.838   5.377
  468SOL    HW1 5303   5.047   1.934   5.383
  468SOL    HW2 5304   5.071   1.809   5.281
  469SOL     OW 5305   2.969   4.621   0.722
  469SOL    HW1 5306   3.022   4.588   0.800
  469SOL    HW2 5307   2.912   4.547   0.687
  470SOL     OW 5308   3.356   4.699   0.547
  470SOL    HW1 5309   3.444   4.685   0.500
  470SOL    HW2 5310   3.369   4.686   0.645
  471SOL     OW 5311   5.311   2.605   5.688
  471SOL    HW1 5312   5.363   2.662   5.752
  471SOL    HW2 5313   5.319   2.643   5.596
  472SOL     OW 5314   2.547   5.633   0.445
  472SOL    HW1 5315   2.457   5.635   0.401
  472SOL    HW2 5316   2.618   5.623   0.375
  473SOL     OW 5317   3.962   3.416   0.603
  473SOL    HW1 5318   4.020   3.410   0.522
  473SOL    HW2 5319   4.015   3.393   0.684
  474SOL     OW 5320   3.551   1.355   0.756
  474SOL    HW1 5321   3.480   1.284   0.753
  474SOL    HW2 5322   3.511   1.440   0.789
  475SOL     OW 5323   2.520   4.900   4.856
  475SOL    HW1 5324   2.555   4.941   4.772
  475SOL    HW2 5325   2.469   4.969   4.908
  476SOL     OW 5326   4.815   0.150   5.624
  476SOL    HW1 5327   4.843   0.056   5.644
  476SOL    HW2 5328   4.894   0.210   5.634
  477SOL     OW 5329   3.616   5.095   0.981
  477SOL    HW1 5330   3.612   5.193   1.003
  477SOL    HW2 5331   3.595   5.042   1.062
  478SOL     OW 5332   1.559   4.497   1.839
  478SOL    HW1 5333   1.649   4.488   1.794
  478SOL    HW2 5334   1.572   4.518   1.935
  479SOL     OW 5335   2.671   5.027   1.231
  479SOL    HW1 5336   2.654   4.946   1.174
  479SOL    HW2 5337   2.600   5.032   1.302
  480SOL     OW 5338   1.951   0.679   0.012
  480SOL    HW1 5339   1.886   0.753   6.013
  480SOL    HW2 5340   1.922   0.598   5.976
  481SOL     OW 5341   1.787   4.717   4.567
  481SOL    HW1 5342   1.757   4.798   4.618
  481SOL    HW2 5343   1.744   4.635   4.606
  482SOL     OW 5344   0.629   2.750   4.477
  482SOL    HW1 5345   0.639   2.660   4.518
  482SOL    HW2 5346   0.533   2.765   4.452
  483SOL     OW 5347   2.775   2.923   0.252
  483SOL    HW1 5348   2.722   3.000   0.216
  483SOL    HW2 5349   2.811   2.869   0.175
  484SOL     OW 5350   0.822   1.896   0.559
  484SOL    HW1 5351   0.759   1.952   0.506
  484SOL    HW2 5352   0.793   1.801   0.558
  485SOL     OW 5353   1.173   1.620   0.853
  485SOL    HW1 5354   1.091   1.658   0.896
  485SOL    HW2 5355   1.148   1.541   0.798
  486SOL     OW 5356   4.350   3.964   0.966
  486SOL    HW1 5357   4.361   3.866   0.981
  486SOL    HW2 5358   4.440   4.008   0.965
  487SOL     OW 5359   4.670   1.939   5.159
  487SOL    HW1 5360   4.592   1.934   5.097
  487SOL    HW2 5361   4.679   2.032   5.193
  488SOL     OW 5362   4.447   3.208   1.727
  488SOL    HW1 5363   4.471   3.135   1.663
  488SOL    HW2 5364   4.526   3.230   1.784
  489SOL     OW 5365   0.159   4.212   5.605
  489SOL    HW1 5366   0.226   4.198   5.677
  489SOL    HW2 5367   0.133   4.309   5.602
  490SOL     OW 5368   0.809   2.351   0.079
  490SOL    HW1 5369   0.893   2.302   0.102
  490SOL    HW2 5370   0.824   2.450   0.091
  491SOL     OW 5371   2.578   2.520   4.445
  491SOL    HW1 5372   2.575   2.574   4.362
  491SOL    HW2 5373   2.652   2.453   4.440
  492SOL     OW 5374   4.810   3.219   1.426
  492SOL    HW1 5375   4.790   3.184   1.517
  492SOL    HW2 5376   4.739   3.283   1.398
  493SOL     OW 5377   1.296   1.545   5.010
  493SOL    HW1 5378   1.231   1.472   5.029
  493SOL    HW2 5379   1.368   1.510   4.950
  494SOL     OW 5380   1.507   1.944   0.533
  494SOL    HW1 5381   1.564   2.025   0.544
  494SOL    HW2 5382   1.460   1.924   0.619
  495SOL     OW 5383   1.079   3.847   5.312
  495SOL    HW1 5384   1.044   3.842   5.218
  495SOL    HW2 5385   1.179   3.838   5.310
  496SOL     OW 5386   1.384   4.684   0.897
  496SOL    HW1 5387   1.482   4.670   0.885
  496SOL    HW2 5388   1.337   4.597   0.881
  497SOL     OW 5389   1.324   1.275   4.202
  497SOL    HW1 5390   1.254   1.213   4.169
  497SOL    HW2 5391   1.294   1.370   4.190
  498SOL     OW 5392   2.414   1.748   1.168
  498SOL    HW1 5393   2.463   1.810   1.230
  498SOL    HW2 5394   2.409   1.657   1.209
  499SOL     OW 5395   4.047   4.142   5.075
  499SOL    HW1 5396   4.048   4.120   4.977
  499SOL    HW2 5397   3.990   4.076   5.123
  500SOL     OW 5398   2.952   2.735   0.792
  500SOL    HW1 5399   2.991   2.812   0.844
  500SOL    HW2 5400   3.026   2.673   0.765
  501SOL     OW 5401   0.316   3.982   1.900
  501SOL    HW1 5402   0.374   3.904   1.925
  501SOL    HW2 5403   0.220   3.958   1.912
  502SOL     OW 5404   0.805   3.379   5.973
  502SOL    HW1 5405   0.807   3.457   0.019
  502SOL    HW2 5406   0.771   3.298   0.006
  503SOL     OW 5407   5.388   4.730   0.600
  503SOL    HW1 5408   5.353   4.762   0.688
  503SOL    HW2 5409   5.430   4.805   0.551
  504SOL     OW 5410   3.050   3.968   0.540
  504SOL    HW1 5411   2.988   4.033   0.498
  504SOL    HW2 5412   2.999   3.909   0.603
  505SOL     OW 5413   1.715   5.607   0.914
  505SOL    HW1 5414   1.781   5.630   0.842
  505SOL    HW2 5415   1.625   5.593   0.873
  506SOL     OW 5416   2.647   2.808   0.953
  506SOL    HW1 5417   2.723   2.750   0.984
  506SOL    HW2 5418   2.650   2.815   0.853
  507SOL     OW 5419   1.735   0.998   5.340
  507SOL    HW1 5420   1.693   1.043   5.261
  507SOL    HW2 5421   1.665   0.948   5.391
  508SOL     OW 5422   2.109   3.994   5.783
  508SOL    HW1 5423   2.169   4.049   5.841
  508SOL    HW2 5424   2.164   3.943   5.717
  509SOL     OW 5425   4.461   2.386   5.665
  509SOL    HW1 5426   4.482   2.467   5.609
  509SOL    HW2 5427   4.422   2.415   5.752
  510SOL     OW 5428   3.739   4.885   5.754
  510SOL    HW1 5429   3.640   4.875   5.749
  510SOL    HW2 5430   3.773   4.919   5.666
  511SOL     OW 5431   3.047   4.216   1.161
  511SOL    HW1 5432   3.065   4.144   1.227
  511SOL    HW2 5433   3.005   4.294   1.208
  512SOL     OW 5434   4.065   2.534   4.715
  512SOL    HW1 5435   4.155   2.495   4.695
  512SOL    HW2 5436   4.011   2.536   4.631
  513SOL     OW 5437   4.535   4.244   5.484
  513SOL    HW1 5438   4.627   4.208   5.499
  513SOL    HW2 5439   4.481   4.177   5.432
  514SOL     OW 5440   5.704   4.912   5.170
  514SOL    HW1 5441   5.626   4.975   5.173
  514SOL    HW2 5442   5.689   4.844   5.099
  515SOL     OW 5443   4.303   2.919   0.847
  515SOL    HW1 5444   4.375   2.955   0.905
  515SOL    HW2 5445   4.295   2.820   0.859
  516SOL     OW 5446   1.612   3.521   4.664
  516SOL    HW1 5447   1.589   3.445   4.604
  516SOL    HW2 5448   1.633   3.487   4.756
  517SOL     OW 5449   2.464   1.052   5.769
  517SOL    HW1 5450   2.445   1.112   5.846
  517SOL    HW2 5451   2.383   0.996   5.750
  518SOL     OW 5452   1.446   3.282   0.653
  518SOL    HW1 5453   1.381   3.231   0.709
  518SOL    HW2 5454   1.395   3.347   0.596
  519SOL     OW 5455   2.611   5.153   1.831
  519SOL    HW1 5456   2.637   5.214   1.906
  519SOL    HW2 5457   2.513   5.134   1.835
  520SOL     OW 5458   2.746   5.142   4.950
  520SOL    HW1 5459   2.788   5.107   4.866
  520SOL    HW2 5460   2.814   5.197   5.000
  521SOL     OW 5461   3.969   4.706   5.473
  521SOL    HW1 5462   3.970   4.640   5.397
  521SOL    HW2 5463   4.045   4.771   5.461
  522SOL     OW 5464   1.261   3.282   5.434
  522SOL    HW1 5465   1.273   3.183   5.435
  522SOL    HW2 5466   1.168   3.305   5.405
  523SOL     OW 5467   4.371   2.383   4.411
  523SOL    HW1 5468   4.325   2.298   4.382
  523SOL    HW2 5469   4.352   2.455   4.344
  524SOL     OW 5470   2.291   5.049   1.228
  524SOL    HW1 5471   2.303   5.133   1.176
  524SOL    HW2 5472   2.355   5.047   1.305
  525SOL     OW 5473   2.626   5.204   0.503
  525SOL    HW1 5474   2.689   5.139   0.547
  525SOL    HW2 5475   2.645   5.207   0.405
  526SOL     OW 5476   1.209   2.913   0.477
  526SOL    HW1 5477   1.204   3.008   0.447
  526SOL    HW2 5478   1.270   2.862   0.416
  527SOL     OW 5479   5.146   1.996   1.194
  527SOL    HW1 5480   5.113   1.913   1.240
  527SOL    HW2 5481   5.142   2.073   1.257
  528SOL     OW 5482   0.041   2.052   0.601
  528SOL    HW1 5483   0.112   2.119   0.625
  528SOL    HW2 5484   0.075   1.960   0.619
  529SOL     OW 5485   1.426   1.241   5.570
  529SOL    HW1 5486   1.419   1.246   5.669
  529SOL    HW2 5487   1.394   1.152   5.538
  530SOL     OW 5488   2.215   4.566   5.339
  530SOL    HW1 5489   2.136   4.563   5.278
  530SOL    HW2 5490   2.276   4.640   5.311
  531SOL     OW 5491   3.467   1.690   5.001
  531SOL    HW1 5492   3.509   1.732   4.920
  531SOL    HW2 5493   3.368   1.684   4.988
  532SOL     OW 5494   1.200   3.185   0.395
  532SOL    HW1 5495   1.260   3.259   0.425
  532SOL    HW2 5496   1.104   3.212   0.408
  533SOL     OW 5497   4.021   1.802   1.984
  533SOL    HW1 5498   3.940   1.847   2.020
  533SOL    HW2 5499   4.001   1.705   1.970
  534SOL     OW 5500   2.068   4.298   4.482
  534SOL    HW1 5501   2.086   4.366   4.411
  534SOL    HW2 5502   2.155   4.265   4.519
  535SOL     OW 5503   4.121   2.197   4.882
  535SOL    HW1 5504   4.074   2.275   4.922
  535SOL    HW2 5505   4.062   2.153   4.814
  536SOL     OW 5506   4.496   2.735   0.132
  536SOL    HW1 5507   4.469   2.820   0.086
  536SOL    HW2 5508   4.582   2.750   0.181
  537SOL     OW 5509   0.356   4.455   5.689
  537SOL    HW1 5510   0.442   4.503   5.707
  537SOL    HW2 5511   0.292   4.471   5.764
  538SOL     OW 5512   2.993   1.761   5.523
  538SOL    HW1 5513   3.087   1.734   5.506
  538SOL    HW2 5514   2.935   1.680   5.525
  539SOL     OW 5515   5.497   0.342   0.135
  539SOL    HW1 5516   5.554   0.329   0.054
  539SOL    HW2 5517   5.498   0.438   0.162
  540SOL     OW 5518   3.671   2.972   0.288
  540SOL    HW1 5519   3.714   2.917   0.216
  540SOL    HW2 5520   3.684   3.069   0.268
  541SOL     OW 5521   3.260   5.060   5.043
  541SOL    HW1 5522   3.338   5.110   5.008
  541SOL    HW2 5523   3.200   5.034   4.967
  542SOL     OW 5524   4.933   1.545   4.426
  542SOL    HW1 5525   5.004   1.550   4.356
  542SOL    HW2 5526   4.843   1.554   4.383
  543SOL     OW 5527   3.985   4.362   0.606
  543SOL    HW1 5528   3.942   4.326   0.688
  543SOL    HW2 5529   4.061   4.302   0.578
  544SOL     OW 5530   2.156   3.119   0.636
  544SOL    HW1 5531   2.116   3.195   0.584
  544SOL    HW2 5532   2.100   3.037   0.623
  545SOL     OW 5533   0.147   0.041   0.550
  545SOL    HW1 5534   0.192   5.648   0.475
  545SOL    HW2 5535   0.126   0.135   0.523
  546SOL     OW 5536   2.218   1.332   0.605
  546SOL    HW1 5537   2.202   1.259   0.539
  546SOL    HW2 5538   2.169   1.312   0.690
  547SOL     OW 5539   1.739   2.730   5.035
  547SOL    HW1 5540   1.751   2.655   5.101
  547SOL    HW2 5541   1.824   2.782   5.028
  548SOL     OW 5542   3.946   4.737   0.884
  548SOL    HW1 5543   3.985   4.690   0.805
  548SOL    HW2 5544   3.876   4.679   0.925
  549SOL     OW 5545   1.411   2.569   5.271
  549SOL    HW1 5546   1.412   2.470   5.285
  549SOL    HW2 5547   1.474   2.612   5.336
  550SOL     OW 5548   2.249   3.554   4.914
  550SOL    HW1 5549   2.221   3.544   4.819
  550SOL    HW2 5550   2.347   3.537   4.922
  551SOL     OW 5551   3.099   4.556   5.455
  551SOL    HW1 5552   3.031   4.616   5.499
  551SOL    HW2 5553   3.121   4.481   5.517
  552SOL     OW 5554   0.169   0.587   0.879
  552SOL    HW1 5555   0.112   0.666   0.859
  552SOL    HW2 5556   0.110   0.508   0.897
  553SOL     OW 5557   4.649   0.071   0.173
  553SOL    HW1 5558   4.583   0.070   0.098
  553SOL    HW2 5559   4.645   5.639   0.222
  554SOL     OW 5560   3.038   5.320   4.124
  554SOL    HW1 5561   3.055   5.325   4.025
  554SOL    HW2 5562   2.978   5.242   4.143
  555SOL     OW 5563   4.886   3.566   4.951
  555SOL    HW1 5564   4.804   3.619   4.929
  555SOL    HW2 5565   4.860   3.477   4.986
  556SOL     OW 5566   3.070   1.871   0.214
  556SOL    HW1 5567   3.060   1.970   0.199
  556SOL    HW2 5568   3.161   1.842   0.184
  557SOL     OW 5569   2.937   3.553   5.996
  557SOL    HW1 5570   3.008   3.612   0.016
  557SOL    HW2 5571   2.949   3.460   0.016
  558SOL     OW 5572   0.129   5.367   0.370
  558SOL    HW1 5573   0.122   5.358   0.469
  558SOL    HW2 5574   0.187   5.445   0.347
  559SOL     OW 5575   1.040   5.276   5.404
  559SOL    HW1 5576   1.133   5.279   5.368
  559SOL    HW2 5577   0.976   5.307   5.334
  560SOL     OW 5578   3.332   1.805   0.145
  560SOL    HW1 5579   3.347   1.831   0.049
  560SOL    HW2 5580   3.402   1.740   0.173
  561SOL     OW 5581   4.875   3.562   0.108
  561SOL    HW1 5582   4.949   3.522   0.162
  561SOL    HW2 5583   4.879   3.662   0.115
  562SOL     OW 5584   1.326   3.633   1.277
  562SOL    HW1 5585   1.305   3.539   1.251
  562SOL    HW2 5586   1.309   3.646   1.374
  563SOL     OW 5587   2.992   4.173   1.637
  563SOL    HW1 5588   3.082   4.159   1.679
  563SOL    HW2 5589   2.937   4.092   1.651
  564SOL     OW 5590   1.279   4.376   1.466
  564SOL    HW1 5591   1.302   4.449   1.531
  564SOL    HW2 5592   1.273   4.289   1.515
  565SOL     OW 5593   1.070   2.152   5.547
  565SOL    HW1 5594   1.005   2.162   5.472
  565SOL    HW2 5595   1.027   2.185   5.632
  566SOL     OW 5596   2.721   3.657   0.922
  566SOL    HW1 5597   2.688   3.634   1.014
  566SOL    HW2 5598   2.669   3.735   0.886
  567SOL     OW 5599   3.402   4.420   0.154
  567SOL    HW1 5600   3.473   4.357   0.185
  567SOL    HW2 5601   3.437   4.514   0.157
  568SOL     OW 5602   2.885   3.346   5.499
  568SOL    HW1 5603   2.869   3.445   5.496
  568SOL    HW2 5604   2.874   3.314   5.593
  569SOL     OW 5605   3.475   2.459   5.081
  569SOL    HW1 5606   3.421   2.523   5.026
  569SOL    HW2 5607   3.503   2.383   5.023
  570SOL     OW 5608   5.279   0.526   1.047
  570SOL    HW1 5609   5.321   0.468   0.978
  570SOL    HW2 5610   5.268   0.474   1.132
  571SOL     OW 5611   1.376   2.568   4.990
  571SOL    HW1 5612   1.367   2.576   5.090
  571SOL    HW2 5613   1.285   2.565   4.949
  572SOL     OW 5614   2.827   3.294   5.238
  572SOL    HW1 5615   2.838   3.307   5.337
  572SOL    HW2 5616   2.866   3.372   5.190
  573SOL     OW 5617   0.339   0.591   0.169
  573SOL    HW1 5618   0.393   0.570   0.251
  573SOL    HW2 5619   0.259   0.645   0.195
  574SOL     OW 5620   1.704   1.473   0.705
  574SOL    HW1 5621   1.658   1.460   0.617
  574SOL    HW2 5622   1.652   1.540   0.759
  575SOL     OW 5623   0.586   4.038   0.968
  575SOL    HW1 5624   0.544   4.023   1.058
  575SOL    HW2 5625   0.550   4.123   0.929
  576SOL     OW 5626   5.074   2.884   5.711
  576SOL    HW1 5627   5.069   2.821   5.633
  576SOL    HW2 5628   4.988   2.879   5.762
  577SOL     OW 5629   0.465   0.238   4.647
  577SOL    HW1 5630   0.551   0.276   4.616
  577SOL    HW2 5631   0.392   0.305   4.635
  578SOL     OW 5632   3.730   0.142   0.459
  578SOL    HW1 5633   3.689   0.052   0.447
  578SOL    HW2 5634   3.691   0.206   0.393
  579SOL     OW 5635   1.877   0.704   0.351
  579SOL    HW1 5636   1.931   0.770   0.402
  579SOL    HW2 5637   1.780   0.728   0.358
  580SOL     OW 5638   2.674   1.414   0.207
  580SOL    HW1 5639   2.724   1.442   0.125
  580SOL    HW2 5640   2.631   1.494   0.249
  581SOL     OW 5641   2.379   2.144   0.018
  581SOL    HW1 5642   2.464   2.186   6.001
  581SOL    HW2 5643   2.362   2.172   0.113
  582SOL     OW 5644   3.500   0.533   0.288
  582SOL    HW1 5645   3.416   0.585   0.275
  582SOL    HW2 5646   3.554   0.574   0.362
  583SOL     OW 5647   0.324   5.352   4.855
  583SOL    HW1 5648   0.232   5.360   4.817
  583SOL    HW2 5649   0.318   5.333   4.953
  584SOL     OW 5650   5.522   5.227   5.811
  584SOL    HW1 5651   5.555   5.308   5.860
  584SOL    HW2 5652   5.577   5.214   5.729
  585SOL     OW 5653   4.066   3.433   5.744
  585SOL    HW1 5654   4.116   3.518   5.761
  585SOL    HW2 5655   3.974   3.455   5.710
  586SOL     OW 5656   3.471   4.886   5.698
  586SOL    HW1 5657   3.475   4.853   5.604
  586SOL    HW2 5658   3.376   4.906   5.722
  587SOL     OW 5659   3.049   0.245   1.142
  587SOL    HW1 5660   3.028   0.301   1.222
  587SOL    HW2 5661   3.103   0.299   1.078
  588SOL     OW 5662   5.571   1.908   5.832
  588SOL    HW1 5663   5.612   1.968   5.764
  588SOL    HW2 5664   5.514   1.840   5.787
  589SOL     OW 5665   2.213   5.249   0.161
  589SOL    HW1 5666   2.221   5.149   0.159
  589SOL    HW2 5667   2.118   5.274   0.182
  590SOL     OW 5668   2.531   0.796   1.031
  590SOL    HW1 5669   2.624   0.793   1.069
  590SOL    HW2 5670   2.535   0.827   0.936
  591SOL     OW 5671   5.417   5.604   0.396
  591SOL    HW1 5672   5.319   5.609   0.373
  591SOL    HW2 5673   5.429   5.541   0.473
  592SOL     OW 5674   2.078   5.399   5.942
  592SOL    HW1 5675   2.166   5.353   5.926
  592SOL    HW2 5676   2.038   5.365   0.011
  593SOL     OW 5677   4.672   3.123   4.446
  593SOL    HW1 5678   4.755   3.132   4.390
  593SOL    HW2 5679   4.594   3.103   4.387
  594SOL     OW 5680   3.064   1.506   5.197
  594SOL    HW1 5681   3.103   1.596   5.219
  594SOL    HW2 5682   2.964   1.511   5.203
  595SOL     OW 5683   1.743   0.016   5.070
  595SOL    HW1 5684   1.815   0.012   5.001
  595SOL    HW2 5685   1.698   0.106   5.066
  596SOL     OW 5686   0.994   2.474   0.355
  596SOL    HW1 5687   0.911   2.520   0.386
  596SOL    HW2 5688   1.048   2.445   0.434
  597SOL     OW 5689   0.513   0.934   5.014
  597SOL    HW1 5690   0.576   0.899   5.083
  597SOL    HW2 5691   0.483   1.026   5.040
  598SOL     OW 5692   0.427   0.717   0.890
  598SOL    HW1 5693   0.473   0.675   0.968
  598SOL    HW2 5694   0.333   0.684   0.885
  599SOL     OW 5695   0.720   0.798   1.487
  599SOL    HW1 5696   0.637   0.854   1.484
  599SOL    HW2 5697   0.766   0.811   1.575
  600SOL     OW 5698   3.856   3.036   0.795
  600SOL    HW1 5699   3.801   3.073   0.870
  600SOL    HW2 5700   3.816   3.062   0.707
  601SOL     OW 5701   4.578   1.481   1.002
  601SOL    HW1 5702   4.509   1.480   1.074
  601SOL    HW2 5703   4.533   1.471   0.913
  602SOL     OW 5704   3.095   1.444   0.105
  602SOL    HW1 5705   3.154   1.411   0.178
  602SOL    HW2 5706   3.152   1.466   0.025
  603SOL     OW 5707   4.739   4.838   5.952
  603SOL    HW1 5708   4.664   4.875   5.898
  603SOL    HW2 5709   4.768   4.906   0.004
  604SOL     OW 5710   0.031   4.168   0.476
  604SOL    HW1 5711   0.101   4.113   0.430
  604SOL    HW2 5712   0.027   4.259   0.434
  605SOL     OW 5713   4.856   0.211   0.067
  605SOL    HW1 5714   4.785   0.152   0.104
  605SOL    HW2 5715   4.943   0.191   0.113
  606SOL     OW 5716   1.154   2.335   0.559
  606SOL    HW1 5717   1.119   2.397   0.628
  606SOL    HW2 5718   1.171   2.245   0.600
  607SOL     OW 5719   3.439   1.592   0.843
  607SOL    HW1 5720   3.429   1.630   0.935
  607SOL    HW2 5721   3.470   1.664   0.781
  608SOL     OW 5722   4.839   0.171   1.635
  608SOL    HW1 5723   4.749   0.132   1.655
  608SOL    HW2 5724   4.910   0.109   1.667
  609SOL     OW 5725   3.322   0.124   4.615
  609SOL    HW1 5726   3.235   0.171   4.632
  609SOL    HW2 5727   3.309   0.055   4.544
  610SOL     OW 5728   4.488   0.531   4.522
  610SOL    HW1 5729   4.523   0.445   4.484
  610SOL    HW2 5730   4.430   0.576   4.453
  611SOL     OW 5731   3.649   5.383   5.178
  611SOL    HW1 5732   3.637   5.289   5.147
  611SOL    HW2 5733   3.747   5.402   5.189
  612SOL     OW 5734   4.771   1.694   1.627
  612SOL    HW1 5735   4.783   1.625   1.699
  612SOL    HW2 5736   4.786   1.785   1.666
  613SOL     OW 5737   5.335   4.325   5.228
  613SOL    HW1 5738   5.402   4.254   5.251
  613SOL    HW2 5739   5.364   4.412   5.267
  614SOL     OW 5740   0.503   1.259   5.649
  614SOL    HW1 5741   0.503   1.239   5.551
  614SOL    HW2 5742   0.590   1.300   5.675
  615SOL     OW 5743   4.457   1.967   0.774
  615SOL    HW1 5744   4.492   1.876   0.754
  615SOL    HW2 5745   4.498   2.002   0.858
  616SOL     OW 5746   2.158   1.277   5.512
  616SOL    HW1 5747   2.163   1.179   5.493
  616SOL    HW2 5748   2.184   1.294   5.607
  617SOL     OW 5749   5.327   4.942   5.785
  617SOL    HW1 5750   5.275   4.877   5.839
  617SOL    HW2 5751   5.300   5.035   5.809
  618SOL     OW 5752   1.940   4.718   0.067
  618SOL    HW1 5753   1.992   4.786   0.015
  618SOL    HW2 5754   1.970   4.718   0.162
  619SOL     OW 5755   0.119   1.155   1.099
  619SOL    HW1 5756   0.034   1.205   1.109
  619SOL    HW2 5757   0.185   1.187   1.168
  620SOL     OW 5758   3.266   4.468   1.369
  620SOL    HW1 5759   3.192   4.457   1.436
  620SOL    HW2 5760   3.337   4.400   1.387
  621SOL     OW 5761   4.163   5.266   0.520
  621SOL    HW1 5762   4.091   5.326   0.556
  621SOL    HW2 5763   4.135   5.232   0.430
  622SOL     OW 5764   4.827   2.333   5.639
  622SOL    HW1 5765   4.886   2.264   5.681
  622SOL    HW2 5766   4.735   2.297   5.630
  623SOL     OW 5767   2.160   0.729   0.186
  623SOL    HW1 5768   2.077   0.711   0.133
  623SOL    HW2 5769   2.171   0.658   0.255
  624SOL     OW 5770   4.889   2.723   0.071
  624SOL    HW1 5771   4.828   2.761   0.140
  624SOL    HW2 5772   4.979   2.705   0.111
  625SOL     OW 5773   1.098   4.442   5.187
  625SOL    HW1 5774   1.088   4.400   5.277
  625SOL    HW2 5775   1.039   4.396   5.121
  626SOL     OW 5776   1.888   4.993   5.763
  626SOL    HW1 5777   1.943   5.046   5.698
  626SOL    HW2 5778   1.947   4.955   5.834
  627SOL     OW 5779   1.567   5.170   0.370
  627SOL    HW1 5780   1.491   5.105   0.363
  627SOL    HW2 5781   1.602   5.190   0.278
  628SOL     OW 5782   4.820   3.937   5.663
  628SOL    HW1 5783   4.806   4.005   5.591
  628SOL    HW2 5784   4.748   3.944   5.731
  629SOL     OW 5785   3.263   4.390   1.106
  629SOL    HW1 5786   3.267   4.428   1.199
  629SOL    HW2 5787   3.200   4.312   1.106
  630SOL     OW 5788   1.380   1.143   0.258
  630SOL    HW1 5789   1.401   1.151   0.160
  630SOL    HW2 5790   1.322   1.220   0.286
  631SOL     OW 5791   5.180   3.062   0.260
  631SOL    HW1 5792   5.222   3.147   0.292
  631SOL    HW2 5793   5.081   3.066   0.276
  632SOL     OW 5794   0.192   2.130   1.139
  632SOL    HW1 5795   0.097   2.160   1.136
  632SOL    HW2 5796   0.221   2.119   1.234
  633SOL     OW 5797   0.198   5.312   1.097
  633SOL    HW1 5798   0.168   5.299   1.191
  633SOL    HW2 5799   0.205   5.223   1.052
  634SOL     OW 5800   2.118   2.397   1.372
  634SOL    HW1 5801   2.121   2.331   1.448
  634SOL    HW2 5802   2.090   2.486   1.406
  635SOL     OW 5803   5.688   5.230   5.142
  635SOL    HW1 5804   5.676   5.308   5.081
  635SOL    HW2 5805   5.606   5.172   5.139
  636SOL     OW 5806   5.514   4.180   0.626
  636SOL    HW1 5807   5.594   4.166   0.568
  636SOL    HW2 5808   5.438   4.213   0.570
  637SOL     OW 5809   2.328   4.350   0.969
  637SOL    HW1 5810   2.259   4.294   0.922
  637SOL    HW2 5811   2.285   4.435   1.002
  638SOL     OW 5812   0.563   0.361   5.531
  638SOL    HW1 5813   0.473   0.405   5.539
  638SOL    HW2 5814   0.631   0.429   5.502
  639SOL     OW 5815   3.834   2.766   0.806
  639SOL    HW1 5816   3.852   2.865   0.799
  639SOL    HW2 5817   3.814   2.743   0.901
  640SOL     OW 5818   0.489   1.025   1.799
  640SOL    HW1 5819   0.538   1.102   1.840
  640SOL    HW2 5820   0.479   0.952   1.866
  641SOL     OW 5821   1.074   1.435   4.804
  641SOL    HW1 5822   1.112   1.364   4.744
  641SOL    HW2 5823   1.079   1.405   4.899
  642SOL     OW 5824   4.320   2.890   5.195
  642SOL    HW1 5825   4.276   2.914   5.282
  642SOL    HW2 5826   4.386   2.960   5.171
  643SOL     OW 5827   0.252   5.539   5.230
  643SOL    HW1 5828   0.331   5.600   5.236
  643SOL    HW2 5829   0.216   5.521   5.321
  644SOL     OW 5830   2.158   1.577   0.500
  644SOL    HW1 5831   2.156   1.650   0.568
  644SOL    HW2 5832   2.188   1.492   0.543
  645SOL     OW 5833   2.452   1.704   0.693
  645SOL    HW1 5834   2.489   1.739   0.779
  645SOL    HW2 5835   2.465   1.772   0.621
  646SOL     OW 5836   5.663   3.657   5.160
  646SOL    HW1 5837   5.675   3.664   5.259
  646SOL    HW2 5838   0.048   3.657   5.116
  647SOL     OW 5839   0.926   5.178   0.374
  647SOL    HW1 5840   0.918   5.082   0.402
  647SOL    HW2 5841   0.901   5.237   0.451
  648SOL     OW 5842   0.489   3.613   0.392
  648SOL    HW1 5843   0.498   3.567   0.303
  648SOL    HW2 5844   0.396   3.650   0.401
  649SOL     OW 5845   3.365   3.657   1.104
  649SOL    HW1 5846   3.342   3.719   1.030
  649SOL    HW2 5847   3.401   3.709   1.181
  650SOL     OW 5848   0.872   5.385   5.210
  650SOL    HW1 5849   0.906   5.465   5.160
  650SOL    HW2 5850   0.778   5.367   5.183
  651SOL     OW 5851   4.553   1.893   5.966
  651SOL    HW1 5852   4.609   1.977   5.964
  651SOL    HW2 5853   4.613   1.814   5.981
  652SOL     OW 5854   3.356   0.733   1.069
  652SOL    HW1 5855   3.307   0.698   0.989
  652SOL    HW2 5856   3.296   0.730   1.149
  653SOL     OW 5857   0.073   3.784   5.761
  653SOL    HW1 5858   0.168   3.803   5.782
  653SOL    HW2 5859   0.039   3.850   5.693
  654SOL     OW 5860   3.156   1.773   5.194
  654SOL    HW1 5861   3.086   1.843   5.205
  654SOL    HW2 5862   3.166   1.752   5.097
  655SOL     OW 5863   1.923   3.071   2.045
  655SOL    HW1 5864   1.869   3.103   2.123
  655SOL    HW2 5865   2.020   3.082   2.064
  656SOL     OW 5866   2.443   2.841   4.797
  656SOL    HW1 5867   2.507   2.913   4.824
  656SOL    HW2 5868   2.494   2.764   4.759
  657SOL     OW 5869   2.405   1.515   1.314
  657SOL    HW1 5870   2.498   1.491   1.342
  657SOL    HW2 5871   2.354   1.548   1.393
  658SOL     OW 5872   1.716   5.453   0.272
  658SOL    HW1 5873   1.744   5.549   0.277
  658SOL    HW2 5874   1.692   5.421   0.364
  659SOL     OW 5875   1.992   4.558   5.169
  659SOL    HW1 5876   1.941   4.487   5.218
  659SOL    HW2 5877   1.954   4.648   5.192
  660SOL     OW 5878   1.818   1.338   1.723
  660SOL    HW1 5879   1.882   1.383   1.786
  660SOL    HW2 5880   1.823   1.239   1.735
  661SOL     OW 5881   0.799   4.438   0.574
  661SOL    HW1 5882   0.893   4.474   0.581
  661SOL    HW2 5883   0.780   4.380   0.653
  662SOL     OW 5884   2.926   5.290   5.084
  662SOL    HW1 5885   2.929   5.386   5.113
  662SOL    HW2 5886   2.975   5.234   5.150
  663SOL     OW 5887   0.981   0.077   1.245
  663SOL    HW1 5888   0.887   0.102   1.220
  663SOL    HW2 5889   1.005   0.119   1.332
  664SOL     OW 5890   3.274   0.282   0.546
  664SOL    HW1 5891   3.230   0.193   0.540
  664SOL    HW2 5892   3.340   0.282   0.621
  665SOL     OW 5893   5.598   2.765   0.530
  665SOL    HW1 5894   5.576   2.823   0.452
  665SOL    HW2 5895   5.544   2.681   0.526
  666SOL     OW 5896   3.062   4.422   1.557
  666SOL    HW1 5897   3.119   4.460   1.630
  666SOL    HW2 5898   3.038   4.328   1.580
  667SOL     OW 5899   4.433   0.392   5.881
  667SOL    HW1 5900   4.526   0.359   5.898
  667SOL    HW2 5901   4.412   0.386   5.783
  668SOL     OW 5902   0.063   2.567   0.226
  668SOL    HW1 5903   5.694   2.622   0.185
  668SOL    HW2 5904   0.025   2.508   0.297
  669SOL     OW 5905   1.491   2.130   1.138
  669SOL    HW1 5906   1.575   2.078   1.150
  669SOL    HW2 5907   1.417   2.068   1.113
  670SOL     OW 5908   2.931   2.618   0.255
  670SOL    HW1 5909   2.856   2.639   0.317
  670SOL    HW2 5910   2.916   2.664   0.168
  671SOL     OW 5911   0.414   2.405   0.509
  671SOL    HW1 5912   0.360   2.476   0.465
  671SOL    HW2 5913   0.490   2.447   0.558
  672SOL     OW 5914   3.253   4.153   0.350
  672SOL    HW1 5915   3.254   4.055   0.367
  672SOL    HW2 5916   3.330   4.196   0.396
  673SOL     OW 5917   5.632   3.473   0.533
  673SOL    HW1 5918   5.606   3.541   0.601
  673SOL    HW2 5919   0.024   3.452   0.543
  674SOL     OW 5920   4.799   2.337   5.021
  674SOL    HW1 5921   4.874   2.319   4.956
  674SOL    HW2 5922   4.716   2.359   4.970
  675SOL     OW 5923   4.632   3.415   1.361
  675SOL    HW1 5924   4.538   3.420   1.393
  675SOL    HW2 5925   4.682   3.497   1.391
  676SOL     OW 5926   0.239   4.228   4.672
  676SOL    HW1 5927   0.182   4.196   4.596
  676SOL    HW2 5928   0.185   4.230   4.756
  677SOL     OW 5929   3.980   3.074   1.974
  677SOL    HW1 5930   3.998   2.975   1.980
  677SOL    HW2 5931   3.883   3.091   1.993
  678SOL     OW 5932   5.603   5.450   0.245
  678SOL    HW1 5933   5.688   5.422   0.289
  678SOL    HW2 5934   5.561   5.523   0.298
  679SOL     OW 5935   3.869   0.409   0.782
  679SOL    HW1 5936   3.967   0.396   0.800
  679SOL    HW2 5937   3.824   0.320   0.777
  680SOL     OW 5938   1.961   1.586   5.259
  680SOL    HW1 5939   2.052   1.548   5.279
  680SOL    HW2 5940   1.971   1.678   5.221
  681SOL     OW 5941   4.269   2.651   0.822
  681SOL    HW1 5942   4.192   2.665   0.759
  681SOL    HW2 5943   4.248   2.574   0.882
  682SOL     OW 5944   1.220   4.811   6.010
  682SOL    HW1 5945   1.262   4.898   0.018
  682SOL    HW2 5946   1.241   4.744   0.065
  683SOL     OW 5947   2.644   0.353   0.323
  683SOL    HW1 5948   2.646   0.296   0.405
  683SOL    HW2 5949   2.725   0.335   0.268
  684SOL     OW 5950   1.992   2.993   5.950
  684SOL    HW1 5951   1.993   3.027   5.856
  684SOL    HW2 5952   2.081   3.007   5.992
  685SOL     OW 5953   4.431   3.412   5.444
  685SOL    HW1 5954   4.512   3.402   5.502
  685SOL    HW2 5955   4.389   3.323   5.429
  686SOL     OW 5956   2.589   4.354   5.377
  686SOL    HW1 5957   2.581   4.260   5.345
  686SOL    HW2 5958   2.601   4.415   5.298
  687SOL     OW 5959   4.635   4.705   4.312
  687SOL    HW1 5960   4.535   4.697   4.315
  687SOL    HW2 5961   4.662   4.745   4.224
  688SOL     OW 5962   2.981   4.168   0.899
  688SOL    HW1 5963   3.006   4.194   0.992
  688SOL    HW2 5964   3.038   4.218   0.834
  689SOL     OW 5965   1.685   4.901   5.322
  689SOL    HW1 5966   1.691   4.911   5.421
  689SOL    HW2 5967   1.623   4.825   5.300
  690SOL     OW 5968   3.451   0.851   5.875
  690SOL    HW1 5969   3.365   0.829   5.921
  690SOL    HW2 5970   3.497   0.926   5.923
  691SOL     OW 5971   0.180   4.822   1.239
  691SOL    HW1 5972   0.164   4.751   1.307
  691SOL    HW2 5973   0.202   4.780   1.151
  692SOL     OW 5974   5.000   2.157   5.760
  692SOL    HW1 5975   5.084   2.119   5.720
  692SOL    HW2 5976   5.010   2.162   5.859
  693SOL     OW 5977   0.416   2.951   5.041
  693SOL    HW1 5978   0.390   3.015   5.112
  693SOL    HW2 5979   0.402   2.857   5.073
  694SOL     OW 5980   4.277   3.045   0.503
  694SOL    HW1 5981   4.184   3.015   0.523
  694SOL    HW2 5982   4.342   2.979   0.541
  695SOL     OW 5983   5.114   1.338   5.422
  695SOL    HW1 5984   5.017   1.360   5.424
  695SOL    HW2 5985   5.141   1.296   5.509
  696SOL     OW 5986   4.161   0.045   0.716
  696SOL    HW1 5987   4.119   0.016   0.802
  696SOL    HW2 5988   4.089   0.055   0.646
  697SOL     OW 5989   0.247   0.147   5.456
  697SOL    HW1 5990   0.326   0.109   5.408
  697SOL    HW2 5991   0.201   0.214   5.397
  698SOL     OW 5992   3.505   5.457   0.677
  698SOL    HW1 5993   3.457   5.399   0.743
  698SOL    HW2 5994   3.589   5.491   0.719
  699SOL     OW 5995   3.299   4.718   1.267
  699SOL    HW1 5996   3.282   4.626   1.301
  699SOL    HW2 5997   3.240   4.783   1.316
  700SOL     OW 5998   5.464   1.621   0.091
  700SOL    HW1 5999   5.461   1.523   0.109
  700SOL    HW2 6000   5.381   1.649   0.043
  701SOL     OW 6001   4.981   0.879   0.733
  701SOL    HW1 6002   4.952   0.858   0.640
  701SOL    HW2 6003   4.994   0.794   0.784
  702SOL     OW 6004   1.045   5.262   4.962
  702SOL    HW1 6005   1.041   5.360   4.982
  702SOL    HW2 6006   0.969   5.215   5.007
  703SOL     OW 6007   0.434   2.319   5.052
  703SOL    HW1 6008   0.401   2.398   5.001
  703SOL    HW2 6009   0.512   2.346   5.109
  704SOL     OW 6010   2.741   2.236   1.410
  704SOL    HW1 6011   2.840   2.238   1.421
  704SOL    HW2 6012   2.718   2.194   1.323
  705SOL     OW 6013   3.657   2.553   5.790
  705SOL    HW1 6014   3.700   2.576   5.702
  705SOL    HW2 6015   3.589   2.481   5.776
  706SOL     OW 6016   2.070   0.021   0.002
  706SOL    HW1 6017   2.148   0.074   5.987
  706SOL    HW2 6018   2.078   5.581   5.986
  707SOL     OW 6019   1.526   3.016   5.607
  707SOL    HW1 6020   1.538   3.094   5.669
  707SOL    HW2 6021   1.550   2.932   5.655
  708SOL     OW 6022   3.187   1.099   5.050
  708SOL    HW1 6023   3.209   1.160   5.126
  708SOL    HW2 6024   3.229   1.133   4.966
  709SOL     OW 6025   2.956   5.266   1.452
  709SOL    HW1 6026   2.936   5.364   1.442
  709SOL    HW2 6027   2.899   5.227   1.523
  710SOL     OW 6028   1.046   3.758   1.477
  710SOL    HW1 6029   1.130   3.706   1.497
  710SOL    HW2 6030   0.998   3.776   1.562
  711SOL     OW 6031   1.108   2.767   4.358
  711SOL    HW1 6032   1.013   2.790   4.338
  711SOL    HW2 6033   1.159   2.849   4.383
  712SOL     OW 6034   2.514   3.526   4.954
  712SOL    HW1 6035   2.595   3.575   4.985
  712SOL    HW2 6036   2.537   3.471   4.874
  713SOL     OW 6037   1.975   0.055   5.441
  713SOL    HW1 6038   1.942   0.149   5.430
  713SOL    HW2 6039   1.941   0.018   5.528
  714SOL     OW 6040   1.855   5.249   0.692
  714SOL    HW1 6041   1.953   5.258   0.707
  714SOL    HW2 6042   1.819   5.334   0.654
  715SOL     OW 6043   5.071   4.062   0.014
  715SOL    HW1 6044   5.163   4.030   6.009
  715SOL    HW2 6045   5.027   4.095   5.946
  716SOL     OW 6046   1.410   4.016   0.296
  716SOL    HW1 6047   1.504   4.049   0.288
  716SOL    HW2 6048   1.355   4.052   0.220
  717SOL     OW 6049   4.352   0.394   1.418
  717SOL    HW1 6050   4.386   0.302   1.438
  717SOL    HW2 6051   4.256   0.401   1.442
  718SOL     OW 6052   2.821   3.350   1.129
  718SOL    HW1 6053   2.849   3.357   1.033
  718SOL    HW2 6054   2.902   3.357   1.188
  719SOL     OW 6055   3.433   4.473   5.853
  719SOL    HW1 6056   3.401   4.389   5.896
  719SOL    HW2 6057   3.441   4.460   5.754
  720SOL     OW 6058   4.321   0.534   0.642
  720SOL    HW1 6059   4.302   0.458   0.581
  720SOL    HW2 6060   4.313   0.620   0.592
  721SOL     OW 6061   3.538   4.446   4.763
  721SOL    HW1 6062   3.458   4.494   4.726
  721SOL    HW2 6063   3.616   4.461   4.702
  722SOL     OW 6064   4.070   3.948   0.342
  722SOL    HW1 6065   4.107   4.030   0.299
  722SOL    HW2 6066   3.977   3.966   0.374
  723SOL     OW 6067   2.846   1.429   6.006
  723SOL    HW1 6068   2.940   1.430   0.025
  723SOL    HW2 6069   2.832   1.348   5.949
  724SOL     OW 6070   4.064   1.478   5.660
  724SOL    HW1 6071   4.005   1.550   5.623
  724SOL    HW2 6072   4.156   1.513   5.671
  725SOL     OW 6073   2.302   2.116   1.336
  725SOL    HW1 6074   2.252   2.188   1.382
  725SOL    HW2 6075   2.314   2.038   1.399
  726SOL     OW 6076   1.705   3.824   0.549
  726SOL    HW1 6077   1.684   3.778   0.463
  726SOL    HW2 6078   1.621   3.858   0.590
  727SOL     OW 6079   1.223   1.652   4.705
  727SOL    HW1 6080   1.229   1.635   4.606
  727SOL    HW2 6081   1.169   1.580   4.748
  728SOL     OW 6082   1.728   2.446   0.139
  728SOL    HW1 6083   1.684   2.428   0.227
  728SOL    HW2 6084   1.818   2.487   0.154
  729SOL     OW 6085   5.530   4.364   0.163
  729SOL    HW1 6086   5.486   4.274   0.173
  729SOL    HW2 6087   5.583   4.366   0.079
  730SOL     OW 6088   0.366   0.541   5.918
  730SOL    HW1 6089   0.357   0.560   6.015
  730SOL    HW2 6090   0.463   0.538   5.893
  731SOL     OW 6091   4.759   5.569   0.553
  731SOL    HW1 6092   4.696   5.647   0.546
  731SOL    HW2 6093   4.708   5.484   0.539
  732SOL     OW 6094   0.161   4.437   4.378
  732SOL    HW1 6095   0.130   4.493   4.302
  732SOL    HW2 6096   0.208   4.494   4.445
  733SOL     OW 6097   3.308   3.632   0.284
  733SOL    HW1 6098   3.402   3.625   0.251
  733SOL    HW2 6099   3.287   3.554   0.342
  734SOL     OW 6100   2.045   0.282   4.462
  734SOL    HW1 6101   2.078   0.351   4.397
  734SOL    HW2 6102   2.072   0.191   4.429
  735SOL     OW 6103   5.600   0.639   5.940
  735SOL    HW1 6104   5.583   0.633   0.023
  735SOL    HW2 6105   5.542   0.573   5.892
  736SOL     OW 6106   2.309   4.839   0.804
  736SOL    HW1 6107   2.354   4.756   0.770
  736SOL    HW2 6108   2.219   4.848   0.761
  737SOL     OW 6109   1.688   1.590   5.286
  737SOL    HW1 6110   1.787   1.585   5.274
  737SOL    HW2 6111   1.662   1.539   5.368
  738SOL     OW 6112   4.324   5.498   0.299
  738SOL    HW1 6113   4.239   5.549   0.288
  738SOL    HW2 6114   4.313   5.406   0.261
  739SOL     OW 6115   2.792   2.373   4.367
  739SOL    HW1 6116   2.760   2.316   4.291
  739SOL    HW2 6117   2.871   2.426   4.337
  740SOL     OW 6118   5.023   5.173   4.279
  740SOL    HW1 6119   4.945   5.194   4.219
  740SOL    HW2 6120   5.047   5.076   4.269
  741SOL     OW 6121   3.676   4.561   5.960
  741SOL    HW1 6122   3.740   4.578   5.884
  741SOL    HW2 6123   3.590   4.524   5.923
  742SOL     OW 6124   2.789   1.541   5.201
  742SOL    HW1 6125   2.749   1.460   5.244
  742SOL    HW2 6126   2.751   1.623   5.245
  743SOL     OW 6127   5.398   2.633   4.910
  743SOL    HW1 6128   5.338   2.665   4.983
  743SOL    HW2 6129   5.409   2.706   4.842
  744SOL     OW 6130   3.414   1.647   5.759
  744SOL    HW1 6131   3.505   1.606   5.754
  744SOL    HW2 6132   3.375   1.652   5.667
  745SOL     OW 6133   0.318   2.971   0.021
  745SOL    HW1 6134   0.372   2.924   5.967
  745SOL    HW2 6135   0.299   3.064   6.006
  746SOL     OW 6136   2.937   5.043   1.296
  746SOL    HW1 6137   2.839   5.031   1.277
  746SOL    HW2 6138   2.949   5.128   1.349
  747SOL     OW 6139   0.400   4.955   5.910
  747SOL    HW1 6140   0.393   5.032   5.973
  747SOL    HW2 6141   0.313   4.944   5.861
  748SOL     OW 6142   0.921   2.651   5.214
  748SOL    HW1 6143   0.935   2.631   5.311
  748SOL    HW2 6144   0.828   2.685   5.200
  749SOL     OW 6145   4.581   0.978   5.241
  749SOL    HW1 6146   4.672   0.940   5.229
  749SOL    HW2 6147   4.529   0.922   5.306
  750SOL     OW 6148   1.915   4.086   0.980
  750SOL    HW1 6149   1.885   4.102   1.074
  750SOL    HW2 6150   1.843   4.117   0.917
  751SOL     OW 6151   0.019   3.983   5.578
  751SOL    HW1 6152   5.627   3.991   5.553
  751SOL    HW2 6153   0.056   4.074   5.597
  752SOL     OW 6154   5.351   0.965   0.485
  752SOL    HW1 6155   5.356   0.951   0.584
  752SOL    HW2 6156   5.293   0.894   0.444
  753SOL     OW 6157   0.073   3.755   4.749
  753SOL    HW1 6158   0.033   3.842   4.724
  753SOL    HW2 6159   0.001   3.692   4.778
  754SOL     OW 6160   5.029   1.153   0.690
  754SOL    HW1 6161   4.939   1.189   0.712
  754SOL    HW2 6162   5.030   1.053   0.703
  755SOL     OW 6163   2.953   3.035   0.423
  755SOL    HW1 6164   2.892   2.985   0.362
  755SOL    HW2 6165   2.911   3.043   0.514
  756SOL     OW 6166   1.966   2.217   1.775
  756SOL    HW1 6167   1.908   2.298   1.781
  756SOL    HW2 6168   1.986   2.183   1.867
  757SOL     OW 6169   2.024   3.169   4.737
  757SOL    HW1 6170   1.993   3.109   4.663
  757SOL    HW2 6171   1.946   3.195   4.793
  758SOL     OW 6172   4.363   4.851   0.027
  758SOL    HW1 6173   4.263   4.862   0.030
  758SOL    HW2 6174   4.400   4.859   0.119
  759SOL     OW 6175   0.051   2.096   0.330
  759SOL    HW1 6176   0.036   2.087   0.428
  759SOL    HW2 6177   0.060   2.005   0.289
  760SOL     OW 6178   5.640   1.038   5.607
  760SOL    HW1 6179   5.674   0.983   5.531
  760SOL    HW2 6180   5.634   0.981   5.689
  761SOL     OW 6181   0.138   0.502   1.349
  761SOL    HW1 6182   0.131   0.417   1.297
  761SOL    HW2 6183   0.046   0.535   1.373
  762SOL     OW 6184   0.750   1.685   1.314
  762SOL    HW1 6185   0.844   1.710   1.294
  762SOL    HW2 6186   0.726   1.716   1.406
  763SOL     OW 6187   5.129   2.141   1.442
  763SOL    HW1 6188   5.220   2.156   1.482
  763SOL    HW2 6189   5.085   2.065   1.490
  764SOL     OW 6190   4.792   3.040   0.064
  764SOL    HW1 6191   4.711   3.094   0.041
  764SOL    HW2 6192   4.823   2.991   5.998
  765SOL     OW 6193   4.504   0.905   1.279
  765SOL    HW1 6194   4.504   0.826   1.217
  765SOL    HW2 6195   4.434   0.892   1.349
  766SOL     OW 6196   5.527   5.375   1.310
  766SOL    HW1 6197   5.549   5.278   1.317
  766SOL    HW2 6198   5.439   5.387   1.263
  767SOL     OW 6199   2.270   3.178   0.268
  767SOL    HW1 6200   2.330   3.158   0.346
  767SOL    HW2 6201   2.256   3.277   0.262
  768SOL     OW 6202   4.549   5.190   1.150
  768SOL    HW1 6203   4.570   5.145   1.063
  768SOL    HW2 6204   4.552   5.123   1.224
  769SOL     OW 6205   1.428   3.392   4.254
  769SOL    HW1 6206   1.457   3.331   4.180
  769SOL    HW2 6207   1.370   3.464   4.217
  770SOL     OW 6208   3.970   0.645   4.299
  770SOL    HW1 6209   3.986   0.575   4.230
  770SOL    HW2 6210   4.035   0.720   4.286
  771SOL     OW 6211   3.003   1.118   5.484
  771SOL    HW1 6212   3.103   1.117   5.485
  771SOL    HW2 6213   2.969   1.033   5.525
  772SOL     OW 6214   5.687   4.708   2.070
  772SOL    HW1 6215   5.652   4.615   2.057
  772SOL    HW2 6216   5.611   4.770   2.089
  773SOL     OW 6217   0.839   2.860   0.458
  773SOL    HW1 6218   0.855   2.944   0.406
  773SOL    HW2 6219   0.824   2.883   0.554
  774SOL     OW 6220   2.634   1.179   0.073
  774SOL    HW1 6221   2.693   1.185   6.008
  774SOL    HW2 6222   2.650   1.258   0.132
  775SOL     OW 6223   5.093   1.423   0.717
  775SOL    HW1 6224   5.089   1.323   0.715
  775SOL    HW2 6225   5.028   1.461   0.652
  776SOL     OW 6226   3.881   3.750   5.014
  776SOL    HW1 6227   3.979   3.770   5.018
  776SOL    HW2 6228   3.864   3.659   5.051
  777SOL     OW 6229   3.520   3.825   0.489
  777SOL    HW1 6230   3.561   3.901   0.540
  777SOL    HW2 6231   3.429   3.852   0.457
  778SOL     OW 6232   1.528   3.329   4.497
  778SOL    HW1 6233   1.497   3.354   4.405
  778SOL    HW2 6234   1.463   3.265   4.538
  779SOL     OW 6235   2.379   4.759   5.262
  779SOL    HW1 6236   2.369   4.853   5.294
  779SOL    HW2 6237   2.406   4.759   5.165
  780SOL     OW 6238   4.298   0.876   0.424
  780SOL    HW1 6239   4.213   0.831   0.453
  780SOL    HW2 6240   4.311   0.861   0.326
  781SOL     OW 6241   4.334   4.683   5.429
  781SOL    HW1 6242   4.416   4.626   5.425
  781SOL    HW2 6243   4.295   4.678   5.521
  782SOL     OW 6244   1.755   2.525   1.311
  782SOL    HW1 6245   1.805   2.463   1.250
  782SOL    HW2 6246   1.781   2.505   1.406
  783SOL     OW 6247   1.425   5.472   5.589
  783SOL    HW1 6248   1.499   5.404   5.590
  783SOL    HW2 6249   1.459   5.559   5.626
  784SOL     OW 6250   2.029   4.735   0.329
  784SOL    HW1 6251   2.069   4.816   0.371
  784SOL    HW2 6252   1.969   4.689   0.394
  785SOL     OW 6253   3.703   3.772   1.181
  785SOL    HW1 6254   3.631   3.833   1.148
  785SOL    HW2 6255   3.738   3.806   1.268
  786SOL     OW 6256   2.199   3.127   2.097
  786SOL    HW1 6257   2.288   3.089   2.124
  786SOL    HW2 6258   2.208   3.226   2.086
  787SOL     OW 6259   1.653   0.516   5.095
  787SOL    HW1 6260   1.738   0.522   5.042
  787SOL    HW2 6261   1.575   0.537   5.035
  788SOL     OW 6262   0.230   5.309   4.460
  788SOL    HW1 6263   0.146   5.357   4.486
  788SOL    HW2 6264   0.214   5.255   4.378
  789SOL     OW 6265   4.669   3.258   1.892
  789SOL    HW1 6266   4.616   3.216   1.967
  789SOL    HW2 6267   4.729   3.329   1.930
  790SOL     OW 6268   4.594   0.682   0.234
  790SOL    HW1 6269   4.536   0.609   0.268
  790SOL    HW2 6270   4.606   0.671   0.135
  791SOL     OW 6271   2.476   1.630   5.884
  791SOL    HW1 6272   2.456   1.651   5.979
  791SOL    HW2 6273   2.393   1.596   5.839
  792SOL     OW 6274   4.960   0.803   1.208
  792SOL    HW1 6275   4.956   0.863   1.128
  792SOL    HW2 6276   4.887   0.828   1.272
  793SOL     OW 6277   3.790   2.969   4.411
  793SOL    HW1 6278   3.697   2.944   4.386
  793SOL    HW2 6279   3.802   3.068   4.400
  794SOL     OW 6280   5.107   5.012   0.344
  794SOL    HW1 6281   5.048   4.932   0.352
  794SOL    HW2 6282   5.185   4.991   0.285
  795SOL     OW 6283   3.146   4.295   0.723
  795SOL    HW1 6284   3.241   4.289   0.754
  795SOL    HW2 6285   3.139   4.364   0.651
  796SOL     OW 6286   4.083   0.409   1.444
  796SOL    HW1 6287   4.022   0.484   1.468
  796SOL    HW2 6288   4.067   0.383   1.349
  797SOL     OW 6289   4.752   4.260   4.841
  797SOL    HW1 6290   4.757   4.355   4.871
  797SOL    HW2 6291   4.762   4.199   4.920
  798SOL     OW 6292   3.292   3.627   4.874
  798SOL    HW1 6293   3.361   3.690   4.839
  798SOL    HW2 6294   3.201   3.659   4.849
  799SOL     OW 6295   1.854   1.092   0.233
  799SOL    HW1 6296   1.927   1.041   0.188
  799SOL    HW2 6297   1.831   1.048   0.320
  800SOL     OW 6298   0.247   3.897   5.449
  800SOL    HW1 6299   0.321   3.962   5.430
  800SOL    HW2 6300   0.176   3.942   5.502
  801SOL     OW 6301   3.525   0.024   0.217
  801SOL    HW1 6302   3.495   0.114   0.251
  801SOL    HW2 6303   3.555   5.623   0.295
  802SOL     OW 6304   0.217   2.727   5.727
  802SOL    HW1 6305   0.283   2.706   5.655
  802SOL    HW2 6306   0.264   2.776   5.802
  803SOL     OW 6307   0.481   2.822   5.872
  803SOL    HW1 6308   0.565   2.871   5.893
  803SOL    HW2 6309   0.480   2.735   5.923
  804SOL     OW 6310   4.599   4.711   5.649
  804SOL    HW1 6311   4.555   4.770   5.716
  804SOL    HW2 6312   4.691   4.686   5.681
  805SOL     OW 6313   2.330   5.167   1.859
  805SOL    HW1 6314   2.360   5.245   1.914
  805SOL    HW2 6315   2.248   5.127   1.899
  806SOL     OW 6316   1.832   1.058   1.748
  806SOL    HW1 6317   1.770   1.010   1.810
  806SOL    HW2 6318   1.920   1.074   1.794
  807SOL     OW 6319   1.696   5.101   5.137
  807SOL    HW1 6320   1.613   5.100   5.082
  807SOL    HW2 6321   1.691   5.028   5.206
  808SOL     OW 6322   5.416   0.342   0.888
  808SOL    HW1 6323   5.403   0.294   0.801
  808SOL    HW2 6324   5.414   0.276   0.963
  809SOL     OW 6325   3.906   3.932   4.631
  809SOL    HW1 6326   3.977   3.970   4.571
  809SOL    HW2 6327   3.884   3.839   4.603
  810SOL     OW 6328   2.566   5.526   1.627
  810SOL    HW1 6329   2.648   5.579   1.609
  810SOL    HW2 6330   2.527   5.552   1.715
  811SOL     OW 6331   4.321   1.494   1.131
  811SOL    HW1 6332   4.271   1.539   1.057
  811SOL    HW2 6333   4.298   1.396   1.132
  812SOL     OW 6334   1.414   2.294   5.312
  812SOL    HW1 6335   1.403   2.250   5.222
  812SOL    HW2 6336   1.461   2.231   5.374
  813SOL     OW 6337   4.095   2.782   5.079
  813SOL    HW1 6338   4.126   2.686   5.074
  813SOL    HW2 6339   4.167   2.837   5.122
  814SOL     OW 6340   3.230   2.691   1.184
  814SOL    HW1 6341   3.246   2.727   1.092
  814SOL    HW2 6342   3.301   2.726   1.245
  815SOL     OW 6343   2.076   1.731   5.920
  815SOL    HW1 6344   2.038   1.685   6.000
  815SOL    HW2 6345   2.147   1.795   5.950
  816SOL     OW 6346   1.255   0.599   5.536
  816SOL    HW1 6347   1.221   0.509   5.563
  816SOL    HW2 6348   1.353   0.604   5.552
  817SOL     OW 6349   2.270   0.573   5.019
  817SOL    HW1 6350   2.263   0.633   5.098
  817SOL    HW2 6351   2.263   0.626   4.935
  818SOL     OW 6352   0.513   0.455   4.934
  818SOL    HW1 6353   0.545   0.520   4.865
  818SOL    HW2 6354   0.414   0.441   4.923
  819SOL     OW 6355   3.668   2.092   5.329
  819SOL    HW1 6356   3.747   2.121   5.383
  819SOL    HW2 6357   3.632   2.007   5.367
  820SOL     OW 6358   5.476   2.772   5.833
  820SOL    HW1 6359   5.556   2.782   5.773
  820SOL    HW2 6360   5.506   2.740   5.923
  821SOL     OW 6361   0.541   1.629   5.991
  821SOL    HW1 6362   0.445   1.638   5.966
  821SOL    HW2 6363   0.597   1.681   5.925
  822SOL     OW 6364   3.623   2.581   1.901
  822SOL    HW1 6365   3.701   2.520   1.911
  822SOL    HW2 6366   3.540   2.536   1.934
  823SOL     OW 6367   4.915   0.941   5.698
  823SOL    HW1 6368   4.906   0.960   5.600
  823SOL    HW2 6369   4.969   0.858   5.711
  824SOL     OW 6370   3.219   4.634   5.956
  824SOL    HW1 6371   3.301   4.597   5.912
  824SOL    HW2 6372   3.181   4.566   0.003
  825SOL     OW 6373   1.110   1.557   5.892
  825SOL    HW1 6374   1.085   1.462   5.912
  825SOL    HW2 6375   1.139   1.601   5.977
  826SOL     OW 6376   1.834   4.473   1.774
  826SOL    HW1 6377   1.819   4.388   1.824
  826SOL    HW2 6378   1.897   4.532   1.825
  827SOL     OW 6379   3.249   4.170   1.749
  827SOL    HW1 6380   3.332   4.218   1.722
  827SOL    HW2 6381   3.209   4.215   1.829
  828SOL     OW 6382   0.862   0.888   5.547
  828SOL    HW1 6383   0.783   0.838   5.582
  828SOL    HW2 6384   0.945   0.851   5.588
  829SOL     OW 6385   1.348   4.368   0.104
  829SOL    HW1 6386   1.302   4.279   0.113
  829SOL    HW2 6387   1.444   4.358   0.128
  830SOL     OW 6388   3.999   1.042   5.737
  830SOL    HW1 6389   3.986   0.944   5.754
  830SOL    HW2 6390   3.915   1.081   5.699
  831SOL     OW 6391   4.192   2.425   0.103
  831SOL    HW1 6392   4.236   2.337   0.089
  831SOL    HW2 6393   4.110   2.413   0.160
  832SOL     OW 6394   4.210   4.775   0.505
  832SOL    HW1 6395   4.281   4.843   0.526
  832SOL    HW2 6396   4.124   4.821   0.484
  833SOL     OW 6397   5.245   2.460   5.304
  833SOL    HW1 6398   5.324   2.404   5.280
  833SOL    HW2 6399   5.204   2.424   5.388
  834SOL     OW 6400   0.785   5.599   4.589
  834SOL    HW1 6401   0.780   0.022   4.652
  834SOL    HW2 6402   0.874   5.600   4.543
  835SOL     OW 6403   3.241   3.243   5.200
  835SOL    HW1 6404   3.309   3.170   5.199
  835SOL    HW2 6405   3.282   3.328   5.169
  836SOL     OW 6406   3.779   5.328   0.385
  836SOL    HW1 6407   3.805   5.294   0.294
  836SOL    HW2 6408   3.752   5.251   0.443
  837SOL     OW 6409   2.624   2.317   4.972
  837SOL    HW1 6410   2.677   2.268   4.903
  837SOL    HW2 6411   2.596   2.254   5.044
  838SOL     OW 6412   2.734   4.672   0.883
  838SOL    HW1 6413   2.679   4.588   0.878
  838SOL    HW2 6414   2.819   4.659   0.833
  839SOL     OW 6415   0.853   0.849   1.723
  839SOL    HW1 6416   0.842   0.946   1.701
  839SOL    HW2 6417   0.946   0.834   1.757
  840SOL     OW 6418   2.628   3.027   4.865
  840SOL    HW1 6419   2.676   3.064   4.785
  840SOL    HW2 6420   2.628   3.095   4.938
  841SOL     OW 6421   5.181   1.214   5.183
  841SOL    HW1 6422   5.280   1.215   5.195
  841SOL    HW2 6423   5.136   1.255   5.262
  842SOL     OW 6424   3.421   5.219   0.329
  842SOL    HW1 6425   3.389   5.298   0.381
  842SOL    HW2 6426   3.398   5.135   0.378
  843SOL     OW 6427   2.993   1.708   0.422
  843SOL    HW1 6428   2.964   1.621   0.382
  843SOL    HW2 6429   3.014   1.773   0.349
  844SOL     OW 6430   1.450   5.101   5.014
  844SOL    HW1 6431   1.381   5.083   4.944
  844SOL    HW2 6432   1.407   5.105   5.104
  845SOL     OW 6433   1.801   3.223   4.889
  845SOL    HW1 6434   1.792   3.167   4.972
  845SOL    HW2 6435   1.743   3.304   4.897
  846SOL     OW 6436   0.753   4.944   0.674
  846SOL    HW1 6437   0.787   5.025   0.722
  846SOL    HW2 6438   0.805   4.930   0.590
  847SOL     OW 6439   5.324   3.985   5.961
  847SOL    HW1 6440   5.313   3.890   5.932
  847SOL    HW2 6441   5.400   4.026   5.911
  848SOL     OW 6442   2.952   1.967   4.345
  848SOL    HW1 6443   2.936   2.049   4.399
  848SOL    HW2 6444   2.904   1.974   4.257
  849SOL     OW 6445   3.380   2.123   0.053
  849SOL    HW1 6446   3.360   2.038   0.005
  849SOL    HW2 6447   3.478   2.128   0.072
  850SOL     OW 6448   3.996   4.317   0.114
  850SOL    HW1 6449   4.062   4.251   0.151
  850SOL    HW2 6450   3.953   4.280   0.032
  851SOL     OW 6451   2.191   1.771   1.007
  851SOL    HW1 6452   2.264   1.775   1.075
  851SOL    HW2 6453   2.209   1.696   0.944
  852SOL     OW 6454   3.252   2.266   0.268
  852SOL    HW1 6455   3.315   2.217   0.207
  852SOL    HW2 6456   3.280   2.251   0.363
  853SOL     OW 6457   5.673   4.823   0.876
  853SOL    HW1 6458   5.640   4.851   0.966
  853SOL    HW2 6459   5.629   4.737   0.849
  854SOL     OW 6460   2.495   5.037   0.789
  854SOL    HW1 6461   2.428   4.963   0.796
  854SOL    HW2 6462   2.584   5.004   0.818
  855SOL     OW 6463   0.673   5.204   0.253
  855SOL    HW1 6464   0.769   5.211   0.282
  855SOL    HW2 6465   0.664   5.241   0.161
  856SOL     OW 6466   2.310   2.492   5.857
  856SOL    HW1 6467   2.295   2.590   5.855
  856SOL    HW2 6468   2.224   2.444   5.838
  857SOL     OW 6469   5.685   5.016   0.685
  857SOL    HW1 6470   5.674   4.943   0.752
  857SOL    HW2 6471   0.076   5.042   0.679
  858SOL     OW 6472   4.510   2.696   5.256
  858SOL    HW1 6473   4.437   2.761   5.235
  858SOL    HW2 6474   4.503   2.617   5.197
  859SOL     OW 6475   4.210   3.518   0.053
  859SOL    HW1 6476   4.309   3.528   0.045
  859SOL    HW2 6477   4.188   3.425   0.085
  860SOL     OW 6478   3.732   4.409   5.586
  860SOL    HW1 6479   3.763   4.492   5.633
  860SOL    HW2 6480   3.808   4.345   5.578
  861SOL     OW 6481   1.137   1.242   1.052
  861SOL    HW1 6482   1.070   1.300   1.098
  861SOL    HW2 6483   1.230   1.269   1.080
  862SOL     OW 6484   0.491   2.758   5.603
  862SOL    HW1 6485   0.512   2.660   5.611
  862SOL    HW2 6486   0.495   2.800   5.693
  863SOL     OW 6487   0.109   2.466   0.675
  863SOL    HW1 6488   0.042   2.481   0.748
  863SOL    HW2 6489   0.145   2.373   0.681
  864SOL     OW 6490   0.336   4.603   5.328
  864SOL    HW1 6491   0.378   4.521   5.366
  864SOL    HW2 6492   0.239   4.585   5.310
  865SOL     OW 6493   3.655   2.142   0.107
  865SOL    HW1 6494   3.675   2.236   0.080
  865SOL    HW2 6495   3.620   2.141   0.201
  866SOL     OW 6496   5.667   3.988   1.110
  866SOL    HW1 6497   5.642   4.028   1.022
  866SOL    HW2 6498   0.062   3.991   1.120
  867SOL     OW 6499   1.328   1.380   5.354
  867SOL    HW1 6500   1.398   1.366   5.284
  867SOL    HW2 6501   1.355   1.332   5.437
  868SOL     OW 6502   1.800   4.250   1.918
  868SOL    HW1 6503   1.724   4.241   1.982
  868SOL    HW2 6504   1.804   4.169   1.859
  869SOL     OW 6505   5.138   0.692   5.058
  869SOL    HW1 6506   5.133   0.791   5.067
  869SOL    HW2 6507   5.180   0.669   4.970
  870SOL     OW 6508   2.496   3.239   0.906
  870SOL    HW1 6509   2.396   3.234   0.902
  870SOL    HW2 6510   2.525   3.230   1.001
  871SOL     OW 6511   4.876   0.483   0.032
  871SOL    HW1 6512   4.866   0.384   0.044
  871SOL    HW2 6513   4.852   0.507   5.954
  872SOL     OW 6514   2.217   4.534   0.319
  872SOL    HW1 6515   2.159   4.615   0.315
  872SOL    HW2 6516   2.295   4.546   0.257
  873SOL     OW 6517   1.147   3.976   5.910
  873SOL    HW1 6518   1.050   3.980   5.886
  873SOL    HW2 6519   1.170   3.884   5.939
  874SOL     OW 6520   1.960   0.865   5.429
  874SOL    HW1 6521   2.037   0.927   5.442
  874SOL    HW2 6522   1.877   0.918   5.409
  875SOL     OW 6523   4.086   2.638   4.319
  875SOL    HW1 6524   4.092   2.737   4.336
  875SOL    HW2 6525   4.171   2.606   4.278
  876SOL     OW 6526   3.533   5.058   0.721
  876SOL    HW1 6527   3.561   5.067   0.817
  876SOL    HW2 6528   3.434   5.044   0.717
  877SOL     OW 6529   2.218   3.550   5.374
  877SOL    HW1 6530   2.201   3.467   5.427
  877SOL    HW2 6531   2.302   3.538   5.320
  878SOL     OW 6532   2.596   5.288   1.505
  878SOL    HW1 6533   2.588   5.377   1.551
  878SOL    HW2 6534   2.669   5.235   1.549
  879SOL     OW 6535   0.530   3.727   1.506
  879SOL    HW1 6536   0.467   3.670   1.559
  879SOL    HW2 6537   0.623   3.689   1.514
  880SOL     OW 6538   3.525   2.637   1.654
  880SOL    HW1 6539   3.566   2.619   1.744
  880SOL    HW2 6540   3.446   2.698   1.665
  881SOL     OW 6541   1.070   4.137   0.429
  881SOL    HW1 6542   1.028   4.124   0.340
  881SOL    HW2 6543   0.999   4.138   0.500
  882SOL     OW 6544   1.496   5.531   0.579
  882SOL    HW1 6545   1.493   5.618   0.628
  882SOL    HW2 6546   1.427   5.531   0.507
  883SOL     OW 6547   5.379   4.650   5.164
  883SOL    HW1 6548   5.387   4.589   5.084
  883SOL    HW2 6549   5.336   4.736   5.136
  884SOL     OW 6550   1.832   3.788   4.751
  884SOL    HW1 6551   1.905   3.845   4.714
  884SOL    HW2 6552   1.751   3.795   4.693
  885SOL     OW 6553   0.340   4.807   5.517
  885SOL    HW1 6554   0.326   4.736   5.447
  885SOL    HW2 6555   0.437   4.813   5.540
  886SOL     OW 6556   3.112   1.659   1.636
  886SOL    HW1 6557   3.180   1.594   1.668
  886SOL    HW2 6558   3.124   1.746   1.686
  887SOL     OW 6559   4.796   4.690   1.254
  887SOL    HW1 6560   4.702   4.713   1.229
  887SOL    HW2 6561   4.801   4.672   1.352
  888SOL     OW 6562   3.420   3.033   5.197
  888SOL    HW1 6563   3.424   2.956   5.260
  888SOL    HW2 6564   3.512   3.053   5.163
  889SOL     OW 6565   0.887   0.564   5.249
  889SOL    HW1 6566   0.982   0.592   5.267
  889SOL    HW2 6567   0.885   0.465   5.232
  890SOL     OW 6568   0.779   0.180   4.740
  890SOL    HW1 6569   0.879   0.189   4.742
  890SOL    HW2 6570   0.742   0.240   4.669
  891SOL     OW 6571   0.536   2.495   5.661
  891SOL    HW1 6572   0.579   2.471   5.748
  891SOL    HW2 6573   0.461   2.431   5.643
  892SOL     OW 6574   5.212   0.627   4.792
  892SOL    HW1 6575   5.265   0.627   4.706
  892SOL    HW2 6576   5.131   0.685   4.781
  893SOL     OW 6577   1.988   3.382   1.213
  893SOL    HW1 6578   2.018   3.300   1.165
  893SOL    HW2 6579   1.888   3.388   1.209
  894SOL     OW 6580   0.119   4.274   1.122
  894SOL    HW1 6581   0.178   4.349   1.093
  894SOL    HW2 6582   0.067   4.301   1.203
  895SOL     OW 6583   1.287   5.137   1.326
  895SOL    HW1 6584   1.200   5.091   1.336
  895SOL    HW2 6585   1.357   5.072   1.297
  896SOL     OW 6586   4.898   3.866   0.108
  896SOL    HW1 6587   4.805   3.902   0.114
  896SOL    HW2 6588   4.958   3.935   0.067
  897SOL     OW 6589   5.462   3.984   5.493
  897SOL    HW1 6590   5.377   4.018   5.533
  897SOL    HW2 6591   5.456   3.885   5.481
  898SOL     OW 6592   4.342   2.206   0.023
  898SOL    HW1 6593   4.435   2.242   0.019
  898SOL    HW2 6594   4.343   2.120   0.073
  899SOL     OW 6595   4.601   1.713   1.238
  899SOL    HW1 6596   4.695   1.700   1.268
  899SOL    HW2 6597   4.540   1.653   1.290
  900SOL     OW 6598   0.586   0.285   5.796
  900SOL    HW1 6599   0.609   0.360   5.858
  900SOL    HW2 6600   0.584   0.318   5.702
  901SOL     OW 6601   0.650   2.901   4.920
  901SOL    HW1 6602   0.655   2.928   4.824
  901SOL    HW2 6603   0.559   2.924   4.956
  902SOL     OW 6604   1.526   1.658   5.627
  902SOL    HW1 6605   1.559   1.578   5.577
  902SOL    HW2 6606   1.484   1.722   5.562
  903SOL     OW 6607   4.570   3.187   6.000
  903SOL    HW1 6608   4.538   3.217   5.910
  903SOL    HW2 6609   4.595   3.266   0.040
  904SOL     OW 6610   4.314   2.786   5.862
  904SOL    HW1 6611   4.350   2.858   5.922
  904SOL    HW2 6612   4.346   2.697   5.895
  905SOL     OW 6613   5.435   0.172   1.096
  905SOL    HW1 6614   5.403   0.208   1.183
  905SOL    HW2 6615   5.535   0.160   1.099
  906SOL     OW 6616   1.461   2.537   4.307
  906SOL    HW1 6617   1.374   2.533   4.259
  906SOL    HW2 6618   1.536   2.539   4.241
  907SOL     OW 6619   1.471   4.559   4.806
  907SOL    HW1 6620   1.485   4.623   4.881
  907SOL    HW2 6621   1.559   4.535   4.765
  908SOL     OW 6622   2.077   0.987   0.107
  908SOL    HW1 6623   2.111   0.898   0.138
  908SOL    HW2 6624   2.138   1.059   0.139
  909SOL     OW 6625   4.348   0.892   5.650
  909SOL    HW1 6626   4.315   0.967   5.708
  909SOL    HW2 6627   4.404   0.830   5.705
  910SOL     OW 6628   4.750   4.522   4.904
  910SOL    HW1 6629   4.671   4.545   4.961
  910SOL    HW2 6630   4.775   4.602   4.849
  911SOL     OW 6631   0.021   4.421   0.361
  911SOL    HW1 6632   0.107   4.397   0.317
  911SOL    HW2 6633   5.652   4.415   0.293
  912SOL     OW 6634   2.249   0.491   1.294
  912SOL    HW1 6635   2.176   0.438   1.336
  912SOL    HW2 6636   2.313   0.522   1.364
  913SOL     OW 6637   0.830   4.563   4.510
  913SOL    HW1 6638   0.858   4.474   4.545
  913SOL    HW2 6639   0.829   4.629   4.585
  914SOL     OW 6640   2.248   0.620   5.757
  914SOL    HW1 6641   2.170   0.617   5.694
  914SOL    HW2 6642   2.312   0.546   5.735
  915SOL     OW 6643   2.597   1.545   4.991
  915SOL    HW1 6644   2.623   1.544   4.894
  915SOL    HW2 6645   2.679   1.531   5.048
  916SOL     OW 6646   0.658   4.947   5.223
  916SOL    HW1 6647   0.727   4.903   5.281
  916SOL    HW2 6648   0.607   5.014   5.277
  917SOL     OW 6649   0.571   0.641   4.741
  917SOL    HW1 6650   0.574   0.741   4.744
  917SOL    HW2 6651   0.569   0.610   4.646
  918SOL     OW 6652   0.762   1.467   0.006
  918SOL    HW1 6653   0.824   1.531   0.053
  918SOL    HW2 6654   0.676   1.514   6.001
  919SOL     OW 6655   2.813   3.065   0.658
  919SOL    HW1 6656   2.774   2.974   0.673
  919SOL    HW2 6657   2.740   3.133   0.659
  920SOL     OW 6658   4.192   4.300   5.633
  920SOL    HW1 6659   4.276   4.348   5.609
  920SOL    HW2 6660   4.141   4.354   5.700
  921SOL     OW 6661   3.738   1.975   5.093
  921SOL    HW1 6662   3.657   1.981   5.035
  921SOL    HW2 6663   3.720   2.022   5.180
  922SOL     OW 6664   1.311   3.096   0.153
  922SOL    HW1 6665   1.256   3.046   0.086
  922SOL    HW2 6666   1.254   3.120   0.231
  923SOL     OW 6667   1.190   1.779   5.752
  923SOL    HW1 6668   1.165   1.694   5.797
  923SOL    HW2 6669   1.260   1.826   5.807
  924SOL     OW 6670   2.323   1.106   0.797
  924SOL    HW1 6671   2.226   1.129   0.787
  924SOL    HW2 6672   2.357   1.069   0.711
  925SOL     OW 6673   1.382   2.792   0.032
  925SOL    HW1 6674   1.452   2.855   6.014
  925SOL    HW2 6675   1.292   2.828   0.008
  926SOL     OW 6676   0.096   2.269   5.769
  926SOL    HW1 6677   0.120   2.232   5.858
  926SOL    HW2 6678   0.065   2.364   5.780
  927SOL     OW 6679   5.137   5.572   0.346
  927SOL    HW1 6680   5.069   5.542   0.413
  927SOL    HW2 6681   5.141   5.507   0.270
  928SOL     OW 6682   1.343   0.927   5.898
  928SOL    HW1 6683   1.290   0.870   5.836
  928SOL    HW2 6684   1.406   0.869   5.951
  929SOL     OW 6685   1.075   4.369   1.271
  929SOL    HW1 6686   1.149   4.377   1.337
  929SOL    HW2 6687   1.075   4.449   1.211
  930SOL     OW 6688   2.702   2.201   4.176
  930SOL    HW1 6689   2.759   2.123   4.149
  930SOL    HW2 6690   2.651   2.235   4.097
  931SOL     OW 6691   2.579   3.194   5.510
  931SOL    HW1 6692   2.668   3.148   5.507
  931SOL    HW2 6693   2.510   3.135   5.467
  932SOL     OW 6694   3.306   1.484   1.715
  932SOL    HW1 6695   3.357   1.530   1.787
  932SOL    HW2 6696   3.301   1.386   1.735
  933SOL     OW 6697   5.360   2.164   1.589
  933SOL    HW1 6698   5.328   2.097   1.655
  933SOL    HW2 6699   5.380   2.250   1.635
  934SOL     OW 6700   1.030   1.054   0.568
  934SOL    HW1 6701   1.020   0.973   0.510
  934SOL    HW2 6702   1.093   1.034   0.643
  935SOL     OW 6703   5.332   0.651   4.550
  935SOL    HW1 6704   5.407   0.712   4.574
  935SOL    HW2 6705   5.283   0.688   4.471
  936SOL     OW 6706   4.197   3.216   5.121
  936SOL    HW1 6707   4.134   3.196   5.046
  936SOL    HW2 6708   4.244   3.303   5.104
  937SOL     OW 6709   1.981   4.409   1.221
  937SOL    HW1 6710   2.034   4.325   1.233
  937SOL    HW2 6711   1.952   4.443   1.311
  938SOL     OW 6712   2.775   4.753   1.510
  938SOL    HW1 6713   2.782   4.661   1.550
  938SOL    HW2 6714   2.834   4.816   1.561
  939SOL     OW 6715   0.909   1.661   0.137
  939SOL    HW1 6716   0.886   1.748   0.094
  939SOL    HW2 6717   1.009   1.652   0.142
  940SOL     OW 6718   3.173   4.898   6.008
  940SOL    HW1 6719   3.192   4.801   5.992
  940SOL    HW2 6720   3.080   4.908   0.026
  941SOL     OW 6721   5.656   1.198   2.224
  941SOL    HW1 6722   5.558   1.187   2.240
  941SOL    HW2 6723   0.000   1.201   2.311
  942SOL     OW 6724   3.942   3.581   0.061
  942SOL    HW1 6725   3.909   3.634   0.139
  942SOL    HW2 6726   4.041   3.573   0.067
  943SOL     OW 6727   0.372   0.413   0.958
  943SOL    HW1 6728   0.448   0.467   0.993
  943SOL    HW2 6729   0.303   0.473   0.918
  944SOL     OW 6730   2.775   2.510   1.725
  944SOL    HW1 6731   2.822   2.510   1.813
  944SOL    HW2 6732   2.677   2.521   1.739
  945SOL     OW 6733   4.278   3.167   1.102
  945SOL    HW1 6734   4.202   3.148   1.039
  945SOL    HW2 6735   4.362   3.129   1.065
  946SOL     OW 6736   4.332   0.740   1.699
  946SOL    HW1 6737   4.244   0.743   1.748
  946SOL    HW2 6738   4.395   0.679   1.748
  947SOL     OW 6739   1.192   2.383   5.464
  947SOL    HW1 6740   1.272   2.366   5.407
  947SOL    HW2 6741   1.159   2.297   5.502
  948SOL     OW 6742   1.116   4.557   3.946
  948SOL    HW1 6743   1.069   4.487   4.001
  948SOL    HW2 6744   1.058   4.638   3.938
  949SOL     OW 6745   0.711   4.376   0.325
  949SOL    HW1 6746   0.669   4.285   0.330
  949SOL    HW2 6747   0.745   4.401   0.416
  950SOL     OW 6748   3.098   5.436   1.117
  950SOL    HW1 6749   3.003   5.463   1.135
  950SOL    HW2 6750   3.110   5.421   1.019
  951SOL     OW 6751   4.329   2.522   0.491
  951SOL    HW1 6752   4.299   2.616   0.508
  951SOL    HW2 6753   4.382   2.519   0.406
  952SOL     OW 6754   2.068   1.132   1.863
  952SOL    HW1 6755   2.146   1.070   1.863
  952SOL    HW2 6756   2.096   1.222   1.895
  953SOL     OW 6757   4.884   2.282   0.509
  953SOL    HW1 6758   4.896   2.231   0.424
  953SOL    HW2 6759   4.971   2.324   0.535
  954SOL     OW 6760   0.183   3.095   0.622
  954SOL    HW1 6761   0.163   3.157   0.699
  954SOL    HW2 6762   0.281   3.077   0.618
  955SOL     OW 6763   5.052   4.205   0.852
  955SOL    HW1 6764   5.081   4.188   0.757
  955SOL    HW2 6765   5.053   4.119   0.902
  956SOL     OW 6766   5.474   5.058   5.165
  956SOL    HW1 6767   5.403   5.005   5.119
  956SOL    HW2 6768   5.438   5.093   5.252
  957SOL     OW 6769   1.010   4.479   4.810
  957SOL    HW1 6770   0.980   4.436   4.895
  957SOL    HW2 6771   0.991   4.418   4.733
  958SOL     OW 6772   1.547   2.968   0.695
  958SOL    HW1 6773   1.645   2.979   0.712
  958SOL    HW2 6774   1.497   3.044   0.738
  959SOL     OW 6775   3.805   4.491   0.186
  959SOL    HW1 6776   3.758   4.518   0.102
  959SOL    HW2 6777   3.882   4.431   0.163
  960SOL     OW 6778   1.108   4.225   0.969
  960SOL    HW1 6779   1.178   4.176   1.022
  960SOL    HW2 6780   1.109   4.194   0.874
  961SOL     OW 6781   5.280   4.484   0.176
  961SOL    HW1 6782   5.373   4.446   0.170
  961SOL    HW2 6783   5.262   4.515   0.269
  962SOL     OW 6784   2.740   3.769   0.250
  962SOL    HW1 6785   2.793   3.850   0.226
  962SOL    HW2 6786   2.771   3.733   0.337
  963SOL     OW 6787   0.412   5.476   5.616
  963SOL    HW1 6788   0.434   5.548   5.682
  963SOL    HW2 6789   0.323   5.494   5.575
  964SOL     OW 6790   1.456   4.358   1.246
  964SOL    HW1 6791   1.393   4.358   1.324
  964SOL    HW2 6792   1.502   4.447   1.240
  965SOL     OW 6793   3.794   2.301   4.815
  965SOL    HW1 6794   3.858   2.352   4.873
  965SOL    HW2 6795   3.841   2.225   4.771
  966SOL     OW 6796   5.393   4.723   1.099
  966SOL    HW1 6797   5.411   4.628   1.074
  966SOL    HW2 6798   5.433   4.741   1.189
  967SOL     OW 6799   3.907   2.129   5.473
  967SOL    HW1 6800   3.998   2.116   5.511
  967SOL    HW2 6801   3.860   2.202   5.523
  968SOL     OW 6802   5.580   4.719   5.336
  968SOL    HW1 6803   5.501   4.694   5.280
  968SOL    HW2 6804   5.626   4.798   5.295
  969SOL     OW 6805   2.552   3.513   1.550
  969SOL    HW1 6806   2.551   3.435   1.612
  969SOL    HW2 6807   2.479   3.577   1.576
  970SOL     OW 6808   1.562   0.663   4.736
  970SOL    HW1 6809   1.583   0.757   4.762
  970SOL    HW2 6810   1.549   0.659   4.637
  971SOL     OW 6811   0.963   4.118   1.210
  971SOL    HW1 6812   0.942   4.085   1.118
  971SOL    HW2 6813   1.005   4.209   1.204
  972SOL     OW 6814   0.088   5.106   1.966
  972SOL    HW1 6815   0.130   5.016   1.982
  972SOL    HW2 6816   0.063   5.147   2.053
  973SOL     OW 6817   3.202   3.597   5.574
  973SOL    HW1 6818   3.127   3.580   5.638
  973SOL    HW2 6819   3.179   3.558   5.485
  974SOL     OW 6820   4.507   4.931   5.821
  974SOL    HW1 6821   4.436   4.972   5.763
  974SOL    HW2 6822   4.466   4.903   5.908
  975SOL     OW 6823   1.276   1.928   0.143
  975SOL    HW1 6824   1.342   1.981   0.196
  975SOL    HW2 6825   1.183   1.960   0.164
  976SOL     OW 6826   2.643   3.302   4.473
  976SOL    HW1 6827   2.556   3.294   4.425
  976SOL    HW2 6828   2.717   3.310   4.407
  977SOL     OW 6829   1.190   0.340   5.605
  977SOL    HW1 6830   1.250   0.296   5.672
  977SOL    HW2 6831   1.202   0.297   5.516
  978SOL     OW 6832   2.762   3.492   0.703
  978SOL    HW1 6833   2.775   3.545   0.619
  978SOL    HW2 6834   2.735   3.553   0.777
  979SOL     OW 6835   1.672   4.110   0.319
  979SOL    HW1 6836   1.751   4.054   0.293
  979SOL    HW2 6837   1.665   4.114   0.419
  980SOL     OW 6838   1.012   1.035   0.928
  980SOL    HW1 6839   1.053   1.117   0.969
  980SOL    HW2 6840   1.073   0.999   0.858
  981SOL     OW 6841   2.069   1.228   0.829
  981SOL    HW1 6842   2.077   1.163   0.904
  981SOL    HW2 6843   1.984   1.280   0.839
  982SOL     OW 6844   1.555   3.220   5.797
  982SOL    HW1 6845   1.628   3.287   5.812
  982SOL    HW2 6846   1.466   3.265   5.803
  983SOL     OW 6847   2.162   1.913   5.362
  983SOL    HW1 6848   2.158   1.839   5.429
  983SOL    HW2 6849   2.094   1.898   5.291
  984SOL     OW 6850   3.476   0.338   1.019
  984SOL    HW1 6851   3.534   0.264   1.054
  984SOL    HW2 6852   3.514   0.426   1.046
  985SOL     OW 6853   1.472   4.961   1.246
  985SOL    HW1 6854   1.432   4.880   1.203
  985SOL    HW2 6855   1.563   4.978   1.206
  986SOL     OW 6856   5.011   4.881   5.682
  986SOL    HW1 6857   4.988   4.950   5.751
  986SOL    HW2 6858   5.058   4.924   5.606
  987SOL     OW 6859   2.915   4.928   0.078
  987SOL    HW1 6860   2.883   5.022   0.094
  987SOL    HW2 6861   2.841   4.873   0.040
  988SOL     OW 6862   0.739   5.448   4.223
  988SOL    HW1 6863   0.839   5.447   4.223
  988SOL    HW2 6864   0.706   5.495   4.141
  989SOL     OW 6865   2.909   2.149   0.608
  989SOL    HW1 6866   2.830   2.098   0.644
  989SOL    HW2 6867   2.981   2.084   0.583
  990SOL     OW 6868   1.935   5.476   1.057
  990SOL    HW1 6869   1.845   5.491   1.016
  990SOL    HW2 6870   1.991   5.558   1.046
  991SOL     OW 6871   0.571   0.460   1.642
  991SOL    HW1 6872   0.596   0.537   1.701
  991SOL    HW2 6873   0.476   0.469   1.613
  992SOL     OW 6874   0.045   3.699   5.418
  992SOL    HW1 6875   0.090   3.621   5.461
  992SOL    HW2 6876   0.103   3.780   5.428
  993SOL     OW 6877   5.366   1.681   0.983
  993SOL    HW1 6878   5.327   1.607   1.038
  993SOL    HW2 6879   5.434   1.644   0.920
  994SOL     OW 6880   4.319   1.976   0.177
  994SOL    HW1 6881   4.409   1.962   0.218
  994SOL    HW2 6882   4.281   1.888   0.150
  995SOL     OW 6883   4.705   5.338   5.223
  995SOL    HW1 6884   4.718   5.376   5.131
  995SOL    HW2 6885   4.733   5.406   5.291
  996SOL     OW 6886   0.138   0.748   0.247
  996SOL    HW1 6887   0.059   0.722   0.303
  996SOL    HW2 6888   0.175   0.835   0.280
  997SOL     OW 6889   4.282   5.333   5.034
  997SOL    HW1 6890   4.187   5.342   5.003
  997SOL    HW2 6891   4.308   5.237   5.034
  998SOL     OW 6892   2.312   0.575   5.448
  998SOL    HW1 6893   2.358   0.487   5.435
  998SOL    HW2 6894   2.377   0.640   5.488
  999SOL     OW 6895   4.797   3.529   0.499
  999SOL    HW1 6896   4.708   3.501   0.464
  999SOL    HW2 6897   4.863   3.454   0.490
 1000SOL     OW 6898   0.761   4.117   4.944
 1000SOL    HW1 6899   0.718   4.047   5.001
 1000SOL    HW2 6900   0.794   4.074   4.859
 1001SOL     OW 6901   5.170   2.468   1.216
 1001SOL    HW1 6902   5.105   2.446   1.289
 1001SOL    HW2 6903   5.157   2.405   1.140
 1002SOL     OW 6904   4.182   0.425   4.729
 1002SOL    HW1 6905   4.110   0.413   4.798
 1002SOL    HW2 6906   4.174   0.353   4.660
 1003SOL     OW 6907   4.910   1.537   0.546
 1003SOL    HW1 6908   4.828   1.536   0.489
 1003SOL    HW2 6909   4.909   1.618   0.605
 1004SOL     OW 6910   4.927   4.157   5.251
 1004SOL    HW1 6911   4.867   4.127   5.177
 1004SOL    HW2 6912   4.975   4.240   5.225
 1005SOL     OW 6913   3.298   5.603   0.079
 1005SOL    HW1 6914   3.377   5.613   0.140
 1005SOL    HW2 6915   3.330   5.604   6.000
 1006SOL     OW 6916   4.314   0.872   0.141
 1006SOL    HW1 6917   4.390   0.925   0.103
 1006SOL    HW2 6918   4.311   0.782   0.098
 1007SOL     OW 6919   0.856   1.908   0.018
 1007SOL    HW1 6920   0.835   1.980   5.968
 1007SOL    HW2 6921   0.913   1.944   0.091
 1008SOL     OW 6922   5.407   3.209   0.602
 1008SOL    HW1 6923   5.346   3.147   0.652
 1008SOL    HW2 6924   5.411   3.297   0.649
 1009SOL     OW 6925   2.256   0.120   1.481
 1009SOL    HW1 6926   2.196   0.196   1.455
 1009SOL    HW2 6927   2.304   0.142   1.565
 1010SOL     OW 6928   0.967   2.550   5.467
 1010SOL    HW1 6929   0.981   2.615   5.542
 1010SOL    HW2 6930   1.048   2.491   5.460
 1011SOL     OW 6931   3.714   4.371   5.311
 1011SOL    HW1 6932   3.705   4.384   5.409
 1011SOL    HW2 6933   3.810   4.359   5.288
 1012SOL     OW 6934   4.602   2.649   0.711
 1012SOL    HW1 6935   4.557   2.560   0.707
 1012SOL    HW2 6936   4.664   2.651   0.789
 1013SOL     OW 6937   2.414   0.363   0.156
 1013SOL    HW1 6938   2.405   0.446   0.101
 1013SOL    HW2 6939   2.498   0.367   0.210
 1014SOL     OW 6940   3.983   2.387   0.290
 1014SOL    HW1 6941   4.014   2.292   0.281
 1014SOL    HW2 6942   3.991   2.415   0.386
 1015SOL     OW 6943   3.640   4.037   0.619
 1015SOL    HW1 6944   3.666   4.052   0.715
 1015SOL    HW2 6945   3.578   4.110   0.590
 1016SOL     OW 6946   1.250   2.676   0.644
 1016SOL    HW1 6947   1.231   2.758   0.589
 1016SOL    HW2 6948   1.165   2.626   0.660
 1017SOL     OW 6949   5.287   1.724   4.925
 1017SOL    HW1 6950   5.344   1.753   4.848
 1017SOL    HW2 6951   5.343   1.677   4.993
 1018SOL     OW 6952   4.284   5.230   5.922
 1018SOL    HW1 6953   4.277   5.313   5.867
 1018SOL    HW2 6954   4.285   5.150   5.862
 1019SOL     OW 6955   1.101   2.795   5.057
 1019SOL    HW1 6956   1.109   2.745   4.971
 1019SOL    HW2 6957   1.033   2.751   5.115
 1020SOL     OW 6958   4.518   0.736   5.798
 1020SOL    HW1 6959   4.551   0.661   5.740
 1020SOL    HW2 6960   4.595   0.790   5.830
 1021SOL     OW 6961   1.582   1.737   5.061
 1021SOL    HW1 6962   1.588   1.836   5.077
 1021SOL    HW2 6963   1.599   1.688   5.147
 1022SOL     OW 6964   1.690   1.760   5.817
 1022SOL    HW1 6965   1.776   1.783   5.771
 1022SOL    HW2 6966   1.626   1.721   5.750
 1023SOL     OW 6967   0.413   1.851   0.578
 1023SOL    HW1 6968   0.453   1.785   0.641
 1023SOL    HW2 6969   0.447   1.942   0.599
 1024SOL     OW 6970   0.668   2.781   1.591
 1024SOL    HW1 6971   0.602   2.824   1.653
 1024SOL    HW2 6972   0.752   2.759   1.641
 1025SOL     OW 6973   5.502   0.997   4.448
 1025SOL    HW1 6974   5.434   0.976   4.378
 1025SOL    HW2 6975   5.557   1.075   4.420
 1026SOL     OW 6976   5.415   1.341   0.107
 1026SOL    HW1 6977   5.496   1.287   0.128
 1026SOL    HW2 6978   5.406   1.350   0.008
 1027SOL     OW 6979   4.845   1.392   5.424
 1027SOL    HW1 6980   4.770   1.327   5.409
 1027SOL    HW2 6981   4.841   1.464   5.354
 1028SOL     OW 6982   0.173   5.527   5.494
 1028SOL    HW1 6983   0.157   5.626   5.495
 1028SOL    HW2 6984   0.088   5.480   5.469
 1029SOL     OW 6985   5.196   0.544   0.723
 1029SOL    HW1 6986   5.133   0.468   0.713
 1029SOL    HW2 6987   5.245   0.559   0.637
 1030SOL     OW 6988   3.207   1.247   5.800
 1030SOL    HW1 6989   3.260   1.234   5.716
 1030SOL    HW2 6990   3.238   1.331   5.846
 1031SOL     OW 6991   3.776   4.486   0.471
 1031SOL    HW1 6992   3.794   4.480   0.373
 1031SOL    HW2 6993   3.850   4.442   0.522
 1032SOL     OW 6994   1.008   2.235   5.808
 1032SOL    HW1 6995   1.097   2.194   5.826
 1032SOL    HW2 6996   1.006   2.328   5.846
 1033SOL     OW 6997   2.320   5.321   5.826
 1033SOL    HW1 6998   2.307   5.308   5.728
 1033SOL    HW2 6999   2.401   5.273   5.857
 1034SOL     OW 7000   3.591   3.557   5.253
 1034SOL    HW1 7001   3.554   3.648   5.239
 1034SOL    HW2 7002   3.564   3.524   5.344
 1035SOL     OW 7003   2.272   4.176   5.921
 1035SOL    HW1 7004   2.352   4.162   5.863
 1035SOL    HW2 7005   2.235   4.267   5.906
 1036SOL     OW 7006   3.934   1.158   4.901
 1036SOL    HW1 7007   3.836   1.147   4.881
 1036SOL    HW2 7008   3.986   1.151   4.816
 1037SOL     OW 7009   0.545   1.367   0.363
 1037SOL    HW1 7010   0.585   1.329   0.446
 1037SOL    HW2 7011   0.608   1.434   0.324
 1038SOL     OW 7012   0.247   4.421   1.834
 1038SOL    HW1 7013   0.228   4.507   1.786
 1038SOL    HW2 7014   0.328   4.431   1.890
 1039SOL     OW 7015   0.799   3.591   5.621
 1039SOL    HW1 7016   0.887   3.543   5.627
 1039SOL    HW2 7017   0.804   3.660   5.550
 1040SOL     OW 7018   5.521   2.680   0.079
 1040SOL    HW1 7019   5.500   2.592   0.122
 1040SOL    HW2 7020   5.457   2.749   0.111
 1041SOL     OW 7021   4.254   0.185   5.941
 1041SOL    HW1 7022   4.330   0.123   5.961
 1041SOL    HW2 7023   4.289   0.276   5.922
 1042SOL     OW 7024   1.059   1.425   5.324
 1042SOL    HW1 7025   1.039   1.508   5.375
 1042SOL    HW2 7026   1.154   1.398   5.341
 1043SOL     OW 7027   1.876   2.700   5.622
 1043SOL    HW1 7028   1.783   2.723   5.651
 1043SOL    HW2 7029   1.932   2.678   5.702
 1044SOL     OW 7030   1.435   0.800   1.332
 1044SOL    HW1 7031   1.531   0.811   1.306
 1044SOL    HW2 7032   1.397   0.888   1.361
 1045SOL     OW 7033   2.636   2.260   6.003
 1045SOL    HW1 7034   2.699   2.188   5.973
 1045SOL    HW2 7035   2.667   2.348   5.966
 1046SOL     OW 7036   2.043   4.636   4.124
 1046SOL    HW1 7037   2.068   4.730   4.147
 1046SOL    HW2 7038   1.964   4.637   4.063
 1047SOL     OW 7039   1.649   3.805   5.619
 1047SOL    HW1 7040   1.640   3.760   5.531
 1047SOL    HW2 7041   1.681   3.899   5.606
 1048SOL     OW 7042   0.431   2.381   4.694
 1048SOL    HW1 7043   0.444   2.282   4.698
 1048SOL    HW2 7044   0.514   2.424   4.659
 1049SOL     OW 7045   1.821   2.955   0.743
 1049SOL    HW1 7046   1.889   2.930   0.675
 1049SOL    HW2 7047   1.816   2.884   0.813
 1050SOL     OW 7048   3.657   0.147   1.138
 1050SOL    HW1 7049   3.691   0.234   1.173
 1050SOL    HW2 7050   3.701   0.072   1.187
 1051SOL     OW 7051   0.895   5.526   5.839
 1051SOL    HW1 7052   0.807   5.539   5.886
 1051SOL    HW2 7053   0.879   5.489   5.748
 1052SOL     OW 7054   2.137   3.760   5.530
 1052SOL    HW1 7055   2.091   3.828   5.472
 1052SOL    HW2 7056   2.171   3.685   5.473
 1053SOL     OW 7057   3.409   4.913   0.135
 1053SOL    HW1 7058   3.324   4.914   0.082
 1053SOL    HW2 7059   3.461   4.997   0.116
 1054SOL     OW 7060   1.737   1.879   5.331
 1054SOL    HW1 7061   1.678   1.929   5.268
 1054SOL    HW2 7062   1.704   1.785   5.341
 1055SOL     OW 7063   3.623   0.638   5.832
 1055SOL    HW1 7064   3.564   0.717   5.849
 1055SOL    HW2 7065   3.638   0.588   5.918
 1056SOL     OW 7066   0.940   4.090   0.199
 1056SOL    HW1 7067   0.891   4.128   0.121
 1056SOL    HW2 7068   0.877   4.033   0.253
 1057SOL     OW 7069   3.168   1.550   0.870
 1057SOL    HW1 7070   3.128   1.640   0.850
 1057SOL    HW2 7071   3.266   1.553   0.851
 1058SOL     OW 7072   0.393   4.805   0.759
 1058SOL    HW1 7073   0.436   4.891   0.730
 1058SOL    HW2 7074   0.361   4.755   0.679
 1059SOL     OW 7075   3.602   4.193   4.869
 1059SOL    HW1 7076   3.574   4.288   4.851
 1059SOL    HW2 7077   3.643   4.155   4.786
 1060SOL     OW 7078   1.186   3.677   0.588
 1060SOL    HW1 7079   1.183   3.682   0.688
 1060SOL    HW2 7080   1.213   3.765   0.550
 1061SOL     OW 7081   0.149   1.806   0.641
 1061SOL    HW1 7082   0.122   1.712   0.618
 1061SOL    HW2 7083   0.244   1.821   0.614
 1062SOL     OW 7084   2.546   5.536   0.767
 1062SOL    HW1 7085   2.621   5.528   0.702
 1062SOL    HW2 7086   2.527   5.446   0.806
 1063SOL     OW 7087   0.646   2.506   0.621
 1063SOL    HW1 7088   0.709   2.439   0.659
 1063SOL    HW2 7089   0.687   2.547   0.539
 1064SOL     OW 7090   2.150   2.729   5.461
 1064SOL    HW1 7091   2.082   2.799   5.442
 1064SOL    HW2 7092   2.104   2.646   5.492
 1065SOL     OW 7093   2.178   3.314   5.507
 1065SOL    HW1 7094   2.249   3.285   5.571
 1065SOL    HW2 7095   2.154   3.238   5.447
 1066SOL     OW 7096   5.160   2.160   0.674
 1066SOL    HW1 7097   5.152   2.110   0.760
 1066SOL    HW2 7098   5.170   2.095   0.598
 1067SOL     OW 7099   2.712   3.508   4.161
 1067SOL    HW1 7100   2.765   3.432   4.198
 1067SOL    HW2 7101   2.616   3.497   4.187
 1068SOL     OW 7102   1.839   4.682   0.750
 1068SOL    HW1 7103   1.859   4.639   0.663
 1068SOL    HW2 7104   1.765   4.633   0.796
 1069SOL     OW 7105   3.372   3.257   5.552
 1069SOL    HW1 7106   3.281   3.244   5.511
 1069SOL    HW2 7107   3.427   3.174   5.538
 1070SOL     OW 7108   0.082   5.481   5.847
 1070SOL    HW1 7109   0.133   5.395   5.846
 1070SOL    HW2 7110   0.000   5.471   5.903
 1071SOL     OW 7111   3.685   0.867   0.136
 1071SOL    HW1 7112   3.665   0.891   0.231
 1071SOL    HW2 7113   3.650   0.939   0.076
 1072SOL     OW 7114   5.033   4.516   5.869
 1072SOL    HW1 7115   5.116   4.562   5.900
 1072SOL    HW2 7116   5.057   4.435   5.816
 1073SOL     OW 7117   2.768   5.497   5.447
 1073SOL    HW1 7118   2.843   5.432   5.437
 1073SOL    HW2 7119   2.788   5.580   5.394
 1074SOL     OW 7120   3.267   4.073   0.085
 1074SOL    HW1 7121   3.256   4.114   0.175
 1074SOL    HW2 7122   3.183   4.025   0.060
 1075SOL     OW 7123   0.828   1.263   5.358
 1075SOL    HW1 7124   0.897   1.331   5.333
 1075SOL    HW2 7125   0.851   1.222   5.446
 1076SOL     OW 7126   1.070   4.596   1.099
 1076SOL    HW1 7127   1.062   4.622   1.003
 1076SOL    HW2 7128   1.151   4.639   1.139
 1077SOL     OW 7129   4.732   2.472   0.389
 1077SOL    HW1 7130   4.782   2.396   0.430
 1077SOL    HW2 7131   4.760   2.558   0.433
 1078SOL     OW 7132   1.372   3.908   1.248
 1078SOL    HW1 7133   1.291   3.944   1.295
 1078SOL    HW2 7134   1.368   3.808   1.248
 1079SOL     OW 7135   2.120   5.517   0.651
 1079SOL    HW1 7136   2.089   5.501   0.557
 1079SOL    HW2 7137   2.130   5.429   0.698
 1080SOL     OW 7138   0.540   4.242   1.617
 1080SOL    HW1 7139   0.453   4.234   1.665
 1080SOL    HW2 7140   0.568   4.152   1.584
 1081SOL     OW 7141   1.693   2.904   5.313
 1081SOL    HW1 7142   1.655   2.827   5.365
 1081SOL    HW2 7143   1.628   2.931   5.241
 1082SOL     OW 7144   2.821   1.555   5.555
 1082SOL    HW1 7145   2.816   1.456   5.566
 1082SOL    HW2 7146   2.734   1.596   5.582
 1083SOL     OW 7147   3.727   0.566   5.256
 1083SOL    HW1 7148   3.688   0.584   5.166
 1083SOL    HW2 7149   3.658   0.522   5.314
 1084SOL     OW 7150   1.387   2.686   0.888
 1084SOL    HW1 7151   1.481   2.659   0.868
 1084SOL    HW2 7152   1.334   2.688   0.803
 1085SOL     OW 7153   3.264   0.673   0.253
 1085SOL    HW1 7154   3.253   0.729   0.336
 1085SOL    HW2 7155   3.251   0.730   0.172
 1086SOL     OW 7156   3.354   4.941   0.407
 1086SOL    HW1 7157   3.354   4.853   0.454
 1086SOL    HW2 7158   3.374   4.927   0.310
 1087SOL     OW 7159   5.144   2.647   0.173
 1087SOL    HW1 7160   5.212   2.720   0.179
 1087SOL    HW2 7161   5.177   2.575   0.112
 1088SOL     OW 7162   2.175   4.467   4.283
 1088SOL    HW1 7163   2.261   4.450   4.235
 1088SOL    HW2 7164   2.115   4.523   4.226
 1089SOL     OW 7165   4.929   1.888   0.510
 1089SOL    HW1 7166   5.019   1.928   0.498
 1089SOL    HW2 7167   4.925   1.840   0.598
 1090SOL     OW 7168   0.811   1.019   5.936
 1090SOL    HW1 7169   0.759   1.098   5.968
 1090SOL    HW2 7170   0.893   1.050   5.889
 1091SOL     OW 7171   0.378   3.668   5.401
 1091SOL    HW1 7172   0.336   3.757   5.422
 1091SOL    HW2 7173   0.328   3.596   5.449
 1092SOL     OW 7174   3.468   5.365   1.311
 1092SOL    HW1 7175   3.375   5.330   1.319
 1092SOL    HW2 7176   3.518   5.348   1.396
 1093SOL     OW 7177   0.258   2.180   4.266
 1093SOL    HW1 7178   0.355   2.205   4.258
 1093SOL    HW2 7179   0.204   2.240   4.207
 1094SOL     OW 7180   5.533   0.586   5.049
 1094SOL    HW1 7181   5.605   0.599   4.980
 1094SOL    HW2 7182   5.466   0.521   5.014
 1095SOL     OW 7183   4.247   3.636   5.821
 1095SOL    HW1 7184   4.339   3.609   5.795
 1095SOL    HW2 7185   4.226   3.603   5.913
 1096SOL     OW 7186   0.781   3.984   0.416
 1096SOL    HW1 7187   0.698   4.036   0.394
 1096SOL    HW2 7188   0.818   4.015   0.503
 1097SOL     OW 7189   3.099   2.073   1.987
 1097SOL    HW1 7190   3.190   2.091   2.024
 1097SOL    HW2 7191   3.032   2.133   2.032
 1098SOL     OW 7192   5.288   5.395   1.184
 1098SOL    HW1 7193   5.230   5.474   1.206
 1098SOL    HW2 7194   5.265   5.361   1.093
 1099SOL     OW 7195   1.106   0.558   0.993
 1099SOL    HW1 7196   1.195   0.597   0.968
 1099SOL    HW2 7197   1.034   0.604   0.942
 1100SOL     OW 7198   2.827   3.024   5.310
 1100SOL    HW1 7199   2.886   2.969   5.252
 1100SOL    HW2 7200   2.824   3.118   5.276
 1101SOL     OW 7201   3.363   1.913   0.395
 1101SOL    HW1 7202   3.355   1.884   0.300
 1101SOL    HW2 7203   3.344   1.836   0.455
 1102SOL     OW 7204   2.655   1.332   0.948
 1102SOL    HW1 7205   2.676   1.244   0.990
 1102SOL    HW2 7206   2.557   1.339   0.931
 1103SOL     OW 7207   0.082   4.801   4.474
 1103SOL    HW1 7208   0.138   4.834   4.398
 1103SOL    HW2 7209   0.013   4.869   4.497
 1104SOL     OW 7210   0.545   4.696   5.175
 1104SOL    HW1 7211   0.576   4.785   5.207
 1104SOL    HW2 7212   0.468   4.665   5.233
 1105SOL     OW 7213   1.747   2.111   4.801
 1105SOL    HW1 7214   1.787   2.200   4.826
 1105SOL    HW2 7215   1.648   2.116   4.808
 1106SOL     OW 7216   4.611   1.161   0.578
 1106SOL    HW1 7217   4.594   1.062   0.580
 1106SOL    HW2 7218   4.684   1.184   0.643
 1107SOL     OW 7219   0.656   2.381   5.196
 1107SOL    HW1 7220   0.665   2.406   5.292
 1107SOL    HW2 7221   0.747   2.371   5.155
 1108SOL     OW 7222   2.584   1.675   5.631
 1108SOL    HW1 7223   2.580   1.773   5.613
 1108SOL    HW2 7224   2.550   1.656   5.724
 1109SOL     OW 7225   1.958   4.725   1.403
 1109SOL    HW1 7226   1.897   4.726   1.324
 1109SOL    HW2 7227   2.006   4.813   1.409
 1110SOL     OW 7228   2.932   2.411   4.767
 1110SOL    HW1 7229   3.004   2.369   4.711
 1110SOL    HW2 7230   2.961   2.503   4.795
 1111SOL     OW 7231   3.522   1.372   0.243
 1111SOL    HW1 7232   3.586   1.341   0.172
 1111SOL    HW2 7233   3.554   1.343   0.333
 1112SOL     OW 7234   1.082   3.585   0.190
 1112SOL    HW1 7235   1.177   3.554   0.194
 1112SOL    HW2 7236   1.043   3.584   0.281
 1113SOL     OW 7237   0.542   4.246   4.839
 1113SOL    HW1 7238   0.533   4.207   4.747
 1113SOL    HW2 7239   0.623   4.208   4.883
 1114SOL     OW 7240   3.899   5.209   5.570
 1114SOL    HW1 7241   3.882   5.114   5.544
 1114SOL    HW2 7242   3.813   5.259   5.573
 1115SOL     OW 7243   4.334   0.204   0.858
 1115SOL    HW1 7244   4.429   0.209   0.827
 1115SOL    HW2 7245   4.283   0.143   0.798
 1116SOL     OW 7246   0.599   4.256   1.310
 1116SOL    HW1 7247   0.612   4.324   1.238
 1116SOL    HW2 7248   0.545   4.295   1.383
 1117SOL     OW 7249   5.582   1.064   0.387
 1117SOL    HW1 7250   5.490   1.034   0.412
 1117SOL    HW2 7251   5.649   0.996   0.418
 1118SOL     OW 7252   1.144   3.084   5.067
 1118SOL    HW1 7253   1.239   3.102   5.044
 1118SOL    HW2 7254   1.124   2.987   5.053
 1119SOL     OW 7255   4.258   0.335   0.463
 1119SOL    HW1 7256   4.166   0.347   0.424
 1119SOL    HW2 7257   4.277   0.237   0.472
 1120SOL     OW 7258   5.134   4.661   5.553
 1120SOL    HW1 7259   5.089   4.720   5.619
 1120SOL    HW2 7260   5.122   4.699   5.461
 1121SOL     OW 7261   5.046   5.424   1.392
 1121SOL    HW1 7262   5.080   5.513   1.422
 1121SOL    HW2 7263   5.105   5.352   1.429
 1122SOL     OW 7264   0.578   1.894   1.105
 1122SOL    HW1 7265   0.580   1.794   1.111
 1122SOL    HW2 7266   0.592   1.933   1.196
 1123SOL     OW 7267   1.416   0.336   0.300
 1123SOL    HW1 7268   1.509   0.310   0.328
 1123SOL    HW2 7269   1.421   0.394   0.218
 1124SOL     OW 7270   4.769   4.074   5.043
 1124SOL    HW1 7271   4.819   4.016   4.979
 1124SOL    HW2 7272   4.682   4.030   5.066
 1125SOL     OW 7273   3.343   1.180   0.691
 1125SOL    HW1 7274   3.367   1.122   0.613
 1125SOL    HW2 7275   3.285   1.128   0.754
 1126SOL     OW 7276   3.191   4.911   1.701
 1126SOL    HW1 7277   3.239   4.841   1.754
 1126SOL    HW2 7278   3.221   5.002   1.729
 1127SOL     OW 7279   3.097   4.177   5.398
 1127SOL    HW1 7280   3.004   4.149   5.377
 1127SOL    HW2 7281   3.140   4.215   5.316
 1128SOL     OW 7282   3.497   0.267   5.943
 1128SOL    HW1 7283   3.419   0.273   5.882
 1128SOL    HW2 7284   3.531   0.173   5.945
 1129SOL     OW 7285   1.792   2.325   0.885
 1129SOL    HW1 7286   1.825   2.342   0.978
 1129SOL    HW2 7287   1.852   2.372   0.820
 1130SOL     OW 7288   3.043   3.177   0.772
 1130SOL    HW1 7289   3.013   3.266   0.805
 1130SOL    HW2 7290   2.965   3.126   0.736
 1131SOL     OW 7291   4.690   3.030   5.666
 1131SOL    HW1 7292   4.763   3.087   5.630
 1131SOL    HW2 7293   4.728   2.966   5.733
 1132SOL     OW 7294   4.074   5.129   0.292
 1132SOL    HW1 7295   4.066   5.051   0.354
 1132SOL    HW2 7296   3.986   5.144   0.247
 1133SOL     OW 7297   2.976   5.016   1.020
 1133SOL    HW1 7298   3.058   5.054   0.978
 1133SOL    HW2 7299   2.973   5.042   1.117
 1134SOL     OW 7300   5.470   2.466   0.240
 1134SOL    HW1 7301   5.396   2.399   0.243
 1134SOL    HW2 7302   5.480   2.510   0.329
 1135SOL     OW 7303   2.376   0.185   5.236
 1135SOL    HW1 7304   2.328   0.101   5.260
 1135SOL    HW2 7305   2.315   0.243   5.181
 1136SOL     OW 7306   1.071   5.021   5.175
 1136SOL    HW1 7307   0.984   5.045   5.132
 1136SOL    HW2 7308   1.054   4.989   5.268
 1137SOL     OW 7309   0.543   0.562   4.478
 1137SOL    HW1 7310   0.581   0.561   4.385
 1137SOL    HW2 7311   0.447   0.588   4.474
 1138SOL     OW 7312   5.567   3.674   0.707
 1138SOL    HW1 7313   5.500   3.727   0.758
 1138SOL    HW2 7314   5.611   3.732   0.638
 1139SOL     OW 7315   2.575   2.043   4.370
 1139SOL    HW1 7316   2.630   2.098   4.307
 1139SOL    HW2 7317   2.491   2.092   4.393
 1140SOL     OW 7318   0.723   5.379   1.415
 1140SOL    HW1 7319   0.649   5.426   1.367
 1140SOL    HW2 7320   0.809   5.428   1.400
 1141SOL     OW 7321   5.637   2.535   0.869
 1141SOL    HW1 7322   5.552   2.485   0.884
 1141SOL    HW2 7323   5.616   2.630   0.844
 1142SOL     OW 7324   0.831   4.023   5.563
 1142SOL    HW1 7325   0.811   3.934   5.522
 1142SOL    HW2 7326   0.924   4.051   5.538
 1143SOL     OW 7327   2.629   4.718   5.493
 1143SOL    HW1 7328   2.655   4.723   5.396
 1143SOL    HW2 7329   2.556   4.651   5.504
 1144SOL     OW 7330   1.499   3.966   5.981
 1144SOL    HW1 7331   1.595   3.992   5.995
 1144SOL    HW2 7332   1.456   4.029   5.917
 1145SOL     OW 7333   2.493   1.893   0.502
 1145SOL    HW1 7334   2.406   1.931   0.470
 1145SOL    HW2 7335   2.565   1.915   0.435
 1146SOL     OW 7336   0.712   2.952   5.935
 1146SOL    HW1 7337   0.753   3.007   5.863
 1146SOL    HW2 7338   0.785   2.914   5.993
 1147SOL     OW 7339   4.478   2.136   0.558
 1147SOL    HW1 7340   4.532   2.096   0.484
 1147SOL    HW2 7341   4.472   2.070   0.633
 1148SOL     OW 7342   2.489   5.619   1.871
 1148SOL    HW1 7343   2.462   5.538   1.923
 1148SOL    HW2 7344   2.571   0.005   1.911
 1149SOL     OW 7345   4.450   0.797   5.417
 1149SOL    HW1 7346   4.398   0.840   5.491
 1149SOL    HW2 7347   4.545   0.786   5.445
 1150SOL     OW 7348   5.446   2.492   1.195
 1150SOL    HW1 7349   5.350   2.481   1.221
 1150SOL    HW2 7350   5.504   2.459   1.269
 1151SOL     OW 7351   0.872   4.706   4.747
 1151SOL    HW1 7352   0.803   4.714   4.818
 1151SOL    HW2 7353   0.930   4.626   4.766
 1152SOL     OW 7354   2.098   3.592   0.072
 1152SOL    HW1 7355   2.060   3.663   0.013
 1152SOL    HW2 7356   2.092   3.504   0.025
 1153SOL     OW 7357   3.554   3.047   5.801
 1153SOL    HW1 7358   3.580   2.959   5.841
 1153SOL    HW2 7359   3.549   3.038   5.702
 1154SOL     OW 7360   2.798   0.346   1.899
 1154SOL    HW1 7361   2.779   0.396   1.984
 1154SOL    HW2 7362   2.895   0.355   1.877
 1155SOL     OW 7363   3.291   2.322   5.900
 1155SOL    HW1 7364   3.261   2.405   5.946
 1155SOL    HW2 7365   3.316   2.253   5.968
 1156SOL     OW 7366   1.013   4.733   5.699
 1156SOL    HW1 7367   1.112   4.717   5.697
 1156SOL    HW2 7368   0.991   4.800   5.770
 1157SOL     OW 7369   4.149   3.938   1.154
 1157SOL    HW1 7370   4.222   3.955   1.088
 1157SOL    HW2 7371   4.146   4.011   1.222
 1158SOL     OW 7372   0.002   1.732   6.002
 1158SOL    HW1 7373   5.631   1.678   0.022
 1158SOL    HW2 7374   5.671   1.800   5.937
 1159SOL     OW 7375   3.119   1.440   4.932
 1159SOL    HW1 7376   3.176   1.361   4.907
 1159SOL    HW2 7377   3.105   1.441   5.031
 1160SOL     OW 7378   1.332   4.286   4.500
 1160SOL    HW1 7379   1.421   4.287   4.455
 1160SOL    HW2 7380   1.262   4.320   4.436
 1161SOL     OW 7381   3.808   3.684   5.857
 1161SOL    HW1 7382   3.868   3.653   5.930
 1161SOL    HW2 7383   3.716   3.646   5.871
 1162SOL     OW 7384   2.701   1.989   0.692
 1162SOL    HW1 7385   2.616   1.982   0.640
 1162SOL    HW2 7386   2.754   1.905   0.679
 1163SOL     OW 7387   4.580   2.375   5.973
 1163SOL    HW1 7388   4.665   2.428   5.963
 1163SOL    HW2 7389   4.502   2.434   5.952
 1164SOL     OW 7390   3.900   1.406   5.889
 1164SOL    HW1 7391   3.953   1.426   5.807
 1164SOL    HW2 7392   3.963   1.379   5.963
 1165SOL     OW 7393   5.145   4.446   0.951
 1165SOL    HW1 7394   5.089   4.467   1.031
 1165SOL    HW2 7395   5.120   4.356   0.916
 1166SOL     OW 7396   1.300   5.522   0.390
 1166SOL    HW1 7397   1.290   5.475   0.302
 1166SOL    HW2 7398   1.225   5.494   0.451
 1167SOL     OW 7399   2.962   5.261   0.658
 1167SOL    HW1 7400   2.902   5.181   0.649
 1167SOL    HW2 7401   3.004   5.281   0.569
 1168SOL     OW 7402   5.684   0.785   0.844
 1168SOL    HW1 7403   5.596   0.738   0.839
 1168SOL    HW2 7404   5.678   0.873   0.796
 1169SOL     OW 7405   1.853   4.443   0.074
 1169SOL    HW1 7406   1.874   4.540   0.063
 1169SOL    HW2 7407   1.916   4.402   0.139
 1170SOL     OW 7408   1.398   2.787   0.323
 1170SOL    HW1 7409   1.456   2.868   0.314
 1170SOL    HW2 7410   1.377   2.751   0.232
 1171SOL     OW 7411   0.379   4.269   0.530
 1171SOL    HW1 7412   0.322   4.288   0.449
 1171SOL    HW2 7413   0.320   4.256   0.610
 1172SOL     OW 7414   2.413   1.531   4.280
 1172SOL    HW1 7415   2.316   1.519   4.257
 1172SOL    HW2 7416   2.439   1.626   4.264
 1173SOL     OW 7417   2.301   1.437   5.329
 1173SOL    HW1 7418   2.255   1.371   5.389
 1173SOL    HW2 7419   2.345   1.388   5.254
 1174SOL     OW 7420   3.249   0.631   0.838
 1174SOL    HW1 7421   3.325   0.658   0.778
 1174SOL    HW2 7422   3.162   0.660   0.797
 1175SOL     OW 7423   0.372   1.263   5.994
 1175SOL    HW1 7424   0.372   1.181   5.938
 1175SOL    HW2 7425   0.338   1.340   5.941
 1176SOL     OW 7426   1.268   1.369   0.395
 1176SOL    HW1 7427   1.275   1.318   0.480
 1176SOL    HW2 7428   1.272   1.467   0.414
 1177SOL     OW 7429   1.591   3.206   5.386
 1177SOL    HW1 7430   1.686   3.222   5.415
 1177SOL    HW2 7431   1.549   3.139   5.447
 1178SOL     OW 7432   4.579   1.289   0.341
 1178SOL    HW1 7433   4.593   1.241   0.427
 1178SOL    HW2 7434   4.491   1.264   0.301
 1179SOL     OW 7435   1.023   1.999   0.221
 1179SOL    HW1 7436   1.025   2.099   0.214
 1179SOL    HW2 7437   1.040   1.972   0.316
 1180SOL     OW 7438   1.752   5.097   0.894
 1180SOL    HW1 7439   1.654   5.113   0.899
 1180SOL    HW2 7440   1.792   5.154   0.822
 1181SOL     OW 7441   1.895   3.618   0.967
 1181SOL    HW1 7442   1.966   3.553   0.940
 1181SOL    HW2 7443   1.938   3.697   1.009
 1182SOL     OW 7444   0.480   4.409   1.984
 1182SOL    HW1 7445   0.500   4.312   1.991
 1182SOL    HW2 7446   0.478   4.450   2.075
 1183SOL     OW 7447   5.663   1.300   0.510
 1183SOL    HW1 7448   0.015   1.342   0.439
 1183SOL    HW2 7449   5.629   1.212   0.477
 1184SOL     OW 7450   1.214   0.229   5.358
 1184SOL    HW1 7451   1.143   0.243   5.288
 1184SOL    HW2 7452   1.238   0.132   5.361
 1185SOL     OW 7453   3.330   5.055   1.289
 1185SOL    HW1 7454   3.271   4.988   1.335
 1185SOL    HW2 7455   3.287   5.146   1.295
 1186SOL     OW 7456   4.842   3.979   4.591
 1186SOL    HW1 7457   4.822   3.928   4.507
 1186SOL    HW2 7458   4.808   4.073   4.583
 1187SOL     OW 7459   2.827   3.673   0.492
 1187SOL    HW1 7460   2.906   3.615   0.471
 1187SOL    HW2 7461   2.851   3.736   0.566
 1188SOL     OW 7462   4.743   4.230   4.574
 1188SOL    HW1 7463   4.752   4.241   4.673
 1188SOL    HW2 7464   4.738   4.320   4.531
 1189SOL     OW 7465   2.711   1.217   1.516
 1189SOL    HW1 7466   2.716   1.134   1.460
 1189SOL    HW2 7467   2.797   1.228   1.567
 1190SOL     OW 7468   5.053   0.700   5.755
 1190SOL    HW1 7469   4.969   0.646   5.749
 1190SOL    HW2 7470   5.097   0.683   5.843
 1191SOL     OW 7471   0.082   0.812   1.688
 1191SOL    HW1 7472   0.063   0.878   1.761
 1191SOL    HW2 7473   0.181   0.802   1.677
 1192SOL     OW 7474   2.478   0.765   5.545
 1192SOL    HW1 7475   2.550   0.805   5.488
 1192SOL    HW2 7476   2.450   0.832   5.614
 1193SOL     OW 7477   4.346   4.564   0.388
 1193SOL    HW1 7478   4.283   4.631   0.426
 1193SOL    HW2 7479   4.440   4.594   0.403
 1194SOL     OW 7480   4.560   3.284   0.844
 1194SOL    HW1 7481   4.580   3.321   0.935
 1194SOL    HW2 7482   4.486   3.338   0.802
 1195SOL     OW 7483   5.154   5.286   5.484
 1195SOL    HW1 7484   5.147   5.191   5.514
 1195SOL    HW2 7485   5.114   5.296   5.393
 1196SOL     OW 7486   2.439   3.356   1.349
 1196SOL    HW1 7487   2.489   3.419   1.409
 1196SOL    HW2 7488   2.341   3.366   1.364
 1197SOL     OW 7489   5.695   3.819   0.511
 1197SOL    HW1 7490   5.652   3.850   0.426
 1197SOL    HW2 7491   0.073   3.768   0.489
 1198SOL     OW 7492   0.144   4.659   0.109
 1198SOL    HW1 7493   0.242   4.656   0.129
 1198SOL    HW2 7494   0.097   4.709   0.181
 1199SOL     OW 7495   4.972   4.568   0.512
 1199SOL    HW1 7496   4.895   4.512   0.483
 1199SOL    HW2 7497   4.972   4.576   0.612
 1200SOL     OW 7498   2.894   1.806   4.556
 1200SOL    HW1 7499   2.916   1.861   4.475
 1200SOL    HW2 7500   2.922   1.711   4.541
 1201SOL     OW 7501   5.299   2.836   0.897
 1201SOL    HW1 7502   5.239   2.804   0.971
 1201SOL    HW2 7503   5.282   2.933   0.880
 1202SOL     OW 7504   0.953   3.293   0.448
 1202SOL    HW1 7505   0.915   3.283   0.540
 1202SOL    HW2 7506   0.966   3.391   0.428
 1203SOL     OW 7507   0.476   3.371   4.609
 1203SOL    HW1 7508   0.430   3.349   4.695
 1203SOL    HW2 7509   0.573   3.348   4.617
 1204SOL     OW 7510   2.489   4.149   5.760
 1204SOL    HW1 7511   2.542   4.225   5.722
 1204SOL    HW2 7512   2.551   4.075   5.786
 1205SOL     OW 7513   1.641   0.282   5.955
 1205SOL    HW1 7514   1.696   0.205   5.988
 1205SOL    HW2 7515   1.561   0.247   5.906
 1206SOL     OW 7516   2.686   4.616   0.244
 1206SOL    HW1 7517   2.757   4.678   0.278
 1206SOL    HW2 7518   2.722   4.523   0.241
 1207SOL     OW 7519   4.053   3.317   1.862
 1207SOL    HW1 7520   4.131   3.368   1.899
 1207SOL    HW2 7521   4.041   3.232   1.913
 1208SOL     OW 7522   4.537   5.513   5.780
 1208SOL    HW1 7523   4.601   5.439   5.799
 1208SOL    HW2 7524   4.445   5.476   5.770
 1209SOL     OW 7525   0.270   1.662   5.904
 1209SOL    HW1 7526   0.176   1.676   5.937
 1209SOL    HW2 7527   0.273   1.580   5.847
 1210SOL     OW 7528   0.583   1.012   0.192
 1210SOL    HW1 7529   0.608   1.089   0.133
 1210SOL    HW2 7530   0.517   0.954   0.144
 1211SOL     OW 7531   1.868   2.050   0.891
 1211SOL    HW1 7532   1.966   2.041   0.872
 1211SOL    HW2 7533   1.839   2.144   0.876
 1212SOL     OW 7534   2.799   0.561   0.424
 1212SOL    HW1 7535   2.742   0.487   0.388
 1212SOL    HW2 7536   2.885   0.524   0.457
 1213SOL     OW 7537   0.968   2.103   4.312
 1213SOL    HW1 7538   0.973   2.120   4.214
 1213SOL    HW2 7539   0.929   2.013   4.328
 1214SOL     OW 7540   4.119   1.217   5.557
 1214SOL    HW1 7541   4.094   1.310   5.586
 1214SOL    HW2 7542   4.084   1.151   5.623
 1215SOL     OW 7543   0.957   0.411   1.329
 1215SOL    HW1 7544   0.977   0.328   1.381
 1215SOL    HW2 7545   0.878   0.457   1.369
 1216SOL     OW 7546   3.372   5.407   5.219
 1216SOL    HW1 7547   3.327   5.470   5.156
 1216SOL    HW2 7548   3.470   5.404   5.198
 1217SOL     OW 7549   3.582   0.583   1.100
 1217SOL    HW1 7550   3.502   0.641   1.091
 1217SOL    HW2 7551   3.618   0.591   1.193
 1218SOL     OW 7552   5.636   0.430   0.630
 1218SOL    HW1 7553   5.677   0.426   0.720
 1218SOL    HW2 7554   5.546   0.385   0.632
 1219SOL     OW 7555   5.477   3.440   5.482
 1219SOL    HW1 7556   5.565   3.394   5.485
 1219SOL    HW2 7557   5.411   3.383   5.433
 1220SOL     OW 7558   5.556   4.584   1.335
 1220SOL    HW1 7559   5.615   4.586   1.254
 1220SOL    HW2 7560   5.533   4.678   1.361
 1221SOL     OW 7561   3.598   1.857   5.459
 1221SOL    HW1 7562   3.664   1.865   5.534
 1221SOL    HW2 7563   3.507   1.884   5.492
 1222SOL     OW 7564   4.795   4.627   1.516
 1222SOL    HW1 7565   4.729   4.619   1.591
 1222SOL    HW2 7566   4.887   4.610   1.551
 1223SOL     OW 7567   3.907   2.185   5.941
 1223SOL    HW1 7568   3.846   2.261   5.965
 1223SOL    HW2 7569   3.853   2.101   5.930
 1224SOL     OW 7570   5.364   3.384   1.013
 1224SOL    HW1 7571   5.335   3.292   1.036
 1224SOL    HW2 7572   5.368   3.394   0.914
 1225SOL     OW 7573   3.931   2.087   4.712
 1225SOL    HW1 7574   3.909   2.065   4.616
 1225SOL    HW2 7575   3.919   2.005   4.767
 1226SOL     OW 7576   1.254   3.371   1.240
 1226SOL    HW1 7577   1.327   3.302   1.241
 1226SOL    HW2 7578   1.197   3.360   1.321
 1227SOL     OW 7579   1.516   1.402   4.892
 1227SOL    HW1 7580   1.592   1.467   4.886
 1227SOL    HW2 7581   1.547   1.311   4.865
 1228SOL     OW 7582   1.757   3.602   5.191
 1228SOL    HW1 7583   1.723   3.652   5.111
 1228SOL    HW2 7584   1.855   3.617   5.201
 1229SOL     OW 7585   1.031   3.302   5.833
 1229SOL    HW1 7586   1.033   3.361   5.753
 1229SOL    HW2 7587   0.957   3.331   5.894
 1230SOL     OW 7588   0.229   3.923   0.101
 1230SOL    HW1 7589   0.237   3.835   0.053
 1230SOL    HW2 7590   0.167   3.982   0.051
 1231SOL     OW 7591   1.801   1.269   1.355
 1231SOL    HW1 7592   1.750   1.331   1.416
 1231SOL    HW2 7593   1.869   1.321   1.304
 1232SOL     OW 7594   0.296   5.099   1.542
 1232SOL    HW1 7595   0.367   5.141   1.598
 1232SOL    HW2 7596   0.211   5.096   1.593
 1233SOL     OW 7597   5.213   3.059   5.485
 1233SOL    HW1 7598   5.241   3.031   5.577
 1233SOL    HW2 7599   5.126   3.015   5.462
 1234SOL     OW 7600   2.109   2.153   0.555
 1234SOL    HW1 7601   2.175   2.101   0.501
 1234SOL    HW2 7602   2.121   2.131   0.652
 1235SOL     OW 7603   2.836   5.508   1.175
 1235SOL    HW1 7604   2.761   5.443   1.179
 1235SOL    HW2 7605   2.868   5.528   1.268
 1236SOL     OW 7606   4.029   0.044   5.516
 1236SOL    HW1 7607   4.056   5.628   5.451
 1236SOL    HW2 7608   4.031   0.133   5.470
 1237SOL     OW 7609   2.251   0.644   0.751
 1237SOL    HW1 7610   2.177   0.711   0.750
 1237SOL    HW2 7611   2.299   0.645   0.664
 1238SOL     OW 7612   1.639   5.571   5.894
 1238SOL    HW1 7613   1.596   5.500   5.950
 1238SOL    HW2 7614   1.701   5.625   5.951
 1239SOL     OW 7615   1.036   5.618   5.511
 1239SOL    HW1 7616   1.078   5.585   5.596
 1239SOL    HW2 7617   1.104   5.620   5.438
 1240SOL     OW 7618   4.576   3.239   4.929
 1240SOL    HW1 7619   4.495   3.286   4.895
 1240SOL    HW2 7620   4.631   3.208   4.851
 1241SOL     OW 7621   3.980   1.019   5.400
 1241SOL    HW1 7622   4.044   1.089   5.435
 1241SOL    HW2 7623   3.982   1.019   5.300
 1242SOL     OW 7624   1.308   1.216   0.631
 1242SOL    HW1 7625   1.277   1.127   0.662
 1242SOL    HW2 7626   1.397   1.206   0.586
 1243SOL     OW 7627   2.226   3.218   0.885
 1243SOL    HW1 7628   2.200   3.174   0.799
 1243SOL    HW2 7629   2.165   3.187   0.958
 1244SOL     OW 7630   3.894   0.589   1.528
 1244SOL    HW1 7631   3.857   0.527   1.598
 1244SOL    HW2 7632   3.918   0.676   1.571
 1245SOL     OW 7633   0.598   3.986   1.543
 1245SOL    HW1 7634   0.665   3.998   1.470
 1245SOL    HW2 7635   0.555   3.897   1.535
 1246SOL     OW 7636   2.818   1.841   1.335
 1246SOL    HW1 7637   2.719   1.860   1.330
 1246SOL    HW2 7638   2.834   1.765   1.399
 1247SOL     OW 7639   0.302   1.525   0.623
 1247SOL    HW1 7640   0.312   1.536   0.524
 1247SOL    HW2 7641   0.388   1.546   0.668
 1248SOL     OW 7642   4.581   3.073   5.407
 1248SOL    HW1 7643   4.489   3.112   5.405
 1248SOL    HW2 7644   4.608   3.058   5.502
 1249SOL     OW 7645   4.434   1.492   0.769
 1249SOL    HW1 7646   4.351   1.531   0.808
 1249SOL    HW2 7647   4.411   1.411   0.715
 1250SOL     OW 7648   2.721   0.085   1.964
 1250SOL    HW1 7649   2.735   0.178   1.930
 1250SOL    HW2 7650   2.788   0.065   2.036
 1251SOL     OW 7651   0.623   5.292   6.012
 1251SOL    HW1 7652   0.661   5.251   5.929
 1251SOL    HW2 7653   0.626   5.391   6.005
 1252SOL     OW 7654   0.580   5.379   5.163
 1252SOL    HW1 7655   0.492   5.336   5.145
 1252SOL    HW2 7656   0.590   5.396   5.261
 1253SOL     OW 7657   2.425   1.962   5.312
 1253SOL    HW1 7658   2.470   1.951   5.401
 1253SOL    HW2 7659   2.327   1.946   5.321
 1254SOL     OW 7660   0.942   2.283   1.336
 1254SOL    HW1 7661   0.928   2.187   1.312
 1254SOL    HW2 7662   0.875   2.310   1.406
 1255SOL     OW 7663   0.236   0.258   5.710
 1255SOL    HW1 7664   0.237   0.189   5.783
 1255SOL    HW2 7665   0.248   0.213   5.622
 1256SOL     OW 7666   2.065   2.983   0.306
 1256SOL    HW1 7667   2.147   3.037   0.290
 1256SOL    HW2 7668   1.984   3.041   0.297
 1257SOL     OW 7669   1.216   4.880   0.806
 1257SOL    HW1 7670   1.267   4.933   0.738
 1257SOL    HW2 7671   1.276   4.811   0.847
 1258SOL     OW 7672   2.296   0.570   0.006
 1258SOL    HW1 7673   2.282   0.596   5.926
 1258SOL    HW2 7674   2.259   0.642   0.065
 1259SOL     OW 7675   0.918   2.876   0.085
 1259SOL    HW1 7676   0.923   2.778   0.103
 1259SOL    HW2 7677   0.913   2.926   0.171
 1260SOL     OW 7678   0.297   0.548   5.315
 1260SOL    HW1 7679   0.246   0.468   5.285
 1260SOL    HW2 7680   0.314   0.542   5.414
 1261SOL     OW 7681   2.970   1.970   5.216
 1261SOL    HW1 7682   2.920   1.987   5.301
 1261SOL    HW2 7683   2.909   1.984   5.138
 1262SOL     OW 7684   1.233   3.940   1.787
 1262SOL    HW1 7685   1.315   3.882   1.785
 1262SOL    HW2 7686   1.172   3.908   1.860
 1263SOL     OW 7687   2.589   3.463   5.450
 1263SOL    HW1 7688   2.537   3.484   5.367
 1263SOL    HW2 7689   2.590   3.364   5.464
 1264SOL     OW 7690   4.962   3.756   0.476
 1264SOL    HW1 7691   5.031   3.744   0.404
 1264SOL    HW2 7692   4.901   3.678   0.478
 1265SOL     OW 7693   0.238   5.101   0.721
 1265SOL    HW1 7694   0.226   5.091   0.820
 1265SOL    HW2 7695   0.331   5.076   0.696
 1266SOL     OW 7696   0.784   5.634   4.997
 1266SOL    HW1 7697   0.763   0.076   5.011
 1266SOL    HW2 7698   0.705   5.588   4.958
 1267SOL     OW 7699   5.331   4.491   5.620
 1267SOL    HW1 7700   5.413   4.548   5.620
 1267SOL    HW2 7701   5.252   4.547   5.591
 1268SOL     OW 7702   2.678   1.588   4.734
 1268SOL    HW1 7703   2.758   1.626   4.781
 1268SOL    HW2 7704   2.707   1.544   4.649
 1269SOL     OW 7705   1.051   2.267   0.188
 1269SOL    HW1 7706   1.139   2.283   0.145
 1269SOL    HW2 7707   1.033   2.338   0.255
 1270SOL     OW 7708   1.435   4.102   5.254
 1270SOL    HW1 7709   1.389   4.126   5.168
 1270SOL    HW2 7710   1.397   4.016   5.289
 1271SOL     OW 7711   5.430   3.519   5.094
 1271SOL    HW1 7712   5.379   3.584   5.040
 1271SOL    HW2 7713   5.515   3.561   5.127
 1272SOL     OW 7714   1.087   2.715   1.115
 1272SOL    HW1 7715   1.140   2.768   1.180
 1272SOL    HW2 7716   1.032   2.647   1.164
 1273SOL     OW 7717   0.565   1.623   1.131
 1273SOL    HW1 7718   0.630   1.631   1.207
 1273SOL    HW2 7719   0.486   1.571   1.161
 1274SOL     OW 7720   1.192   0.128   4.917
 1274SOL    HW1 7721   1.150   0.049   4.962
 1274SOL    HW2 7722   1.133   0.158   4.842
 1275SOL     OW 7723   0.234   4.030   1.125
 1275SOL    HW1 7724   0.201   4.124   1.119
 1275SOL    HW2 7725   0.327   4.030   1.160
 1276SOL     OW 7726   1.989   3.333   5.711
 1276SOL    HW1 7727   1.982   3.233   5.711
 1276SOL    HW2 7728   2.059   3.362   5.647
 1277SOL     OW 7729   3.148   4.893   1.416
 1277SOL    HW1 7730   3.154   4.899   1.515
 1277SOL    HW2 7731   3.064   4.937   1.385
 1278SOL     OW 7732   1.238   0.212   0.711
 1278SOL    HW1 7733   1.174   0.165   0.771
 1278SOL    HW2 7734   1.187   0.275   0.652
 1279SOL     OW 7735   2.059   3.310   0.463
 1279SOL    HW1 7736   1.987   3.261   0.414
 1279SOL    HW2 7737   2.119   3.355   0.396
 1280SOL     OW 7738   4.072   5.607   0.960
 1280SOL    HW1 7739   4.100   0.000   1.044
 1280SOL    HW2 7740   3.987   5.557   0.977
 1281SOL     OW 7741   3.332   1.200   5.559
 1281SOL    HW1 7742   3.388   1.120   5.579
 1281SOL    HW2 7743   3.378   1.256   5.490
 1282SOL     OW 7744   2.928   0.944   1.485
 1282SOL    HW1 7745   3.019   0.952   1.443
 1282SOL    HW2 7746   2.937   0.953   1.584
 1283SOL     OW 7747   2.834   2.708   4.317
 1283SOL    HW1 7748   2.902   2.636   4.303
 1283SOL    HW2 7749   2.748   2.681   4.274
 1284SOL     OW 7750   0.694   2.854   5.428
 1284SOL    HW1 7751   0.683   2.819   5.335
 1284SOL    HW2 7752   0.622   2.819   5.486
 1285SOL     OW 7753   0.539   3.720   1.227
 1285SOL    HW1 7754   0.553   3.728   1.326
 1285SOL    HW2 7755   0.463   3.656   1.210
 1286SOL     OW 7756   3.854   3.638   1.530
 1286SOL    HW1 7757   3.828   3.724   1.485
 1286SOL    HW2 7758   3.887   3.657   1.622
 1287SOL     OW 7759   1.832   0.301   5.459
 1287SOL    HW1 7760   1.752   0.241   5.455
 1287SOL    HW2 7761   1.818   0.370   5.530
 1288SOL     OW 7762   3.193   5.041   0.600
 1288SOL    HW1 7763   3.146   5.121   0.563
 1288SOL    HW2 7764   3.256   5.005   0.532
 1289SOL     OW 7765   2.945   4.346   5.065
 1289SOL    HW1 7766   2.922   4.249   5.061
 1289SOL    HW2 7767   3.036   4.360   5.025
 1290SOL     OW 7768   2.416   4.689   4.989
 1290SOL    HW1 7769   2.455   4.766   4.939
 1290SOL    HW2 7770   2.316   4.690   4.979
 1291SOL     OW 7771   4.687   0.748   4.987
 1291SOL    HW1 7772   4.638   0.800   4.917
 1291SOL    HW2 7773   4.622   0.713   5.054
 1292SOL     OW 7774   0.809   5.559   2.091
 1292SOL    HW1 7775   0.792   5.475   2.142
 1292SOL    HW2 7776   0.725   5.612   2.085
 1293SOL     OW 7777   2.671   3.340   5.948
 1293SOL    HW1 7778   2.650   3.385   5.861
 1293SOL    HW2 7779   2.682   3.408   0.004
 1294SOL     OW 7780   0.804   0.788   0.622
 1294SOL    HW1 7781   0.891   0.801   0.575
 1294SOL    HW2 7782   0.753   0.874   0.624
 1295SOL     OW 7783   4.339   0.643   5.984
 1295SOL    HW1 7784   4.396   0.689   5.916
 1295SOL    HW2 7785   4.358   0.545   5.984
 1296SOL     OW 7786   2.176   1.730   0.272
 1296SOL    HW1 7787   2.104   1.693   0.213
 1296SOL    HW2 7788   2.180   1.677   0.357
 1297SOL     OW 7789   1.365   0.907   0.976
 1297SOL    HW1 7790   1.363   0.807   0.980
 1297SOL    HW2 7791   1.452   0.940   1.013
 1298SOL     OW 7792   5.604   2.961   5.285
 1298SOL    HW1 7793   5.628   2.871   5.320
 1298SOL    HW2 7794   5.505   2.964   5.267
 1299SOL     OW 7795   3.339   1.870   4.566
 1299SOL    HW1 7796   3.307   1.884   4.472
 1299SOL    HW2 7797   3.302   1.943   4.625
 1300SOL     OW 7798   1.912   4.813   5.200
 1300SOL    HW1 7799   1.828   4.850   5.240
 1300SOL    HW2 7800   1.920   4.847   5.106
 1301SOL     OW 7801   3.040   1.313   0.847
 1301SOL    HW1 7802   3.092   1.397   0.865
 1301SOL    HW2 7803   2.990   1.323   0.761
 1302SOL     OW 7804   5.283   1.173   5.661
 1302SOL    HW1 7805   5.355   1.209   5.603
 1302SOL    HW2 7806   5.310   1.083   5.695
 1303SOL     OW 7807   2.026   0.779   1.043
 1303SOL    HW1 7808   2.119   0.755   1.068
 1303SOL    HW2 7809   1.962   0.729   1.102
 1304SOL     OW 7810   0.079   0.287   0.448
 1304SOL    HW1 7811   0.031   0.346   0.512
 1304SOL    HW2 7812   0.013   0.241   0.389
 1305SOL     OW 7813   1.312   1.945   1.052
 1305SOL    HW1 7814   1.288   1.872   1.116
 1305SOL    HW2 7815   1.323   1.907   0.960
 1306SOL     OW 7816   1.805   1.019   1.476
 1306SOL    HW1 7817   1.799   1.109   1.432
 1306SOL    HW2 7818   1.813   1.030   1.575
 1307SOL     OW 7819   0.042   5.535   1.357
 1307SOL    HW1 7820   5.666   5.484   1.327
 1307SOL    HW2 7821   0.025   5.633   1.344
 1308SOL     OW 7822   0.748   3.711   0.394
 1308SOL    HW1 7823   0.652   3.686   0.409
 1308SOL    HW2 7824   0.758   3.810   0.402
 1309SOL     OW 7825   0.484   4.404   0.163
 1309SOL    HW1 7826   0.453   4.499   0.153
 1309SOL    HW2 7827   0.568   4.402   0.217
 1310SOL     OW 7828   4.503   5.606   5.378
 1310SOL    HW1 7829   4.498   0.012   5.458
 1310SOL    HW2 7830   4.594   5.566   5.372
 1311SOL     OW 7831   3.860   0.551   0.198
 1311SOL    HW1 7832   3.779   0.530   0.143
 1311SOL    HW2 7833   3.895   0.641   0.173
 1312SOL     OW 7834   0.910   1.595   5.711
 1312SOL    HW1 7835   0.986   1.582   5.775
 1312SOL    HW2 7836   0.840   1.652   5.754
 1313SOL     OW 7837   1.685   3.370   1.215
 1313SOL    HW1 7838   1.669   3.434   1.140
 1313SOL    HW2 7839   1.605   3.310   1.225
 1314SOL     OW 7840   0.316   2.917   5.462
 1314SOL    HW1 7841   0.386   2.861   5.506
 1314SOL    HW2 7842   0.286   2.989   5.524
 1315SOL     OW 7843   3.828   3.336   0.037
 1315SOL    HW1 7844   3.897   3.281   6.005
 1315SOL    HW2 7845   3.861   3.430   0.048
 1316SOL     OW 7846   2.494   2.551   5.291
 1316SOL    HW1 7847   2.550   2.504   5.358
 1316SOL    HW2 7848   2.402   2.513   5.291
 1317SOL     OW 7849   3.779   5.465   4.862
 1317SOL    HW1 7850   3.681   5.463   4.879
 1317SOL    HW2 7851   3.796   5.512   4.775
 1318SOL     OW 7852   5.402   0.186   0.660
 1318SOL    HW1 7853   5.473   0.115   0.658
 1318SOL    HW2 7854   5.312   0.144   0.669
 1319SOL     OW 7855   1.028   0.137   0.880
 1319SOL    HW1 7856   0.940   0.184   0.868
 1319SOL    HW2 7857   1.011   0.039   0.894
 1320SOL     OW 7858   4.328   3.308   0.465
 1320SOL    HW1 7859   4.245   3.347   0.425
 1320SOL    HW2 7860   4.315   3.210   0.479
 1321SOL     OW 7861   2.265   2.974   5.697
 1321SOL    HW1 7862   2.326   2.919   5.640
 1321SOL    HW2 7863   2.302   3.066   5.707
 1322SOL     OW 7864   3.000   3.068   5.658
 1322SOL    HW1 7865   3.058   3.097   5.582
 1322SOL    HW2 7866   2.962   3.148   5.704
 1323SOL     OW 7867   1.182   5.507   5.711
 1323SOL    HW1 7868   1.270   5.482   5.672
 1323SOL    HW2 7869   1.168   5.459   5.797
 1324SOL     OW 7870   3.812   1.396   0.850
 1324SOL    HW1 7871   3.721   1.362   0.826
 1324SOL    HW2 7872   3.845   1.349   0.931
 1325SOL     OW 7873   1.194   1.669   0.108
 1325SOL    HW1 7874   1.217   1.765   0.125
 1325SOL    HW2 7875   1.276   1.613   0.116
 1326SOL     OW 7876   3.937   3.928   0.057
 1326SOL    HW1 7877   4.025   3.937   0.105
 1326SOL    HW2 7878   3.952   3.938   5.974
 1327SOL     OW 7879   1.156   0.605   5.279
 1327SOL    HW1 7880   1.225   0.638   5.215
 1327SOL    HW2 7881   1.193   0.603   5.371
 1328SOL     OW 7882   0.755   0.405   0.606
 1328SOL    HW1 7883   0.703   0.344   0.546
 1328SOL    HW2 7884   0.693   0.474   0.645
 1329SOL     OW 7885   1.319   0.711   5.087
 1329SOL    HW1 7886   1.374   0.792   5.068
 1329SOL    HW2 7887   1.355   0.633   5.037
 1330SOL     OW 7888   4.502   0.064   5.958
 1330SOL    HW1 7889   4.512   5.635   5.903
 1330SOL    HW2 7890   4.560   0.136   5.920
 1331SOL     OW 7891   5.088   3.839   5.689
 1331SOL    HW1 7892   4.991   3.860   5.685
 1331SOL    HW2 7893   5.115   3.788   5.607
 1332SOL     OW 7894   0.634   4.934   1.173
 1332SOL    HW1 7895   0.553   4.944   1.231
 1332SOL    HW2 7896   0.675   4.845   1.190
 1333SOL     OW 7897   1.624   4.325   1.546
 1333SOL    HW1 7898   1.708   4.281   1.516
 1333SOL    HW2 7899   1.576   4.266   1.611
 1334SOL     OW 7900   5.445   1.247   5.264
 1334SOL    HW1 7901   5.466   1.252   5.361
 1334SOL    HW2 7902   5.510   1.185   5.219
 1335SOL     OW 7903   0.998   1.779   1.223
 1335SOL    HW1 7904   0.969   1.758   1.129
 1335SOL    HW2 7905   1.095   1.761   1.233
 1336SOL     OW 7906   1.517   3.241   4.047
 1336SOL    HW1 7907   1.511   3.143   4.033
 1336SOL    HW2 7908   1.561   3.283   3.968
 1337SOL     OW 7909   0.093   4.509   0.615
 1337SOL    HW1 7910   0.060   4.479   0.525
 1337SOL    HW2 7911   0.015   4.538   0.671
 1338SOL     OW 7912   4.051   0.780   0.511
 1338SOL    HW1 7913   4.009   0.691   0.530
 1338SOL    HW2 7914   3.990   0.835   0.454
 1339SOL     OW 7915   2.481   1.458   0.571
 1339SOL    HW1 7916   2.476   1.540   0.628
 1339SOL    HW2 7917   2.399   1.403   0.584
 1340SOL     OW 7918   0.419   4.842   4.113
 1340SOL    HW1 7919   0.372   4.767   4.067
 1340SOL    HW2 7920   0.430   4.918   4.050
 1341SOL     OW 7921   0.291   3.314   1.615
 1341SOL    HW1 7922   0.302   3.218   1.644
 1341SOL    HW2 7923   0.196   3.331   1.592
 1342SOL     OW 7924   3.967   5.094   0.711
 1342SOL    HW1 7925   4.046   5.151   0.733
 1342SOL    HW2 7926   3.931   5.052   0.795
 1343SOL     OW 7927   0.845   3.105   5.758
 1343SOL    HW1 7928   0.850   3.088   5.659
 1343SOL    HW2 7929   0.920   3.166   5.784
 1344SOL     OW 7930   1.330   1.033   1.428
 1344SOL    HW1 7931   1.356   1.128   1.410
 1344SOL    HW2 7932   1.275   1.029   1.512
 1345SOL     OW 7933   2.145   4.697   4.982
 1345SOL    HW1 7934   2.098   4.644   5.052
 1345SOL    HW2 7935   2.083   4.767   4.947
 1346SOL     OW 7936   1.939   1.817   5.696
 1346SOL    HW1 7937   1.983   1.794   5.783
 1346SOL    HW2 7938   1.994   1.781   5.620
 1347SOL     OW 7939   1.066   4.516   0.604
 1347SOL    HW1 7940   1.138   4.447   0.597
 1347SOL    HW2 7941   1.070   4.558   0.695
 1348SOL     OW 7942   0.611   3.234   0.535
 1348SOL    HW1 7943   0.597   3.237   0.436
 1348SOL    HW2 7944   0.560   3.158   0.574
 1349SOL     OW 7945   1.481   4.398   5.556
 1349SOL    HW1 7946   1.472   4.381   5.458
 1349SOL    HW2 7947   1.492   4.496   5.572
 1350SOL     OW 7948   1.895   5.153   1.316
 1350SOL    HW1 7949   1.958   5.083   1.351
 1350SOL    HW2 7950   1.944   5.241   1.309
 1351SOL     OW 7951   1.862   4.579   0.493
 1351SOL    HW1 7952   1.766   4.598   0.473
 1351SOL    HW2 7953   1.878   4.481   0.492
 1352SOL     OW 7954   1.355   1.818   0.798
 1352SOL    HW1 7955   1.444   1.779   0.821
 1352SOL    HW2 7956   1.285   1.747   0.804
 1353SOL     OW 7957   3.540   2.124   0.349
 1353SOL    HW1 7958   3.481   2.046   0.371
 1353SOL    HW2 7959   3.551   2.181   0.430
 1354SOL     OW 7960   5.289   5.390   5.098
 1354SOL    HW1 7961   5.359   5.426   5.160
 1354SOL    HW2 7962   5.331   5.364   5.012
 1355SOL     OW 7963   4.790   2.640   0.910
 1355SOL    HW1 7964   4.770   2.555   0.958
 1355SOL    HW2 7965   4.885   2.638   0.879
 1356SOL     OW 7966   2.185   3.588   1.186
 1356SOL    HW1 7967   2.115   3.517   1.181
 1356SOL    HW2 7968   2.190   3.625   1.279
 1357SOL     OW 7969   4.350   3.411   0.715
 1357SOL    HW1 7970   4.264   3.387   0.759
 1357SOL    HW2 7971   4.351   3.376   0.621
 1358SOL     OW 7972   2.801   2.887   4.516
 1358SOL    HW1 7973   2.818   2.828   4.437
 1358SOL    HW2 7974   2.819   2.835   4.600
 1359SOL     OW 7975   4.747   0.311   1.156
 1359SOL    HW1 7976   4.660   0.360   1.162
 1359SOL    HW2 7977   4.796   0.320   1.243
 1360SOL     OW 7978   2.112   1.771   1.386
 1360SOL    HW1 7979   2.177   1.708   1.429
 1360SOL    HW2 7980   2.072   1.728   1.305
 1361SOL     OW 7981   4.596   5.476   0.277
 1361SOL    HW1 7982   4.497   5.492   0.278
 1361SOL    HW2 7983   4.621   5.423   0.358
 1362SOL     OW 7984   5.383   4.377   1.399
 1362SOL    HW1 7985   5.442   4.456   1.382
 1362SOL    HW2 7986   5.428   4.294   1.366
 1363SOL     OW 7987   5.509   4.962   0.481
 1363SOL    HW1 7988   5.442   5.036   0.474
 1363SOL    HW2 7989   5.574   4.982   0.554
 1364SOL     OW 7990   4.340   1.963   4.670
 1364SOL    HW1 7991   4.424   1.914   4.647
 1364SOL    HW2 7992   4.284   1.976   4.588
 1365SOL     OW 7993   4.733   0.755   0.453
 1365SOL    HW1 7994   4.684   0.728   0.371
 1365SOL    HW2 7995   4.812   0.812   0.428
 1366SOL     OW 7996   2.494   1.385   4.492
 1366SOL    HW1 7997   2.592   1.403   4.506
 1366SOL    HW2 7998   2.464   1.428   4.408
 1367SOL     OW 7999   2.096   2.415   0.477
 1367SOL    HW1 8000   2.188   2.448   0.494
 1367SOL    HW2 8001   2.090   2.317   0.498
 1368SOL     OW 8002   2.777   4.360   0.228
 1368SOL    HW1 8003   2.869   4.351   0.267
 1368SOL    HW2 8004   2.768   4.299   0.150
 1369SOL     OW 8005   2.747   3.658   1.431
 1369SOL    HW1 8006   2.676   3.602   1.475
 1369SOL    HW2 8007   2.779   3.727   1.495
 1370SOL     OW 8008   4.378   0.208   1.123
 1370SOL    HW1 8009   4.359   0.209   1.025
 1370SOL    HW2 8010   4.423   0.294   1.148
 1371SOL     OW 8011   4.167   5.165   5.495
 1371SOL    HW1 8012   4.218   5.247   5.470
 1371SOL    HW2 8013   4.073   5.188   5.516
 1372SOL     OW 8014   3.022   0.700   0.708
 1372SOL    HW1 8015   3.018   0.792   0.668
 1372SOL    HW2 8016   2.938   0.683   0.760
 1373SOL     OW 8017   5.406   1.734   5.691
 1373SOL    HW1 8018   5.323   1.762   5.740
 1373SOL    HW2 8019   5.390   1.737   5.593
 1374SOL     OW 8020   4.365   1.215   0.180
 1374SOL    HW1 8021   4.404   1.156   0.109
 1374SOL    HW2 8022   4.341   1.303   0.140
 1375SOL     OW 8023   5.191   5.231   1.511
 1375SOL    HW1 8024   5.208   5.243   1.609
 1375SOL    HW2 8025   5.248   5.157   1.476
 1376SOL     OW 8026   3.138   1.152   4.606
 1376SOL    HW1 8027   3.185   1.091   4.542
 1376SOL    HW2 8028   3.063   1.198   4.559
 1377SOL     OW 8029   4.236   3.682   1.229
 1377SOL    HW1 8030   4.188   3.767   1.208
 1377SOL    HW2 8031   4.266   3.684   1.324
 1378SOL     OW 8032   0.134   1.473   5.323
 1378SOL    HW1 8033   0.234   1.467   5.327
 1378SOL    HW2 8034   0.101   1.525   5.402
 1379SOL     OW 8035   0.523   4.486   0.611
 1379SOL    HW1 8036   0.481   4.401   0.581
 1379SOL    HW2 8037   0.621   4.483   0.590
 1380SOL     OW 8038   5.231   2.083   5.250
 1380SOL    HW1 8039   5.146   2.097   5.301
 1380SOL    HW2 8040   5.309   2.089   5.312
 1381SOL     OW 8041   0.961   5.494   1.374
 1381SOL    HW1 8042   1.053   5.457   1.392
 1381SOL    HW2 8043   0.968   5.574   1.315
 1382SOL     OW 8044   1.344   0.227   5.828
 1382SOL    HW1 8045   1.265   0.182   5.870
 1382SOL    HW2 8046   1.341   0.325   5.847
 1383SOL     OW 8047   5.617   0.650   0.450
 1383SOL    HW1 8048   5.641   0.575   0.512
 1383SOL    HW2 8049   5.661   0.734   0.482
 1384SOL     OW 8050   3.032   0.614   5.947
 1384SOL    HW1 8051   3.054   0.547   0.002
 1384SOL    HW2 8052   3.021   0.568   5.859
 1385SOL     OW 8053   1.869   4.213   1.489
 1385SOL    HW1 8054   1.879   4.162   1.574
 1385SOL    HW2 8055   1.911   4.303   1.500
 1386SOL     OW 8056   0.662   0.800   5.211
 1386SOL    HW1 8057   0.626   0.706   5.206
 1386SOL    HW2 8058   0.759   0.797   5.233
 1387SOL     OW 8059   4.889   3.781   5.284
 1387SOL    HW1 8060   4.954   3.847   5.320
 1387SOL    HW2 8061   4.796   3.819   5.286
 1388SOL     OW 8062   3.560   2.910   1.114
 1388SOL    HW1 8063   3.521   2.868   1.196
 1388SOL    HW2 8064   3.490   2.966   1.069
 1389SOL     OW 8065   3.020   3.304   0.075
 1389SOL    HW1 8066   3.055   3.213   0.053
 1389SOL    HW2 8067   2.978   3.302   0.166
 1390SOL     OW 8068   3.555   4.565   5.209
 1390SOL    HW1 8069   3.606   4.651   5.198
 1390SOL    HW2 8070   3.616   4.493   5.241
 1391SOL     OW 8071   3.353   2.789   5.976
 1391SOL    HW1 8072   3.326   2.869   0.013
 1391SOL    HW2 8073   3.451   2.793   5.957
 1392SOL     OW 8074   1.652   0.939   1.922
 1392SOL    HW1 8075   1.626   1.028   1.959
 1392SOL    HW2 8076   1.633   0.868   1.989
 1393SOL     OW 8077   1.142   3.988   1.369
 1393SOL    HW1 8078   1.101   3.905   1.407
 1393SOL    HW2 8079   1.074   4.034   1.311
 1394SOL     OW 8080   0.572   0.916   4.753
 1394SOL    HW1 8081   0.538   0.995   4.702
 1394SOL    HW2 8082   0.553   0.929   4.850
 1395SOL     OW 8083   3.762   2.107   0.681
 1395SOL    HW1 8084   3.801   2.181   0.736
 1395SOL    HW2 8085   3.756   2.024   0.735
 1396SOL     OW 8086   3.991   3.451   5.328
 1396SOL    HW1 8087   4.000   3.366   5.381
 1396SOL    HW2 8088   4.081   3.493   5.318
 1397SOL     OW 8089   4.982   2.340   5.234
 1397SOL    HW1 8090   4.917   2.342   5.158
 1397SOL    HW2 8091   5.069   2.381   5.205
 1398SOL     OW 8092   2.122   3.091   5.345
 1398SOL    HW1 8093   2.046   3.034   5.376
 1398SOL    HW2 8094   2.116   3.104   5.246
 1399SOL     OW 8095   1.227   0.965   0.744
 1399SOL    HW1 8096   1.279   0.956   0.830
 1399SOL    HW2 8097   1.238   0.882   0.690
 1400SOL     OW 8098   4.699   4.237   5.836
 1400SOL    HW1 8099   4.661   4.144   5.833
 1400SOL    HW2 8100   4.799   4.232   5.832
 1401SOL     OW 8101   0.347   3.795   4.767
 1401SOL    HW1 8102   0.384   3.737   4.694
 1401SOL    HW2 8103   0.247   3.784   4.771
 1402SOL     OW 8104   4.534   0.897   0.575
 1402SOL    HW1 8105   4.448   0.888   0.525
 1402SOL    HW2 8106   4.604   0.839   0.533
 1403SOL     OW 8107   2.917   0.140   0.395
 1403SOL    HW1 8108   2.922   0.210   0.324
 1403SOL    HW2 8109   2.847   0.165   0.462
 1404SOL     OW 8110   5.269   2.286   0.248
 1404SOL    HW1 8111   5.233   2.340   0.172
 1404SOL    HW2 8112   5.248   2.190   0.233
 1405SOL     OW 8113   3.284   3.418   0.474
 1405SOL    HW1 8114   3.369   3.463   0.501
 1405SOL    HW2 8115   3.279   3.328   0.519
 1406SOL     OW 8116   2.446   0.220   5.509
 1406SOL    HW1 8117   2.414   0.130   5.539
 1406SOL    HW2 8118   2.434   0.229   5.411
 1407SOL     OW 8119   1.183   5.174   0.266
 1407SOL    HW1 8120   1.089   5.178   0.300
 1407SOL    HW2 8121   1.209   5.263   0.229
 1408SOL     OW 8122   1.915   2.573   4.725
 1408SOL    HW1 8123   1.915   2.563   4.625
 1408SOL    HW2 8124   1.944   2.665   4.749
 1409SOL     OW 8125   3.657   0.923   0.411
 1409SOL    HW1 8126   3.724   0.984   0.453
 1409SOL    HW2 8127   3.565   0.960   0.426
 1410SOL     OW 8128   0.201   0.354   0.041
 1410SOL    HW1 8129   0.258   0.377   5.978
 1410SOL    HW2 8130   0.225   0.412   0.118
 1411SOL     OW 8131   1.222   2.531   5.703
 1411SOL    HW1 8132   1.161   2.608   5.683
 1411SOL    HW2 8133   1.232   2.474   5.621
 1412SOL     OW 8134   0.243   4.036   0.353
 1412SOL    HW1 8135   0.288   3.982   0.424
 1412SOL    HW2 8136   0.231   3.980   0.271
 1413SOL     OW 8137   3.367   3.057   0.993
 1413SOL    HW1 8138   3.407   3.101   0.913
 1413SOL    HW2 8139   3.285   3.107   1.021
 1414SOL     OW 8140   3.927   1.735   0.151
 1414SOL    HW1 8141   3.914   1.828   0.185
 1414SOL    HW2 8142   3.852   1.712   0.089
 1415SOL     OW 8143   3.545   4.455   0.638
 1415SOL    HW1 8144   3.634   4.472   0.596
 1415SOL    HW2 8145   3.517   4.534   0.692
 1416SOL     OW 8146   1.218   3.722   5.999
 1416SOL    HW1 8147   1.307   3.732   0.026
 1416SOL    HW2 8148   1.154   3.682   0.048
 1417SOL     OW 8149   4.786   2.106   4.776
 1417SOL    HW1 8150   4.856   2.177   4.765
 1417SOL    HW2 8151   4.711   2.124   4.714
 1418SOL     OW 8152   4.947   4.145   1.940
 1418SOL    HW1 8153   5.020   4.113   2.001
 1418SOL    HW2 8154   4.892   4.067   1.909
 1419SOL     OW 8155   4.974   3.096   1.254
 1419SOL    HW1 8156   5.062   3.094   1.300
 1419SOL    HW2 8157   4.906   3.143   1.311
 1420SOL     OW 8158   5.563   2.121   1.399
 1420SOL    HW1 8159   5.634   2.065   1.441
 1420SOL    HW2 8160   5.486   2.131   1.462
 1421SOL     OW 8161   2.636   3.353   0.322
 1421SOL    HW1 8162   2.638   3.420   0.248
 1421SOL    HW2 8163   2.587   3.392   0.401
 1422SOL     OW 8164   4.675   1.592   4.344
 1422SOL    HW1 8165   4.673   1.690   4.320
 1422SOL    HW2 8166   4.582   1.556   4.340
 1423SOL     OW 8167   3.341   4.204   5.869
 1423SOL    HW1 8168   3.290   4.151   5.802
 1423SOL    HW2 8169   3.324   4.167   5.961
 1424SOL     OW 8170   5.453   5.518   5.288
 1424SOL    HW1 8171   5.430   5.537   5.383
 1424SOL    HW2 8172   5.471   5.604   5.240
 1425SOL     OW 8173   4.818   5.306   5.840
 1425SOL    HW1 8174   4.888   5.234   5.844
 1425SOL    HW2 8175   4.793   5.333   5.933
 1426SOL     OW 8176   2.803   0.273   5.950
 1426SOL    HW1 8177   2.761   0.336   5.884
 1426SOL    HW2 8178   2.742   0.195   5.965
 1427SOL     OW 8179   3.290   5.259   5.755
 1427SOL    HW1 8180   3.309   5.340   5.699
 1427SOL    HW2 8181   3.374   5.226   5.796
 1428SOL     OW 8182   2.089   0.060   0.274
 1428SOL    HW1 8183   2.161   0.000   0.307
 1428SOL    HW2 8184   2.079   0.050   0.175
 1429SOL     OW 8185   1.510   3.345   5.161
 1429SOL    HW1 8186   1.537   3.298   5.245
 1429SOL    HW2 8187   1.434   3.407   5.181
 1430SOL     OW 8188   5.167   5.392   0.139
 1430SOL    HW1 8189   5.255   5.349   0.162
 1430SOL    HW2 8190   5.169   5.423   0.044
 1431SOL     OW 8191   0.750   0.533   1.450
 1431SOL    HW1 8192   0.688   0.488   1.513
 1431SOL    HW2 8193   0.737   0.632   1.455
 1432SOL     OW 8194   0.059   1.450   0.717
 1432SOL    HW1 8195   0.149   1.483   0.689
 1432SOL    HW2 8196   0.018   1.396   0.643
 1433SOL     OW 8197   1.816   0.292   4.602
 1433SOL    HW1 8198   1.903   0.284   4.553
 1433SOL    HW2 8199   1.815   0.376   4.656
 1434SOL     OW 8200   1.800   4.244   4.540
 1434SOL    HW1 8201   1.894   4.273   4.522
 1434SOL    HW2 8202   1.787   4.151   4.507
 1435SOL     OW 8203   3.034   4.327   0.343
 1435SOL    HW1 8204   3.058   4.399   0.408
 1435SOL    HW2 8205   3.107   4.258   0.343
 1436SOL     OW 8206   5.047   3.954   0.965
 1436SOL    HW1 8207   5.019   3.916   0.877
 1436SOL    HW2 8208   4.988   3.919   1.038
 1437SOL     OW 8209   2.625   0.534   5.030
 1437SOL    HW1 8210   2.641   0.564   5.124
 1437SOL    HW2 8211   2.680   0.453   5.011
 1438SOL     OW 8212   0.617   3.708   5.263
 1438SOL    HW1 8213   0.635   3.627   5.207
 1438SOL    HW2 8214   0.532   3.695   5.315
 1439SOL     OW 8215   0.643   1.220   0.021
 1439SOL    HW1 8216   0.695   1.306   0.022
 1439SOL    HW2 8217   0.547   1.239   0.001
 1440SOL     OW 8218   0.315   5.295   5.125
 1440SOL    HW1 8219   0.264   5.222   5.168
 1440SOL    HW2 8220   0.282   5.384   5.158
 1441SOL     OW 8221   1.964   3.813   1.743
 1441SOL    HW1 8222   1.938   3.725   1.704
 1441SOL    HW2 8223   1.925   3.823   1.834
 1442SOL     OW 8224   2.091   1.047   1.031
 1442SOL    HW1 8225   2.190   1.040   1.048
 1442SOL    HW2 8226   2.052   0.955   1.028
 1443SOL     OW 8227   5.592   0.596   1.409
 1443SOL    HW1 8228   5.526   0.622   1.480
 1443SOL    HW2 8229   5.588   0.663   1.334
 1444SOL     OW 8230   2.332   0.346   1.077
 1444SOL    HW1 8231   2.291   0.397   1.153
 1444SOL    HW2 8232   2.380   0.409   1.017
 1445SOL     OW 8233   0.411   0.844   0.059
 1445SOL    HW1 8234   0.473   0.841   5.996
 1445SOL    HW2 8235   0.398   0.752   0.095
 1446SOL     OW 8236   3.142   2.337   5.669
 1446SOL    HW1 8237   3.124   2.250   5.622
 1446SOL    HW2 8238   3.192   2.319   5.754
 1447SOL     OW 8239   2.991   5.586   5.830
 1447SOL    HW1 8240   2.899   5.605   5.796
 1447SOL    HW2 8241   3.036   0.017   5.855
 1448SOL     OW 8242   4.223   3.216   5.672
 1448SOL    HW1 8243   4.321   3.211   5.691
 1448SOL    HW2 8244   4.188   3.305   5.703
 1449SOL     OW 8245   2.806   2.493   0.566
 1449SOL    HW1 8246   2.899   2.464   0.542
 1449SOL    HW2 8247   2.777   2.567   0.506
 1450SOL     OW 8248   5.178   1.848   5.790
 1450SOL    HW1 8249   5.092   1.829   5.742
 1450SOL    HW2 8250   5.214   1.937   5.760
 1451SOL     OW 8251   0.728   1.640   0.545
 1451SOL    HW1 8252   0.670   1.598   0.615
 1451SOL    HW2 8253   0.688   1.624   0.455
 1452SOL     OW 8254   1.129   2.570   4.856
 1452SOL    HW1 8255   1.137   2.582   4.758
 1452SOL    HW2 8256   1.047   2.516   4.877
 1453SOL     OW 8257   5.355   2.334   5.724
 1453SOL    HW1 8258   5.337   2.429   5.697
 1453SOL    HW2 8259   5.418   2.333   5.802
 1454SOL     OW 8260   3.108   1.007   5.857
 1454SOL    HW1 8261   3.115   0.952   5.773
 1454SOL    HW2 8262   3.141   1.099   5.839
 1455SOL     OW 8263   0.598   5.057   5.600
 1455SOL    HW1 8264   0.568   5.083   5.508
 1455SOL    HW2 8265   0.616   4.959   5.602
 1456SOL     OW 8266   4.360   3.163   1.363
 1456SOL    HW1 8267   4.326   3.159   1.269
 1456SOL    HW2 8268   4.371   3.259   1.390
 1457SOL     OW 8269   3.331   3.207   5.823
 1457SOL    HW1 8270   3.410   3.147   5.830
 1457SOL    HW2 8271   3.325   3.243   5.730
 1458SOL     OW 8272   2.333   4.831   5.807
 1458SOL    HW1 8273   2.373   4.876   5.727
 1458SOL    HW2 8274   2.353   4.733   5.804
 1459SOL     OW 8275   4.723   2.869   5.292
 1459SOL    HW1 8276   4.681   2.950   5.332
 1459SOL    HW2 8277   4.652   2.800   5.273
 1460SOL     OW 8278   5.020   0.492   5.195
 1460SOL    HW1 8279   4.922   0.496   5.177
 1460SOL    HW2 8280   5.067   0.563   5.143
 1461SOL     OW 8281   1.640   4.856   0.647
 1461SOL    HW1 8282   1.688   4.930   0.599
 1461SOL    HW2 8283   1.703   4.811   0.710
 1462SOL     OW 8284   4.288   4.611   5.167
 1462SOL    HW1 8285   4.306   4.639   5.261
 1462SOL    HW2 8286   4.372   4.620   5.113
 1463SOL     OW 8287   1.401   2.178   5.053
 1463SOL    HW1 8288   1.302   2.174   5.062
 1463SOL    HW2 8289   1.426   2.170   4.957
 1464SOL     OW 8290   4.782   3.133   1.681
 1464SOL    HW1 8291   4.790   3.036   1.702
 1464SOL    HW2 8292   4.742   3.181   1.759
 1465SOL     OW 8293   0.884   3.038   5.493
 1465SOL    HW1 8294   0.816   2.967   5.475
 1465SOL    HW2 8295   0.912   3.081   5.407
 1466SOL     OW 8296   2.177   1.099   0.454
 1466SOL    HW1 8297   2.098   1.039   0.473
 1466SOL    HW2 8298   2.260   1.056   0.488
 1467SOL     OW 8299   3.342   3.779   1.436
 1467SOL    HW1 8300   3.295   3.833   1.506
 1467SOL    HW2 8301   3.284   3.704   1.406
 1468SOL     OW 8302   3.999   4.944   0.482
 1468SOL    HW1 8303   3.907   4.921   0.451
 1468SOL    HW2 8304   3.993   4.995   0.568
 1469SOL     OW 8305   5.241   3.637   0.990
 1469SOL    HW1 8306   5.152   3.628   0.946
 1469SOL    HW2 8307   5.275   3.546   1.016
 1470SOL     OW 8308   1.738   3.996   4.449
 1470SOL    HW1 8309   1.711   3.970   4.357
 1470SOL    HW2 8310   1.698   3.933   4.516
 1471SOL     OW 8311   1.098   5.458   0.564
 1471SOL    HW1 8312   1.007   5.417   0.556
 1471SOL    HW2 8313   1.141   5.427   0.649
 1472SOL     OW 8314   2.601   1.824   5.035
 1472SOL    HW1 8315   2.591   1.730   5.002
 1472SOL    HW2 8316   2.617   1.823   5.133
 1473SOL     OW 8317   2.603   4.542   0.509
 1473SOL    HW1 8318   2.615   4.592   0.423
 1473SOL    HW2 8319   2.542   4.593   0.569
 1474SOL     OW 8320   3.753   2.309   5.601
 1474SOL    HW1 8321   3.758   2.403   5.567
 1474SOL    HW2 8322   3.670   2.298   5.654
 1475SOL     OW 8323   3.383   3.092   0.211
 1475SOL    HW1 8324   3.403   3.190   0.205
 1475SOL    HW2 8325   3.465   3.043   0.240
 1476SOL     OW 8326   4.322   4.141   5.070
 1476SOL    HW1 8327   4.334   4.072   4.999
 1476SOL    HW2 8328   4.224   4.152   5.090
 1477SOL     OW 8329   1.345   4.314   4.783
 1477SOL    HW1 8330   1.392   4.401   4.797
 1477SOL    HW2 8331   1.331   4.300   4.685
 1478SOL     OW 8332   2.570   4.727   1.841
 1478SOL    HW1 8333   2.665   4.755   1.852
 1478SOL    HW2 8334   2.542   4.673   1.921
 1479SOL     OW 8335   4.085   1.038   0.140
 1479SOL    HW1 8336   4.101   1.130   0.104
 1479SOL    HW2 8337   4.171   0.987   0.141
 1480SOL     OW 8338   3.907   0.770   5.062
 1480SOL    HW1 8339   3.972   0.701   5.093
 1480SOL    HW2 8340   3.817   0.728   5.050
 1481SOL     OW 8341   3.175   5.487   5.402
 1481SOL    HW1 8342   3.235   5.458   5.328
 1481SOL    HW2 8343   3.089   5.436   5.398
 1482SOL     OW 8344   0.722   0.628   0.150
 1482SOL    HW1 8345   0.732   0.619   0.249
 1482SOL    HW2 8346   0.782   0.701   0.117
 1483SOL     OW 8347   3.446   0.739   0.678
 1483SOL    HW1 8348   3.521   0.701   0.623
 1483SOL    HW2 8349   3.483   0.802   0.745
 1484SOL     OW 8350   4.515   3.066   5.131
 1484SOL    HW1 8351   4.540   3.137   5.066
 1484SOL    HW2 8352   4.556   3.087   5.220
 1485SOL     OW 8353   5.261   2.083   5.668
 1485SOL    HW1 8354   5.304   2.063   5.580
 1485SOL    HW2 8355   5.302   2.166   5.707
 1486SOL     OW 8356   3.452   1.645   5.294
 1486SOL    HW1 8357   3.444   1.655   5.195
 1486SOL    HW2 8358   3.524   1.705   5.329
 1487SOL     OW 8359   2.011   2.870   0.548
 1487SOL    HW1 8360   2.089   2.813   0.572
 1487SOL    HW2 8361   2.025   2.911   0.457
 1488SOL     OW 8362   4.010   2.293   1.068
 1488SOL    HW1 8363   3.946   2.278   0.993
 1488SOL    HW2 8364   3.974   2.252   1.152
 1489SOL     OW 8365   5.470   2.313   5.228
 1489SOL    HW1 8366   5.552   2.369   5.237
 1489SOL    HW2 8367   5.432   2.324   5.136
 1490SOL     OW 8368   3.947   0.408   5.836
 1490SOL    HW1 8369   3.908   0.354   5.910
 1490SOL    HW2 8370   3.993   0.489   5.873
 1491SOL     OW 8371   5.685   2.061   5.623
 1491SOL    HW1 8372   0.064   2.006   5.615
 1491SOL    HW2 8373   0.002   2.148   5.666
 1492SOL     OW 8374   4.230   1.671   0.401
 1492SOL    HW1 8375   4.326   1.684   0.426
 1492SOL    HW2 8376   4.171   1.702   0.475
 1493SOL     OW 8377   0.162   4.538   5.882
 1493SOL    HW1 8378   0.157   4.582   5.971
 1493SOL    HW2 8379   0.149   4.607   5.810
 1494SOL     OW 8380   0.713   2.437   5.459
 1494SOL    HW1 8381   0.803   2.482   5.466
 1494SOL    HW2 8382   0.653   2.472   5.531
 1495SOL     OW 8383   0.075   2.441   1.085
 1495SOL    HW1 8384   0.024   2.480   1.008
 1495SOL    HW2 8385   0.023   2.364   1.123
 1496SOL     OW 8386   2.297   0.188   5.989
 1496SOL    HW1 8387   2.341   0.244   0.043
 1496SOL    HW2 8388   2.346   0.102   5.978
 1497SOL     OW 8389   5.444   2.278   0.493
 1497SOL    HW1 8390   5.373   2.264   0.425
 1497SOL    HW2 8391   5.445   2.201   0.558
 1498SOL     OW 8392   3.536   5.606   0.987
 1498SOL    HW1 8393   3.454   5.640   0.942
 1498SOL    HW2 8394   3.586   0.029   1.027
 1499SOL     OW 8395   3.574   2.863   0.733
 1499SOL    HW1 8396   3.505   2.793   0.716
 1499SOL    HW2 8397   3.662   2.819   0.749
 1500SOL     OW 8398   1.857   5.522   5.271
 1500SOL    HW1 8399   1.906   5.584   5.333
 1500SOL    HW2 8400   1.819   5.574   5.195
 1501SOL     OW 8401   4.009   1.512   1.301
 1501SOL    HW1 8402   4.069   1.446   1.347
 1501SOL    HW2 8403   3.929   1.530   1.359
 1502SOL     OW 8404   3.207   2.765   5.743
 1502SOL    HW1 8405   3.124   2.811   5.775
 1502SOL    HW2 8406   3.276   2.766   5.816
 1503SOL     OW 8407   0.373   2.018   0.140
 1503SOL    HW1 8408   0.361   2.097   0.201
 1503SOL    HW2 8409   0.372   1.934   0.194
 1504SOL     OW 8410   0.584   5.299   4.383
 1504SOL    HW1 8411   0.643   5.353   4.324
 1504SOL    HW2 8412   0.527   5.238   4.327
 1505SOL     OW 8413   0.976   4.891   5.923
 1505SOL    HW1 8414   0.904   4.860   5.985
 1505SOL    HW2 8415   1.065   4.861   5.958
 1506SOL     OW 8416   0.139   1.234   5.620
 1506SOL    HW1 8417   0.073   1.171   5.661
 1506SOL    HW2 8418   0.123   1.240   5.521
 1507SOL     OW 8419   1.386   4.507   3.967
 1507SOL    HW1 8420   1.291   4.523   3.941
 1507SOL    HW2 8421   1.410   4.412   3.948
 1508SOL     OW 8422   4.490   0.340   4.905
 1508SOL    HW1 8423   4.466   0.425   4.858
 1508SOL    HW2 8424   4.588   0.339   4.924
 1509SOL     OW 8425   3.725   0.162   0.731
 1509SOL    HW1 8426   3.738   0.068   0.762
 1509SOL    HW2 8427   3.733   0.165   0.631
 1510SOL     OW 8428   2.437   2.549   0.802
 1510SOL    HW1 8429   2.405   2.534   0.708
 1510SOL    HW2 8430   2.528   2.509   0.813
 1511SOL     OW 8431   5.363   5.088   0.896
 1511SOL    HW1 8432   5.445   5.143   0.880
 1511SOL    HW2 8433   5.289   5.119   0.836
 1512SOL     OW 8434   0.127   4.716   5.680
 1512SOL    HW1 8435   0.201   4.754   5.625
 1512SOL    HW2 8436   0.060   4.788   5.701
 1513SOL     OW 8437   1.100   3.369   5.062
 1513SOL    HW1 8438   1.176   3.412   5.112
 1513SOL    HW2 8439   1.113   3.270   5.062
 1514SOL     OW 8440   3.160   2.431   1.216
 1514SOL    HW1 8441   3.178   2.413   1.312
 1514SOL    HW2 8442   3.176   2.528   1.197
 1515SOL     OW 8443   1.692   1.458   4.016
 1515SOL    HW1 8444   1.705   1.431   3.921
 1515SOL    HW2 8445   1.659   1.379   4.068
 1516SOL     OW 8446   3.957   3.488   1.328
 1516SOL    HW1 8447   3.883   3.487   1.261
 1516SOL    HW2 8448   3.932   3.549   1.404
 1517SOL     OW 8449   1.867   3.176   0.313
 1517SOL    HW1 8450   1.857   3.218   0.223
 1517SOL    HW2 8451   1.780   3.181   0.362
 1518SOL     OW 8452   4.004   0.118   4.719
 1518SOL    HW1 8453   4.058   0.159   4.645
 1518SOL    HW2 8454   3.943   0.048   4.682
 1519SOL     OW 8455   2.939   4.968   5.696
 1519SOL    HW1 8456   2.920   4.887   5.640
 1519SOL    HW2 8457   3.037   4.974   5.713
 1520SOL     OW 8458   4.698   1.209   0.108
 1520SOL    HW1 8459   4.636   1.141   0.070
 1520SOL    HW2 8460   4.665   1.238   0.197
 1521SOL     OW 8461   1.772   4.589   5.452
 1521SOL    HW1 8462   1.855   4.644   5.455
 1521SOL    HW2 8463   1.746   4.562   5.544
 1522SOL     OW 8464   1.470   0.920   5.022
 1522SOL    HW1 8465   1.514   0.912   4.933
 1522SOL    HW2 8466   1.518   0.989   5.077
 1523SOL     OW 8467   3.919   5.412   5.186
 1523SOL    HW1 8468   3.959   5.404   5.094
 1523SOL    HW2 8469   3.984   5.455   5.247
 1524SOL     OW 8470   1.149   5.121   5.619
 1524SOL    HW1 8471   1.100   5.132   5.705
 1524SOL    HW2 8472   1.113   5.185   5.551
 1525SOL     OW 8473   4.307   2.423   4.671
 1525SOL    HW1 8474   4.339   2.345   4.725
 1525SOL    HW2 8475   4.342   2.416   4.578
 1526SOL     OW 8476   0.941   1.715   0.964
 1526SOL    HW1 8477   0.877   1.639   0.973
 1526SOL    HW2 8478   0.897   1.791   0.917
 1527SOL     OW 8479   1.549   0.640   4.472
 1527SOL    HW1 8480   1.583   0.551   4.441
 1527SOL    HW2 8481   1.462   0.660   4.426
 1528SOL     OW 8482   3.161   3.654   5.235
 1528SOL    HW1 8483   3.230   3.594   5.195
 1528SOL    HW2 8484   3.204   3.716   5.301
 1529SOL     OW 8485   2.146   4.177   0.857
 1529SOL    HW1 8486   2.069   4.135   0.905
 1529SOL    HW2 8487   2.163   4.129   0.771
 1530SOL     OW 8488   1.147   4.136   0.721
 1530SOL    HW1 8489   1.199   4.197   0.661
 1530SOL    HW2 8490   1.194   4.049   0.729
 1531SOL     OW 8491   1.879   2.084   0.419
 1531SOL    HW1 8492   1.897   2.084   0.321
 1531SOL    HW2 8493   1.960   2.118   0.467
 1532SOL     OW 8494   4.570   0.499   0.765
 1532SOL    HW1 8495   4.576   0.401   0.784
 1532SOL    HW2 8496   4.480   0.521   0.728
 1533SOL     OW 8497   1.254   3.934   0.498
 1533SOL    HW1 8498   1.319   3.947   0.424
 1533SOL    HW2 8499   1.176   3.995   0.486
 1534SOL     OW 8500   3.295   4.020   0.688
 1534SOL    HW1 8501   3.331   4.112   0.704
 1534SOL    HW2 8502   3.212   4.026   0.633
 1535SOL     OW 8503   1.863   1.257   5.832
 1535SOL    HW1 8504   1.800   1.206   5.891
 1535SOL    HW2 8505   1.867   1.352   5.864
 1536SOL     OW 8506   1.616   3.303   0.869
 1536SOL    HW1 8507   1.613   3.391   0.917
 1536SOL    HW2 8508   1.551   3.304   0.793
 1537SOL     OW 8509   4.093   2.250   0.715
 1537SOL    HW1 8510   4.147   2.243   0.631
 1537SOL    HW2 8511   4.124   2.181   0.780
 1538SOL     OW 8512   1.710   2.807   0.202
 1538SOL    HW1 8513   1.652   2.885   0.223
 1538SOL    HW2 8514   1.746   2.768   0.287
 1539SOL     OW 8515   2.170   4.067   0.608
 1539SOL    HW1 8516   2.233   3.992   0.588
 1539SOL    HW2 8517   2.079   4.043   0.575
 1540SOL     OW 8518   2.613   4.783   1.105
 1540SOL    HW1 8519   2.651   4.746   1.020
 1540SOL    HW2 8520   2.514   4.796   1.095
 1541SOL     OW 8521   1.480   4.158   1.714
 1541SOL    HW1 8522   1.446   4.213   1.790
 1541SOL    HW2 8523   1.406   4.137   1.651
 1542SOL     OW 8524   5.053   1.763   5.106
 1542SOL    HW1 8525   5.132   1.743   5.048
 1542SOL    HW2 8526   4.989   1.822   5.056
 1543SOL     OW 8527   4.738   1.131   5.010
 1543SOL    HW1 8528   4.815   1.195   5.010
 1543SOL    HW2 8529   4.760   1.051   5.066
 1544SOL     OW 8530   0.328   0.202   1.119
 1544SOL    HW1 8531   0.345   0.279   1.057
 1544SOL    HW2 8532   0.282   0.129   1.069
 1545SOL     OW 8533   1.336   5.482   0.986
 1545SOL    HW1 8534   1.298   5.561   1.034
 1545SOL    HW2 8535   1.379   5.421   1.053
 1546SOL     OW 8536   5.618   2.693   5.391
 1546SOL    HW1 8537   5.641   2.606   5.347
 1546SOL    HW2 8538   5.519   2.696   5.409
 1547SOL     OW 8539   4.714   3.151   4.714
 1547SOL    HW1 8540   4.808   3.175   4.737
 1547SOL    HW2 8541   4.705   3.145   4.614
 1548SOL     OW 8542   4.192   2.529   5.104
 1548SOL    HW1 8543   4.290   2.515   5.092
 1548SOL    HW2 8544   4.169   2.519   5.201
 1549SOL     OW 8545   2.942   4.422   1.303
 1549SOL    HW1 8546   2.897   4.509   1.284
 1549SOL    HW2 8547   2.984   4.426   1.394
 1550SOL     OW 8548   2.420   5.386   2.003
 1550SOL    HW1 8549   2.516   5.363   2.015
 1550SOL    HW2 8550   2.373   5.381   2.092
 1551SOL     OW 8551   0.496   0.876   1.178
 1551SOL    HW1 8552   0.572   0.819   1.146
 1551SOL    HW2 8553   0.418   0.817   1.199
 1552SOL     OW 8554   3.618   0.878   4.774
 1552SOL    HW1 8555   3.635   0.839   4.684
 1552SOL    HW2 8556   3.544   0.827   4.819
 1553SOL     OW 8557   5.412   3.501   5.739
 1553SOL    HW1 8558   5.368   3.420   5.778
 1553SOL    HW2 8559   5.428   3.485   5.641
 1554SOL     OW 8560   5.028   1.453   5.956
 1554SOL    HW1 8561   4.981   1.436   5.869
 1554SOL    HW2 8562   4.961   1.475   0.011
 1555SOL     OW 8563   5.678   3.408   4.653
 1555SOL    HW1 8564   0.071   3.417   4.671
 1555SOL    HW2 8565   5.628   3.478   4.703
 1556SOL     OW 8566   5.320   4.232   4.967
 1556SOL    HW1 8567   5.236   4.185   4.938
 1556SOL    HW2 8568   5.313   4.254   5.064
 1557SOL     OW 8569   0.431   3.448   5.935
 1557SOL    HW1 8570   0.499   3.439   5.863
 1557SOL    HW2 8571   0.478   3.457   0.008
 1558SOL     OW 8572   0.336   0.302   2.104
 1558SOL    HW1 8573   0.365   0.236   2.173
 1558SOL    HW2 8574   0.280   0.255   2.035
 1559SOL     OW 8575   1.795   4.742   1.182
 1559SOL    HW1 8576   1.767   4.837   1.171
 1559SOL    HW2 8577   1.864   4.720   1.113
 1560SOL     OW 8578   0.802   2.903   1.208
 1560SOL    HW1 8579   0.895   2.925   1.237
 1560SOL    HW2 8580   0.777   2.813   1.244
 1561SOL     OW 8581   2.670   5.249   0.239
 1561SOL    HW1 8582   2.594   5.301   0.199
 1561SOL    HW2 8583   2.754   5.303   0.232
 1562SOL     OW 8584   3.802   0.412   1.714
 1562SOL    HW1 8585   3.708   0.386   1.736
 1562SOL    HW2 8586   3.852   0.430   1.799
 1563SOL     OW 8587   1.290   4.064   5.695
 1563SOL    HW1 8588   1.361   4.131   5.717
 1563SOL    HW2 8589   1.234   4.046   5.775
 1564SOL     OW 8590   2.406   3.121   0.509
 1564SOL    HW1 8591   2.483   3.161   0.560
 1564SOL    HW2 8592   2.324   3.123   0.566
 1565SOL     OW 8593   1.318   2.684   1.807
 1565SOL    HW1 8594   1.362   2.604   1.848
 1565SOL    HW2 8595   1.221   2.664   1.791
 1566SOL     OW 8596   1.888   0.450   0.245
 1566SOL    HW1 8597   1.935   0.446   0.157
 1566SOL    HW2 8598   1.883   0.545   0.277
 1567SOL     OW 8599   2.066   0.451   0.822
 1567SOL    HW1 8600   2.129   0.525   0.796
 1567SOL    HW2 8601   2.118   0.367   0.838
 1568SOL     OW 8602   4.573   1.959   0.307
 1568SOL    HW1 8603   4.661   1.922   0.279
 1568SOL    HW2 8604   4.570   2.057   0.286
 1569SOL     OW 8605   4.585   4.276   0.151
 1569SOL    HW1 8606   4.671   4.327   0.158
 1569SOL    HW2 8607   4.540   4.299   0.065
 1570SOL     OW 8608   1.911   4.020   0.514
 1570SOL    HW1 8609   1.920   4.005   0.415
 1570SOL    HW2 8610   1.844   3.956   0.552
 1571SOL     OW 8611   1.890   1.695   2.041
 1571SOL    HW1 8612   1.803   1.729   2.077
 1571SOL    HW2 8613   1.951   1.773   2.024
 1572SOL     OW 8614   4.023   4.595   5.208
 1572SOL    HW1 8615   3.986   4.686   5.187
 1572SOL    HW2 8616   4.122   4.595   5.191
 1573SOL     OW 8617   5.555   3.542   1.128
 1573SOL    HW1 8618   5.587   3.519   1.220
 1573SOL    HW2 8619   5.482   3.481   1.101
 1574SOL     OW 8620   2.270   1.370   1.664
 1574SOL    HW1 8621   2.254   1.388   1.761
 1574SOL    HW2 8622   2.341   1.300   1.655
 1575SOL     OW 8623   0.343   3.899   0.587
 1575SOL    HW1 8624   0.425   3.884   0.643
 1575SOL    HW2 8625   0.270   3.936   0.643
 1576SOL     OW 8626   1.597   4.651   0.468
 1576SOL    HW1 8627   1.559   4.691   0.384
 1576SOL    HW2 8628   1.601   4.721   0.539
 1577SOL     OW 8629   5.402   5.271   0.223
 1577SOL    HW1 8630   5.432   5.203   0.155
 1577SOL    HW2 8631   5.474   5.339   0.235
 1578SOL     OW 8632   4.108   3.362   0.832
 1578SOL    HW1 8633   4.100   3.264   0.848
 1578SOL    HW2 8634   4.132   3.408   0.917
 1579SOL     OW 8635   0.046   3.188   0.232
 1579SOL    HW1 8636   0.076   3.096   0.209
 1579SOL    HW2 8637   5.701   3.186   0.319
 1580SOL     OW 8638   3.483   3.121   0.750
 1580SOL    HW1 8639   3.404   3.133   0.690
 1580SOL    HW2 8640   3.520   3.029   0.738
 1581SOL     OW 8641   5.514   0.612   0.189
 1581SOL    HW1 8642   5.548   0.630   0.281
 1581SOL    HW2 8643   5.432   0.666   0.172
 1582SOL     OW 8644   4.946   1.734   0.737
 1582SOL    HW1 8645   4.896   1.702   0.817
 1582SOL    HW2 8646   5.040   1.756   0.763
 1583SOL     OW 8647   3.259   3.166   0.601
 1583SOL    HW1 8648   3.182   3.171   0.664
 1583SOL    HW2 8649   3.244   3.090   0.536
 1584SOL     OW 8650   3.608   1.062   5.962
 1584SOL    HW1 8651   3.633   1.067   5.866
 1584SOL    HW2 8652   3.634   1.146   6.009
 1585SOL     OW 8653   1.021   2.523   0.709
 1585SOL    HW1 8654   0.943   2.461   0.711
 1585SOL    HW2 8655   1.004   2.600   0.771
 1586SOL     OW 8656   2.615   3.261   0.668
 1586SOL    HW1 8657   2.570   3.246   0.757
 1586SOL    HW2 8658   2.678   3.338   0.676
 1587SOL     OW 8659   0.419   1.782   5.289
 1587SOL    HW1 8660   0.461   1.870   5.309
 1587SOL    HW2 8661   0.476   1.732   5.224
 1588SOL     OW 8662   3.632   5.292   5.627
 1588SOL    HW1 8663   3.566   5.282   5.553
 1588SOL    HW2 8664   3.601   5.239   5.706
 1589SOL     OW 8665   5.333   2.922   5.223
 1589SOL    HW1 8666   5.263   2.993   5.217
 1589SOL    HW2 8667   5.298   2.836   5.186
 1590SOL     OW 8668   5.065   4.282   0.181
 1590SOL    HW1 8669   5.142   4.345   0.172
 1590SOL    HW2 8670   5.076   4.207   0.116
 1591SOL     OW 8671   0.726   5.226   1.639
 1591SOL    HW1 8672   0.635   5.221   1.681
 1591SOL    HW2 8673   0.722   5.284   1.558
 1592SOL     OW 8674   4.093   3.071   4.638
 1592SOL    HW1 8675   4.057   2.987   4.597
 1592SOL    HW2 8676   4.144   3.123   4.569
 1593SOL     OW 8677   3.263   4.809   0.995
 1593SOL    HW1 8678   3.312   4.794   1.081
 1593SOL    HW2 8679   3.169   4.779   1.005
 1594SOL     OW 8680   3.181   1.997   1.511
 1594SOL    HW1 8681   3.167   1.964   1.604
 1594SOL    HW2 8682   3.279   2.009   1.494
 1595SOL     OW 8683   1.417   1.843   5.435
 1595SOL    HW1 8684   1.328   1.872   5.469
 1595SOL    HW2 8685   1.405   1.775   5.363
 1596SOL     OW 8686   4.960   1.283   5.006
 1596SOL    HW1 8687   5.043   1.271   5.061
 1596SOL    HW2 8688   4.982   1.336   4.924
 1597SOL     OW 8689   3.264   2.687   5.491
 1597SOL    HW1 8690   3.241   2.722   5.581
 1597SOL    HW2 8691   3.301   2.594   5.499
 1598SOL     OW 8692   0.045   5.416   0.891
 1598SOL    HW1 8693   0.094   5.376   0.969
 1598SOL    HW2 8694   0.042   5.515   0.900
 1599SOL     OW 8695   1.035   4.737   1.515
 1599SOL    HW1 8696   1.070   4.792   1.440
 1599SOL    HW2 8697   1.040   4.789   1.600
 1600SOL     OW 8698   0.256   3.346   0.305
 1600SOL    HW1 8699   0.184   3.283   0.275
 1600SOL    HW2 8700   0.239   3.437   0.267
 1601SOL     OW 8701   0.214   2.753   4.801
 1601SOL    HW1 8702   0.134   2.750   4.741
 1601SOL    HW2 8703   0.279   2.822   4.768
 1602SOL     OW 8704   4.408   2.970   0.029
 1602SOL    HW1 8705   4.471   3.046   0.010
 1602SOL    HW2 8706   4.344   2.997   0.100
 1603SOL     OW 8707   3.989   0.446   4.929
 1603SOL    HW1 8708   3.986   0.350   4.957
 1603SOL    HW2 8709   4.034   0.500   5.000
 1604SOL     OW 8710   0.066   5.338   4.752
 1604SOL    HW1 8711   0.039   5.242   4.752
 1604SOL    HW2 8712   0.035   5.381   4.668
 1605SOL     OW 8713   4.810   4.171   5.502
 1605SOL    HW1 8714   4.845   4.153   5.410
 1605SOL    HW2 8715   4.830   4.266   5.526
 1606SOL     OW 8716   2.484   4.286   5.051
 1606SOL    HW1 8717   2.526   4.372   5.078
 1606SOL    HW2 8718   2.484   4.278   4.952
 1607SOL     OW 8719   2.556   1.180   5.529
 1607SOL    HW1 8720   2.506   1.129   5.459
 1607SOL    HW2 8721   2.528   1.148   5.620
 1608SOL     OW 8722   4.519   0.649   5.185
 1608SOL    HW1 8723   4.498   0.694   5.272
 1608SOL    HW2 8724   4.440   0.653   5.125
 1609SOL     OW 8725   1.677   3.683   0.304
 1609SOL    HW1 8726   1.655   3.587   0.288
 1609SOL    HW2 8727   1.775   3.698   0.291
 1610SOL     OW 8728   5.307   1.413   0.362
 1610SOL    HW1 8729   5.285   1.330   0.415
 1610SOL    HW2 8730   5.348   1.387   0.275
 1611SOL     OW 8731   5.275   3.762   1.343
 1611SOL    HW1 8732   5.330   3.770   1.427
 1611SOL    HW2 8733   5.335   3.768   1.263
 1612SOL     OW 8734   3.686   0.592   1.355
 1612SOL    HW1 8735   3.769   0.602   1.410
 1612SOL    HW2 8736   3.618   0.539   1.406
 1613SOL     OW 8737   4.250   1.115   5.148
 1613SOL    HW1 8738   4.316   1.061   5.096
 1613SOL    HW2 8739   4.160   1.071   5.146
 1614SOL     OW 8740   2.483   4.936   6.013
 1614SOL    HW1 8741   2.426   4.902   5.939
 1614SOL    HW2 8742   2.565   4.879   0.005
 1615SOL     OW 8743   5.538   3.607   4.782
 1615SOL    HW1 8744   5.475   3.624   4.858
 1615SOL    HW2 8745   5.496   3.636   4.696
 1616SOL     OW 8746   2.814   1.095   5.282
 1616SOL    HW1 8747   2.759   1.179   5.281
 1616SOL    HW2 8748   2.891   1.107   5.344
 1617SOL     OW 8749   1.373   3.524   5.461
 1617SOL    HW1 8750   1.357   3.555   5.554
 1617SOL    HW2 8751   1.346   3.428   5.452
 1618SOL     OW 8752   1.110   2.968   5.641
 1618SOL    HW1 8753   1.026   3.001   5.596
 1618SOL    HW2 8754   1.188   2.984   5.581
 1619SOL     OW 8755   2.440   3.641   0.766
 1619SOL    HW1 8756   2.344   3.655   0.742
 1619SOL    HW2 8757   2.447   3.613   0.861
 1620SOL     OW 8758   0.831   3.586   0.790
 1620SOL    HW1 8759   0.864   3.675   0.760
 1620SOL    HW2 8760   0.753   3.598   0.851
 1621SOL     OW 8761   3.760   2.818   1.833
 1621SOL    HW1 8762   3.702   2.741   1.862
 1621SOL    HW2 8763   3.846   2.814   1.882
 1622SOL     OW 8764   5.277   5.613   0.900
 1622SOL    HW1 8765   5.233   0.012   0.828
 1622SOL    HW2 8766   5.370   5.647   0.916
 1623SOL     OW 8767   0.431   5.155   4.203
 1623SOL    HW1 8768   0.443   5.122   4.109
 1623SOL    HW2 8769   0.334   5.172   4.220
 1624SOL     OW 8770   3.465   0.399   5.224
 1624SOL    HW1 8771   3.511   0.393   5.313
 1624SOL    HW2 8772   3.413   0.485   5.219
 1625SOL     OW 8773   2.573   5.456   5.625
 1625SOL    HW1 8774   2.641   5.475   5.554
 1625SOL    HW2 8775   2.558   5.357   5.630
 1626SOL     OW 8776   0.753   0.342   0.182
 1626SOL    HW1 8777   0.840   0.334   0.133
 1626SOL    HW2 8778   0.720   0.436   0.176
 1627SOL     OW 8779   4.983   0.253   4.090
 1627SOL    HW1 8780   5.070   0.209   4.112
 1627SOL    HW2 8781   4.913   0.183   4.076
 1628SOL     OW 8782   0.247   0.795   5.196
 1628SOL    HW1 8783   0.255   0.779   5.098
 1628SOL    HW2 8784   0.263   0.709   5.245
 1629SOL     OW 8785   4.271   2.025   5.185
 1629SOL    HW1 8786   4.172   2.038   5.183
 1629SOL    HW2 8787   4.294   1.959   5.257
 1630SOL     OW 8788   3.823   3.497   5.114
 1630SOL    HW1 8789   3.889   3.473   5.185
 1630SOL    HW2 8790   3.733   3.510   5.155
 1631SOL     OW 8791   2.686   3.968   4.879
 1631SOL    HW1 8792   2.587   3.954   4.876
 1631SOL    HW2 8793   2.732   3.884   4.850
 1632SOL     OW 8794   4.410   4.957   4.358
 1632SOL    HW1 8795   4.483   4.994   4.300
 1632SOL    HW2 8796   4.395   4.861   4.336
 1633SOL     OW 8797   0.918   0.512   5.840
 1633SOL    HW1 8798   0.915   0.460   5.754
 1633SOL    HW2 8799   0.936   0.450   5.916
 1634SOL     OW 8800   3.297   5.446   0.490
 1634SOL    HW1 8801   3.370   5.450   0.558
 1634SOL    HW2 8802   3.249   5.534   0.487
 1635SOL     OW 8803   0.971   2.802   4.698
 1635SOL    HW1 8804   1.028   2.884   4.688
 1635SOL    HW2 8805   1.012   2.727   4.645
 1636SOL     OW 8806   1.671   3.732   4.966
 1636SOL    HW1 8807   1.738   3.746   4.893
 1636SOL    HW2 8808   1.620   3.816   4.981
 1637SOL     OW 8809   5.640   3.323   0.019
 1637SOL    HW1 8810   5.685   3.276   0.095
 1637SOL    HW2 8811   5.682   3.295   5.949
 1638SOL     OW 8812   2.922   4.904   1.681
 1638SOL    HW1 8813   3.022   4.906   1.688
 1638SOL    HW2 8814   2.884   4.859   1.761
 1639SOL     OW 8815   0.508   5.518   1.310
 1639SOL    HW1 8816   0.504   5.618   1.307
 1639SOL    HW2 8817   0.426   5.483   1.355
 1640SOL     OW 8818   1.788   2.820   5.961
 1640SOL    HW1 8819   1.863   2.886   5.960
 1640SOL    HW2 8820   1.759   2.804   0.039
 1641SOL     OW 8821   0.887   5.168   1.330
 1641SOL    HW1 8822   0.822   5.240   1.353
 1641SOL    HW2 8823   0.892   5.102   1.405
 1642SOL     OW 8824   0.769   4.715   0.828
 1642SOL    HW1 8825   0.752   4.797   0.774
 1642SOL    HW2 8826   0.682   4.675   0.855
 1643SOL     OW 8827   0.322   4.130   5.814
 1643SOL    HW1 8828   0.334   4.031   5.808
 1643SOL    HW2 8829   0.401   4.170   5.860
 1644SOL     OW 8830   1.974   1.953   4.922
 1644SOL    HW1 8831   2.061   2.002   4.929
 1644SOL    HW2 8832   1.902   2.018   4.900
 1645SOL     OW 8833   2.465   4.092   0.098
 1645SOL    HW1 8834   2.470   4.163   0.168
 1645SOL    HW2 8835   2.389   4.112   0.036
 1646SOL     OW 8836   0.067   2.844   5.017
 1646SOL    HW1 8837   0.133   2.823   4.945
 1646SOL    HW2 8838   0.111   2.837   5.106
 1647SOL     OW 8839   1.893   1.746   4.573
 1647SOL    HW1 8840   1.809   1.796   4.597
 1647SOL    HW2 8841   1.900   1.741   4.474
 1648SOL     OW 8842   0.867   3.505   4.506
 1648SOL    HW1 8843   0.805   3.520   4.429
 1648SOL    HW2 8844   0.946   3.566   4.498
 1649SOL     OW 8845   3.652   3.302   5.847
 1649SOL    HW1 8846   3.710   3.305   5.929
 1649SOL    HW2 8847   3.618   3.209   5.834
 1650SOL     OW 8848   1.511   4.388   0.450
 1650SOL    HW1 8849   1.538   4.368   0.355
 1650SOL    HW2 8850   1.534   4.482   0.472
 1651SOL     OW 8851   1.903   2.463   4.005
 1651SOL    HW1 8852   1.920   2.377   3.957
 1651SOL    HW2 8853   1.961   2.535   3.967
 1652SOL     OW 8854   0.881   3.980   5.829
 1652SOL    HW1 8855   0.823   3.900   5.844
 1652SOL    HW2 8856   0.869   4.012   5.735
 1653SOL     OW 8857   5.118   3.016   4.881
 1653SOL    HW1 8858   5.157   3.024   4.789
 1653SOL    HW2 8859   5.068   2.929   4.888
 1654SOL     OW 8860   1.835   1.361   0.917
 1654SOL    HW1 8861   1.784   1.391   0.837
 1654SOL    HW2 8862   1.776   1.307   0.977
 1655SOL     OW 8863   0.071   5.083   1.693
 1655SOL    HW1 8864   0.079   5.095   1.792
 1655SOL    HW2 8865   0.053   4.987   1.672
 1656SOL     OW 8866   2.983   0.628   5.204
 1656SOL    HW1 8867   3.013   0.719   5.175
 1656SOL    HW2 8868   3.036   0.558   5.155
 1657SOL     OW 8869   1.722   1.572   4.897
 1657SOL    HW1 8870   1.812   1.608   4.873
 1657SOL    HW2 8871   1.673   1.639   4.953
 1658SOL     OW 8872   1.533   2.913   5.086
 1658SOL    HW1 8873   1.454   2.873   5.131
 1658SOL    HW2 8874   1.598   2.842   5.060
 1659SOL     OW 8875   4.535   4.895   4.911
 1659SOL    HW1 8876   4.603   4.941   4.968
 1659SOL    HW2 8877   4.539   4.932   4.818
 1660SOL     OW 8878   2.768   0.203   0.822
 1660SOL    HW1 8879   2.827   0.283   0.811
 1660SOL    HW2 8880   2.814   0.136   0.880
 1661SOL     OW 8881   1.233   0.124   0.308
 1661SOL    HW1 8882   1.284   0.043   0.339
 1661SOL    HW2 8883   1.296   0.202   0.302
 1662SOL     OW 8884   0.457   0.953   5.316
 1662SOL    HW1 8885   0.380   0.905   5.275
 1662SOL    HW2 8886   0.542   0.904   5.295
 1663SOL     OW 8887   3.142   4.507   0.531
 1663SOL    HW1 8888   3.076   4.555   0.589
 1663SOL    HW2 8889   3.222   4.565   0.518
 1664SOL     OW 8890   2.883   4.132   4.344
 1664SOL    HW1 8891   2.915   4.210   4.289
 1664SOL    HW2 8892   2.818   4.078   4.291
 1665SOL     OW 8893   5.164   1.016   4.799
 1665SOL    HW1 8894   5.168   1.110   4.765
 1665SOL    HW2 8895   5.256   0.985   4.821
 1666SOL     OW 8896   0.290   4.184   1.718
 1666SOL    HW1 8897   0.262   4.268   1.765
 1666SOL    HW2 8898   0.298   4.110   1.784
 1667SOL     OW 8899   5.526   1.784   0.314
 1667SOL    HW1 8900   5.493   1.726   0.238
 1667SOL    HW2 8901   5.620   1.813   0.295
 1668SOL     OW 8902   1.863   3.340   5.203
 1668SOL    HW1 8903   1.798   3.416   5.203
 1668SOL    HW2 8904   1.934   3.356   5.134
 1669SOL     OW 8905   2.439   0.541   0.926
 1669SOL    HW1 8906   2.372   0.575   0.860
 1669SOL    HW2 8907   2.501   0.615   0.952
 1670SOL     OW 8908   4.793   2.268   1.258
 1670SOL    HW1 8909   4.781   2.181   1.306
 1670SOL    HW2 8910   4.868   2.319   1.301
 1671SOL     OW 8911   2.087   4.973   1.400
 1671SOL    HW1 8912   2.151   4.998   1.327
 1671SOL    HW2 8913   2.131   4.991   1.488
 1672SOL     OW 8914   0.391   1.192   5.015
 1672SOL    HW1 8915   0.452   1.204   4.937
 1672SOL    HW2 8916   0.359   1.282   5.046
 1673SOL     OW 8917   5.221   3.070   0.750
 1673SOL    HW1 8918   5.143   3.119   0.790
 1673SOL    HW2 8919   5.186   2.992   0.697
 1674SOL     OW 8920   4.168   0.230   4.531
 1674SOL    HW1 8921   4.101   0.260   4.463
 1674SOL    HW2 8922   4.255   0.208   4.485
 1675SOL     OW 8923   0.570   1.607   4.836
 1675SOL    HW1 8924   0.545   1.687   4.783
 1675SOL    HW2 8925   0.666   1.583   4.819
 1676SOL     OW 8926   3.248   4.039   5.050
 1676SOL    HW1 8927   3.340   4.006   5.030
 1676SOL    HW2 8928   3.253   4.119   5.109
 1677SOL     OW 8929   2.578   4.110   5.245
 1677SOL    HW1 8930   2.547   4.159   5.163
 1677SOL    HW2 8931   2.558   4.012   5.234
 1678SOL     OW 8932   0.029   1.542   5.081
 1678SOL    HW1 8933   0.061   1.518   5.173
 1678SOL    HW2 8934   0.107   1.544   5.019
 1679SOL     OW 8935   2.983   0.392   1.363
 1679SOL    HW1 8936   3.029   0.398   1.452
 1679SOL    HW2 8937   2.953   0.483   1.334
 1680SOL     OW 8938   3.317   0.064   0.879
 1680SOL    HW1 8939   3.227   0.043   0.841
 1680SOL    HW2 8940   3.361   0.135   0.823
 1681SOL     OW 8941   3.229   5.608   5.089
 1681SOL    HW1 8942   3.282   0.021   5.141
 1681SOL    HW2 8943   3.190   5.652   5.008
 1682SOL     OW 8944   1.915   5.158   4.989
 1682SOL    HW1 8945   1.906   5.250   4.949
 1682SOL    HW2 8946   1.835   5.138   5.045
 1683SOL     OW 8947   5.135   4.136   0.596
 1683SOL    HW1 8948   5.065   4.116   0.527
 1683SOL    HW2 8949   5.208   4.190   0.555
 1684SOL     OW 8950   2.294   1.891   5.981
 1684SOL    HW1 8951   2.323   1.985   5.998
 1684SOL    HW2 8952   2.349   1.829   0.020
 1685SOL     OW 8953   2.715   3.678   5.069
 1685SOL    HW1 8954   2.753   3.719   4.986
 1685SOL    HW2 8955   2.785   3.623   5.114
 1686SOL     OW 8956   3.842   4.633   5.711
 1686SOL    HW1 8957   3.800   4.720   5.739
 1686SOL    HW2 8958   3.898   4.649   5.629
 1687SOL     OW 8959   0.945   2.548   1.273
 1687SOL    HW1 8960   0.858   2.586   1.306
 1687SOL    HW2 8961   0.947   2.450   1.290
 1688SOL     OW 8962   2.701   4.758   0.005
 1688SOL    HW1 8963   2.717   4.693   5.946
 1688SOL    HW2 8964   2.696   4.709   0.092
 1689SOL     OW 8965   0.155   2.845   0.502
 1689SOL    HW1 8966   0.161   2.939   0.536
 1689SOL    HW2 8967   0.061   2.813   0.513
 1690SOL     OW 8968   0.767   1.340   4.979
 1690SOL    HW1 8969   0.831   1.272   4.945
 1690SOL    HW2 8970   0.678   1.328   4.934
 1691SOL     OW 8971   3.475   3.907   5.823
 1691SOL    HW1 8972   3.477   3.888   5.921
 1691SOL    HW2 8973   3.538   3.981   5.802
 1692SOL     OW 8974   1.534   1.384   5.169
 1692SOL    HW1 8975   1.515   1.399   5.072
 1692SOL    HW2 8976   1.588   1.460   5.205
 1693SOL     OW 8977   5.071   0.160   0.233
 1693SOL    HW1 8978   5.093   0.070   0.273
 1693SOL    HW2 8979   5.060   0.227   0.306
 1694SOL     OW 8980   2.364   3.893   0.538
 1694SOL    HW1 8981   2.460   3.922   0.528
 1694SOL    HW2 8982   2.350   3.808   0.487
 1695SOL     OW 8983   2.585   3.211   1.169
 1695SOL    HW1 8984   2.528   3.261   1.234
 1695SOL    HW2 8985   2.671   3.261   1.154
 1696SOL     OW 8986   3.856   2.626   5.115
 1696SOL    HW1 8987   3.931   2.692   5.125
 1696SOL    HW2 8988   3.891   2.544   5.069
 1697SOL     OW 8989   2.244   5.561   1.312
 1697SOL    HW1 8990   2.243   5.628   1.387
 1697SOL    HW2 8991   2.290   5.601   1.233
 1698SOL     OW 8992   2.255   1.985   0.383
 1698SOL    HW1 8993   2.281   2.068   0.333
 1698SOL    HW2 8994   2.231   1.913   0.318
 1699SOL     OW 8995   2.348   4.911   4.260
 1699SOL    HW1 8996   2.403   4.840   4.216
 1699SOL    HW2 8997   2.254   4.906   4.227
 1700SOL     OW 8998   3.127   1.055   0.824
 1700SOL    HW1 8999   3.086   1.014   0.742
 1700SOL    HW2 9000   3.093   1.148   0.836
 1701SOL     OW 9001   2.146   5.148   5.142
 1701SOL    HW1 9002   2.061   5.150   5.089
 1701SOL    HW2 9003   2.174   5.241   5.164
 1702SOL     OW 9004   3.980   3.983   5.805
 1702SOL    HW1 9005   4.064   4.002   5.755
 1702SOL    HW2 9006   3.923   3.921   5.751
 1703SOL     OW 9007   0.343   0.761   5.655
 1703SOL    HW1 9008   0.327   0.851   5.615
 1703SOL    HW2 9009   0.269   0.741   5.720
 1704SOL     OW 9010   2.305   2.519   0.130
 1704SOL    HW1 9011   2.244   2.598   0.138
 1704SOL    HW2 9012   2.321   2.499   0.033
 1705SOL     OW 9013   3.999   2.697   5.535
 1705SOL    HW1 9014   3.965   2.791   5.521
 1705SOL    HW2 9015   4.091   2.700   5.572
 1706SOL     OW 9016   3.722   3.375   0.484
 1706SOL    HW1 9017   3.815   3.393   0.517
 1706SOL    HW2 9018   3.727   3.337   0.391
 1707SOL     OW 9019   4.692   3.994   0.702
 1707SOL    HW1 9020   4.712   4.058   0.629
 1707SOL    HW2 9021   4.621   3.930   0.673
 1708SOL     OW 9022   4.413   1.789   1.048
 1708SOL    HW1 9023   4.382   1.712   0.992
 1708SOL    HW2 9024   4.487   1.759   1.107
 1709SOL     OW 9025   2.436   4.547   0.154
 1709SOL    HW1 9026   2.431   4.555   0.054
 1709SOL    HW2 9027   2.522   4.584   0.187
 1710SOL     OW 9028   1.355   3.851   5.350
 1710SOL    HW1 9029   1.347   3.840   5.449
 1710SOL    HW2 9030   1.435   3.801   5.318
 1711SOL     OW 9031   0.887   2.021   1.298
 1711SOL    HW1 9032   0.789   2.006   1.308
 1711SOL    HW2 9033   0.929   1.938   1.259
 1712SOL     OW 9034   1.011   3.388   5.363
 1712SOL    HW1 9035   0.979   3.301   5.326
 1712SOL    HW2 9036   0.981   3.463   5.305
 1713SOL     OW 9037   4.189   5.215   0.840
 1713SOL    HW1 9038   4.261   5.146   0.834
 1713SOL    HW2 9039   4.231   5.306   0.847
 1714SOL     OW 9040   4.579   2.763   1.453
 1714SOL    HW1 9041   4.674   2.748   1.481
 1714SOL    HW2 9042   4.518   2.715   1.516
 1715SOL     OW 9043   0.348   0.357   0.400
 1715SOL    HW1 9044   0.253   0.332   0.416
 1715SOL    HW2 9045   0.363   0.452   0.427
 1716SOL     OW 9046   1.714   1.729   1.121
 1716SOL    HW1 9047   1.663   1.684   1.194
 1716SOL    HW2 9048   1.712   1.828   1.135
 1717SOL     OW 9049   4.967   5.224   0.222
 1717SOL    HW1 9050   5.010   5.156   0.282
 1717SOL    HW2 9051   5.036   5.289   0.189
 1718SOL     OW 9052   3.350   5.474   5.603
 1718SOL    HW1 9053   3.430   5.526   5.572
 1718SOL    HW2 9054   3.281   5.473   5.531
 1719SOL     OW 9055   0.362   3.571   1.645
 1719SOL    HW1 9056   0.344   3.474   1.628
 1719SOL    HW2 9057   0.319   3.599   1.731
 1720SOL     OW 9058   0.104   1.056   4.545
 1720SOL    HW1 9059   0.162   1.001   4.484
 1720SOL    HW2 9060   0.047   1.118   4.490
 1721SOL     OW 9061   3.052   3.917   0.001
 1721SOL    HW1 9062   3.017   3.922   5.923
 1721SOL    HW2 9063   3.098   3.829   0.014
 1722SOL     OW 9064   3.725   3.133   5.363
 1722SOL    HW1 9065   3.706   3.116   5.266
 1722SOL    HW2 9066   3.784   3.213   5.372
 1723SOL     OW 9067   3.594   4.683   0.412
 1723SOL    HW1 9068   3.660   4.613   0.440
 1723SOL    HW2 9069   3.568   4.669   0.317
 1724SOL     OW 9070   3.254   3.411   5.994
 1724SOL    HW1 9071   3.165   3.381   0.011
 1724SOL    HW2 9072   3.284   3.352   5.919
 1725SOL     OW 9073   3.092   4.537   0.944
 1725SOL    HW1 9074   3.162   4.483   0.992
 1725SOL    HW2 9075   3.057   4.607   1.005
 1726SOL     OW 9076   0.770   4.960   2.056
 1726SOL    HW1 9077   0.707   4.938   2.131
 1726SOL    HW2 9078   0.829   4.881   2.039
 1727SOL     OW 9079   2.765   2.102   0.936
 1727SOL    HW1 9080   2.731   2.064   0.851
 1727SOL    HW2 9081   2.789   2.198   0.922
 1728SOL     OW 9082   0.232   3.836   0.930
 1728SOL    HW1 9083   0.242   3.906   1.000
 1728SOL    HW2 9084   0.188   3.876   0.849
 1729SOL     OW 9085   3.525   4.667   0.151
 1729SOL    HW1 9086   3.582   4.646   0.072
 1729SOL    HW2 9087   3.482   4.756   0.140
 1730SOL     OW 9088   3.901   1.874   4.878
 1730SOL    HW1 9089   3.870   1.783   4.850
 1730SOL    HW2 9090   3.847   1.906   4.956
 1731SOL     OW 9091   1.291   5.619   5.383
 1731SOL    HW1 9092   1.366   5.627   5.318
 1731SOL    HW2 9093   1.319   5.559   5.458
 1732SOL     OW 9094   5.440   2.130   5.434
 1732SOL    HW1 9095   5.453   2.201   5.365
 1732SOL    HW2 9096   5.519   2.129   5.496
 1733SOL     OW 9097   5.619   2.245   0.150
 1733SOL    HW1 9098   5.663   2.193   0.223
 1733SOL    HW2 9099   5.579   2.328   0.189
 1734SOL     OW 9100   2.305   1.928   5.706
 1734SOL    HW1 9101   2.256   1.854   5.661
 1734SOL    HW2 9102   2.299   1.917   5.805
 1735SOL     OW 9103   5.266   4.164   1.853
 1735SOL    HW1 9104   5.268   4.263   1.860
 1735SOL    HW2 9105   5.228   4.125   1.938
 1736SOL     OW 9106   0.790   4.797   0.086
 1736SOL    HW1 9107   0.819   4.708   0.121
 1736SOL    HW2 9108   0.742   4.847   0.158
 1737SOL     OW 9109   1.676   1.878   4.668
 1737SOL    HW1 9110   1.592   1.844   4.710
 1737SOL    HW2 9111   1.708   1.959   4.716
 1738SOL     OW 9112   4.450   1.956   4.994
 1738SOL    HW1 9113   4.451   2.023   4.920
 1738SOL    HW2 9114   4.378   1.979   5.059
 1739SOL     OW 9115   4.591   0.131   0.537
 1739SOL    HW1 9116   4.495   0.106   0.520
 1739SOL    HW2 9117   4.621   0.197   0.468
 1740SOL     OW 9118   3.483   3.903   0.082
 1740SOL    HW1 9119   3.468   3.820   0.137
 1740SOL    HW2 9120   3.404   3.963   0.091
 1741SOL     OW 9121   0.340   1.216   0.247
 1741SOL    HW1 9122   0.349   1.225   0.148
 1741SOL    HW2 9123   0.423   1.251   0.291
 1742SOL     OW 9124   1.641   3.545   1.006
 1742SOL    HW1 9125   1.738   3.566   0.992
 1742SOL    HW2 9126   1.585   3.616   0.965
 1743SOL     OW 9127   2.721   0.184   5.550
 1743SOL    HW1 9128   2.623   0.194   5.537
 1743SOL    HW2 9129   2.738   0.121   5.625
 1744SOL     OW 9130   3.914   4.749   0.219
 1744SOL    HW1 9131   3.852   4.803   0.276
 1744SOL    HW2 9132   3.880   4.655   0.213
 1745SOL     OW 9133   2.226   4.597   4.522
 1745SOL    HW1 9134   2.209   4.553   4.434
 1745SOL    HW2 9135   2.305   4.657   4.514
 1746SOL     OW 9136   5.370   0.414   4.897
 1746SOL    HW1 9137   5.310   0.480   4.852
 1746SOL    HW2 9138   5.419   0.362   4.827
 1747SOL     OW 9139   4.870   3.861   1.154
 1747SOL    HW1 9140   4.822   3.919   1.219
 1747SOL    HW2 9141   4.803   3.816   1.094
 1748SOL     OW 9142   2.706   2.702   0.410
 1748SOL    HW1 9143   2.716   2.788   0.360
 1748SOL    HW2 9144   2.623   2.655   0.379
 1749SOL     OW 9145   3.451   3.362   0.163
 1749SOL    HW1 9146   3.498   3.449   0.177
 1749SOL    HW2 9147   3.378   3.374   0.096
 1750SOL     OW 9148   4.943   1.095   0.191
 1750SOL    HW1 9149   5.023   1.141   0.152
 1750SOL    HW2 9150   4.860   1.142   0.162
 1751SOL     OW 9151   1.761   5.480   0.568
 1751SOL    HW1 9152   1.808   5.553   0.617
 1751SOL    HW2 9153   1.662   5.495   0.572
 1752SOL     OW 9154   2.796   0.616   0.846
 1752SOL    HW1 9155   2.727   0.619   0.773
 1752SOL    HW2 9156   2.842   0.528   0.844
 1753SOL     OW 9157   0.169   1.040   5.073
 1753SOL    HW1 9158   0.247   1.098   5.050
 1753SOL    HW2 9159   0.201   0.958   5.121
 1754SOL     OW 9160   2.051   4.405   0.747
 1754SOL    HW1 9161   2.085   4.321   0.791
 1754SOL    HW2 9162   2.123   4.444   0.690
 1755SOL     OW 9163   3.496   2.007   4.970
 1755SOL    HW1 9164   3.497   1.950   4.888
 1755SOL    HW2 9165   3.504   2.103   4.945
 1756SOL     OW 9166   4.192   4.149   0.205
 1756SOL    HW1 9167   4.233   4.126   0.117
 1756SOL    HW2 9168   4.256   4.205   0.258
 1757SOL     OW 9169   1.802   2.024   5.557
 1757SOL    HW1 9170   1.849   1.962   5.621
 1757SOL    HW2 9171   1.789   1.977   5.470
 1758SOL     OW 9172   0.776   3.618   1.501
 1758SOL    HW1 9173   0.820   3.658   1.420
 1758SOL    HW2 9174   0.843   3.563   1.551
 1759SOL     OW 9175   3.992   1.993   1.223
 1759SOL    HW1 9176   4.085   1.997   1.187
 1759SOL    HW2 9177   3.976   2.072   1.282
 1760SOL     OW 9178   4.983   4.764   0.310
 1760SOL    HW1 9179   4.979   4.699   0.386
 1760SOL    HW2 9180   4.951   4.719   0.227
 1761SOL     OW 9181   1.212   2.370   1.758
 1761SOL    HW1 9182   1.148   2.447   1.758
 1761SOL    HW2 9183   1.289   2.390   1.817
 1762SOL     OW 9184   5.198   0.958   5.980
 1762SOL    HW1 9185   5.253   0.955   5.897
 1762SOL    HW2 9186   5.181   1.054   6.005
 1763SOL     OW 9187   4.856   3.442   1.977
 1763SOL    HW1 9188   4.857   3.540   1.956
 1763SOL    HW2 9189   4.947   3.414   2.008
 1764SOL     OW 9190   0.747   3.322   4.670
 1764SOL    HW1 9191   0.787   3.394   4.613
 1764SOL    HW2 9192   0.820   3.268   4.712
 1765SOL     OW 9193   0.827   1.384   0.772
 1765SOL    HW1 9194   0.926   1.379   0.759
 1765SOL    HW2 9195   0.807   1.420   0.863
 1766SOL     OW 9196   2.390   0.167   1.711
 1766SOL    HW1 9197   2.439   0.250   1.736
 1766SOL    HW2 9198   2.421   0.091   1.768
 1767SOL     OW 9199   0.290   2.138   5.436
 1767SOL    HW1 9200   0.258   2.058   5.488
 1767SOL    HW2 9201   0.318   2.210   5.499
 1768SOL     OW 9202   5.427   3.689   4.552
 1768SOL    HW1 9203   5.425   3.656   4.457
 1768SOL    HW2 9204   5.413   3.789   4.552
 1769SOL     OW 9205   1.617   3.777   4.583
 1769SOL    HW1 9206   1.614   3.684   4.618
 1769SOL    HW2 9207   1.558   3.786   4.504
 1770SOL     OW 9208   3.962   4.866   5.185
 1770SOL    HW1 9209   3.951   4.944   5.124
 1770SOL    HW2 9210   4.032   4.886   5.253
 1771SOL     OW 9211   4.281   5.038   5.712
 1771SOL    HW1 9212   4.214   4.968   5.735
 1771SOL    HW2 9213   4.250   5.089   5.631
 1772SOL     OW 9214   1.031   0.340   0.560
 1772SOL    HW1 9215   0.941   0.376   0.583
 1772SOL    HW2 9216   1.023   0.243   0.537
 1773SOL     OW 9217   0.804   4.185   5.994
 1773SOL    HW1 9218   0.833   4.112   5.931
 1773SOL    HW2 9219   0.705   4.198   5.987
 1774SOL     OW 9220   1.955   2.555   0.281
 1774SOL    HW1 9221   2.010   2.495   0.339
 1774SOL    HW2 9222   1.896   2.612   0.338
 1775SOL     OW 9223   2.511   3.743   5.733
 1775SOL    HW1 9224   2.514   3.779   5.640
 1775SOL    HW2 9225   2.416   3.730   5.760
 1776SOL     OW 9226   5.161   0.260   5.232
 1776SOL    HW1 9227   5.111   0.345   5.217
 1776SOL    HW2 9228   5.186   0.221   5.143
 1777SOL     OW 9229   0.591   5.010   4.592
 1777SOL    HW1 9230   0.519   5.079   4.602
 1777SOL    HW2 9231   0.601   4.986   4.495
 1778SOL     OW 9232   4.551   3.890   5.024
 1778SOL    HW1 9233   4.464   3.913   4.979
 1778SOL    HW2 9234   4.597   3.819   4.972
 1779SOL     OW 9235   0.472   0.527   2.017
 1779SOL    HW1 9236   0.426   0.448   2.057
 1779SOL    HW2 9237   0.568   0.504   2.000
 1780SOL     OW 9238   5.404   1.351   5.853
 1780SOL    HW1 9239   5.466   1.404   5.795
 1780SOL    HW2 9240   5.347   1.292   5.795
 1781SOL     OW 9241   1.448   0.523   1.347
 1781SOL    HW1 9242   1.437   0.620   1.327
 1781SOL    HW2 9243   1.366   0.474   1.317
 1782SOL     OW 9244   1.330   4.152   5.002
 1782SOL    HW1 9245   1.233   4.137   5.023
 1782SOL    HW2 9246   1.337   4.215   4.924
 1783SOL     OW 9247   4.595   4.679   0.462
 1783SOL    HW1 9248   4.624   4.762   0.414
 1783SOL    HW2 9249   4.598   4.694   0.561
 1784SOL     OW 9250   2.729   4.228   0.808
 1784SOL    HW1 9251   2.819   4.201   0.842
 1784SOL    HW2 9252   2.695   4.159   0.744
 1785SOL     OW 9253   1.036   0.792   0.478
 1785SOL    HW1 9254   1.018   0.737   0.396
 1785SOL    HW2 9255   1.125   0.767   0.516
 1786SOL     OW 9256   3.172   0.480   5.074
 1786SOL    HW1 9257   3.204   0.487   4.979
 1786SOL    HW2 9258   3.230   0.537   5.132
 1787SOL     OW 9259   0.549   3.851   0.766
 1787SOL    HW1 9260   0.569   3.765   0.812
 1787SOL    HW2 9261   0.561   3.927   0.832
 1788SOL     OW 9262   4.250   1.988   1.130
 1788SOL    HW1 9263   4.311   1.916   1.097
 1788SOL    HW2 9264   4.266   2.003   1.228
 1789SOL     OW 9265   1.365   4.887   5.405
 1789SOL    HW1 9266   1.393   4.920   5.495
 1789SOL    HW2 9267   1.417   4.805   5.382
 1790SOL     OW 9268   0.222   5.073   5.265
 1790SOL    HW1 9269   0.211   5.067   5.364
 1790SOL    HW2 9270   0.142   5.034   5.220
 1791SOL     OW 9271   4.318   3.953   4.860
 1791SOL    HW1 9272   4.359   3.899   4.786
 1791SOL    HW2 9273   4.233   3.994   4.828
 1792SOL     OW 9274   1.507   0.756   0.044
 1792SOL    HW1 9275   1.471   0.796   0.128
 1792SOL    HW2 9276   1.508   0.657   0.052
 1793SOL     OW 9277   3.169   0.714   1.285
 1793SOL    HW1 9278   3.072   0.688   1.283
 1793SOL    HW2 9279   3.178   0.806   1.323
 1794SOL     OW 9280   0.519   2.138   5.817
 1794SOL    HW1 9281   0.614   2.108   5.814
 1794SOL    HW2 9282   0.461   2.061   5.841
 1795SOL     OW 9283   2.385   3.367   5.940
 1795SOL    HW1 9284   2.476   3.330   5.955
 1795SOL    HW2 9285   2.381   3.462   5.970
 1796SOL     OW 9286   0.591   4.591   5.731
 1796SOL    HW1 9287   0.576   4.643   5.816
 1796SOL    HW2 9288   0.683   4.551   5.732
 1797SOL     OW 9289   1.676   0.323   0.636
 1797SOL    HW1 9290   1.772   0.296   0.641
 1797SOL    HW2 9291   1.657   0.389   0.709
 1798SOL     OW 9292   4.431   1.594   5.266
 1798SOL    HW1 9293   4.454   1.625   5.174
 1798SOL    HW2 9294   4.411   1.496   5.264
 1799SOL     OW 9295   5.679   4.965   1.126
 1799SOL    HW1 9296   0.043   4.911   1.173
 1799SOL    HW2 9297   5.632   5.024   1.192
 1800SOL     OW 9298   3.786   1.915   5.656
 1800SOL    HW1 9299   3.833   1.994   5.616
 1800SOL    HW2 9300   3.766   1.933   5.752
 1801SOL     OW 9301   3.347   2.429   5.509
 1801SOL    HW1 9302   3.266   2.390   5.551
 1801SOL    HW2 9303   3.378   2.371   5.434
 1802SOL     OW 9304   2.321   0.033   0.722
 1802SOL    HW1 9305   2.406   5.636   0.733
 1802SOL    HW2 9306   2.249   5.626   0.689
 1803SOL     OW 9307   4.010   5.403   0.136
 1803SOL    HW1 9308   3.973   5.442   0.052
 1803SOL    HW2 9309   4.076   5.331   0.113
 1804SOL     OW 9310   3.749   0.994   0.763
 1804SOL    HW1 9311   3.821   0.953   0.820
 1804SOL    HW2 9312   3.659   0.971   0.801
 1805SOL     OW 9313   0.465   3.412   0.890
 1805SOL    HW1 9314   0.378   3.456   0.914
 1805SOL    HW2 9315   0.488   3.433   0.795
 1806SOL     OW 9316   2.646   0.961   0.245
 1806SOL    HW1 9317   2.711   0.989   0.316
 1806SOL    HW2 9318   2.633   1.036   0.180
 1807SOL     OW 9319   1.208   4.828   5.038
 1807SOL    HW1 9320   1.172   4.904   5.092
 1807SOL    HW2 9321   1.173   4.833   4.945
 1808SOL     OW 9322   0.158   2.198   0.012
 1808SOL    HW1 9323   0.074   2.201   0.066
 1808SOL    HW2 9324   0.220   2.129   0.050
 1809SOL     OW 9325   5.417   5.577   5.549
 1809SOL    HW1 9326   5.455   0.013   5.564
 1809SOL    HW2 9327   5.330   5.569   5.597
 1810SOL     OW 9328   4.749   5.446   4.963
 1810SOL    HW1 9329   4.713   5.364   4.919
 1810SOL    HW2 9330   4.800   5.500   4.896
 1811SOL     OW 9331   1.163   1.897   5.517
 1811SOL    HW1 9332   1.171   1.857   5.608
 1811SOL    HW2 9333   1.133   1.992   5.524
 1812SOL     OW 9334   1.708   4.072   5.601
 1812SOL    HW1 9335   1.636   4.112   5.658
 1812SOL    HW2 9336   1.796   4.109   5.629
 1813SOL     OW 9337   5.617   2.396   1.396
 1813SOL    HW1 9338   5.596   2.300   1.374
 1813SOL    HW2 9339   5.666   2.400   1.483
 1814SOL     OW 9340   1.098   5.381   5.948
 1814SOL    HW1 9341   1.073   5.288   5.922
 1814SOL    HW2 9342   1.023   5.443   5.923
 1815SOL     OW 9343   3.764   5.534   0.766
 1815SOL    HW1 9344   3.790   5.510   0.860
 1815SOL    HW2 9345   3.830   5.494   0.702
 1816SOL     OW 9346   2.324   4.051   5.559
 1816SOL    HW1 9347   2.257   4.117   5.525
 1816SOL    HW2 9348   2.380   4.094   5.630
 1817SOL     OW 9349   4.186   4.028   5.625
 1817SOL    HW1 9350   4.199   4.127   5.623
 1817SOL    HW2 9351   4.135   3.999   5.544
 1818SOL     OW 9352   3.240   1.294   5.230
 1818SOL    HW1 9353   3.318   1.321   5.288
 1818SOL    HW2 9354   3.171   1.367   5.232
 1819SOL     OW 9355   4.374   3.429   1.455
 1819SOL    HW1 9356   4.356   3.527   1.450
 1819SOL    HW2 9357   4.310   3.387   1.519
 1820SOL     OW 9358   0.073   1.209   5.358
 1820SOL    HW1 9359   0.090   1.303   5.327
 1820SOL    HW2 9360   0.022   1.160   5.287
 1821SOL     OW 9361   0.309   0.506   1.563
 1821SOL    HW1 9362   0.253   0.506   1.479
 1821SOL    HW2 9363   0.323   0.600   1.594
 1822SOL     OW 9364   1.876   0.623   1.248
 1822SOL    HW1 9365   1.884   0.565   1.329
 1822SOL    HW2 9366   1.870   0.565   1.167
 1823SOL     OW 9367   2.083   4.245   5.438
 1823SOL    HW1 9368   2.159   4.255   5.373
 1823SOL    HW2 9369   2.001   4.286   5.399
 1824SOL     OW 9370   4.653   5.216   4.859
 1824SOL    HW1 9371   4.602   5.163   4.791
 1824SOL    HW2 9372   4.659   5.163   4.944
 1825SOL     OW 9373   1.290   3.999   2.155
 1825SOL    HW1 9374   1.389   3.993   2.164
 1825SOL    HW2 9375   1.251   3.907   2.161
 1826SOL     OW 9376   0.395   4.855   0.352
 1826SOL    HW1 9377   0.365   4.790   0.421
 1826SOL    HW2 9378   0.335   4.935   0.353
 1827SOL     OW 9379   4.151   4.899   5.388
 1827SOL    HW1 9380   4.170   4.992   5.421
 1827SOL    HW2 9381   4.235   4.844   5.394
 1828SOL     OW 9382   0.835   5.167   0.804
 1828SOL    HW1 9383   0.769   5.183   0.878
 1828SOL    HW2 9384   0.927   5.157   0.843
 1829SOL     OW 9385   2.632   2.125   1.179
 1829SOL    HW1 9386   2.542   2.158   1.149
 1829SOL    HW2 9387   2.689   2.105   1.099
 1830SOL     OW 9388   0.231   1.942   5.633
 1830SOL    HW1 9389   0.262   1.855   5.596
 1830SOL    HW2 9390   0.268   1.954   5.725
 1831SOL     OW 9391   5.243   4.543   0.444
 1831SOL    HW1 9392   5.147   4.551   0.468
 1831SOL    HW2 9393   5.297   4.606   0.499
 1832SOL     OW 9394   0.432   3.334   5.564
 1832SOL    HW1 9395   0.476   3.325   5.475
 1832SOL    HW2 9396   0.501   3.356   5.634
 1833SOL     OW 9397   2.868   1.646   1.510
 1833SOL    HW1 9398   2.811   1.564   1.518
 1833SOL    HW2 9399   2.949   1.635   1.568
 1834SOL     OW 9400   2.905   3.287   0.322
 1834SOL    HW1 9401   2.925   3.199   0.363
 1834SOL    HW2 9402   2.807   3.306   0.329
 1835SOL     OW 9403   2.801   3.893   5.513
 1835SOL    HW1 9404   2.701   3.890   5.514
 1835SOL    HW2 9405   2.832   3.954   5.441
 1836SOL     OW 9406   5.160   2.823   0.643
 1836SOL    HW1 9407   5.211   2.790   0.722
 1836SOL    HW2 9408   5.168   2.756   0.568
 1837SOL     OW 9409   3.785   2.057   1.057
 1837SOL    HW1 9410   3.700   2.033   1.104
 1837SOL    HW2 9411   3.863   2.031   1.114
 1838SOL     OW 9412   0.700   3.772   5.802
 1838SOL    HW1 9413   0.632   3.809   5.739
 1838SOL    HW2 9414   0.748   3.696   5.758
 1839SOL     OW 9415   0.618   4.960   4.326
 1839SOL    HW1 9416   0.543   4.999   4.274
 1839SOL    HW2 9417   0.673   4.902   4.266
 1840SOL     OW 9418   4.947   3.230   4.833
 1840SOL    HW1 9419   5.010   3.154   4.852
 1840SOL    HW2 9420   4.908   3.262   4.918
 1841SOL     OW 9421   5.264   3.626   0.508
 1841SOL    HW1 9422   5.332   3.607   0.437
 1841SOL    HW2 9423   5.264   3.723   0.530
 1842SOL     OW 9424   2.454   3.250   1.955
 1842SOL    HW1 9425   2.380   3.310   1.988
 1842SOL    HW2 9426   2.469   3.177   2.021
 1843SOL     OW 9427   0.203   2.290   5.218
 1843SOL    HW1 9428   0.230   2.232   5.296
 1843SOL    HW2 9429   0.280   2.298   5.155
 1844SOL     OW 9430   0.577   4.931   2.256
 1844SOL    HW1 9431   0.567   5.030   2.258
 1844SOL    HW2 9432   0.577   4.895   2.349
 1845SOL     OW 9433   5.336   2.745   5.444
 1845SOL    HW1 9434   5.238   2.727   5.453
 1845SOL    HW2 9435   5.350   2.827   5.388
 1846SOL     OW 9436   5.001   2.376   1.407
 1846SOL    HW1 9437   5.045   2.288   1.420
 1846SOL    HW2 9438   4.981   2.417   1.496
 1847SOL     OW 9439   4.394   5.372   0.637
 1847SOL    HW1 9440   4.311   5.339   0.592
 1847SOL    HW2 9441   4.370   5.415   0.724
 1848SOL     OW 9442   1.627   1.132   5.116
 1848SOL    HW1 9443   1.641   1.143   5.017
 1848SOL    HW2 9444   1.587   1.216   5.154
 1849SOL     OW 9445   1.470   3.745   0.120
 1849SOL    HW1 9446   1.476   3.832   0.070
 1849SOL    HW2 9447   1.541   3.741   0.190
 1850SOL     OW 9448   2.297   3.217   4.756
 1850SOL    HW1 9449   2.327   3.151   4.825
 1850SOL    HW2 9450   2.197   3.213   4.747
 1851SOL     OW 9451   0.260   5.122   0.337
 1851SOL    HW1 9452   0.197   5.200   0.335
 1851SOL    HW2 9453   0.342   5.147   0.388
 1852SOL     OW 9454   4.236   3.185   4.433
 1852SOL    HW1 9455   4.320   3.159   4.386
 1852SOL    HW2 9456   4.178   3.238   4.371
 1853SOL     OW 9457   0.470   5.360   1.084
 1853SOL    HW1 9458   0.373   5.339   1.092
 1853SOL    HW2 9459   0.498   5.418   1.161
 1854SOL     OW 9460   1.312   3.928   4.838
 1854SOL    HW1 9461   1.317   4.009   4.896
 1854SOL    HW2 9462   1.327   3.955   4.743
 1855SOL     OW 9463   4.377   1.931   5.633
 1855SOL    HW1 9464   4.452   1.996   5.650
 1855SOL    HW2 9465   4.356   1.882   5.718
 1856SOL     OW 9466   2.027   4.345   0.265
 1856SOL    HW1 9467   1.985   4.323   0.352
 1856SOL    HW2 9468   2.102   4.410   0.279
 1857SOL     OW 9469   4.063   0.641   5.939
 1857SOL    HW1 9470   4.162   0.640   5.951
 1857SOL    HW2 9471   4.020   0.694   6.012
 1858SOL     OW 9472   1.190   3.878   0.833
 1858SOL    HW1 9473   1.094   3.867   0.809
 1858SOL    HW2 9474   1.216   3.808   0.899
 1859SOL     OW 9475   2.727   4.982   5.175
 1859SOL    HW1 9476   2.710   5.048   5.249
 1859SOL    HW2 9477   2.719   5.029   5.087
 1860SOL     OW 9478   1.330   4.776   1.866
 1860SOL    HW1 9479   1.274   4.715   1.923
 1860SOL    HW2 9480   1.342   4.863   1.914
 1861SOL     OW 9481   4.312   1.464   0.071
 1861SOL    HW1 9482   4.284   1.559   0.086
 1861SOL    HW2 9483   4.405   1.463   0.033
 1862SOL     OW 9484   1.730   3.696   5.858
 1862SOL    HW1 9485   1.668   3.732   5.928
 1862SOL    HW2 9486   1.703   3.731   5.769
 1863SOL     OW 9487   0.296   1.416   5.765
 1863SOL    HW1 9488   0.382   1.383   5.726
 1863SOL    HW2 9489   0.220   1.369   5.722
 1864SOL     OW 9490   2.298   0.953   5.115
 1864SOL    HW1 9491   2.306   0.938   5.016
 1864SOL    HW2 9492   2.268   0.868   5.158
 1865SOL     OW 9493   4.211   3.304   1.637
 1865SOL    HW1 9494   4.297   3.269   1.676
 1865SOL    HW2 9495   4.146   3.320   1.711
 1866SOL     OW 9496   2.222   0.725   5.239
 1866SOL    HW1 9497   2.262   0.673   5.313
 1866SOL    HW2 9498   2.124   0.706   5.234
 1867SOL     OW 9499   0.115   1.358   0.289
 1867SOL    HW1 9500   0.042   1.324   0.229
 1867SOL    HW2 9501   0.196   1.300   0.279
 1868SOL     OW 9502   1.883   4.514   4.899
 1868SOL    HW1 9503   1.909   4.545   4.990
 1868SOL    HW2 9504   1.939   4.560   4.830
 1869SOL     OW 9505   0.817   1.559   5.148
 1869SOL    HW1 9506   0.804   1.477   5.093
 1869SOL    HW2 9507   0.911   1.593   5.135
 1870SOL     OW 9508   1.727   5.294   5.338
 1870SOL    HW1 9509   1.739   5.224   5.267
 1870SOL    HW2 9510   1.783   5.373   5.316
 1871SOL     OW 9511   4.638   3.891   5.284
 1871SOL    HW1 9512   4.606   3.873   5.191
 1871SOL    HW2 9513   4.572   3.950   5.330
 1872SOL     OW 9514   4.618   3.972   5.852
 1872SOL    HW1 9515   4.630   3.969   5.951
 1872SOL    HW2 9516   4.523   3.949   5.829
 1873SOL     OW 9517   2.965   2.235   1.183
 1873SOL    HW1 9518   2.984   2.149   1.230
 1873SOL    HW2 9519   3.032   2.304   1.211
 1874SOL     OW 9520   5.078   3.656   5.110
 1874SOL    HW1 9521   5.033   3.709   5.182
 1874SOL    HW2 9522   5.010   3.626   5.044
 1875SOL     OW 9523   0.134   0.630   5.795
 1875SOL    HW1 9524   0.056   0.633   5.857
 1875SOL    HW2 9525   0.213   0.593   5.843
 1876SOL     OW 9526   4.956   0.892   0.389
 1876SOL    HW1 9527   5.047   0.851   0.384
 1876SOL    HW2 9528   4.952   0.971   0.327
 1877SOL     OW 9529   1.467   1.226   0.864
 1877SOL    HW1 9530   1.435   1.251   0.956
 1877SOL    HW2 9531   1.395   1.247   0.797
 1878SOL     OW 9532   2.939   0.979   1.756
 1878SOL    HW1 9533   2.856   0.960   1.808
 1878SOL    HW2 9534   2.994   1.047   1.804
 1879SOL     OW 9535   2.635   3.536   0.124
 1879SOL    HW1 9536   2.545   3.566   0.093
 1879SOL    HW2 9537   2.689   3.615   0.150
 1880SOL     OW 9538   1.043   3.475   5.625
 1880SOL    HW1 9539   1.125   3.528   5.647
 1880SOL    HW2 9540   1.048   3.445   5.530
 1881SOL     OW 9541   4.299   5.460   0.886
 1881SOL    HW1 9542   4.222   5.523   0.896
 1881SOL    HW2 9543   4.339   5.441   0.976
 1882SOL     OW 9544   1.294   3.138   0.833
 1882SOL    HW1 9545   1.328   3.073   0.901
 1882SOL    HW2 9546   1.215   3.187   0.871
 1883SOL     OW 9547   3.183   4.337   5.612
 1883SOL    HW1 9548   3.283   4.341   5.613
 1883SOL    HW2 9549   3.153   4.270   5.543
 1884SOL     OW 9550   2.691   2.142   5.672
 1884SOL    HW1 9551   2.635   2.225   5.679
 1884SOL    HW2 9552   2.729   2.121   5.762
 1885SOL     OW 9553   1.472   0.370   0.976
 1885SOL    HW1 9554   1.380   0.330   0.973
 1885SOL    HW2 9555   1.537   0.300   1.006
 1886SOL     OW 9556   3.801   1.956   2.050
 1886SOL    HW1 9557   3.843   2.046   2.036
 1886SOL    HW2 9558   3.711   1.968   2.092
 1887SOL     OW 9559   3.367   1.951   5.213
 1887SOL    HW1 9560   3.300   1.879   5.200
 1887SOL    HW2 9561   3.417   1.967   5.128
 1888SOL     OW 9562   4.609   0.822   1.859
 1888SOL    HW1 9563   4.570   0.871   1.937
 1888SOL    HW2 9564   4.567   0.731   1.852
 1889SOL     OW 9565   3.855   3.136   1.259
 1889SOL    HW1 9566   3.807   3.067   1.313
 1889SOL    HW2 9567   3.924   3.181   1.316
 1890SOL     OW 9568   3.617   3.355   0.735
 1890SOL    HW1 9569   3.567   3.269   0.740
 1890SOL    HW2 9570   3.650   3.370   0.642
 1891SOL     OW 9571   0.081   1.847   0.225
 1891SOL    HW1 9572   0.174   1.826   0.254
 1891SOL    HW2 9573   0.063   1.806   0.136
 1892SOL     OW 9574   4.324   3.173   5.365
 1892SOL    HW1 9575   4.283   3.191   5.276
 1892SOL    HW2 9576   4.274   3.098   5.409
 1893SOL     OW 9577   0.975   4.685   5.126
 1893SOL    HW1 9578   1.053   4.739   5.097
 1893SOL    HW2 9579   1.006   4.595   5.156
 1894SOL     OW 9580   0.437   0.613   0.453
 1894SOL    HW1 9581   0.486   0.593   0.538
 1894SOL    HW2 9582   0.452   0.709   0.428
 1895SOL     OW 9583   5.281   0.744   0.115
 1895SOL    HW1 9584   5.232   0.671   0.068
 1895SOL    HW2 9585   5.264   0.831   0.069
 1896SOL     OW 9586   1.015   5.419   4.248
 1896SOL    HW1 9587   1.107   5.393   4.219
 1896SOL    HW2 9588   1.021   5.476   4.330
 1897SOL     OW 9589   5.471   4.221   1.037
 1897SOL    HW1 9590   5.489   4.218   1.136
 1897SOL    HW2 9591   5.404   4.151   1.014
 1898SOL     OW 9592   4.738   2.630   5.685
 1898SOL    HW1 9593   4.791   2.589   5.610
 1898SOL    HW2 9594   4.748   2.574   5.767
 1899SOL     OW 9595   1.344   3.525   0.222
 1899SOL    HW1 9596   1.391   3.608   0.193
 1899SOL    HW2 9597   1.375   3.448   0.166
 1900SOL     OW 9598   5.292   3.686   4.939
 1900SOL    HW1 9599   5.285   3.766   4.879
 1900SOL    HW2 9600   5.215   3.686   5.003
 1901SOL     OW 9601   2.778   1.529   0.782
 1901SOL    HW1 9602   2.787   1.599   0.853
 1901SOL    HW2 9603   2.732   1.449   0.820
 1902SOL     OW 9604   5.016   0.661   0.900
 1902SOL    HW1 9605   5.041   0.649   0.996
 1902SOL    HW2 9606   5.084   0.616   0.842
 1903SOL     OW 9607   0.204   5.231   5.885
 1903SOL    HW1 9608   0.259   5.220   5.802
 1903SOL    HW2 9609   0.263   5.221   5.965
 1904SOL     OW 9610   3.541   2.267   4.899
 1904SOL    HW1 9611   3.479   2.275   4.821
 1904SOL    HW2 9612   3.635   2.278   4.868
 1905SOL     OW 9613   2.127   2.734   0.154
 1905SOL    HW1 9614   2.113   2.824   0.194
 1905SOL    HW2 9615   2.059   2.670   0.190
 1906SOL     OW 9616   4.503   3.047   0.981
 1906SOL    HW1 9617   4.531   3.127   0.929
 1906SOL    HW2 9618   4.584   2.996   1.011
 1907SOL     OW 9619   5.048   0.343   0.433
 1907SOL    HW1 9620   5.008   0.421   0.384
 1907SOL    HW2 9621   5.015   0.341   0.527
 1908SOL     OW 9622   2.614   5.013   4.626
 1908SOL    HW1 9623   2.708   5.039   4.646
 1908SOL    HW2 9624   2.588   5.048   4.536
 1909SOL     OW 9625   5.555   2.784   0.802
 1909SOL    HW1 9626   5.566   2.790   0.703
 1909SOL    HW2 9627   5.460   2.803   0.826
 1910SOL     OW 9628   2.921   2.180   4.505
 1910SOL    HW1 9629   3.002   2.220   4.548
 1910SOL    HW2 9630   2.865   2.253   4.465
 1911SOL     OW 9631   2.177   2.380   1.112
 1911SOL    HW1 9632   2.250   2.313   1.098
 1911SOL    HW2 9633   2.158   2.388   1.210
 1912SOL     OW 9634   0.569   1.565   5.535
 1912SOL    HW1 9635   0.635   1.622   5.486
 1912SOL    HW2 9636   0.619   1.495   5.587
 1913SOL     OW 9637   1.358   4.576   1.670
 1913SOL    HW1 9638   1.321   4.658   1.713
 1913SOL    HW2 9639   1.426   4.535   1.731
 1914SOL     OW 9640   4.733   5.072   1.548
 1914SOL    HW1 9641   4.771   5.163   1.531
 1914SOL    HW2 9642   4.727   5.056   1.646
 1915SOL     OW 9643   2.945   1.405   0.600
 1915SOL    HW1 9644   2.940   1.434   0.505
 1915SOL    HW2 9645   2.892   1.469   0.657
 1916SOL     OW 9646   1.447   5.298   1.155
 1916SOL    HW1 9647   1.532   5.303   1.209
 1916SOL    HW2 9648   1.380   5.243   1.205
 1917SOL     OW 9649   3.702   4.782   5.148
 1917SOL    HW1 9650   3.697   4.749   5.053
 1917SOL    HW2 9651   3.794   4.816   5.167
 1918SOL     OW 9652   2.364   5.622   5.572
 1918SOL    HW1 9653   2.439   5.560   5.592
 1918SOL    HW2 9654   2.291   5.608   5.638
 1919SOL     OW 9655   2.031   4.678   5.529
 1919SOL    HW1 9656   2.029   4.654   5.626
 1919SOL    HW2 9657   2.105   4.628   5.484
 1920SOL     OW 9658   2.496   4.300   0.274
 1920SOL    HW1 9659   2.594   4.313   0.288
 1920SOL    HW2 9660   2.457   4.384   0.236
 1921SOL     OW 9661   0.114   2.363   4.125
 1921SOL    HW1 9662   0.029   2.330   4.085
 1921SOL    HW2 9663   0.118   2.462   4.120
 1922SOL     OW 9664   2.814   3.613   5.516
 1922SOL    HW1 9665   2.815   3.713   5.506
 1922SOL    HW2 9666   2.725   3.578   5.486
 1923SOL     OW 9667   5.081   0.520   5.459
 1923SOL    HW1 9668   5.075   0.508   5.360
 1923SOL    HW2 9669   5.148   0.591   5.480
 1924SOL     OW 9670   4.328   2.575   4.221
 1924SOL    HW1 9671   4.362   2.514   4.149
 1924SOL    HW2 9672   4.377   2.662   4.217
 1925SOL     OW 9673   4.848   0.590   4.833
 1925SOL    HW1 9674   4.920   0.652   4.800
 1925SOL    HW2 9675   4.785   0.640   4.892
 1926SOL     OW 9676   1.479   4.272   0.984
 1926SOL    HW1 9677   1.431   4.184   0.982
 1926SOL    HW2 9678   1.478   4.309   1.077
 1927SOL     OW 9679   3.777   3.085   0.532
 1927SOL    HW1 9680   3.752   3.181   0.527
 1927SOL    HW2 9681   3.727   3.033   0.462
 1928SOL     OW 9682   5.008   3.170   0.993
 1928SOL    HW1 9683   4.986   3.147   1.088
 1928SOL    HW2 9684   4.966   3.259   0.971
 1929SOL     OW 9685   4.441   2.855   0.620
 1929SOL    HW1 9686   4.499   2.778   0.646
 1929SOL    HW2 9687   4.387   2.884   0.699
 1930SOL     OW 9688   3.624   4.286   0.242
 1930SOL    HW1 9689   3.692   4.356   0.224
 1930SOL    HW2 9690   3.655   4.198   0.205
 1931SOL     OW 9691   4.868   3.400   0.926
 1931SOL    HW1 9692   4.923   3.482   0.909
 1931SOL    HW2 9693   4.792   3.396   0.861
 1932SOL     OW 9694   4.812   1.517   1.830
 1932SOL    HW1 9695   4.785   1.439   1.887
 1932SOL    HW2 9696   4.911   1.522   1.825
 1933SOL     OW 9697   2.055   1.051   5.852
 1933SOL    HW1 9698   2.054   1.019   5.947
 1933SOL    HW2 9699   1.972   1.105   5.835
 1934SOL     OW 9700   1.254   4.316   0.539
 1934SOL    HW1 9701   1.205   4.259   0.474
 1934SOL    HW2 9702   1.344   4.338   0.503
 1935SOL     OW 9703   5.080   4.840   5.338
 1935SOL    HW1 9704   5.147   4.888   5.395
 1935SOL    HW2 9705   5.021   4.907   5.293
 1936SOL     OW 9706   3.348   2.722   0.418
 1936SOL    HW1 9707   3.295   2.656   0.365
 1936SOL    HW2 9708   3.302   2.811   0.415
 1937SOL     OW 9709   2.857   0.902   5.578
 1937SOL    HW1 9710   2.788   0.879   5.510
 1937SOL    HW2 9711   2.814   0.913   5.667
 1938SOL     OW 9712   3.495   2.339   5.719
 1938SOL    HW1 9713   3.427   2.331   5.792
 1938SOL    HW2 9714   3.452   2.381   5.639
 1939SOL     OW 9715   3.789   1.544   5.363
 1939SOL    HW1 9716   3.832   1.602   5.433
 1939SOL    HW2 9717   3.755   1.602   5.289
 1940SOL     OW 9718   2.103   1.842   0.577
 1940SOL    HW1 9719   2.158   1.887   0.507
 1940SOL    HW2 9720   2.012   1.823   0.542
 1941SOL     OW 9721   0.342   4.480   4.619
 1941SOL    HW1 9722   0.417   4.502   4.681
 1941SOL    HW2 9723   0.311   4.386   4.638
 1942SOL     OW 9724   3.508   0.910   0.899
 1942SOL    HW1 9725   3.500   1.003   0.936
 1942SOL    HW2 9726   3.461   0.846   0.959
 1943SOL     OW 9727   4.395   1.339   5.792
 1943SOL    HW1 9728   4.464   1.357   5.862
 1943SOL    HW2 9729   4.360   1.426   5.757
 1944SOL     OW 9730   1.805   0.053   0.295
 1944SOL    HW1 9731   1.903   0.058   0.314
 1944SOL    HW2 9732   1.760   0.136   0.329
 1945SOL     OW 9733   1.281   2.328   0.056
 1945SOL    HW1 9734   1.356   2.394   0.051
 1945SOL    HW2 9735   1.291   2.261   5.998
 1946SOL     OW 9736   2.946   3.403   0.885
 1946SOL    HW1 9737   2.991   3.484   0.923
 1946SOL    HW2 9738   2.885   3.431   0.811
 1947SOL     OW 9739   3.290   1.959   1.145
 1947SOL    HW1 9740   3.203   1.964   1.195
 1947SOL    HW2 9741   3.287   2.021   1.067
 1948SOL     OW 9742   1.186   1.660   0.447
 1948SOL    HW1 9743   1.105   1.602   0.451
 1948SOL    HW2 9744   1.159   1.756   0.452
 1949SOL     OW 9745   4.834   2.727   1.540
 1949SOL    HW1 9746   4.827   2.790   1.617
 1949SOL    HW2 9747   4.870   2.640   1.571
 1950SOL     OW 9748   2.542   2.385   5.720
 1950SOL    HW1 9749   2.612   2.426   5.780
 1950SOL    HW2 9750   2.451   2.408   5.754
 1951SOL     OW 9751   2.675   4.765   4.364
 1951SOL    HW1 9752   2.755   4.811   4.325
 1951SOL    HW2 9753   2.614   4.737   4.290
 1952SOL     OW 9754   5.028   4.956   5.011
 1952SOL    HW1 9755   4.983   4.997   5.091
 1952SOL    HW2 9756   4.975   4.877   4.980
 1953SOL     OW 9757   0.458   2.874   0.952
 1953SOL    HW1 9758   0.477   2.970   0.929
 1953SOL    HW2 9759   0.489   2.816   0.877
 1954SOL     OW 9760   3.616   5.654   5.231
 1954SOL    HW1 9761   3.630   5.558   5.208
 1954SOL    HW2 9762   3.703   0.048   5.224
 1955SOL     OW 9763   2.077   2.353   5.479
 1955SOL    HW1 9764   2.135   2.278   5.508
 1955SOL    HW2 9765   1.993   2.354   5.533
 1956SOL     OW 9766   4.479   3.006   1.548
 1956SOL    HW1 9767   4.530   2.930   1.507
 1956SOL    HW2 9768   4.441   3.063   1.475
 1957SOL     OW 9769   4.207   5.284   4.564
 1957SOL    HW1 9770   4.270   5.328   4.500
 1957SOL    HW2 9771   4.229   5.186   4.571
 1958SOL     OW 9772   3.450   4.276   1.416
 1958SOL    HW1 9773   3.455   4.275   1.516
 1958SOL    HW2 9774   3.441   4.182   1.382
 1959SOL     OW 9775   4.774   4.357   1.675
 1959SOL    HW1 9776   4.714   4.435   1.691
 1959SOL    HW2 9777   4.856   4.365   1.732
 1960SOL     OW 9778   1.818   2.366   4.884
 1960SOL    HW1 9779   1.733   2.392   4.929
 1960SOL    HW2 9780   1.852   2.444   4.831
 1961SOL     OW 9781   0.351   0.763   1.663
 1961SOL    HW1 9782   0.384   0.770   1.757
 1961SOL    HW2 9783   0.406   0.823   1.604
 1962SOL     OW 9784   2.960   1.268   1.110
 1962SOL    HW1 9785   2.892   1.195   1.116
 1962SOL    HW2 9786   2.991   1.276   1.015
 1963SOL     OW 9787   3.033   2.668   5.341
 1963SOL    HW1 9788   3.121   2.686   5.387
 1963SOL    HW2 9789   2.963   2.651   5.410
 1964SOL     OW 9790   3.595   1.274   0.488
 1964SOL    HW1 9791   3.682   1.224   0.495
 1964SOL    HW2 9792   3.577   1.321   0.575
 1965SOL     OW 9793   4.746   2.083   1.490
 1965SOL    HW1 9794   4.778   2.016   1.558
 1965SOL    HW2 9795   4.749   2.174   1.530
 1966SOL     OW 9796   1.404   1.321   1.128
 1966SOL    HW1 9797   1.399   1.416   1.099
 1966SOL    HW2 9798   1.394   1.316   1.227
 1967SOL     OW 9799   5.143   5.525   5.615
 1967SOL    HW1 9800   5.134   5.596   5.544
 1967SOL    HW2 9801   5.153   5.436   5.571
 1968SOL     OW 9802   2.644   0.172   5.151
 1968SOL    HW1 9803   2.546   0.180   5.172
 1968SOL    HW2 9804   2.664   0.221   5.067
 1969SOL     OW 9805   2.810   5.038   0.622
 1969SOL    HW1 9806   2.868   4.966   0.583
 1969SOL    HW2 9807   2.777   5.010   0.712
 1970SOL     OW 9808   3.549   5.147   0.098
 1970SOL    HW1 9809   3.646   5.149   0.122
 1970SOL    HW2 9810   3.496   5.189   0.172
 1971SOL     OW 9811   5.132   0.569   5.988
 1971SOL    HW1 9812   5.166   0.488   5.939
 1971SOL    HW2 9813   5.041   0.550   0.009
 1972SOL     OW 9814   3.676   3.075   5.101
 1972SOL    HW1 9815   3.631   3.121   5.025
 1972SOL    HW2 9816   3.759   3.030   5.068
 1973SOL     OW 9817   1.658   1.432   1.529
 1973SOL    HW1 9818   1.716   1.392   1.600
 1973SOL    HW2 9819   1.605   1.507   1.568
 1974SOL     OW 9820   0.092   4.113   5.960
 1974SOL    HW1 9821   0.175   4.122   5.905
 1974SOL    HW2 9822   0.053   4.204   5.976
 1975SOL     OW 9823   5.250   4.645   5.969
 1975SOL    HW1 9824   5.337   4.641   5.920
 1975SOL    HW2 9825   5.258   4.593   0.038
 1976SOL     OW 9826   2.023   5.399   1.307
 1976SOL    HW1 9827   2.109   5.449   1.315
 1976SOL    HW2 9828   1.976   5.427   1.223
 1977SOL     OW 9829   1.083   5.104   0.911
 1977SOL    HW1 9830   1.135   5.027   0.873
 1977SOL    HW2 9831   1.039   5.075   0.996
 1978SOL     OW 9832   2.881   0.324   0.191
 1978SOL    HW1 9833   2.960   0.385   0.188
 1978SOL    HW2 9834   2.850   0.304   0.098
 1979SOL     OW 9835   3.729   2.392   0.001
 1979SOL    HW1 9836   3.710   2.446   5.935
 1979SOL    HW2 9837   3.747   2.453   0.078
 1980SOL     OW 9838   0.340   3.289   4.835
 1980SOL    HW1 9839   0.282   3.231   4.778
 1980SOL    HW2 9840   0.289   3.315   4.918
 1981SOL     OW 9841   0.375   1.267   0.702
 1981SOL    HW1 9842   0.298   1.213   0.737
 1981SOL    HW2 9843   0.340   1.351   0.661
 1982SOL     OW 9844   2.381   2.199   1.092
 1982SOL    HW1 9845   2.378   2.139   1.012
 1982SOL    HW2 9846   2.345   2.151   1.172
 1983SOL     OW 9847   1.639   2.446   0.406
 1983SOL    HW1 9848   1.696   2.525   0.428
 1983SOL    HW2 9849   1.546   2.461   0.440
 1984SOL     OW 9850   1.838   2.170   1.322
 1984SOL    HW1 9851   1.909   2.115   1.367
 1984SOL    HW2 9852   1.771   2.199   1.390
 1985SOL     OW 9853   5.526   4.674   5.607
 1985SOL    HW1 9854   5.563   4.745   5.667
 1985SOL    HW2 9855   5.550   4.695   5.512
 1986SOL     OW 9856   1.583   3.683   5.383
 1986SOL    HW1 9857   1.647   3.646   5.315
 1986SOL    HW2 9858   1.516   3.613   5.407
 1987SOL     OW 9859   5.445   0.511   5.530
 1987SOL    HW1 9860   5.535   0.553   5.526
 1987SOL    HW2 9861   5.440   0.438   5.461
 1988SOL     OW 9862   0.859   3.798   4.811
 1988SOL    HW1 9863   0.768   3.831   4.786
 1988SOL    HW2 9864   0.921   3.810   4.733
 1989SOL     OW 9865   5.510   2.387   5.943
 1989SOL    HW1 9866   5.577   2.454   5.911
 1989SOL    HW2 9867   5.551   2.329   6.014
 1990SOL     OW 9868   2.516   3.387   4.713
 1990SOL    HW1 9869   2.436   3.328   4.726
 1990SOL    HW2 9870   2.567   3.355   4.633
 1991SOL     OW 9871   5.463   1.604   5.092
 1991SOL    HW1 9872   5.421   1.573   5.178
 1991SOL    HW2 9873   5.561   1.586   5.095
 1992SOL     OW 9874   2.469   4.926   5.587
 1992SOL    HW1 9875   2.413   4.953   5.509
 1992SOL    HW2 9876   2.535   4.857   5.558
 1993SOL     OW 9877   1.266   2.154   5.858
 1993SOL    HW1 9878   1.316   2.197   5.782
 1993SOL    HW2 9879   1.301   2.061   5.871
 1994SOL     OW 9880   3.520   1.277   4.701
 1994SOL    HW1 9881   3.597   1.340   4.690
 1994SOL    HW2 9882   3.518   1.212   4.625
 1995SOL     OW 9883   0.626   0.750   5.627
 1995SOL    HW1 9884   0.662   0.674   5.573
 1995SOL    HW2 9885   0.526   0.748   5.624
 1996SOL     OW 9886   4.979   0.355   0.703
 1996SOL    HW1 9887   4.919   0.428   0.671
 1996SOL    HW2 9888   4.939   0.312   0.784
 1997SOL     OW 9889   0.829   2.311   0.694
 1997SOL    HW1 9890   0.787   2.268   0.614
 1997SOL    HW2 9891   0.899   2.250   0.732
 1998SOL     OW 9892   5.025   4.426   4.909
 1998SOL    HW1 9893   5.048   4.383   4.822
 1998SOL    HW2 9894   4.933   4.466   4.903
 1999SOL     OW 9895   2.312   5.541   0.312
 1999SOL    HW1 9896   2.310   5.477   0.388
 1999SOL    HW2 9897   2.354   5.498   0.233
 2000SOL     OW 9898   2.672   3.579   1.179
 2000SOL    HW1 9899   2.698   3.615   1.269
 2000SOL    HW2 9900   2.719   3.493   1.163
 2001SOL     OW 9901   1.638   2.608   0.784
 2001SOL    HW1 9902   1.661   2.512   0.771
 2001SOL    HW2 9903   1.607   2.647   0.697
 2002SOL     OW 9904   5.697   2.467   5.243
 2002SOL    HW1 9905   0.071   2.407   5.239
 2002SOL    HW2 9906   5.686   2.514   5.155
 2003SOL     OW 9907   4.679   3.772   0.979
 2003SOL    HW1 9908   4.694   3.723   0.893
 2003SOL    HW2 9909   4.648   3.865   0.959
 2004SOL     OW 9910   1.711   0.036   4.599
 2004SOL    HW1 9911   1.660   0.043   4.513
 2004SOL    HW2 9912   1.747   0.125   4.624
 2005SOL     OW 9913   1.623   0.967   1.070
 2005SOL    HW1 9914   1.647   1.063   1.082
 2005SOL    HW2 9915   1.656   0.914   1.149
 2006SOL     OW 9916   2.243   2.043   4.949
 2006SOL    HW1 9917   2.331   2.026   4.903
 2006SOL    HW2 9918   2.256   2.112   5.020
 2007SOL     OW 9919   1.731   5.004   1.154
 2007SOL    HW1 9920   1.733   5.039   1.060
 2007SOL    HW2 9921   1.789   5.061   1.212
 2008SOL     OW 9922   5.622   1.072   5.157
 2008SOL    HW1 9923   0.008   1.059   5.119
 2008SOL    HW2 9924   5.569   0.988   5.147
 2009SOL     OW 9925   5.181   2.360   4.136
 2009SOL    HW1 9926   5.243   2.282   4.127
 2009SOL    HW2 9927   5.127   2.350   4.220
 2010SOL     OW 9928   4.428   1.561   1.379
 2010SOL    HW1 9929   4.399   1.650   1.415
 2010SOL    HW2 9930   4.374   1.539   1.298
 2011SOL     OW 9931   0.847   2.842   4.333
 2011SOL    HW1 9932   0.771   2.794   4.379
 2011SOL    HW2 9933   0.819   2.935   4.311
 2012SOL     OW 9934   2.053   2.628   1.506
 2012SOL    HW1 9935   2.124   2.614   1.575
 2012SOL    HW2 9936   1.965   2.595   1.540
 2013SOL     OW 9937   5.317   0.370   4.566
 2013SOL    HW1 9938   5.266   0.315   4.501
 2013SOL    HW2 9939   5.315   0.466   4.538
 2014SOL     OW 9940   3.406   1.829   1.789
 2014SOL    HW1 9941   3.415   1.747   1.846
 2014SOL    HW2 9942   3.452   1.815   1.702
 2015SOL     OW 9943   2.689   5.187   5.360
 2015SOL    HW1 9944   2.646   5.183   5.450
 2015SOL    HW2 9945   2.773   5.241   5.366
 2016SOL     OW 9946   3.394   3.600   0.777
 2016SOL    HW1 9947   3.367   3.518   0.828
 2016SOL    HW2 9948   3.434   3.572   0.689
 2017SOL     OW 9949   1.382   0.862   0.262
 2017SOL    HW1 9950   1.376   0.961   0.271
 2017SOL    HW2 9951   1.297   0.826   0.225
 2018SOL     OW 9952   5.127   4.473   1.393
 2018SOL    HW1 9953   5.100   4.514   1.480
 2018SOL    HW2 9954   5.223   4.445   1.397
 2019SOL     OW 9955   1.032   3.329   1.081
 2019SOL    HW1 9956   1.024   3.247   1.024
 2019SOL    HW2 9957   1.116   3.325   1.134
 2020SOL     OW 9958   1.201   0.925   5.235
 2020SOL    HW1 9959   1.243   0.844   5.195
 2020SOL    HW2 9960   1.105   0.905   5.257
 2021SOL     OW 9961   0.265   0.420   4.599
 2021SOL    HW1 9962   0.178   0.372   4.589
 2021SOL    HW2 9963   0.266   0.501   4.541
 2022SOL     OW 9964   0.708   0.253   4.992
 2022SOL    HW1 9965   0.631   0.317   4.990
 2022SOL    HW2 9966   0.730   0.223   4.899
 2023SOL     OW 9967   2.557   1.617   0.351
 2023SOL    HW1 9968   2.575   1.708   0.389
 2023SOL    HW2 9969   2.525   1.557   0.424
 2024SOL     OW 9970   2.353   5.081   4.971
 2024SOL    HW1 9971   2.285   5.086   5.044
 2024SOL    HW2 9972   2.360   5.170   4.926
 2025SOL     OW 9973   0.986   0.341   0.029
 2025SOL    HW1 9974   1.036   0.264   6.003
 2025SOL    HW2 9975   1.047   0.393   0.088
 2026SOL     OW 9976   5.171   2.624   0.454
 2026SOL    HW1 9977   5.143   2.629   0.358
 2026SOL    HW2 9978   5.129   2.544   0.497
 2027SOL     OW 9979   4.863   1.007   5.431
 2027SOL    HW1 9980   4.884   0.988   5.336
 2027SOL    HW2 9981   4.799   1.084   5.437
 2028SOL     OW 9982   3.051   1.151   0.286
 2028SOL    HW1 9983   3.116   1.227   0.281
 2028SOL    HW2 9984   3.014   1.132   0.195
 2029SOL     OW 9985   0.003   0.366   5.621
 2029SOL    HW1 9986   0.089   0.334   5.662
 2029SOL    HW2 9987   0.017   0.457   5.582
 2030SOL     OW 9988   1.457   0.344   5.439
 2030SOL    HW1 9989   1.373   0.319   5.392
 2030SOL    HW2 9990   1.523   0.269   5.434
 2031SOL     OW 9991   0.302   0.780   4.923
 2031SOL    HW1 9992   0.383   0.833   4.948
 2031SOL    HW2 9993   0.331   0.690   4.890
 2032SOL     OW 9994   2.598   2.293   0.254
 2032SOL    HW1 9995   2.610   2.285   0.155
 2032SOL    HW2 9996   2.679   2.256   0.300
 2033SOL     OW 9997   3.400   1.714   1.085
 2033SOL    HW1 9998   3.486   1.716   1.134
 2033SOL    HW2 9999   3.353   1.802   1.096
 2034SOL     OW10000   3.027   3.502   0.440
 2034SOL    HW110001   2.983   3.426   0.393
 2034SOL    HW210002   3.122   3.479   0.462
 2035SOL     OW10003   3.819   0.619   0.958
 2035SOL    HW110004   3.834   0.547   0.890
 2035SOL    HW210005   3.730   0.605   1.001
 2036SOL     OW10006   2.214   1.210   0.203
 2036SOL    HW110007   2.222   1.170   0.295
 2036SOL    HW210008   2.137   1.274   0.201
 2037SOL     OW10009   1.324   5.047   0.060
 2037SOL    HW110010   1.271   5.096   0.130
 2037SOL    HW210011   1.419   5.080   0.061
 2038SOL     OW10012   2.479   0.016   4.562
 2038SOL    HW110013   2.520   5.631   4.480
 2038SOL    HW210014   2.551   0.041   4.626
 2039SOL     OW10015   0.596   5.381   5.437
 2039SOL    HW110016   0.688   5.395   5.474
 2039SOL    HW210017   0.530   5.423   5.499
 2040SOL     OW10018   3.062   2.367   0.559
 2040SOL    HW110019   3.152   2.328   0.541
 2040SOL    HW210020   2.998   2.293   0.583
 2041SOL     OW10021   3.852   0.137   5.201
 2041SOL    HW110022   3.904   0.137   5.116
 2041SOL    HW210023   3.906   0.179   5.274
 2042SOL     OW10024   4.093   3.407   0.365
 2042SOL    HW110025   4.096   3.358   0.278
 2042SOL    HW210026   4.097   3.505   0.349
 2043SOL     OW10027   1.983   2.857   5.040
 2043SOL    HW110028   1.942   2.940   5.077
 2043SOL    HW210029   2.063   2.881   4.984
 2044SOL     OW10030   0.483   5.226   0.457
 2044SOL    HW110031   0.469   5.311   0.508
 2044SOL    HW210032   0.556   5.237   0.391
 2045SOL     OW10033   0.511   2.904   1.775
 2045SOL    HW110034   0.447   2.849   1.829
 2045SOL    HW210035   0.587   2.933   1.833
 2046SOL     OW10036   2.478   2.961   1.106
 2046SOL    HW110037   2.539   2.915   1.043
 2046SOL    HW210038   2.516   3.051   1.130
 2047SOL     OW10039   4.138   3.267   0.134
 2047SOL    HW110040   4.095   3.244   0.047
 2047SOL    HW210041   4.183   3.186   0.171
 2048SOL     OW10042   1.459   1.688   0.424
 2048SOL    HW110043   1.359   1.680   0.428
 2048SOL    HW210044   1.487   1.779   0.454
 2049SOL     OW10045   2.272   0.720   1.139
 2049SOL    HW110046   2.269   0.633   1.189
 2049SOL    HW210047   2.364   0.733   1.101
 2050SOL     OW10048   5.326   1.544   0.609
 2050SOL    HW110049   5.249   1.503   0.660
 2050SOL    HW210050   5.332   1.502   0.519
 2051SOL     OW10051   5.092   5.545   4.989
 2051SOL    HW110052   5.169   5.494   5.026
 2051SOL    HW210053   5.119   5.589   4.903
 2052SOL     OW10054   2.408   0.845   0.335
 2052SOL    HW110055   2.341   0.824   0.264
 2052SOL    HW210056   2.490   0.885   0.294
 2053SOL     OW10057   2.832   0.078   5.317
 2053SOL    HW110058   2.816   0.123   5.404
 2053SOL    HW210059   2.765   0.110   5.250
 2054SOL     OW10060   0.257   1.860   5.081
 2054SOL    HW110061   0.316   1.934   5.050
 2054SOL    HW210062   0.293   1.820   5.165
 2055SOL     OW10063   4.690   4.395   1.383
 2055SOL    HW110064   4.691   4.335   1.463
 2055SOL    HW210065   4.727   4.484   1.408
 2056SOL     OW10066   2.535   1.807   0.931
 2056SOL    HW110067   2.485   1.785   1.015
 2056SOL    HW210068   2.631   1.781   0.942
 2057SOL     OW10069   0.077   0.866   5.423
 2057SOL    HW110070   0.104   0.846   5.328
 2057SOL    HW210071   0.150   0.917   5.468
 2058SOL     OW10072   5.677   5.379   5.371
 2058SOL    HW110073   5.596   5.433   5.349
 2058SOL    HW210074   5.699   5.319   5.294
 2059SOL     OW10075   2.241   3.718   5.775
 2059SOL    HW110076   2.208   3.726   5.681
 2059SOL    HW210077   2.164   3.722   5.839
 2060SOL     OW10078   0.378   5.167   0.068
 2060SOL    HW110079   0.356   5.158   0.165
 2060SOL    HW210080   0.465   5.215   0.058
 2061SOL     OW10081   3.926   2.972   5.494
 2061SOL    HW110082   3.951   3.069   5.497
 2061SOL    HW210083   3.836   2.961   5.452
 2062SOL     OW10084   4.950   4.552   0.784
 2062SOL    HW110085   5.035   4.535   0.835
 2062SOL    HW210086   4.876   4.498   0.825
 2063SOL     OW10087   1.810   2.431   1.846
 2063SOL    HW110088   1.853   2.518   1.870
 2063SOL    HW210089   1.739   2.409   1.914
 2064SOL     OW10090   1.589   2.395   5.039
 2064SOL    HW110091   1.544   2.308   5.058
 2064SOL    HW210092   1.520   2.464   5.016
 2065SOL     OW10093   3.543   1.646   0.224
 2065SOL    HW110094   3.581   1.682   0.309
 2065SOL    HW210095   3.529   1.547   0.233
 2066SOL     OW10096   4.244   2.260   0.489
 2066SOL    HW110097   4.266   2.357   0.482
 2066SOL    HW210098   4.329   2.209   0.507
 2067SOL     OW10099   3.499   3.928   1.095
 2067SOL    HW110100   3.440   3.916   1.015
 2067SOL    HW210101   3.451   3.981   1.165
 2068SOL     OW10102   5.105   0.184   1.302
 2068SOL    HW110103   5.125   0.128   1.382
 2068SOL    HW210104   5.164   0.264   1.302
 2069SOL     OW10105   4.104   3.098   0.892
 2069SOL    HW110106   4.172   3.029   0.867
 2069SOL    HW210107   4.014   3.070   0.859
 2070SOL     OW10108   5.390   1.936   1.076
 2070SOL    HW110109   5.385   1.841   1.047
 2070SOL    HW210110   5.309   1.960   1.129
 2071SOL     OW10111   4.997   2.777   4.862
 2071SOL    HW110112   4.936   2.741   4.792
 2071SOL    HW210113   5.021   2.704   4.927
 2072SOL     OW10114   4.837   3.506   5.280
 2072SOL    HW110115   4.846   3.605   5.263
 2072SOL    HW210116   4.890   3.482   5.362
 2073SOL     OW10117   2.019   5.378   2.201
 2073SOL    HW110118   1.943   5.428   2.243
 2073SOL    HW210119   1.990   5.284   2.182
 2074SOL     OW10120   5.366   2.361   4.980
 2074SOL    HW110121   5.379   2.454   4.946
 2074SOL    HW210122   5.301   2.312   4.922
 2075SOL     OW10123   4.200   2.038   0.863
 2075SOL    HW110124   4.215   2.043   0.962
 2075SOL    HW210125   4.286   2.016   0.817
 2076SOL     OW10126   4.975   2.980   5.349
 2076SOL    HW110127   4.886   2.946   5.319
 2076SOL    HW210128   5.021   3.024   5.272
 2077SOL     OW10129   0.136   4.172   4.425
 2077SOL    HW110130   0.200   4.116   4.373
 2077SOL    HW210131   0.145   4.267   4.398
 2078SOL     OW10132   3.921   1.692   5.554
 2078SOL    HW110133   3.870   1.761   5.605
 2078SOL    HW210134   3.977   1.737   5.484
 2079SOL     OW10135   3.229   0.209   0.139
 2079SOL    HW110136   3.304   0.236   0.199
 2079SOL    HW210137   3.237   0.112   0.116
 2080SOL     OW10138   5.647   2.601   5.016
 2080SOL    HW110139   5.689   2.691   5.012
 2080SOL    HW210140   5.556   2.605   4.976
 2081SOL     OW10141   2.780   1.208   5.852
 2081SOL    HW110142   2.795   1.250   5.762
 2081SOL    HW210143   2.778   1.109   5.843
 2082SOL     OW10144   5.199   0.769   0.372
 2082SOL    HW110145   5.241   0.694   0.423
 2082SOL    HW210146   5.223   0.761   0.275
 2083SOL     OW10147   0.724   1.762   5.830
 2083SOL    HW110148   0.716   1.818   5.747
 2083SOL    HW210149   0.771   1.814   5.901
 2084SOL     OW10150   1.199   2.535   4.234
 2084SOL    HW110151   1.162   2.622   4.267
 2084SOL    HW210152   1.124   2.477   4.200
 2085SOL     OW10153   1.130   2.171   5.070
 2085SOL    HW110154   1.080   2.254   5.095
 2085SOL    HW210155   1.075   2.091   5.095
 2086SOL     OW10156   3.992   2.439   4.952
 2086SOL    HW110157   4.015   2.475   4.862
 2086SOL    HW210158   4.065   2.460   5.016
 2087SOL     OW10159   4.858   4.650   5.706
 2087SOL    HW110160   4.898   4.741   5.696
 2087SOL    HW210161   4.910   4.599   5.775
 2088SOL     OW10162   5.229   4.989   5.524
 2088SOL    HW110163   5.298   5.043   5.475
 2088SOL    HW210164   5.267   4.956   5.610
 2089SOL     OW10165   2.418   3.892   4.853
 2089SOL    HW110166   2.359   3.865   4.778
 2089SOL    HW210167   2.384   3.852   4.938
 2090SOL     OW10168   5.613   3.581   0.116
 2090SOL    HW110169   5.621   3.496   0.063
 2090SOL    HW210170   5.605   3.659   0.053
 2091SOL     OW10171   0.944   2.602   0.111
 2091SOL    HW110172   0.975   2.567   0.199
 2091SOL    HW210173   1.001   2.565   0.038
 2092SOL     OW10174   2.574   4.438   0.894
 2092SOL    HW110175   2.485   4.402   0.921
 2092SOL    HW210176   2.631   4.363   0.861
 2093SOL     OW10177   2.051   1.325   4.568
 2093SOL    HW110178   2.041   1.297   4.472
 2093SOL    HW210179   2.143   1.305   4.600
 2094SOL     OW10180   2.858   2.644   1.043
 2094SOL    HW110181   2.901   2.674   1.128
 2094SOL    HW210182   2.906   2.685   0.965
 2095SOL     OW10183   1.982   1.673   1.162
 2095SOL    HW110184   1.888   1.698   1.139
 2095SOL    HW210185   2.045   1.716   1.097
 2096SOL     OW10186   2.074   4.128   0.102
 2096SOL    HW110187   2.146   4.141   0.034
 2096SOL    HW210188   2.065   4.211   0.157
 2097SOL     OW10189   0.871   1.247   0.471
 2097SOL    HW110190   0.935   1.181   0.510
 2097SOL    HW210191   0.788   1.251   0.526
 2098SOL     OW10192   1.445   2.202   0.707
 2098SOL    HW110193   1.522   2.211   0.643
 2098SOL    HW210194   1.468   2.248   0.793
 2099SOL     OW10195   0.441   4.757   2.094
 2099SOL    HW110196   0.491   4.823   2.150
 2099SOL    HW210197   0.445   4.667   2.137
 2100SOL     OW10198   1.437   5.161   1.562
 2100SOL    HW110199   1.381   5.158   1.479
 2100SOL    HW210200   1.501   5.237   1.556
 2101SOL     OW10201   0.875   3.079   0.290
 2101SOL    HW110202   0.905   3.156   0.346
 2101SOL    HW210203   0.816   3.112   0.216
 2102SOL     OW10204   1.914   0.789   4.984
 2102SOL    HW110205   1.902   0.697   4.946
 2102SOL    HW210206   1.886   0.856   4.916
 2103SOL     OW10207   0.990   5.150   5.842
 2103SOL    HW110208   0.896   5.179   5.820
 2103SOL    HW210209   0.988   5.056   5.877
 2104SOL     OW10210   2.999   4.749   1.082
 2104SOL    HW110211   2.935   4.718   1.152
 2104SOL    HW210212   2.982   4.846   1.062
 2105SOL     OW10213   4.927   5.077   5.231
 2105SOL    HW110214   4.879   5.067   5.319
 2105SOL    HW210215   4.971   5.167   5.227
 2106SOL     OW10216   5.321   4.944   0.189
 2106SOL    HW110217   5.381   4.997   0.129
 2106SOL    HW210218   5.376   4.882   0.245
 2107SOL     OW10219   5.336   2.848   0.202
 2107SOL    HW110220   5.421   2.874   0.248
 2107SOL    HW210221   5.269   2.921   0.212
 2108SOL     OW10222   4.279   5.439   5.738
 2108SOL    HW110223   4.215   5.514   5.756
 2108SOL    HW210224   4.283   5.421   5.640
 2109SOL     OW10225   3.192   3.084   0.011
 2109SOL    HW110226   3.236   3.128   5.947
 2109SOL    HW210227   3.256   3.086   0.088
 2110SOL     OW10228   0.893   4.338   5.031
 2110SOL    HW110229   0.836   4.391   5.093
 2110SOL    HW210230   0.840   4.262   4.993
 2111SOL     OW10231   0.495   5.033   0.650
 2111SOL    HW110232   0.494   5.104   0.579
 2111SOL    HW210233   0.589   5.000   0.663
 2112SOL     OW10234   4.329   1.834   5.375
 2112SOL    HW110235   4.377   1.752   5.346
 2112SOL    HW210236   4.361   1.860   5.466
 2113SOL     OW10237   4.548   1.639   5.514
 2113SOL    HW110238   4.613   1.707   5.483
 2113SOL    HW210239   4.503   1.597   5.435
 2114SOL     OW10240   1.736   4.527   5.721
 2114SOL    HW110241   1.646   4.570   5.712
 2114SOL    HW210242   1.726   4.441   5.773
 2115SOL     OW10243   2.357   2.476   0.548
 2115SOL    HW110244   2.385   2.387   0.585
 2115SOL    HW210245   2.414   2.498   0.469
 2116SOL     OW10246   1.716   4.233   0.847
 2116SOL    HW110247   1.628   4.235   0.895
 2116SOL    HW210248   1.776   4.304   0.883
 2117SOL     OW10249   5.587   3.074   5.655
 2117SOL    HW110250   5.489   3.069   5.674
 2117SOL    HW210251   5.625   2.982   5.647
 2118SOL     OW10252   5.690   0.382   0.912
 2118SOL    HW110253   5.590   0.388   0.908
 2118SOL    HW210254   0.012   0.308   0.974
 2119SOL     OW10255   3.755   4.506   4.610
 2119SOL    HW110256   3.749   4.539   4.516
 2119SOL    HW210257   3.813   4.568   4.664
 2120SOL     OW10258   3.764   1.890   0.841
 2120SOL    HW110259   3.850   1.839   0.835
 2120SOL    HW210260   3.764   1.947   0.922
 2121SOL     OW10261   1.985   1.597   0.126
 2121SOL    HW110262   1.901   1.632   0.167
 2121SOL    HW210263   1.996   1.500   0.148
 2122SOL     OW10264   4.132   0.927   1.103
 2122SOL    HW110265   4.214   0.892   1.057
 2122SOL    HW210266   4.159   0.971   1.189
 2123SOL     OW10267   4.336   5.398   5.464
 2123SOL    HW110268   4.404   5.325   5.458
 2123SOL    HW210269   4.378   5.485   5.437
 2124SOL     OW10270   0.736   1.911   5.592
 2124SOL    HW110271   0.739   1.839   5.522
 2124SOL    HW210272   0.718   1.999   5.548
 2125SOL     OW10273   3.900   2.957   4.997
 2125SOL    HW110274   3.967   2.891   5.031
 2125SOL    HW210275   3.947   3.037   4.959
 2126SOL     OW10276   4.726   4.013   1.335
 2126SOL    HW110277   4.657   3.941   1.339
 2126SOL    HW210278   4.740   4.050   1.427
 2127SOL     OW10279   1.868   5.074   0.259
 2127SOL    HW110280   1.819   5.001   0.211
 2127SOL    HW210281   1.860   5.059   0.357
 2128SOL     OW10282   1.099   4.857   4.787
 2128SOL    HW110283   1.161   4.789   4.748
 2128SOL    HW210284   1.005   4.824   4.781
 2129SOL     OW10285   2.171   3.393   1.423
 2129SOL    HW110286   2.172   3.487   1.455
 2129SOL    HW210287   2.101   3.382   1.353
 2130SOL     OW10288   4.914   2.929   0.590
 2130SOL    HW110289   5.007   2.895   0.597
 2130SOL    HW210290   4.883   2.961   0.680
 2131SOL     OW10291   1.768   2.903   1.881
 2131SOL    HW110292   1.814   2.961   1.947
 2131SOL    HW210293   1.670   2.898   1.903
 2132SOL     OW10294   3.535   0.828   5.190
 2132SOL    HW110295   3.535   0.927   5.171
 2132SOL    HW210296   3.590   0.782   5.120
 2133SOL     OW10297   2.045   3.145   1.081
 2133SOL    HW110298   2.091   3.057   1.095
 2133SOL    HW210299   1.955   3.130   1.041
 2134SOL     OW10300   0.201   4.865   2.014
 2134SOL    HW110301   0.287   4.822   2.044
 2134SOL    HW210302   0.125   4.803   2.034
 2135SOL     OW10303   2.073   2.820   4.650
 2135SOL    HW110304   2.022   2.890   4.599
 2135SOL    HW210305   2.117   2.758   4.586
 2136SOL     OW10306   4.377   5.399   1.139
 2136SOL    HW110307   4.438   5.320   1.139
 2136SOL    HW210308   4.306   5.386   1.209
 2137SOL     OW10309   0.391   5.430   0.630
 2137SOL    HW110310   0.391   5.523   0.665
 2137SOL    HW210311   0.297   5.395   0.625
 2138SOL     OW10312   0.652   4.930   0.283
 2138SOL    HW110313   0.562   4.899   0.312
 2138SOL    HW210314   0.651   5.029   0.269
 2139SOL     OW10315   2.623   4.072   0.602
 2139SOL    HW110316   2.548   4.133   0.577
 2139SOL    HW210317   2.698   4.084   0.537
 2140SOL     OW10318   2.291   3.783   5.067
 2140SOL    HW110319   2.205   3.826   5.095
 2140SOL    HW210320   2.272   3.696   5.023
 2141SOL     OW10321   5.463   1.254   0.704
 2141SOL    HW110322   5.379   1.240   0.652
 2141SOL    HW210323   5.536   1.285   0.643
 2142SOL     OW10324   0.284   0.707   1.217
 2142SOL    HW110325   0.234   0.635   1.265
 2142SOL    HW210326   0.220   0.763   1.165
 2143SOL     OW10327   2.408   5.260   5.322
 2143SOL    HW110328   2.366   5.317   5.252
 2143SOL    HW210329   2.506   5.253   5.305
 2144SOL     OW10330   5.694   3.502   0.890
 2144SOL    HW110331   5.646   3.513   0.977
 2144SOL    HW210332   5.652   3.561   0.821
 2145SOL     OW10333   4.244   3.558   5.304
 2145SOL    HW110334   4.308   3.518   5.370
 2145SOL    HW210335   4.269   3.529   5.212
 2146SOL     OW10336   3.873   5.064   4.637
 2146SOL    HW110337   3.945   4.994   4.644
 2146SOL    HW210338   3.820   5.049   4.554
 2147SOL     OW10339   1.453   1.565   0.105
 2147SOL    HW110340   1.504   1.648   0.085
 2147SOL    HW210341   1.481   1.530   0.194
 2148SOL     OW10342   4.008   0.179   4.981
 2148SOL    HW110343   4.007   0.146   4.887
 2148SOL    HW210344   4.102   0.202   5.007
 2149SOL     OW10345   5.611   1.321   1.119
 2149SOL    HW110346   5.595   1.396   1.182
 2149SOL    HW210347   5.528   1.301   1.068
 2150SOL     OW10348   0.486   4.124   4.598
 2150SOL    HW110349   0.500   4.121   4.499
 2150SOL    HW210350   0.393   4.156   4.617
 2151SOL     OW10351   0.819   4.433   5.471
 2151SOL    HW110352   0.908   4.394   5.447
 2151SOL    HW210353   0.823   4.469   5.564
 2152SOL     OW10354   0.274   4.496   1.087
 2152SOL    HW110355   0.342   4.530   1.022
 2152SOL    HW210356   0.314   4.492   1.178
 2153SOL     OW10357   0.044   4.939   0.274
 2153SOL    HW110358   0.117   4.999   0.307
 2153SOL    HW210359   5.675   4.935   0.341
 2154SOL     OW10360   4.326   1.584   5.690
 2154SOL    HW110361   4.400   1.604   5.626
 2154SOL    HW210362   4.319   1.658   5.758
 2155SOL     OW10363   2.407   5.589   5.960
 2155SOL    HW110364   2.375   5.552   5.873
 2155SOL    HW210365   2.419   5.515   0.010
 2156SOL     OW10366   4.459   0.467   0.328
 2156SOL    HW110367   4.379   0.424   0.369
 2156SOL    HW210368   4.537   0.404   0.332
 2157SOL     OW10369   0.778   2.330   0.971
 2157SOL    HW110370   0.867   2.333   1.017
 2157SOL    HW210371   0.792   2.333   0.872
 2158SOL     OW10372   2.426   1.661   5.408
 2158SOL    HW110373   2.384   1.576   5.374
 2158SOL    HW210374   2.483   1.640   5.487
 2159SOL     OW10375   4.725   1.811   5.391
 2159SOL    HW110376   4.697   1.849   5.303
 2159SOL    HW210377   4.752   1.885   5.453
 2160SOL     OW10378   0.209   3.503   5.541
 2160SOL    HW110379   0.133   3.488   5.604
 2160SOL    HW210380   0.278   3.432   5.555
 2161SOL     OW10381   3.146   2.541   0.748
 2161SOL    HW110382   3.151   2.480   0.827
 2161SOL    HW210383   3.113   2.490   0.669
 2162SOL     OW10384   0.684   1.937   5.124
 2162SOL    HW110385   0.633   1.979   5.199
 2162SOL    HW210386   0.651   1.845   5.108
 2163SOL     OW10387   3.665   2.678   1.431
 2163SOL    HW110388   3.726   2.600   1.413
 2163SOL    HW210389   3.616   2.662   1.517
 2164SOL     OW10390   4.939   3.861   0.729
 2164SOL    HW110391   4.960   3.830   0.637
 2164SOL    HW210392   4.850   3.906   0.729
 2165SOL     OW10393   5.412   4.494   4.929
 2165SOL    HW110394   5.507   4.485   4.897
 2165SOL    HW210395   5.371   4.403   4.935
 2166SOL     OW10396   2.542   0.377   1.795
 2166SOL    HW110397   2.481   0.417   1.863
 2166SOL    HW210398   2.634   0.368   1.833
 2167SOL     OW10399   2.273   4.310   5.246
 2167SOL    HW110400   2.269   4.404   5.279
 2167SOL    HW210401   2.354   4.299   5.188
 2168SOL     OW10402   5.658   0.297   5.937
 2168SOL    HW110403   5.659   0.208   5.892
 2168SOL    HW210404   0.045   0.317   5.971
 2169SOL     OW10405   3.434   0.268   0.319
 2169SOL    HW110406   3.467   0.361   0.301
 2169SOL    HW210407   3.378   0.269   0.402
 2170SOL     OW10408   0.256   4.304   0.283
 2170SOL    HW110409   0.253   4.204   0.284
 2170SOL    HW210410   0.334   4.335   0.228
 2171SOL     OW10411   0.345   2.535   4.902
 2171SOL    HW110412   0.376   2.479   4.824
 2171SOL    HW210413   0.294   2.614   4.868
 2172SOL     OW10414   1.393   2.472   0.515
 2172SOL    HW110415   1.366   2.557   0.559
 2172SOL    HW210416   1.317   2.407   0.518
 2173SOL     OW10417   4.790   0.062   4.072
 2173SOL    HW110418   4.700   0.094   4.105
 2173SOL    HW210419   4.797   5.618   4.087
 2174SOL     OW10420   1.441   1.161   6.008
 2174SOL    HW110421   1.401   1.084   5.959
 2174SOL    HW210422   1.427   1.245   5.956
 2175SOL     OW10423   2.392   2.042   0.865
 2175SOL    HW110424   2.450   1.962   0.881
 2175SOL    HW210425   2.299   2.012   0.845
 2176SOL     OW10426   0.504   4.010   5.388
 2176SOL    HW110427   0.548   4.092   5.425
 2176SOL    HW210428   0.537   3.994   5.295
 2177SOL     OW10429   4.984   5.609   1.733
 2177SOL    HW110430   4.910   5.542   1.741
 2177SOL    HW210431   5.017   5.634   1.824
 2178SOL     OW10432   1.985   1.476   1.895
 2178SOL    HW110433   1.953   1.546   1.958
 2178SOL    HW210434   2.084   1.464   1.906
 2179SOL     OW10435   2.083   0.051   1.038
 2179SOL    HW110436   2.172   0.034   1.082
 2179SOL    HW210437   2.096   0.105   0.955
 2180SOL     OW10438   2.855   1.338   4.875
 2180SOL    HW110439   2.874   1.258   4.931
 2180SOL    HW210440   2.931   1.403   4.883
 2181SOL     OW10441   5.114   4.323   5.651
 2181SOL    HW110442   5.043   4.365   5.595
 2181SOL    HW210443   5.200   4.374   5.640
 2182SOL     OW10444   5.198   5.474   5.885
 2182SOL    HW110445   5.269   5.539   5.911
 2182SOL    HW210446   5.164   5.496   5.793
 2183SOL     OW10447   1.103   1.405   0.698
 2183SOL    HW110448   1.168   1.331   0.679
 2183SOL    HW210449   1.064   1.438   0.612
 2184SOL     OW10450   2.751   5.623   0.255
 2184SOL    HW110451   2.812   0.033   0.300
 2184SOL    HW210452   2.797   5.534   0.248
 2185SOL     OW10453   1.470   2.529   0.028
 2185SOL    HW110454   1.439   2.624   0.032
 2185SOL    HW210455   1.560   2.522   0.070
 2186SOL     OW10456   3.363   2.690   0.691
 2186SOL    HW110457   3.366   2.705   0.592
 2186SOL    HW210458   3.286   2.630   0.713
 2187SOL     OW10459   0.531   4.137   2.005
 2187SOL    HW110460   0.449   4.092   1.969
 2187SOL    HW210461   0.590   4.069   2.048
 2188SOL     OW10462   5.010   3.691   1.318
 2188SOL    HW110463   5.108   3.709   1.319
 2188SOL    HW210464   4.967   3.745   1.246
 2189SOL     OW10465   2.785   1.470   1.151
 2189SOL    HW110466   2.717   1.442   1.084
 2189SOL    HW210467   2.861   1.406   1.151
 2190SOL     OW10468   3.630   1.719   1.235
 2190SOL    HW110469   3.687   1.679   1.163
 2190SOL    HW210470   3.621   1.653   1.311
 2191SOL     OW10471   3.303   2.232   0.539
 2191SOL    HW110472   3.283   2.138   0.565
 2191SOL    HW210473   3.397   2.254   0.564
 2192SOL     OW10474   2.402   4.220   0.525
 2192SOL    HW110475   2.320   4.163   0.532
 2192SOL    HW210476   2.422   4.239   0.429
 2193SOL     OW10477   3.251   5.025   5.485
 2193SOL    HW110478   3.175   4.982   5.435
 2193SOL    HW210479   3.233   5.019   5.583
 2194SOL     OW10480   0.052   4.463   5.566
 2194SOL    HW110481   0.063   4.481   5.469
 2194SOL    HW210482   0.070   4.546   5.618
 2195SOL     OW10483   4.324   1.787   5.877
 2195SOL    HW110484   4.409   1.829   5.910
 2195SOL    HW210485   4.262   1.770   5.954
 2196SOL     OW10486   2.341   5.320   4.837
 2196SOL    HW110487   2.356   5.353   4.744
 2196SOL    HW210488   2.259   5.362   4.875
 2197SOL     OW10489   0.889   4.099   0.645
 2197SOL    HW110490   0.981   4.112   0.683
 2197SOL    HW210491   0.824   4.157   0.694
 2198SOL     OW10492   4.367   1.262   0.637
 2198SOL    HW110493   4.309   1.233   0.561
 2198SOL    HW210494   4.459   1.227   0.623
 2199SOL     OW10495   3.401   5.607   5.847
 2199SOL    HW110496   3.340   5.583   5.771
 2199SOL    HW210497   3.494   5.580   5.823
 2200SOL     OW10498   5.118   2.709   1.082
 2200SOL    HW110499   5.046   2.759   1.129
 2200SOL    HW210500   5.146   2.630   1.137
 2201SOL     OW10501   2.422   3.624   1.054
 2201SOL    HW110502   2.339   3.599   1.103
 2201SOL    HW210503   2.502   3.599   1.109
 2202SOL     OW10504   0.700   3.167   0.094
 2202SOL    HW110505   0.618   3.175   0.152
 2202SOL    HW210506   0.688   3.091   0.031
 2203SOL     OW10507   0.780   0.908   0.993
 2203SOL    HW110508   0.856   0.966   0.967
 2203SOL    HW210509   0.696   0.942   0.952
 2204SOL     OW10510   5.614   4.877   5.779
 2204SOL    HW110511   5.660   4.909   5.862
 2204SOL    HW210512   5.521   4.913   5.776
 2205SOL     OW10513   2.617   2.747   5.932
 2205SOL    HW110514   2.592   2.774   5.839
 2205SOL    HW210515   2.558   2.794   5.997
 2206SOL     OW10516   2.892   3.288   5.771
 2206SOL    HW110517   2.938   3.376   5.768
 2206SOL    HW210518   2.822   3.289   5.843
 2207SOL     OW10519   5.059   2.735   5.476
 2207SOL    HW110520   5.020   2.808   5.420
 2207SOL    HW210521   5.007   2.650   5.461
 2208SOL     OW10522   4.565   3.796   1.365
 2208SOL    HW110523   4.637   3.729   1.384
 2208SOL    HW210524   4.478   3.761   1.400
 2209SOL     OW10525   2.103   2.194   0.001
 2209SOL    HW110526   2.079   2.266   5.951
 2209SOL    HW210527   2.201   2.176   6.012
 2210SOL     OW10528   1.648   2.191   0.516
 2210SOL    HW110529   1.734   2.149   0.488
 2210SOL    HW210530   1.643   2.284   0.479
 2211SOL     OW10531   1.903   1.728   4.304
 2211SOL    HW110532   1.953   1.714   4.219
 2211SOL    HW210533   1.807   1.748   4.284
 2212SOL     OW10534   0.576   5.407   0.834
 2212SOL    HW110535   0.537   5.392   0.924
 2212SOL    HW210536   0.505   5.396   0.764
 2213SOL     OW10537   1.586   2.637   4.831
 2213SOL    HW110538   1.501   2.620   4.881
 2213SOL    HW210539   1.654   2.674   4.893
 2214SOL     OW10540   3.101   5.268   0.421
 2214SOL    HW110541   3.173   5.334   0.440
 2214SOL    HW210542   3.115   5.229   0.330
 2215SOL     OW10543   0.174   1.485   4.743
 2215SOL    HW110544   0.212   1.568   4.786
 2215SOL    HW210545   0.249   1.431   4.704
 2216SOL     OW10546   2.264   4.453   0.577
 2216SOL    HW110547   2.320   4.371   0.571
 2216SOL    HW210548   2.244   4.487   0.486
 2217SOL     OW10549   4.012   4.423   5.793
 2217SOL    HW110550   3.959   4.506   5.778
 2217SOL    HW210551   3.956   4.355   5.839
 2218SOL     OW10552   2.639   2.578   5.061
 2218SOL    HW110553   2.640   2.486   5.021
 2218SOL    HW210554   2.588   2.576   5.147
 2219SOL     OW10555   1.801   2.764   0.944
 2219SOL    HW110556   1.899   2.753   0.927
 2219SOL    HW210557   1.750   2.697   0.889
 2220SOL     OW10558   3.289   0.511   1.431
 2220SOL    HW110559   3.253   0.586   1.375
 2220SOL    HW210560   3.218   0.481   1.495
 2221SOL     OW10561   2.033   5.321   1.574
 2221SOL    HW110562   2.018   5.347   1.478
 2221SOL    HW210563   2.131   5.315   1.592
 2222SOL     OW10564   0.847   4.802   5.356
 2222SOL    HW110565   0.878   4.745   5.280
 2222SOL    HW210566   0.927   4.836   5.407
 2223SOL     OW10567   3.532   1.775   1.556
 2223SOL    HW110568   3.540   1.692   1.501
 2223SOL    HW210569   3.502   1.851   1.498
 2224SOL     OW10570   3.771   0.339   1.287
 2224SOL    HW110571   3.789   0.296   1.375
 2224SOL    HW210572   3.737   0.432   1.301
 2225SOL     OW10573   4.509   0.441   1.202
 2225SOL    HW110574   4.456   0.435   1.286
 2225SOL    HW210575   4.506   0.534   1.167
 2226SOL     OW10576   2.038   2.202   5.244
 2226SOL    HW110577   2.130   2.195   5.206
 2226SOL    HW210578   2.040   2.254   5.329
 2227SOL     OW10579   3.534   1.810   0.701
 2227SOL    HW110580   3.615   1.836   0.754
 2227SOL    HW210581   3.563   1.782   0.609
 2228SOL     OW10582   0.524   2.671   0.249
 2228SOL    HW110583   0.514   2.641   0.154
 2228SOL    HW210584   0.440   2.649   0.300
 2229SOL     OW10585   0.651   3.765   4.426
 2229SOL    HW110586   0.677   3.686   4.371
 2229SOL    HW210587   0.730   3.825   4.438
 2230SOL     OW10588   4.297   3.678   0.760
 2230SOL    HW110589   4.311   3.584   0.728
 2230SOL    HW210590   4.325   3.685   0.856
 2231SOL     OW10591   4.234   0.630   5.373
 2231SOL    HW110592   4.314   0.688   5.389
 2231SOL    HW210593   4.156   0.667   5.424
 2232SOL     OW10594   2.957   5.557   5.144
 2232SOL    HW110595   2.915   5.621   5.208
 2232SOL    HW210596   3.055   5.576   5.137
 2233SOL     OW10597   3.491   4.239   0.474
 2233SOL    HW110598   3.541   4.252   0.389
 2233SOL    HW210599   3.500   4.320   0.531
 2234SOL     OW10600   2.682   0.097   4.723
 2234SOL    HW110601   2.746   0.171   4.704
 2234SOL    HW210602   2.719   0.041   4.798
 2235SOL     OW10603   5.061   4.929   0.836
 2235SOL    HW110604   5.140   4.867   0.837
 2235SOL    HW210605   5.087   5.015   0.791
 2236SOL     OW10606   2.038   1.911   1.966
 2236SOL    HW110607   2.112   1.914   1.898
 2236SOL    HW210608   2.022   2.004   2.000
 2237SOL     OW10609   3.092   4.017   1.346
 2237SOL    HW110610   3.069   3.931   1.300
 2237SOL    HW210611   3.114   3.999   1.442
 2238SOL     OW10612   1.060   1.384   0.218
 2238SOL    HW110613   0.994   1.439   0.269
 2238SOL    HW210614   1.141   1.368   0.275
 2239SOL     OW10615   5.279   3.128   1.065
 2239SOL    HW110616   5.294   3.057   1.134
 2239SOL    HW210617   5.182   3.133   1.043
 2240SOL     OW10618   4.788   2.701   0.519
 2240SOL    HW110619   4.837   2.785   0.541
 2240SOL    HW210620   4.718   2.684   0.588
 2241SOL     OW10621   3.438   2.060   5.708
 2241SOL    HW110622   3.394   2.031   5.623
 2241SOL    HW210623   3.468   2.154   5.700
 2242SOL     OW10624   4.644   2.211   4.563
 2242SOL    HW110625   4.624   2.308   4.579
 2242SOL    HW210626   4.720   2.203   4.498
 2243SOL     OW10627   2.719   0.703   0.191
 2243SOL    HW110628   2.754   0.657   0.272
 2243SOL    HW210629   2.690   0.796   0.214
 2244SOL     OW10630   4.813   4.744   4.767
 2244SOL    HW110631   4.913   4.747   4.773
 2244SOL    HW210632   4.785   4.764   4.673
 2245SOL     OW10633   1.364   4.024   4.580
 2245SOL    HW110634   1.345   4.119   4.556
 2245SOL    HW210635   1.317   3.964   4.515
 2246SOL     OW10636   0.608   3.291   4.906
 2246SOL    HW110637   0.510   3.281   4.889
 2246SOL    HW210638   0.655   3.307   4.819
 2247SOL     OW10639   1.038   0.007   0.152
 2247SOL    HW110640   1.055   5.564   0.167
 2247SOL    HW210641   1.100   0.061   0.209
 2248SOL     OW10642   0.971   5.523   0.898
 2248SOL    HW110643   0.930   5.473   0.975
 2248SOL    HW210644   1.045   5.470   0.859
 2249SOL     OW10645   0.108   3.960   0.720
 2249SOL    HW110646   0.055   3.925   0.643
 2249SOL    HW210647   0.060   4.037   0.762
 2250SOL     OW10648   3.867   4.215   5.905
 2250SOL    HW110649   3.917   4.135   5.871
 2250SOL    HW210650   3.770   4.205   5.884
 2251SOL     OW10651   0.653   4.218   5.487
 2251SOL    HW110652   0.706   4.302   5.477
 2251SOL    HW210653   0.711   4.146   5.525
 2252SOL     OW10654   4.257   1.232   1.108
 2252SOL    HW110655   4.251   1.191   1.017
 2252SOL    HW210656   4.224   1.168   1.177
 2253SOL     OW10657   2.407   1.698   0.129
 2253SOL    HW110658   2.477   1.669   0.195
 2253SOL    HW210659   2.319   1.706   0.176
 2254SOL     OW10660   5.371   4.138   0.186
 2254SOL    HW110661   5.364   4.063   0.251
 2254SOL    HW210662   5.356   4.104   0.093
 2255SOL     OW10663   5.430   2.555   0.503
 2255SOL    HW110664   5.430   2.458   0.525
 2255SOL    HW210665   5.336   2.586   0.490
 2256SOL     OW10666   5.131   0.006   1.510
 2256SOL    HW110667   5.079   5.637   1.592
 2256SOL    HW210668   5.226   0.026   1.536
 2257SOL     OW10669   5.180   0.190   4.411
 2257SOL    HW110670   5.190   0.161   4.316
 2257SOL    HW210671   5.108   0.137   4.455
 2258SOL     OW10672   1.629   1.431   5.501
 2258SOL    HW110673   1.563   1.358   5.520
 2258SOL    HW210674   1.721   1.399   5.523
 2259SOL     OW10675   2.745   1.091   1.104
 2259SOL    HW110676   2.716   1.065   1.196
 2259SOL    HW210677   2.770   1.009   1.053
 2260SOL     OW10678   5.491   5.091   0.035
 2260SOL    HW110679   5.484   5.143   5.965
 2260SOL    HW210680   5.579   5.043   0.037
 2261SOL     OW10681   4.822   2.511   5.925
 2261SOL    HW110682   4.838   2.582   5.994
 2261SOL    HW210683   4.908   2.487   5.880
 2262SOL     OW10684   1.656   0.393   4.402
 2262SOL    HW110685   1.610   0.319   4.354
 2262SOL    HW210686   1.709   0.356   4.479
 2263SOL     OW10687   4.705   1.664   5.981
 2263SOL    HW110688   4.780   1.636   0.025
 2263SOL    HW210689   4.735   1.660   5.886
 2264SOL     OW10690   0.006   0.161   1.100
 2264SOL    HW110691   0.027   0.170   1.198
 2264SOL    HW210692   0.071   0.099   1.058
 2265SOL     OW10693   3.449   2.286   5.302
 2265SOL    HW110694   3.519   2.215   5.305
 2265SOL    HW210695   3.464   2.345   5.223
 2266SOL     OW10696   5.015   3.612   0.835
 2266SOL    HW110697   5.045   3.556   0.758
 2266SOL    HW210698   4.978   3.698   0.802
 2267SOL     OW10699   0.325   2.163   0.906
 2267SOL    HW110700   0.422   2.146   0.925
 2267SOL    HW210701   0.272   2.152   0.989
 2268SOL     OW10702   0.922   0.374   5.600
 2268SOL    HW110703   0.887   0.297   5.546
 2268SOL    HW210704   1.022   0.367   5.607
 2269SOL     OW10705   4.129   5.524   5.327
 2269SOL    HW110706   4.188   5.463   5.380
 2269SOL    HW210707   4.181   5.565   5.253
 2270SOL     OW10708   1.565   2.473   5.787
 2270SOL    HW110709   1.500   2.498   5.859
 2270SOL    HW210710   1.629   2.405   5.823
 2271SOL     OW10711   2.832   1.066   0.423
 2271SOL    HW110712   2.780   1.143   0.461
 2271SOL    HW210713   2.911   1.101   0.373
 2272SOL     OW10714   4.951   4.469   4.518
 2272SOL    HW110715   5.002   4.549   4.484
 2272SOL    HW210716   4.857   4.474   4.485
 2273SOL     OW10717   2.295   2.239   5.133
 2273SOL    HW110718   2.275   2.324   5.183
 2273SOL    HW210719   2.389   2.211   5.151
 2274SOL     OW10720   0.524   2.031   5.330
 2274SOL    HW110721   0.434   2.072   5.349
 2274SOL    HW210722   0.593   2.080   5.383
 2275SOL     OW10723   2.850   1.766   0.647
 2275SOL    HW110724   2.899   1.752   0.561
 2275SOL    HW210725   2.813   1.678   0.679
 2276SOL     OW10726   2.636   3.205   5.063
 2276SOL    HW110727   2.545   3.213   5.106
 2276SOL    HW210728   2.705   3.241   5.126
 2277SOL     OW10729   4.293   0.362   5.305
 2277SOL    HW110730   4.290   0.459   5.330
 2277SOL    HW210731   4.388   0.331   5.302
 2278SOL     OW10732   4.839   2.087   0.893
 2278SOL    HW110733   4.815   2.159   0.829
 2278SOL    HW210734   4.938   2.074   0.893
 2279SOL     OW10735   1.086   1.924   0.484
 2279SOL    HW110736   0.992   1.912   0.517
 2279SOL    HW210737   1.140   1.972   0.553
 2280SOL     OW10738   4.386   4.292   0.340
 2280SOL    HW110739   4.366   4.386   0.369
 2280SOL    HW210740   4.458   4.294   0.270
 2281SOL     OW10741   4.567   1.424   5.993
 2281SOL    HW110742   4.613   1.513   5.989
 2281SOL    HW210743   4.630   1.356   0.016
 2282SOL     OW10744   0.337   3.857   5.805
 2282SOL    HW110745   0.342   3.787   5.877
 2282SOL    HW210746   0.406   3.837   5.735
 2283SOL     OW10747   5.597   0.146   0.299
 2283SOL    HW110748   5.530   0.085   0.340
 2283SOL    HW210749   5.550   0.217   0.247
 2284SOL     OW10750   5.165   2.535   0.862
 2284SOL    HW110751   5.144   2.606   0.929
 2284SOL    HW210752   5.257   2.501   0.877
 2285SOL     OW10753   4.737   1.208   1.740
 2285SOL    HW110754   4.831   1.202   1.706
 2285SOL    HW210755   4.738   1.242   1.834
 2286SOL     OW10756   1.997   3.770   5.912
 2286SOL    HW110757   2.018   3.859   5.872
 2286SOL    HW210758   1.902   3.746   5.890
 2287SOL     OW10759   0.616   3.645   0.956
 2287SOL    HW110760   0.557   3.565   0.942
 2287SOL    HW210761   0.603   3.680   1.049
 2288SOL     OW10762   1.873   4.427   0.965
 2288SOL    HW110763   1.912   4.426   1.057
 2288SOL    HW210764   1.946   4.436   0.898
 2289SOL     OW10765   1.967   1.850   5.182
 2289SOL    HW110766   1.884   1.875   5.232
 2289SOL    HW210767   1.963   1.890   5.090
 2290SOL     OW10768   0.336   4.478   1.360
 2290SOL    HW110769   0.420   4.494   1.411
 2290SOL    HW210770   0.265   4.542   1.393
 2291SOL     OW10771   2.190   0.328   5.095
 2291SOL    HW110772   2.120   0.346   5.164
 2291SOL    HW210773   2.227   0.415   5.062
 2292SOL     OW10774   3.727   3.107   1.026
 2292SOL    HW110775   3.668   3.030   1.050
 2292SOL    HW210776   3.789   3.126   1.103
 2293SOL     OW10777   2.373   5.288   1.107
 2293SOL    HW110778   2.430   5.328   1.179
 2293SOL    HW210779   2.424   5.289   1.021
 2294SOL     OW10780   3.328   1.939   5.482
 2294SOL    HW110781   3.345   1.955   5.384
 2294SOL    HW210782   3.296   1.846   5.496
 2295SOL     OW10783   0.125   2.925   0.211
 2295SOL    HW110784   0.170   2.889   0.293
 2295SOL    HW210785   0.191   2.930   0.137
 2296SOL     OW10786   0.916   5.333   1.804
 2296SOL    HW110787   0.910   5.291   1.894
 2296SOL    HW210788   0.843   5.297   1.746
 2297SOL     OW10789   3.151   1.911   1.771
 2297SOL    HW110790   3.123   1.966   1.849
 2297SOL    HW210791   3.247   1.884   1.782
 2298SOL     OW10792   5.272   3.891   0.595
 2298SOL    HW110793   5.312   3.865   0.682
 2298SOL    HW210794   5.216   3.973   0.607
 2299SOL     OW10795   4.777   3.632   1.449
 2299SOL    HW110796   4.862   3.651   1.401
 2299SOL    HW210797   4.783   3.666   1.543
 2300SOL     OW10798   2.695   0.986   1.359
 2300SOL    HW110799   2.784   0.959   1.397
 2300SOL    HW210800   2.627   0.917   1.385
 2301SOL     OW10801   5.253   1.463   1.112
 2301SOL    HW110802   5.304   1.388   1.071
 2301SOL    HW210803   5.162   1.467   1.072
 2302SOL     OW10804   4.917   3.138   4.323
 2302SOL    HW110805   4.979   3.184   4.386
 2302SOL    HW210806   4.969   3.088   4.254
 2303SOL     OW10807   0.931   4.323   4.604
 2303SOL    HW110808   0.909   4.239   4.654
 2303SOL    HW210809   0.956   4.300   4.510
 2304SOL     OW10810   0.202   5.645   0.991
 2304SOL    HW110811   0.233   5.563   1.038
 2304SOL    HW210812   0.252   0.001   0.905
 2305SOL     OW10813   1.819   3.858   1.970
 2305SOL    HW110814   1.744   3.891   1.913
 2305SOL    HW210815   1.783   3.826   2.058
 2306SOL     OW10816   5.091   0.974   5.063
 2306SOL    HW110817   5.105   0.990   4.965
 2306SOL    HW210818   5.125   1.053   5.115
 2307SOL     OW10819   4.668   4.923   0.340
 2307SOL    HW110820   4.599   4.994   0.328
 2307SOL    HW210821   4.737   4.931   0.268
 2308SOL     OW10822   2.653   0.049   0.002
 2308SOL    HW110823   2.687   0.022   0.092
 2308SOL    HW210824   2.561   0.013   6.006
 2309SOL     OW10825   0.465   2.849   1.398
 2309SOL    HW110826   0.548   2.825   1.449
 2309SOL    HW210827   0.385   2.819   1.450
 2310SOL     OW10828   1.090   4.058   5.493
 2310SOL    HW110829   1.098   3.981   5.430
 2310SOL    HW210830   1.168   4.058   5.556
 2311SOL     OW10831   0.421   0.784   1.939
 2311SOL    HW110832   0.360   0.837   1.999
 2311SOL    HW210833   0.435   0.693   1.978
 2312SOL     OW10834   2.815   1.855   0.101
 2312SOL    HW110835   2.909   1.845   0.134
 2312SOL    HW210836   2.796   1.784   0.032
 2313SOL     OW10837   2.206   1.280   5.792
 2313SOL    HW110838   2.281   1.268   5.857
 2313SOL    HW210839   2.140   1.205   5.804
 2314SOL     OW10840   0.941   3.177   4.793
 2314SOL    HW110841   0.918   3.155   4.888
 2314SOL    HW210842   1.010   3.114   4.760
 2315SOL     OW10843   2.553   0.866   0.770
 2315SOL    HW110844   2.514   0.932   0.707
 2315SOL    HW210845   2.591   0.788   0.719
 2316SOL     OW10846   1.244   4.119   1.582
 2316SOL    HW110847   1.210   4.075   1.499
 2316SOL    HW210848   1.234   4.056   1.660
 2317SOL     OW10849   2.194   2.927   4.874
 2317SOL    HW110850   2.140   2.902   4.794
 2317SOL    HW210851   2.288   2.895   4.862
 2318SOL     OW10852   5.110   2.030   0.922
 2318SOL    HW110853   5.144   1.948   0.877
 2318SOL    HW210854   5.117   2.019   1.021
 2319SOL     OW10855   1.850   3.248   5.461
 2319SOL    HW110856   1.894   3.303   5.532
 2319SOL    HW210857   1.870   3.287   5.371
 2320SOL     OW10858   5.384   1.261   0.972
 2320SOL    HW110859   5.334   1.176   0.985
 2320SOL    HW210860   5.415   1.267   0.877
 2321SOL     OW10861   1.217   5.398   1.418
 2321SOL    HW110862   1.241   5.315   1.368
 2321SOL    HW210863   1.194   5.374   1.513
 2322SOL     OW10864   3.734   3.030   1.666
 2322SOL    HW110865   3.752   3.116   1.715
 2322SOL    HW210866   3.736   2.954   1.731
 2323SOL     OW10867   0.386   4.017   4.947
 2323SOL    HW110868   0.370   3.952   4.872
 2323SOL    HW210869   0.421   4.103   4.909
 2324SOL     OW10870   2.361   1.021   1.056
 2324SOL    HW110871   2.362   1.053   0.961
 2324SOL    HW210872   2.424   0.944   1.065
 2325SOL     OW10873   4.530   5.052   4.678
 2325SOL    HW110874   4.590   5.054   4.598
 2325SOL    HW210875   4.435   5.041   4.648
 2326SOL     OW10876   4.962   0.985   0.989
 2326SOL    HW110877   4.970   0.945   0.899
 2326SOL    HW210878   4.875   1.035   0.996
 2327SOL     OW10879   0.978   2.387   4.156
 2327SOL    HW110880   0.986   2.300   4.108
 2327SOL    HW210881   0.887   2.394   4.197
 2328SOL     OW10882   1.403   3.142   5.012
 2328SOL    HW110883   1.444   3.219   5.061
 2328SOL    HW210884   1.457   3.060   5.028
 2329SOL     OW10885   5.085   4.282   4.661
 2329SOL    HW110886   5.029   4.347   4.610
 2329SOL    HW210887   5.144   4.231   4.599
 2330SOL     OW10888   4.221   2.692   0.147
 2330SOL    HW110889   4.319   2.711   0.148
 2330SOL    HW210890   4.207   2.594   0.133
 2331SOL     OW10891   4.357   3.894   5.790
 2331SOL    HW110892   4.306   3.945   5.720
 2331SOL    HW210893   4.308   3.810   5.812
 2332SOL     OW10894   2.806   3.851   1.618
 2332SOL    HW110895   2.749   3.920   1.661
 2332SOL    HW210896   2.886   3.833   1.675
 2333SOL     OW10897   0.540   0.561   5.186
 2333SOL    HW110898   0.533   0.515   5.097
 2333SOL    HW210899   0.454   0.551   5.235
 2334SOL     OW10900   4.788   4.908   0.777
 2334SOL    HW110901   4.747   4.819   0.763
 2334SOL    HW210902   4.885   4.897   0.799
 2335SOL     OW10903   0.853   0.155   5.440
 2335SOL    HW110904   0.921   0.087   5.466
 2335SOL    HW210905   0.762   0.124   5.468
 2336SOL     OW10906   3.271   1.667   5.501
 2336SOL    HW110907   3.226   1.580   5.520
 2336SOL    HW210908   3.328   1.659   5.419
 2337SOL     OW10909   2.867   1.855   5.753
 2337SOL    HW110910   2.827   1.781   5.808
 2337SOL    HW210911   2.925   1.815   5.682
 2338SOL     OW10912   0.745   1.381   5.666
 2338SOL    HW110913   0.797   1.298   5.645
 2338SOL    HW210914   0.808   1.456   5.685
 2339SOL     OW10915   1.882   5.609   5.680
 2339SOL    HW110916   1.887   5.509   5.687
 2339SOL    HW210917   1.799   5.641   5.725
 2340SOL     OW10918   3.994   2.038   5.220
 2340SOL    HW110919   3.961   2.087   5.301
 2340SOL    HW210920   3.920   2.033   5.152
 2341SOL     OW10921   3.535   3.033   5.527
 2341SOL    HW110922   3.502   2.951   5.478
 2341SOL    HW210923   3.606   3.077   5.472
 2342SOL     OW10924   0.001   4.573   1.104
 2342SOL    HW110925   0.099   4.557   1.093
 2342SOL    HW210926   5.657   4.535   1.026
 2343SOL     OW10927   4.669   3.382   5.583
 2343SOL    HW110928   4.709   3.471   5.603
 2343SOL    HW210929   4.741   3.316   5.562
 2344SOL     OW10930   2.263   5.310   5.552
 2344SOL    HW110931   2.229   5.403   5.535
 2344SOL    HW210932   2.324   5.283   5.478
 2345SOL     OW10933   3.017   2.215   1.480
 2345SOL    HW110934   3.074   2.134   1.493
 2345SOL    HW210935   3.074   2.297   1.483
 2346SOL     OW10936   0.825   1.014   0.319
 2346SOL    HW110937   0.733   1.017   0.279
 2346SOL    HW210938   0.847   1.103   0.358
 2347SOL     OW10939   2.386   3.036   5.398
 2347SOL    HW110940   2.407   2.938   5.407
 2347SOL    HW210941   2.287   3.048   5.389
 2348SOL     OW10942   5.694   2.405   0.433
 2348SOL    HW110943   5.613   2.351   0.455
 2348SOL    HW210944   0.034   2.435   0.517
 2349SOL     OW10945   3.114   0.460   0.146
 2349SOL    HW110946   3.168   0.528   0.195
 2349SOL    HW210947   3.163   0.374   0.143
 2350SOL     OW10948   2.878   1.688   4.891
 2350SOL    HW110949   2.936   1.762   4.858
 2350SOL    HW210950   2.879   1.687   4.991
 2351SOL     OW10951   2.832   2.746   1.997
 2351SOL    HW110952   2.755   2.802   2.029
 2351SOL    HW210953   2.892   2.803   1.940
 2352SOL     OW10954   0.807   1.079   5.152
 2352SOL    HW110955   0.828   1.109   5.059
 2352SOL    HW210956   0.808   1.158   5.213
 2353SOL     OW10957   2.986   2.530   5.793
 2353SOL    HW110958   3.035   2.461   5.740
 2353SOL    HW210959   3.047   2.568   5.862
 2354SOL     OW10960   3.626   2.694   0.413
 2354SOL    HW110961   3.526   2.690   0.413
 2354SOL    HW210962   3.655   2.788   0.395
 2355SOL     OW10963   2.231   5.412   5.165
 2355SOL    HW110964   2.225   5.493   5.223
 2355SOL    HW210965   2.189   5.431   5.076
 2356SOL     OW10966   5.240   2.678   5.134
 2356SOL    HW110967   5.161   2.645   5.082
 2356SOL    HW210968   5.259   2.616   5.210
 2357SOL     OW10969   2.602   0.570   4.513
 2357SOL    HW110970   2.668   0.641   4.490
 2357SOL    HW210971   2.561   0.535   4.429
 2358SOL     OW10972   3.919   5.081   5.017
 2358SOL    HW110973   3.982   5.069   4.940
 2358SOL    HW210974   3.931   5.173   5.055
 2359SOL     OW10975   3.614   4.155   5.803
 2359SOL    HW110976   3.521   4.190   5.813
 2359SOL    HW210977   3.636   4.147   5.706
 2360SOL     OW10978   4.805   4.800   4.499
 2360SOL    HW110979   4.897   4.764   4.482
 2360SOL    HW210980   4.742   4.764   4.431
 2361SOL     OW10981   5.056   5.323   5.228
 2361SOL    HW110982   5.143   5.338   5.180
 2361SOL    HW210983   4.996   5.402   5.214
 2362SOL     OW10984   4.766   5.525   5.409
 2362SOL    HW110985   4.836   5.565   5.349
 2362SOL    HW210986   4.801   5.524   5.503
 2363SOL     OW10987   3.910   4.282   4.680
 2363SOL    HW110988   3.870   4.371   4.657
 2363SOL    HW210989   3.845   4.210   4.656
 2364SOL     OW10990   2.245   0.898   5.721
 2364SOL    HW110991   2.244   0.800   5.740
 2364SOL    HW210992   2.170   0.942   5.770
 2365SOL     OW10993   0.216   4.922   4.276
 2365SOL    HW110994   0.200   5.019   4.257
 2365SOL    HW210995   0.295   4.891   4.224
 2366SOL     OW10996   5.103   2.415   0.619
 2366SOL    HW110997   5.116   2.470   0.701
 2366SOL    HW210998   5.134   2.321   0.637
 2367SOL     OW10999   1.157   0.763   0.108
 2367SOL    HW111000   1.064   0.798   0.122
 2367SOL    HW211001   1.171   0.745   0.011
 2368SOL     OW11002   1.917   2.671   1.900
 2368SOL    HW111003   1.860   2.754   1.897
 2368SOL    HW211004   2.008   2.695   1.935
 2369SOL     OW11005   4.583   2.224   0.263
 2369SOL    HW111006   4.682   2.237   0.260
 2369SOL    HW211007   4.537   2.312   0.259
 2370SOL     OW11008   0.979   3.569   0.440
 2370SOL    HW111009   1.046   3.609   0.502
 2370SOL    HW211010   0.894   3.622   0.443
 2371SOL     OW11011   2.163   4.941   0.467
 2371SOL    HW111012   2.223   5.018   0.490
 2371SOL    HW211013   2.114   4.912   0.550
 2372SOL     OW11014   2.526   3.836   5.207
 2372SOL    HW111015   2.599   3.782   5.165
 2372SOL    HW211016   2.438   3.814   5.165
 2373SOL     OW11017   5.414   5.161   5.418
 2373SOL    HW111018   5.362   5.245   5.431
 2373SOL    HW211019   5.498   5.164   5.472
 2374SOL     OW11020   5.355   5.334   4.836
 2374SOL    HW111021   5.343   5.399   4.761
 2374SOL    HW211022   5.406   5.254   4.802
 2375SOL     OW11023   3.670   0.773   4.531
 2375SOL    HW111024   3.677   0.839   4.456
 2375SOL    HW211025   3.718   0.689   4.505
 2376SOL     OW11026   4.384   2.188   4.818
 2376SOL    HW111027   4.383   2.115   4.750
 2376SOL    HW211028   4.293   2.196   4.858
 2377SOL     OW11029   4.497   2.388   0.661
 2377SOL    HW111030   4.434   2.446   0.610
 2377SOL    HW211031   4.500   2.297   0.620
 2378SOL     OW11032   1.998   5.443   0.423
 2378SOL    HW111033   1.994   5.400   0.333
 2378SOL    HW211034   1.906   5.452   0.460
 2379SOL     OW11035   0.257   1.051   1.436
 2379SOL    HW111036   0.349   1.011   1.442
 2379SOL    HW211037   0.261   1.134   1.380
 2380SOL     OW11038   2.812   2.005   5.001
 2380SOL    HW111039   2.802   2.065   4.922
 2380SOL    HW211040   2.735   1.941   5.005
 2381SOL     OW11041   5.698   3.519   5.728
 2381SOL    HW111042   0.027   3.612   5.743
 2381SOL    HW211043   5.599   3.518   5.737
 2382SOL     OW11044   2.276   1.605   1.532
 2382SOL    HW111045   2.265   1.517   1.580
 2382SOL    HW211046   2.332   1.666   1.588
 2383SOL     OW11047   1.627   2.737   5.728
 2383SOL    HW111048   1.659   2.779   5.813
 2383SOL    HW211049   1.595   2.644   5.746
 2384SOL     OW11050   1.225   4.629   4.713
 2384SOL    HW111051   1.317   4.603   4.743
 2384SOL    HW211052   1.158   4.565   4.751
 2385SOL     OW11053   5.208   5.345   4.391
 2385SOL    HW111054   5.138   5.290   4.345
 2385SOL    HW211055   5.286   5.358   4.330
 2386SOL     OW11056   2.006   3.063   5.684
 2386SOL    HW111057   1.958   3.035   5.601
 2386SOL    HW211058   2.098   3.025   5.684
 2387SOL     OW11059   5.210   1.809   0.793
 2387SOL    HW111060   5.261   1.760   0.863
 2387SOL    HW211061   5.264   1.814   0.709
 2388SOL     OW11062   4.871   2.171   0.252
 2388SOL    HW111063   4.856   2.072   0.255
 2388SOL    HW211064   4.924   2.194   0.170
 2389SOL     OW11065   0.771   4.068   4.434
 2389SOL    HW111066   0.842   4.125   4.393
 2389SOL    HW211067   0.685   4.082   4.385
 2390SOL     OW11068   4.847   0.233   0.912
 2390SOL    HW111069   4.877   0.138   0.925
 2390SOL    HW211070   4.817   0.270   1.000
 2391SOL     OW11071   5.336   0.878   5.362
 2391SOL    HW111072   5.313   0.816   5.437
 2391SOL    HW211073   5.310   0.972   5.386
 2392SOL     OW11074   1.163   1.084   5.007
 2392SOL    HW111075   1.216   1.052   4.929
 2392SOL    HW211076   1.190   1.033   5.089
 2393SOL     OW11077   0.392   5.189   4.642
 2393SOL    HW111078   0.389   5.250   4.721
 2393SOL    HW211079   0.340   5.228   4.567
 2394SOL     OW11080   3.815   0.349   5.606
 2394SOL    HW111081   3.856   0.367   5.696
 2394SOL    HW211082   3.861   0.404   5.537
 2395SOL     OW11083   5.254   1.578   1.363
 2395SOL    HW111084   5.347   1.588   1.397
 2395SOL    HW211085   5.256   1.534   1.273
 2396SOL     OW11086   5.555   1.501   5.668
 2396SOL    HW111087   5.497   1.580   5.686
 2396SOL    HW211088   5.641   1.531   5.628
 2397SOL     OW11089   1.268   3.689   1.008
 2397SOL    HW111090   1.286   3.670   1.105
 2397SOL    HW211091   1.200   3.625   0.973
 2398SOL     OW11092   4.871   1.545   0.155
 2398SOL    HW111093   4.957   1.551   0.206
 2398SOL    HW211094   4.795   1.541   0.220
 2399SOL     OW11095   3.210   2.556   6.014
 2399SOL    HW111096   3.198   2.550   0.098
 2399SOL    HW211097   3.261   2.639   5.992
 2400SOL     OW11098   2.637   3.138   0.140
 2400SOL    HW111099   2.657   3.188   0.056
 2400SOL    HW211100   2.623   3.203   0.215
 2401SOL     OW11101   0.465   0.137   1.338
 2401SOL    HW111102   0.420   0.162   1.252
 2401SOL    HW211103   0.407   0.164   1.415
 2402SOL     OW11104   5.495   0.237   4.709
 2402SOL    HW111105   5.506   0.142   4.677
 2402SOL    HW211106   5.428   0.283   4.652
 2403SOL     OW11107   3.763   4.585   1.009
 2403SOL    HW111108   3.797   4.572   1.102
 2403SOL    HW211109   3.667   4.557   1.005
 2404SOL     OW11110   2.322   0.694   1.836
 2404SOL    HW111111   2.384   0.684   1.759
 2404SOL    HW211112   2.331   0.615   1.897
 2405SOL     OW11113   1.139   0.832   5.615
 2405SOL    HW111114   1.189   0.910   5.576
 2405SOL    HW211115   1.175   0.747   5.576
 2406SOL     OW11116   2.756   2.229   5.345
 2406SOL    HW111117   2.724   2.307   5.399
 2406SOL    HW211118   2.789   2.158   5.407
 2407SOL     OW11119   1.231   2.045   0.696
 2407SOL    HW111120   1.259   1.958   0.736
 2407SOL    HW211121   1.308   2.109   0.697
 2408SOL     OW11122   0.686   3.885   1.784
 2408SOL    HW111123   0.615   3.859   1.850
 2408SOL    HW211124   0.643   3.930   1.706
 2409SOL     OW11125   0.771   3.975   1.341
 2409SOL    HW111126   0.830   4.044   1.299
 2409SOL    HW211127   0.803   3.884   1.313
 2410SOL     OW11128   1.268   4.618   0.187
 2410SOL    HW111129   1.297   4.527   0.155
 2410SOL    HW211130   1.183   4.609   0.239
 2411SOL     OW11131   2.861   2.776   0.037
 2411SOL    HW111132   2.923   2.823   5.990
 2411SOL    HW211133   2.773   2.761   6.007
 2412SOL     OW11134   2.402   2.877   0.375
 2412SOL    HW111135   2.415   2.965   0.420
 2412SOL    HW211136   2.343   2.819   0.431
 2413SOL     OW11137   0.256   0.975   0.364
 2413SOL    HW111138   0.342   0.933   0.392
 2413SOL    HW211139   0.275   1.062   0.318
 2414SOL     OW11140   2.670   2.403   0.781
 2414SOL    HW111141   2.717   2.434   0.698
 2414SOL    HW211142   2.737   2.394   0.855
 2415SOL     OW11143   4.416   2.293   0.907
 2415SOL    HW111144   4.445   2.331   0.819
 2415SOL    HW211145   4.477   2.219   0.933
 2416SOL     OW11146   0.715   2.160   5.473
 2416SOL    HW111147   0.693   2.256   5.490
 2416SOL    HW211148   0.793   2.153   5.412
 2417SOL     OW11149   3.274   0.999   0.218
 2417SOL    HW111150   3.259   0.941   0.138
 2417SOL    HW211151   3.187   1.042   0.244
 2418SOL     OW11152   0.173   2.777   5.271
 2418SOL    HW111153   0.094   2.736   5.314
 2418SOL    HW211154   0.224   2.831   5.339
 2419SOL     OW11155   2.040   3.881   5.121
 2419SOL    HW111156   1.954   3.931   5.128
 2419SOL    HW211157   2.025   3.785   5.147
 2420SOL     OW11158   0.669   1.604   0.273
 2420SOL    HW111159   0.603   1.627   0.202
 2420SOL    HW211160   0.762   1.623   0.240
 2421SOL     OW11161   5.663   1.028   0.723
 2421SOL    HW111162   5.571   1.067   0.728
 2421SOL    HW211163   0.024   1.093   0.759
 2422SOL     OW11164   4.576   2.133   5.689
 2422SOL    HW111165   4.611   2.127   5.782
 2422SOL    HW211166   4.527   2.220   5.678
 2423SOL     OW11167   0.620   1.984   1.360
 2423SOL    HW111168   0.631   1.909   1.425
 2423SOL    HW211169   0.575   2.060   1.405
 2424SOL     OW11170   1.278   0.726   0.594
 2424SOL    HW111171   1.269   0.640   0.544
 2424SOL    HW211172   1.367   0.730   0.639
 2425SOL     OW11173   1.495   0.118   0.699
 2425SOL    HW111174   1.402   0.153   0.707
 2425SOL    HW211175   1.557   0.193   0.674
 2426SOL     OW11176   1.271   5.404   0.141
 2426SOL    HW111177   1.367   5.407   0.111
 2426SOL    HW211178   1.211   5.400   0.062
 2427SOL     OW11179   2.933   1.291   1.665
 2427SOL    HW111180   2.908   1.377   1.710
 2427SOL    HW211181   2.983   1.233   1.729
 2428SOL     OW11182   3.853   2.331   0.819
 2428SOL    HW111183   3.811   2.404   0.764
 2428SOL    HW211184   3.944   2.311   0.784
 2429SOL     OW11185   5.075   2.482   5.789
 2429SOL    HW111186   5.046   2.420   5.717
 2429SOL    HW211187   5.145   2.544   5.753
 2430SOL     OW11188   5.531   0.173   5.568
 2430SOL    HW111189   5.600   0.242   5.590
 2430SOL    HW211190   5.476   0.204   5.491
 2431SOL     OW11191   1.084   2.590   4.564
 2431SOL    HW111192   1.010   2.525   4.544
 2431SOL    HW211193   1.099   2.649   4.484
 2432SOL     OW11194   5.464   0.443   5.800
 2432SOL    HW111195   5.540   0.385   5.830
 2432SOL    HW211196   5.468   0.455   5.701
 2433SOL     OW11197   2.750   1.669   5.924
 2433SOL    HW111198   2.791   1.581   5.945
 2433SOL    HW211199   2.652   1.657   5.906
 2434SOL     OW11200   3.263   3.882   0.389
 2434SOL    HW111201   3.183   3.894   0.447
 2434SOL    HW211202   3.264   3.789   0.352
 2435SOL     OW11203   5.090   2.990   4.172
 2435SOL    HW111204   5.047   2.902   4.156
 2435SOL    HW211205   5.177   2.995   4.122
 2436SOL     OW11206   2.809   1.282   5.587
 2436SOL    HW111207   2.720   1.244   5.561
 2436SOL    HW211208   2.881   1.226   5.548
 2437SOL     OW11209   1.623   3.450   4.934
 2437SOL    HW111210   1.584   3.410   5.017
 2437SOL    HW211211   1.642   3.547   4.949
 2438SOL     OW11212   0.411   1.448   5.334
 2438SOL    HW111213   0.449   1.355   5.337
 2438SOL    HW211214   0.457   1.505   5.401
 2439SOL     OW11215   4.576   3.451   5.214
 2439SOL    HW111216   4.669   3.479   5.237
 2439SOL    HW211217   4.522   3.441   5.298
 2440SOL     OW11218   1.787   2.513   5.199
 2440SOL    HW111219   1.788   2.493   5.297
 2440SOL    HW211220   1.718   2.457   5.154
 2441SOL     OW11221   4.763   4.101   1.593
 2441SOL    HW111222   4.770   4.040   1.672
 2441SOL    HW211223   4.760   4.196   1.624
 2442SOL     OW11224   2.247   4.977   0.154
 2442SOL    HW111225   2.339   4.961   0.119
 2442SOL    HW211226   2.243   4.949   0.250
 2443SOL     OW11227   1.223   5.091   4.852
 2443SOL    HW111228   1.162   5.158   4.895
 2443SOL    HW211229   1.173   5.007   4.834
 2444SOL     OW11230   3.470   3.793   4.747
 2444SOL    HW111231   3.456   3.817   4.651
 2444SOL    HW211232   3.561   3.754   4.758
 2445SOL     OW11233   3.796   3.755   0.224
 2445SOL    HW111234   3.787   3.807   0.309
 2445SOL    HW211235   3.837   3.813   0.153
 2446SOL     OW11236   0.880   4.907   0.431
 2446SOL    HW111237   0.932   4.823   0.412
 2446SOL    HW211238   0.796   4.907   0.376
 2447SOL     OW11239   4.685   3.191   0.615
 2447SOL    HW111240   4.768   3.143   0.644
 2447SOL    HW211241   4.635   3.223   0.695
 2448SOL     OW11242   0.334   0.495   5.582
 2448SOL    HW111243   0.336   0.587   5.620
 2448SOL    HW211244   0.298   0.431   5.650
 2449SOL     OW11245   0.240   3.706   5.159
 2449SOL    HW111246   0.283   3.683   5.246
 2449SOL    HW211247   0.222   3.805   5.156
 2450SOL     OW11248   0.309   3.053   1.675
 2450SOL    HW111249   0.389   3.003   1.706
 2450SOL    HW211250   0.226   3.001   1.696
 2451SOL     OW11251   3.439   2.788   1.326
 2451SOL    HW111252   3.519   2.744   1.368
 2451SOL    HW211253   3.409   2.863   1.385
 2452SOL     OW11254   4.680   4.626   5.244
 2452SOL    HW111255   4.779   4.612   5.252
 2452SOL    HW211256   4.633   4.571   5.312
 2453SOL     OW11257   4.987   4.506   1.163
 2453SOL    HW111258   5.037   4.488   1.248
 2453SOL    HW211259   4.908   4.564   1.184
 2454SOL     OW11260   0.504   0.880   0.421
 2454SOL    HW111261   0.543   0.921   0.339
 2454SOL    HW211262   0.550   0.917   0.502
 2455SOL     OW11263   0.741   4.478   5.210
 2455SOL    HW111264   0.764   4.465   5.307
 2455SOL    HW211265   0.665   4.543   5.203
 2456SOL     OW11266   1.375   3.821   5.622
 2456SOL    HW111267   1.345   3.911   5.651
 2456SOL    HW211268   1.475   3.814   5.631
 2457SOL     OW11269   4.020   0.588   1.145
 2457SOL    HW111270   3.952   0.607   1.074
 2457SOL    HW211271   4.034   0.490   1.152
 2458SOL     OW11272   4.471   1.681   5.006
 2458SOL    HW111273   4.463   1.780   4.997
 2458SOL    HW211274   4.418   1.637   4.933
 2459SOL     OW11275   0.789   2.071   5.817
 2459SOL    HW111276   0.865   2.136   5.814
 2459SOL    HW211277   0.788   2.017   5.733
 2460SOL     OW11278   2.761   3.120   4.645
 2460SOL    HW111279   2.780   3.039   4.590
 2460SOL    HW211280   2.724   3.192   4.586
 2461SOL     OW11281   3.414   4.257   0.777
 2461SOL    HW111282   3.453   4.332   0.723
 2461SOL    HW211283   3.479   4.230   0.848
 2462SOL     OW11284   4.469   3.534   6.008
 2462SOL    HW111285   4.511   3.574   5.926
 2462SOL    HW211286   4.540   3.488   0.047
 2463SOL     OW11287   2.426   1.172   4.881
 2463SOL    HW111288   2.518   1.174   4.841
 2463SOL    HW211289   2.388   1.080   4.874
 2464SOL     OW11290   3.213   4.999   5.757
 2464SOL    HW111291   3.198   4.963   5.849
 2464SOL    HW211292   3.233   5.096   5.762
 2465SOL     OW11293   3.935   0.827   1.649
 2465SOL    HW111294   3.850   0.859   1.691
 2465SOL    HW211295   4.002   0.806   1.721
 2466SOL     OW11296   1.662   5.314   5.603
 2466SOL    HW111297   1.680   5.301   5.505
 2466SOL    HW211298   1.748   5.336   5.650
 2467SOL     OW11299   5.015   0.337   5.658
 2467SOL    HW111300   5.087   0.329   5.727
 2467SOL    HW211301   5.047   0.393   5.582
 2468SOL     OW11302   0.761   5.565   0.724
 2468SOL    HW111303   0.690   5.509   0.767
 2468SOL    HW211304   0.843   5.565   0.781
 2469SOL     OW11305   2.666   0.877   5.369
 2469SOL    HW111306   2.685   0.789   5.326
 2469SOL    HW211307   2.724   0.947   5.326
 2470SOL     OW11308   5.293   3.263   5.827
 2470SOL    HW111309   5.310   3.279   5.924
 2470SOL    HW211310   5.304   3.165   5.807
 2471SOL     OW11311   3.143   4.410   0.090
 2471SOL    HW111312   3.089   4.388   0.171
 2471SOL    HW211313   3.240   4.405   0.112
 2472SOL     OW11314   4.030   1.299   0.499
 2472SOL    HW111315   4.106   1.243   0.467
 2472SOL    HW211316   4.012   1.373   0.434
 2473SOL     OW11317   4.876   0.301   1.399
 2473SOL    HW111318   4.960   0.264   1.358
 2473SOL    HW211319   4.859   0.257   1.487
 2474SOL     OW11320   5.324   0.322   0.432
 2474SOL    HW111321   5.355   0.262   0.505
 2474SOL    HW211322   5.224   0.319   0.425
 2475SOL     OW11323   0.051   3.925   1.909
 2475SOL    HW111324   0.007   4.011   1.935
 2475SOL    HW211325   5.687   3.863   1.871
 2476SOL     OW11326   4.946   4.592   5.292
 2476SOL    HW111327   4.997   4.520   5.244
 2476SOL    HW211328   5.001   4.675   5.296
 2477SOL     OW11329   3.205   0.817   0.007
 2477SOL    HW111330   3.150   0.737   6.000
 2477SOL    HW211331   3.174   0.895   5.968
 2478SOL     OW11332   4.235   3.834   5.303
 2478SOL    HW111333   4.154   3.865   5.354
 2478SOL    HW211334   4.244   3.735   5.313
 2479SOL     OW11335   1.589   2.682   5.450
 2479SOL    HW111336   1.572   2.713   5.543
 2479SOL    HW211337   1.651   2.604   5.451
 2480SOL     OW11338   1.378   4.468   5.211
 2480SOL    HW111339   1.410   4.397   5.148
 2480SOL    HW211340   1.278   4.474   5.206
 2481SOL     OW11341   2.977   2.858   5.148
 2481SOL    HW111342   2.898   2.830   5.093
 2481SOL    HW211343   2.998   2.786   5.214
 2482SOL     OW11344   4.605   4.053   0.957
 2482SOL    HW111345   4.647   4.053   0.866
 2482SOL    HW211346   4.649   4.122   1.014
 2483SOL     OW11347   1.948   4.185   5.678
 2483SOL    HW111348   1.997   4.218   5.597
 2483SOL    HW211349   2.000   4.112   5.722
 2484SOL     OW11350   0.565   0.033   2.076
 2484SOL    HW111351   0.492   0.026   2.008
 2484SOL    HW211352   0.526   0.063   2.163
 2485SOL     OW11353   1.027   1.660   5.469
 2485SOL    HW111354   0.995   1.632   5.559
 2485SOL    HW211355   1.081   1.744   5.477
 2486SOL     OW11356   3.904   0.545   0.543
 2486SOL    HW111357   3.889   0.500   0.631
 2486SOL    HW211358   3.940   0.478   0.477
 2487SOL     OW11359   4.491   1.039   6.005
 2487SOL    HW111360   4.418   1.051   5.938
 2487SOL    HW211361   4.567   0.989   5.964
 2488SOL     OW11362   4.034   3.166   4.889
 2488SOL    HW111363   3.980   3.250   4.885
 2488SOL    HW211364   4.060   3.139   4.797
 2489SOL     OW11365   1.639   4.545   0.887
 2489SOL    HW111366   1.570   4.473   0.883
 2489SOL    HW211367   1.720   4.511   0.935
 2490SOL     OW11368   2.814   4.426   0.631
 2490SOL    HW111369   2.784   4.350   0.689
 2490SOL    HW211370   2.735   4.461   0.580
 2491SOL     OW11371   1.381   1.570   1.020
 2491SOL    HW111372   1.301   1.580   0.961
 2491SOL    HW211373   1.463   1.602   0.972
 2492SOL     OW11374   0.640   0.686   1.781
 2492SOL    HW111375   0.718   0.748   1.769
 2492SOL    HW211376   0.580   0.723   1.852
 2493SOL     OW11377   4.709   4.228   1.159
 2493SOL    HW111378   4.716   4.143   1.211
 2493SOL    HW211379   4.704   4.305   1.221
 2494SOL     OW11380   1.623   0.785   0.414
 2494SOL    HW111381   1.644   0.868   0.465
 2494SOL    HW211382   1.534   0.795   0.369
 2495SOL     OW11383   4.138   5.103   4.845
 2495SOL    HW111384   4.170   5.075   4.755
 2495SOL    HW211385   4.207   5.080   4.914
 2496SOL     OW11386   2.722   0.626   5.278
 2496SOL    HW111387   2.818   0.623   5.251
 2496SOL    HW211388   2.707   0.564   5.355
 2497SOL     OW11389   3.428   0.508   5.667
 2497SOL    HW111390   3.497   0.547   5.728
 2497SOL    HW211391   3.379   0.434   5.714
 2498SOL     OW11392   4.878   3.188   5.547
 2498SOL    HW111393   4.951   3.233   5.600
 2498SOL    HW211394   4.919   3.131   5.477
 2499SOL     OW11395   2.255   3.823   0.957
 2499SOL    HW111396   2.221   3.788   0.870
 2499SOL    HW211397   2.318   3.756   0.997
 2500SOL     OW11398   4.549   4.515   5.453
 2500SOL    HW111399   4.568   4.561   5.540
 2500SOL    HW211400   4.542   4.416   5.468
 2501SOL     OW11401   4.535   3.655   5.768
 2501SOL    HW111402   4.620   3.645   5.718
 2501SOL    HW211403   4.500   3.748   5.756
 2502SOL     OW11404   4.166   1.795   4.812
 2502SOL    HW111405   4.077   1.834   4.837
 2502SOL    HW211406   4.224   1.867   4.773
 2503SOL     OW11407   4.996   2.116   5.394
 2503SOL    HW111408   4.974   2.193   5.334
 2503SOL    HW211409   4.915   2.090   5.446
 2504SOL     OW11410   2.808   2.902   5.552
 2504SOL    HW111411   2.878   2.954   5.602
 2504SOL    HW211412   2.804   2.935   5.458
 2505SOL     OW11413   4.095   3.661   4.575
 2505SOL    HW111414   3.995   3.665   4.570
 2505SOL    HW211415   4.134   3.711   4.498
 2506SOL     OW11416   5.190   3.386   5.138
 2506SOL    HW111417   5.282   3.423   5.127
 2506SOL    HW211418   5.123   3.461   5.139
 2507SOL     OW11419   3.487   1.147   1.035
 2507SOL    HW111420   3.420   1.146   1.110
 2507SOL    HW211421   3.536   1.234   1.036
 2508SOL     OW11422   0.532   0.977   0.884
 2508SOL    HW111423   0.506   1.036   0.960
 2508SOL    HW211424   0.481   0.890   0.891
 2509SOL     OW11425   2.605   3.483   5.728
 2509SOL    HW111426   2.576   3.577   5.749
 2509SOL    HW211427   2.601   3.468   5.629
 2510SOL     OW11428   3.348   4.468   5.356
 2510SOL    HW111429   3.416   4.520   5.305
 2510SOL    HW211430   3.270   4.526   5.378
 2511SOL     OW11431   0.225   4.784   0.968
 2511SOL    HW111432   0.132   4.789   0.932
 2511SOL    HW211433   0.291   4.789   0.893
 2512SOL     OW11434   4.034   2.850   0.261
 2512SOL    HW111435   3.950   2.848   0.207
 2512SOL    HW211436   4.100   2.785   0.223
 2513SOL     OW11437   1.339   0.501   5.851
 2513SOL    HW111438   1.265   0.568   5.849
 2513SOL    HW211439   1.401   0.517   5.774
 2514SOL     OW11440   1.047   2.313   1.060
 2514SOL    HW111441   1.030   2.300   1.158
 2514SOL    HW211442   1.130   2.367   1.047
 2515SOL     OW11443   5.270   0.719   5.582
 2515SOL    HW111444   5.195   0.703   5.647
 2515SOL    HW211445   5.329   0.639   5.579
 2516SOL     OW11446   4.697   2.131   5.940
 2516SOL    HW111447   4.655   2.219   5.963
 2516SOL    HW211448   4.795   2.134   5.960
 2517SOL     OW11449   2.969   2.710   1.283
 2517SOL    HW111450   3.065   2.711   1.257
 2517SOL    HW211451   2.959   2.669   1.374
 2518SOL     OW11452   3.512   3.556   0.527
 2518SOL    HW111453   3.594   3.508   0.498
 2518SOL    HW211454   3.521   3.654   0.505
 2519SOL     OW11455   2.551   2.160   5.181
 2519SOL    HW111456   2.509   2.079   5.221
 2519SOL    HW211457   2.630   2.187   5.237
 2520SOL     OW11458   1.593   5.117   0.051
 2520SOL    HW111459   1.607   5.123   5.968
 2520SOL    HW211460   1.639   5.035   0.087
 2521SOL     OW11461   1.941   0.275   0.650
 2521SOL    HW111462   1.981   0.342   0.713
 2521SOL    HW211463   1.987   0.280   0.561
 2522SOL     OW11464   1.985   4.603   5.798
 2522SOL    HW111465   1.893   4.577   5.767
 2522SOL    HW211466   1.978   4.654   5.884
 2523SOL     OW11467   1.554   0.840   5.478
 2523SOL    HW111468   1.599   0.830   5.566
 2523SOL    HW211469   1.575   0.760   5.421
 2524SOL     OW11470   0.841   0.930   4.704
 2524SOL    HW111471   0.843   0.899   4.609
 2524SOL    HW211472   0.747   0.925   4.738
 2525SOL     OW11473   2.379   3.618   0.051
 2525SOL    HW111474   2.279   3.616   0.055
 2525SOL    HW211475   2.412   3.706   0.087
 2526SOL     OW11476   0.647   2.970   4.651
 2526SOL    HW111477   0.698   3.046   4.613
 2526SOL    HW211478   0.654   2.891   4.590
 2527SOL     OW11479   1.380   2.943   0.997
 2527SOL    HW111480   1.469   2.958   1.041
 2527SOL    HW211481   1.376   2.849   0.963
 2528SOL     OW11482   3.725   2.496   0.595
 2528SOL    HW111483   3.685   2.574   0.547
 2528SOL    HW211484   3.822   2.487   0.571
 2529SOL     OW11485   1.105   2.265   4.475
 2529SOL    HW111486   1.060   2.206   4.407
 2529SOL    HW211487   1.204   2.260   4.463
 2530SOL     OW11488   1.482   4.778   0.253
 2530SOL    HW111489   1.439   4.860   0.290
 2530SOL    HW211490   1.412   4.715   0.220
 2531SOL     OW11491   0.662   4.450   1.132
 2531SOL    HW111492   0.675   4.546   1.157
 2531SOL    HW211493   0.740   4.419   1.077
 2532SOL     OW11494   4.845   3.015   0.837
 2532SOL    HW111495   4.907   3.075   0.889
 2532SOL    HW211496   4.788   2.963   0.900
 2533SOL     OW11497   4.794   1.636   0.944
 2533SOL    HW111498   4.716   1.581   0.974
 2533SOL    HW211499   4.798   1.720   0.998
 2534SOL     OW11500   2.059   0.702   1.593
 2534SOL    HW111501   2.032   0.730   1.686
 2534SOL    HW211502   2.062   0.603   1.588
 2535SOL     OW11503   1.287   2.451   1.024
 2535SOL    HW111504   1.292   2.545   0.990
 2535SOL    HW211505   1.368   2.400   0.993
 2536SOL     OW11506   4.271   5.019   4.581
 2536SOL    HW111507   4.317   4.999   4.495
 2536SOL    HW211508   4.196   4.954   4.595
 2537SOL     OW11509   1.858   3.325   0.076
 2537SOL    HW111510   1.804   3.347   6.010
 2537SOL    HW211511   1.955   3.318   0.052
 2538SOL     OW11512   3.531   0.005   5.495
 2538SOL    HW111513   3.611   0.034   5.546
 2538SOL    HW211514   3.554   5.652   5.398
 2539SOL     OW11515   3.991   0.305   4.346
 2539SOL    HW111516   4.000   0.359   4.263
 2539SOL    HW211517   3.894   0.291   4.366
 2540SOL     OW11518   0.624   3.485   5.093
 2540SOL    HW111519   0.629   3.407   5.031
 2540SOL    HW211520   0.563   3.554   5.055
 2541SOL     OW11521   1.879   1.338   5.566
 2541SOL    HW111522   1.973   1.326   5.532
 2541SOL    HW211523   1.871   1.297   5.657
 2542SOL     OW11524   3.052   5.541   4.287
 2542SOL    HW111525   2.965   5.590   4.282
 2542SOL    HW211526   3.048   5.461   4.227
 2543SOL     OW11527   4.119   3.674   0.343
 2543SOL    HW111528   4.217   3.687   0.360
 2543SOL    HW211529   4.075   3.763   0.335
 2544SOL     OW11530   3.569   2.270   0.584
 2544SOL    HW111531   3.614   2.360   0.585
 2544SOL    HW211532   3.633   2.201   0.619
 2545SOL     OW11533   2.861   4.011   0.174
 2545SOL    HW111534   2.806   4.073   0.118
 2545SOL    HW211535   2.936   3.975   0.120
 2546SOL     OW11536   4.492   2.496   0.275
 2546SOL    HW111537   4.583   2.491   0.315
 2546SOL    HW211538   4.489   2.572   0.210
 2547SOL     OW11539   4.791   2.021   5.554
 2547SOL    HW111540   4.709   2.059   5.597
 2547SOL    HW211541   4.848   1.978   5.624
 2548SOL     OW11542   0.934   0.883   5.282
 2548SOL    HW111543   0.886   0.956   5.233
 2548SOL    HW211544   0.908   0.884   5.378
 2549SOL     OW11545   2.955   3.947   5.743
 2549SOL    HW111546   2.911   3.916   5.659
 2549SOL    HW211547   3.053   3.956   5.728
 2550SOL     OW11548   5.275   0.202   0.057
 2550SOL    HW111549   5.348   0.256   0.098
 2550SOL    HW211550   5.201   0.189   0.123
 2551SOL     OW11551   4.549   5.013   1.357
 2551SOL    HW111552   4.619   5.030   1.427
 2551SOL    HW211553   4.460   5.045   1.391
 2552SOL     OW11554   1.239   3.750   5.037
 2552SOL    HW111555   1.141   3.767   5.044
 2552SOL    HW211556   1.279   3.813   4.970
 2553SOL     OW11557   5.510   0.101   5.155
 2553SOL    HW111558   5.456   0.119   5.073
 2553SOL    HW211559   5.603   0.078   5.129
 2554SOL     OW11560   1.607   4.085   4.713
 2554SOL    HW111561   1.525   4.056   4.664
 2554SOL    HW211562   1.660   4.148   4.656
 2555SOL     OW11563   2.787   5.134   1.629
 2555SOL    HW111564   2.721   5.140   1.704
 2555SOL    HW211565   2.837   5.048   1.636
 2556SOL     OW11566   3.522   5.142   5.837
 2556SOL    HW111567   3.538   5.146   5.935
 2556SOL    HW211568   3.524   5.046   5.807
 2557SOL     OW11569   0.541   1.825   0.838
 2557SOL    HW111570   0.560   1.846   0.934
 2557SOL    HW211571   0.562   1.906   0.782
 2558SOL     OW11572   0.928   0.616   4.435
 2558SOL    HW111573   0.997   0.625   4.364
 2558SOL    HW211574   0.959   0.550   4.503
 2559SOL     OW11575   1.608   0.244   5.048
 2559SOL    HW111576   1.540   0.252   4.976
 2559SOL    HW211577   1.628   0.335   5.085
 2560SOL     OW11578   4.747   2.327   1.615
 2560SOL    HW111579   4.673   2.384   1.650
 2560SOL    HW211580   4.834   2.374   1.627
 2561SOL     OW11581   4.632   0.007   1.696
 2561SOL    HW111582   4.678   5.581   1.732
 2561SOL    HW211583   4.533   5.645   1.693
 2562SOL     OW11584   5.027   1.184   5.758
 2562SOL    HW111585   5.122   1.178   5.728
 2562SOL    HW211586   4.984   1.094   5.751
 2563SOL     OW11587   1.620   0.126   5.455
 2563SOL    HW111588   1.594   0.062   5.382
 2563SOL    HW211589   1.585   0.093   5.542
 2564SOL     OW11590   0.479   0.038   5.787
 2564SOL    HW111591   0.390   0.038   5.833
 2564SOL    HW211592   0.521   0.129   5.796
 2565SOL     OW11593   5.555   4.101   4.906
 2565SOL    HW111594   5.467   4.145   4.922
 2565SOL    HW211595   5.572   4.034   4.979
 2566SOL     OW11596   2.381   1.203   5.994
 2566SOL    HW111597   2.316   1.206   0.054
 2566SOL    HW211598   2.474   1.196   0.013
 2567SOL     OW11599   5.249   1.106   1.280
 2567SOL    HW111600   5.271   1.023   1.330
 2567SOL    HW211601   5.256   1.089   1.182
 2568SOL     OW11602   0.501   5.130   5.355
 2568SOL    HW111603   0.407   5.125   5.320
 2568SOL    HW211604   0.525   5.225   5.372
 2569SOL     OW11605   0.690   2.244   4.881
 2569SOL    HW111606   0.600   2.266   4.917
 2569SOL    HW211607   0.686   2.160   4.828
 2570SOL     OW11608   2.531   5.288   0.884
 2570SOL    HW111609   2.630   5.304   0.886
 2570SOL    HW211610   2.513   5.199   0.843
 2571SOL     OW11611   3.887   2.002   0.227
 2571SOL    HW111612   3.818   2.051   0.174
 2571SOL    HW211613   3.970   2.057   0.234
 2572SOL     OW11614   0.497   3.217   0.279
 2572SOL    HW111615   0.484   3.118   0.280
 2572SOL    HW211616   0.408   3.263   0.289
 2573SOL     OW11617   2.221   5.629   5.338
 2573SOL    HW111618   2.130   0.007   5.365
 2573SOL    HW211619   2.280   5.625   5.419
 2574SOL     OW11620   0.658   1.793   1.550
 2574SOL    HW111621   0.568   1.784   1.593
 2574SOL    HW211622   0.729   1.784   1.620
 2575SOL     OW11623   4.330   5.034   0.543
 2575SOL    HW111624   4.264   5.110   0.550
 2575SOL    HW211625   4.397   5.055   0.472
 2576SOL     OW11626   2.661   1.459   1.400
 2576SOL    HW111627   2.710   1.466   1.313
 2576SOL    HW211628   2.676   1.368   1.440
 2577SOL     OW11629   5.263   3.898   4.776
 2577SOL    HW111630   5.208   3.973   4.812
 2577SOL    HW211631   5.315   3.929   4.696
 2578SOL     OW11632   2.811   0.781   1.064
 2578SOL    HW111633   2.896   0.834   1.061
 2578SOL    HW211634   2.806   0.721   0.984
 2579SOL     OW11635   0.049   3.254   5.786
 2579SOL    HW111636   5.689   3.192   5.741
 2579SOL    HW211637   0.031   3.348   5.755
 2580SOL     OW11638   4.900   2.502   5.441
 2580SOL    HW111639   4.939   2.447   5.367
 2580SOL    HW211640   4.875   2.442   5.517
 2581SOL     OW11641   0.239   0.481   4.863
 2581SOL    HW111642   0.255   0.456   4.768
 2581SOL    HW211643   0.152   0.531   4.870
 2582SOL     OW11644   1.806   4.017   5.136
 2582SOL    HW111645   1.731   4.005   5.071
 2582SOL    HW211646   1.771   4.064   5.218
 2583SOL     OW11647   4.408   2.259   5.237
 2583SOL    HW111648   4.363   2.177   5.203
 2583SOL    HW211649   4.365   2.287   5.323
 2584SOL     OW11650   4.317   1.571   4.808
 2584SOL    HW111651   4.259   1.652   4.804
 2584SOL    HW211652   4.269   1.493   4.768
 2585SOL     OW11653   1.495   5.171   0.905
 2585SOL    HW111654   1.471   5.224   0.824
 2585SOL    HW211655   1.468   5.222   0.987
 2586SOL     OW11656   5.647   2.829   1.546
 2586SOL    HW111657   5.691   2.850   1.633
 2586SOL    HW211658   5.560   2.877   1.539
 2587SOL     OW11659   4.758   0.886   1.383
 2587SOL    HW111660   4.745   0.909   1.479
 2587SOL    HW211661   4.669   0.888   1.336
 2588SOL     OW11662   0.488   1.355   0.936
 2588SOL    HW111663   0.447   1.310   0.857
 2588SOL    HW211664   0.504   1.288   1.008
 2589SOL     OW11665   1.422   1.408   5.886
 2589SOL    HW111666   1.432   1.460   5.971
 2589SOL    HW211667   1.416   1.471   5.809
 2590SOL     OW11668   2.937   3.520   5.131
 2590SOL    HW111669   2.955   3.514   5.033
 2590SOL    HW211670   3.015   3.564   5.176
 2591SOL     OW11671   2.799   4.660   1.257
 2591SOL    HW111672   2.729   4.706   1.202
 2591SOL    HW211673   2.798   4.697   1.350
 2592SOL     OW11674   2.054   4.928   5.414
 2592SOL    HW111675   2.015   4.911   5.323
 2592SOL    HW211676   2.049   4.845   5.469
 2593SOL     OW11677   4.042   0.270   5.364
 2593SOL    HW111678   4.136   0.287   5.334
 2593SOL    HW211679   3.997   0.356   5.385
 2594SOL     OW11680   4.338   5.573   5.151
 2594SOL    HW111681   4.410   5.574   5.221
 2594SOL    HW211682   4.331   5.481   5.113
 2595SOL     OW11683   1.554   2.741   0.553
 2595SOL    HW111684   1.489   2.739   0.477
 2595SOL    HW211685   1.542   2.825   0.605
 2596SOL     OW11686   2.992   0.640   4.318
 2596SOL    HW111687   3.007   0.559   4.374
 2596SOL    HW211688   3.079   0.689   4.308
 2597SOL     OW11689   3.071   1.802   0.814
 2597SOL    HW111690   3.035   1.848   0.895
 2597SOL    HW211691   2.998   1.795   0.745
 2598SOL     OW11692   2.129   1.963   0.819
 2598SOL    HW111693   2.116   1.913   0.734
 2598SOL    HW211694   2.140   1.898   0.895
 2599SOL     OW11695   4.708   0.785   5.467
 2599SOL    HW111696   4.757   0.698   5.465
 2599SOL    HW211697   4.773   0.860   5.463
 2600SOL     OW11698   2.412   4.568   5.789
 2600SOL    HW111699   2.417   4.552   5.691
 2600SOL    HW211700   2.497   4.538   5.832
 2601SOL     OW11701   5.288   3.731   5.851
 2601SOL    HW111702   5.338   3.658   5.803
 2601SOL    HW211703   5.213   3.763   5.793
 2602SOL     OW11704   1.172   1.019   1.648
 2602SOL    HW111705   1.130   1.099   1.690
 2602SOL    HW211706   1.150   0.937   1.701
 2603SOL     OW11707   4.685   0.246   5.867
 2603SOL    HW111708   4.727   0.226   5.778
 2603SOL    HW211709   4.754   0.238   5.939
 2604SOL     OW11710   2.902   5.396   0.245
 2604SOL    HW111711   2.954   5.353   0.318
 2604SOL    HW211712   2.962   5.413   0.167
 2605SOL     OW11713   4.152   2.208   5.836
 2605SOL    HW111714   4.224   2.203   5.906
 2605SOL    HW211715   4.062   2.196   5.880
 2606SOL     OW11716   1.685   4.158   5.341
 2606SOL    HW111717   1.592   4.143   5.307
 2606SOL    HW211718   1.693   4.121   5.434
 2607SOL     OW11719   0.145   3.276   0.825
 2607SOL    HW111720   0.081   3.351   0.840
 2607SOL    HW211721   0.182   3.247   0.913
 2608SOL     OW11722   1.744   0.853   5.962
 2608SOL    HW111723   1.741   0.952   5.972
 2608SOL    HW211724   1.660   0.812   5.998
 2609SOL     OW11725   3.178   3.675   0.046
 2609SOL    HW111726   3.213   3.671   0.140
 2609SOL    HW211727   3.215   3.599   6.009
 2610SOL     OW11728   1.673   0.188   1.055
 2610SOL    HW111729   1.760   0.211   1.098
 2610SOL    HW211730   1.683   0.103   1.003
 2611SOL     OW11731   3.643   4.468   1.404
 2611SOL    HW111732   3.577   4.394   1.390
 2611SOL    HW211733   3.656   4.484   1.502
 2612SOL     OW11734   4.641   3.369   1.088
 2612SOL    HW111735   4.633   3.383   1.186
 2612SOL    HW211736   4.735   3.391   1.059
 2613SOL     OW11737   5.573   2.925   0.313
 2613SOL    HW111738   5.582   3.007   0.370
 2613SOL    HW211739   5.655   2.914   0.257
 2614SOL     OW11740   0.375   5.208   5.673
 2614SOL    HW111741   0.459   5.155   5.667
 2614SOL    HW211742   0.396   5.304   5.655
 2615SOL     OW11743   0.201   3.983   5.146
 2615SOL    HW111744   0.266   4.002   5.072
 2615SOL    HW211745   0.215   4.048   5.220
 2616SOL     OW11746   1.555   2.977   5.937
 2616SOL    HW111747   1.555   3.068   5.896
 2616SOL    HW211748   1.650   2.947   5.951
 2617SOL     OW11749   2.197   2.785   1.337
 2617SOL    HW111750   2.134   2.729   1.391
 2617SOL    HW211751   2.257   2.836   1.399
 2618SOL     OW11752   5.409   0.281   5.350
 2618SOL    HW111753   5.314   0.284   5.317
 2618SOL    HW211754   5.465   0.230   5.285
 2619SOL     OW11755   5.500   1.264   5.529
 2619SOL    HW111756   5.563   1.190   5.554
 2619SOL    HW211757   5.530   1.349   5.573
 2620SOL     OW11758   1.316   2.823   5.229
 2620SOL    HW111759   1.339   2.729   5.255
 2620SOL    HW211760   1.235   2.822   5.170
 2621SOL     OW11761   2.729   5.647   5.759
 2621SOL    HW111762   2.672   5.575   5.719
 2621SOL    HW211763   2.701   0.010   5.853
 2622SOL     OW11764   0.775   4.695   1.223
 2622SOL    HW111765   0.780   4.667   1.319
 2622SOL    HW211766   0.867   4.699   1.185
 2623SOL     OW11767   3.369   4.027   1.316
 2623SOL    HW111768   3.270   4.044   1.313
 2623SOL    HW211769   3.386   3.938   1.360
 2624SOL     OW11770   2.672   1.973   4.622
 2624SOL    HW111771   2.639   2.000   4.532
 2624SOL    HW211772   2.747   1.908   4.612
 2625SOL     OW11773   0.514   1.140   1.124
 2625SOL    HW111774   0.563   1.184   1.198
 2625SOL    HW211775   0.498   1.044   1.147
 2626SOL     OW11776   3.841   5.580   4.616
 2626SOL    HW111777   3.880   5.489   4.599
 2626SOL    HW211778   3.791   5.611   4.535
 2627SOL     OW11779   0.556   0.579   1.091
 2627SOL    HW111780   0.639   0.522   1.093
 2627SOL    HW211781   0.512   0.576   1.181
 2628SOL     OW11782   3.564   1.979   1.186
 2628SOL    HW111783   3.594   1.888   1.214
 2628SOL    HW211784   3.464   1.982   1.185
 2629SOL     OW11785   0.959   1.958   5.133
 2629SOL    HW111786   0.999   1.866   5.137
 2629SOL    HW211787   0.860   1.951   5.126
 2630SOL     OW11788   2.916   2.247   2.089
 2630SOL    HW111789   2.931   2.339   2.052
 2630SOL    HW211790   2.819   2.235   2.110
 2631SOL     OW11791   1.808   2.923   1.438
 2631SOL    HW111792   1.800   2.869   1.354
 2631SOL    HW211793   1.808   3.021   1.416
 2632SOL     OW11794   4.060   1.809   5.356
 2632SOL    HW111795   4.029   1.888   5.303
 2632SOL    HW211796   4.159   1.815   5.368
 2633SOL     OW11797   5.362   3.315   1.363
 2633SOL    HW111798   5.455   3.297   1.330
 2633SOL    HW211799   5.307   3.232   1.353
 2634SOL     OW11800   3.191   3.940   1.602
 2634SOL    HW111801   3.128   3.886   1.659
 2634SOL    HW211802   3.228   4.016   1.656
 2635SOL     OW11803   2.120   5.263   0.747
 2635SOL    HW111804   2.130   5.250   0.846
 2635SOL    HW211805   2.189   5.210   0.699
 2636SOL     OW11806   5.242   1.022   1.009
 2636SOL    HW111807   5.143   1.012   1.003
 2636SOL    HW211808   5.283   0.936   1.038
 2637SOL     OW11809   4.123   2.508   5.361
 2637SOL    HW111810   4.176   2.439   5.411
 2637SOL    HW211811   4.077   2.568   5.426
 2638SOL     OW11812   0.090   0.869   4.751
 2638SOL    HW111813   0.103   0.947   4.690
 2638SOL    HW211814   0.166   0.865   4.816
 2639SOL     OW11815   1.737   2.000   1.132
 2639SOL    HW111816   1.785   2.017   1.046
 2639SOL    HW211817   1.776   2.058   1.204
 2640SOL     OW11818   5.596   0.807   1.231
 2640SOL    HW111819   5.667   0.817   1.162
 2640SOL    HW211820   5.624   0.853   1.315
 2641SOL     OW11821   2.664   2.448   5.483
 2641SOL    HW111822   2.735   2.516   5.505
 2641SOL    HW211823   2.612   2.427   5.566
 2642SOL     OW11824   1.142   0.499   0.186
 2642SOL    HW111825   1.171   0.492   0.281
 2642SOL    HW211826   1.151   0.594   0.155
 2643SOL     OW11827   0.351   2.291   5.657
 2643SOL    HW111828   0.411   2.233   5.713
 2643SOL    HW211829   0.258   2.286   5.693
 2644SOL     OW11830   0.170   1.990   4.467
 2644SOL    HW111831   0.183   2.042   4.383
 2644SOL    HW211832   0.082   1.943   4.465
 2645SOL     OW11833   1.930   2.909   5.453
 2645SOL    HW111834   1.913   2.836   5.519
 2645SOL    HW211835   1.848   2.923   5.397
 2646SOL     OW11836   4.640   5.038   4.204
 2646SOL    HW111837   4.653   4.954   4.151
 2646SOL    HW211838   4.700   5.110   4.168
 2647SOL     OW11839   1.819   0.526   5.637
 2647SOL    HW111840   1.907   0.560   5.603
 2647SOL    HW211841   1.830   0.494   5.731
 2648SOL     OW11842   3.339   3.841   0.880
 2648SOL    HW111843   3.332   3.910   0.808
 2648SOL    HW211844   3.357   3.752   0.839
 2649SOL     OW11845   1.559   4.615   1.248
 2649SOL    HW111846   1.644   4.653   1.211
 2649SOL    HW211847   1.566   4.610   1.348
 2650SOL     OW11848   0.405   3.419   4.206
 2650SOL    HW111849   0.424   3.505   4.159
 2650SOL    HW211850   0.492   3.371   4.223
 2651SOL     OW11851   1.953   3.707   0.282
 2651SOL    HW111852   2.007   3.664   0.210
 2651SOL    HW211853   1.977   3.667   0.371
 2652SOL     OW11854   1.666   4.892   5.600
 2652SOL    HW111855   1.591   4.953   5.624
 2652SOL    HW211856   1.746   4.914   5.655
 2653SOL     OW11857   4.723   0.677   0.912
 2653SOL    HW111858   4.821   0.662   0.908
 2653SOL    HW211859   4.676   0.606   0.860
 2654SOL     OW11860   1.035   0.077   0.495
 2654SOL    HW111861   1.049   5.640   0.532
 2654SOL    HW211862   1.106   0.096   0.426
 2655SOL     OW11863   4.761   0.355   4.941
 2655SOL    HW111864   4.801   0.434   4.894
 2655SOL    HW211865   4.826   0.279   4.939
 2656SOL     OW11866   5.480   2.048   0.654
 2656SOL    HW111867   5.579   2.052   0.637
 2656SOL    HW211868   5.444   1.961   0.621
 2657SOL     OW11869   3.713   1.290   0.061
 2657SOL    HW111870   3.769   1.242   0.129
 2657SOL    HW211871   3.773   1.334   6.010
 2658SOL     OW11872   0.849   5.336   0.587
 2658SOL    HW111873   0.841   5.273   0.664
 2658SOL    HW211874   0.806   5.423   0.610
 2659SOL     OW11875   0.470   2.950   0.247
 2659SOL    HW111876   0.415   2.954   0.163
 2659SOL    HW211877   0.508   2.858   0.257
 2660SOL     OW11878   1.033   4.900   1.743
 2660SOL    HW111879   1.009   4.871   1.836
 2660SOL    HW211880   1.116   4.956   1.746
 2661SOL     OW11881   1.457   1.772   4.800
 2661SOL    HW111882   1.370   1.730   4.774
 2661SOL    HW211883   1.477   1.752   4.896
 2662SOL     OW11884   5.080   3.962   5.369
 2662SOL    HW111885   5.031   4.033   5.317
 2662SOL    HW211886   5.136   4.006   5.439
 2663SOL     OW11887   1.591   1.242   4.147
 2663SOL    HW111888   1.492   1.247   4.162
 2663SOL    HW211889   1.622   1.148   4.162
 2664SOL     OW11890   2.884   4.779   0.317
 2664SOL    HW111891   2.928   4.803   0.404
 2664SOL    HW211892   2.917   4.839   0.245
 2665SOL     OW11893   3.453   1.381   5.384
 2665SOL    HW111894   3.534   1.371   5.441
 2665SOL    HW211895   3.451   1.474   5.346
 2666SOL     OW11896   0.500   3.796   1.975
 2666SOL    HW111897   0.486   3.699   1.997
 2666SOL    HW211898   0.558   3.838   2.044
 2667SOL     OW11899   5.253   5.507   1.954
 2667SOL    HW111900   5.329   5.553   2.001
 2667SOL    HW211901   5.170   5.562   1.964
 2668SOL     OW11902   4.345   0.594   4.300
 2668SOL    HW111903   4.351   0.496   4.279
 2668SOL    HW211904   4.375   0.647   4.220
 2669SOL     OW11905   4.680   4.468   4.437
 2669SOL    HW111906   4.597   4.417   4.417
 2669SOL    HW211907   4.677   4.557   4.392
 2670SOL     OW11908   4.740   1.616   4.983
 2670SOL    HW111909   4.646   1.646   4.997
 2670SOL    HW211910   4.782   1.596   5.071
 2671SOL     OW11911   1.608   2.004   5.124
 2671SOL    HW111912   1.687   2.063   5.110
 2671SOL    HW211913   1.524   2.056   5.108
 2672SOL     OW11914   1.675   1.234   1.112
 2672SOL    HW111915   1.580   1.267   1.115
 2672SOL    HW211916   1.715   1.241   1.203
 2673SOL     OW11917   0.230   4.193   5.339
 2673SOL    HW111918   0.311   4.251   5.342
 2673SOL    HW211919   0.190   4.186   5.430
 2674SOL     OW11920   5.655   5.186   5.567
 2674SOL    HW111921   0.029   5.125   5.565
 2674SOL    HW211922   5.672   5.263   5.505
 2675SOL     OW11923   0.591   0.872   5.869
 2675SOL    HW111924   0.607   0.818   5.787
 2675SOL    HW211925   0.675   0.919   5.895
 2676SOL     OW11926   5.320   4.274   0.447
 2676SOL    HW111927   5.298   4.371   0.446
 2676SOL    HW211928   5.337   4.242   0.354
 2677SOL     OW11929   4.310   4.103   5.983
 2677SOL    HW111930   4.358   4.186   5.956
 2677SOL    HW211931   4.325   4.031   5.915
 2678SOL     OW11932   2.304   1.274   4.651
 2678SOL    HW111933   2.376   1.306   4.590
 2678SOL    HW211934   2.346   1.241   4.736
 2679SOL     OW11935   0.876   4.560   0.200
 2679SOL    HW111936   0.815   4.492   0.240
 2679SOL    HW211937   0.937   4.596   0.270
 2680SOL     OW11938   0.512   0.977   1.530
 2680SOL    HW111939   0.514   1.003   1.626
 2680SOL    HW211940   0.560   1.047   1.476
 2681SOL     OW11941   4.986   5.527   0.684
 2681SOL    HW111942   4.903   5.557   0.637
 2681SOL    HW211943   4.988   5.427   0.688
 2682SOL     OW11944   4.142   3.820   5.042
 2682SOL    HW111945   4.178   3.825   5.136
 2682SOL    HW211946   4.214   3.848   4.978
 2683SOL     OW11947   3.216   1.904   4.327
 2683SOL    HW111948   3.223   1.862   4.236
 2683SOL    HW211949   3.123   1.936   4.341
 2684SOL     OW11950   0.585   0.115   0.669
 2684SOL    HW111951   0.653   0.043   0.678
 2684SOL    HW211952   0.596   0.160   0.580
 2685SOL     OW11953   4.764   5.360   0.086
 2685SOL    HW111954   4.832   5.313   0.141
 2685SOL    HW211955   4.698   5.405   0.145
 2686SOL     OW11956   1.352   4.321   1.889
 2686SOL    HW111957   1.421   4.393   1.880
 2686SOL    HW211958   1.331   4.308   1.986
 2687SOL     OW11959   0.897   0.848   0.117
 2687SOL    HW111960   0.868   0.901   0.038
 2687SOL    HW211961   0.880   0.900   0.201
 2688SOL     OW11962   3.041   0.465   0.551
 2688SOL    HW111963   3.127   0.416   0.535
 2688SOL    HW211964   3.060   0.555   0.589
 2689SOL     OW11965   4.938   0.866   0.039
 2689SOL    HW111966   4.928   0.939   0.106
 2689SOL    HW211967   5.027   0.872   6.011
 2690SOL     OW11968   0.739   5.230   5.758
 2690SOL    HW111969   0.690   5.159   5.708
 2690SOL    HW211970   0.769   5.301   5.695
 2691SOL     OW11971   1.537   1.208   0.470
 2691SOL    HW111972   1.568   1.302   0.458
 2691SOL    HW211973   1.488   1.178   0.388
 2692SOL     OW11974   1.622   2.998   1.120
 2692SOL    HW111975   1.662   2.916   1.161
 2692SOL    HW211976   1.689   3.043   1.061
 2693SOL     OW11977   1.482   5.260   0.627
 2693SOL    HW111978   1.475   5.359   0.631
 2693SOL    HW211979   1.515   5.233   0.536
 2694SOL     OW11980   1.616   3.226   0.430
 2694SOL    HW111981   1.617   3.311   0.377
 2694SOL    HW211982   1.564   3.241   0.515
 2695SOL     OW11983   0.189   3.356   5.059
 2695SOL    HW111984   0.154   3.290   5.126
 2695SOL    HW211985   0.203   3.445   5.102
 2696SOL     OW11986   5.180   5.174   0.715
 2696SOL    HW111987   5.086   5.203   0.696
 2696SOL    HW211988   5.233   5.174   0.630
 2697SOL     OW11989   1.323   4.728   1.158
 2697SOL    HW111990   1.396   4.679   1.205
 2697SOL    HW211991   1.338   4.723   1.059
 2698SOL     OW11992   5.469   0.845   5.123
 2698SOL    HW111993   5.487   0.748   5.103
 2698SOL    HW211994   5.415   0.852   5.207
 2699SOL     OW11995   1.968   2.457   0.726
 2699SOL    HW111996   1.998   2.453   0.630
 2699SOL    HW211997   2.043   2.490   0.783
 2700SOL     OW11998   4.873   5.531   5.666
 2700SOL    HW111999   4.973   5.529   5.655
 2700SOL    HW212000   4.845   5.459   5.730
 2701SOL     OW12001   4.336   2.502   5.894
 2701SOL    HW112002   4.293   2.478   5.981
 2701SOL    HW212003   4.266   2.504   5.822
 2702SOL     OW12004   0.768   2.673   4.814
 2702SOL    HW112005   0.843   2.723   4.770
 2702SOL    HW212006   0.711   2.738   4.865
 2703SOL     OW12007   5.009   5.096   5.865
 2703SOL    HW112008   5.023   5.029   5.938
 2703SOL    HW212009   5.096   5.143   5.847
 2704SOL     OW12010   0.665   2.756   5.167
 2704SOL    HW112011   0.678   2.811   5.085
 2704SOL    HW212012   0.575   2.714   5.166
 2705SOL     OW12013   3.111   0.104   4.900
 2705SOL    HW112014   3.101   0.152   4.813
 2705SOL    HW212015   3.065   0.156   4.972
 2706SOL     OW12016   0.598   3.954   5.122
 2706SOL    HW112017   0.519   3.962   5.060
 2706SOL    HW212018   0.607   3.859   5.152
 2707SOL     OW12019   0.135   5.336   0.641
 2707SOL    HW112020   0.170   5.245   0.663
 2707SOL    HW212021   0.096   5.377   0.723
 2708SOL     OW12022   1.912   3.526   4.801
 2708SOL    HW112023   1.996   3.511   4.749
 2708SOL    HW212024   1.878   3.618   4.784
 2709SOL     OW12025   3.684   4.668   4.900
 2709SOL    HW112026   3.638   4.581   4.881
 2709SOL    HW212027   3.773   4.670   4.853
 2710SOL     OW12028   2.717   2.807   0.678
 2710SOL    HW112029   2.698   2.768   0.588
 2710SOL    HW212030   2.803   2.770   0.712
 2711SOL     OW12031   3.043   1.971   1.279
 2711SOL    HW112032   3.096   1.980   1.364
 2711SOL    HW212033   2.957   1.925   1.299
 2712SOL     OW12034   1.537   2.099   5.477
 2712SOL    HW112035   1.493   2.011   5.460
 2712SOL    HW212036   1.631   2.084   5.510
 2713SOL     OW12037   0.726   4.680   4.974
 2713SOL    HW112038   0.652   4.685   5.041
 2713SOL    HW212039   0.813   4.674   5.022
 2714SOL     OW12040   0.242   2.228   0.659
 2714SOL    HW112041   0.277   2.199   0.748
 2714SOL    HW212042   0.314   2.277   0.609
 2715SOL     OW12043   1.069   4.096   5.049
 2715SOL    HW112044   1.020   4.008   5.045
 2715SOL    HW212045   1.003   4.171   5.046
 2716SOL     OW12046   4.103   4.036   4.477
 2716SOL    HW112047   4.127   3.948   4.434
 2716SOL    HW212048   4.164   4.107   4.443
 2717SOL     OW12049   3.274   1.236   4.824
 2717SOL    HW112050   3.368   1.251   4.792
 2717SOL    HW212051   3.220   1.197   4.750
 2718SOL     OW12052   3.806   2.808   0.100
 2718SOL    HW112053   3.882   2.814   0.035
 2718SOL    HW212054   3.798   2.714   0.133
 2719SOL     OW12055   3.629   0.468   0.053
 2719SOL    HW112056   3.580   0.497   0.135
 2719SOL    HW212057   3.574   0.400   0.004
 2720SOL     OW12058   0.134   1.205   0.831
 2720SOL    HW112059   0.097   1.297   0.816
 2720SOL    HW212060   0.136   1.185   0.929
 2721SOL     OW12061   0.014   0.972   1.899
 2721SOL    HW112062   0.007   0.929   1.989
 2721SOL    HW212063   0.075   1.051   1.905
 2722SOL     OW12064   5.129   3.105   5.142
 2722SOL    HW112065   5.137   3.205   5.140
 2722SOL    HW212066   5.121   3.070   5.049
 2723SOL     OW12067   2.200   1.718   5.557
 2723SOL    HW112068   2.202   1.649   5.629
 2723SOL    HW212069   2.276   1.702   5.493
 2724SOL     OW12070   4.696   3.650   0.730
 2724SOL    HW112071   4.746   3.602   0.658
 2724SOL    HW212072   4.623   3.706   0.689
 2725SOL     OW12073   4.501   1.731   0.451
 2725SOL    HW112074   4.523   1.816   0.403
 2725SOL    HW212075   4.531   1.739   0.546
 2726SOL     OW12076   2.794   1.097   4.533
 2726SOL    HW112077   2.750   1.050   4.457
 2726SOL    HW212078   2.855   1.168   4.497
 2727SOL     OW12079   2.848   2.376   0.986
 2727SOL    HW112080   2.853   2.473   1.008
 2727SOL    HW212081   2.879   2.322   1.064
 2728SOL     OW12082   1.885   0.466   1.023
 2728SOL    HW112083   1.896   0.380   1.073
 2728SOL    HW212084   1.953   0.471   0.950
 2729SOL     OW12085   1.418   0.263   4.848
 2729SOL    HW112086   1.441   0.237   4.754
 2729SOL    HW212087   1.338   0.211   4.878
 2730SOL     OW12088   3.298   2.797   0.940
 2730SOL    HW112089   3.336   2.888   0.954
 2730SOL    HW212090   3.325   2.763   0.850
 2731SOL     OW12091   2.800   2.054   5.921
 2731SOL    HW112092   2.795   2.006   6.009
 2731SOL    HW212093   2.835   1.993   5.851
 2732SOL     OW12094   3.994   1.537   1.912
 2732SOL    HW112095   3.958   1.463   1.969
 2732SOL    HW212096   4.037   1.498   1.830
 2733SOL     OW12097   5.595   3.868   0.261
 2733SOL    HW112098   5.498   3.882   0.278
 2733SOL    HW212099   5.610   3.850   0.164
 2734SOL     OW12100   0.042   0.883   0.508
 2734SOL    HW112101   0.021   0.931   0.593
 2734SOL    HW212102   0.129   0.916   0.472
 2735SOL     OW12103   4.254   0.283   5.039
 2735SOL    HW112104   4.262   0.311   5.135
 2735SOL    HW212105   4.339   0.303   4.991
 2736SOL     OW12106   3.930   0.510   5.417
 2736SOL    HW112107   3.860   0.528   5.349
 2736SOL    HW212108   3.967   0.596   5.452
 2737SOL     OW12109   1.800   3.615   0.700
 2737SOL    HW112110   1.758   3.694   0.657
 2737SOL    HW212111   1.820   3.637   0.796
 2738SOL     OW12112   5.360   0.790   1.087
 2738SOL    HW112113   5.318   0.700   1.101
 2738SOL    HW212114   5.440   0.798   1.146
 2739SOL     OW12115   5.176   0.672   1.307
 2739SOL    HW112116   5.093   0.710   1.265
 2739SOL    HW212117   5.232   0.747   1.343
 2740SOL     OW12118   2.968   4.628   5.803
 2740SOL    HW112119   2.971   4.529   5.815
 2740SOL    HW212120   3.044   4.670   5.853
 2741SOL     OW12121   3.012   0.261   5.103
 2741SOL    HW112122   3.015   0.231   5.199
 2741SOL    HW212123   3.072   0.340   5.091
 2742SOL     OW12124   4.217   3.957   0.722
 2742SOL    HW112125   4.230   3.863   0.689
 2742SOL    HW212126   4.265   3.968   0.809
 2743SOL     OW12127   3.528   1.830   4.761
 2743SOL    HW112128   3.457   1.847   4.692
 2743SOL    HW212129   3.610   1.794   4.716
 2744SOL     OW12130   0.488   4.018   1.223
 2744SOL    HW112131   0.534   4.098   1.262
 2744SOL    HW212132   0.540   3.936   1.247
 2745SOL     OW12133   3.415   4.650   0.814
 2745SOL    HW112134   3.359   4.716   0.864
 2745SOL    HW212135   3.453   4.583   0.878
 2746SOL     OW12136   1.927   0.236   1.171
 2746SOL    HW112137   1.978   0.162   1.126
 2746SOL    HW212138   1.976   0.264   1.253
 2747SOL     OW12139   3.113   3.164   1.058
 2747SOL    HW112140   3.100   3.240   1.122
 2747SOL    HW212141   3.094   3.195   0.965
 2748SOL     OW12142   3.569   4.712   1.292
 2748SOL    HW112143   3.470   4.712   1.277
 2748SOL    HW212144   3.598   4.622   1.323
 2749SOL     OW12145   0.047   0.169   1.374
 2749SOL    HW112146   5.687   0.191   1.447
 2749SOL    HW212147   0.141   0.175   1.410
 2750SOL     OW12148   2.746   4.949   0.870
 2750SOL    HW112149   2.820   4.983   0.927
 2750SOL    HW212150   2.744   4.849   0.874
 2751SOL     OW12151   3.638   5.049   5.343
 2751SOL    HW112152   3.577   5.119   5.378
 2751SOL    HW212153   3.651   5.062   5.245
 2752SOL     OW12154   3.533   0.418   1.487
 2752SOL    HW112155   3.527   0.335   1.543
 2752SOL    HW212156   3.441   0.453   1.469
 2753SOL     OW12157   2.304   4.058   1.089
 2753SOL    HW112158   2.288   3.972   1.041
 2753SOL    HW212159   2.310   4.133   1.022
 2754SOL     OW12160   1.781   2.486   5.478
 2754SOL    HW112161   1.830   2.560   5.524
 2754SOL    HW212162   1.781   2.405   5.537
 2755SOL     OW12163   4.985   0.712   4.165
 2755SOL    HW112164   4.954   0.642   4.099
 2755SOL    HW212165   4.958   0.802   4.132
 2756SOL     OW12166   3.116   2.114   5.521
 2756SOL    HW112167   3.190   2.049   5.507
 2756SOL    HW212168   3.028   2.070   5.503
 2757SOL     OW12169   2.379   0.639   0.509
 2757SOL    HW112170   2.397   0.718   0.450
 2757SOL    HW212171   2.329   0.569   0.458
 2758SOL     OW12172   0.891   0.295   5.202
 2758SOL    HW112173   0.823   0.273   5.133
 2758SOL    HW212174   0.873   0.241   5.284
 2759SOL     OW12175   1.757   3.414   5.848
 2759SOL    HW112176   1.837   3.393   5.791
 2759SOL    HW212177   1.744   3.513   5.851
 2760SOL     OW12178   4.075   4.610   0.685
 2760SOL    HW112179   4.128   4.661   0.617
 2760SOL    HW212180   4.043   4.524   0.644
 2761SOL     OW12181   2.916   1.124   5.028
 2761SOL    HW112182   2.876   1.107   5.118
 2761SOL    HW212183   3.014   1.109   5.032
 2762SOL     OW12184   2.596   2.646   4.685
 2762SOL    HW112185   2.592   2.595   4.598
 2762SOL    HW212186   2.692   2.666   4.707
 2763SOL     OW12187   1.283   4.434   0.881
 2763SOL    HW112188   1.196   4.391   0.906
 2763SOL    HW212189   1.358   4.373   0.906
 2764SOL     OW12190   3.812   5.107   0.190
 2764SOL    HW112191   3.836   5.072   0.099
 2764SOL    HW212192   3.785   5.031   0.249
 2765SOL     OW12193   1.773   4.292   5.869
 2765SOL    HW112194   1.811   4.345   5.945
 2765SOL    HW212195   1.847   4.264   5.808
 2766SOL     OW12196   4.013   0.758   5.496
 2766SOL    HW112197   4.005   0.849   5.458
 2766SOL    HW212198   3.979   0.758   5.590
 2767SOL     OW12199   0.057   1.630   5.534
 2767SOL    HW112200   0.152   1.658   5.547
 2767SOL    HW212201   0.004   1.708   5.501
 2768SOL     OW12202   2.204   2.917   1.102
 2768SOL    HW112203   2.301   2.943   1.094
 2768SOL    HW212204   2.190   2.867   1.187
 2769SOL     OW12205   0.778   0.606   0.411
 2769SOL    HW112206   0.775   0.684   0.474
 2769SOL    HW212207   0.787   0.522   0.464
 2770SOL     OW12208   5.077   4.776   4.755
 2770SOL    HW112209   5.082   4.821   4.666
 2770SOL    HW212210   5.168   4.748   4.784
 2771SOL     OW12211   0.323   1.531   0.350
 2771SOL    HW112212   0.402   1.470   0.343
 2771SOL    HW212213   0.241   1.483   0.318
 2772SOL     OW12214   1.609   1.794   0.055
 2772SOL    HW112215   1.615   1.893   0.068
 2772SOL    HW212216   1.646   1.770   5.981
 2773SOL     OW12217   4.086   4.858   5.779
 2773SOL    HW112218   4.091   4.849   5.879
 2773SOL    HW212219   3.993   4.882   5.753
 2774SOL     OW12220   3.021   5.335   5.710
 2774SOL    HW112221   3.113   5.302   5.733
 2774SOL    HW212222   3.010   5.428   5.743
 2775SOL     OW12223   2.194   1.010   5.474
 2775SOL    HW112224   2.277   1.007   5.419
 2775SOL    HW212225   2.210   0.963   5.562
 2776SOL     OW12226   2.052   2.386   5.825
 2776SOL    HW112227   1.988   2.340   5.763
 2776SOL    HW212228   2.019   2.478   5.846
 2777SOL     OW12229   5.640   1.192   0.154
 2777SOL    HW112230   5.681   1.132   0.085
 2777SOL    HW212231   5.618   1.139   0.236
 2778SOL     OW12232   3.995   2.462   0.555
 2778SOL    HW112233   4.038   2.392   0.611
 2778SOL    HW212234   4.027   2.552   0.584
 2779SOL     OW12235   3.676   1.370   5.542
 2779SOL    HW112236   3.728   1.425   5.476
 2779SOL    HW212237   3.721   1.282   5.555
 2780SOL     OW12238   3.651   5.124   5.081
 2780SOL    HW112239   3.739   5.095   5.043
 2780SOL    HW212240   3.586   5.139   5.006
 2781SOL     OW12241   1.263   3.568   4.127
 2781SOL    HW112242   1.201   3.498   4.091
 2781SOL    HW212243   1.271   3.643   4.061
 2782SOL     OW12244   0.456   3.645   4.575
 2782SOL    HW112245   0.531   3.686   4.524
 2782SOL    HW212246   0.467   3.546   4.577
 2783SOL     OW12247   2.450   1.340   5.104
 2783SOL    HW112248   2.490   1.423   5.065
 2783SOL    HW212249   2.438   1.272   5.031
 2784SOL     OW12250   5.304   5.171   0.458
 2784SOL    HW112251   5.225   5.115   0.434
 2784SOL    HW212252   5.342   5.212   0.374
 2785SOL     OW12253   0.193   3.148   4.649
 2785SOL    HW112254   0.112   3.090   4.645
 2785SOL    HW212255   0.207   3.191   4.559
 2786SOL     OW12256   2.416   5.370   4.329
 2786SOL    HW112257   2.494   5.432   4.332
 2786SOL    HW212258   2.336   5.418   4.292
 2787SOL     OW12259   0.940   4.423   5.980
 2787SOL    HW112260   0.918   4.478   0.045
 2787SOL    HW212261   0.893   4.335   5.985
 2788SOL     OW12262   1.903   3.974   0.242
 2788SOL    HW112263   1.924   3.876   0.248
 2788SOL    HW212264   1.977   4.019   0.192
 2789SOL     OW12265   3.707   4.045   0.155
 2789SOL    HW112266   3.788   4.016   0.105
 2789SOL    HW212267   3.627   3.995   0.122
 2790SOL     OW12268   1.973   1.606   0.829
 2790SOL    HW112269   1.928   1.525   0.868
 2790SOL    HW212270   2.072   1.590   0.824
 2791SOL     OW12271   0.541   5.518   4.929
 2791SOL    HW112272   0.474   5.463   4.879
 2791SOL    HW212273   0.563   5.472   5.015
 2792SOL     OW12274   5.660   5.443   4.983
 2792SOL    HW112275   5.695   5.418   4.892
 2792SOL    HW212276   5.692   5.535   5.006
 2793SOL     OW12277   2.606   5.375   4.910
 2793SOL    HW112278   2.646   5.286   4.932
 2793SOL    HW212279   2.508   5.364   4.892
 2794SOL     OW12280   1.592   4.265   2.100
 2794SOL    HW112281   1.496   4.246   2.121
 2794SOL    HW212282   1.608   4.363   2.103
 2795SOL     OW12283   4.330   3.858   0.410
 2795SOL    HW112284   4.398   3.927   0.386
 2795SOL    HW212285   4.238   3.893   0.391
 2796SOL     OW12286   4.361   1.331   5.273
 2796SOL    HW112287   4.327   1.250   5.225
 2796SOL    HW212288   4.384   1.305   5.367
 2797SOL     OW12289   3.049   3.861   5.077
 2797SOL    HW112290   3.075   3.781   5.131
 2797SOL    HW212291   3.127   3.922   5.069
 2798SOL     OW12292   0.254   3.028   4.339
 2798SOL    HW112293   0.197   3.003   4.261
 2798SOL    HW212294   0.259   3.127   4.347
 2799SOL     OW12295   0.282   4.637   4.006
 2799SOL    HW112296   0.198   4.613   4.054
 2799SOL    HW212297   0.276   4.606   3.911
 2800SOL     OW12298   5.308   3.999   1.036
 2800SOL    HW112299   5.213   3.981   1.013
 2800SOL    HW212300   5.346   3.923   1.087
 2801SOL     OW12301   2.736   4.719   5.239
 2801SOL    HW112302   2.737   4.816   5.214
 2801SOL    HW212303   2.828   4.681   5.229
 2802SOL     OW12304   1.706   2.770   1.637
 2802SOL    HW112305   1.748   2.825   1.565
 2802SOL    HW212306   1.725   2.811   1.726
 2803SOL     OW12307   1.767   1.681   0.256
 2803SOL    HW112308   1.782   1.732   0.341
 2803SOL    HW212309   1.697   1.728   0.202
 2804SOL     OW12310   1.672   3.916   4.193
 2804SOL    HW112311   1.655   4.010   4.166
 2804SOL    HW212312   1.755   3.883   4.147
 2805SOL     OW12313   3.942   4.244   5.519
 2805SOL    HW112314   3.957   4.265   5.423
 2805SOL    HW212315   4.027   4.258   5.570
 2806SOL     OW12316   3.617   2.800   5.913
 2806SOL    HW112317   3.632   2.713   5.865
 2806SOL    HW212318   3.685   2.810   5.986
 2807SOL     OW12319   3.684   3.242   0.242
 2807SOL    HW112320   3.594   3.280   0.221
 2807SOL    HW212321   3.749   3.270   0.171
 2808SOL     OW12322   2.500   3.481   0.542
 2808SOL    HW112323   2.484   3.546   0.616
 2808SOL    HW212324   2.523   3.392   0.581
 2809SOL     OW12325   3.080   5.442   0.040
 2809SOL    HW112326   3.161   5.495   0.066
 2809SOL    HW212327   3.039   5.481   5.973
 2810SOL     OW12328   3.221   2.971   0.405
 2810SOL    HW112329   3.123   2.988   0.404
 2810SOL    HW212330   3.265   3.019   0.329
 2811SOL     OW12331   4.488   2.776   1.196
 2811SOL    HW112332   4.523   2.779   1.289
 2811SOL    HW212333   4.556   2.814   1.133
 2812SOL     OW12334   3.280   2.126   0.935
 2812SOL    HW112335   3.222   2.207   0.921
 2812SOL    HW212336   3.283   2.072   0.851
 2813SOL     OW12337   4.940   0.152   4.934
 2813SOL    HW112338   4.926   0.064   4.888
 2813SOL    HW212339   5.037   0.164   4.955
 2814SOL     OW12340   3.304   3.504   4.625
 2814SOL    HW112341   3.343   3.412   4.635
 2814SOL    HW212342   3.303   3.549   4.714
 2815SOL     OW12343   2.529   4.842   1.594
 2815SOL    HW112344   2.619   4.819   1.555
 2815SOL    HW212345   2.526   4.814   1.690
 2816SOL     OW12346   2.363   5.423   4.591
 2816SOL    HW112347   2.396   5.517   4.598
 2816SOL    HW212348   2.378   5.390   4.497
 2817SOL     OW12349   3.228   1.404   0.568
 2817SOL    HW112350   3.275   1.332   0.620
 2817SOL    HW212351   3.130   1.404   0.592
 2818SOL     OW12352   4.237   3.034   0.232
 2818SOL    HW112353   4.273   3.044   0.324
 2818SOL    HW212354   4.160   2.970   0.233
 2819SOL     OW12355   3.459   4.390   5.592
 2819SOL    HW112356   3.425   4.415   5.501
 2819SOL    HW212357   3.559   4.388   5.591
 2820SOL     OW12358   3.852   1.925   0.487
 2820SOL    HW112359   3.864   1.956   0.393
 2820SOL    HW212360   3.822   2.002   0.544
 2821SOL     OW12361   4.492   5.133   0.337
 2821SOL    HW112362   4.427   5.173   0.272
 2821SOL    HW212363   4.540   5.207   0.384
 2822SOL     OW12364   2.861   2.629   5.558
 2822SOL    HW112365   2.837   2.727   5.562
 2822SOL    HW212366   2.905   2.602   5.643
 2823SOL     OW12367   2.876   3.835   0.706
 2823SOL    HW112368   2.941   3.855   0.780
 2823SOL    HW212369   2.783   3.847   0.739
 2824SOL     OW12370   2.790   0.325   4.954
 2824SOL    HW112371   2.861   0.292   5.017
 2824SOL    HW212372   2.833   0.357   4.870
 2825SOL     OW12373   1.811   0.560   4.675
 2825SOL    HW112374   1.836   0.583   4.581
 2825SOL    HW212375   1.721   0.596   4.696
 2826SOL     OW12376   3.727   0.276   4.421
 2826SOL    HW112377   3.724   0.176   4.420
 2826SOL    HW212378   3.639   0.312   4.390
 2827SOL     OW12379   1.855   0.605   4.411
 2827SOL    HW112380   1.828   0.691   4.369
 2827SOL    HW212381   1.795   0.531   4.378
 2828SOL     OW12382   2.156   3.142   5.061
 2828SOL    HW112383   2.160   3.073   4.989
 2828SOL    HW212384   2.105   3.222   5.028
 2829SOL     OW12385   2.984   2.911   1.842
 2829SOL    HW112386   2.963   2.998   1.884
 2829SOL    HW212387   3.049   2.924   1.768
 2830SOL     OW12388   4.502   2.621   5.527
 2830SOL    HW112389   4.584   2.649   5.578
 2830SOL    HW212390   4.513   2.646   5.431
 2831SOL     OW12391   4.597   0.910   0.841
 2831SOL    HW112392   4.572   0.906   0.745
 2831SOL    HW212393   4.649   0.827   0.866
 2832SOL     OW12394   0.278   1.719   4.849
 2832SOL    HW112395   0.350   1.769   4.801
 2832SOL    HW212396   0.259   1.765   4.936
 2833SOL     OW12397   0.937   3.809   1.720
 2833SOL    HW112398   0.843   3.832   1.741
 2833SOL    HW212399   0.992   3.810   1.804
 2834SOL     OW12400   3.829   4.950   5.508
 2834SOL    HW112401   3.763   4.981   5.440
 2834SOL    HW212402   3.873   4.865   5.476
 2835SOL     OW12403   3.781   2.560   0.214
 2835SOL    HW112404   3.854   2.501   0.246
 2835SOL    HW212405   3.725   2.590   0.291
 2836SOL     OW12406   1.556   3.985   2.181
 2836SOL    HW112407   1.610   4.067   2.163
 2836SOL    HW212408   1.617   3.906   2.189
 2837SOL     OW12409   0.950   2.382   5.137
 2837SOL    HW112410   0.928   2.393   5.040
 2837SOL    HW212411   0.956   2.472   5.180
 2838SOL     OW12412   3.777   0.527   4.778
 2838SOL    HW112413   3.862   0.497   4.822
 2838SOL    HW212414   3.792   0.536   4.679
 2839SOL     OW12415   3.903   0.762   5.750
 2839SOL    HW112416   3.810   0.728   5.761
 2839SOL    HW212417   3.964   0.714   5.813
 2840SOL     OW12418   2.489   1.987   4.839
 2840SOL    HW112419   2.529   1.932   4.912
 2840SOL    HW212420   2.552   1.988   4.761
 2841SOL     OW12421   0.520   3.130   0.880
 2841SOL    HW112422   0.609   3.122   0.924
 2841SOL    HW212423   0.489   3.225   0.886
 2842SOL     OW12424   0.196   3.430   0.571
 2842SOL    HW112425   0.212   3.374   0.652
 2842SOL    HW212426   0.231   3.383   0.490
 2843SOL     OW12427   5.331   3.912   0.331
 2843SOL    HW112428   5.323   3.912   0.431
 2843SOL    HW212429   5.256   3.859   0.291
 2844SOL     OW12430   5.361   0.947   0.755
 2844SOL    HW112431   5.315   0.988   0.834
 2844SOL    HW212432   5.387   0.853   0.777
 2845SOL     OW12433   1.801   3.124   0.957
 2845SOL    HW112434   1.737   3.198   0.934
 2845SOL    HW212435   1.819   3.069   0.875
 2846SOL     OW12436   1.942   5.318   0.172
 2846SOL    HW112437   1.920   5.223   0.196
 2846SOL    HW212438   1.862   5.375   0.185
 2847SOL     OW12439   1.954   1.697   4.831
 2847SOL    HW112440   1.958   1.788   4.872
 2847SOL    HW212441   1.934   1.706   4.733
 2848SOL     OW12442   5.096   4.095   4.865
 2848SOL    HW112443   5.017   4.035   4.873
 2848SOL    HW212444   5.077   4.165   4.796
 2849SOL     OW12445   1.708   0.836   1.296
 2849SOL    HW112446   1.749   0.899   1.362
 2849SOL    HW212447   1.771   0.761   1.279
 2850SOL     OW12448   4.083   4.872   0.039
 2850SOL    HW112449   4.017   4.942   0.011
 2850SOL    HW212450   4.042   4.814   0.109
 2851SOL     OW12451   3.276   3.973   5.452
 2851SOL    HW112452   3.367   3.994   5.416
 2851SOL    HW212453   3.212   4.045   5.424
 2852SOL     OW12454   0.202   5.046   5.537
 2852SOL    HW112455   0.260   5.109   5.590
 2852SOL    HW212456   0.247   4.957   5.532
 2853SOL     OW12457   2.048   4.871   0.709
 2853SOL    HW112458   1.973   4.804   0.711
 2853SOL    HW212459   2.037   4.936   0.784
 2854SOL     OW12460   5.540   0.824   4.649
 2854SOL    HW112461   5.633   0.838   4.685
 2854SOL    HW212462   5.523   0.888   4.575
 2855SOL     OW12463   1.453   0.190   4.586
 2855SOL    HW112464   1.501   0.153   4.507
 2855SOL    HW212465   1.368   0.234   4.557
 2856SOL     OW12466   4.841   1.896   0.257
 2856SOL    HW112467   4.911   1.849   0.204
 2856SOL    HW212468   4.862   1.888   0.355
 2857SOL     OW12469   3.864   3.971   5.191
 2857SOL    HW112470   3.783   4.029   5.180
 2857SOL    HW212471   3.856   3.890   5.133
 2858SOL     OW12472   5.247   1.208   0.531
 2858SOL    HW112473   5.285   1.120   0.502
 2858SOL    HW212474   5.161   1.192   0.580
 2859SOL     OW12475   4.298   0.867   1.460
 2859SOL    HW112476   4.266   0.793   1.401
 2859SOL    HW212477   4.317   0.832   1.551
 2860SOL     OW12478   1.859   3.349   0.713
 2860SOL    HW112479   1.824   3.441   0.699
 2860SOL    HW212480   1.783   3.286   0.730
 2861SOL     OW12481   4.906   2.831   1.245
 2861SOL    HW112482   4.933   2.927   1.252
 2861SOL    HW212483   4.888   2.795   1.337
 2862SOL     OW12484   3.043   4.368   5.849
 2862SOL    HW112485   3.110   4.356   5.776
 2862SOL    HW212486   3.091   4.372   5.937
 2863SOL     OW12487   4.690   1.537   0.372
 2863SOL    HW112488   4.618   1.604   0.392
 2863SOL    HW212489   4.649   1.447   0.361
 2864SOL     OW12490   3.977   2.653   1.235
 2864SOL    HW112491   3.987   2.572   1.292
 2864SOL    HW212492   4.065   2.677   1.194
 2865SOL     OW12493   4.627   1.986   1.256
 2865SOL    HW112494   4.663   2.014   1.345
 2865SOL    HW212495   4.600   1.890   1.259
 2866SOL     OW12496   5.555   2.537   4.140
 2866SOL    HW112497   5.645   2.580   4.131
 2866SOL    HW212498   5.558   2.444   4.101
 2867SOL     OW12499   0.561   2.059   0.688
 2867SOL    HW112500   0.598   2.120   0.617
 2867SOL    HW212501   0.577   2.099   0.778
 2868SOL     OW12502   4.291   1.831   1.965
 2868SOL    HW112503   4.192   1.823   1.976
 2868SOL    HW212504   4.317   1.927   1.962
 2869SOL     OW12505   1.582   1.602   1.319
 2869SOL    HW112506   1.616   1.529   1.378
 2869SOL    HW212507   1.505   1.647   1.363
 2870SOL     OW12508   1.788   1.718   4.005
 2870SOL    HW112509   1.742   1.629   4.013
 2870SOL    HW212510   1.886   1.706   4.019
 2871SOL     OW12511   2.411   0.384   5.738
 2871SOL    HW112512   2.424   0.331   5.654
 2871SOL    HW212513   2.368   0.326   5.808
 2872SOL     OW12514   4.085   5.626   0.272
 2872SOL    HW112515   4.077   0.052   0.213
 2872SOL    HW212516   4.046   5.547   0.224
 2873SOL     OW12517   0.269   3.223   5.951
 2873SOL    HW112518   0.325   3.305   5.947
 2873SOL    HW212519   0.189   3.234   5.892
 2874SOL     OW12520   3.690   0.023   6.005
 2874SOL    HW112521   3.632   0.009   0.069
 2874SOL    HW212522   3.662   5.615   5.932
 2875SOL     OW12523   5.120   3.768   0.235
 2875SOL    HW112524   5.039   3.800   0.186
 2875SOL    HW212525   5.169   3.702   0.178
 2876SOL     OW12526   1.940   4.478   1.515
 2876SOL    HW112527   1.949   4.571   1.481
 2876SOL    HW212528   1.896   4.480   1.605
 2877SOL     OW12529   5.417   4.476   0.966
 2877SOL    HW112530   5.318   4.478   0.953
 2877SOL    HW212531   5.446   4.384   0.990
 2878SOL     OW12532   4.807   4.322   0.906
 2878SOL    HW112533   4.782   4.302   1.001
 2878SOL    HW212534   4.894   4.278   0.884
 2879SOL     OW12535   2.350   0.075   1.118
 2879SOL    HW112536   2.430   0.053   1.062
 2879SOL    HW212537   2.332   0.173   1.114
 2880SOL     OW12538   2.660   1.768   5.302
 2880SOL    HW112539   2.569   1.739   5.331
 2880SOL    HW212540   2.696   1.836   5.366
 2881SOL     OW12541   4.402   0.569   4.774
 2881SOL    HW112542   4.452   0.570   4.687
 2881SOL    HW212543   4.318   0.515   4.763
 2882SOL     OW12544   0.895   4.389   0.998
 2882SOL    HW112545   0.967   4.320   0.990
 2882SOL    HW212546   0.936   4.476   1.029
 2883SOL     OW12547   1.681   4.853   4.839
 2883SOL    HW112548   1.608   4.823   4.901
 2883SOL    HW212549   1.648   4.927   4.781
 2884SOL     OW12550   3.579   5.357   1.064
 2884SOL    HW112551   3.563   5.449   1.028
 2884SOL    HW212552   3.544   5.351   1.157
 2885SOL     OW12553   2.647   1.317   5.296
 2885SOL    HW112554   2.576   1.318   5.226
 2885SOL    HW212555   2.607   1.291   5.384
 2886SOL     OW12556   4.054   2.708   0.657
 2886SOL    HW112557   3.975   2.715   0.717
 2886SOL    HW212558   4.061   2.791   0.602
 2887SOL     OW12559   0.034   0.284   4.582
 2887SOL    HW112560   5.656   0.285   4.639
 2887SOL    HW212561   0.046   0.194   4.541
 2888SOL     OW12562   1.844   3.072   5.145
 2888SOL    HW112563   1.848   3.167   5.175
 2888SOL    HW212564   1.788   3.019   5.209
 2889SOL     OW12565   0.091   3.160   5.238
 2889SOL    HW112566   0.186   3.130   5.247
 2889SOL    HW212567   0.030   3.082   5.252
 2890SOL     OW12568   2.608   3.865   0.783
 2890SOL    HW112569   2.534   3.800   0.763
 2890SOL    HW212570   2.601   3.943   0.721
 2891SOL     OW12571   0.534   0.011   0.304
 2891SOL    HW112572   0.611   0.002   0.241
 2891SOL    HW212573   0.548   0.092   0.361
 2892SOL     OW12574   2.249   1.576   0.822
 2892SOL    HW112575   2.316   1.627   0.768
 2892SOL    HW212576   2.289   1.490   0.854
 2893SOL     OW12577   5.256   5.212   5.831
 2893SOL    HW112578   5.353   5.215   5.811
 2893SOL    HW212579   5.223   5.303   5.854
 2894SOL     OW12580   3.050   4.878   5.363
 2894SOL    HW112581   3.101   4.820   5.299
 2894SOL    HW212582   2.989   4.821   5.418
 2895SOL     OW12583   0.347   2.964   1.180
 2895SOL    HW112584   0.391   2.927   1.097
 2895SOL    HW212585   0.391   2.925   1.261
 2896SOL     OW12586   4.274   1.091   5.835
 2896SOL    HW112587   4.304   1.185   5.816
 2896SOL    HW212588   4.176   1.084   5.820
 2897SOL     OW12589   2.434   3.476   5.218
 2897SOL    HW112590   2.415   3.378   5.212
 2897SOL    HW212591   2.464   3.510   5.129
 2898SOL     OW12592   0.454   3.031   0.638
 2898SOL    HW112593   0.478   3.063   0.730
 2898SOL    HW212594   0.500   2.944   0.620
 2899SOL     OW12595   0.350   1.931   5.893
 2899SOL    HW112596   0.361   1.962   5.988
 2899SOL    HW212597   0.327   1.834   5.892
 2900SOL     OW12598   2.550   3.296   1.708
 2900SOL    HW112599   2.518   3.280   1.802
 2900SOL    HW212600   2.553   3.210   1.659
 2901SOL     OW12601   5.039   2.190   0.020
 2901SOL    HW112602   5.090   2.276   0.011
 2901SOL    HW212603   5.096   2.122   0.066
 2902SOL     OW12604   4.623   5.322   0.504
 2902SOL    HW112605   4.542   5.340   0.560
 2902SOL    HW212606   4.670   5.240   0.539
 2903SOL     OW12607   5.317   3.270   5.354
 2903SOL    HW112608   5.252   3.303   5.286
 2903SOL    HW212609   5.278   3.191   5.401
 2904SOL     OW12610   1.616   1.469   0.439
 2904SOL    HW112611   1.708   1.488   0.405
 2904SOL    HW212612   1.559   1.551   0.431
 2905SOL     OW12613   2.538   1.941   5.568
 2905SOL    HW112614   2.452   1.942   5.619
 2905SOL    HW212615   2.596   2.016   5.600
 2906SOL     OW12616   4.875   3.915   4.849
 2906SOL    HW112617   4.819   3.834   4.867
 2906SOL    HW212618   4.865   3.942   4.753
 2907SOL     OW12619   5.094   1.786   0.176
 2907SOL    HW112620   5.137   1.746   0.095
 2907SOL    HW212621   5.089   1.717   0.248
 2908SOL     OW12622   5.403   2.415   0.937
 2908SOL    HW112623   5.414   2.316   0.927
 2908SOL    HW212624   5.420   2.442   1.032
 2909SOL     OW12625   4.498   3.218   5.728
 2909SOL    HW112626   4.550   3.134   5.717
 2909SOL    HW212627   4.548   3.294   5.686
 2910SOL     OW12628   0.775   0.409   1.095
 2910SOL    HW112629   0.789   0.366   1.006
 2910SOL    HW212630   0.862   0.413   1.145
 2911SOL     OW12631   5.052   1.929   1.607
 2911SOL    HW112632   5.127   1.951   1.668
 2911SOL    HW212633   4.966   1.930   1.657
 2912SOL     OW12634   2.960   0.494   5.712
 2912SOL    HW112635   2.862   0.473   5.718
 2912SOL    HW212636   2.989   0.487   5.617
 2913SOL     OW12637   0.830   3.315   0.697
 2913SOL    HW112638   0.747   3.289   0.648
 2913SOL    HW212639   0.825   3.411   0.723
 2914SOL     OW12640   2.045   2.593   5.119
 2914SOL    HW112641   1.957   2.554   5.144
 2914SOL    HW212642   2.033   2.689   5.095
 2915SOL     OW12643   4.889   0.501   4.017
 2915SOL    HW112644   4.801   0.485   3.973
 2915SOL    HW212645   4.935   0.413   4.032
 2916SOL     OW12646   3.928   5.527   5.926
 2916SOL    HW112647   3.852   5.588   5.949
 2916SOL    HW212648   3.995   5.576   5.871
 2917SOL     OW12649   1.113   1.350   5.061
 2917SOL    HW112650   1.080   1.368   5.153
 2917SOL    HW212651   1.132   1.252   5.050
 2918SOL     OW12652   3.804   0.019   1.338
 2918SOL    HW112653   3.845   0.085   1.401
 2918SOL    HW212654   3.868   5.598   1.324
 2919SOL     OW12655   5.704   0.621   4.832
 2919SOL    HW112656   5.638   0.596   4.761
 2919SOL    HW212657   0.035   0.712   4.813
 2920SOL     OW12658   4.615   5.067   0.918
 2920SOL    HW112659   4.523   5.050   0.882
 2920SOL    HW212660   4.680   5.007   0.871
 2921SOL     OW12661   5.670   4.359   5.942
 2921SOL    HW112662   5.618   4.346   5.858
 2921SOL    HW212663   0.040   4.424   5.926
 2922SOL     OW12664   5.176   0.023   4.756
 2922SOL    HW112665   5.232   5.609   4.711
 2922SOL    HW212666   5.112   0.063   4.691
 2923SOL     OW12667   4.516   0.697   1.099
 2923SOL    HW112668   4.597   0.689   1.041
 2923SOL    HW212669   4.439   0.732   1.044
 2924SOL     OW12670   0.211   0.242   5.002
 2924SOL    HW112671   0.208   0.330   4.954
 2924SOL    HW212672   0.288   0.188   4.967
 2925SOL     OW12673   0.854   4.518   5.731
 2925SOL    HW112674   0.912   4.597   5.711
 2925SOL    HW212675   0.884   4.475   5.817
 2926SOL     OW12676   5.378   1.805   0.542
 2926SOL    HW112677   5.436   1.805   0.460
 2926SOL    HW212678   5.360   1.710   0.570
 2927SOL     OW12679   4.908   3.075   0.315
 2927SOL    HW112680   4.872   3.009   0.381
 2927SOL    HW212681   4.863   3.062   0.226
 2928SOL     OW12682   0.753   3.103   1.023
 2928SOL    HW112683   0.765   3.026   1.085
 2928SOL    HW212684   0.835   3.114   0.967
 2929SOL     OW12685   1.315   5.116   5.254
 2929SOL    HW112686   1.224   5.098   5.218
 2929SOL    HW212687   1.344   5.041   5.313
 2930SOL     OW12688   2.231   2.463   5.274
 2930SOL    HW112689   2.182   2.433   5.356
 2930SOL    HW212690   2.170   2.520   5.218
 2931SOL     OW12691   4.604   2.989   0.439
 2931SOL    HW112692   4.633   3.071   0.488
 2931SOL    HW212693   4.543   2.935   0.497
 2932SOL     OW12694   3.116   5.387   0.846
 2932SOL    HW112695   3.067   5.332   0.779
 2932SOL    HW212696   3.212   5.359   0.849
 2933SOL     OW12697   5.005   4.381   1.825
 2933SOL    HW112698   5.101   4.401   1.846
 2933SOL    HW212699   4.976   4.299   1.875
 2934SOL     OW12700   1.053   1.112   5.828
 2934SOL    HW112701   1.042   1.193   5.885
 2934SOL    HW212702   1.138   1.066   5.852
 2935SOL     OW12703   2.390   3.210   5.186
 2935SOL    HW112704   2.401   3.147   5.263
 2935SOL    HW212705   2.306   3.189   5.137
 2936SOL     OW12706   5.156   1.223   0.054
 2936SOL    HW112707   5.109   1.293   6.016
 2936SOL    HW212708   5.244   1.259   0.085
 2937SOL     OW12709   3.814   3.644   5.417
 2937SOL    HW112710   3.734   3.629   5.359
 2937SOL    HW212711   3.886   3.579   5.392
 2938SOL     OW12712   2.926   2.493   1.962
 2938SOL    HW112713   2.895   2.585   1.986
 2938SOL    HW212714   3.025   2.494   1.945
 2939SOL     OW12715   2.994   4.844   0.562
 2939SOL    HW112716   2.988   4.766   0.624
 2939SOL    HW212717   3.075   4.899   0.583
 2940SOL     OW12718   5.290   4.890   5.037
 2940SOL    HW112719   5.310   4.840   4.953
 2940SOL    HW212720   5.196   4.922   5.035
 2941SOL     OW12721   5.217   4.065   5.587
 2941SOL    HW112722   5.179   3.997   5.649
 2941SOL    HW212723   5.188   4.157   5.615
 2942SOL     OW12724   3.441   3.665   5.687
 2942SOL    HW112725   3.449   3.759   5.720
 2942SOL    HW212726   3.350   3.651   5.648
 2943SOL     OW12727   2.692   3.997   4.208
 2943SOL    HW112728   2.699   3.913   4.155
 2943SOL    HW212729   2.604   4.041   4.189
 2944SOL     OW12730   0.227   3.685   0.469
 2944SOL    HW112731   0.274   3.756   0.521
 2944SOL    HW212732   0.221   3.602   0.524
 2945SOL     OW12733   1.935   4.888   4.936
 2945SOL    HW112734   1.848   4.864   4.893
 2945SOL    HW212735   1.941   4.987   4.948
 2946SOL     OW12736   5.475   3.709   5.453
 2946SOL    HW112737   5.461   3.610   5.461
 2946SOL    HW212738   5.573   3.728   5.444
 2947SOL     OW12739   0.285   5.446   1.439
 2947SOL    HW112740   0.275   5.416   1.534
 2947SOL    HW212741   0.195   5.472   1.403
 2948SOL     OW12742   0.927   2.166   5.312
 2948SOL    HW112743   0.935   2.249   5.256
 2948SOL    HW212744   0.944   2.086   5.255
 2949SOL     OW12745   0.248   3.569   0.949
 2949SOL    HW112746   0.254   3.668   0.938
 2949SOL    HW212747   0.156   3.537   0.925
 2950SOL     OW12748   1.265   1.729   1.217
 2950SOL    HW112749   1.310   1.664   1.155
 2950SOL    HW212750   1.299   1.715   1.310
 2951SOL     OW12751   0.881   2.436   4.883
 2951SOL    HW112752   0.839   2.524   4.861
 2951SOL    HW212753   0.812   2.363   4.874
 2952SOL     OW12754   2.002   3.579   0.521
 2952SOL    HW112755   1.926   3.592   0.584
 2952SOL    HW212756   2.022   3.481   0.513
 2953SOL     OW12757   1.088   4.922   5.431
 2953SOL    HW112758   1.091   4.982   5.511
 2953SOL    HW212759   1.180   4.884   5.414
 2954SOL     OW12760   5.319   2.990   5.754
 2954SOL    HW112761   5.379   2.919   5.791
 2954SOL    HW212762   5.225   2.957   5.751
 2955SOL     OW12763   2.385   1.349   0.907
 2955SOL    HW112764   2.366   1.261   0.863
 2955SOL    HW212765   2.335   1.355   0.993
 2956SOL     OW12766   2.004   5.006   0.947
 2956SOL    HW112767   2.055   5.083   0.985
 2956SOL    HW212768   1.909   5.033   0.933
 2957SOL     OW12769   4.898   3.486   5.854
 2957SOL    HW112770   4.849   3.555   5.800
 2957SOL    HW212771   4.888   3.507   5.952
 2958SOL     OW12772   1.995   0.258   4.910
 2958SOL    HW112773   1.969   0.162   4.898
 2958SOL    HW212774   2.063   0.265   4.983
 2959SOL     OW12775   2.426   4.527   5.519
 2959SOL    HW112776   2.482   4.454   5.479
 2959SOL    HW212777   2.345   4.541   5.463
 2960SOL     OW12778   3.181   2.579   1.676
 2960SOL    HW112779   3.175   2.538   1.767
 2960SOL    HW212780   3.226   2.668   1.681
 2961SOL     OW12781   2.946   2.608   1.535
 2961SOL    HW112782   2.873   2.574   1.593
 2961SOL    HW212783   3.034   2.601   1.583
 2962SOL     OW12784   1.510   0.750   0.743
 2962SOL    HW112785   1.532   0.847   0.758
 2962SOL    HW212786   1.595   0.698   0.738
 2963SOL     OW12787   0.655   3.795   0.053
 2963SOL    HW112788   0.709   3.721   0.095
 2963SOL    HW212789   0.663   3.789   5.969
 2964SOL     OW12790   2.848   4.198   5.785
 2964SOL    HW112791   2.921   4.262   5.809
 2964SOL    HW212792   2.887   4.108   5.765
 2965SOL     OW12793   3.254   0.646   5.504
 2965SOL    HW112794   3.321   0.604   5.565
 2965SOL    HW212795   3.176   0.584   5.493
 2966SOL     OW12796   5.189   3.721   5.459
 2966SOL    HW112797   5.288   3.712   5.450
 2966SOL    HW212798   5.157   3.797   5.403
 2967SOL     OW12799   1.415   2.265   5.665
 2967SOL    HW112800   1.468   2.347   5.686
 2967SOL    HW212801   1.464   2.211   5.596
 2968SOL     OW12802   2.516   1.788   4.265
 2968SOL    HW112803   2.587   1.772   4.197
 2968SOL    HW212804   2.531   1.877   4.309
 2969SOL     OW12805   0.271   2.684   0.689
 2969SOL    HW112806   0.214   2.602   0.684
 2969SOL    HW212807   0.232   2.756   0.632
 2970SOL     OW12808   1.374   1.905   5.907
 2970SOL    HW112809   1.469   1.874   5.904
 2970SOL    HW212810   1.343   1.909   6.002
 2971SOL     OW12811   1.686   0.293   0.363
 2971SOL    HW112812   1.678   0.312   0.461
 2971SOL    HW212813   1.749   0.359   0.321
 2972SOL     OW12814   0.628   5.564   3.996
 2972SOL    HW112815   0.703   5.629   4.008
 2972SOL    HW212816   0.636   5.520   3.906
 2973SOL     OW12817   2.233   0.488   0.331
 2973SOL    HW112818   2.295   0.437   0.271
 2973SOL    HW212819   2.167   0.425   0.372
 2974SOL     OW12820   0.044   2.529   5.848
 2974SOL    HW112821   0.078   2.603   5.790
 2974SOL    HW212822   0.106   2.513   5.924
 2975SOL     OW12823   3.291   1.944   0.728
 2975SOL    HW112824   3.223   1.879   0.762
 2975SOL    HW212825   3.378   1.897   0.713
 2976SOL     OW12826   0.246   0.936   2.089
 2976SOL    HW112827   0.160   0.897   2.124
 2976SOL    HW212828   0.232   1.032   2.067
 2977SOL     OW12829   2.571   2.819   5.668
 2977SOL    HW112830   2.658   2.855   5.634
 2977SOL    HW212831   2.514   2.790   5.592
 2978SOL     OW12832   5.624   0.060   5.801
 2978SOL    HW112833   5.685   5.636   5.790
 2978SOL    HW212834   5.594   0.091   5.710
 2979SOL     OW12835   0.632   3.414   5.748
 2979SOL    HW112836   0.683   3.480   5.691
 2979SOL    HW212837   0.693   3.377   5.818
 2980SOL     OW12838   5.639   3.975   4.680
 2980SOL    HW112839   5.616   4.025   4.764
 2980SOL    HW212840   5.557   3.967   4.624
 2981SOL     OW12841   1.480   3.933   0.665
 2981SOL    HW112842   1.522   4.021   0.645
 2981SOL    HW212843   1.393   3.925   0.616
 2982SOL     OW12844   3.631   2.612   5.268
 2982SOL    HW112845   3.569   2.553   5.216
 2982SOL    HW212846   3.717   2.621   5.218
 2983SOL     OW12847   3.657   4.156   5.149
 2983SOL    HW112848   3.671   4.240   5.201
 2983SOL    HW212849   3.642   4.179   5.053
 2984SOL     OW12850   1.329   0.996   5.475
 2984SOL    HW112851   1.284   0.985   5.386
 2984SOL    HW212852   1.410   0.939   5.478
 2985SOL     OW12853   4.024   2.824   5.959
 2985SOL    HW112854   4.038   2.884   5.881
 2985SOL    HW212855   4.111   2.781   5.983
 2986SOL     OW12856   0.287   3.670   6.004
 2986SOL    HW112857   0.336   3.592   5.965
 2986SOL    HW212858   0.241   3.642   0.072
 2987SOL     OW12859   3.265   0.833   0.488
 2987SOL    HW112860   3.317   0.787   0.560
 2987SOL    HW212861   3.314   0.916   0.459
 2988SOL     OW12862   3.275   0.104   5.551
 2988SOL    HW112863   3.370   0.081   5.531
 2988SOL    HW212864   3.217   0.024   5.532
 2989SOL     OW12865   4.997   3.524   5.510
 2989SOL    HW112866   5.072   3.585   5.485
 2989SOL    HW212867   5.031   3.452   5.571
 2990SOL     OW12868   1.521   2.316   0.946
 2990SOL    HW112869   1.619   2.325   0.926
 2990SOL    HW212870   1.509   2.250   1.020
 2991SOL     OW12871   1.552   2.404   4.690
 2991SOL    HW112872   1.471   2.427   4.636
 2991SOL    HW212873   1.582   2.485   4.740
 2992SOL     OW12874   1.542   5.388   0.072
 2992SOL    HW112875   1.601   5.421   0.145
 2992SOL    HW212876   1.559   5.291   0.056
 2993SOL     OW12877   4.576   1.721   0.721
 2993SOL    HW112878   4.526   1.635   0.733
 2993SOL    HW212879   4.662   1.717   0.771
 2994SOL     OW12880   2.323   5.002   5.372
 2994SOL    HW112881   2.347   5.094   5.342
 2994SOL    HW212882   2.223   4.993   5.372
 2995SOL     OW12883   2.780   2.182   4.793
 2995SOL    HW112884   2.763   2.128   4.711
 2995SOL    HW212885   2.832   2.264   4.769
 2996SOL     OW12886   4.020   3.217   5.911
 2996SOL    HW112887   4.040   3.293   5.849
 2996SOL    HW212888   4.028   3.131   5.861
 2997SOL     OW12889   3.193   2.541   0.275
 2997SOL    HW112890   3.095   2.563   0.279
 2997SOL    HW212891   3.205   2.442   0.282
 2998SOL     OW12892   1.921   2.056   0.148
 2998SOL    HW112893   1.931   1.963   0.113
 2998SOL    HW212894   1.983   2.117   0.100
 2999SOL     OW12895   0.308   2.216   0.313
 2999SOL    HW112896   0.213   2.193   0.332
 2999SOL    HW212897   0.340   2.283   0.380
 3000SOL     OW12898   4.741   0.480   5.185
 3000SOL    HW112899   4.658   0.536   5.189
 3000SOL    HW212900   4.740   0.424   5.102
 3001SOL     OW12901   1.075   1.701   5.132
 3001SOL    HW112902   1.109   1.693   5.226
 3001SOL    HW212903   1.141   1.661   5.069
 3002SOL     OW12904   1.282   4.681   5.779
 3002SOL    HW112905   1.267   4.745   5.854
 3002SOL    HW212906   1.255   4.589   5.808
 3003SOL     OW12907   0.216   4.295   0.757
 3003SOL    HW112908   0.142   4.242   0.799
 3003SOL    HW212909   0.179   4.376   0.713
 3004SOL     OW12910   0.811   4.591   1.480
 3004SOL    HW112911   0.893   4.644   1.500
 3004SOL    HW212912   0.836   4.495   1.464
 3005SOL     OW12913   1.342   5.007   4.620
 3005SOL    HW112914   1.441   5.012   4.630
 3005SOL    HW212915   1.298   5.042   4.702
 3006SOL     OW12916   0.406   4.947   1.338
 3006SOL    HW112917   0.327   4.903   1.295
 3006SOL    HW212918   0.374   5.012   1.407
 3007SOL     OW12919   4.068   1.420   0.749
 3007SOL    HW112920   4.070   1.376   0.660
 3007SOL    HW212921   3.979   1.404   0.793
 3008SOL     OW12922   0.234   1.097   1.709
 3008SOL    HW112923   0.323   1.079   1.751
 3008SOL    HW212924   0.239   1.079   1.611
 3009SOL     OW12925   4.109   3.437   4.734
 3009SOL    HW112926   4.113   3.521   4.679
 3009SOL    HW212927   4.024   3.435   4.786
 3010SOL     OW12928   0.598   0.094   5.524
 3010SOL    HW112929   0.567   0.056   5.611
 3010SOL    HW212930   0.582   0.193   5.524
 3011SOL     OW12931   3.507   4.468   0.997
 3011SOL    HW112932   3.558   4.385   0.974
 3011SOL    HW212933   3.419   4.442   1.038
 3012SOL     OW12934   3.731   2.948   1.411
 3012SOL    HW112935   3.705   2.852   1.408
 3012SOL    HW212936   3.723   2.982   1.504
 3013SOL     OW12937   2.484   2.904   0.109
 3013SOL    HW112938   2.537   2.989   0.115
 3013SOL    HW212939   2.453   2.879   0.201
 3014SOL     OW12940   1.136   5.298   1.656
 3014SOL    HW112941   1.052   5.317   1.705
 3014SOL    HW212942   1.176   5.212   1.687
 3015SOL     OW12943   2.058   0.634   5.552
 3015SOL    HW112944   2.136   0.603   5.499
 3015SOL    HW212945   2.020   0.717   5.511
 3016SOL     OW12946   0.221   2.467   0.031
 3016SOL    HW112947   0.215   2.368   0.030
 3016SOL    HW212948   0.169   2.503   0.108
 3017SOL     OW12949   3.415   3.884   4.491
 3017SOL    HW112950   3.346   3.843   4.431
 3017SOL    HW212951   3.476   3.943   4.437
 3018SOL     OW12952   1.542   3.011   0.277
 3018SOL    HW112953   1.571   3.084   0.339
 3018SOL    HW212954   1.469   3.044   0.218
 3019SOL     OW12955   4.963   4.148   5.797
 3019SOL    HW112956   4.924   4.077   5.739
 3019SOL    HW212957   5.017   4.211   5.741
 3020SOL     OW12958   2.029   3.617   5.190
 3020SOL    HW112959   2.095   3.598   5.263
 3020SOL    HW212960   2.037   3.547   5.119
 3021SOL     OW12961   4.119   2.143   0.277
 3021SOL    HW112962   4.185   2.083   0.231
 3021SOL    HW212963   4.161   2.182   0.359
 3022SOL     OW12964   2.471   1.188   1.649
 3022SOL    HW112965   2.556   1.201   1.599
 3022SOL    HW212966   2.490   1.144   1.737
 3023SOL     OW12967   2.044   3.403   5.007
 3023SOL    HW112968   2.131   3.444   4.981
 3023SOL    HW212969   1.975   3.423   4.937
 3024SOL     OW12970   5.258   0.412   1.303
 3024SOL    HW112971   5.229   0.507   1.308
 3024SOL    HW212972   5.300   0.385   1.390
 3025SOL     OW12973   3.743   4.912   0.379
 3025SOL    HW112974   3.724   4.988   0.441
 3025SOL    HW212975   3.679   4.837   0.397
 3026SOL     OW12976   1.802   0.076   0.025
 3026SOL    HW112977   1.791   0.071   0.124
 3026SOL    HW212978   1.899   0.064   0.002
 3027SOL     OW12979   4.342   3.445   5.074
 3027SOL    HW112980   4.435   3.449   5.110
 3027SOL    HW212981   4.346   3.428   4.975
 3028SOL     OW12982   2.690   3.763   4.070
 3028SOL    HW112983   2.675   3.760   3.972
 3028SOL    HW212984   2.707   3.671   4.105
 3029SOL     OW12985   5.396   5.652   5.942
 3029SOL    HW112986   5.474   0.033   5.890
 3029SOL    HW212987   5.351   0.072   5.991
 3030SOL     OW12988   3.983   0.046   0.510
 3030SOL    HW112989   3.899   0.096   0.493
 3030SOL    HW212990   4.028   0.026   0.423
 3031SOL     OW12991   5.460   2.145   0.919
 3031SOL    HW112992   5.430   2.067   0.974
 3031SOL    HW212993   5.464   2.118   0.822
 3032SOL     OW12994   3.229   3.983   5.718
 3032SOL    HW112995   3.309   3.946   5.766
 3032SOL    HW212996   3.242   3.973   5.619
 3033SOL     OW12997   4.186   3.452   1.073
 3033SOL    HW112998   4.189   3.525   1.141
 3033SOL    HW212999   4.225   3.369   1.112
 3034SOL     OW13000   3.943   0.801   0.110
 3034SOL    HW113001   3.845   0.822   0.113
 3034SOL    HW213002   3.996   0.885   0.119
 3035SOL     OW13003   5.616   3.814   5.984
 3035SOL    HW113004   5.681   3.795   5.910
 3035SOL    HW213005   5.558   3.891   5.958
 3036SOL     OW13006   2.693   0.191   0.549
 3036SOL    HW113007   2.628   0.117   0.531
 3036SOL    HW213008   2.707   0.199   0.648
 3037SOL     OW13009   3.869   4.989   0.947
 3037SOL    HW113010   3.885   4.892   0.927
 3037SOL    HW213011   3.771   5.006   0.952
 3038SOL     OW13012   1.061   4.320   5.425
 3038SOL    HW113013   1.064   4.221   5.433
 3038SOL    HW213014   1.115   4.361   5.499
 3039SOL     OW13015   5.452   5.396   0.586
 3039SOL    HW113016   5.394   5.333   0.535
 3039SOL    HW213017   5.492   5.349   0.665
 3040SOL     OW13018   4.331   0.060   0.496
 3040SOL    HW113019   4.275   0.041   0.577
 3040SOL    HW213020   4.332   5.634   0.437
 3041SOL     OW13021   5.314   3.297   0.350
 3041SOL    HW113022   5.364   3.383   0.342
 3041SOL    HW213023   5.339   3.251   0.435
 3042SOL     OW13024   1.922   4.305   0.519
 3042SOL    HW113025   1.905   4.207   0.523
 3042SOL    HW213026   1.963   4.336   0.605
 3043SOL     OW13027   2.643   4.470   5.899
 3043SOL    HW113028   2.676   4.404   5.966
 3043SOL    HW213029   2.658   4.434   5.806
 3044SOL     OW13030   4.814   3.326   5.055
 3044SOL    HW113031   4.818   3.367   5.147
 3044SOL    HW213032   4.720   3.302   5.033
 3045SOL     OW13033   4.727   4.437   0.446
 3045SOL    HW113034   4.674   4.521   0.452
 3045SOL    HW213035   4.757   4.423   0.351
 3046SOL     OW13036   4.835   1.672   1.364
 3046SOL    HW113037   4.808   1.678   1.460
 3046SOL    HW213038   4.922   1.719   1.351
 3047SOL     OW13039   0.705   2.635   1.362
 3047SOL    HW113040   0.691   2.681   1.450
 3047SOL    HW213041   0.658   2.547   1.363
 3048SOL     OW13042   0.190   5.063   0.987
 3048SOL    HW113043   0.100   5.046   1.026
 3048SOL    HW213044   0.248   4.983   1.000
 3049SOL     OW13045   5.360   3.441   0.744
 3049SOL    HW113046   5.406   3.524   0.713
 3049SOL    HW213047   5.265   3.441   0.712
 3050SOL     OW13048   0.527   4.204   5.994
 3050SOL    HW113049   0.507   4.287   0.031
 3050SOL    HW213050   0.514   4.124   0.037
 3051SOL     OW13051   3.132   2.361   0.951
 3051SOL    HW113052   3.034   2.348   0.938
 3051SOL    HW213053   3.150   2.381   1.048
 3052SOL     OW13054   4.718   2.801   0.275
 3052SOL    HW113055   4.675   2.886   0.307
 3052SOL    HW213056   4.752   2.750   0.354
 3053SOL     OW13057   3.998   1.732   1.128
 3053SOL    HW113058   4.020   1.657   1.191
 3053SOL    HW213059   3.994   1.818   1.179
 3054SOL     OW13060   4.527   1.161   1.182
 3054SOL    HW113061   4.437   1.197   1.156
 3054SOL    HW213062   4.516   1.069   1.220
 3055SOL     OW13063   4.925   5.630   0.943
 3055SOL    HW113064   4.942   5.579   0.858
 3055SOL    HW213065   4.997   5.610   1.009
 3056SOL     OW13066   0.652   5.560   5.962
 3056SOL    HW113067   0.587   5.609   5.903
 3056SOL    HW213068   0.684   5.622   0.018
 3057SOL     OW13069   4.608   0.525   5.639
 3057SOL    HW113070   4.669   0.527   5.559
 3057SOL    HW213071   4.535   0.458   5.623
 3058SOL     OW13072   3.032   2.142   0.170
 3058SOL    HW113073   3.011   2.173   0.078
 3058SOL    HW213074   3.109   2.193   0.207
 3059SOL     OW13075   0.767   1.699   5.394
 3059SOL    HW113076   0.861   1.692   5.427
 3059SOL    HW213077   0.759   1.652   5.306
 3060SOL     OW13078   1.651   0.620   5.350
 3060SOL    HW113079   1.645   0.585   5.257
 3060SOL    HW213080   1.716   0.565   5.402
 3061SOL     OW13081   4.398   1.245   5.532
 3061SOL    HW113082   4.303   1.217   5.527
 3061SOL    HW213083   4.419   1.276   5.625
 3062SOL     OW13084   4.492   1.835   4.478
 3062SOL    HW113085   4.404   1.873   4.449
 3062SOL    HW213086   4.559   1.844   4.404
 3063SOL     OW13087   5.058   3.333   5.697
 3063SOL    HW113088   5.144   3.305   5.740
 3063SOL    HW213089   5.001   3.381   5.764
 3064SOL     OW13090   0.590   2.131   0.955
 3064SOL    HW113091   0.663   2.198   0.974
 3064SOL    HW213092   0.604   2.050   1.011
 3065SOL     OW13093   3.651   5.535   5.770
 3065SOL    HW113094   3.701   5.603   5.716
 3065SOL    HW213095   3.651   5.448   5.721
 3066SOL     OW13096   4.882   1.951   4.984
 3066SOL    HW113097   4.811   1.934   5.053
 3066SOL    HW213098   4.843   2.003   4.908
 3067SOL     OW13099   4.582   2.085   0.992
 3067SOL    HW113100   4.584   2.048   1.084
 3067SOL    HW213101   4.675   2.089   0.955
 3068SOL     OW13102   2.068   2.779   0.903
 3068SOL    HW113103   2.118   2.834   0.970
 3068SOL    HW213104   2.112   2.689   0.895
 3069SOL     OW13105   3.073   5.126   5.245
 3069SOL    HW113106   3.045   5.037   5.281
 3069SOL    HW213107   3.147   5.114   5.179
 3070SOL     OW13108   0.533   4.524   4.815
 3070SOL    HW113109   0.606   4.570   4.865
 3070SOL    HW213110   0.535   4.426   4.835
 3071SOL     OW13111   1.226   0.387   1.271
 3071SOL    HW113112   1.133   0.406   1.300
 3071SOL    HW213113   1.226   0.350   1.178
 3072SOL     OW13114   1.215   4.398   5.629
 3072SOL    HW113115   1.203   4.407   5.727
 3072SOL    HW213116   1.312   4.395   5.607
 3073SOL     OW13117   1.858   0.446   5.896
 3073SOL    HW113118   1.777   0.392   5.920
 3073SOL    HW213119   1.938   0.406   5.939
 3074SOL     OW13120   4.204   1.723   0.131
 3074SOL    HW113121   4.224   1.705   0.227
 3074SOL    HW213122   4.104   1.726   0.119
 3075SOL     OW13123   4.959   1.804   5.640
 3075SOL    HW113124   4.988   1.792   5.545
 3075SOL    HW213125   4.884   1.741   5.660
 3076SOL     OW13126   3.419   1.064   0.438
 3076SOL    HW113127   3.375   1.058   0.349
 3076SOL    HW213128   3.473   1.149   0.443
 3077SOL     OW13129   5.014   2.308   4.854
 3077SOL    HW113130   5.064   2.234   4.898
 3077SOL    HW213131   5.018   2.297   4.755
 3078SOL     OW13132   4.026   0.321   1.192
 3078SOL    HW113133   4.064   0.229   1.179
 3078SOL    HW213134   3.927   0.313   1.207
 3079SOL     OW13135   3.286   0.281   5.765
 3079SOL    HW113136   3.204   0.262   5.819
 3079SOL    HW213137   3.288   0.222   5.684
 3080SOL     OW13138   0.630   3.337   1.100
 3080SOL    HW113139   0.677   3.253   1.071
 3080SOL    HW213140   0.565   3.365   1.029
 3081SOL     OW13141   1.539   4.671   5.296
 3081SOL    HW113142   1.614   4.632   5.350
 3081SOL    HW213143   1.477   4.597   5.269
 3082SOL     OW13144   4.232   2.693   1.151
 3082SOL    HW113145   4.234   2.616   1.087
 3082SOL    HW213146   4.323   2.733   1.158
 3083SOL     OW13147   5.592   5.641   0.661
 3083SOL    HW113148   5.559   5.550   0.637
 3083SOL    HW213149   5.685   5.653   0.627
 3084SOL     OW13150   4.844   0.520   5.776
 3084SOL    HW113151   4.897   0.447   5.733
 3084SOL    HW213152   4.753   0.523   5.736
 3085SOL     OW13153   5.115   2.301   1.012
 3085SOL    HW113154   5.118   2.208   0.973
 3085SOL    HW213155   5.116   2.368   0.938
 3086SOL     OW13156   0.055   4.554   4.153
 3086SOL    HW113157   5.702   4.476   4.129
 3086SOL    HW213158   5.705   4.636   4.161
 3087SOL     OW13159   2.073   3.443   0.852
 3087SOL    HW113160   2.000   3.401   0.798
 3087SOL    HW213161   2.142   3.374   0.873
 3088SOL     OW13162   5.241   5.279   1.778
 3088SOL    HW113163   5.237   5.187   1.818
 3088SOL    HW213164   5.234   5.347   1.851
 3089SOL     OW13165   1.132   0.691   5.850
 3089SOL    HW113166   1.052   0.632   5.857
 3089SOL    HW213167   1.126   0.748   5.767
 3090SOL     OW13168   2.170   3.668   0.735
 3090SOL    HW113169   2.129   3.669   0.644
 3090SOL    HW213170   2.138   3.588   0.785
 3091SOL     OW13171   0.650   2.223   0.489
 3091SOL    HW113172   0.574   2.288   0.487
 3091SOL    HW213173   0.670   2.192   0.396
 3092SOL     OW13174   5.185   1.984   0.461
 3092SOL    HW113175   5.190   2.005   0.363
 3092SOL    HW213176   5.254   1.916   0.484
 3093SOL     OW13177   0.754   2.615   0.399
 3093SOL    HW113178   0.794   2.704   0.419
 3093SOL    HW213179   0.678   2.626   0.334
 3094SOL     OW13180   4.891   1.404   5.696
 3094SOL    HW113181   4.936   1.319   5.724
 3094SOL    HW213182   4.872   1.401   5.598
 3095SOL     OW13183   4.752   1.633   5.711
 3095SOL    HW113184   4.671   1.628   5.652
 3095SOL    HW213185   4.800   1.546   5.709
 3096SOL     OW13186   2.785   1.704   0.993
 3096SOL    HW113187   2.847   1.780   1.012
 3096SOL    HW213188   2.789   1.638   1.068
 3097SOL     OW13189   0.916   1.122   4.893
 3097SOL    HW113190   1.008   1.109   4.930
 3097SOL    HW213191   0.897   1.052   4.823
 3098SOL     OW13192   1.912   5.340   5.720
 3098SOL    HW113193   1.957   5.268   5.667
 3098SOL    HW213194   1.959   5.352   5.807
 3099SOL     OW13195   5.148   2.330   5.525
 3099SOL    HW113196   5.098   2.247   5.500
 3099SOL    HW213197   5.221   2.306   5.590
 3100SOL     OW13198   4.827   2.844   5.842
 3100SOL    HW113199   4.787   2.774   5.783
 3100SOL    HW213200   4.851   2.803   5.930
 3101SOL     OW13201   5.215   0.346   5.848
 3101SOL    HW113202   5.225   0.282   5.924
 3101SOL    HW213203   5.304   0.382   5.823
 3102SOL     OW13204   0.074   4.535   5.298
 3102SOL    HW113205   0.048   4.457   5.241
 3102SOL    HW213206   5.702   4.598   5.306
 3103SOL     OW13207   3.123   5.191   0.158
 3103SOL    HW113208   3.114   5.274   0.104
 3103SOL    HW213209   3.161   5.118   0.100
 3104SOL     OW13210   3.615   1.380   1.099
 3104SOL    HW113211   3.664   1.462   1.071
 3104SOL    HW213212   3.642   1.355   1.192
 3105SOL     OW13213   0.396   2.690   5.128
 3105SOL    HW113214   0.379   2.626   5.053
 3105SOL    HW213215   0.313   2.700   5.182
 3106SOL     OW13216   3.930   0.868   0.929
 3106SOL    HW113217   3.892   0.776   0.939
 3106SOL    HW213218   4.000   0.883   0.999
 3107SOL     OW13219   1.905   1.466   0.478
 3107SOL    HW113220   1.991   1.516   0.483
 3107SOL    HW213221   1.860   1.467   0.567
 3108SOL     OW13222   0.884   3.745   1.254
 3108SOL    HW113223   0.962   3.743   1.317
 3108SOL    HW213224   0.868   3.653   1.218
 3109SOL     OW13225   4.593   3.361   0.412
 3109SOL    HW113226   4.637   3.299   0.476
 3109SOL    HW213227   4.494   3.351   0.419
 3110SOL     OW13228   2.947   1.052   0.057
 3110SOL    HW113229   2.876   0.981   0.060
 3110SOL    HW213230   3.001   1.042   5.989
 3111SOL     OW13231   3.647   0.659   0.492
 3111SOL    HW113232   3.736   0.617   0.508
 3111SOL    HW213233   3.659   0.752   0.458
 3112SOL     OW13234   1.479   4.747   5.014
 3112SOL    HW113235   1.384   4.778   5.020
 3112SOL    HW213236   1.511   4.721   5.106
 3113SOL     OW13237   0.337   1.458   5.062
 3113SOL    HW113238   0.369   1.472   5.156
 3113SOL    HW213239   0.387   1.519   5.000
 3114SOL     OW13240   4.279   2.308   5.473
 3114SOL    HW113241   4.341   2.339   5.545
 3114SOL    HW213242   4.226   2.229   5.506
 3115SOL     OW13243   3.922   5.261   5.843
 3115SOL    HW113244   3.920   5.357   5.868
 3115SOL    HW213245   3.926   5.253   5.743
 3116SOL     OW13246   1.304   3.007   5.447
 3116SOL    HW113247   1.388   3.003   5.500
 3116SOL    HW213248   1.312   2.945   5.368
 3117SOL     OW13249   5.299   0.884   1.436
 3117SOL    HW113250   5.352   0.819   1.490
 3117SOL    HW213251   5.219   0.913   1.488
 3118SOL     OW13252   4.409   4.053   5.322
 3118SOL    HW113253   4.391   4.101   5.236
 3118SOL    HW213254   4.350   3.972   5.328
 3119SOL     OW13255   0.760   0.065   0.140
 3119SOL    HW113256   0.857   0.043   0.148
 3119SOL    HW213257   0.747   0.163   0.152
 3120SOL     OW13258   3.665   1.122   4.874
 3120SOL    HW113259   3.610   1.185   4.819
 3120SOL    HW213260   3.652   1.028   4.841
 3121SOL     OW13261   5.667   0.503   5.277
 3121SOL    HW113262   5.671   0.573   5.349
 3121SOL    HW213263   5.611   0.537   5.201
 3122SOL     OW13264   2.900   4.726   5.560
 3122SOL    HW113265   2.915   4.689   5.651
 3122SOL    HW213266   2.802   4.722   5.538
 3123SOL     OW13267   5.071   4.380   5.173
 3123SOL    HW113268   5.167   4.360   5.193
 3123SOL    HW213269   5.061   4.395   5.074
 3124SOL     OW13270   1.259   3.612   5.743
 3124SOL    HW113271   1.233   3.641   5.835
 3124SOL    HW213272   1.299   3.690   5.694
 3125SOL     OW13273   1.972   1.343   0.239
 3125SOL    HW113274   1.922   1.257   0.230
 3125SOL    HW213275   1.947   1.388   0.325
 3126SOL     OW13276   4.034   3.255   1.431
 3126SOL    HW113277   4.014   3.342   1.386
 3126SOL    HW213278   4.103   3.269   1.502
 3127SOL     OW13279   1.484   0.477   0.064
 3127SOL    HW113280   1.418   0.487   6.005
 3127SOL    HW213281   1.556   0.414   0.036
 3128SOL     OW13282   5.532   1.581   0.796
 3128SOL    HW113283   5.464   1.561   0.726
 3128SOL    HW213284   5.618   1.533   0.775
 3129SOL     OW13285   4.294   5.245   0.180
 3129SOL    HW113286   4.216   5.194   0.214
 3129SOL    HW213287   4.298   5.238   0.080
 3130SOL     OW13288   4.648   4.001   0.115
 3130SOL    HW113289   4.596   3.961   0.191
 3130SOL    HW213290   4.638   4.100   0.117
 3131SOL     OW13291   3.970   1.336   1.079
 3131SOL    HW113292   4.061   1.299   1.062
 3131SOL    HW213293   3.974   1.401   1.154
 3132SOL     OW13294   4.864   2.645   5.201
 3132SOL    HW113295   4.820   2.734   5.213
 3132SOL    HW213296   4.858   2.593   5.286
 3133SOL     OW13297   2.574   0.066   0.967
 3133SOL    HW113298   2.626   0.138   0.922
 3133SOL    HW213299   2.560   5.644   0.903
 3134SOL     OW13300   5.445   2.044   0.034
 3134SOL    HW113301   5.488   1.993   5.975
 3134SOL    HW213302   5.512   2.108   0.073
 3135SOL     OW13303   0.853   1.105   1.640
 3135SOL    HW113304   0.922   1.145   1.700
 3135SOL    HW213305   0.867   1.138   1.547
 3136SOL     OW13306   0.639   1.175   1.388
 3136SOL    HW113307   0.739   1.188   1.384
 3136SOL    HW213308   0.594   1.264   1.386
 3137SOL     OW13309   4.855   1.609   5.246
 3137SOL    HW113310   4.810   1.679   5.303
 3137SOL    HW213311   4.934   1.650   5.201
 3138SOL     OW13312   4.823   4.413   0.192
 3138SOL    HW113313   4.908   4.360   0.189
 3138SOL    HW213314   4.836   4.500   0.145
 3139SOL     OW13315   1.523   4.213   5.756
 3139SOL    HW113316   1.597   4.242   5.816
 3139SOL    HW213317   1.507   4.283   5.686
 3140SOL     OW13318   2.625   4.442   1.170
 3140SOL    HW113319   2.703   4.500   1.196
 3140SOL    HW213320   2.613   4.447   1.071
 3141SOL     OW13321   2.795   5.348   0.865
 3141SOL    HW113322   2.851   5.397   0.932
 3141SOL    HW213323   2.852   5.321   0.788
 3142SOL     OW13324   1.712   4.881   0.137
 3142SOL    HW113325   1.778   4.813   0.103
 3142SOL    HW213326   1.633   4.835   0.176
 3143SOL     OW13327   0.123   2.867   1.761
 3143SOL    HW113328   0.048   2.916   1.805
 3143SOL    HW213329   0.184   2.829   1.831
 3144SOL     OW13330   4.891   4.642   0.058
 3144SOL    HW113331   4.829   4.708   0.014
 3144SOL    HW213332   4.939   4.591   6.003
 3145SOL     OW13333   2.644   5.315   1.237
 3145SOL    HW113334   2.625   5.313   1.335
 3145SOL    HW213335   2.660   5.222   1.204
 3146SOL     OW13336   2.086   0.380   0.018
 3146SOL    HW113337   2.150   0.456   0.019
 3146SOL    HW213338   2.136   0.294   0.005
 3147SOL     OW13339   1.807   1.812   0.755
 3147SOL    HW113340   1.872   1.741   0.783
 3147SOL    HW213341   1.825   1.896   0.806
 3148SOL     OW13342   3.276   4.824   5.190
 3148SOL    HW113343   3.276   4.911   5.140
 3148SOL    HW213344   3.348   4.826   5.260
 3149SOL     OW13345   2.286   5.356   2.234
 3149SOL    HW113346   2.189   5.378   2.226
 3149SOL    HW213347   2.298   5.274   2.290
 3150SOL     OW13348   2.913   0.055   1.001
 3150SOL    HW113349   2.877   5.638   1.062
 3150SOL    HW213350   2.966   0.121   1.055
 3151SOL     OW13351   1.496   2.885   1.899
 3151SOL    HW113352   1.449   2.944   1.965
 3151SOL    HW213353   1.432   2.814   1.867
 3152SOL     OW13354   3.775   1.111   5.578
 3152SOL    HW113355   3.688   1.065   5.589
 3152SOL    HW213356   3.828   1.066   5.505
 3153SOL     OW13357   4.251   4.661   5.686
 3153SOL    HW113358   4.292   4.619   5.767
 3153SOL    HW213359   4.184   4.729   5.713
 3154SOL     OW13360   3.737   5.119   0.556
 3154SOL    HW113361   3.656   5.102   0.613
 3154SOL    HW213362   3.818   5.123   0.614
 3155SOL     OW13363   2.523   3.871   5.485
 3155SOL    HW113364   2.447   3.933   5.506
 3155SOL    HW213365   2.521   3.847   5.388
 3156SOL     OW13366   3.662   1.509   5.784
 3156SOL    HW113367   3.654   1.464   5.695
 3156SOL    HW213368   3.745   1.478   5.830
 3157SOL     OW13369   3.718   3.703   4.791
 3157SOL    HW113370   3.773   3.692   4.708
 3157SOL    HW213371   3.778   3.725   4.868
 3158SOL     OW13372   2.699   0.461   5.495
 3158SOL    HW113373   2.723   0.364   5.494
 3158SOL    HW213374   2.682   0.490   5.589
 3159SOL     OW13375   3.821   0.263   0.016
 3159SOL    HW113376   3.773   0.176   0.003
 3159SOL    HW213377   3.755   0.335   0.035
 3160SOL     OW13378   5.117   2.101   4.999
 3160SOL    HW113379   5.036   2.044   5.003
 3160SOL    HW213380   5.167   2.096   5.086
 3161SOL     OW13381   2.347   4.830   1.073
 3161SOL    HW113382   2.319   4.910   1.125
 3161SOL    HW213383   2.328   4.844   0.976
 3162SOL     OW13384   0.832   5.085   5.047
 3162SOL    HW113385   0.768   5.037   5.107
 3162SOL    HW213386   0.786   5.104   4.960
 3163SOL     OW13387   1.818   2.173   5.093
 3163SOL    HW113388   1.895   2.178   5.156
 3163SOL    HW213389   1.823   2.249   5.028
 3164SOL     OW13390   1.052   3.831   1.973
 3164SOL    HW113391   1.119   3.805   2.042
 3164SOL    HW213392   0.961   3.799   2.001
 3165SOL     OW13393   0.470   3.662   4.089
 3165SOL    HW113394   0.465   3.762   4.094
 3165SOL    HW213395   0.560   3.635   4.056
 3166SOL     OW13396   0.676   5.352   4.639
 3166SOL    HW113397   0.632   5.323   4.555
 3166SOL    HW213398   0.712   5.445   4.628
 3167SOL     OW13399   0.046   2.646   1.376
 3167SOL    HW113400   5.698   2.701   1.440
 3167SOL    HW213401   0.003   2.557   1.364
 3168SOL     OW13402   0.795   0.850   4.447
 3168SOL    HW113403   0.835   0.759   4.436
 3168SOL    HW213404   0.763   0.882   4.358
 3169SOL     OW13405   3.143   0.036   0.523
 3169SOL    HW113406   3.112   0.019   0.617
 3169SOL    HW213407   3.067   0.066   0.467
 3170SOL     OW13408   5.105   3.451   0.632
 3170SOL    HW113409   5.054   3.390   0.572
 3170SOL    HW213410   5.155   3.518   0.577
 3171SOL     OW13411   3.558   1.092   5.128
 3171SOL    HW113412   3.602   1.107   5.039
 3171SOL    HW213413   3.498   1.170   5.149
 3172SOL     OW13414   1.234   0.491   0.451
 3172SOL    HW113415   1.304   0.430   0.414
 3172SOL    HW213416   1.161   0.437   0.492
 3173SOL     OW13417   3.127   0.862   5.628
 3173SOL    HW113418   3.181   0.791   5.583
 3173SOL    HW213419   3.030   0.850   5.605
 3174SOL     OW13420   2.219   4.587   1.052
 3174SOL    HW113421   2.277   4.668   1.060
 3174SOL    HW213422   2.125   4.616   1.036
 3175SOL     OW13423   1.357   4.991   0.371
 3175SOL    HW113424   1.356   4.988   0.471
 3175SOL    HW213425   1.284   5.052   0.339
 3176SOL     OW13426   1.197   0.303   1.011
 3176SOL    HW113427   1.137   0.241   0.961
 3176SOL    HW213428   1.162   0.396   1.003
 3177SOL     OW13429   0.061   0.025   5.079
 3177SOL    HW113430   0.108   0.106   5.042
 3177SOL    HW213431   0.125   5.626   5.134
 3178SOL     OW13432   4.222   2.453   1.006
 3178SOL    HW113433   4.140   2.400   1.026
 3178SOL    HW213434   4.292   2.393   0.968
 3179SOL     OW13435   1.983   2.645   5.865
 3179SOL    HW113436   2.071   2.688   5.879
 3179SOL    HW213437   1.912   2.696   5.913
 3180SOL     OW13438   4.963   5.338   1.138
 3180SOL    HW113439   5.035   5.354   1.069
 3180SOL    HW213440   4.995   5.372   1.227
 3181SOL     OW13441   0.458   4.520   2.238
 3181SOL    HW113442   0.375   4.489   2.283
 3181SOL    HW213443   0.526   4.545   2.307
 3182SOL     OW13444   2.315   5.141   0.598
 3182SOL    HW113445   2.344   5.229   0.559
 3182SOL    HW213446   2.390   5.103   0.652
 3183SOL     OW13447   2.015   0.789   0.762
 3183SOL    HW113448   2.014   0.793   0.861
 3183SOL    HW213449   1.931   0.744   0.729
 3184SOL     OW13450   1.531   5.612   5.247
 3184SOL    HW113451   1.514   5.514   5.246
 3184SOL    HW213452   1.604   5.634   5.183
 3185SOL     OW13453   2.180   2.532   0.888
 3185SOL    HW113454   2.172   2.476   0.970
 3185SOL    HW213455   2.276   2.535   0.860
 3186SOL     OW13456   3.772   2.733   1.066
 3186SOL    HW113457   3.842   2.719   1.136
 3186SOL    HW213458   3.709   2.804   1.096
 3187SOL     OW13459   0.808   3.581   0.161
 3187SOL    HW113460   0.908   3.579   0.149
 3187SOL    HW213461   0.786   3.625   0.248
 3188SOL     OW13462   3.804   3.975   0.406
 3188SOL    HW113463   3.762   4.013   0.323
 3188SOL    HW213464   3.750   4.002   0.485
 3189SOL     OW13465   0.839   3.490   1.184
 3189SOL    HW113466   0.916   3.436   1.150
 3189SOL    HW213467   0.753   3.450   1.152
 3190SOL     OW13468   1.037   5.541   4.978
 3190SOL    HW113469   1.069   5.537   4.883
 3190SOL    HW213470   0.945   5.580   4.980
 3191SOL     OW13471   5.637   3.935   5.109
 3191SOL    HW113472   0.030   3.954   5.119
 3191SOL    HW213473   5.621   3.837   5.120
 3192SOL     OW13474   2.847   4.083   5.310
 3192SOL    HW113475   2.748   4.102   5.309
 3192SOL    HW213476   2.880   4.072   5.217
 3193SOL     OW13477   5.016   1.473   0.978
 3193SOL    HW113478   4.937   1.534   0.973
 3193SOL    HW213479   5.050   1.454   0.886
 3194SOL     OW13480   1.414   5.018   5.648
 3194SOL    HW113481   1.321   5.054   5.641
 3194SOL    HW213482   1.461   5.061   5.725
 3195SOL     OW13483   1.096   2.477   5.936
 3195SOL    HW113484   1.143   2.504   5.852
 3195SOL    HW213485   1.159   2.427   5.995
 3196SOL     OW13486   2.581   5.178   5.615
 3196SOL    HW113487   2.658   5.174   5.679
 3196SOL    HW213488   2.535   5.089   5.613
 3197SOL     OW13489   0.536   1.569   0.755
 3197SOL    HW113490   0.539   1.499   0.826
 3197SOL    HW213491   0.548   1.659   0.797
 3198SOL     OW13492   1.645   3.417   0.227
 3198SOL    HW113493   1.732   3.393   0.183
 3198SOL    HW213494   1.569   3.386   0.169
 3199SOL     OW13495   0.336   0.021   0.753
 3199SOL    HW113496   0.421   0.069   0.733
 3199SOL    HW213497   0.268   0.043   0.683
 3200SOL     OW13498   0.333   3.545   1.205
 3200SOL    HW113499   0.282   3.470   1.249
 3200SOL    HW213500   0.303   3.556   1.111
 3201SOL     OW13501   1.638   1.798   4.289
 3201SOL    HW113502   1.555   1.826   4.338
 3201SOL    HW213503   1.656   1.863   4.215
 3202SOL     OW13504   2.427   5.382   0.516
 3202SOL    HW113505   2.502   5.315   0.513
 3202SOL    HW213506   2.465   5.474   0.525
 3203SOL     OW13507   3.252   1.348   0.301
 3203SOL    HW113508   3.347   1.354   0.272
 3203SOL    HW213509   3.244   1.373   0.398
 3204SOL     OW13510   2.279   1.778   5.055
 3204SOL    HW113511   2.253   1.871   5.027
 3204SOL    HW213512   2.351   1.784   5.124
 3205SOL     OW13513   2.286   0.969   1.847
 3205SOL    HW113514   2.377   1.008   1.865
 3205SOL    HW213515   2.292   0.869   1.850
 3206SOL     OW13516   1.306   3.444   0.481
 3206SOL    HW113517   1.262   3.519   0.529
 3206SOL    HW213518   1.327   3.472   0.387
 3207SOL     OW13519   1.707   1.969   4.087
 3207SOL    HW113520   1.693   2.042   4.021
 3207SOL    HW213521   1.739   1.887   4.039
 3208SOL     OW13522   2.823   2.174   0.349
 3208SOL    HW113523   2.855   2.181   0.443
 3208SOL    HW213524   2.901   2.166   0.287
 3209SOL     OW13525   1.514   0.051   5.698
 3209SOL    HW113526   1.559   0.001   5.772
 3209SOL    HW213527   1.448   0.116   5.737
 3210SOL     OW13528   4.897   4.440   5.526
 3210SOL    HW113529   4.913   4.483   5.437
 3210SOL    HW213530   4.870   4.510   5.592
 3211SOL     OW13531   5.697   4.337   1.361
 3211SOL    HW113532   5.672   4.432   1.382
 3211SOL    HW213533   0.076   4.312   1.410
 3212SOL     OW13534   3.738   1.960   5.929
 3212SOL    HW113535   3.690   2.019   5.994
 3212SOL    HW213536   3.726   1.864   5.955
 3213SOL     OW13537   2.896   0.643   1.292
 3213SOL    HW113538   2.862   0.692   1.212
 3213SOL    HW213539   2.828   0.648   1.365
 3214SOL     OW13540   4.023   1.508   0.308
 3214SOL    HW113541   4.103   1.553   0.347
 3214SOL    HW213542   3.965   1.576   0.263
 3215SOL     OW13543   0.190   2.052   4.735
 3215SOL    HW113544   0.286   2.076   4.749
 3215SOL    HW213545   0.177   2.021   4.641
 3216SOL     OW13546   4.186   1.083   1.330
 3216SOL    HW113547   4.229   1.013   1.388
 3216SOL    HW213548   4.174   1.167   1.383
 3217SOL     OW13549   2.790   5.579   4.910
 3217SOL    HW113550   2.843   5.581   4.995
 3217SOL    HW213551   2.718   5.510   4.918
 3218SOL     OW13552   2.245   1.387   1.132
 3218SOL    HW113553   2.149   1.392   1.157
 3218SOL    HW213554   2.300   1.433   1.201
 3219SOL     OW13555   3.070   0.188   5.921
 3219SOL    HW113556   3.116   0.203   6.008
 3219SOL    HW213557   2.978   0.227   5.925
 3220SOL     OW13558   1.785   0.676   0.665
 3220SOL    HW113559   1.756   0.596   0.718
 3220SOL    HW213560   1.747   0.670   0.573
 3221SOL     OW13561   0.491   3.991   0.145
 3221SOL    HW113562   0.553   3.918   0.117
 3221SOL    HW213563   0.396   3.963   0.130
 3222SOL     OW13564   2.228   2.762   5.886
 3222SOL    HW113565   2.243   2.842   5.828
 3222SOL    HW213566   2.217   2.791   5.981
 3223SOL     OW13567   3.695   4.100   4.620
 3223SOL    HW113568   3.765   4.030   4.632
 3223SOL    HW213569   3.650   4.087   4.531
 3224SOL     OW13570   3.035   0.932   1.056
 3224SOL    HW113571   3.089   0.958   1.136
 3224SOL    HW213572   3.078   0.970   0.973
 3225SOL     OW13573   3.776   1.601   1.038
 3225SOL    HW113574   3.790   1.548   0.955
 3225SOL    HW213575   3.861   1.647   1.063
 3226SOL     OW13576   3.870   3.384   4.868
 3226SOL    HW113577   3.784   3.356   4.824
 3226SOL    HW213578   3.849   3.428   4.955
 3227SOL     OW13579   0.555   3.465   0.165
 3227SOL    HW113580   0.650   3.495   0.163
 3227SOL    HW213581   0.550   3.374   0.205
 3228SOL     OW13582   1.261   1.616   4.432
 3228SOL    HW113583   1.303   1.706   4.425
 3228SOL    HW213584   1.249   1.577   4.341
 3229SOL     OW13585   3.200   5.294   1.321
 3229SOL    HW113586   3.169   5.344   1.240
 3229SOL    HW213587   3.122   5.275   1.381
 3230SOL     OW13588   4.743   2.398   1.018
 3230SOL    HW113589   4.767   2.343   1.098
 3230SOL    HW213590   4.754   2.343   0.935
 3231SOL     OW13591   4.244   1.149   0.417
 3231SOL    HW113592   4.279   1.176   0.327
 3231SOL    HW213593   4.259   1.051   0.431
 3232SOL     OW13594   4.263   2.742   5.601
 3232SOL    HW113595   4.274   2.765   5.698
 3232SOL    HW213596   4.343   2.690   5.570
 3233SOL     OW13597   5.629   0.891   5.839
 3233SOL    HW113598   0.011   0.925   5.874
 3233SOL    HW213599   5.612   0.799   5.875
 3234SOL     OW13600   0.131   0.109   0.146
 3234SOL    HW113601   0.043   0.112   0.194
 3234SOL    HW213602   0.158   0.201   0.120
 3235SOL     OW13603   4.742   4.159   0.488
 3235SOL    HW113604   4.829   4.130   0.448
 3235SOL    HW213605   4.732   4.258   0.477
 3236SOL     OW13606   0.019   0.913   1.444
 3236SOL    HW113607   0.028   0.861   1.529
 3236SOL    HW213608   0.105   0.959   1.424
 3237SOL     OW13609   1.612   1.003   0.800
 3237SOL    HW113610   1.562   1.089   0.808
 3237SOL    HW213611   1.639   0.971   0.890
 3238SOL     OW13612   2.961   5.304   5.431
 3238SOL    HW113613   3.006   5.231   5.379
 3238SOL    HW213614   2.982   5.294   5.528
 3239SOL     OW13615   4.929   0.544   0.293
 3239SOL    HW113616   4.906   0.531   0.196
 3239SOL    HW213617   4.926   0.641   0.316
 3240SOL     OW13618   1.255   5.067   1.744
 3240SOL    HW113619   1.296   5.050   1.834
 3240SOL    HW213620   1.327   5.094   1.679
 3241SOL     OW13621   0.722   0.177   1.241
 3241SOL    HW113622   0.727   0.263   1.191
 3241SOL    HW213623   0.629   0.163   1.275
 3242SOL     OW13624   3.800   3.395   5.634
 3242SOL    HW113625   3.739   3.447   5.574
 3242SOL    HW213626   3.748   3.360   5.711
 3243SOL     OW13627   5.701   0.638   5.550
 3243SOL    HW113628   0.018   0.723   5.502
 3243SOL    HW213629   0.041   0.638   5.639
 3244SOL     OW13630   4.116   0.003   5.776
 3244SOL    HW113631   4.084   0.033   5.686
 3244SOL    HW213632   4.156   0.080   5.824
 3245SOL     OW13633   0.744   4.283   0.791
 3245SOL    HW113634   0.647   4.274   0.815
 3245SOL    HW213635   0.793   4.323   0.868
 3246SOL     OW13636   4.196   2.942   5.433
 3246SOL    HW113637   4.227   2.871   5.495
 3246SOL    HW213638   4.096   2.950   5.439
 3247SOL     OW13639   0.223   4.243   1.461
 3247SOL    HW113640   0.277   4.319   1.424
 3247SOL    HW213641   0.253   4.223   1.554
 3248SOL     OW13642   1.574   4.284   4.374
 3248SOL    HW113643   1.592   4.238   4.287
 3248SOL    HW213644   1.656   4.281   4.431
 3249SOL     OW13645   4.356   4.590   5.934
 3249SOL    HW113646   4.299   4.549   6.005
 3249SOL    HW213647   4.378   4.684   5.961
 3250SOL     OW13648   3.198   1.699   4.937
 3250SOL    HW113649   3.164   1.606   4.927
 3250SOL    HW213650   3.153   1.759   4.870
 3251SOL     OW13651   1.766   5.059   0.520
 3251SOL    HW113652   1.805   5.124   0.585
 3251SOL    HW213653   1.694   5.104   0.468
 3252SOL     OW13654   2.484   3.829   0.190
 3252SOL    HW113655   2.580   3.812   0.210
 3252SOL    HW213656   2.473   3.923   0.155
 3253SOL     OW13657   1.876   0.512   4.929
 3253SOL    HW113658   1.855   0.528   4.832
 3253SOL    HW213659   1.917   0.422   4.939
 3254SOL     OW13660   2.758   2.810   4.992
 3254SOL    HW113661   2.707   2.728   5.019
 3254SOL    HW213662   2.693   2.883   4.968
 3255SOL     OW13663   2.802   4.504   1.601
 3255SOL    HW113664   2.897   4.476   1.585
 3255SOL    HW213665   2.754   4.432   1.652
 3256SOL     OW13666   5.309   5.489   4.612
 3256SOL    HW113667   5.388   5.545   4.588
 3256SOL    HW213668   5.275   5.444   4.529
 3257SOL     OW13669   4.401   3.703   1.009
 3257SOL    HW113670   4.500   3.693   1.023
 3257SOL    HW213671   4.352   3.673   1.091
 3258SOL     OW13672   0.943   3.148   5.246
 3258SOL    HW113673   0.870   3.141   5.178
 3258SOL    HW213674   1.030   3.121   5.205
 3259SOL     OW13675   2.427   4.776   4.483
 3259SOL    HW113676   2.387   4.827   4.407
 3259SOL    HW213677   2.526   4.774   4.474
 3260SOL     OW13678   0.969   3.793   5.059
 3260SOL    HW113679   0.940   3.707   5.099
 3260SOL    HW213680   0.927   3.804   4.969
 3261SOL     OW13681   3.996   2.842   4.521
 3261SOL    HW113682   3.976   2.744   4.524
 3261SOL    HW213683   3.922   2.890   4.475
 3262SOL     OW13684   2.113   5.253   1.020
 3262SOL    HW113685   2.048   5.327   1.038
 3262SOL    HW213686   2.202   5.277   1.060
 3263SOL     OW13687   1.314   3.356   5.840
 3263SOL    HW113688   1.224   3.312   5.844
 3263SOL    HW213689   1.305   3.447   5.800
 3264SOL     OW13690   5.414   0.945   4.869
 3264SOL    HW113691   5.458   0.890   4.799
 3264SOL    HW213692   5.435   0.908   4.960
 3265SOL     OW13693   4.678   2.198   5.228
 3265SOL    HW113694   4.722   2.254   5.158
 3265SOL    HW213695   4.583   2.228   5.240
 3266SOL     OW13696   1.610   4.167   0.594
 3266SOL    HW113697   1.573   4.250   0.552
 3266SOL    HW213698   1.659   4.192   0.678
 3267SOL     OW13699   3.566   3.558   5.906
 3267SOL    HW113700   3.512   3.597   5.831
 3267SOL    HW213701   3.586   3.463   5.886
 3268SOL     OW13702   1.172   5.356   0.810
 3268SOL    HW113703   1.148   5.266   0.848
 3268SOL    HW213704   1.239   5.400   0.870
 3269SOL     OW13705   1.860   4.367   5.320
 3269SOL    HW113706   1.796   4.291   5.319
 3269SOL    HW213707   1.820   4.443   5.372
 3270SOL     OW13708   3.027   0.946   0.590
 3270SOL    HW113709   3.103   0.912   0.534
 3270SOL    HW213710   2.954   0.980   0.530
 3271SOL     OW13711   5.360   0.929   5.756
 3271SOL    HW113712   5.338   0.855   5.692
 3271SOL    HW213713   5.455   0.918   5.788
 3272SOL     OW13714   1.647   2.065   0.086
 3272SOL    HW113715   1.740   2.077   0.121
 3272SOL    HW213716   1.581   2.080   0.160
 3273SOL     OW13717   2.415   2.768   5.446
 3273SOL    HW113718   2.317   2.750   5.453
 3273SOL    HW213719   2.457   2.702   5.384
 3274SOL     OW13720   3.697   1.698   6.012
 3274SOL    HW113721   3.636   1.679   0.074
 3274SOL    HW213722   3.674   1.637   5.936
 3275SOL     OW13723   3.161   0.250   5.349
 3275SOL    HW113724   3.228   0.224   5.280
 3275SOL    HW213725   3.186   0.209   5.437
 3276SOL     OW13726   2.245   3.025   0.040
 3276SOL    HW113727   2.329   2.971   0.044
 3276SOL    HW213728   2.245   3.094   0.112
 3277SOL     OW13729   1.476   2.164   4.791
 3277SOL    HW113730   1.427   2.116   4.718
 3277SOL    HW213731   1.502   2.256   4.760
 3278SOL     OW13732   4.653   3.399   0.142
 3278SOL    HW113733   4.737   3.452   0.133
 3278SOL    HW213734   4.634   3.382   0.238
 3279SOL     OW13735   3.385   0.145   5.203
 3279SOL    HW113736   3.466   0.088   5.220
 3279SOL    HW213737   3.411   0.242   5.208
 3280SOL     OW13738   4.214   1.595   0.893
 3280SOL    HW113739   4.164   1.681   0.885
 3280SOL    HW213740   4.164   1.523   0.845
 3281SOL     OW13741   0.521   3.825   5.600
 3281SOL    HW113742   0.523   3.902   5.536
 3281SOL    HW213743   0.503   3.741   5.550
 3282SOL     OW13744   5.670   4.164   0.845
 3282SOL    HW113745   5.625   4.206   0.923
 3282SOL    HW213746   5.611   4.170   0.764
 3283SOL     OW13747   5.562   5.440   5.991
 3283SOL    HW113748   5.586   5.439   0.072
 3283SOL    HW213749   5.494   5.512   5.974
 3284SOL     OW13750   4.041   1.814   0.869
 3284SOL    HW113751   4.091   1.900   0.864
 3284SOL    HW213752   4.025   1.790   0.965
 3285SOL     OW13753   5.082   1.566   0.334
 3285SOL    HW113754   5.166   1.512   0.341
 3285SOL    HW213755   5.026   1.551   0.416
 3286SOL     OW13756   4.578   2.380   4.860
 3286SOL    HW113757   4.599   2.422   4.772
 3286SOL    HW213758   4.516   2.303   4.847
 3287SOL     OW13759   3.341   4.604   5.046
 3287SOL    HW113760   3.302   4.684   5.092
 3287SOL    HW213761   3.428   4.580   5.090
 3288SOL     OW13762   0.477   4.277   0.878
 3288SOL    HW113763   0.485   4.366   0.923
 3288SOL    HW213764   0.387   4.269   0.836
 3289SOL     OW13765   0.611   3.909   4.740
 3289SOL    HW113766   0.528   3.854   4.753
 3289SOL    HW213767   0.591   3.984   4.678
 3290SOL     OW13768   3.996   1.016   5.122
 3290SOL    HW113769   3.971   1.073   5.044
 3290SOL    HW213770   3.961   0.924   5.109
 3291SOL     OW13771   2.921   1.464   0.328
 3291SOL    HW113772   2.831   1.428   0.303
 3291SOL    HW213773   2.982   1.456   0.250
 3292SOL     OW13774   3.724   3.504   1.190
 3292SOL    HW113775   3.676   3.456   1.116
 3292SOL    HW213776   3.710   3.603   1.180
 3293SOL     OW13777   4.630   4.418   0.721
 3293SOL    HW113778   4.665   4.399   0.629
 3293SOL    HW213779   4.690   4.373   0.788
 3294SOL     OW13780   3.442   5.222   5.424
 3294SOL    HW113781   3.412   5.288   5.355
 3294SOL    HW213782   3.365   5.161   5.447
 3295SOL     OW13783   3.850   5.441   1.021
 3295SOL    HW113784   3.756   5.418   1.046
 3295SOL    HW213785   3.904   5.356   1.016
 3296SOL     OW13786   2.552   1.910   1.341
 3296SOL    HW113787   2.570   1.998   1.297
 3296SOL    HW213788   2.483   1.922   1.413
 3297SOL     OW13789   3.589   0.424   5.462
 3297SOL    HW113790   3.668   0.386   5.511
 3297SOL    HW213791   3.523   0.459   5.528
 3298SOL     OW13792   3.085   0.841   5.063
 3298SOL    HW113793   3.118   0.796   4.979
 3298SOL    HW213794   3.129   0.930   5.072
 3299SOL     OW13795   0.698   0.344   4.540
 3299SOL    HW113796   0.650   0.429   4.518
 3299SOL    HW213797   0.780   0.337   4.483
 3300SOL     OW13798   2.160   2.222   1.579
 3300SOL    HW113799   2.089   2.215   1.649
 3300SOL    HW213800   2.240   2.267   1.617
 3301SOL     OW13801   4.477   5.029   5.268
 3301SOL    HW113802   4.514   4.949   5.315
 3301SOL    HW213803   4.485   5.110   5.327
 3302SOL     OW13804   4.477   4.734   0.969
 3302SOL    HW113805   4.387   4.775   0.955
 3302SOL    HW213806   4.505   4.749   1.064
 3303SOL     OW13807   2.700   1.294   0.519
 3303SOL    HW113808   2.626   1.353   0.551
 3303SOL    HW213809   2.786   1.322   0.563
 3304SOL     OW13810   1.367   0.631   0.945
 3304SOL    HW113811   1.406   0.543   0.972
 3304SOL    HW213812   1.415   0.665   0.865
 3305SOL     OW13813   3.372   5.296   0.873
 3305SOL    HW113814   3.331   5.206   0.882
 3305SOL    HW213815   3.439   5.310   0.947
   5.70492   5.65448   6.01582
