[ defaults ]
; nbfunc  comb-rule gen-pairs fudgeLJ fudgeQQ
  1   2   yes    0.5 0.5

[ atomtypes ]
;  name  at.num     mass         charge    ptype          sigma          epsilon
   CT1      6      14.0270       0.00        A            0.400          1.0000
   CT2      6      14.0270       0.00        A            0.400          1.0000
    OW      8      15.9994      -0.8476      A            0.316557     0.650194
    HW      1       1.0080       0.4238      A            0.000000     0.000000

[nonbond_params]
; atom   atom       func       sigma           epsilon
   CT1   OW          1       0.3582785           0.8
   CT2   OW          1       0.3582785           1.5

[ moleculetype ]
; molname	nrexcl
SOL		2

[ atoms ]
;   nr   type  resnr residue  atom   cgnr     charge       mass
     1	   OW	   1	SOL     OW      1    -0.8476
     2	   HW	   1	SOL    HW1      1     0.4238
     3	   HW	   1	SOL    HW2	1     0.4238
[ settles ]
; OW	funct	doh	dhh
1	1	0.1	0.16330

[ exclusions ]
1	2	3
2	1	3
3	1	2

[ moleculetype ]
; Name nrexcl
PNI      2

[ atoms ]
;   nr      type  resnr resid  atom  cgnr   charge     mass
     1     CT1      1    CT1    CH1      1    0.000    14.0270
     2     CT1      1    CT1    CH1      2    0.000    14.0270
     3     CT1      1    CT1    CH1      3    0.000    14.0270
     4     CT1      1    CT1    CH1      4    0.000    14.0270
     5     CT1      1    CT1    CH1      5    0.000    14.0270
     6     CT1      1    CT1    CH1      6    0.000    14.0270
     7     CT1      1    CT1    CH1      7    0.000    14.0270
     8     CT1      1    CT1    CH1      8    0.000    14.0270
     9     CT1      1    CT1    CH1      9    0.000    14.0270
    10     CT1      1    CT1    CH1     10    0.000    14.0270
    11     CT2      1    CT2    CH2     11    0.000    14.0270
    12     CT2      1    CT2    CH2     12    0.000    14.0270
    13     CT2      1    CT2    CH2     13    0.000    14.0270
    14     CT2      1    CT2    CH2     14    0.000    14.0270
    15     CT2      1    CT2    CH2     15    0.000    14.0270
    16     CT2      1    CT2    CH2     16    0.000    14.0270
    17     CT2      1    CT2    CH2     17    0.000    14.0270
    18     CT2      1    CT2    CH2     18    0.000    14.0270
    19     CT2      1    CT2    CH2     19    0.000    14.0270
    20     CT2      1    CT2    CH2     20    0.000    14.0270
    21     CT1      1    CT1    CH1     21    0.000    14.0270
    22     CT1      1    CT1    CH1     22    0.000    14.0270
    23     CT1      1    CT1    CH1     23    0.000    14.0270
    24     CT1      1    CT1    CH1     24    0.000    14.0270
    25     CT1      1    CT1    CH1     25    0.000    14.0270
    26     CT1      1    CT1    CH1     26    0.000    14.0270
    27     CT1      1    CT1    CH1     27    0.000    14.0270
    28     CT1      1    CT1    CH1     28    0.000    14.0270
    29     CT1      1    CT1    CH1     29    0.000    14.0270
    30     CT1      1    CT1    CH1     30    0.000    14.0270
    31     CT2      1    CT2    CH2     31    0.000    14.0270
    32     CT2      1    CT2    CH2     32    0.000    14.0270
    33     CT2      1    CT2    CH2     33    0.000    14.0270
    34     CT2      1    CT2    CH2     34    0.000    14.0270
    35     CT2      1    CT2    CH2     35    0.000    14.0270
    36     CT2      1    CT2    CH2     36    0.000    14.0270
    37     CT2      1    CT2    CH2     37    0.000    14.0270
    38     CT2      1    CT2    CH2     38    0.000    14.0270
    39     CT2      1    CT2    CH2     39    0.000    14.0270
    40     CT2      1    CT2    CH2     40    0.000    14.0270
    41     CT1      1    CT1    CH1     41    0.000    14.0270
    42     CT1      1    CT1    CH1     42    0.000    14.0270
    43     CT1      1    CT1    CH1     43    0.000    14.0270
    44     CT1      1    CT1    CH1     44    0.000    14.0270
    45     CT1      1    CT1    CH1     45    0.000    14.0270
    46     CT1      1    CT1    CH1     46    0.000    14.0270
    47     CT1      1    CT1    CH1     47    0.000    14.0270
    48     CT1      1    CT1    CH1     48    0.000    14.0270
    49     CT1      1    CT1    CH1     49    0.000    14.0270
    50     CT1      1    CT1    CH1     50    0.000    14.0270

[ bonds ]                       
; ai  aj  fu    c0, c1, ...     
    1     2     1   0.1530   330000.0   0.1530   330000.0
    2     3     1   0.1530   330000.0   0.1530   330000.0
    3     4     1   0.1530   330000.0   0.1530   330000.0
    4     5     1   0.1530   330000.0   0.1530   330000.0
    5     6     1   0.1530   330000.0   0.1530   330000.0
    6     7     1   0.1530   330000.0   0.1530   330000.0
    7     8     1   0.1530   330000.0   0.1530   330000.0
    8     9     1   0.1530   330000.0   0.1530   330000.0
    9     10    1   0.1530   330000.0   0.1530   330000.0
    10    11    1   0.1530   330000.0   0.1530   330000.0
    11    12    1   0.1530   330000.0   0.1530   330000.0
    12    13    1   0.1530   330000.0   0.1530   330000.0
    13    14    1   0.1530   330000.0   0.1530   330000.0
    14    15    1   0.1530   330000.0   0.1530   330000.0
    15    16    1   0.1530   330000.0   0.1530   330000.0
    16    17    1   0.1530   330000.0   0.1530   330000.0
    17    18    1   0.1530   330000.0   0.1530   330000.0
    18    19    1   0.1530   330000.0   0.1530   330000.0
    19    20    1   0.1530   330000.0   0.1530   330000.0
    20    21    1   0.1530   330000.0   0.1530   330000.0
    21    22    1   0.1530   330000.0   0.1530   330000.0
    22    23    1   0.1530   330000.0   0.1530   330000.0
    23    24    1   0.1530   330000.0   0.1530   330000.0
    24    25    1   0.1530   330000.0   0.1530   330000.0
    25    26    1   0.1530   330000.0   0.1530   330000.0
    26    27    1   0.1530   330000.0   0.1530   330000.0
    27    28    1   0.1530   330000.0   0.1530   330000.0
    28    29    1   0.1530   330000.0   0.1530   330000.0
    29    30    1   0.1530   330000.0   0.1530   330000.0
    30    31    1   0.1530   330000.0   0.1530   330000.0
    31    32    1   0.1530   330000.0   0.1530   330000.0
    32    33    1   0.1530   330000.0   0.1530   330000.0
    33    34    1   0.1530   330000.0   0.1530   330000.0
    34    35    1   0.1530   330000.0   0.1530   330000.0
    35    36    1   0.1530   330000.0   0.1530   330000.0
    36    37    1   0.1530   330000.0   0.1530   330000.0
    37    38    1   0.1530   330000.0   0.1530   330000.0
    38    39    1   0.1530   330000.0   0.1530   330000.0
    39    40    1   0.1530   330000.0   0.1530   330000.0
    40    41    1   0.1530   330000.0   0.1530   330000.0
    41    42    1   0.1530   330000.0   0.1530   330000.0
    42    43    1   0.1530   330000.0   0.1530   330000.0
    43    44    1   0.1530   330000.0   0.1530   330000.0 
    44    45    1   0.1530   330000.0   0.1530   330000.0 
    45    46    1   0.1530   330000.0   0.1530   330000.0
    46    47    1   0.1530   330000.0   0.1530   330000.0  
    47    48    1   0.1530   330000.0   0.1530   330000.0 
    48    49    1   0.1530   330000.0   0.1530   330000.0   
    49    50    1   0.1530   330000.0   0.1530   330000.0
    
[ angles ]
; ai  aj ak  fu    c0, c1, ...
     1      2      3     2      111.000  100.000  111.000  100.000
     2      3      4     2      111.000  100.000  111.000  100.000
     3      4      5     2      111.000  100.000  111.000  100.000
     4      5      6     2      111.000  100.000  111.000  100.000
     5      6      7     2      111.000  100.000  111.000  100.000
     6      7      8     2      111.000  100.000  111.000  100.000
     7      8      9     2      111.000  100.000  111.000  100.000
     8      9      10    2      111.000  100.000  111.000  100.000
     9      10     11    2      111.000  100.000  111.000  100.000
     10     11     12    2      111.000  100.000  111.000  100.000
     11     12     13    2      111.000  100.000  111.000  100.000    
     12     13     14    2      111.000  100.000  111.000  100.000
     13     14     15    2      111.000  100.000  111.000  100.000
     14     15     16    2      111.000  100.000  111.000  100.000
     15     16     17    2      111.000  100.000  111.000  100.000
     16     17     18    2      111.000  100.000  111.000  100.000
     17     18     19    2      111.000  100.000  111.000  100.000
     18     19     20    2      111.000  100.000  111.000  100.000
     19     20     21    2      111.000  100.000  111.000  100.000
     20     21     22    2      111.000  100.000  111.000  100.000
     21     22     23    2      111.000  100.000  111.000  100.000  
     22     23     24    2      111.000  100.000  111.000  100.000
     23     24     25    2      111.000  100.000  111.000  100.000
     24     25     26    2      111.000  100.000  111.000  100.000
     25     26     27    2      111.000  100.000  111.000  100.000
     26     27     28    2      111.000  100.000  111.000  100.000
     27     28     29    2      111.000  100.000  111.000  100.000
     28     29     30    2      111.000  100.000  111.000  100.000
     29     30     31    2      111.000  100.000  111.000  100.000
     30     31     32    2      111.000  100.000  111.000  100.000
     31     32     33    2      111.000  100.000  111.000  100.000
     32     33     34    2      111.000  100.000  111.000  100.000  
     33     34     35    2      111.000  100.000  111.000  100.000
     34     35     36    2      111.000  100.000  111.000  100.000
     35     36     37    2      111.000  100.000  111.000  100.000
     36     37     38    2      111.000  100.000  111.000  100.000
     37     38     39    2      111.000  100.000  111.000  100.000
     38     39     40    2      111.000  100.000  111.000  100.000
     39     40     41    2      111.000  100.000  111.000  100.000
     40     41     42    2      111.000  100.000  111.000  100.000
     41     42     43    2      111.000  100.000  111.000  100.000
     42     43     44    2      111.000  100.000  111.000  100.000  
     43     44     45    2      111.000  100.000  111.000  100.000
     44     45     46    2      111.000  100.000  111.000  100.000
     45     46     47    2      111.000  100.000  111.000  100.000
     46     47     48    2      111.000  100.000  111.000  100.000
     47     48     49    2      111.000  100.000  111.000  100.000
     48     49     50    2      111.000  100.000  111.000  100.000
     
[ system ]
PNI in water

[ molecules ]
PNI   		1
SOL             11188
