;
;	File 'topol.top' was generated
;	By user: root (93529)
;	On host: chas026
;	At date: Fri Feb  6 12:33:54 2026
;
;	This is a standalone topology file
;
;	Created by:
;	              :-) GROMACS - gmx pdb2gmx, 2021.4-plumed-2.8.0 (-:
;	
;	Executable:   /home/apps/centos7/gromacs/2021.4/gcc9.1_ompi4.1.2/bin/gmx_mpi
;	Data prefix:  /home/apps/centos7/gromacs/2021.4/gcc9.1_ompi4.1.2
;	Working dir:  /scratch/mse/phd/msz208502/dev_gromacs/47_speptide
;	Command line:
;	  gmx_mpi pdb2gmx -ignh -water spc -p topol.top -f speptide.pdb -o speptide.gro
;	Force field was read from the standard GROMACS share directory.
;

; Include forcefield parameters
#include "gromos54a7.ff/forcefield.itp"

[ moleculetype ]
; Name            nrexcl
Protein             3

[ atoms ]
;   nr       type  resnr residue  atom   cgnr     charge       mass  typeB    chargeB      massB
; residue   1 LYS rtp LYSH q +2.0
     1         NL      1    LYS      N      1      0.129    14.0067
     2          H      1    LYS     H1      1      0.248      1.008
     3          H      1    LYS     H2      1      0.248      1.008
     4          H      1    LYS     H3      1      0.248      1.008
     5        CH1      1    LYS     CA      2      0.127     13.019
     6        CH2      1    LYS     CB      2          0     14.027
     7        CH2      1    LYS     CG      3          0     14.027
     8        CH2      1    LYS     CD      3          0     14.027
     9        CH2      1    LYS     CE      4      0.127     14.027
    10         NL      1    LYS     NZ      4      0.129    14.0067
    11          H      1    LYS    HZ1      4      0.248      1.008
    12          H      1    LYS    HZ2      4      0.248      1.008
    13          H      1    LYS    HZ3      4      0.248      1.008
    14          C      1    LYS      C      5       0.45     12.011
    15          O      1    LYS      O      5      -0.45    15.9994   ; qtot 2
; residue   2 GLU rtp GLU  q -1.0
    16          N      2    GLU      N      6      -0.31    14.0067
    17          H      2    GLU      H      6       0.31      1.008
    18        CH1      2    GLU     CA      7          0     13.019
    19        CH2      2    GLU     CB      7          0     14.027
    20        CH2      2    GLU     CG      7          0     14.027
    21          C      2    GLU     CD      8       0.27     12.011
    22         OM      2    GLU    OE1      8     -0.635    15.9994
    23         OM      2    GLU    OE2      8     -0.635    15.9994
    24          C      2    GLU      C      9       0.45     12.011
    25          O      2    GLU      O      9      -0.45    15.9994   ; qtot 1
; residue   3 THR rtp THR  q  0.0
    26          N      3    THR      N     10      -0.31    14.0067
    27          H      3    THR      H     10       0.31      1.008
    28        CH1      3    THR     CA     11          0     13.019
    29        CH1      3    THR     CB     12      0.266     13.019
    30         OA      3    THR    OG1     12     -0.674    15.9994
    31          H      3    THR    HG1     12      0.408      1.008
    32        CH3      3    THR    CG2     13          0     15.035
    33          C      3    THR      C     14       0.45     12.011
    34          O      3    THR      O     14      -0.45    15.9994   ; qtot 1
; residue   4 ALA rtp ALA  q  0.0
    35          N      4    ALA      N     15      -0.31    14.0067
    36          H      4    ALA      H     15       0.31      1.008
    37        CH1      4    ALA     CA     16          0     13.019
    38        CH3      4    ALA     CB     16          0     15.035
    39          C      4    ALA      C     17       0.45     12.011
    40          O      4    ALA      O     17      -0.45    15.9994   ; qtot 1
; residue   5 ALA rtp ALA  q  0.0
    41          N      5    ALA      N     18      -0.31    14.0067
    42          H      5    ALA      H     18       0.31      1.008
    43        CH1      5    ALA     CA     19          0     13.019
    44        CH3      5    ALA     CB     19          0     15.035
    45          C      5    ALA      C     20       0.45     12.011
    46          O      5    ALA      O     20      -0.45    15.9994   ; qtot 1
; residue   6 ALA rtp ALA  q  0.0
    47          N      6    ALA      N     21      -0.31    14.0067
    48          H      6    ALA      H     21       0.31      1.008
    49        CH1      6    ALA     CA     22          0     13.019
    50        CH3      6    ALA     CB     22          0     15.035
    51          C      6    ALA      C     23       0.45     12.011
    52          O      6    ALA      O     23      -0.45    15.9994   ; qtot 1
; residue   7 LYS rtp LYSH q +1.0
    53          N      7    LYS      N     24      -0.31    14.0067
    54          H      7    LYS      H     24       0.31      1.008
    55        CH1      7    LYS     CA     25          0     13.019
    56        CH2      7    LYS     CB     25          0     14.027
    57        CH2      7    LYS     CG     26          0     14.027
    58        CH2      7    LYS     CD     26          0     14.027
    59        CH2      7    LYS     CE     27      0.127     14.027
    60         NL      7    LYS     NZ     27      0.129    14.0067
    61          H      7    LYS    HZ1     27      0.248      1.008
    62          H      7    LYS    HZ2     27      0.248      1.008
    63          H      7    LYS    HZ3     27      0.248      1.008
    64          C      7    LYS      C     28       0.45     12.011
    65          O      7    LYS      O     28      -0.45    15.9994   ; qtot 2
; residue   8 PHE rtp PHE  q  0.0
    66          N      8    PHE      N     29      -0.31    14.0067
    67          H      8    PHE      H     29       0.31      1.008
    68        CH1      8    PHE     CA     30          0     13.019
    69        CH2      8    PHE     CB     30          0     14.027
    70          C      8    PHE     CG     30          0     12.011
    71          C      8    PHE    CD1     31      -0.14     12.011
    72         HC      8    PHE    HD1     31       0.14      1.008
    73          C      8    PHE    CD2     32      -0.14     12.011
    74         HC      8    PHE    HD2     32       0.14      1.008
    75          C      8    PHE    CE1     33      -0.14     12.011
    76         HC      8    PHE    HE1     33       0.14      1.008
    77          C      8    PHE    CE2     34      -0.14     12.011
    78         HC      8    PHE    HE2     34       0.14      1.008
    79          C      8    PHE     CZ     35      -0.14     12.011
    80         HC      8    PHE     HZ     35       0.14      1.008
    81          C      8    PHE      C     36       0.45     12.011
    82          O      8    PHE      O     36      -0.45    15.9994   ; qtot 2
; residue   9 GLU rtp GLU  q -1.0
    83          N      9    GLU      N     37      -0.31    14.0067
    84          H      9    GLU      H     37       0.31      1.008
    85        CH1      9    GLU     CA     38          0     13.019
    86        CH2      9    GLU     CB     38          0     14.027
    87        CH2      9    GLU     CG     38          0     14.027
    88          C      9    GLU     CD     39       0.27     12.011
    89         OM      9    GLU    OE1     39     -0.635    15.9994
    90         OM      9    GLU    OE2     39     -0.635    15.9994
    91          C      9    GLU      C     40       0.45     12.011
    92          O      9    GLU      O     40      -0.45    15.9994   ; qtot 1
; residue  10 ARG rtp ARG  q +1.0
    93          N     10    ARG      N     41      -0.31    14.0067
    94          H     10    ARG      H     41       0.31      1.008
    95        CH1     10    ARG     CA     42          0     13.019
    96        CH2     10    ARG     CB     42          0     14.027
    97        CH2     10    ARG     CG     42          0     14.027
    98        CH2     10    ARG     CD     43       0.09     14.027
    99         NE     10    ARG     NE     43      -0.11    14.0067
   100          H     10    ARG     HE     43       0.24      1.008
   101          C     10    ARG     CZ     43       0.34     12.011
   102         NZ     10    ARG    NH1     43      -0.26    14.0067
   103          H     10    ARG   HH11     43       0.24      1.008
   104          H     10    ARG   HH12     43       0.24      1.008
   105         NZ     10    ARG    NH2     43      -0.26    14.0067
   106          H     10    ARG   HH21     43       0.24      1.008
   107          H     10    ARG   HH22     43       0.24      1.008
   108          C     10    ARG      C     44       0.45     12.011
   109          O     10    ARG      O     44      -0.45    15.9994   ; qtot 2
; residue  11 GLN rtp GLN  q  0.0
   110          N     11    GLN      N     45      -0.31    14.0067
   111          H     11    GLN      H     45       0.31      1.008
   112        CH1     11    GLN     CA     46          0     13.019
   113        CH2     11    GLN     CB     46          0     14.027
   114        CH2     11    GLN     CG     46          0     14.027
   115          C     11    GLN     CD     47       0.29     12.011
   116          O     11    GLN    OE1     47      -0.45    15.9994
   117         NT     11    GLN    NE2     47      -0.72    14.0067
   118          H     11    GLN   HE21     47       0.44      1.008
   119          H     11    GLN   HE22     47       0.44      1.008
   120          C     11    GLN      C     48       0.45     12.011
   121          O     11    GLN      O     48      -0.45    15.9994   ; qtot 2
; residue  12 HIS rtp HISB q  0.0
   122          N     12    HIS      N     49      -0.31    14.0067
   123          H     12    HIS      H     49       0.31      1.008
   124        CH1     12    HIS     CA     50          0     13.019
   125        CH2     12    HIS     CB     50          0     14.027
   126          C     12    HIS     CG     51          0     12.011
   127         NR     12    HIS    ND1     51      -0.54    14.0067
   128          C     12    HIS    CD2     51          0     12.011
   129         HC     12    HIS    HD2     51       0.14      1.008
   130          C     12    HIS    CE1     51          0     12.011
   131         HC     12    HIS    HE1     51       0.14      1.008
   132         NR     12    HIS    NE2     51      -0.05    14.0067
   133          H     12    HIS    HE2     51       0.31      1.008
   134          C     12    HIS      C     52       0.45     12.011
   135          O     12    HIS      O     52      -0.45    15.9994   ; qtot 2
; residue  13 MET rtp MET  q  0.0
   136          N     13    MET      N     53      -0.31    14.0067
   137          H     13    MET      H     53       0.31      1.008
   138        CH1     13    MET     CA     54          0     13.019
   139        CH2     13    MET     CB     54          0     14.027
   140        CH2     13    MET     CG     55      0.241     14.027
   141          S     13    MET     SD     55     -0.482      32.06
   142        CH3     13    MET     CE     55      0.241     15.035
   143          C     13    MET      C     56       0.45     12.011
   144          O     13    MET      O     56      -0.45    15.9994   ; qtot 2
; residue  14 ASP rtp ASP  q -1.0
   145          N     14    ASP      N     57      -0.31    14.0067
   146          H     14    ASP      H     57       0.31      1.008
   147        CH1     14    ASP     CA     58          0     13.019
   148        CH2     14    ASP     CB     58          0     14.027
   149          C     14    ASP     CG     59       0.27     12.011
   150         OM     14    ASP    OD1     59     -0.635    15.9994
   151         OM     14    ASP    OD2     59     -0.635    15.9994
   152          C     14    ASP      C     60       0.45     12.011
   153          O     14    ASP      O     60      -0.45    15.9994   ; qtot 1
; residue  15 SER rtp SER  q  0.0
   154          N     15    SER      N     61      -0.31    14.0067
   155          H     15    SER      H     61       0.31      1.008
   156        CH1     15    SER     CA     62          0     13.019
   157        CH2     15    SER     CB     63      0.266     14.027
   158         OA     15    SER     OG     63     -0.674    15.9994
   159          H     15    SER     HG     63      0.408      1.008
   160          C     15    SER      C     64       0.45     12.011
   161          O     15    SER      O     64      -0.45    15.9994   ; qtot 1
; residue  16 SER rtp SER  q  0.0
   162          N     16    SER      N     65      -0.31    14.0067
   163          H     16    SER      H     65       0.31      1.008
   164        CH1     16    SER     CA     66          0     13.019
   165        CH2     16    SER     CB     67      0.266     14.027
   166         OA     16    SER     OG     67     -0.674    15.9994
   167          H     16    SER     HG     67      0.408      1.008
   168          C     16    SER      C     68       0.45     12.011
   169          O     16    SER      O     68      -0.45    15.9994   ; qtot 1
; residue  17 THR rtp THR  q  0.0
   170          N     17    THR      N     69      -0.31    14.0067
   171          H     17    THR      H     69       0.31      1.008
   172        CH1     17    THR     CA     70          0     13.019
   173        CH1     17    THR     CB     71      0.266     13.019
   174         OA     17    THR    OG1     71     -0.674    15.9994
   175          H     17    THR    HG1     71      0.408      1.008
   176        CH3     17    THR    CG2     72          0     15.035
   177          C     17    THR      C     73       0.45     12.011
   178          O     17    THR      O     73      -0.45    15.9994   ; qtot 1
; residue  18 SER rtp SER  q  0.0
   179          N     18    SER      N     74      -0.31    14.0067
   180          H     18    SER      H     74       0.31      1.008
   181        CH1     18    SER     CA     75          0     13.019
   182        CH2     18    SER     CB     76      0.266     14.027
   183         OA     18    SER     OG     76     -0.674    15.9994
   184          H     18    SER     HG     76      0.408      1.008
   185          C     18    SER      C     77       0.45     12.011
   186          O     18    SER      O     77      -0.45    15.9994   ; qtot 1
; residue  19 ALA rtp ALA  q -1.0
   187          N     19    ALA      N     78      -0.31    14.0067
   188          H     19    ALA      H     78       0.31      1.008
   189        CH1     19    ALA     CA     79          0     13.019
   190        CH3     19    ALA     CB     79          0     15.035
   191          C     19    ALA      C     80       0.27     12.011
   192         OM     19    ALA     O1     80     -0.635    15.9994
   193         OM     19    ALA     O2     80     -0.635    15.9994   ; qtot 0

[ bonds ]
;  ai    aj funct            c0            c1            c2            c3
    1     2     2    gb_2
    1     3     2    gb_2
    1     4     2    gb_2
    1     5     2    gb_21
    5     6     2    gb_27
    5    14     2    gb_27
    6     7     2    gb_27
    7     8     2    gb_27
    8     9     2    gb_27
    9    10     2    gb_21
   10    11     2    gb_2
   10    12     2    gb_2
   10    13     2    gb_2
   14    15     2    gb_5
   14    16     2    gb_10
   16    17     2    gb_2
   16    18     2    gb_21
   18    19     2    gb_27
   18    24     2    gb_27
   19    20     2    gb_27
   20    21     2    gb_27
   21    22     2    gb_6
   21    23     2    gb_6
   24    25     2    gb_5
   24    26     2    gb_10
   26    27     2    gb_2
   26    28     2    gb_21
   28    29     2    gb_27
   28    33     2    gb_27
   29    30     2    gb_18
   29    32     2    gb_27
   30    31     2    gb_1
   33    34     2    gb_5
   33    35     2    gb_10
   35    36     2    gb_2
   35    37     2    gb_21
   37    38     2    gb_27
   37    39     2    gb_27
   39    40     2    gb_5
   39    41     2    gb_10
   41    42     2    gb_2
   41    43     2    gb_21
   43    44     2    gb_27
   43    45     2    gb_27
   45    46     2    gb_5
   45    47     2    gb_10
   47    48     2    gb_2
   47    49     2    gb_21
   49    50     2    gb_27
   49    51     2    gb_27
   51    52     2    gb_5
   51    53     2    gb_10
   53    54     2    gb_2
   53    55     2    gb_21
   55    56     2    gb_27
   55    64     2    gb_27
   56    57     2    gb_27
   57    58     2    gb_27
   58    59     2    gb_27
   59    60     2    gb_21
   60    61     2    gb_2
   60    62     2    gb_2
   60    63     2    gb_2
   64    65     2    gb_5
   64    66     2    gb_10
   66    67     2    gb_2
   66    68     2    gb_21
   68    69     2    gb_27
   68    81     2    gb_27
   69    70     2    gb_27
   70    71     2    gb_16
   70    73     2    gb_16
   71    72     2    gb_3
   71    75     2    gb_16
   73    74     2    gb_3
   73    77     2    gb_16
   75    76     2    gb_3
   75    79     2    gb_16
   77    78     2    gb_3
   77    79     2    gb_16
   79    80     2    gb_3
   81    82     2    gb_5
   81    83     2    gb_10
   83    84     2    gb_2
   83    85     2    gb_21
   85    86     2    gb_27
   85    91     2    gb_27
   86    87     2    gb_27
   87    88     2    gb_27
   88    89     2    gb_6
   88    90     2    gb_6
   91    92     2    gb_5
   91    93     2    gb_10
   93    94     2    gb_2
   93    95     2    gb_21
   95    96     2    gb_27
   95   108     2    gb_27
   96    97     2    gb_27
   97    98     2    gb_27
   98    99     2    gb_21
   99   100     2    gb_2
   99   101     2    gb_11
  101   102     2    gb_11
  101   105     2    gb_11
  102   103     2    gb_2
  102   104     2    gb_2
  105   106     2    gb_2
  105   107     2    gb_2
  108   109     2    gb_5
  108   110     2    gb_10
  110   111     2    gb_2
  110   112     2    gb_21
  112   113     2    gb_27
  112   120     2    gb_27
  113   114     2    gb_27
  114   115     2    gb_27
  115   116     2    gb_5
  115   117     2    gb_9
  117   118     2    gb_2
  117   119     2    gb_2
  120   121     2    gb_5
  120   122     2    gb_10
  122   123     2    gb_2
  122   124     2    gb_21
  124   125     2    gb_27
  124   134     2    gb_27
  125   126     2    gb_27
  126   127     2    gb_10
  126   128     2    gb_10
  127   130     2    gb_10
  128   129     2    gb_3
  128   132     2    gb_10
  130   131     2    gb_3
  130   132     2    gb_10
  132   133     2    gb_2
  134   135     2    gb_5
  134   136     2    gb_10
  136   137     2    gb_2
  136   138     2    gb_21
  138   139     2    gb_27
  138   143     2    gb_27
  139   140     2    gb_27
  140   141     2    gb_32
  141   142     2    gb_31
  143   144     2    gb_5
  143   145     2    gb_10
  145   146     2    gb_2
  145   147     2    gb_21
  147   148     2    gb_27
  147   152     2    gb_27
  148   149     2    gb_27
  149   150     2    gb_6
  149   151     2    gb_6
  152   153     2    gb_5
  152   154     2    gb_10
  154   155     2    gb_2
  154   156     2    gb_21
  156   157     2    gb_27
  156   160     2    gb_27
  157   158     2    gb_18
  158   159     2    gb_1
  160   161     2    gb_5
  160   162     2    gb_10
  162   163     2    gb_2
  162   164     2    gb_21
  164   165     2    gb_27
  164   168     2    gb_27
  165   166     2    gb_18
  166   167     2    gb_1
  168   169     2    gb_5
  168   170     2    gb_10
  170   171     2    gb_2
  170   172     2    gb_21
  172   173     2    gb_27
  172   177     2    gb_27
  173   174     2    gb_18
  173   176     2    gb_27
  174   175     2    gb_1
  177   178     2    gb_5
  177   179     2    gb_10
  179   180     2    gb_2
  179   181     2    gb_21
  181   182     2    gb_27
  181   185     2    gb_27
  182   183     2    gb_18
  183   184     2    gb_1
  185   186     2    gb_5
  185   187     2    gb_10
  187   188     2    gb_2
  187   189     2    gb_21
  189   190     2    gb_27
  189   191     2    gb_27
  191   192     2    gb_6
  191   193     2    gb_6

[ pairs ]
;  ai    aj funct            c0            c1            c2            c3
    1     7     1 
    1    15     1 
    1    16     1 
    2     6     1 
    2    14     1 
    3     6     1 
    3    14     1 
    4     6     1 
    4    14     1 
    5     8     1 
    5    17     1 
    5    18     1 
    6     9     1 
    6    15     1 
    6    16     1 
    7    10     1 
    7    14     1 
    8    11     1 
    8    12     1 
    8    13     1 
   14    19     1 
   14    24     1 
   15    17     1 
   15    18     1 
   16    20     1 
   16    25     1 
   16    26     1 
   17    19     1 
   17    24     1 
   18    21     1 
   18    27     1 
   18    28     1 
   19    22     1 
   19    23     1 
   19    25     1 
   19    26     1 
   20    24     1 
   24    29     1 
   24    33     1 
   25    27     1 
   25    28     1 
   26    30     1 
   26    32     1 
   26    34     1 
   26    35     1 
   27    29     1 
   27    33     1 
   28    31     1 
   28    36     1 
   28    37     1 
   29    34     1 
   29    35     1 
   30    33     1 
   31    32     1 
   32    33     1 
   33    38     1 
   33    39     1 
   34    36     1 
   34    37     1 
   35    40     1 
   35    41     1 
   36    38     1 
   36    39     1 
   37    42     1 
   37    43     1 
   38    40     1 
   38    41     1 
   39    44     1 
   39    45     1 
   40    42     1 
   40    43     1 
   41    46     1 
   41    47     1 
   42    44     1 
   42    45     1 
   43    48     1 
   43    49     1 
   44    46     1 
   44    47     1 
   45    50     1 
   45    51     1 
   46    48     1 
   46    49     1 
   47    52     1 
   47    53     1 
   48    50     1 
   48    51     1 
   49    54     1 
   49    55     1 
   50    52     1 
   50    53     1 
   51    56     1 
   51    64     1 
   52    54     1 
   52    55     1 
   53    57     1 
   53    65     1 
   53    66     1 
   54    56     1 
   54    64     1 
   55    58     1 
   55    67     1 
   55    68     1 
   56    59     1 
   56    65     1 
   56    66     1 
   57    60     1 
   57    64     1 
   58    61     1 
   58    62     1 
   58    63     1 
   64    69     1 
   64    81     1 
   65    67     1 
   65    68     1 
   66    70     1 
   66    82     1 
   66    83     1 
   67    69     1 
   67    81     1 
   68    71     1 
   68    73     1 
   68    84     1 
   68    85     1 
   69    82     1 
   69    83     1 
   70    81     1 
   81    86     1 
   81    91     1 
   82    84     1 
   82    85     1 
   83    87     1 
   83    92     1 
   83    93     1 
   84    86     1 
   84    91     1 
   85    88     1 
   85    94     1 
   85    95     1 
   86    89     1 
   86    90     1 
   86    92     1 
   86    93     1 
   87    91     1 
   91    96     1 
   91   108     1 
   92    94     1 
   92    95     1 
   93    97     1 
   93   109     1 
   93   110     1 
   94    96     1 
   94   108     1 
   95    98     1 
   95   111     1 
   95   112     1 
   96    99     1 
   96   109     1 
   96   110     1 
   97   100     1 
   97   101     1 
   97   108     1 
   98   102     1 
   98   105     1 
   99   103     1 
   99   104     1 
   99   106     1 
   99   107     1 
  100   102     1 
  100   105     1 
  102   106     1 
  102   107     1 
  103   105     1 
  104   105     1 
  108   113     1 
  108   120     1 
  109   111     1 
  109   112     1 
  110   114     1 
  110   121     1 
  110   122     1 
  111   113     1 
  111   120     1 
  112   115     1 
  112   123     1 
  112   124     1 
  113   116     1 
  113   117     1 
  113   121     1 
  113   122     1 
  114   118     1 
  114   119     1 
  114   120     1 
  116   118     1 
  116   119     1 
  120   125     1 
  120   134     1 
  121   123     1 
  121   124     1 
  122   126     1 
  122   135     1 
  122   136     1 
  123   125     1 
  123   134     1 
  124   127     1 
  124   128     1 
  124   137     1 
  124   138     1 
  125   135     1 
  125   136     1 
  126   134     1 
  134   139     1 
  134   143     1 
  135   137     1 
  135   138     1 
  136   140     1 
  136   144     1 
  136   145     1 
  137   139     1 
  137   143     1 
  138   141     1 
  138   146     1 
  138   147     1 
  139   142     1 
  139   144     1 
  139   145     1 
  140   143     1 
  143   148     1 
  143   152     1 
  144   146     1 
  144   147     1 
  145   149     1 
  145   153     1 
  145   154     1 
  146   148     1 
  146   152     1 
  147   150     1 
  147   151     1 
  147   155     1 
  147   156     1 
  148   153     1 
  148   154     1 
  149   152     1 
  152   157     1 
  152   160     1 
  153   155     1 
  153   156     1 
  154   158     1 
  154   161     1 
  154   162     1 
  155   157     1 
  155   160     1 
  156   159     1 
  156   163     1 
  156   164     1 
  157   161     1 
  157   162     1 
  158   160     1 
  160   165     1 
  160   168     1 
  161   163     1 
  161   164     1 
  162   166     1 
  162   169     1 
  162   170     1 
  163   165     1 
  163   168     1 
  164   167     1 
  164   171     1 
  164   172     1 
  165   169     1 
  165   170     1 
  166   168     1 
  168   173     1 
  168   177     1 
  169   171     1 
  169   172     1 
  170   174     1 
  170   176     1 
  170   178     1 
  170   179     1 
  171   173     1 
  171   177     1 
  172   175     1 
  172   180     1 
  172   181     1 
  173   178     1 
  173   179     1 
  174   177     1 
  175   176     1 
  176   177     1 
  177   182     1 
  177   185     1 
  178   180     1 
  178   181     1 
  179   183     1 
  179   186     1 
  179   187     1 
  180   182     1 
  180   185     1 
  181   184     1 
  181   188     1 
  181   189     1 
  182   186     1 
  182   187     1 
  183   185     1 
  185   190     1 
  185   191     1 
  186   188     1 
  186   189     1 
  187   192     1 
  187   193     1 
  188   190     1 
  188   191     1 
  190   192     1 
  190   193     1 

[ angles ]
;  ai    aj    ak funct            c0            c1            c2            c3
    2     1     3     2    ga_10
    2     1     4     2    ga_10
    2     1     5     2    ga_11
    3     1     4     2    ga_10
    3     1     5     2    ga_11
    4     1     5     2    ga_11
    1     5     6     2    ga_13
    1     5    14     2    ga_13
    6     5    14     2    ga_13
    5     6     7     2    ga_15
    6     7     8     2    ga_15
    7     8     9     2    ga_15
    8     9    10     2    ga_15
    9    10    11     2    ga_11
    9    10    12     2    ga_11
    9    10    13     2    ga_11
   11    10    12     2    ga_10
   11    10    13     2    ga_10
   12    10    13     2    ga_10
    5    14    15     2    ga_30
    5    14    16     2    ga_19
   15    14    16     2    ga_33
   14    16    17     2    ga_32
   14    16    18     2    ga_31
   17    16    18     2    ga_18
   16    18    19     2    ga_13
   16    18    24     2    ga_13
   19    18    24     2    ga_13
   18    19    20     2    ga_15
   19    20    21     2    ga_15
   20    21    22     2    ga_22
   20    21    23     2    ga_22
   22    21    23     2    ga_38
   18    24    25     2    ga_30
   18    24    26     2    ga_19
   25    24    26     2    ga_33
   24    26    27     2    ga_32
   24    26    28     2    ga_31
   27    26    28     2    ga_18
   26    28    29     2    ga_13
   26    28    33     2    ga_13
   29    28    33     2    ga_13
   28    29    30     2    ga_13
   28    29    32     2    ga_15
   30    29    32     2    ga_15
   29    30    31     2    ga_12
   28    33    34     2    ga_30
   28    33    35     2    ga_19
   34    33    35     2    ga_33
   33    35    36     2    ga_32
   33    35    37     2    ga_31
   36    35    37     2    ga_18
   35    37    38     2    ga_13
   35    37    39     2    ga_13
   38    37    39     2    ga_13
   37    39    40     2    ga_30
   37    39    41     2    ga_19
   40    39    41     2    ga_33
   39    41    42     2    ga_32
   39    41    43     2    ga_31
   42    41    43     2    ga_18
   41    43    44     2    ga_13
   41    43    45     2    ga_13
   44    43    45     2    ga_13
   43    45    46     2    ga_30
   43    45    47     2    ga_19
   46    45    47     2    ga_33
   45    47    48     2    ga_32
   45    47    49     2    ga_31
   48    47    49     2    ga_18
   47    49    50     2    ga_13
   47    49    51     2    ga_13
   50    49    51     2    ga_13
   49    51    52     2    ga_30
   49    51    53     2    ga_19
   52    51    53     2    ga_33
   51    53    54     2    ga_32
   51    53    55     2    ga_31
   54    53    55     2    ga_18
   53    55    56     2    ga_13
   53    55    64     2    ga_13
   56    55    64     2    ga_13
   55    56    57     2    ga_15
   56    57    58     2    ga_15
   57    58    59     2    ga_15
   58    59    60     2    ga_15
   59    60    61     2    ga_11
   59    60    62     2    ga_11
   59    60    63     2    ga_11
   61    60    62     2    ga_10
   61    60    63     2    ga_10
   62    60    63     2    ga_10
   55    64    65     2    ga_30
   55    64    66     2    ga_19
   65    64    66     2    ga_33
   64    66    67     2    ga_32
   64    66    68     2    ga_31
   67    66    68     2    ga_18
   66    68    69     2    ga_13
   66    68    81     2    ga_13
   69    68    81     2    ga_13
   68    69    70     2    ga_15
   69    70    71     2    ga_27
   69    70    73     2    ga_27
   71    70    73     2    ga_27
   70    71    72     2    ga_25
   70    71    75     2    ga_27
   72    71    75     2    ga_25
   70    73    74     2    ga_25
   70    73    77     2    ga_27
   74    73    77     2    ga_25
   71    75    76     2    ga_25
   71    75    79     2    ga_27
   76    75    79     2    ga_25
   73    77    78     2    ga_25
   73    77    79     2    ga_27
   78    77    79     2    ga_25
   75    79    77     2    ga_27
   75    79    80     2    ga_25
   77    79    80     2    ga_25
   68    81    82     2    ga_30
   68    81    83     2    ga_19
   82    81    83     2    ga_33
   81    83    84     2    ga_32
   81    83    85     2    ga_31
   84    83    85     2    ga_18
   83    85    86     2    ga_13
   83    85    91     2    ga_13
   86    85    91     2    ga_13
   85    86    87     2    ga_15
   86    87    88     2    ga_15
   87    88    89     2    ga_22
   87    88    90     2    ga_22
   89    88    90     2    ga_38
   85    91    92     2    ga_30
   85    91    93     2    ga_19
   92    91    93     2    ga_33
   91    93    94     2    ga_32
   91    93    95     2    ga_31
   94    93    95     2    ga_18
   93    95    96     2    ga_13
   93    95   108     2    ga_13
   96    95   108     2    ga_13
   95    96    97     2    ga_15
   96    97    98     2    ga_15
   97    98    99     2    ga_13
   98    99   100     2    ga_20
   98    99   101     2    ga_33
  100    99   101     2    ga_23
   99   101   102     2    ga_28
   99   101   105     2    ga_28
  102   101   105     2    ga_28
  101   102   103     2    ga_23
  101   102   104     2    ga_23
  103   102   104     2    ga_24
  101   105   106     2    ga_23
  101   105   107     2    ga_23
  106   105   107     2    ga_24
   95   108   109     2    ga_30
   95   108   110     2    ga_19
  109   108   110     2    ga_33
  108   110   111     2    ga_32
  108   110   112     2    ga_31
  111   110   112     2    ga_18
  110   112   113     2    ga_13
  110   112   120     2    ga_13
  113   112   120     2    ga_13
  112   113   114     2    ga_15
  113   114   115     2    ga_15
  114   115   116     2    ga_30
  114   115   117     2    ga_19
  116   115   117     2    ga_33
  115   117   118     2    ga_23
  115   117   119     2    ga_23
  118   117   119     2    ga_24
  112   120   121     2    ga_30
  112   120   122     2    ga_19
  121   120   122     2    ga_33
  120   122   123     2    ga_32
  120   122   124     2    ga_31
  123   122   124     2    ga_18
  122   124   125     2    ga_13
  122   124   134     2    ga_13
  125   124   134     2    ga_13
  124   125   126     2    ga_15
  125   126   127     2    ga_37
  125   126   128     2    ga_37
  127   126   128     2    ga_7
  126   127   130     2    ga_7
  126   128   129     2    ga_36
  126   128   132     2    ga_7
  129   128   132     2    ga_36
  127   130   131     2    ga_36
  127   130   132     2    ga_7
  131   130   132     2    ga_36
  128   132   130     2    ga_7
  128   132   133     2    ga_36
  130   132   133     2    ga_36
  124   134   135     2    ga_30
  124   134   136     2    ga_19
  135   134   136     2    ga_33
  134   136   137     2    ga_32
  134   136   138     2    ga_31
  137   136   138     2    ga_18
  136   138   139     2    ga_13
  136   138   143     2    ga_13
  139   138   143     2    ga_13
  138   139   140     2    ga_15
  139   140   141     2    ga_16
  140   141   142     2    ga_4
  138   143   144     2    ga_30
  138   143   145     2    ga_19
  144   143   145     2    ga_33
  143   145   146     2    ga_32
  143   145   147     2    ga_31
  146   145   147     2    ga_18
  145   147   148     2    ga_13
  145   147   152     2    ga_13
  148   147   152     2    ga_13
  147   148   149     2    ga_15
  148   149   150     2    ga_22
  148   149   151     2    ga_22
  150   149   151     2    ga_38
  147   152   153     2    ga_30
  147   152   154     2    ga_19
  153   152   154     2    ga_33
  152   154   155     2    ga_32
  152   154   156     2    ga_31
  155   154   156     2    ga_18
  154   156   157     2    ga_13
  154   156   160     2    ga_13
  157   156   160     2    ga_13
  156   157   158     2    ga_13
  157   158   159     2    ga_12
  156   160   161     2    ga_30
  156   160   162     2    ga_19
  161   160   162     2    ga_33
  160   162   163     2    ga_32
  160   162   164     2    ga_31
  163   162   164     2    ga_18
  162   164   165     2    ga_13
  162   164   168     2    ga_13
  165   164   168     2    ga_13
  164   165   166     2    ga_13
  165   166   167     2    ga_12
  164   168   169     2    ga_30
  164   168   170     2    ga_19
  169   168   170     2    ga_33
  168   170   171     2    ga_32
  168   170   172     2    ga_31
  171   170   172     2    ga_18
  170   172   173     2    ga_13
  170   172   177     2    ga_13
  173   172   177     2    ga_13
  172   173   174     2    ga_13
  172   173   176     2    ga_15
  174   173   176     2    ga_15
  173   174   175     2    ga_12
  172   177   178     2    ga_30
  172   177   179     2    ga_19
  178   177   179     2    ga_33
  177   179   180     2    ga_32
  177   179   181     2    ga_31
  180   179   181     2    ga_18
  179   181   182     2    ga_13
  179   181   185     2    ga_13
  182   181   185     2    ga_13
  181   182   183     2    ga_13
  182   183   184     2    ga_12
  181   185   186     2    ga_30
  181   185   187     2    ga_19
  186   185   187     2    ga_33
  185   187   188     2    ga_32
  185   187   189     2    ga_31
  188   187   189     2    ga_18
  187   189   190     2    ga_13
  187   189   191     2    ga_13
  190   189   191     2    ga_13
  189   191   192     2    ga_22
  189   191   193     2    ga_22
  192   191   193     2    ga_38

[ dihedrals ]
;  ai    aj    ak    al funct            c0            c1            c2            c3            c4            c5
    2     1     5    14     1    gd_39
    1     5     6     7     1    gd_34
    1     5    14    16     1    gd_42
    1     5    14    16     1    gd_45
    5     6     7     8     1    gd_34
    6     7     8     9     1    gd_34
    7     8     9    10     1    gd_34
    8     9    10    11     1    gd_29
    5    14    16    18     1    gd_14
   14    16    18    24     1    gd_43
   14    16    18    24     1    gd_44
   16    18    19    20     1    gd_34
   16    18    24    26     1    gd_42
   16    18    24    26     1    gd_45
   18    19    20    21     1    gd_34
   19    20    21    23     1    gd_40
   18    24    26    28     1    gd_14
   24    26    28    33     1    gd_43
   24    26    28    33     1    gd_44
   26    28    29    30     1    gd_34
   26    28    33    35     1    gd_42
   26    28    33    35     1    gd_45
   28    29    30    31     1    gd_23
   28    33    35    37     1    gd_14
   33    35    37    39     1    gd_43
   33    35    37    39     1    gd_44
   35    37    39    41     1    gd_42
   35    37    39    41     1    gd_45
   37    39    41    43     1    gd_14
   39    41    43    45     1    gd_43
   39    41    43    45     1    gd_44
   41    43    45    47     1    gd_42
   41    43    45    47     1    gd_45
   43    45    47    49     1    gd_14
   45    47    49    51     1    gd_43
   45    47    49    51     1    gd_44
   47    49    51    53     1    gd_42
   47    49    51    53     1    gd_45
   49    51    53    55     1    gd_14
   51    53    55    64     1    gd_43
   51    53    55    64     1    gd_44
   53    55    56    57     1    gd_34
   53    55    64    66     1    gd_42
   53    55    64    66     1    gd_45
   55    56    57    58     1    gd_34
   56    57    58    59     1    gd_34
   57    58    59    60     1    gd_34
   58    59    60    61     1    gd_29
   55    64    66    68     1    gd_14
   64    66    68    81     1    gd_43
   64    66    68    81     1    gd_44
   66    68    69    70     1    gd_34
   66    68    81    83     1    gd_42
   66    68    81    83     1    gd_45
   68    69    70    71     1    gd_40
   68    81    83    85     1    gd_14
   81    83    85    91     1    gd_43
   81    83    85    91     1    gd_44
   83    85    86    87     1    gd_34
   83    85    91    93     1    gd_42
   83    85    91    93     1    gd_45
   85    86    87    88     1    gd_34
   86    87    88    90     1    gd_40
   85    91    93    95     1    gd_14
   91    93    95   108     1    gd_43
   91    93    95   108     1    gd_44
   93    95    96    97     1    gd_34
   93    95   108   110     1    gd_42
   93    95   108   110     1    gd_45
   95    96    97    98     1    gd_34
   96    97    98    99     1    gd_34
   97    98    99   101     1    gd_39
   98    99   101   102     1    gd_14
   99   101   102   103     1    gd_14
   99   101   105   106     1    gd_14
   95   108   110   112     1    gd_14
  108   110   112   120     1    gd_43
  108   110   112   120     1    gd_44
  110   112   113   114     1    gd_34
  110   112   120   122     1    gd_42
  110   112   120   122     1    gd_45
  112   113   114   115     1    gd_34
  113   114   115   117     1    gd_40
  114   115   117   118     1    gd_14
  112   120   122   124     1    gd_14
  120   122   124   134     1    gd_43
  120   122   124   134     1    gd_44
  122   124   125   126     1    gd_34
  122   124   134   136     1    gd_42
  122   124   134   136     1    gd_45
  124   125   126   127     1    gd_40
  124   134   136   138     1    gd_14
  134   136   138   143     1    gd_43
  134   136   138   143     1    gd_44
  136   138   139   140     1    gd_34
  136   138   143   145     1    gd_42
  136   138   143   145     1    gd_45
  138   139   140   141     1    gd_34
  139   140   141   142     1    gd_26
  138   143   145   147     1    gd_14
  143   145   147   152     1    gd_43
  143   145   147   152     1    gd_44
  145   147   148   149     1    gd_34
  145   147   152   154     1    gd_42
  145   147   152   154     1    gd_45
  147   148   149   150     1    gd_40
  147   152   154   156     1    gd_14
  152   154   156   160     1    gd_43
  152   154   156   160     1    gd_44
  154   156   157   158     1    gd_34
  154   156   160   162     1    gd_42
  154   156   160   162     1    gd_45
  156   157   158   159     1    gd_23
  156   160   162   164     1    gd_14
  160   162   164   168     1    gd_43
  160   162   164   168     1    gd_44
  162   164   165   166     1    gd_34
  162   164   168   170     1    gd_42
  162   164   168   170     1    gd_45
  164   165   166   167     1    gd_23
  164   168   170   172     1    gd_14
  168   170   172   177     1    gd_43
  168   170   172   177     1    gd_44
  170   172   173   174     1    gd_34
  170   172   177   179     1    gd_42
  170   172   177   179     1    gd_45
  172   173   174   175     1    gd_23
  172   177   179   181     1    gd_14
  177   179   181   185     1    gd_43
  177   179   181   185     1    gd_44
  179   181   182   183     1    gd_34
  179   181   185   187     1    gd_42
  179   181   185   187     1    gd_45
  181   182   183   184     1    gd_23
  181   185   187   189     1    gd_14
  185   187   189   191     1    gd_43
  185   187   189   191     1    gd_44
  187   189   191   193     1    gd_42
  187   189   191   193     1    gd_45

[ dihedrals ]
;  ai    aj    ak    al funct            c0            c1            c2            c3
    5     1    14     6     2    gi_2
   14     5    16    15     2    gi_1
   16    14    18    17     2    gi_1
   18    16    24    19     2    gi_2
   20    23    22    21     2    gi_1
   24    18    26    25     2    gi_1
   26    24    28    27     2    gi_1
   28    26    33    29     2    gi_2
   28    32    30    29     2    gi_2
   33    28    35    34     2    gi_1
   35    33    37    36     2    gi_1
   37    35    39    38     2    gi_2
   39    37    41    40     2    gi_1
   41    39    43    42     2    gi_1
   43    41    45    44     2    gi_2
   45    43    47    46     2    gi_1
   47    45    49    48     2    gi_1
   49    47    51    50     2    gi_2
   51    49    53    52     2    gi_1
   53    51    55    54     2    gi_1
   55    53    64    56     2    gi_2
   64    55    66    65     2    gi_1
   66    64    68    67     2    gi_1
   68    66    81    69     2    gi_2
   69    73    71    70     2    gi_1
   70    71    75    79     2    gi_1
   70    73    77    79     2    gi_1
   71    70    75    72     2    gi_1
   71    70    73    77     2    gi_1
   71    75    79    77     2    gi_1
   73    70    77    74     2    gi_1
   73    70    71    75     2    gi_1
   73    77    79    75     2    gi_1
   75    79    71    76     2    gi_1
   77    79    73    78     2    gi_1
   79    75    77    80     2    gi_1
   81    68    83    82     2    gi_1
   83    81    85    84     2    gi_1
   85    83    91    86     2    gi_2
   87    90    89    88     2    gi_1
   91    85    93    92     2    gi_1
   93    91    95    94     2    gi_1
   95    93   108    96     2    gi_2
   99    98   101   100     2    gi_1
   99   105   102   101     2    gi_1
  101   104   103   102     2    gi_1
  101   107   106   105     2    gi_1
  108    95   110   109     2    gi_1
  110   108   112   111     2    gi_1
  112   110   120   113     2    gi_2
  114   117   116   115     2    gi_1
  115   119   118   117     2    gi_1
  120   112   122   121     2    gi_1
  122   120   124   123     2    gi_1
  124   122   134   125     2    gi_2
  125   128   127   126     2    gi_1
  126   128   132   130     2    gi_1
  126   127   130   132     2    gi_1
  127   130   132   128     2    gi_1
  127   126   128   132     2    gi_1
  128   126   132   129     2    gi_1
  128   126   127   130     2    gi_1
  130   127   132   131     2    gi_1
  132   128   130   133     2    gi_1
  134   124   136   135     2    gi_1
  136   134   138   137     2    gi_1
  138   136   143   139     2    gi_2
  143   138   145   144     2    gi_1
  145   143   147   146     2    gi_1
  147   145   152   148     2    gi_2
  148   151   150   149     2    gi_1
  152   147   154   153     2    gi_1
  154   152   156   155     2    gi_1
  156   154   160   157     2    gi_2
  160   156   162   161     2    gi_1
  162   160   164   163     2    gi_1
  164   162   168   165     2    gi_2
  168   164   170   169     2    gi_1
  170   168   172   171     2    gi_1
  172   170   177   173     2    gi_2
  172   176   174   173     2    gi_2
  177   172   179   178     2    gi_1
  179   177   181   180     2    gi_1
  181   179   185   182     2    gi_2
  185   181   187   186     2    gi_1
  187   185   189   188     2    gi_1
  189   187   191   190     2    gi_2
  191   189   193   192     2    gi_1

; Include Position restraint file
#ifdef POSRES
#include "posre.itp"
#endif

; Include water topology
#include "gromos54a7.ff/spc.itp"

#ifdef POSRES_WATER
; Position restraint for each water oxygen
[ position_restraints ]
;  i funct       fcx        fcy        fcz
   1    1       1000       1000       1000
#endif

; Include topology for ions
#include "gromos54a7.ff/ions.itp"

[ system ]
; Name
Protein in water

[ molecules ]
; Compound        #mols
Protein             1
SOL              5299
