Benzene in water
 2649
    1Q37H    H6    1   1.739   1.496   1.507
    1Q37H    C6    2   1.631   1.500   1.508
    1Q37H    C1    3   1.561   1.494   1.628
    1Q37H    H1    4   1.617   1.480   1.720
    1Q37H    C2    5   1.425   1.504   1.627
    1Q37H    H2    6   1.368   1.491   1.719
    1Q37H    C3    7   1.354   1.516   1.508
    1Q37H    H3    8   1.247   1.506   1.507
    1Q37H    C4    9   1.424   1.521   1.388
    1Q37H    H4   10   1.370   1.520   1.294
    1Q37H    C5   11   1.561   1.517   1.390
    1Q37H    H5   12   1.617   1.537   1.300
    2SOL     OW   13   0.230   0.656   0.102
    2SOL    HW1   14   0.164   0.608   0.160
    2SOL    HW2   15   0.252   0.599   0.022
    3SOL     OW   16   0.208   0.271   0.999
    3SOL    HW1   17   0.249   0.249   1.088
    3SOL    HW2   18   0.111   0.249   1.001
    4SOL     OW   19   0.009   0.386   0.657
    4SOL    HW1   20   2.924   0.427   0.689
    4SOL    HW2   21   2.988   0.310   0.595
    5SOL     OW   22   0.567   1.280   1.171
    5SOL    HW1   23   0.474   1.274   1.134
    5SOL    HW2   24   0.582   1.370   1.210
    6SOL     OW   25   1.553   1.510   0.705
    6SOL    HW1   26   1.507   1.495   0.792
    6SOL    HW2   27   1.485   1.520   0.632
    7SOL     OW   28   1.130   0.702   0.704
    7SOL    HW1   29   1.185   0.785   0.687
    7SOL    HW2   30   1.079   0.714   0.789
    8SOL     OW   31   1.761   0.597   0.231
    8SOL    HW1   32   1.748   0.583   0.133
    8SOL    HW2   33   1.724   0.519   0.281
    9SOL     OW   34   0.758   1.146   1.030
    9SOL    HW1   35   0.685   1.175   1.093
    9SOL    HW2   36   0.798   1.226   0.986
   10SOL     OW   37   0.856   0.787   1.818
   10SOL    HW1   38   0.849   0.858   1.888
   10SOL    HW2   39   0.883   0.828   1.731
   11SOL     OW   40   0.685   1.009   0.655
   11SOL    HW1   41   0.754   0.991   0.725
   11SOL    HW2   42   0.609   1.060   0.695
   12SOL     OW   43   0.703   1.156   1.808
   12SOL    HW1   44   0.757   1.237   1.832
   12SOL    HW2   45   0.614   1.184   1.772
   13SOL     OW   46   0.328   1.436   1.068
   13SOL    HW1   47   0.260   1.383   1.018
   13SOL    HW2   48   0.388   1.483   1.004
   14SOL     OW   49   0.447   0.399   1.495
   14SOL    HW1   50   0.527   0.340   1.496
   14SOL    HW2   51   0.364   0.344   1.505
   15SOL     OW   52   1.612   0.456   0.735
   15SOL    HW1   53   1.531   0.483   0.683
   15SOL    HW2   54   1.638   0.530   0.797
   16SOL     OW   55   0.222   1.715   0.481
   16SOL    HW1   56   0.245   1.799   0.531
   16SOL    HW2   57   0.287   1.702   0.406
   17SOL     OW   58   1.127   1.339   1.696
   17SOL    HW1   59   1.176   1.338   1.783
   17SOL    HW2   60   1.074   1.254   1.686
   18SOL     OW   61   0.245   1.450   0.533
   18SOL    HW1   62   0.211   1.544   0.527
   18SOL    HW2   63   0.181   1.395   0.587
   19SOL     OW   64   0.253   1.084   0.893
   19SOL    HW1   65   0.255   0.992   0.932
   19SOL    HW2   66   0.192   1.142   0.947
   20SOL     OW   67   0.616   1.791   1.434
   20SOL    HW1   68   0.529   1.769   1.477
   20SOL    HW2   69   0.643   1.885   1.458
   21SOL     OW   70   0.594   0.974   0.147
   21SOL    HW1   71   0.605   1.047   0.080
   21SOL    HW2   72   0.638   1.000   0.233
   22SOL     OW   73   1.548   0.141   1.468
   22SOL    HW1   74   1.584   0.209   1.404
   22SOL    HW2   75   1.617   0.122   1.539
   23SOL     OW   76   0.123   0.631   0.572
   23SOL    HW1   77   0.079   0.547   0.604
   23SOL    HW2   78   0.117   0.701   0.643
   24SOL     OW   79   1.844   1.763   0.338
   24SOL    HW1   80   1.896   1.724   0.414
   24SOL    HW2   81   1.870   1.858   0.325
   25SOL     OW   82   0.016   1.596   0.113
   25SOL    HW1   83   0.020   1.498   0.134
   25SOL    HW2   84   2.994   1.647   0.197
   26SOL     OW   85   1.691   0.921   0.635
   26SOL    HW1   86   1.780   0.879   0.623
   26SOL    HW2   87   1.668   0.975   0.553
   27SOL     OW   88   1.648   1.109   0.433
   27SOL    HW1   89   1.735   1.114   0.384
   27SOL    HW2   90   1.650   1.171   0.512
   28SOL     OW   91   0.122   0.746   1.593
   28SOL    HW1   92   0.221   0.747   1.607
   28SOL    HW2   93   0.088   0.839   1.586
   29SOL     OW   94   0.609   1.379   0.734
   29SOL    HW1   95   0.562   1.292   0.745
   29SOL    HW2   96   0.594   1.413   0.641
   30SOL     OW   97   1.289   1.229   1.423
   30SOL    HW1   98   1.322   1.157   1.362
   30SOL    HW2   99   1.341   1.228   1.508
   31SOL     OW  100   0.818   0.012   0.501
   31SOL    HW1  101   0.850   0.106   0.493
   31SOL    HW2  102   0.718   0.011   0.501
   32SOL     OW  103   0.192   0.963   1.269
   32SOL    HW1  104   0.280   0.920   1.250
   32SOL    HW2  105   0.119   0.913   1.223
   33SOL     OW  106   1.509   1.007   0.208
   33SOL    HW1  107   1.442   0.939   0.238
   33SOL    HW2  108   1.565   1.035   0.286
   34SOL     OW  109   1.189   1.804   1.620
   34SOL    HW1  110   1.205   1.865   1.543
   34SOL    HW2  111   1.189   1.709   1.588
   35SOL     OW  112   0.327   0.253   1.796
   35SOL    HW1  113   0.388   0.330   1.817
   35SOL    HW2  114   0.240   0.265   1.844
   36SOL     OW  115   1.456   1.417   0.959
   36SOL    HW1  116   1.395   1.419   1.038
   36SOL    HW2  117   1.455   1.326   0.918
   37SOL     OW  118   1.661   1.727   0.577
   37SOL    HW1  119   1.634   1.704   0.483
   37SOL    HW2  120   1.635   1.652   0.638
   38SOL     OW  121   0.592   0.723   0.266
   38SOL    HW1  122   0.607   0.805   0.212
   38SOL    HW2  123   0.526   0.742   0.338
   39SOL     OW  124   1.285   0.339   0.930
   39SOL    HW1  125   1.189   0.312   0.935
   39SOL    HW2  126   1.337   0.291   1.001
   40SOL     OW  127   1.585   1.666   0.308
   40SOL    HW1  128   1.677   1.705   0.306
   40SOL    HW2  129   1.556   1.644   0.215
   41SOL     OW  130   0.795   0.613   1.457
   41SOL    HW1  131   0.765   0.595   1.550
   41SOL    HW2  132   0.750   0.549   1.394
   42SOL     OW  133   1.397   0.475   1.677
   42SOL    HW1  134   1.389   0.521   1.766
   42SOL    HW2  135   1.459   0.397   1.685
   43SOL     OW  136   0.961   0.888   1.577
   43SOL    HW1  137   1.017   0.812   1.545
   43SOL    HW2  138   0.910   0.927   1.500
   44SOL     OW  139   0.995   0.417   1.230
   44SOL    HW1  140   0.919   0.439   1.291
   44SOL    HW2  141   0.960   0.363   1.153
   45SOL     OW  142   1.045   0.704   0.426
   45SOL    HW1  143   1.066   0.697   0.523
   45SOL    HW2  144   0.963   0.650   0.406
   46SOL     OW  145   0.102   0.820   0.763
   46SOL    HW1  146   0.185   0.809   0.819
   46SOL    HW2  147   0.038   0.880   0.811
   47SOL     OW  148   0.139   1.835   1.575
   47SOL    HW1  149   0.127   1.811   1.671
   47SOL    HW2  150   0.051   1.863   1.536
   48SOL     OW  151   0.923   0.338   0.221
   48SOL    HW1  152   0.935   0.405   0.146
   48SOL    HW2  153   0.882   0.255   0.184
   49SOL     OW  154   1.713   0.582   1.827
   49SOL    HW1  155   1.675   0.664   1.784
   49SOL    HW2  156   1.732   0.513   1.757
   50SOL     OW  157   1.373   1.143   0.540
   50SOL    HW1  158   1.455   1.122   0.488
   50SOL    HW2  159   1.318   1.209   0.490
   51SOL     OW  160   0.516   0.194   0.914
   51SOL    HW1  161   0.536   0.209   1.011
   51SOL    HW2  162   0.547   0.273   0.861
   52SOL     OW  163   1.008   1.449   0.473
   52SOL    HW1  164   0.963   1.521   0.421
   52SOL    HW2  165   0.996   1.466   0.571
   53SOL     OW  166   0.355   1.803   0.852
   53SOL    HW1  167   0.402   1.716   0.866
   53SOL    HW2  168   0.419   1.878   0.867
   54SOL     OW  169   1.797   1.063   0.865
   54SOL    HW1  170   1.740   1.046   0.784
   54SOL    HW2  171   1.740   1.066   0.946
   55SOL     OW  172   0.323   0.951   0.229
   55SOL    HW1  173   0.420   0.962   0.207
   55SOL    HW2  174   0.292   0.860   0.202
   56SOL     OW  175   1.473   0.737   0.727
   56SOL    HW1  176   1.458   0.686   0.811
   56SOL    HW2  177   1.551   0.798   0.739
   57SOL     OW  178   0.462   1.257   1.732
   57SOL    HW1  179   0.432   1.267   1.637
   57SOL    HW2  180   0.382   1.264   1.793
   58SOL     OW  181   1.110   1.775   0.226
   58SOL    HW1  182   1.048   1.727   0.287
   58SOL    HW2  183   1.144   1.711   0.156
   59SOL     OW  184   0.200   0.297   1.498
   59SOL    HW1  185   0.114   0.345   1.484
   59SOL    HW2  186   0.187   0.222   1.564
   60SOL     OW  187   1.625   1.365   0.083
   60SOL    HW1  188   1.599   1.461   0.076
   60SOL    HW2  189   1.544   1.307   0.076
   61SOL     OW  190   0.468   1.728   0.330
   61SOL    HW1  191   0.497   1.797   0.397
   61SOL    HW2  192   0.537   1.720   0.258
   62SOL     OW  193   1.408   0.106   0.431
   62SOL    HW1  194   1.386   0.077   0.338
   62SOL    HW2  195   1.505   0.128   0.438
   63SOL     OW  196   0.261   1.797   1.233
   63SOL    HW1  197   0.304   1.726   1.288
   63SOL    HW2  198   0.229   1.757   1.147
   64SOL     OW  199   0.937   1.698   0.900
   64SOL    HW1  200   1.018   1.645   0.924
   64SOL    HW2  201   0.886   1.651   0.828
   65SOL     OW  202   0.388   0.692   0.475
   65SOL    HW1  203   0.426   0.600   0.487
   65SOL    HW2  204   0.292   0.693   0.504
   66SOL     OW  205   1.540   0.244   1.735
   66SOL    HW1  206   1.543   0.257   1.834
   66SOL    HW2  207   1.479   0.167   1.713
   67SOL     OW  208   0.611   0.109   0.110
   67SOL    HW1  209   0.710   0.110   0.122
   67SOL    HW2  210   0.589   0.128   0.014
   68SOL     OW  211   0.768   0.269   1.750
   68SOL    HW1  212   0.844   0.207   1.767
   68SOL    HW2  213   0.713   0.280   1.833
   69SOL     OW  214   0.882   1.518   1.192
   69SOL    HW1  215   0.860   1.483   1.101
   69SOL    HW2  216   0.948   1.458   1.236
   70SOL     OW  217   1.345   0.588   1.433
   70SOL    HW1  218   1.373   0.552   1.522
   70SOL    HW2  219   1.378   0.682   1.424
   71SOL     OW  220   0.812   1.401   0.931
   71SOL    HW1  221   0.901   1.392   0.887
   71SOL    HW2  222   0.740   1.394   0.862
   72SOL     OW  223   0.925   0.508   0.902
   72SOL    HW1  224   0.901   0.501   0.805
   72SOL    HW2  225   0.963   0.422   0.933
   73SOL     OW  226   0.537   0.050   0.496
   73SOL    HW1  227   0.449   0.041   0.542
   73SOL    HW2  228   0.538   0.133   0.441
   74SOL     OW  229   1.414   1.207   0.051
   74SOL    HW1  230   1.442   1.128   0.106
   74SOL    HW2  231   1.320   1.232   0.073
   75SOL     OW  232   0.302   0.076   0.193
   75SOL    HW1  233   0.376   0.142   0.181
   75SOL    HW2  234   0.340   2.986   0.213
   76SOL     OW  235   0.943   0.250   0.474
   76SOL    HW1  236   0.909   0.290   0.389
   76SOL    HW2  237   1.043   0.256   0.476
   77SOL     OW  238   1.080   0.678   1.461
   77SOL    HW1  239   1.001   0.617   1.466
   77SOL    HW2  240   1.163   0.623   1.450
   78SOL     OW  241   1.226   1.571   0.796
   78SOL    HW1  242   1.240   1.639   0.724
   78SOL    HW2  243   1.303   1.575   0.860
   79SOL     OW  244   0.464   1.145   0.740
   79SOL    HW1  245   0.390   1.128   0.805
   79SOL    HW2  246   0.430   1.132   0.647
   80SOL     OW  247   1.271   1.796   0.601
   80SOL    HW1  248   1.318   1.858   0.539
   80SOL    HW2  249   1.204   1.847   0.656
   81SOL     OW  250   1.039   0.506   0.027
   81SOL    HW1  251   0.994   0.593   0.007
   81SOL    HW2  252   1.110   0.521   0.096
   82SOL     OW  253   0.083   0.562   1.391
   82SOL    HW1  254   0.174   0.558   1.351
   82SOL    HW2  255   0.082   0.631   1.464
   83SOL     OW  256   0.575   0.218   1.174
   83SOL    HW1  257   0.614   0.153   1.240
   83SOL    HW2  258   0.478   0.232   1.195
   84SOL     OW  259   0.876   0.467   0.638
   84SOL    HW1  260   0.821   0.523   0.576
   84SOL    HW2  261   0.887   0.375   0.599
   85SOL     OW  262   0.999   0.051   0.765
   85SOL    HW1  263   0.959   0.061   0.674
   85SOL    HW2  264   0.980   2.959   0.799
   86SOL     OW  265   1.436   1.167   0.857
   86SOL    HW1  266   1.368   1.094   0.862
   86SOL    HW2  267   1.461   1.183   0.761
   87SOL     OW  268   1.471   0.597   0.984
   87SOL    HW1  269   1.418   0.512   0.988
   87SOL    HW2  270   1.536   0.600   1.060
   88SOL     OW  271   1.847   0.821   0.382
   88SOL    HW1  272   1.903   0.762   0.440
   88SOL    HW2  273   1.817   0.770   0.301
   89SOL     OW  274   0.488   1.403   0.158
   89SOL    HW1  275   0.418   1.374   0.222
   89SOL    HW2  276   0.449   1.410   0.066
   90SOL     OW  277   1.668   1.268   0.652
   90SOL    HW1  278   1.767   1.271   0.661
   90SOL    HW2  279   1.630   1.358   0.673
   91SOL     OW  280   1.408   0.580   0.100
   91SOL    HW1  281   1.333   0.566   0.164
   91SOL    HW2  282   1.469   0.500   0.101
   92SOL     OW  283   0.530   0.265   0.326
   92SOL    HW1  284   0.567   0.205   0.255
   92SOL    HW2  285   0.508   0.354   0.286
   93SOL     OW  286   1.758   1.217   1.577
   93SOL    HW1  287   1.853   1.186   1.571
   93SOL    HW2  288   1.756   1.309   1.616
   94SOL     OW  289   1.062   1.349   1.329
   94SOL    HW1  290   0.982   1.321   1.383
   94SOL    HW2  291   1.145   1.316   1.374
   95SOL     OW  292   1.119   1.194   1.106
   95SOL    HW1  293   1.083   1.248   1.183
   95SOL    HW2  294   1.085   1.232   1.020
   96SOL     OW  295   1.633   1.093   1.073
   96SOL    HW1  296   1.632   1.155   1.151
   96SOL    HW2  297   1.549   1.104   1.021
   97SOL     OW  298   0.905   0.108   1.392
   97SOL    HW1  299   0.940   0.085   1.301
   97SOL    HW2  300   0.973   0.162   1.441
   98SOL     OW  301   0.981   1.110   1.722
   98SOL    HW1  302   0.884   1.129   1.740
   98SOL    HW2  303   0.989   1.031   1.662
   99SOL     OW  304   0.705   1.059   0.377
   99SOL    HW1  305   0.687   1.051   0.476
   99SOL    HW2  306   0.789   1.010   0.355
  100SOL     OW  307   0.418   0.811   1.250
  100SOL    HW1  308   0.491   0.826   1.317
  100SOL    HW2  309   0.377   0.722   1.266
  101SOL     OW  310   1.272   0.388   1.261
  101SOL    HW1  311   1.304   0.461   1.320
  101SOL    HW2  312   1.174   0.401   1.242
  102SOL     OW  313   0.069   1.569   1.310
  102SOL    HW1  314   0.021   1.656   1.323
  102SOL    HW2  315   0.161   1.574   1.349
  103SOL     OW  316   0.364   1.108   0.492
  103SOL    HW1  317   0.352   1.187   0.433
  103SOL    HW2  318   0.359   1.024   0.436
  104SOL     OW  319   0.556   0.545   0.864
  104SOL    HW1  320   0.575   0.601   0.783
  104SOL    HW2  321   0.619   0.570   0.937
  105SOL     OW  322   1.248   1.348   0.396
  105SOL    HW1  323   1.307   1.424   0.423
  105SOL    HW2  324   1.154   1.367   0.424
  106SOL     OW  325   1.583   0.629   0.475
  106SOL    HW1  326   1.539   0.687   0.544
  106SOL    HW2  327   1.633   0.687   0.410
  107SOL     OW  328   0.354   1.522   1.323
  107SOL    HW1  329   0.329   1.480   1.236
  107SOL    HW2  330   0.452   1.538   1.325
  108SOL     OW  331   0.409   0.743   1.601
  108SOL    HW1  332   0.468   0.797   1.541
  108SOL    HW2  333   0.455   0.656   1.621
  109SOL     OW  334   1.597   0.780   1.677
  109SOL    HW1  335   1.504   0.818   1.673
  109SOL    HW2  336   1.653   0.822   1.606
  110SOL     OW  337   1.003   0.108   1.762
  110SOL    HW1  338   1.041   0.196   1.735
  110SOL    HW2  339   1.031   0.037   1.697
  111SOL     OW  340   0.500   0.053   1.749
  111SOL    HW1  341   0.473   2.989   1.677
  111SOL    HW2  342   0.428   0.121   1.762
  112SOL     OW  343   0.582   0.870   1.032
  112SOL    HW1  344   0.616   0.964   1.023
  112SOL    HW2  345   0.520   0.865   1.111
  113SOL     OW  346   1.364   0.860   1.034
  113SOL    HW1  347   1.277   0.859   0.983
  113SOL    HW2  348   1.400   0.767   1.038
  114SOL     OW  349   1.205   0.531   0.274
  114SOL    HW1  350   1.215   0.444   0.324
  114SOL    HW2  351   1.164   0.599   0.334
  115SOL     OW  352   0.322   0.208   1.245
  115SOL    HW1  353   0.287   0.254   1.327
  115SOL    HW2  354   0.275   0.120   1.233
  116SOL     OW  355   0.040   1.305   1.281
  116SOL    HW1  356   0.074   1.254   1.360
  116SOL    HW2  357   0.048   1.403   1.299
  117SOL     OW  358   0.728   0.633   1.061
  117SOL    HW1  359   0.801   0.609   0.997
  117SOL    HW2  360   0.695   0.725   1.041
  118SOL     OW  361   1.731   0.958   1.849
  118SOL    HW1  362   1.683   0.905   1.779
  118SOL    HW2  363   1.670   0.971   1.928
  119SOL     OW  364   0.309   0.066   0.641
  119SOL    HW1  365   0.305   0.160   0.674
  119SOL    HW2  366   0.286   0.003   0.715
  120SOL     OW  367   1.615   0.374   0.369
  120SOL    HW1  368   1.647   0.303   0.433
  120SOL    HW2  369   1.585   0.454   0.421
  121SOL     OW  370   1.024   0.759   0.964
  121SOL    HW1  371   1.029   0.781   1.061
  121SOL    HW2  372   0.995   0.663   0.953
  122SOL     OW  373   0.991   1.568   1.707
  122SOL    HW1  374   0.965   1.611   1.621
  122SOL    HW2  375   1.032   1.479   1.689
  123SOL     OW  376   0.353   0.913   1.806
  123SOL    HW1  377   0.435   0.937   1.858
  123SOL    HW2  378   0.378   0.850   1.732
  124SOL     OW  379   1.510   0.293   0.127
  124SOL    HW1  380   1.463   0.207   0.143
  124SOL    HW2  381   1.566   0.316   0.206
  125SOL     OW  382   1.296   0.826   0.036
  125SOL    HW1  383   1.336   0.736   0.052
  125SOL    HW2  384   1.322   0.859   2.946
  126SOL     OW  385   1.066   1.335   0.850
  126SOL    HW1  386   1.066   1.255   0.790
  126SOL    HW2  387   1.130   1.403   0.814
  127SOL     OW  388   0.314   0.810   0.947
  127SOL    HW1  389   0.411   0.835   0.944
  127SOL    HW2  390   0.304   0.720   0.989
  128SOL     OW  391   0.337   0.512   1.014
  128SOL    HW1  392   0.292   0.425   0.992
  128SOL    HW2  393   0.414   0.526   0.952
  129SOL     OW  394   1.141   0.385   1.696
  129SOL    HW1  395   1.093   0.441   1.764
  129SOL    HW2  396   1.234   0.419   1.685
  130SOL     OW  397   1.103   0.253   1.474
  130SOL    HW1  398   1.125   0.306   1.556
  130SOL    HW2  399   1.184   0.242   1.418
  131SOL     OW  400   0.007   1.314   0.174
  131SOL    HW1  401   2.912   1.335   0.151
  131SOL    HW2  402   0.011   1.233   0.232
  132SOL     OW  403   0.100   1.803   0.959
  132SOL    HW1  404   0.051   1.734   0.905
  132SOL    HW2  405   0.190   1.820   0.919
  133SOL     OW  406   0.500   1.573   0.904
  133SOL    HW1  407   0.569   1.639   0.931
  133SOL    HW2  408   0.543   1.500   0.850
  134SOL     OW  409   0.992   0.797   1.231
  134SOL    HW1  410   1.044   0.768   1.311
  134SOL    HW2  411   0.899   0.761   1.236
  135SOL     OW  412   0.047   0.559   1.107
  135SOL    HW1  413   0.136   0.526   1.076
  135SOL    HW2  414   0.038   0.544   1.205
  136SOL     OW  415   0.197   0.517   1.720
  136SOL    HW1  416   0.268   0.488   1.657
  136SOL    HW2  417   0.149   0.597   1.683
  137SOL     OW  418   1.373   0.938   1.658
  137SOL    HW1  419   1.397   1.035   1.664
  137SOL    HW2  420   1.371   0.910   1.562
  138SOL     OW  421   0.818   0.576   0.346
  138SOL    HW1  422   0.826   0.493   0.291
  138SOL    HW2  423   0.733   0.623   0.323
  139SOL     OW  424   1.646   0.603   1.191
  139SOL    HW1  425   1.623   0.541   1.267
  139SOL    HW2  426   1.735   0.579   1.154
  140SOL     OW  427   0.280   1.560   1.749
  140SOL    HW1  428   0.221   1.624   1.797
  140SOL    HW2  429   0.249   1.466   1.768
  141SOL     OW  430   0.688   0.460   1.265
  141SOL    HW1  431   0.642   0.376   1.234
  141SOL    HW2  432   0.695   0.524   1.188
  142SOL     OW  433   0.935   1.682   1.465
  142SOL    HW1  434   0.905   1.644   1.378
  142SOL    HW2  435   0.934   1.782   1.461
  143SOL     OW  436   0.443   0.496   0.204
  143SOL    HW1  437   0.518   0.561   0.215
  143SOL    HW2  438   0.357   0.546   0.194
  144SOL     OW  439   0.160   1.139   1.465
  144SOL    HW1  440   0.150   1.090   1.551
  144SOL    HW2  441   0.171   1.074   1.390
  145SOL     OW  442   1.332   1.049   1.223
  145SOL    HW1  443   1.359   0.983   1.154
  145SOL    HW2  444   1.252   1.100   1.192
  146SOL     OW  445   1.305   0.848   0.309
  146SOL    HW1  446   1.223   0.825   0.361
  146SOL    HW2  447   1.286   0.841   0.211
  147SOL     OW  448   1.747   1.746   1.128
  147SOL    HW1  449   1.824   1.779   1.074
  147SOL    HW2  450   1.738   1.647   1.118
  148SOL     OW  451   1.243   1.738   1.120
  148SOL    HW1  452   1.330   1.749   1.070
  148SOL    HW2  453   1.233   1.643   1.148
  149SOL     OW  454   0.092   1.245   1.028
  149SOL    HW1  455   0.078   1.261   1.126
  149SOL    HW2  456   0.005   1.255   0.980
  150SOL     OW  457   0.682   1.664   1.721
  150SOL    HW1  458   0.624   1.746   1.726
  150SOL    HW2  459   0.742   1.671   1.642
  151SOL     OW  460   0.889   0.086   0.139
  151SOL    HW1  461   0.942   0.065   0.056
  151SOL    HW2  462   0.924   0.031   0.215
  152SOL     OW  463   1.717   0.139   0.506
  152SOL    HW1  464   1.792   0.134   0.440
  152SOL    HW2  465   1.718   0.058   0.564
  153SOL     OW  466   1.392   1.570   0.481
  153SOL    HW1  467   1.457   1.597   0.410
  153SOL    HW2  468   1.341   1.651   0.512
  154SOL     OW  469   0.128   1.796   1.845
  154SOL    HW1  470   0.080   1.722   1.894
  154SOL    HW2  471   0.189   1.844   1.908
  155SOL     OW  472   1.279   0.923   0.666
  155SOL    HW1  473   1.353   0.857   0.677
  155SOL    HW2  474   1.313   1.002   0.616
  156SOL     OW  475   0.821   1.273   1.432
  156SOL    HW1  476   0.798   1.312   1.521
  156SOL    HW2  477   0.746   1.290   1.368
  157SOL     OW  478   0.673   1.606   0.157
  157SOL    HW1  479   0.675   1.629   0.060
  157SOL    HW2  480   0.616   1.526   0.172
  158SOL     OW  481   1.720   1.780   1.397
  158SOL    HW1  482   1.705   1.761   1.300
  158SOL    HW2  483   1.646   1.839   1.431
  159SOL     OW  484   1.847   0.160   0.965
  159SOL    HW1  485   1.859   0.074   0.915
  159SOL    HW2  486   1.760   0.201   0.939
  160SOL     OW  487   0.269   0.336   0.743
  160SOL    HW1  488   0.178   0.370   0.720
  160SOL    HW2  489   0.270   0.304   0.838
  161SOL     OW  490   1.203   1.606   0.034
  161SOL    HW1  491   1.199   1.513   0.070
  161SOL    HW2  492   1.147   1.612   2.952
  162SOL     OW  493   0.825   1.008   1.373
  162SOL    HW1  494   0.870   0.998   1.284
  162SOL    HW2  495   0.827   1.104   1.401
  163SOL     OW  496   0.919   0.925   0.304
  163SOL    HW1  497   0.984   0.960   0.236
  163SOL    HW2  498   0.961   0.850   0.354
  164SOL     OW  499   1.491   1.603   0.049
  164SOL    HW1  500   1.393   1.620   0.057
  164SOL    HW2  501   1.522   1.629   2.958
  165SOL     OW  502   0.371   1.300   1.490
  165SOL    HW1  503   0.359   1.385   1.438
  165SOL    HW2  504   0.292   1.241   1.476
  166SOL     OW  505   1.613   1.258   1.278
  166SOL    HW1  506   1.688   1.258   1.343
  166SOL    HW2  507   1.537   1.313   1.313
  167SOL     OW  508   1.045   1.103   0.706
  167SOL    HW1  509   0.972   1.052   0.751
  167SOL    HW2  510   1.110   1.038   0.665
  168SOL     OW  511   1.016   0.240   0.966
  168SOL    HW1  512   1.009   0.191   0.879
  168SOL    HW2  513   1.017   0.174   1.041
  169SOL     OW  514   0.599   1.490   0.485
  169SOL    HW1  515   0.641   1.433   0.413
  169SOL    HW2  516   0.536   1.555   0.443
  170SOL     OW  517   1.721   0.390   1.381
  170SOL    HW1  518   1.791   0.461   1.378
  170SOL    HW2  519   1.746   0.315   1.319
  171SOL     OW  520   0.260   1.341   0.295
  171SOL    HW1  521   0.168   1.343   0.256
  171SOL    HW2  522   0.260   1.386   0.384
  172SOL     OW  523   0.124   1.014   1.712
  172SOL    HW1  524   0.041   0.979   1.756
  172SOL    HW2  525   0.204   0.976   1.758
  173SOL     OW  526   0.668   0.208   1.494
  173SOL    HW1  527   0.753   0.181   1.448
  173SOL    HW2  528   0.686   0.222   1.591
  174SOL     OW  529   0.071   0.324   0.048
  174SOL    HW1  530   2.973   0.325   0.030
  174SOL    HW2  531   0.112   0.408   0.012
  175SOL     OW  532   1.432   0.857   1.399
  175SOL    HW1  533   1.378   0.918   1.342
  175SOL    HW2  534   1.528   0.861   1.372
  176SOL     OW  535   0.040   0.190   0.292
  176SOL    HW1  536   0.047   0.256   0.217
  176SOL    HW2  537   0.128   0.143   0.302
  177SOL     OW  538   1.185   1.351   0.125
  177SOL    HW1  539   1.088   1.328   0.111
  177SOL    HW2  540   1.208   1.340   0.221
  178SOL     OW  541   0.618   0.834   1.431
  178SOL    HW1  542   0.673   0.916   1.416
  178SOL    HW2  543   0.678   0.754   1.440
  179SOL     OW  544   1.490   1.769   0.976
  179SOL    HW1  545   1.511   1.828   0.897
  179SOL    HW2  546   1.572   1.759   1.032
  180SOL     OW  547   0.716   0.565   1.710
  180SOL    HW1  548   0.750   0.636   1.771
  180SOL    HW2  549   0.764   0.479   1.729
  181SOL     OW  550   1.463   1.192   1.638
  181SOL    HW1  551   1.451   1.210   1.736
  181SOL    HW2  552   1.557   1.210   1.612
  182SOL     OW  553   0.387   1.738   1.562
  182SOL    HW1  554   0.297   1.781   1.552
  182SOL    HW2  555   0.376   1.650   1.609
  183SOL     OW  556   1.675   0.881   1.255
  183SOL    HW1  557   1.662   0.790   1.217
  183SOL    HW2  558   1.665   0.950   1.183
  184SOL     OW  559   1.227   0.316   0.454
  184SOL    HW1  560   1.292   0.240   0.449
  184SOL    HW2  561   1.247   0.371   0.535
  185SOL     OW  562   0.593   0.742   0.660
  185SOL    HW1  563   0.636   0.832   0.650
  185SOL    HW2  564   0.514   0.736   0.600
  186SOL     OW  565   1.764   0.351   1.645
  186SOL    HW1  566   1.747   0.375   1.549
  186SOL    HW2  567   1.681   0.312   1.685
  187SOL     OW  568   1.745   0.932   1.511
  187SOL    HW1  569   1.748   1.030   1.533
  187SOL    HW2  570   1.728   0.920   1.414
  188SOL     OW  571   0.901   1.384   0.059
  188SOL    HW1  572   0.825   1.383   0.124
  188SOL    HW2  573   0.872   1.427   2.974
  189SOL     OW  574   0.658   1.796   0.952
  189SOL    HW1  575   0.630   1.887   0.924
  189SOL    HW2  576   0.757   1.786   0.940
  190SOL     OW  577   0.865   0.963   0.858
  190SOL    HW1  578   0.918   0.889   0.899
  190SOL    HW2  579   0.830   1.023   0.930
  191SOL     OW  580   1.102   1.024   0.094
  191SOL    HW1  581   1.058   1.055   0.009
  191SOL    HW2  582   1.167   0.951   0.072
  192SOL     OW  583   1.859   1.560   0.845
  192SOL    HW1  584   1.782   1.549   0.782
  192SOL    HW2  585   1.852   1.492   0.918
  193SOL     OW  586   0.223   1.305   1.854
  193SOL    HW1  587   0.170   1.225   1.825
  193SOL    HW2  588   0.213   1.318   1.953
  194SOL     OW  589   0.125   1.250   0.662
  194SOL    HW1  590   0.080   1.186   0.724
  194SOL    HW2  591   0.175   1.199   0.592
  195SOL     OW  592   0.678   1.400   1.627
  195SOL    HW1  593   0.596   1.349   1.654
  195SOL    HW2  594   0.673   1.493   1.664
  196SOL     OW  595   1.795   0.178   1.233
  196SOL    HW1  596   1.839   0.100   1.277
  196SOL    HW2  597   1.824   0.183   1.137
  197SOL     OW  598   0.458   0.431   0.541
  197SOL    HW1  599   0.457   0.365   0.466
  197SOL    HW2  600   0.400   0.397   0.615
  198SOL     OW  601   1.708   1.484   1.088
  198SOL    HW1  602   1.622   1.451   1.047
  198SOL    HW2  603   1.739   1.419   1.157
  199SOL     OW  604   0.329   0.550   1.288
  199SOL    HW1  605   0.386   0.495   1.349
  199SOL    HW2  606   0.351   0.526   1.193
  200SOL     OW  607   0.823   1.579   0.682
  200SOL    HW1  608   0.828   1.619   0.590
  200SOL    HW2  609   0.740   1.523   0.690
  201SOL     OW  610   1.428   0.218   1.125
  201SOL    HW1  611   1.457   0.140   1.181
  201SOL    HW2  612   1.375   0.281   1.182
  202SOL     OW  613   1.009   0.030   1.153
  202SOL    HW1  614   0.933   2.984   1.108
  202SOL    HW2  615   1.092   2.976   1.142
  203SOL     OW  616   0.765   1.328   0.312
  203SOL    HW1  617   0.729   1.236   0.325
  203SOL    HW2  618   0.857   1.334   0.351
  204SOL     OW  619   0.624   1.562   1.285
  204SOL    HW1  620   0.622   1.647   1.339
  204SOL    HW2  621   0.713   1.552   1.242
  205SOL     OW  622   1.352   0.055   0.171
  205SOL    HW1  623   1.415   2.990   0.126
  205SOL    HW2  624   1.259   0.020   0.165
  206SOL     OW  625   1.297   0.460   0.686
  206SOL    HW1  626   1.240   0.542   0.691
  206SOL    HW2  627   1.298   0.415   0.775
  207SOL     OW  628   1.605   0.233   0.887
  207SOL    HW1  629   1.520   0.221   0.939
  207SOL    HW2  630   1.595   0.311   0.826
  208SOL     OW  631   0.066   1.088   0.339
  208SOL    HW1  632   0.151   1.054   0.298
  208SOL    HW2  633   2.997   1.015   0.339
  209SOL     OW  634   0.878   1.651   0.347
  209SOL    HW1  635   0.808   1.625   0.281
  209SOL    HW2  636   0.846   1.730   0.400
  210SOL     OW  637   0.234   0.646   1.971
  210SOL    HW1  638   0.165   0.606   2.031
  210SOL    HW2  639   0.231   0.602   1.882
  211SOL     OW  640   0.233   0.250   2.849
  211SOL    HW1  641   0.255   0.242   2.947
  211SOL    HW2  642   0.135   0.238   2.837
  212SOL     OW  643   0.008   0.384   2.521
  212SOL    HW1  644   2.922   0.425   2.550
  212SOL    HW2  645   2.990   0.309   2.457
  213SOL     OW  646   1.554   1.510   2.566
  213SOL    HW1  647   1.507   1.493   2.653
  213SOL    HW2  648   1.485   1.520   2.494
  214SOL     OW  649   1.132   0.702   2.567
  214SOL    HW1  650   1.186   0.784   2.548
  214SOL    HW2  651   1.079   0.715   2.651
  215SOL     OW  652   1.760   0.607   2.093
  215SOL    HW1  653   1.744   0.599   1.994
  215SOL    HW2  654   1.728   0.525   2.139
  216SOL     OW  655   0.754   1.147   2.889
  216SOL    HW1  656   0.684   1.182   2.951
  216SOL    HW2  657   0.806   1.223   2.849
  217SOL     OW  658   0.685   1.010   2.515
  217SOL    HW1  659   0.754   0.992   2.585
  217SOL    HW2  660   0.608   1.060   2.556
  218SOL     OW  661   0.331   1.453   2.930
  218SOL    HW1  662   0.271   1.387   2.886
  218SOL    HW2  663   0.391   1.494   2.861
  219SOL     OW  664   1.615   0.456   2.592
  219SOL    HW1  665   1.533   0.480   2.540
  219SOL    HW2  666   1.630   0.523   2.665
  220SOL     OW  667   0.224   1.712   2.347
  220SOL    HW1  668   0.246   1.798   2.393
  220SOL    HW2  669   0.280   1.703   2.264
  221SOL     OW  670   0.245   1.446   2.390
  221SOL    HW1  671   0.216   1.542   2.389
  221SOL    HW2  672   0.182   1.393   2.447
  222SOL     OW  673   0.239   1.085   2.749
  222SOL    HW1  674   0.258   0.998   2.795
  222SOL    HW2  675   0.192   1.146   2.813
  223SOL     OW  676   0.592   0.979   1.993
  223SOL    HW1  677   0.630   1.037   1.920
  223SOL    HW2  678   0.636   1.002   2.080
  224SOL     OW  679   0.127   0.629   2.436
  224SOL    HW1  680   0.079   0.546   2.466
  224SOL    HW2  681   0.119   0.700   2.506
  225SOL     OW  682   1.842   1.763   2.201
  225SOL    HW1  683   1.897   1.730   2.278
  225SOL    HW2  684   1.869   1.857   2.179
  226SOL     OW  685   0.029   1.597   1.994
  226SOL    HW1  686   0.020   1.498   2.005
  226SOL    HW2  687   2.980   1.643   2.068
  227SOL     OW  688   1.690   0.921   2.496
  227SOL    HW1  689   1.780   0.879   2.485
  227SOL    HW2  690   1.668   0.974   2.414
  228SOL     OW  691   1.646   1.109   2.294
  228SOL    HW1  692   1.732   1.116   2.244
  228SOL    HW2  693   1.648   1.171   2.372
  229SOL     OW  694   0.607   1.378   2.593
  229SOL    HW1  695   0.560   1.291   2.604
  229SOL    HW2  696   0.593   1.412   2.500
  230SOL     OW  697   0.819   0.010   2.360
  230SOL    HW1  698   0.851   0.104   2.353
  230SOL    HW2  699   0.719   0.009   2.363
  231SOL     OW  700   1.534   0.992   2.057
  231SOL    HW1  701   1.460   0.929   2.079
  231SOL    HW2  702   1.573   1.028   2.142
  232SOL     OW  703   1.438   1.422   2.803
  232SOL    HW1  704   1.415   1.427   2.901
  232SOL    HW2  705   1.447   1.327   2.776
  233SOL     OW  706   1.661   1.727   2.439
  233SOL    HW1  707   1.634   1.703   2.346
  233SOL    HW2  708   1.635   1.653   2.501
  234SOL     OW  709   0.596   0.725   2.126
  234SOL    HW1  710   0.610   0.804   2.067
  234SOL    HW2  711   0.527   0.747   2.195
  235SOL     OW  712   1.293   0.332   2.804
  235SOL    HW1  713   1.194   0.319   2.799
  235SOL    HW2  714   1.328   0.296   2.890
  236SOL     OW  715   1.585   1.666   2.172
  236SOL    HW1  716   1.677   1.706   2.171
  236SOL    HW2  717   1.555   1.649   2.078
  237SOL     OW  718   1.046   0.699   2.291
  237SOL    HW1  719   1.065   0.694   2.389
  237SOL    HW2  720   0.962   0.649   2.270
  238SOL     OW  721   0.102   0.818   2.626
  238SOL    HW1  722   0.186   0.809   2.680
  238SOL    HW2  723   0.043   0.887   2.668
  239SOL     OW  724   0.873   0.353   2.053
  239SOL    HW1  725   0.934   0.412   2.000
  239SOL    HW2  726   0.891   0.257   2.029
  240SOL     OW  727   1.373   1.144   2.403
  240SOL    HW1  728   1.455   1.122   2.351
  240SOL    HW2  729   1.318   1.210   2.351
  241SOL     OW  730   0.544   0.194   2.812
  241SOL    HW1  731   0.517   0.255   2.886
  241SOL    HW2  732   0.560   0.248   2.729
  242SOL     OW  733   1.007   1.447   2.335
  242SOL    HW1  734   0.964   1.521   2.284
  242SOL    HW2  735   0.999   1.465   2.433
  243SOL     OW  736   0.354   1.800   2.712
  243SOL    HW1  737   0.402   1.714   2.728
  243SOL    HW2  738   0.415   1.876   2.730
  244SOL     OW  739   1.801   1.063   2.721
  244SOL    HW1  740   1.742   1.045   2.643
  244SOL    HW2  741   1.747   1.064   2.805
  245SOL     OW  742   0.317   0.949   2.104
  245SOL    HW1  743   0.405   0.979   2.067
  245SOL    HW2  744   0.294   0.860   2.064
  246SOL     OW  745   1.471   0.741   2.589
  246SOL    HW1  746   1.464   0.681   2.669
  246SOL    HW2  747   1.554   0.797   2.597
  247SOL     OW  748   1.120   1.774   2.093
  247SOL    HW1  749   1.046   1.732   2.145
  247SOL    HW2  750   1.142   1.717   2.014
  248SOL     OW  751   1.629   1.378   1.947
  248SOL    HW1  752   1.588   1.469   1.945
  248SOL    HW2  753   1.558   1.309   1.933
  249SOL     OW  754   0.468   1.740   2.182
  249SOL    HW1  755   0.503   1.797   2.256
  249SOL    HW2  756   0.543   1.713   2.122
  250SOL     OW  757   1.408   0.108   2.293
  250SOL    HW1  758   1.388   0.075   2.200
  250SOL    HW2  759   1.505   0.129   2.300
  251SOL     OW  760   0.263   1.798   0.098
  251SOL    HW1  761   0.306   1.728   0.155
  251SOL    HW2  762   0.210   1.754   0.026
  252SOL     OW  763   0.941   1.693   2.760
  252SOL    HW1  764   1.024   1.639   2.769
  252SOL    HW2  765   0.883   1.652   2.689
  253SOL     OW  766   0.389   0.692   2.339
  253SOL    HW1  767   0.427   0.600   2.350
  253SOL    HW2  768   0.292   0.691   2.365
  254SOL     OW  769   0.621   0.124   1.974
  254SOL    HW1  770   0.714   0.086   1.981
  254SOL    HW2  771   0.583   0.101   1.884
  255SOL     OW  772   0.805   1.403   2.784
  255SOL    HW1  773   0.897   1.393   2.745
  255SOL    HW2  774   0.738   1.392   2.711
  256SOL     OW  775   0.920   0.516   2.758
  256SOL    HW1  776   0.900   0.497   2.662
  256SOL    HW2  777   0.956   0.433   2.802
  257SOL     OW  778   0.540   0.057   2.363
  257SOL    HW1  779   0.450   0.043   2.404
  257SOL    HW2  780   0.537   0.135   2.300
  258SOL     OW  781   1.429   1.198   1.907
  258SOL    HW1  782   1.464   1.119   1.956
  258SOL    HW2  783   1.337   1.220   1.939
  259SOL     OW  784   0.294   0.033   2.046
  259SOL    HW1  785   0.343   0.115   2.016
  259SOL    HW2  786   0.359   2.969   2.087
  260SOL     OW  787   0.939   0.250   2.330
  260SOL    HW1  788   0.900   0.295   2.250
  260SOL    HW2  789   1.039   0.259   2.329
  261SOL     OW  790   1.221   1.581   2.667
  261SOL    HW1  791   1.244   1.642   2.591
  261SOL    HW2  792   1.303   1.564   2.721
  262SOL     OW  793   0.461   1.144   2.603
  262SOL    HW1  794   0.387   1.129   2.667
  262SOL    HW2  795   0.428   1.129   2.510
  263SOL     OW  796   1.272   1.796   2.463
  263SOL    HW1  797   1.318   1.858   2.400
  263SOL    HW2  798   1.205   1.847   2.518
  264SOL     OW  799   1.023   0.549   1.882
  264SOL    HW1  800   0.982   0.637   1.857
  264SOL    HW2  801   1.093   0.564   1.953
  265SOL     OW  802   0.875   0.466   2.498
  265SOL    HW1  803   0.822   0.522   2.435
  265SOL    HW2  804   0.887   0.374   2.459
  266SOL     OW  805   0.999   0.047   2.624
  266SOL    HW1  806   0.960   0.057   2.533
  266SOL    HW2  807   0.981   2.955   2.659
  267SOL     OW  808   1.439   1.161   2.715
  267SOL    HW1  809   1.363   1.096   2.715
  267SOL    HW2  810   1.464   1.184   2.621
  268SOL     OW  811   1.489   0.583   2.822
  268SOL    HW1  812   1.421   0.511   2.832
  268SOL    HW2  813   1.519   0.614   2.912
  269SOL     OW  814   1.849   0.820   2.242
  269SOL    HW1  815   1.906   0.766   2.304
  269SOL    HW2  816   1.815   0.761   2.169
  270SOL     OW  817   0.492   1.407   2.028
  270SOL    HW1  818   0.411   1.379   2.080
  270SOL    HW2  819   0.471   1.404   1.930
  271SOL     OW  820   1.668   1.268   2.513
  271SOL    HW1  821   1.767   1.271   2.523
  271SOL    HW2  822   1.629   1.358   2.534
  272SOL     OW  823   1.391   0.573   1.934
  272SOL    HW1  824   1.329   0.553   2.010
  272SOL    HW2  825   1.482   0.538   1.955
  273SOL     OW  826   0.529   0.266   2.184
  273SOL    HW1  827   0.563   0.204   2.113
  273SOL    HW2  828   0.513   0.356   2.144
  274SOL     OW  829   1.648   1.102   2.934
  274SOL    HW1  830   1.655   1.174   0.003
  274SOL    HW2  831   1.559   1.108   2.888
  275SOL     OW  832   0.708   1.055   2.235
  275SOL    HW1  833   0.693   1.047   2.333
  275SOL    HW2  834   0.789   1.003   2.209
  276SOL     OW  835   0.358   1.106   2.355
  276SOL    HW1  836   0.358   1.186   2.296
  276SOL    HW2  837   0.361   1.023   2.299
  277SOL     OW  838   0.552   0.547   2.730
  277SOL    HW1  839   0.572   0.597   2.646
  277SOL    HW2  840   0.619   0.571   2.800
  278SOL     OW  841   1.248   1.350   2.253
  278SOL    HW1  842   1.307   1.424   2.284
  278SOL    HW2  843   1.154   1.366   2.285
  279SOL     OW  844   1.584   0.629   2.337
  279SOL    HW1  845   1.539   0.688   2.404
  279SOL    HW2  846   1.630   0.686   2.269
  280SOL     OW  847   0.577   0.869   2.880
  280SOL    HW1  848   0.622   0.955   2.856
  280SOL    HW2  849   0.539   0.877   2.973
  281SOL     OW  850   1.210   0.533   2.136
  281SOL    HW1  851   1.217   0.447   2.186
  281SOL    HW2  852   1.164   0.601   2.193
  282SOL     OW  853   0.731   0.640   2.916
  282SOL    HW1  854   0.799   0.610   2.850
  282SOL    HW2  855   0.696   0.730   2.889
  283SOL     OW  856   0.310   0.066   2.504
  283SOL    HW1  857   0.304   0.159   2.537
  283SOL    HW2  858   0.284   0.002   2.577
  284SOL     OW  859   1.610   0.373   2.233
  284SOL    HW1  860   1.647   0.305   2.295
  284SOL    HW2  861   1.586   0.455   2.284
  285SOL     OW  862   1.020   0.761   2.820
  285SOL    HW1  863   1.027   0.776   2.919
  285SOL    HW2  864   0.993   0.666   2.802
  286SOL     OW  865   1.532   0.274   1.994
  286SOL    HW1  866   1.467   0.203   2.018
  286SOL    HW2  867   1.568   0.316   2.077
  287SOL     OW  868   1.299   0.830   1.898
  287SOL    HW1  869   1.338   0.738   1.905
  287SOL    HW2  870   1.324   0.870   1.810
  288SOL     OW  871   1.055   1.345   2.699
  288SOL    HW1  872   1.065   1.258   2.650
  288SOL    HW2  873   1.133   1.405   2.676
  289SOL     OW  874   0.313   0.811   2.812
  289SOL    HW1  875   0.410   0.835   2.807
  289SOL    HW2  876   0.304   0.719   2.850
  290SOL     OW  877   0.325   0.516   2.871
  290SOL    HW1  878   0.288   0.426   2.849
  290SOL    HW2  879   0.407   0.532   2.816
  291SOL     OW  880   2.997   1.319   2.044
  291SOL    HW1  881   2.901   1.331   2.021
  291SOL    HW2  882   0.008   1.233   2.094
  292SOL     OW  883   0.096   1.812   2.807
  292SOL    HW1  884   0.052   1.732   2.766
  292SOL    HW2  885   0.190   1.819   2.774
  293SOL     OW  886   0.505   1.575   2.762
  293SOL    HW1  887   0.575   1.641   2.787
  293SOL    HW2  888   0.547   1.500   2.710
  294SOL     OW  889   0.984   0.761   0.087
  294SOL    HW1  890   1.036   0.754   0.172
  294SOL    HW2  891   0.886   0.770   0.109
  295SOL     OW  892   0.814   0.571   2.211
  295SOL    HW1  893   0.822   0.490   2.152
  295SOL    HW2  894   0.735   0.625   2.183
  296SOL     OW  895   0.700   0.448   0.098
  296SOL    HW1  896   0.609   0.407   0.092
  296SOL    HW2  897   0.706   0.525   0.035
  297SOL     OW  898   0.468   0.497   2.052
  297SOL    HW1  899   0.532   0.572   2.068
  297SOL    HW2  900   0.375   0.533   2.046
  298SOL     OW  901   1.305   0.855   2.169
  298SOL    HW1  902   1.224   0.827   2.221
  298SOL    HW2  903   1.288   0.842   2.071
  299SOL     OW  904   1.733   1.762   2.971
  299SOL    HW1  905   1.816   1.793   2.925
  299SOL    HW2  906   1.752   1.678   0.022
  300SOL     OW  907   0.075   1.249   2.899
  300SOL    HW1  908   0.051   1.272   2.993
  300SOL    HW2  909   2.999   1.269   2.839
  301SOL     OW  910   1.720   0.140   2.368
  301SOL    HW1  911   1.789   0.132   2.296
  301SOL    HW2  912   1.721   0.058   2.424
  302SOL     OW  913   1.391   1.570   2.343
  302SOL    HW1  914   1.457   1.596   2.273
  302SOL    HW2  915   1.341   1.650   2.374
  303SOL     OW  916   1.279   0.924   2.529
  303SOL    HW1  917   1.352   0.857   2.540
  303SOL    HW2  918   1.313   1.003   2.477
  304SOL     OW  919   0.673   1.612   2.016
  304SOL    HW1  920   0.682   1.627   1.918
  304SOL    HW2  921   0.618   1.530   2.032
  305SOL     OW  922   1.850   0.163   2.816
  305SOL    HW1  923   1.856   0.072   2.774
  305SOL    HW2  924   1.760   0.202   2.797
  306SOL     OW  925   0.272   0.338   2.603
  306SOL    HW1  926   0.179   0.372   2.583
  306SOL    HW2  927   0.275   0.301   2.695
  307SOL     OW  928   1.204   1.607   1.891
  307SOL    HW1  929   1.199   1.514   1.928
  307SOL    HW2  930   1.135   1.618   1.820
  308SOL     OW  931   0.917   0.910   2.149
  308SOL    HW1  932   0.981   0.945   2.080
  308SOL    HW2  933   0.960   0.834   2.198
  309SOL     OW  934   1.496   1.626   1.912
  309SOL    HW1  935   1.396   1.626   1.908
  309SOL    HW2  936   1.533   1.637   1.820
  310SOL     OW  937   1.047   1.101   2.570
  310SOL    HW1  938   0.972   1.051   2.611
  310SOL    HW2  939   1.111   1.037   2.526
  311SOL     OW  940   1.011   0.242   2.814
  311SOL    HW1  941   1.007   0.182   2.734
  311SOL    HW2  942   1.044   0.190   2.893
  312SOL     OW  943   0.600   1.489   2.345
  312SOL    HW1  944   0.641   1.433   2.273
  312SOL    HW2  945   0.534   1.552   2.305
  313SOL     OW  946   0.252   1.349   2.146
  313SOL    HW1  947   0.155   1.343   2.123
  313SOL    HW2  948   0.263   1.389   2.237
  314SOL     OW  949   0.093   0.330   1.913
  314SOL    HW1  950   0.005   0.296   1.880
  314SOL    HW2  951   0.116   0.416   1.866
  315SOL     OW  952   0.031   0.213   2.151
  315SOL    HW1  953   0.063   0.267   2.073
  315SOL    HW2  954   0.097   0.140   2.170
  316SOL     OW  955   1.183   1.345   1.982
  316SOL    HW1  956   1.088   1.315   1.976
  316SOL    HW2  957   1.213   1.342   2.077
  317SOL     OW  958   1.503   1.781   2.829
  317SOL    HW1  959   1.519   1.832   2.744
  317SOL    HW2  960   1.585   1.785   2.886
  318SOL     OW  961   1.718   0.854   0.068
  318SOL    HW1  962   1.639   0.800   0.098
  318SOL    HW2  963   1.689   0.947   0.048
  319SOL     OW  964   1.226   0.316   2.316
  319SOL    HW1  965   1.291   0.240   2.312
  319SOL    HW2  966   1.245   0.372   2.397
  320SOL     OW  967   0.592   0.743   2.524
  320SOL    HW1  968   0.637   0.831   2.510
  320SOL    HW2  969   0.514   0.735   2.461
  321SOL     OW  970   0.865   1.369   1.891
  321SOL    HW1  971   0.817   1.391   1.977
  321SOL    HW2  972   0.886   1.454   1.843
  322SOL     OW  973   0.661   1.797   2.821
  322SOL    HW1  974   0.632   1.886   2.787
  322SOL    HW2  975   0.759   1.786   2.805
  323SOL     OW  976   0.862   0.963   2.718
  323SOL    HW1  977   0.916   0.889   2.758
  323SOL    HW2  978   0.830   1.024   2.791
  324SOL     OW  979   1.081   0.988   1.949
  324SOL    HW1  980   1.053   1.040   1.868
  324SOL    HW2  981   1.160   0.932   1.927
  325SOL     OW  982   1.854   1.561   2.714
  325SOL    HW1  983   1.781   1.547   2.647
  325SOL    HW2  984   1.864   1.479   2.770
  326SOL     OW  985   0.123   1.249   2.521
  326SOL    HW1  986   0.086   1.186   2.589
  326SOL    HW2  987   0.181   1.198   2.457
  327SOL     OW  988   1.811   0.192   0.081
  327SOL    HW1  989   1.834   0.108   0.131
  327SOL    HW2  990   1.829   0.177   2.984
  328SOL     OW  991   0.460   0.431   2.400
  328SOL    HW1  992   0.458   0.365   2.325
  328SOL    HW2  993   0.402   0.398   2.475
  329SOL     OW  994   0.818   1.586   2.542
  329SOL    HW1  995   0.828   1.618   2.448
  329SOL    HW2  996   0.739   1.525   2.549
  330SOL     OW  997   0.771   1.331   2.171
  330SOL    HW1  998   0.732   1.239   2.176
  330SOL    HW2  999   0.859   1.333   2.218
  331SOL     OW 1000   1.349   0.047   2.031
  331SOL    HW1 1001   1.411   2.990   1.977
  331SOL    HW2 1002   1.261   0.001   2.040
  332SOL     OW 1003   1.298   0.458   2.550
  332SOL    HW1 1004   1.240   0.540   2.555
  332SOL    HW2 1005   1.299   0.413   2.639
  333SOL     OW 1006   1.601   0.237   2.751
  333SOL    HW1 1007   1.509   0.218   2.784
  333SOL    HW2 1008   1.599   0.313   2.686
  334SOL     OW 1009   0.061   1.083   2.168
  334SOL    HW1 1010   0.155   1.048   2.161
  334SOL    HW2 1011   0.000   1.010   2.198
  335SOL     OW 1012   0.877   1.649   2.209
  335SOL    HW1 1013   0.806   1.626   2.142
  335SOL    HW2 1014   0.848   1.730   2.260
  336SOL     OW 1015   0.230   2.512   0.098
  336SOL    HW1 1016   0.164   2.467   0.157
  336SOL    HW2 1017   0.250   2.455   0.019
  337SOL     OW 1018   0.213   2.137   0.991
  337SOL    HW1 1019   0.251   2.110   1.079
  337SOL    HW2 1020   0.124   2.095   0.978
  338SOL     OW 1021   0.017   2.248   0.642
  338SOL    HW1 1022   2.930   2.284   0.676
  338SOL    HW2 1023   0.001   2.160   0.597
  339SOL     OW 1024   1.134   2.568   0.705
  339SOL    HW1 1025   1.185   2.653   0.690
  339SOL    HW2 1026   1.077   2.577   0.787
  340SOL     OW 1027   1.757   2.460   0.228
  340SOL    HW1 1028   1.749   2.442   0.130
  340SOL    HW2 1029   1.725   2.381   0.280
  341SOL     OW 1030   0.761   0.008   1.029
  341SOL    HW1 1031   0.674   0.033   1.072
  341SOL    HW2 1032   0.791   0.083   0.970
  342SOL     OW 1033   0.861   2.646   1.819
  342SOL    HW1 1034   0.844   2.711   1.892
  342SOL    HW2 1035   0.886   2.695   1.736
  343SOL     OW 1036   0.658   2.848   0.702
  343SOL    HW1 1037   0.754   2.854   0.729
  343SOL    HW2 1038   0.624   2.939   0.676
  344SOL     OW 1039   0.468   2.268   1.490
  344SOL    HW1 1040   0.543   2.202   1.493
  344SOL    HW2 1041   0.381   2.220   1.506
  345SOL     OW 1042   1.614   2.312   0.739
  345SOL    HW1 1043   1.533   2.339   0.686
  345SOL    HW2 1044   1.643   2.388   0.797
  346SOL     OW 1045   0.214   0.308   0.470
  346SOL    HW1 1046   0.225   0.393   0.523
  346SOL    HW2 1047   0.188   0.234   0.532
  347SOL     OW 1048   0.237   2.945   0.879
  347SOL    HW1 1049   0.258   2.859   0.926
  347SOL    HW2 1050   0.196   0.010   0.944
  348SOL     OW 1051   0.616   2.830   0.146
  348SOL    HW1 1052   0.599   2.923   0.112
  348SOL    HW2 1053   0.670   2.835   0.230
  349SOL     OW 1054   1.571   1.992   1.472
  349SOL    HW1 1055   1.585   2.068   1.409
  349SOL    HW2 1056   1.583   2.024   1.566
  350SOL     OW 1057   0.120   2.499   0.568
  350SOL    HW1 1058   0.090   2.408   0.597
  350SOL    HW2 1059   0.114   2.562   0.645
  351SOL     OW 1060   1.698   2.806   0.624
  351SOL    HW1 1061   1.779   2.747   0.632
  351SOL    HW2 1062   1.682   2.828   0.528
  352SOL     OW 1063   0.123   2.608   1.590
  352SOL    HW1 1064   0.221   2.610   1.607
  352SOL    HW2 1065   0.085   2.700   1.599
  353SOL     OW 1066   0.654   0.237   0.684
  353SOL    HW1 1067   0.591   0.172   0.726
  353SOL    HW2 1068   0.605   0.297   0.622
  354SOL     OW 1069   1.300   0.052   1.436
  354SOL    HW1 1070   1.335   2.995   1.361
  354SOL    HW2 1071   1.377   0.103   1.477
  355SOL     OW 1072   0.811   1.863   0.503
  355SOL    HW1 1073   0.855   1.951   0.490
  355SOL    HW2 1074   0.712   1.877   0.514
  356SOL     OW 1075   0.193   2.835   1.257
  356SOL    HW1 1076   0.280   2.788   1.250
  356SOL    HW2 1077   0.119   2.773   1.233
  357SOL     OW 1078   1.525   2.845   0.203
  357SOL    HW1 1079   1.450   2.792   0.244
  357SOL    HW2 1080   1.590   2.870   0.274
  358SOL     OW 1081   0.331   2.112   1.805
  358SOL    HW1 1082   0.388   2.193   1.819
  358SOL    HW2 1083   0.241   2.128   1.846
  359SOL     OW 1084   0.594   2.584   0.269
  359SOL    HW1 1085   0.605   2.665   0.210
  359SOL    HW2 1086   0.524   2.603   0.338
  360SOL     OW 1087   1.281   2.206   0.933
  360SOL    HW1 1088   1.186   2.172   0.936
  360SOL    HW2 1089   1.336   2.155   0.999
  361SOL     OW 1090   0.795   2.475   1.456
  361SOL    HW1 1091   0.766   2.457   1.550
  361SOL    HW2 1092   0.749   2.410   1.394
  362SOL     OW 1093   1.394   2.333   1.678
  362SOL    HW1 1094   1.388   2.381   1.765
  362SOL    HW2 1095   1.463   2.262   1.683
  363SOL     OW 1096   0.961   2.755   1.585
  363SOL    HW1 1097   1.017   2.680   1.551
  363SOL    HW2 1098   0.907   2.793   1.510
  364SOL     OW 1099   0.993   2.274   1.237
  364SOL    HW1 1100   0.912   2.302   1.289
  364SOL    HW2 1101   0.965   2.220   1.157
  365SOL     OW 1102   1.047   2.565   0.424
  365SOL    HW1 1103   1.065   2.561   0.522
  365SOL    HW2 1104   0.963   2.514   0.403
  366SOL     OW 1105   0.101   2.673   0.768
  366SOL    HW1 1106   0.184   2.671   0.824
  366SOL    HW2 1107   0.044   2.749   0.798
  367SOL     OW 1108   0.924   2.196   0.219
  367SOL    HW1 1109   0.931   2.264   0.146
  367SOL    HW2 1110   0.893   2.109   0.182
  368SOL     OW 1111   1.711   2.441   1.827
  368SOL    HW1 1112   1.677   2.524   1.784
  368SOL    HW2 1113   1.733   2.374   1.756
  369SOL     OW 1114   0.545   2.048   0.893
  369SOL    HW1 1115   0.550   2.070   0.991
  369SOL    HW2 1116   0.551   2.132   0.840
  370SOL     OW 1117   1.796   2.910   0.868
  370SOL    HW1 1118   1.739   2.894   0.787
  370SOL    HW2 1119   1.738   2.922   0.948
  371SOL     OW 1120   1.477   2.598   0.726
  371SOL    HW1 1121   1.456   2.543   0.807
  371SOL    HW2 1122   1.553   2.660   0.747
  372SOL     OW 1123   0.229   2.169   1.512
  372SOL    HW1 1124   0.146   2.213   1.478
  372SOL    HW2 1125   0.205   2.087   1.564
  373SOL     OW 1126   1.402   1.967   0.427
  373SOL    HW1 1127   1.387   1.944   0.331
  373SOL    HW2 1128   1.500   1.981   0.443
  374SOL     OW 1129   0.386   2.554   0.476
  374SOL    HW1 1130   0.418   2.460   0.482
  374SOL    HW2 1131   0.289   2.558   0.502
  375SOL     OW 1132   1.542   2.089   1.730
  375SOL    HW1 1133   1.546   2.112   1.827
  375SOL    HW2 1134   1.470   2.021   1.715
  376SOL     OW 1135   0.626   1.986   0.116
  376SOL    HW1 1136   0.722   1.960   0.121
  376SOL    HW2 1137   0.584   1.941   0.037
  377SOL     OW 1138   0.771   2.135   1.752
  377SOL    HW1 1139   0.844   2.069   1.764
  377SOL    HW2 1140   0.711   2.134   1.832
  378SOL     OW 1141   1.343   2.451   1.434
  378SOL    HW1 1142   1.373   2.413   1.521
  378SOL    HW2 1143   1.379   2.544   1.425
  379SOL     OW 1144   0.926   2.371   0.901
  379SOL    HW1 1145   0.900   2.362   0.805
  379SOL    HW2 1146   0.963   2.284   0.934
  380SOL     OW 1147   0.545   1.924   0.507
  380SOL    HW1 1148   0.461   1.924   0.561
  380SOL    HW2 1149   0.547   2.004   0.447
  381SOL     OW 1150   0.940   2.102   0.472
  381SOL    HW1 1151   0.905   2.143   0.388
  381SOL    HW2 1152   1.040   2.112   0.476
  382SOL     OW 1153   1.079   2.543   1.458
  382SOL    HW1 1154   1.000   2.482   1.467
  382SOL    HW2 1155   1.163   2.488   1.452
  383SOL     OW 1156   1.046   2.368   0.025
  383SOL    HW1 1157   0.993   2.450   0.003
  383SOL    HW2 1158   1.109   2.387   0.100
  384SOL     OW 1159   0.086   2.419   1.396
  384SOL    HW1 1160   0.174   2.420   1.350
  384SOL    HW2 1161   0.083   2.491   1.465
  385SOL     OW 1162   0.562   2.086   1.163
  385SOL    HW1 1163   0.604   2.001   1.196
  385SOL    HW2 1164   0.466   2.089   1.191
  386SOL     OW 1165   0.871   2.321   0.639
  386SOL    HW1 1166   0.821   2.383   0.578
  386SOL    HW2 1167   0.891   2.236   0.590
  387SOL     OW 1168   1.015   1.911   0.753
  387SOL    HW1 1169   0.952   1.911   0.675
  387SOL    HW2 1170   0.994   1.834   0.813
  388SOL     OW 1171   1.429   2.999   0.871
  388SOL    HW1 1172   1.358   2.936   0.840
  388SOL    HW2 1173   1.450   0.064   0.799
  389SOL     OW 1174   1.469   2.461   0.986
  389SOL    HW1 1175   1.420   2.374   0.987
  389SOL    HW2 1176   1.536   2.462   1.061
  390SOL     OW 1177   1.836   2.670   0.389
  390SOL    HW1 1178   1.900   2.618   0.446
  390SOL    HW2 1179   1.815   2.618   0.306
  391SOL     OW 1180   1.408   2.442   0.101
  391SOL    HW1 1181   1.333   2.426   0.165
  391SOL    HW2 1182   1.469   2.363   0.102
  392SOL     OW 1183   0.526   2.125   0.326
  392SOL    HW1 1184   0.558   2.067   0.251
  392SOL    HW2 1185   0.506   2.216   0.290
  393SOL     OW 1186   1.783   0.078   1.597
  393SOL    HW1 1187   1.874   0.041   1.576
  393SOL    HW2 1188   1.792   0.172   1.631
  394SOL     OW 1189   1.629   2.958   1.079
  394SOL    HW1 1190   1.648   0.042   1.128
  394SOL    HW2 1191   1.550   2.971   1.019
  395SOL     OW 1192   0.919   1.960   1.400
  395SOL    HW1 1193   0.939   1.937   1.305
  395SOL    HW2 1194   0.999   2.005   1.441
  396SOL     OW 1195   0.415   2.677   1.254
  396SOL    HW1 1196   0.491   2.687   1.319
  396SOL    HW2 1197   0.375   2.586   1.263
  397SOL     OW 1198   1.268   2.243   1.270
  397SOL    HW1 1199   1.303   2.321   1.322
  397SOL    HW2 1200   1.175   2.263   1.239
  398SOL     OW 1201   0.558   2.404   0.863
  398SOL    HW1 1202   0.574   2.461   0.782
  398SOL    HW2 1203   0.620   2.432   0.936
  399SOL     OW 1204   1.580   2.491   0.473
  399SOL    HW1 1205   1.540   2.548   0.545
  399SOL    HW2 1206   1.637   2.547   0.414
  400SOL     OW 1207   0.411   2.603   1.601
  400SOL    HW1 1208   0.470   2.655   1.541
  400SOL    HW2 1209   0.454   2.515   1.623
  401SOL     OW 1210   1.594   2.639   1.676
  401SOL    HW1 1211   1.501   2.676   1.671
  401SOL    HW2 1212   1.651   2.683   1.607
  402SOL     OW 1213   0.998   1.976   1.758
  402SOL    HW1 1214   1.043   2.059   1.724
  402SOL    HW2 1215   1.050   1.896   1.728
  403SOL     OW 1216   0.498   1.908   1.743
  403SOL    HW1 1217   0.460   1.846   1.674
  403SOL    HW2 1218   0.433   1.982   1.761
  404SOL     OW 1219   0.589   2.728   1.039
  404SOL    HW1 1220   0.604   2.823   1.010
  404SOL    HW2 1221   0.519   2.725   1.110
  405SOL     OW 1222   1.352   2.715   1.035
  405SOL    HW1 1223   1.279   2.713   0.968
  405SOL    HW2 1224   1.399   2.627   1.038
  406SOL     OW 1225   1.206   2.394   0.275
  406SOL    HW1 1226   1.214   2.305   0.320
  406SOL    HW2 1227   1.160   2.458   0.336
  407SOL     OW 1228   0.301   2.066   1.241
  407SOL    HW1 1229   0.283   2.103   1.332
  407SOL    HW2 1230   0.284   1.968   1.240
  408SOL     OW 1231   0.055   0.169   1.274
  408SOL    HW1 1232   0.088   0.131   1.360
  408SOL    HW2 1233   0.022   0.262   1.289
  409SOL     OW 1234   0.731   2.495   1.063
  409SOL    HW1 1235   0.800   2.471   0.994
  409SOL    HW2 1236   0.694   2.585   1.041
  410SOL     OW 1237   1.733   2.818   1.845
  410SOL    HW1 1238   1.683   2.766   1.776
  410SOL    HW2 1239   1.676   2.828   1.927
  411SOL     OW 1240   0.301   1.930   0.624
  411SOL    HW1 1241   0.286   2.026   0.650
  411SOL    HW2 1242   0.309   1.875   0.707
  412SOL     OW 1243   1.618   2.234   0.371
  412SOL    HW1 1244   1.643   2.163   0.436
  412SOL    HW2 1245   1.586   2.315   0.420
  413SOL     OW 1246   1.023   2.619   0.968
  413SOL    HW1 1247   1.030   2.637   1.066
  413SOL    HW2 1248   0.996   2.524   0.953
  414SOL     OW 1249   0.354   2.784   1.797
  414SOL    HW1 1250   0.422   2.790   1.870
  414SOL    HW2 1251   0.379   2.711   1.733
  415SOL     OW 1252   1.511   2.158   0.127
  415SOL    HW1 1253   1.467   2.069   0.141
  415SOL    HW2 1254   1.565   2.181   0.209
  416SOL     OW 1255   1.297   2.687   0.038
  416SOL    HW1 1256   1.337   2.596   0.053
  416SOL    HW2 1257   1.324   2.721   2.948
  417SOL     OW 1258   0.315   2.677   0.953
  417SOL    HW1 1259   0.412   2.693   0.937
  417SOL    HW2 1260   0.302   2.584   0.988
  418SOL     OW 1261   0.338   2.376   1.012
  418SOL    HW1 1262   0.292   2.289   0.993
  418SOL    HW2 1263   0.416   2.387   0.950
  419SOL     OW 1264   1.136   2.241   1.681
  419SOL    HW1 1265   1.086   2.298   1.746
  419SOL    HW2 1266   1.230   2.274   1.672
  420SOL     OW 1267   1.159   2.069   1.472
  420SOL    HW1 1268   1.150   2.131   1.549
  420SOL    HW2 1269   1.197   2.118   1.393
  421SOL     OW 1270   0.987   2.669   1.235
  421SOL    HW1 1271   1.042   2.635   1.312
  421SOL    HW2 1272   0.900   2.620   1.232
  422SOL     OW 1273   0.051   2.435   1.113
  422SOL    HW1 1274   0.126   2.384   1.072
  422SOL    HW2 1275   0.034   2.401   1.206
  423SOL     OW 1276   0.199   2.380   1.721
  423SOL    HW1 1277   0.266   2.347   1.655
  423SOL    HW2 1278   0.151   2.459   1.683
  424SOL     OW 1279   1.375   2.807   1.660
  424SOL    HW1 1280   1.408   2.900   1.669
  424SOL    HW2 1281   1.373   2.781   1.563
  425SOL     OW 1282   0.819   2.437   0.346
  425SOL    HW1 1283   0.824   2.355   0.290
  425SOL    HW2 1284   0.735   2.487   0.325
  426SOL     OW 1285   1.646   2.465   1.192
  426SOL    HW1 1286   1.626   2.402   1.267
  426SOL    HW2 1287   1.735   2.444   1.154
  427SOL     OW 1288   0.692   2.318   1.263
  427SOL    HW1 1289   0.641   2.237   1.234
  427SOL    HW2 1290   0.696   2.384   1.187
  428SOL     OW 1291   0.438   2.360   0.210
  428SOL    HW1 1292   0.518   2.420   0.216
  428SOL    HW2 1293   0.357   2.414   0.191
  429SOL     OW 1294   0.162   0.004   1.469
  429SOL    HW1 1295   0.154   2.952   1.554
  429SOL    HW2 1296   0.175   2.941   1.392
  430SOL     OW 1297   1.353   2.908   1.220
  430SOL    HW1 1298   1.365   2.842   1.145
  430SOL    HW2 1299   1.270   2.962   1.204
  431SOL     OW 1300   1.300   2.721   0.310
  431SOL    HW1 1301   1.223   2.682   0.360
  431SOL    HW2 1302   1.290   2.700   0.213
  432SOL     OW 1303   0.898   1.939   0.129
  432SOL    HW1 1304   0.949   1.932   0.044
  432SOL    HW2 1305   0.950   1.897   0.203
  433SOL     OW 1306   1.715   2.000   0.511
  433SOL    HW1 1307   1.798   1.995   0.456
  433SOL    HW2 1308   1.699   1.912   0.556
  434SOL     OW 1309   1.291   2.792   0.680
  434SOL    HW1 1310   1.360   2.719   0.681
  434SOL    HW2 1311   1.307   2.852   0.602
  435SOL     OW 1312   1.840   2.034   0.966
  435SOL    HW1 1313   1.875   1.945   0.937
  435SOL    HW2 1314   1.748   2.048   0.928
  436SOL     OW 1315   0.268   2.181   0.722
  436SOL    HW1 1316   0.183   2.221   0.688
  436SOL    HW2 1317   0.262   2.167   0.821
  437SOL     OW 1318   0.812   2.862   1.371
  437SOL    HW1 1319   0.869   2.835   1.294
  437SOL    HW2 1320   0.835   2.956   1.398
  438SOL     OW 1321   0.906   2.788   0.291
  438SOL    HW1 1322   0.981   2.814   0.230
  438SOL    HW2 1323   0.939   2.723   0.359
  439SOL     OW 1324   1.019   2.101   0.966
  439SOL    HW1 1325   1.011   2.056   0.877
  439SOL    HW2 1326   1.014   2.032   1.039
  440SOL     OW 1327   1.720   2.253   1.380
  440SOL    HW1 1328   1.791   2.323   1.380
  440SOL    HW2 1329   1.748   2.177   1.321
  441SOL     OW 1330   0.115   2.867   1.702
  441SOL    HW1 1331   0.039   2.841   1.760
  441SOL    HW2 1332   0.201   2.850   1.749
  442SOL     OW 1333   0.675   2.060   1.497
  442SOL    HW1 1334   0.761   2.040   1.450
  442SOL    HW2 1335   0.694   2.082   1.593
  443SOL     OW 1336   0.058   2.183   0.050
  443SOL    HW1 1337   2.964   2.194   0.019
  443SOL    HW2 1338   0.115   2.255   0.010
  444SOL     OW 1339   1.434   2.718   1.403
  444SOL    HW1 1340   1.384   2.778   1.339
  444SOL    HW2 1341   1.531   2.719   1.380
  445SOL     OW 1342   0.066   2.055   0.322
  445SOL    HW1 1343   0.050   2.104   0.236
  445SOL    HW2 1344   0.137   1.986   0.308
  446SOL     OW 1345   1.145   0.217   0.099
  446SOL    HW1 1346   1.058   0.236   0.145
  446SOL    HW2 1347   1.220   0.224   0.164
  447SOL     OW 1348   0.615   2.693   1.433
  447SOL    HW1 1349   0.672   2.773   1.416
  447SOL    HW2 1350   0.672   2.612   1.443
  448SOL     OW 1351   0.718   2.427   1.708
  448SOL    HW1 1352   0.750   2.497   1.772
  448SOL    HW2 1353   0.760   2.339   1.730
  449SOL     OW 1354   1.677   2.744   1.254
  449SOL    HW1 1355   1.664   2.652   1.218
  449SOL    HW2 1356   1.660   2.811   1.182
  450SOL     OW 1357   1.223   2.180   0.459
  450SOL    HW1 1358   1.289   2.106   0.445
  450SOL    HW2 1359   1.250   2.233   0.539
  451SOL     OW 1360   0.592   2.591   0.658
  451SOL    HW1 1361   0.626   2.685   0.665
  451SOL    HW2 1362   0.514   2.588   0.596
  452SOL     OW 1363   1.764   2.222   1.647
  452SOL    HW1 1364   1.749   2.234   1.549
  452SOL    HW2 1365   1.692   2.163   1.684
  453SOL     OW 1366   1.736   2.796   1.514
  453SOL    HW1 1367   1.755   2.891   1.538
  453SOL    HW2 1368   1.727   2.788   1.415
  454SOL     OW 1369   0.884   2.829   0.863
  454SOL    HW1 1370   0.922   2.745   0.902
  454SOL    HW2 1371   0.826   2.874   0.931
  455SOL     OW 1372   1.111   2.890   0.082
  455SOL    HW1 1373   1.056   2.894   2.999
  455SOL    HW2 1374   1.172   2.811   0.078
  456SOL     OW 1375   1.809   2.049   1.236
  456SOL    HW1 1376   1.825   1.956   1.269
  456SOL    HW2 1377   1.823   2.052   1.137
  457SOL     OW 1378   0.431   2.292   0.526
  457SOL    HW1 1379   0.462   2.220   0.464
  457SOL    HW2 1380   0.382   2.250   0.603
  458SOL     OW 1381   0.331   2.413   1.287
  458SOL    HW1 1382   0.390   2.359   1.347
  458SOL    HW2 1383   0.348   2.388   1.192
  459SOL     OW 1384   1.431   2.084   1.118
  459SOL    HW1 1385   1.471   2.006   1.166
  459SOL    HW2 1386   1.376   2.138   1.183
  460SOL     OW 1387   1.006   1.886   1.148
  460SOL    HW1 1388   0.944   1.817   1.111
  460SOL    HW2 1389   1.099   1.850   1.149
  461SOL     OW 1390   1.352   1.913   0.164
  461SOL    HW1 1391   1.384   1.866   0.082
  461SOL    HW2 1392   1.262   1.876   0.190
  462SOL     OW 1393   1.298   2.323   0.687
  462SOL    HW1 1394   1.239   2.404   0.692
  462SOL    HW2 1395   1.298   2.276   0.775
  463SOL     OW 1396   1.588   2.073   0.878
  463SOL    HW1 1397   1.518   2.083   0.949
  463SOL    HW2 1398   1.590   2.154   0.821
  464SOL     OW 1399   0.006   2.893   0.285
  464SOL    HW1 1400   0.100   2.921   0.262
  464SOL    HW2 1401   0.006   2.845   0.373
  465SOL     OW 1402   0.225   2.507   1.967
  465SOL    HW1 1403   0.161   2.460   2.028
  465SOL    HW2 1404   0.227   2.460   1.879
  466SOL     OW 1405   0.235   2.125   2.840
  466SOL    HW1 1406   0.271   2.105   2.931
  466SOL    HW2 1407   0.142   2.088   2.832
  467SOL     OW 1408   0.016   2.248   2.503
  467SOL    HW1 1409   2.930   2.284   2.538
  467SOL    HW2 1410   0.001   2.158   2.462
  468SOL     OW 1411   1.134   2.568   2.567
  468SOL    HW1 1412   1.186   2.652   2.551
  468SOL    HW2 1413   1.079   2.578   2.649
  469SOL     OW 1414   1.758   2.468   2.091
  469SOL    HW1 1415   1.743   2.459   1.993
  469SOL    HW2 1416   1.728   2.385   2.138
  470SOL     OW 1417   0.781   0.012   2.881
  470SOL    HW1 1418   0.694   0.022   2.929
  470SOL    HW2 1419   0.799   0.093   2.825
  471SOL     OW 1420   0.658   2.846   2.559
  471SOL    HW1 1421   0.752   2.852   2.594
  471SOL    HW2 1422   0.624   2.939   2.541
  472SOL     OW 1423   1.617   2.312   2.594
  472SOL    HW1 1424   1.535   2.337   2.544
  472SOL    HW2 1425   1.635   2.381   2.664
  473SOL     OW 1426   0.214   0.307   2.333
  473SOL    HW1 1427   0.225   0.392   2.386
  473SOL    HW2 1428   0.189   0.233   2.395
  474SOL     OW 1429   0.235   2.946   2.744
  474SOL    HW1 1430   0.257   2.858   2.786
  474SOL    HW2 1431   0.202   0.010   2.813
  475SOL     OW 1432   0.611   2.824   1.989
  475SOL    HW1 1433   0.600   2.910   1.938
  475SOL    HW2 1434   0.662   2.842   2.073
  476SOL     OW 1435   0.119   2.497   2.429
  476SOL    HW1 1436   0.090   2.407   2.461
  476SOL    HW2 1437   0.117   2.562   2.505
  477SOL     OW 1438   1.698   2.806   2.485
  477SOL    HW1 1439   1.779   2.748   2.495
  477SOL    HW2 1440   1.682   2.826   2.389
  478SOL     OW 1441   0.642   0.244   2.561
  478SOL    HW1 1442   0.589   0.160   2.571
  478SOL    HW2 1443   0.605   0.297   2.484
  479SOL     OW 1444   0.810   1.862   2.364
  479SOL    HW1 1445   0.856   1.950   2.351
  479SOL    HW2 1446   0.712   1.878   2.378
  480SOL     OW 1447   0.208   2.808   0.098
  480SOL    HW1 1448   0.284   2.743   0.103
  480SOL    HW2 1449   0.122   2.757   0.095
  481SOL     OW 1450   1.542   2.838   2.047
  481SOL    HW1 1451   1.464   2.785   2.081
  481SOL    HW2 1452   1.591   2.879   2.123
  482SOL     OW 1453   0.596   2.583   2.127
  482SOL    HW1 1454   0.608   2.662   2.067
  482SOL    HW2 1455   0.527   2.605   2.196
  483SOL     OW 1456   1.294   2.195   2.804
  483SOL    HW1 1457   1.196   2.177   2.799
  483SOL    HW2 1458   1.330   2.161   2.891
  484SOL     OW 1459   1.049   2.561   2.290
  484SOL    HW1 1460   1.064   2.558   2.389
  484SOL    HW2 1461   0.963   2.514   2.268
  485SOL     OW 1462   0.104   2.674   2.628
  485SOL    HW1 1463   0.187   2.670   2.684
  485SOL    HW2 1464   0.044   2.746   2.662
  486SOL     OW 1465   0.881   2.208   2.056
  486SOL    HW1 1466   0.929   2.274   1.998
  486SOL    HW2 1467   0.898   2.115   2.024
  487SOL     OW 1468   0.551   2.049   2.763
  487SOL    HW1 1469   0.523   2.075   2.855
  487SOL    HW2 1470   0.557   2.131   2.706
  488SOL     OW 1471   1.797   2.912   2.729
  488SOL    HW1 1472   1.738   2.894   2.651
  488SOL    HW2 1473   1.742   2.919   2.812
  489SOL     OW 1474   1.476   2.600   2.587
  489SOL    HW1 1475   1.461   2.540   2.665
  489SOL    HW2 1476   1.555   2.659   2.604
  490SOL     OW 1477   1.401   1.968   2.290
  490SOL    HW1 1478   1.385   1.942   2.194
  490SOL    HW2 1479   1.500   1.981   2.305
  491SOL     OW 1480   0.392   2.552   2.340
  491SOL    HW1 1481   0.416   2.456   2.351
  491SOL    HW2 1482   0.295   2.565   2.358
  492SOL     OW 1483   0.624   1.987   1.970
  492SOL    HW1 1484   0.709   1.938   1.985
  492SOL    HW2 1485   0.580   1.952   1.887
  493SOL     OW 1486   0.921   2.378   2.757
  493SOL    HW1 1487   0.899   2.358   2.662
  493SOL    HW2 1488   0.961   2.297   2.801
  494SOL     OW 1489   0.545   1.925   2.369
  494SOL    HW1 1490   0.462   1.924   2.423
  494SOL    HW2 1491   0.546   2.006   2.310
  495SOL     OW 1492   0.294   1.904   2.041
  495SOL    HW1 1493   0.349   1.981   2.009
  495SOL    HW2 1494   0.353   1.837   2.085
  496SOL     OW 1495   0.937   2.102   2.329
  496SOL    HW1 1496   0.898   2.149   2.250
  496SOL    HW2 1497   1.037   2.114   2.328
  497SOL     OW 1498   1.028   2.409   1.879
  497SOL    HW1 1499   0.981   2.494   1.855
  497SOL    HW2 1500   1.093   2.427   1.953
  498SOL     OW 1501   0.870   2.319   2.500
  498SOL    HW1 1502   0.822   2.383   2.439
  498SOL    HW2 1503   0.890   2.235   2.450
  499SOL     OW 1504   1.012   1.910   2.615
  499SOL    HW1 1505   0.953   1.909   2.535
  499SOL    HW2 1506   0.992   1.830   2.672
  500SOL     OW 1507   1.425   0.004   2.735
  500SOL    HW1 1508   1.354   2.941   2.704
  500SOL    HW2 1509   1.452   0.063   2.660
  501SOL     OW 1510   1.488   2.446   2.821
  501SOL    HW1 1511   1.420   2.374   2.834
  501SOL    HW2 1512   1.520   2.477   2.911
  502SOL     OW 1513   1.840   2.671   2.251
  502SOL    HW1 1514   1.902   2.618   2.310
  502SOL    HW2 1515   1.815   2.615   2.172
  503SOL     OW 1516   1.391   2.435   1.935
  503SOL    HW1 1517   1.331   2.414   2.012
  503SOL    HW2 1518   1.483   2.404   1.954
  504SOL     OW 1519   0.529   2.125   2.183
  504SOL    HW1 1520   0.564   2.067   2.110
  504SOL    HW2 1521   0.513   2.217   2.148
  505SOL     OW 1522   1.628   2.966   2.937
  505SOL    HW1 1523   1.640   0.044   2.998
  505SOL    HW2 1524   1.550   2.981   2.878
  506SOL     OW 1525   0.557   2.401   2.726
  506SOL    HW1 1526   0.572   2.459   2.646
  506SOL    HW2 1527   0.617   2.431   2.800
  507SOL     OW 1528   1.579   2.490   2.333
  507SOL    HW1 1529   1.540   2.547   2.405
  507SOL    HW2 1530   1.636   2.546   2.273
  508SOL     OW 1531   0.575   2.726   2.881
  508SOL    HW1 1532   0.621   2.810   2.854
  508SOL    HW2 1533   0.544   2.734   2.976
  509SOL     OW 1534   1.208   2.391   2.135
  509SOL    HW1 1535   1.218   2.307   2.188
  509SOL    HW2 1536   1.162   2.460   2.191
  510SOL     OW 1537   0.323   2.062   0.084
  510SOL    HW1 1538   0.306   2.112   0.169
  510SOL    HW2 1539   0.296   1.966   0.096
  511SOL     OW 1540   0.732   2.502   2.916
  511SOL    HW1 1541   0.798   2.473   2.848
  511SOL    HW2 1542   0.693   2.590   2.890
  512SOL     OW 1543   0.302   1.931   2.486
  512SOL    HW1 1544   0.285   2.026   2.511
  512SOL    HW2 1545   0.307   1.875   2.568
  513SOL     OW 1546   1.613   2.234   2.233
  513SOL    HW1 1547   1.642   2.164   2.299
  513SOL    HW2 1548   1.587   2.317   2.281
  514SOL     OW 1549   1.021   2.621   2.823
  514SOL    HW1 1550   1.029   2.633   2.922
  514SOL    HW2 1551   0.993   2.527   2.803
  515SOL     OW 1552   1.532   2.135   1.992
  515SOL    HW1 1553   1.465   2.065   2.016
  515SOL    HW2 1554   1.567   2.177   2.075
  516SOL     OW 1555   1.297   2.689   1.897
  516SOL    HW1 1556   1.337   2.598   1.906
  516SOL    HW2 1557   1.324   2.729   1.809
  517SOL     OW 1558   0.313   2.674   2.810
  517SOL    HW1 1559   0.411   2.695   2.806
  517SOL    HW2 1560   0.301   2.582   2.848
  518SOL     OW 1561   0.325   2.382   2.866
  518SOL    HW1 1562   0.289   2.289   2.853
  518SOL    HW2 1563   0.408   2.393   2.812
  519SOL     OW 1564   0.988   2.625   0.088
  519SOL    HW1 1565   1.036   2.611   0.175
  519SOL    HW2 1566   0.889   2.632   0.105
  520SOL     OW 1567   0.816   2.431   2.210
  520SOL    HW1 1568   0.820   2.350   2.151
  520SOL    HW2 1569   0.737   2.487   2.186
  521SOL     OW 1570   0.700   2.314   0.105
  521SOL    HW1 1571   0.621   2.255   0.090
  521SOL    HW2 1572   0.701   2.386   0.035
  522SOL     OW 1573   0.467   2.359   2.050
  522SOL    HW1 1574   0.532   2.432   2.070
  522SOL    HW2 1575   0.374   2.396   2.049
  523SOL     OW 1576   1.301   2.723   2.169
  523SOL    HW1 1577   1.223   2.686   2.220
  523SOL    HW2 1578   1.289   2.704   2.072
  524SOL     OW 1579   1.717   2.000   2.373
  524SOL    HW1 1580   1.796   1.992   2.312
  524SOL    HW2 1581   1.701   1.912   2.418
  525SOL     OW 1582   1.292   2.794   2.542
  525SOL    HW1 1583   1.359   2.720   2.544
  525SOL    HW2 1584   1.307   2.851   2.461
  526SOL     OW 1585   1.840   2.038   2.821
  526SOL    HW1 1586   1.875   1.948   2.797
  526SOL    HW2 1587   1.746   2.048   2.788
  527SOL     OW 1588   0.269   2.182   2.579
  527SOL    HW1 1589   0.183   2.223   2.550
  527SOL    HW2 1590   0.267   2.166   2.677
  528SOL     OW 1591   0.908   2.758   2.121
  528SOL    HW1 1592   0.983   2.809   2.079
  528SOL    HW2 1593   0.944   2.704   2.197
  529SOL     OW 1594   1.030   2.103   2.811
  529SOL    HW1 1595   1.016   2.051   2.727
  529SOL    HW2 1596   1.013   2.045   2.890
  530SOL     OW 1597   0.091   2.188   1.916
  530SOL    HW1 1598   0.004   2.154   1.881
  530SOL    HW2 1599   0.113   2.276   1.872
  531SOL     OW 1600   0.069   2.054   2.180
  531SOL    HW1 1601   0.064   2.110   2.098
  531SOL    HW2 1602   0.141   1.985   2.168
  532SOL     OW 1603   1.143   0.247   1.994
  532SOL    HW1 1604   1.091   0.166   1.966
  532SOL    HW2 1605   1.214   0.221   2.058
  533SOL     OW 1606   1.725   2.711   0.057
  533SOL    HW1 1607   1.651   2.657   0.097
  533SOL    HW2 1608   1.696   2.806   0.048
  534SOL     OW 1609   1.222   2.181   2.319
  534SOL    HW1 1610   1.288   2.106   2.306
  534SOL    HW2 1611   1.247   2.234   2.400
  535SOL     OW 1612   0.593   2.590   2.521
  535SOL    HW1 1613   0.627   2.684   2.527
  535SOL    HW2 1614   0.516   2.587   2.458
  536SOL     OW 1615   0.879   2.825   2.721
  536SOL    HW1 1616   0.923   2.745   2.761
  536SOL    HW2 1617   0.839   2.882   2.793
  537SOL     OW 1618   1.099   2.868   1.952
  537SOL    HW1 1619   1.056   2.902   1.869
  537SOL    HW2 1620   1.161   2.793   1.930
  538SOL     OW 1621   1.828   2.055   0.091
  538SOL    HW1 1622   1.803   1.962   0.117
  538SOL    HW2 1623   1.830   2.063   2.992
  539SOL     OW 1624   0.428   2.290   2.382
  539SOL    HW1 1625   0.461   2.216   2.324
  539SOL    HW2 1626   0.382   2.252   2.462
  540SOL     OW 1627   1.350   1.915   2.027
  540SOL    HW1 1628   1.382   1.863   1.947
  540SOL    HW2 1629   1.260   1.880   2.055
  541SOL     OW 1630   1.296   2.320   2.550
  541SOL    HW1 1631   1.240   2.403   2.556
  541SOL    HW2 1632   1.300   2.276   2.639
  542SOL     OW 1633   1.587   2.078   2.740
  542SOL    HW1 1634   1.502   2.086   2.791
  542SOL    HW2 1635   1.597   2.156   2.678
  543SOL     OW 1636   0.023   2.929   2.153
  543SOL    HW1 1637   0.123   2.924   2.148
  543SOL    HW2 1638   2.991   2.867   2.225
  544SOL     OW 1639   2.091   0.634   0.118
  544SOL    HW1 1640   1.995   0.627   0.144
  544SOL    HW2 1641   2.104   0.595   0.027
  545SOL     OW 1642   2.079   0.281   1.003
  545SOL    HW1 1643   2.115   0.251   1.092
  545SOL    HW2 1644   1.988   0.241   0.989
  546SOL     OW 1645   1.865   0.380   0.644
  546SOL    HW1 1646   1.781   0.410   0.688
  546SOL    HW2 1647   1.845   0.303   0.583
  547SOL     OW 1648   2.427   1.278   1.171
  547SOL    HW1 1649   2.336   1.278   1.129
  547SOL    HW2 1650   2.446   1.369   1.209
  548SOL     OW 1651   2.620   1.146   1.030
  548SOL    HW1 1652   2.548   1.176   1.094
  548SOL    HW2 1653   2.661   1.226   0.988
  549SOL     OW 1654   2.717   0.784   1.817
  549SOL    HW1 1655   2.711   0.854   1.888
  549SOL    HW2 1656   2.741   0.828   1.730
  550SOL     OW 1657   2.547   1.010   0.655
  550SOL    HW1 1658   2.613   0.990   0.726
  550SOL    HW2 1659   2.470   1.061   0.693
  551SOL     OW 1660   2.565   1.156   1.809
  551SOL    HW1 1661   2.619   1.237   1.832
  551SOL    HW2 1662   2.476   1.184   1.772
  552SOL     OW 1663   2.192   1.432   1.067
  552SOL    HW1 1664   2.116   1.394   1.014
  552SOL    HW2 1665   2.250   1.485   1.006
  553SOL     OW 1666   2.309   0.399   1.492
  553SOL    HW1 1667   2.389   0.339   1.495
  553SOL    HW2 1668   2.226   0.344   1.504
  554SOL     OW 1669   2.085   1.714   0.476
  554SOL    HW1 1670   2.107   1.792   0.533
  554SOL    HW2 1671   2.155   1.702   0.406
  555SOL     OW 1672   2.981   1.345   1.690
  555SOL    HW1 1673   0.039   1.351   1.771
  555SOL    HW2 1674   2.934   1.256   1.688
  556SOL     OW 1675   2.087   1.441   0.535
  556SOL    HW1 1676   2.075   1.540   0.542
  556SOL    HW2 1677   2.024   1.396   0.598
  557SOL     OW 1678   2.114   1.090   0.892
  557SOL    HW1 1679   2.115   0.999   0.933
  557SOL    HW2 1680   2.054   1.150   0.946
  558SOL     OW 1681   2.478   1.790   1.435
  558SOL    HW1 1682   2.390   1.770   1.478
  558SOL    HW2 1683   2.504   1.885   1.456
  559SOL     OW 1684   2.459   0.975   0.145
  559SOL    HW1 1685   2.473   1.050   0.080
  559SOL    HW2 1686   2.498   0.998   0.233
  560SOL     OW 1687   1.979   0.645   0.564
  560SOL    HW1 1688   1.933   0.558   0.583
  560SOL    HW2 1689   1.972   0.705   0.644
  561SOL     OW 1690   1.877   1.587   0.122
  561SOL    HW1 1691   1.888   1.492   0.150
  561SOL    HW2 1692   1.878   1.646   0.204
  562SOL     OW 1693   1.981   0.741   1.588
  562SOL    HW1 1694   2.078   0.753   1.610
  562SOL    HW2 1695   1.935   0.830   1.588
  563SOL     OW 1696   2.471   1.379   0.734
  563SOL    HW1 1697   2.425   1.292   0.745
  563SOL    HW2 1698   2.457   1.413   0.640
  564SOL     OW 1699   2.681   0.014   0.506
  564SOL    HW1 1700   2.711   0.109   0.494
  564SOL    HW2 1701   2.581   0.010   0.502
  565SOL     OW 1702   2.056   0.972   1.265
  565SOL    HW1 1703   2.144   0.926   1.252
  565SOL    HW2 1704   1.982   0.912   1.233
  566SOL     OW 1705   2.186   0.254   1.800
  566SOL    HW1 1706   2.245   0.332   1.818
  566SOL    HW2 1707   2.096   0.269   1.841
  567SOL     OW 1708   2.455   0.724   0.266
  567SOL    HW1 1709   2.468   0.806   0.211
  567SOL    HW2 1710   2.386   0.741   0.336
  568SOL     OW 1711   2.651   0.622   1.456
  568SOL    HW1 1712   2.626   0.599   1.550
  568SOL    HW2 1713   2.612   0.555   1.393
  569SOL     OW 1714   2.833   0.884   1.572
  569SOL    HW1 1715   2.867   0.794   1.544
  569SOL    HW2 1716   2.780   0.924   1.498
  570SOL     OW 1717   2.845   0.381   1.259
  570SOL    HW1 1718   2.771   0.439   1.294
  570SOL    HW2 1719   2.834   0.370   1.160
  571SOL     OW 1720   2.892   0.711   0.413
  571SOL    HW1 1721   2.932   0.701   0.504
  571SOL    HW2 1722   2.813   0.650   0.404
  572SOL     OW 1723   1.952   0.821   0.774
  572SOL    HW1 1724   2.039   0.808   0.822
  572SOL    HW2 1725   1.905   0.902   0.811
  573SOL     OW 1726   1.991   1.841   1.575
  573SOL    HW1 1727   1.987   1.817   1.672
  573SOL    HW2 1728   1.900   1.835   1.535
  574SOL     OW 1729   2.784   0.341   0.217
  574SOL    HW1 1730   2.776   0.404   0.141
  574SOL    HW2 1731   2.767   0.247   0.185
  575SOL     OW 1732   2.380   0.194   0.913
  575SOL    HW1 1733   2.398   0.210   1.010
  575SOL    HW2 1734   2.406   0.276   0.860
  576SOL     OW 1735   2.862   1.446   0.470
  576SOL    HW1 1736   2.825   1.525   0.421
  576SOL    HW2 1737   2.866   1.466   0.568
  577SOL     OW 1738   2.216   1.804   0.854
  577SOL    HW1 1739   2.261   1.716   0.866
  577SOL    HW2 1740   2.283   1.878   0.869
  578SOL     OW 1741   2.182   0.951   0.241
  578SOL    HW1 1742   2.271   0.973   0.200
  578SOL    HW2 1743   2.151   0.863   0.207
  579SOL     OW 1744   2.324   1.258   1.734
  579SOL    HW1 1745   2.295   1.267   1.639
  579SOL    HW2 1746   2.243   1.261   1.793
  580SOL     OW 1747   2.063   0.294   1.498
  580SOL    HW1 1748   1.978   0.345   1.489
  580SOL    HW2 1749   2.053   0.226   1.571
  581SOL     OW 1750   2.329   1.729   0.330
  581SOL    HW1 1751   2.359   1.797   0.396
  581SOL    HW2 1752   2.399   1.717   0.259
  582SOL     OW 1753   2.120   1.794   1.232
  582SOL    HW1 1754   2.169   1.728   1.288
  582SOL    HW2 1755   2.096   1.753   1.144
  583SOL     OW 1756   2.801   1.696   0.900
  583SOL    HW1 1757   2.869   1.630   0.933
  583SOL    HW2 1758   2.748   1.655   0.826
  584SOL     OW 1759   2.251   0.691   0.478
  584SOL    HW1 1760   2.288   0.599   0.489
  584SOL    HW2 1761   2.154   0.692   0.502
  585SOL     OW 1762   2.474   0.109   0.110
  585SOL    HW1 1763   2.574   0.111   0.122
  585SOL    HW2 1764   2.452   0.127   0.014
  586SOL     OW 1765   2.636   0.274   1.753
  586SOL    HW1 1766   2.705   0.204   1.772
  586SOL    HW2 1767   2.572   0.277   1.830
  587SOL     OW 1768   2.742   1.516   1.192
  587SOL    HW1 1769   2.720   1.483   1.100
  587SOL    HW2 1770   2.805   1.452   1.235
  588SOL     OW 1771   2.669   1.404   0.933
  588SOL    HW1 1772   2.759   1.392   0.891
  588SOL    HW2 1773   2.598   1.396   0.863
  589SOL     OW 1774   2.784   0.505   0.903
  589SOL    HW1 1775   2.754   0.495   0.808
  589SOL    HW2 1776   2.828   0.421   0.933
  590SOL     OW 1777   2.399   0.051   0.496
  590SOL    HW1 1778   2.311   0.040   0.542
  590SOL    HW2 1779   2.399   0.135   0.442
  591SOL     OW 1780   0.315   1.157   0.046
  591SOL    HW1 1781   0.315   1.093   0.123
  591SOL    HW2 1782   0.242   1.224   0.059
  592SOL     OW 1783   2.164   0.080   0.189
  592SOL    HW1 1784   2.241   0.142   0.184
  592SOL    HW2 1785   2.196   2.988   0.213
  593SOL     OW 1786   2.818   0.247   0.470
  593SOL    HW1 1787   2.767   0.293   0.397
  593SOL    HW2 1788   2.901   0.207   0.432
  594SOL     OW 1789   0.081   1.577   0.799
  594SOL    HW1 1790   0.107   1.623   0.713
  594SOL    HW2 1791   0.164   1.554   0.850
  595SOL     OW 1792   2.326   1.145   0.738
  595SOL    HW1 1793   2.253   1.128   0.805
  595SOL    HW2 1794   2.291   1.130   0.646
  596SOL     OW 1795   2.891   0.516   0.021
  596SOL    HW1 1796   2.843   0.599   2.997
  596SOL    HW2 1797   2.948   0.532   0.102
  597SOL     OW 1798   1.938   0.558   1.389
  597SOL    HW1 1799   2.032   0.551   1.356
  597SOL    HW2 1800   1.932   0.630   1.459
  598SOL     OW 1801   2.428   0.219   1.176
  598SOL    HW1 1802   2.468   0.154   1.240
  598SOL    HW2 1803   2.332   0.233   1.198
  599SOL     OW 1804   2.744   0.466   0.635
  599SOL    HW1 1805   2.679   0.524   0.585
  599SOL    HW2 1806   2.743   0.374   0.596
  600SOL     OW 1807   2.862   0.052   0.761
  600SOL    HW1 1808   2.820   0.058   0.671
  600SOL    HW2 1809   2.841   2.963   0.802
  601SOL     OW 1810   2.351   1.398   0.155
  601SOL    HW1 1811   2.280   1.372   0.221
  601SOL    HW2 1812   2.310   1.409   0.065
  602SOL     OW 1813   2.394   0.265   0.325
  602SOL    HW1 1814   2.431   0.205   0.254
  602SOL    HW2 1815   2.369   0.353   0.285
  603SOL     OW 1816   2.779   0.110   1.401
  603SOL    HW1 1817   2.807   0.092   1.307
  603SOL    HW2 1818   2.847   0.170   1.445
  604SOL     OW 1819   2.839   1.108   1.726
  604SOL    HW1 1820   2.743   1.133   1.739
  604SOL    HW2 1821   2.847   1.037   1.656
  605SOL     OW 1822   2.565   1.058   0.377
  605SOL    HW1 1823   2.548   1.051   0.475
  605SOL    HW2 1824   2.652   1.013   0.356
  606SOL     OW 1825   2.278   0.812   1.252
  606SOL    HW1 1826   2.353   0.827   1.317
  606SOL    HW2 1827   2.238   0.722   1.268
  607SOL     OW 1828   1.930   1.565   1.322
  607SOL    HW1 1829   1.883   1.654   1.320
  607SOL    HW2 1830   2.026   1.579   1.347
  608SOL     OW 1831   2.222   1.106   0.491
  608SOL    HW1 1832   2.218   1.187   0.433
  608SOL    HW2 1833   2.219   1.024   0.435
  609SOL     OW 1834   2.419   0.546   0.865
  609SOL    HW1 1835   2.437   0.602   0.784
  609SOL    HW2 1836   2.483   0.571   0.937
  610SOL     OW 1837   2.215   1.518   1.321
  610SOL    HW1 1838   2.194   1.478   1.232
  610SOL    HW2 1839   2.313   1.537   1.327
  611SOL     OW 1840   2.273   0.746   1.601
  611SOL    HW1 1841   2.335   0.797   1.540
  611SOL    HW2 1842   2.313   0.655   1.620
  612SOL     OW 1843   2.869   0.114   1.760
  612SOL    HW1 1844   2.896   0.197   1.712
  612SOL    HW2 1845   2.906   0.034   1.713
  613SOL     OW 1846   2.363   0.056   1.748
  613SOL    HW1 1847   2.334   2.987   1.681
  613SOL    HW2 1848   2.289   0.122   1.762
  614SOL     OW 1849   2.441   0.871   1.032
  614SOL    HW1 1850   2.479   0.964   1.024
  614SOL    HW2 1851   2.381   0.867   1.112
  615SOL     OW 1852   0.064   0.533   0.274
  615SOL    HW1 1853   0.086   0.445   0.317
  615SOL    HW2 1854   0.030   0.596   0.343
  616SOL     OW 1855   2.163   0.204   1.247
  616SOL    HW1 1856   2.133   0.245   1.332
  616SOL    HW2 1857   2.139   0.106   1.246
  617SOL     OW 1858   1.901   1.306   1.280
  617SOL    HW1 1859   1.945   1.252   1.352
  617SOL    HW2 1860   1.916   1.403   1.298
  618SOL     OW 1861   2.590   0.633   1.061
  618SOL    HW1 1862   2.667   0.611   1.000
  618SOL    HW2 1863   2.558   0.726   1.041
  619SOL     OW 1864   2.169   0.058   0.640
  619SOL    HW1 1865   2.169   0.156   0.663
  619SOL    HW2 1866   2.151   0.005   0.723
  620SOL     OW 1867   2.866   0.768   0.972
  620SOL    HW1 1868   2.896   0.779   1.066
  620SOL    HW2 1869   2.868   0.671   0.947
  621SOL     OW 1870   2.833   1.566   1.702
  621SOL    HW1 1871   2.824   1.611   1.613
  621SOL    HW2 1872   2.892   1.486   1.692
  622SOL     OW 1873   2.214   0.914   1.804
  622SOL    HW1 1874   2.296   0.938   1.856
  622SOL    HW2 1875   2.238   0.851   1.731
  623SOL     OW 1876   2.908   1.343   0.836
  623SOL    HW1 1877   2.909   1.261   0.779
  623SOL    HW2 1878   2.983   1.403   0.809
  624SOL     OW 1879   2.175   0.810   0.947
  624SOL    HW1 1880   2.271   0.838   0.944
  624SOL    HW2 1881   2.169   0.718   0.986
  625SOL     OW 1882   2.198   0.519   1.012
  625SOL    HW1 1883   2.155   0.430   0.996
  625SOL    HW2 1884   2.276   0.530   0.951
  626SOL     OW 1885   2.967   0.371   1.666
  626SOL    HW1 1886   2.914   0.437   1.719
  626SOL    HW2 1887   0.062   0.402   1.660
  627SOL     OW 1888   1.870   1.318   0.186
  627SOL    HW1 1889   1.775   1.337   0.158
  627SOL    HW2 1890   1.874   1.229   0.230
  628SOL     OW 1891   1.954   1.793   0.934
  628SOL    HW1 1892   1.917   1.709   0.894
  628SOL    HW2 1893   2.049   1.804   0.904
  629SOL     OW 1894   2.363   1.573   0.906
  629SOL    HW1 1895   2.433   1.641   0.931
  629SOL    HW2 1896   2.405   1.501   0.851
  630SOL     OW 1897   2.862   0.799   1.248
  630SOL    HW1 1898   2.911   0.741   1.313
  630SOL    HW2 1899   2.770   0.763   1.234
  631SOL     OW 1900   1.899   0.540   1.117
  631SOL    HW1 1901   1.983   0.523   1.066
  631SOL    HW2 1902   1.921   0.554   1.214
  632SOL     OW 1903   2.052   0.519   1.725
  632SOL    HW1 1904   2.111   0.476   1.656
  632SOL    HW2 1905   1.999   0.592   1.682
  633SOL     OW 1906   2.675   0.572   0.347
  633SOL    HW1 1907   2.683   0.489   0.291
  633SOL    HW2 1908   2.591   0.620   0.323
  634SOL     OW 1909   2.135   1.557   1.743
  634SOL    HW1 1910   2.083   1.625   1.796
  634SOL    HW2 1911   2.109   1.465   1.774
  635SOL     OW 1912   2.550   0.461   1.265
  635SOL    HW1 1913   2.505   0.377   1.236
  635SOL    HW2 1914   2.557   0.524   1.188
  636SOL     OW 1915   2.800   1.688   1.461
  636SOL    HW1 1916   2.767   1.639   1.380
  636SOL    HW2 1917   2.783   1.786   1.450
  637SOL     OW 1918   2.310   0.495   0.205
  637SOL    HW1 1919   2.380   0.564   0.218
  637SOL    HW2 1920   2.222   0.539   0.188
  638SOL     OW 1921   2.013   1.136   1.470
  638SOL    HW1 1922   2.023   1.083   1.554
  638SOL    HW2 1923   2.030   1.076   1.391
  639SOL     OW 1924   1.945   1.264   1.016
  639SOL    HW1 1925   1.933   1.273   1.115
  639SOL    HW2 1926   1.869   1.210   0.979
  640SOL     OW 1927   2.540   1.664   1.724
  640SOL    HW1 1928   2.485   1.747   1.722
  640SOL    HW2 1929   2.606   1.667   1.648
  641SOL     OW 1930   2.762   0.084   0.138
  641SOL    HW1 1931   2.810   0.051   0.057
  641SOL    HW2 1932   2.806   0.047   0.220
  642SOL     OW 1933   1.997   1.792   1.845
  642SOL    HW1 1934   1.942   1.724   1.895
  642SOL    HW2 1935   2.051   1.844   1.910
  643SOL     OW 1936   2.682   1.268   1.427
  643SOL    HW1 1937   2.675   1.315   1.515
  643SOL    HW2 1938   2.605   1.295   1.369
  644SOL     OW 1939   2.531   1.609   0.158
  644SOL    HW1 1940   2.539   1.629   0.061
  644SOL    HW2 1941   2.477   1.525   0.170
  645SOL     OW 1942   2.135   0.347   0.752
  645SOL    HW1 1943   2.043   0.371   0.720
  645SOL    HW2 1944   2.130   0.311   0.845
  646SOL     OW 1945   2.688   1.007   1.376
  646SOL    HW1 1946   2.732   0.995   1.287
  646SOL    HW2 1947   2.690   1.104   1.400
  647SOL     OW 1948   2.788   0.937   0.308
  647SOL    HW1 1949   2.838   0.953   0.223
  647SOL    HW2 1950   2.821   0.852   0.350
  648SOL     OW 1951   2.229   1.299   1.492
  648SOL    HW1 1952   2.222   1.382   1.437
  648SOL    HW2 1953   2.150   1.240   1.474
  649SOL     OW 1954   2.910   1.085   0.722
  649SOL    HW1 1955   2.830   1.040   0.762
  649SOL    HW2 1956   2.940   1.033   0.642
  650SOL     OW 1957   2.878   0.237   0.969
  650SOL    HW1 1958   2.873   0.188   0.882
  650SOL    HW2 1959   2.872   0.172   1.044
  651SOL     OW 1960   2.458   1.487   0.484
  651SOL    HW1 1961   2.504   1.433   0.413
  651SOL    HW2 1962   2.401   1.557   0.441
  652SOL     OW 1963   2.126   1.340   0.296
  652SOL    HW1 1964   2.036   1.342   0.251
  652SOL    HW2 1965   2.119   1.384   0.385
  653SOL     OW 1966   1.974   1.019   1.724
  653SOL    HW1 1967   1.892   0.993   1.776
  653SOL    HW2 1968   2.055   0.980   1.767
  654SOL     OW 1969   2.531   0.207   1.493
  654SOL    HW1 1970   2.616   0.183   1.447
  654SOL    HW2 1971   2.548   0.219   1.590
  655SOL     OW 1972   1.916   0.194   0.327
  655SOL    HW1 1973   1.890   0.242   0.243
  655SOL    HW2 1974   2.005   0.150   0.314
  656SOL     OW 1975   2.479   0.836   1.430
  656SOL    HW1 1976   2.535   0.917   1.416
  656SOL    HW2 1977   2.538   0.755   1.439
  657SOL     OW 1978   2.579   0.564   1.708
  657SOL    HW1 1979   2.610   0.634   1.772
  657SOL    HW2 1980   2.623   0.476   1.730
  658SOL     OW 1981   2.245   1.740   1.562
  658SOL    HW1 1982   2.156   1.784   1.552
  658SOL    HW2 1983   2.234   1.652   1.608
  659SOL     OW 1984   2.457   0.742   0.659
  659SOL    HW1 1985   2.498   0.833   0.650
  659SOL    HW2 1986   2.377   0.735   0.599
  660SOL     OW 1987   2.762   1.378   0.061
  660SOL    HW1 1988   2.685   1.384   0.126
  660SOL    HW2 1989   2.742   1.435   2.982
  661SOL     OW 1990   2.521   1.797   0.952
  661SOL    HW1 1991   2.492   1.888   0.925
  661SOL    HW2 1992   2.620   1.787   0.938
  662SOL     OW 1993   2.718   0.960   0.859
  662SOL    HW1 1994   2.770   0.885   0.900
  662SOL    HW2 1995   2.686   1.022   0.931
  663SOL     OW 1996   2.959   1.019   0.074
  663SOL    HW1 1997   2.921   1.053   2.989
  663SOL    HW2 1998   0.018   0.940   0.055
  664SOL     OW 1999   2.084   1.305   1.853
  664SOL    HW1 2000   2.017   1.236   1.826
  664SOL    HW2 2001   2.076   1.322   1.951
  665SOL     OW 2002   1.944   1.236   0.661
  665SOL    HW1 2003   1.943   1.186   0.747
  665SOL    HW2 2004   2.017   1.201   0.603
  666SOL     OW 2005   2.538   1.401   1.626
  666SOL    HW1 2006   2.457   1.350   1.656
  666SOL    HW2 2007   2.536   1.493   1.665
  667SOL     OW 2008   2.332   0.431   0.545
  667SOL    HW1 2009   2.324   0.370   0.466
  667SOL    HW2 2010   2.264   0.404   0.614
  668SOL     OW 2011   2.186   0.548   1.288
  668SOL    HW1 2012   2.245   0.496   1.350
  668SOL    HW2 2013   2.211   0.526   1.194
  669SOL     OW 2014   2.681   1.584   0.683
  669SOL    HW1 2015   2.692   1.613   0.588
  669SOL    HW2 2016   2.602   1.524   0.690
  670SOL     OW 2017   2.854   0.022   1.151
  670SOL    HW1 2018   2.809   2.950   1.098
  670SOL    HW2 2019   2.950   2.997   1.165
  671SOL     OW 2020   2.628   1.329   0.312
  671SOL    HW1 2021   2.595   1.236   0.327
  671SOL    HW2 2022   2.718   1.340   0.356
  672SOL     OW 2023   2.485   1.563   1.285
  672SOL    HW1 2024   2.485   1.647   1.339
  672SOL    HW2 2025   2.574   1.551   1.242
  673SOL     OW 2026   1.903   1.075   0.303
  673SOL    HW1 2027   2.002   1.072   0.286
  673SOL    HW2 2028   1.871   0.983   0.328
  674SOL     OW 2029   2.735   1.650   0.348
  674SOL    HW1 2030   2.665   1.628   0.280
  674SOL    HW2 2031   2.707   1.731   0.399
  675SOL     OW 2032   2.092   0.623   1.982
  675SOL    HW1 2033   1.999   0.624   2.019
  675SOL    HW2 2034   2.089   0.594   1.886
  676SOL     OW 2035   2.085   0.276   2.873
  676SOL    HW1 2036   2.109   0.243   2.965
  676SOL    HW2 2037   1.994   0.241   2.849
  677SOL     OW 2038   1.866   0.380   2.506
  677SOL    HW1 2039   1.781   0.412   2.549
  677SOL    HW2 2040   1.845   0.303   2.445
  678SOL     OW 2041   2.617   1.148   2.888
  678SOL    HW1 2042   2.551   1.182   2.955
  678SOL    HW2 2043   2.665   1.226   2.847
  679SOL     OW 2044   2.547   1.010   2.515
  679SOL    HW1 2045   2.613   0.989   2.588
  679SOL    HW2 2046   2.470   1.061   2.553
  680SOL     OW 2047   2.205   1.432   2.928
  680SOL    HW1 2048   2.121   1.398   2.885
  680SOL    HW2 2049   2.255   1.489   2.863
  681SOL     OW 2050   2.085   1.712   2.340
  681SOL    HW1 2051   2.108   1.792   2.395
  681SOL    HW2 2052   2.149   1.703   2.264
  682SOL     OW 2053   2.091   1.439   2.396
  682SOL    HW1 2054   2.077   1.538   2.401
  682SOL    HW2 2055   2.026   1.394   2.457
  683SOL     OW 2056   2.115   1.091   2.756
  683SOL    HW1 2057   2.112   0.999   2.794
  683SOL    HW2 2058   2.054   1.151   2.808
  684SOL     OW 2059   2.456   0.978   1.992
  684SOL    HW1 2060   2.493   1.037   1.921
  684SOL    HW2 2061   2.497   1.003   2.080
  685SOL     OW 2062   1.980   0.646   2.427
  685SOL    HW1 2063   1.933   0.559   2.444
  685SOL    HW2 2064   1.972   0.704   2.507
  686SOL     OW 2065   1.880   1.597   1.986
  686SOL    HW1 2066   1.876   1.500   2.007
  686SOL    HW2 2067   1.864   1.650   2.070
  687SOL     OW 2068   2.469   1.378   2.592
  687SOL    HW1 2069   2.421   1.291   2.603
  687SOL    HW2 2070   2.455   1.412   2.499
  688SOL     OW 2071   2.682   0.013   2.364
  688SOL    HW1 2072   2.711   0.108   2.355
  688SOL    HW2 2073   2.582   0.009   2.364
  689SOL     OW 2074   2.458   0.726   2.127
  689SOL    HW1 2075   2.470   0.805   2.066
  689SOL    HW2 2076   2.388   0.746   2.194
  690SOL     OW 2077   2.892   0.707   2.281
  690SOL    HW1 2078   2.926   0.696   2.375
  690SOL    HW2 2079   2.812   0.648   2.268
  691SOL     OW 2080   1.952   0.821   2.636
  691SOL    HW1 2081   2.037   0.807   2.685
  691SOL    HW2 2082   1.904   0.901   2.673
  692SOL     OW 2083   2.736   0.347   2.054
  692SOL    HW1 2084   2.790   0.411   1.999
  692SOL    HW2 2085   2.765   0.253   2.035
  693SOL     OW 2086   2.406   0.196   2.809
  693SOL    HW1 2087   2.377   0.252   2.887
  693SOL    HW2 2088   2.415   0.253   2.728
  694SOL     OW 2089   2.861   1.444   2.333
  694SOL    HW1 2090   2.824   1.523   2.284
  694SOL    HW2 2091   2.869   1.466   2.430
  695SOL     OW 2092   2.217   1.802   2.714
  695SOL    HW1 2093   2.262   1.714   2.728
  695SOL    HW2 2094   2.282   1.876   2.730
  696SOL     OW 2095   2.186   0.952   2.108
  696SOL    HW1 2096   2.272   0.978   2.065
  696SOL    HW2 2097   2.151   0.868   2.065
  697SOL     OW 2098   2.330   1.739   2.183
  697SOL    HW1 2099   2.365   1.798   2.256
  697SOL    HW2 2100   2.404   1.712   2.122
  698SOL     OW 2101   2.124   1.799   0.100
  698SOL    HW1 2102   2.170   1.732   0.158
  698SOL    HW2 2103   2.081   1.753   0.022
  699SOL     OW 2104   2.796   1.698   2.761
  699SOL    HW1 2105   2.866   1.638   2.800
  699SOL    HW2 2106   2.750   1.651   2.685
  700SOL     OW 2107   2.252   0.691   2.342
  700SOL    HW1 2108   2.288   0.598   2.351
  700SOL    HW2 2109   2.154   0.692   2.364
  701SOL     OW 2110   2.484   0.124   1.973
  701SOL    HW1 2111   2.576   0.086   1.981
  701SOL    HW2 2112   2.445   0.100   1.884
  702SOL     OW 2113   2.662   1.403   2.784
  702SOL    HW1 2114   2.754   1.395   2.745
  702SOL    HW2 2115   2.595   1.393   2.711
  703SOL     OW 2116   2.783   0.515   2.756
  703SOL    HW1 2117   2.754   0.494   2.662
  703SOL    HW2 2118   2.818   0.432   2.799
  704SOL     OW 2119   2.402   0.058   2.362
  704SOL    HW1 2120   2.313   0.043   2.404
  704SOL    HW2 2121   2.397   0.136   2.300
  705SOL     OW 2122   2.154   0.036   2.056
  705SOL    HW1 2123   2.197   0.115   2.013
  705SOL    HW2 2124   2.225   2.970   2.084
  706SOL     OW 2125   2.813   0.250   2.327
  706SOL    HW1 2126   2.754   0.290   2.256
  706SOL    HW2 2127   2.896   0.214   2.284
  707SOL     OW 2128   0.082   1.574   2.661
  707SOL    HW1 2129   0.109   1.625   2.580
  707SOL    HW2 2130   0.162   1.555   2.717
  708SOL     OW 2131   2.326   1.144   2.600
  708SOL    HW1 2132   2.253   1.129   2.667
  708SOL    HW2 2133   2.291   1.128   2.508
  709SOL     OW 2134   2.888   0.553   1.875
  709SOL    HW1 2135   2.839   0.637   1.853
  709SOL    HW2 2136   2.944   0.567   1.957
  710SOL     OW 2137   2.744   0.466   2.495
  710SOL    HW1 2138   2.679   0.524   2.445
  710SOL    HW2 2139   2.744   0.374   2.454
  711SOL     OW 2140   2.860   0.051   2.621
  711SOL    HW1 2141   2.818   0.052   2.530
  711SOL    HW2 2142   2.843   2.963   2.664
  712SOL     OW 2143   2.355   1.407   2.028
  712SOL    HW1 2144   2.274   1.379   2.080
  712SOL    HW2 2145   2.335   1.401   1.930
  713SOL     OW 2146   2.395   0.267   2.184
  713SOL    HW1 2147   2.425   0.204   2.112
  713SOL    HW2 2148   2.374   0.356   2.144
  714SOL     OW 2149   2.569   1.056   2.234
  714SOL    HW1 2150   2.552   1.048   2.333
  714SOL    HW2 2151   2.651   1.004   2.210
  715SOL     OW 2152   2.221   1.105   2.354
  715SOL    HW1 2153   2.222   1.186   2.296
  715SOL    HW2 2154   2.220   1.023   2.297
  716SOL     OW 2155   2.418   0.543   2.728
  716SOL    HW1 2156   2.435   0.598   2.646
  716SOL    HW2 2157   2.481   0.572   2.800
  717SOL     OW 2158   2.438   0.869   2.880
  717SOL    HW1 2159   2.485   0.953   2.856
  717SOL    HW2 2160   2.403   0.875   2.973
  718SOL     OW 2161   0.057   0.531   2.136
  718SOL    HW1 2162   0.085   0.448   2.184
  718SOL    HW2 2163   0.024   0.598   2.203
  719SOL     OW 2164   2.594   0.643   2.917
  719SOL    HW1 2165   2.662   0.613   2.849
  719SOL    HW2 2166   2.557   0.731   2.889
  720SOL     OW 2167   2.173   0.059   2.505
  720SOL    HW1 2168   2.165   0.156   2.527
  720SOL    HW2 2169   2.150   0.004   2.585
  721SOL     OW 2170   2.872   0.773   2.829
  721SOL    HW1 2171   2.886   0.774   2.928
  721SOL    HW2 2172   2.864   0.678   2.798
  722SOL     OW 2173   2.908   1.342   2.698
  722SOL    HW1 2174   2.911   1.262   2.637
  722SOL    HW2 2175   2.981   1.406   2.671
  723SOL     OW 2176   2.174   0.810   2.812
  723SOL    HW1 2177   2.270   0.836   2.806
  723SOL    HW2 2178   2.166   0.717   2.845
  724SOL     OW 2179   2.189   0.528   2.868
  724SOL    HW1 2180   2.146   0.437   2.861
  724SOL    HW2 2181   2.270   0.531   2.810
  725SOL     OW 2182   1.865   1.322   2.058
  725SOL    HW1 2183   1.775   1.339   2.019
  725SOL    HW2 2184   1.870   1.228   2.091
  726SOL     OW 2185   1.954   1.797   2.794
  726SOL    HW1 2186   1.915   1.711   2.760
  726SOL    HW2 2187   2.049   1.804   2.765
  727SOL     OW 2188   2.367   1.576   2.765
  727SOL    HW1 2189   2.438   1.643   2.787
  727SOL    HW2 2190   2.407   1.501   2.713
  728SOL     OW 2191   2.852   0.764   0.100
  728SOL    HW1 2192   2.896   0.748   0.188
  728SOL    HW2 2193   2.753   0.769   0.113
  729SOL     OW 2194   2.672   0.567   2.210
  729SOL    HW1 2195   2.678   0.485   2.152
  729SOL    HW2 2196   2.593   0.622   2.183
  730SOL     OW 2197   2.565   0.445   0.093
  730SOL    HW1 2198   2.471   0.410   0.098
  730SOL    HW2 2199   2.567   0.525   0.032
  731SOL     OW 2200   2.331   0.497   2.054
  731SOL    HW1 2201   2.392   0.574   2.071
  731SOL    HW2 2202   2.237   0.530   2.042
  732SOL     OW 2203   1.943   1.267   2.884
  732SOL    HW1 2204   1.934   1.273   2.984
  732SOL    HW2 2205   1.867   1.212   2.848
  733SOL     OW 2206   2.532   1.614   2.016
  733SOL    HW1 2207   2.545   1.627   1.917
  733SOL    HW2 2208   2.480   1.530   2.032
  734SOL     OW 2209   2.133   0.338   2.613
  734SOL    HW1 2210   2.043   0.370   2.583
  734SOL    HW2 2211   2.128   0.309   2.709
  735SOL     OW 2212   2.784   0.918   2.155
  735SOL    HW1 2213   2.836   0.936   2.071
  735SOL    HW2 2214   2.819   0.835   2.198
  736SOL     OW 2215   2.909   1.082   2.585
  736SOL    HW1 2216   2.827   1.037   2.621
  736SOL    HW2 2217   2.940   1.034   2.503
  737SOL     OW 2218   2.878   0.235   2.824
  737SOL    HW1 2219   2.872   0.191   2.734
  737SOL    HW2 2220   2.883   0.164   2.895
  738SOL     OW 2221   2.458   1.486   2.345
  738SOL    HW1 2222   2.504   1.433   2.273
  738SOL    HW2 2223   2.398   1.554   2.302
  739SOL     OW 2224   2.116   1.349   2.148
  739SOL    HW1 2225   2.020   1.345   2.122
  739SOL    HW2 2226   2.124   1.388   2.240
  740SOL     OW 2227   1.940   0.341   1.898
  740SOL    HW1 2228   1.848   0.311   1.871
  740SOL    HW2 2229   1.969   0.417   1.840
  741SOL     OW 2230   1.906   0.200   2.163
  741SOL    HW1 2231   1.918   0.270   2.093
  741SOL    HW2 2232   1.983   0.137   2.162
  742SOL     OW 2233   2.456   0.742   2.523
  742SOL    HW1 2234   2.498   0.832   2.510
  742SOL    HW2 2235   2.378   0.733   2.462
  743SOL     OW 2236   2.729   1.369   1.894
  743SOL    HW1 2237   2.677   1.397   1.975
  743SOL    HW2 2238   2.751   1.450   1.840
  744SOL     OW 2239   2.524   1.798   2.822
  744SOL    HW1 2240   2.496   1.887   2.786
  744SOL    HW2 2241   2.622   1.784   2.805
  745SOL     OW 2242   2.714   0.959   2.721
  745SOL    HW1 2243   2.771   0.887   2.761
  745SOL    HW2 2244   2.687   1.023   2.792
  746SOL     OW 2245   2.932   0.957   1.933
  746SOL    HW1 2246   2.907   1.035   1.876
  746SOL    HW2 2247   0.031   0.955   1.945
  747SOL     OW 2248   1.945   1.238   2.524
  747SOL    HW1 2249   1.940   1.184   2.608
  747SOL    HW2 2250   2.017   1.200   2.465
  748SOL     OW 2251   2.327   0.429   2.404
  748SOL    HW1 2252   2.322   0.367   2.325
  748SOL    HW2 2253   2.261   0.400   2.473
  749SOL     OW 2254   2.681   1.585   2.542
  749SOL    HW1 2255   2.693   1.613   2.447
  749SOL    HW2 2256   2.600   1.526   2.549
  750SOL     OW 2257   2.634   1.332   2.171
  750SOL    HW1 2258   2.597   1.239   2.179
  750SOL    HW2 2259   2.720   1.338   2.222
  751SOL     OW 2260   1.905   1.073   2.166
  751SOL    HW1 2261   2.004   1.069   2.148
  751SOL    HW2 2262   1.872   0.983   2.191
  752SOL     OW 2263   2.734   1.646   2.210
  752SOL    HW1 2264   2.665   1.628   2.141
  752SOL    HW2 2265   2.710   1.731   2.259
  753SOL     OW 2266   2.089   2.497   0.112
  753SOL    HW1 2267   1.995   2.479   0.142
  753SOL    HW2 2268   2.104   2.452   0.024
  754SOL     OW 2269   2.084   2.140   0.992
  754SOL    HW1 2270   2.119   2.111   1.081
  754SOL    HW2 2271   1.992   2.106   0.979
  755SOL     OW 2272   1.870   2.245   0.636
  755SOL    HW1 2273   1.784   2.270   0.682
  755SOL    HW2 2274   1.856   2.160   0.585
  756SOL     OW 2275   2.608   0.002   1.020
  756SOL    HW1 2276   2.530   0.036   1.073
  756SOL    HW2 2277   2.652   0.079   0.974
  757SOL     OW 2278   2.715   2.645   1.816
  757SOL    HW1 2279   2.715   2.706   1.894
  757SOL    HW2 2280   2.747   2.695   1.735
  758SOL     OW 2281   2.520   2.847   0.701
  758SOL    HW1 2282   2.616   2.854   0.730
  758SOL    HW2 2283   2.486   2.938   0.679
  759SOL     OW 2284   2.306   2.260   1.494
  759SOL    HW1 2285   2.387   2.201   1.494
  759SOL    HW2 2286   2.224   2.203   1.503
  760SOL     OW 2287   2.103   0.301   0.485
  760SOL    HW1 2288   2.071   0.393   0.508
  760SOL    HW2 2289   2.040   0.233   0.524
  761SOL     OW 2290   2.108   2.948   0.883
  761SOL    HW1 2291   2.122   2.858   0.923
  761SOL    HW2 2292   2.061   0.007   0.948
  762SOL     OW 2293   2.477   2.830   0.145
  762SOL    HW1 2294   2.462   2.922   0.112
  762SOL    HW2 2295   2.534   2.833   0.228
  763SOL     OW 2296   1.976   2.511   0.562
  763SOL    HW1 2297   1.946   2.417   0.579
  763SOL    HW2 2298   1.969   2.564   0.646
  764SOL     OW 2299   1.981   2.604   1.586
  764SOL    HW1 2300   2.078   2.611   1.611
  764SOL    HW2 2301   1.937   2.692   1.598
  765SOL     OW 2302   2.518   0.241   0.681
  765SOL    HW1 2303   2.459   0.174   0.727
  765SOL    HW2 2304   2.462   0.299   0.622
  766SOL     OW 2305   2.672   1.865   0.502
  766SOL    HW1 2306   2.716   1.954   0.491
  766SOL    HW2 2307   2.574   1.877   0.515
  767SOL     OW 2308   2.058   2.840   1.256
  767SOL    HW1 2309   2.144   2.789   1.250
  767SOL    HW2 2310   1.982   2.779   1.237
  768SOL     OW 2311   2.190   2.114   1.807
  768SOL    HW1 2312   2.246   2.196   1.817
  768SOL    HW2 2313   2.097   2.132   1.840
  769SOL     OW 2314   2.456   2.583   0.268
  769SOL    HW1 2315   2.470   2.664   0.211
  769SOL    HW2 2316   2.387   2.603   0.338
  770SOL     OW 2317   2.650   2.484   1.455
  770SOL    HW1 2318   2.627   2.461   1.549
  770SOL    HW2 2319   2.611   2.416   1.393
  771SOL     OW 2320   2.830   2.749   1.577
  771SOL    HW1 2321   2.866   2.660   1.550
  771SOL    HW2 2322   2.774   2.786   1.504
  772SOL     OW 2323   2.846   2.243   1.256
  772SOL    HW1 2324   2.770   2.297   1.293
  772SOL    HW2 2325   2.832   2.227   1.159
  773SOL     OW 2326   2.891   2.576   0.414
  773SOL    HW1 2327   2.932   2.564   0.504
  773SOL    HW2 2328   2.813   2.514   0.404
  774SOL     OW 2329   1.948   2.682   0.777
  774SOL    HW1 2330   2.037   2.668   0.820
  774SOL    HW2 2331   1.907   2.767   0.812
  775SOL     OW 2332   2.788   2.197   0.216
  775SOL    HW1 2333   2.784   2.268   0.147
  775SOL    HW2 2334   2.756   2.110   0.177
  776SOL     OW 2335   2.408   2.048   0.893
  776SOL    HW1 2336   2.412   2.069   0.991
  776SOL    HW2 2337   2.414   2.133   0.840
  777SOL     OW 2338   2.062   2.148   1.500
  777SOL    HW1 2339   1.978   2.201   1.488
  777SOL    HW2 2340   2.049   2.080   1.573
  778SOL     OW 2341   2.247   2.555   0.478
  778SOL    HW1 2342   2.280   2.460   0.482
  778SOL    HW2 2343   2.150   2.558   0.501
  779SOL     OW 2344   2.486   1.984   0.115
  779SOL    HW1 2345   2.583   1.962   0.121
  779SOL    HW2 2346   2.447   1.940   0.034
  780SOL     OW 2347   2.634   2.139   1.755
  780SOL    HW1 2348   2.706   2.070   1.769
  780SOL    HW2 2349   2.567   2.133   1.828
  781SOL     OW 2350   2.785   2.367   0.902
  781SOL    HW1 2351   2.756   2.357   0.807
  781SOL    HW2 2352   2.827   2.281   0.933
  782SOL     OW 2353   2.406   1.923   0.506
  782SOL    HW1 2354   2.324   1.924   0.563
  782SOL    HW2 2355   2.407   2.004   0.447
  783SOL     OW 2356   2.805   2.100   0.468
  783SOL    HW1 2357   2.763   2.150   0.392
  783SOL    HW2 2358   2.899   2.074   0.443
  784SOL     OW 2359   2.882   2.385   0.029
  784SOL    HW1 2360   2.843   2.472   2.998
  784SOL    HW2 2361   2.947   2.403   0.103
  785SOL     OW 2362   1.938   2.420   1.389
  785SOL    HW1 2363   2.032   2.413   1.356
  785SOL    HW2 2364   1.933   2.492   1.459
  786SOL     OW 2365   2.424   2.086   1.163
  786SOL    HW1 2366   2.467   2.002   1.195
  786SOL    HW2 2367   2.329   2.089   1.193
  787SOL     OW 2368   2.741   2.320   0.636
  787SOL    HW1 2369   2.684   2.385   0.585
  787SOL    HW2 2370   2.747   2.234   0.585
  788SOL     OW 2371   2.860   1.921   0.755
  788SOL    HW1 2372   2.808   1.905   0.672
  788SOL    HW2 2373   2.854   1.840   0.814
  789SOL     OW 2374   2.385   2.123   0.324
  789SOL    HW1 2375   2.422   2.067   0.251
  789SOL    HW2 2376   2.369   2.216   0.290
  790SOL     OW 2377   2.761   1.950   1.394
  790SOL    HW1 2378   2.783   1.931   1.299
  790SOL    HW2 2379   2.838   1.998   1.437
  791SOL     OW 2380   2.276   2.676   1.255
  791SOL    HW1 2381   2.352   2.687   1.318
  791SOL    HW2 2382   2.236   2.585   1.265
  792SOL     OW 2383   2.420   2.404   0.863
  792SOL    HW1 2384   2.436   2.462   0.783
  792SOL    HW2 2385   2.483   2.430   0.936
  793SOL     OW 2386   2.275   2.605   1.602
  793SOL    HW1 2387   2.337   2.655   1.541
  793SOL    HW2 2388   2.312   2.515   1.622
  794SOL     OW 2389   2.859   1.985   1.769
  794SOL    HW1 2390   2.895   2.051   1.703
  794SOL    HW2 2391   2.902   1.896   1.753
  795SOL     OW 2392   2.359   1.909   1.744
  795SOL    HW1 2393   2.321   1.848   1.674
  795SOL    HW2 2394   2.294   1.983   1.762
  796SOL     OW 2395   2.448   2.729   1.037
  796SOL    HW1 2396   2.470   2.823   1.013
  796SOL    HW2 2397   2.381   2.727   1.110
  797SOL     OW 2398   0.063   2.399   0.275
  797SOL    HW1 2399   0.083   2.312   0.321
  797SOL    HW2 2400   0.029   2.465   0.341
  798SOL     OW 2401   2.164   2.065   1.243
  798SOL    HW1 2402   2.130   2.103   1.329
  798SOL    HW2 2403   2.146   1.967   1.240
  799SOL     OW 2404   2.590   2.493   1.061
  799SOL    HW1 2405   2.667   2.472   1.000
  799SOL    HW2 2406   2.557   2.586   1.042
  800SOL     OW 2407   2.161   1.928   0.625
  800SOL    HW1 2408   2.147   2.024   0.649
  800SOL    HW2 2409   2.169   1.873   0.708
  801SOL     OW 2410   2.859   2.627   0.980
  801SOL    HW1 2411   2.905   2.631   1.069
  801SOL    HW2 2412   2.864   2.533   0.944
  802SOL     OW 2413   2.221   2.785   1.798
  802SOL    HW1 2414   2.290   2.786   1.870
  802SOL    HW2 2415   2.242   2.713   1.733
  803SOL     OW 2416   2.176   2.674   0.950
  803SOL    HW1 2417   2.273   2.696   0.937
  803SOL    HW2 2418   2.168   2.581   0.986
  804SOL     OW 2419   2.196   2.381   1.009
  804SOL    HW1 2420   2.156   2.291   0.995
  804SOL    HW2 2421   2.277   2.391   0.950
  805SOL     OW 2422   2.971   2.242   1.666
  805SOL    HW1 2423   2.915   2.304   1.722
  805SOL    HW2 2424   0.066   2.273   1.667
  806SOL     OW 2425   2.982   2.061   1.474
  806SOL    HW1 2426   2.970   2.135   1.541
  806SOL    HW2 2427   2.996   2.100   1.383
  807SOL     OW 2428   2.857   2.669   1.258
  807SOL    HW1 2429   2.912   2.606   1.312
  807SOL    HW2 2430   2.772   2.624   1.230
  808SOL     OW 2431   1.898   2.408   1.117
  808SOL    HW1 2432   1.981   2.382   1.066
  808SOL    HW2 2433   1.920   2.415   1.214
  809SOL     OW 2434   2.053   2.381   1.723
  809SOL    HW1 2435   2.111   2.338   1.654
  809SOL    HW2 2436   1.997   2.452   1.681
  810SOL     OW 2437   2.672   2.429   0.352
  810SOL    HW1 2438   2.680   2.353   0.287
  810SOL    HW2 2439   2.594   2.486   0.327
  811SOL     OW 2440   2.550   2.321   1.265
  811SOL    HW1 2441   2.504   2.237   1.235
  811SOL    HW2 2442   2.556   2.384   1.188
  812SOL     OW 2443   2.303   2.358   0.211
  812SOL    HW1 2444   2.380   2.422   0.218
  812SOL    HW2 2445   2.220   2.408   0.188
  813SOL     OW 2446   2.016   2.994   1.473
  813SOL    HW1 2447   2.025   2.938   1.556
  813SOL    HW2 2448   2.034   2.937   1.393
  814SOL     OW 2449   2.761   1.939   0.128
  814SOL    HW1 2450   2.815   1.918   0.047
  814SOL    HW2 2451   2.805   1.899   0.209
  815SOL     OW 2452   2.127   2.180   0.720
  815SOL    HW1 2453   2.040   2.220   0.688
  815SOL    HW2 2454   2.124   2.168   0.819
  816SOL     OW 2455   2.673   2.867   1.373
  816SOL    HW1 2456   2.730   2.837   1.296
  816SOL    HW2 2457   2.700   2.959   1.400
  817SOL     OW 2458   2.752   2.779   0.292
  817SOL    HW1 2459   2.829   2.829   0.253
  817SOL    HW2 2460   2.786   2.711   0.357
  818SOL     OW 2461   2.879   2.100   0.967
  818SOL    HW1 2462   2.874   2.053   0.879
  818SOL    HW2 2463   2.869   2.034   1.041
  819SOL     OW 2464   1.973   2.864   1.713
  819SOL    HW1 2465   1.893   2.856   1.772
  819SOL    HW2 2466   2.056   2.843   1.765
  820SOL     OW 2467   2.532   2.061   1.498
  820SOL    HW1 2468   2.616   2.041   1.448
  820SOL    HW2 2469   2.554   2.085   1.592
  821SOL     OW 2470   1.937   2.021   0.337
  821SOL    HW1 2471   1.902   2.077   0.263
  821SOL    HW2 2472   2.030   1.991   0.315
  822SOL     OW 2473   2.476   2.695   1.432
  822SOL    HW1 2474   2.535   2.775   1.416
  822SOL    HW2 2475   2.533   2.613   1.441
  823SOL     OW 2476   2.579   2.425   1.706
  823SOL    HW1 2477   2.609   2.496   1.770
  823SOL    HW2 2478   2.621   2.338   1.732
  824SOL     OW 2479   2.454   2.590   0.657
  824SOL    HW1 2480   2.489   2.684   0.665
  824SOL    HW2 2481   2.376   2.589   0.595
  825SOL     OW 2482   2.747   2.834   0.862
  825SOL    HW1 2483   2.780   2.748   0.900
  825SOL    HW2 2484   2.683   2.876   0.926
  826SOL     OW 2485   2.293   2.292   0.527
  826SOL    HW1 2486   2.323   2.220   0.464
  826SOL    HW2 2487   2.244   2.250   0.603
  827SOL     OW 2488   2.187   2.411   1.287
  827SOL    HW1 2489   2.243   2.357   1.350
  827SOL    HW2 2490   2.210   2.387   1.193
  828SOL     OW 2491   2.865   1.883   1.149
  828SOL    HW1 2492   2.805   1.814   1.108
  828SOL    HW2 2493   2.960   1.860   1.131
  829SOL     OW 2494   1.877   2.918   0.305
  829SOL    HW1 2495   1.967   2.927   0.262
  829SOL    HW2 2496   1.866   2.824   0.339
  830SOL     OW 2497   2.093   2.470   1.982
  830SOL    HW1 2498   2.002   2.492   2.018
  830SOL    HW2 2499   2.086   2.452   1.884
  831SOL     OW 2500   2.088   2.140   2.848
  831SOL    HW1 2501   2.121   2.114   2.939
  831SOL    HW2 2502   1.994   2.107   2.836
  832SOL     OW 2503   1.870   2.244   2.497
  832SOL    HW1 2504   1.786   2.273   2.542
  832SOL    HW2 2505   1.855   2.158   2.448
  833SOL     OW 2506   2.641   0.013   2.881
  833SOL    HW1 2507   2.559   0.022   2.936
  833SOL    HW2 2508   2.652   0.094   2.823
  834SOL     OW 2509   2.521   2.845   2.556
  834SOL    HW1 2510   2.613   2.850   2.595
  834SOL    HW2 2511   2.485   2.937   2.544
  835SOL     OW 2512   2.095   0.296   2.342
  835SOL    HW1 2513   2.068   0.390   2.367
  835SOL    HW2 2514   2.038   0.231   2.393
  836SOL     OW 2515   2.111   2.950   2.748
  836SOL    HW1 2516   2.122   2.858   2.785
  836SOL    HW2 2517   2.057   0.006   2.812
  837SOL     OW 2518   2.469   2.825   1.991
  837SOL    HW1 2519   2.464   2.909   1.938
  837SOL    HW2 2520   2.526   2.841   2.072
  838SOL     OW 2521   1.977   2.511   2.425
  838SOL    HW1 2522   1.946   2.417   2.441
  838SOL    HW2 2523   1.970   2.564   2.509
  839SOL     OW 2524   2.509   0.246   2.556
  839SOL    HW1 2525   2.457   0.163   2.576
  839SOL    HW2 2526   2.462   0.299   2.485
  840SOL     OW 2527   2.671   1.864   2.362
  840SOL    HW1 2528   2.716   1.953   2.353
  840SOL    HW2 2529   2.573   1.878   2.378
  841SOL     OW 2530   2.062   2.810   0.110
  841SOL    HW1 2531   2.139   2.746   0.106
  841SOL    HW2 2532   1.976   2.760   0.095
  842SOL     OW 2533   2.459   2.584   2.128
  842SOL    HW1 2534   2.471   2.661   2.066
  842SOL    HW2 2535   2.389   2.606   2.196
  843SOL     OW 2536   2.896   2.575   2.277
  843SOL    HW1 2537   2.931   2.565   2.371
  843SOL    HW2 2538   2.814   2.519   2.266
  844SOL     OW 2539   1.948   2.683   2.639
  844SOL    HW1 2540   2.036   2.667   2.684
  844SOL    HW2 2541   1.906   2.766   2.676
  845SOL     OW 2542   2.745   2.206   2.060
  845SOL    HW1 2543   2.787   2.273   1.999
  845SOL    HW2 2544   2.753   2.115   2.019
  846SOL     OW 2545   2.411   2.049   2.761
  846SOL    HW1 2546   2.387   2.075   2.855
  846SOL    HW2 2547   2.418   2.132   2.705
  847SOL     OW 2548   2.248   2.554   2.340
  847SOL    HW1 2549   2.280   2.459   2.347
  847SOL    HW2 2550   2.150   2.558   2.363
  848SOL     OW 2551   2.488   1.988   1.968
  848SOL    HW1 2552   2.569   1.933   1.986
  848SOL    HW2 2553   2.441   1.953   1.887
  849SOL     OW 2554   2.785   2.374   2.756
  849SOL    HW1 2555   2.757   2.355   2.662
  849SOL    HW2 2556   2.818   2.290   2.799
  850SOL     OW 2557   2.407   1.925   2.368
  850SOL    HW1 2558   2.323   1.924   2.424
  850SOL    HW2 2559   2.407   2.006   2.310
  851SOL     OW 2560   2.156   1.906   2.045
  851SOL    HW1 2561   2.209   1.981   2.005
  851SOL    HW2 2562   2.217   1.840   2.086
  852SOL     OW 2563   2.802   2.102   2.325
  852SOL    HW1 2564   2.757   2.150   2.250
  852SOL    HW2 2565   2.895   2.077   2.296
  853SOL     OW 2566   2.888   2.415   1.875
  853SOL    HW1 2567   2.839   2.499   1.852
  853SOL    HW2 2568   2.942   2.430   1.958
  854SOL     OW 2569   2.740   2.319   2.496
  854SOL    HW1 2570   2.683   2.384   2.447
  854SOL    HW2 2571   2.746   2.234   2.445
  855SOL     OW 2572   2.858   1.922   2.613
  855SOL    HW1 2573   2.805   1.901   2.531
  855SOL    HW2 2574   2.856   1.844   2.675
  856SOL     OW 2575   2.392   2.125   2.184
  856SOL    HW1 2576   2.426   2.067   2.109
  856SOL    HW2 2577   2.373   2.217   2.148
  857SOL     OW 2578   2.421   2.400   2.724
  857SOL    HW1 2579   2.434   2.459   2.645
  857SOL    HW2 2580   2.479   2.431   2.799
  858SOL     OW 2581   2.434   2.729   2.882
  858SOL    HW1 2582   2.486   2.810   2.855
  858SOL    HW2 2583   2.408   2.735   2.978
  859SOL     OW 2584   0.056   2.391   2.138
  859SOL    HW1 2585   0.092   2.312   2.188
  859SOL    HW2 2586   0.020   2.458   2.203
  860SOL     OW 2587   2.162   2.068   0.091
  860SOL    HW1 2588   2.177   2.110   0.180
  860SOL    HW2 2589   2.150   1.970   0.101
  861SOL     OW 2590   2.591   2.500   2.915
  861SOL    HW1 2591   2.663   2.474   2.851
  861SOL    HW2 2592   2.557   2.591   2.891
  862SOL     OW 2593   2.162   1.929   2.486
  862SOL    HW1 2594   2.146   2.024   2.511
  862SOL    HW2 2595   2.167   1.873   2.569
  863SOL     OW 2596   2.868   2.631   2.826
  863SOL    HW1 2597   2.896   2.639   2.922
  863SOL    HW2 2598   2.866   2.534   2.801
  864SOL     OW 2599   2.173   2.672   2.811
  864SOL    HW1 2600   2.270   2.698   2.808
  864SOL    HW2 2601   2.165   2.577   2.844
  865SOL     OW 2602   2.187   2.390   2.864
  865SOL    HW1 2603   2.147   2.299   2.859
  865SOL    HW2 2604   2.271   2.393   2.810
  866SOL     OW 2605   2.877   2.647   0.093
  866SOL    HW1 2606   2.917   2.632   0.183
  866SOL    HW2 2607   2.778   2.658   0.102
  867SOL     OW 2608   2.675   2.429   2.212
  867SOL    HW1 2609   2.678   2.348   2.153
  867SOL    HW2 2610   2.597   2.486   2.186
  868SOL     OW 2611   2.564   2.312   0.104
  868SOL    HW1 2612   2.482   2.256   0.090
  868SOL    HW2 2613   2.566   2.385   0.036
  869SOL     OW 2614   2.332   2.357   2.054
  869SOL    HW1 2615   2.392   2.434   2.073
  869SOL    HW2 2616   2.238   2.389   2.041
  870SOL     OW 2617   0.169   2.703   2.170
  870SOL    HW1 2618   0.095   2.656   2.216
  870SOL    HW2 2619   0.189   2.657   2.083
  871SOL     OW 2620   2.127   2.181   2.580
  871SOL    HW1 2621   2.041   2.220   2.549
  871SOL    HW2 2622   2.124   2.169   2.679
  872SOL     OW 2623   2.765   2.762   2.121
  872SOL    HW1 2624   2.840   2.813   2.080
  872SOL    HW2 2625   2.801   2.700   2.191
  873SOL     OW 2626   2.878   2.099   2.823
  873SOL    HW1 2627   2.873   2.057   2.732
  873SOL    HW2 2628   2.891   2.028   2.892
  874SOL     OW 2629   1.939   2.199   1.895
  874SOL    HW1 2630   1.847   2.175   1.864
  874SOL    HW2 2631   1.972   2.279   1.845
  875SOL     OW 2632   1.932   2.021   2.176
  875SOL    HW1 2633   1.914   2.106   2.126
  875SOL    HW2 2634   2.022   1.985   2.149
  876SOL     OW 2635   2.455   2.589   2.518
  876SOL    HW1 2636   2.490   2.683   2.526
  876SOL    HW2 2637   2.376   2.588   2.458
  877SOL     OW 2638   2.738   2.830   2.718
  877SOL    HW1 2639   2.783   2.749   2.756
  877SOL    HW2 2640   2.700   2.885   2.792
  878SOL     OW 2641   2.943   2.828   1.900
  878SOL    HW1 2642   2.913   2.924   1.902
  878SOL    HW2 2643   0.017   2.815   1.966
  879SOL     OW 2644   2.294   2.291   2.386
  879SOL    HW1 2645   2.322   2.218   2.324
  879SOL    HW2 2646   2.244   2.252   2.463
  880SOL     OW 2647   1.888   2.917   2.168
  880SOL    HW1 2648   1.980   2.932   2.132
  880SOL    HW2 2649   1.878   2.822   2.196
   3.00000   3.00000   3.00000
