;
;	File 'topol.top' was generated
;	By user: root (93529)
;	On host: chas152
;	At date: Mon Sep 26 16:38:04 2022
;
;	This is a standalone topology file
;
;	Created by:
;	                    :-) GROMACS - gmx pdb2gmx, 2018.7 (-:
;	
;	Executable:   /home/apps/centos7/gromacs/2018.7/impi2015/bin/gmx_mpi
;	Data prefix:  /home/apps/centos7/gromacs/2018.7/impi2015
;	Working dir:  /home/mse/phd/msz2*****/CML726/water
;	Command line:
;	  gmx_mpi pdb2gmx -f sol-box.gro -o conf.gro
;	Force field was read from the standard GROMACS share directory.
;

; Include forcefield parameters
#include "oplsaa.ff/forcefield.itp"

; Include water topology
#include "oplsaa.ff/spce.itp"

[ system ]
; Name
water in water

[ molecules ]
; Compound        #mols
SOL              7028
