;
;	File 'topology.top' was generated
;	By user: root (131270)
;	On host: csky004
;	At date: Thu Sep  3 09:13:37 2026
;
;	This is a standalone topology file
;
;	Created by:
;	              :-) GROMACS - gmx pdb2gmx, 2021.4-plumed-2.8.0 (-:
;	
;	Executable:   /home/apps/centos7/gromacs/2021.4/gcc9.1_ompi4.1.2/bin/gmx_mpi
;	Data prefix:  /home/apps/centos7/gromacs/2021.4/gcc9.1_ompi4.1.2
;	Working dir:  /scratch/civil/visitor/satya.visitor/dev_gromacs/105_1POG_peptide
;	Command line:
;	  gmx_mpi pdb2gmx -f 1P0G_clean.pdb -o 1P0G.gro -p topology.top -ignh
;	Force field was read from the standard GROMACS share directory.
;

; Include forcefield parameters
#include "amber99sb-ildn.ff/forcefield.itp"

[ moleculetype ]
; Name            nrexcl
Protein_chain_A     3

[ atoms ]
;   nr       type  resnr residue  atom   cgnr     charge       mass  typeB    chargeB      massB
; residue   1 ALA rtp NALA q +1.0
     1         N3      1    ALA      N      1     0.1414      14.01
     2          H      1    ALA     H1      2     0.1997      1.008
     3          H      1    ALA     H2      3     0.1997      1.008
     4          H      1    ALA     H3      4     0.1997      1.008
     5         CT      1    ALA     CA      5     0.0962      12.01
     6         HP      1    ALA     HA      6     0.0889      1.008
     7         CT      1    ALA     CB      7    -0.0597      12.01
     8         HC      1    ALA    HB1      8       0.03      1.008
     9         HC      1    ALA    HB2      9       0.03      1.008
    10         HC      1    ALA    HB3     10       0.03      1.008
    11          C      1    ALA      C     11     0.6163      12.01
    12          O      1    ALA      O     12    -0.5722         16   ; qtot 1
; residue   2 LYS rtp LYS  q +1.0
    13          N      2    LYS      N     13    -0.3479      14.01
    14          H      2    LYS      H     14     0.2747      1.008
    15         CT      2    LYS     CA     15      -0.24      12.01
    16         H1      2    LYS     HA     16     0.1426      1.008
    17         CT      2    LYS     CB     17    -0.0094      12.01
    18         HC      2    LYS    HB1     18     0.0362      1.008
    19         HC      2    LYS    HB2     19     0.0362      1.008
    20         CT      2    LYS     CG     20     0.0187      12.01
    21         HC      2    LYS    HG1     21     0.0103      1.008
    22         HC      2    LYS    HG2     22     0.0103      1.008
    23         CT      2    LYS     CD     23    -0.0479      12.01
    24         HC      2    LYS    HD1     24     0.0621      1.008
    25         HC      2    LYS    HD2     25     0.0621      1.008
    26         CT      2    LYS     CE     26    -0.0143      12.01
    27         HP      2    LYS    HE1     27     0.1135      1.008
    28         HP      2    LYS    HE2     28     0.1135      1.008
    29         N3      2    LYS     NZ     29    -0.3854      14.01
    30          H      2    LYS    HZ1     30       0.34      1.008
    31          H      2    LYS    HZ2     31       0.34      1.008
    32          H      2    LYS    HZ3     32       0.34      1.008
    33          C      2    LYS      C     33     0.7341      12.01
    34          O      2    LYS      O     34    -0.5894         16   ; qtot 2
; residue   3 LYS rtp LYS  q +1.0
    35          N      3    LYS      N     35    -0.3479      14.01
    36          H      3    LYS      H     36     0.2747      1.008
    37         CT      3    LYS     CA     37      -0.24      12.01
    38         H1      3    LYS     HA     38     0.1426      1.008
    39         CT      3    LYS     CB     39    -0.0094      12.01
    40         HC      3    LYS    HB1     40     0.0362      1.008
    41         HC      3    LYS    HB2     41     0.0362      1.008
    42         CT      3    LYS     CG     42     0.0187      12.01
    43         HC      3    LYS    HG1     43     0.0103      1.008
    44         HC      3    LYS    HG2     44     0.0103      1.008
    45         CT      3    LYS     CD     45    -0.0479      12.01
    46         HC      3    LYS    HD1     46     0.0621      1.008
    47         HC      3    LYS    HD2     47     0.0621      1.008
    48         CT      3    LYS     CE     48    -0.0143      12.01
    49         HP      3    LYS    HE1     49     0.1135      1.008
    50         HP      3    LYS    HE2     50     0.1135      1.008
    51         N3      3    LYS     NZ     51    -0.3854      14.01
    52          H      3    LYS    HZ1     52       0.34      1.008
    53          H      3    LYS    HZ2     53       0.34      1.008
    54          H      3    LYS    HZ3     54       0.34      1.008
    55          C      3    LYS      C     55     0.7341      12.01
    56          O      3    LYS      O     56    -0.5894         16   ; qtot 3
; residue   4 VAL rtp VAL  q  0.0
    57          N      4    VAL      N     57    -0.4157      14.01
    58          H      4    VAL      H     58     0.2719      1.008
    59         CT      4    VAL     CA     59    -0.0875      12.01
    60         H1      4    VAL     HA     60     0.0969      1.008
    61         CT      4    VAL     CB     61     0.2985      12.01
    62         HC      4    VAL     HB     62    -0.0297      1.008
    63         CT      4    VAL    CG1     63    -0.3192      12.01
    64         HC      4    VAL   HG11     64     0.0791      1.008
    65         HC      4    VAL   HG12     65     0.0791      1.008
    66         HC      4    VAL   HG13     66     0.0791      1.008
    67         CT      4    VAL    CG2     67    -0.3192      12.01
    68         HC      4    VAL   HG21     68     0.0791      1.008
    69         HC      4    VAL   HG22     69     0.0791      1.008
    70         HC      4    VAL   HG23     70     0.0791      1.008
    71          C      4    VAL      C     71     0.5973      12.01
    72          O      4    VAL      O     72    -0.5679         16   ; qtot 3
; residue   5 PHE rtp PHE  q  0.0
    73          N      5    PHE      N     73    -0.4157      14.01
    74          H      5    PHE      H     74     0.2719      1.008
    75         CT      5    PHE     CA     75    -0.0024      12.01
    76         H1      5    PHE     HA     76     0.0978      1.008
    77         CT      5    PHE     CB     77    -0.0343      12.01
    78         HC      5    PHE    HB1     78     0.0295      1.008
    79         HC      5    PHE    HB2     79     0.0295      1.008
    80         CA      5    PHE     CG     80     0.0118      12.01
    81         CA      5    PHE    CD1     81    -0.1256      12.01
    82         HA      5    PHE    HD1     82      0.133      1.008
    83         CA      5    PHE    CE1     83    -0.1704      12.01
    84         HA      5    PHE    HE1     84      0.143      1.008
    85         CA      5    PHE     CZ     85    -0.1072      12.01
    86         HA      5    PHE     HZ     86     0.1297      1.008
    87         CA      5    PHE    CE2     87    -0.1704      12.01
    88         HA      5    PHE    HE2     88      0.143      1.008
    89         CA      5    PHE    CD2     89    -0.1256      12.01
    90         HA      5    PHE    HD2     90      0.133      1.008
    91          C      5    PHE      C     91     0.5973      12.01
    92          O      5    PHE      O     92    -0.5679         16   ; qtot 3
; residue   6 LYS rtp LYS  q +1.0
    93          N      6    LYS      N     93    -0.3479      14.01
    94          H      6    LYS      H     94     0.2747      1.008
    95         CT      6    LYS     CA     95      -0.24      12.01
    96         H1      6    LYS     HA     96     0.1426      1.008
    97         CT      6    LYS     CB     97    -0.0094      12.01
    98         HC      6    LYS    HB1     98     0.0362      1.008
    99         HC      6    LYS    HB2     99     0.0362      1.008
   100         CT      6    LYS     CG    100     0.0187      12.01
   101         HC      6    LYS    HG1    101     0.0103      1.008
   102         HC      6    LYS    HG2    102     0.0103      1.008
   103         CT      6    LYS     CD    103    -0.0479      12.01
   104         HC      6    LYS    HD1    104     0.0621      1.008
   105         HC      6    LYS    HD2    105     0.0621      1.008
   106         CT      6    LYS     CE    106    -0.0143      12.01
   107         HP      6    LYS    HE1    107     0.1135      1.008
   108         HP      6    LYS    HE2    108     0.1135      1.008
   109         N3      6    LYS     NZ    109    -0.3854      14.01
   110          H      6    LYS    HZ1    110       0.34      1.008
   111          H      6    LYS    HZ2    111       0.34      1.008
   112          H      6    LYS    HZ3    112       0.34      1.008
   113          C      6    LYS      C    113     0.7341      12.01
   114          O      6    LYS      O    114    -0.5894         16   ; qtot 4
; residue   7 ARG rtp ARG  q +1.0
   115          N      7    ARG      N    115    -0.3479      14.01
   116          H      7    ARG      H    116     0.2747      1.008
   117         CT      7    ARG     CA    117    -0.2637      12.01
   118         H1      7    ARG     HA    118      0.156      1.008
   119         CT      7    ARG     CB    119    -0.0007      12.01
   120         HC      7    ARG    HB1    120     0.0327      1.008
   121         HC      7    ARG    HB2    121     0.0327      1.008
   122         CT      7    ARG     CG    122      0.039      12.01
   123         HC      7    ARG    HG1    123     0.0285      1.008
   124         HC      7    ARG    HG2    124     0.0285      1.008
   125         CT      7    ARG     CD    125     0.0486      12.01
   126         H1      7    ARG    HD1    126     0.0687      1.008
   127         H1      7    ARG    HD2    127     0.0687      1.008
   128         N2      7    ARG     NE    128    -0.5295      14.01
   129          H      7    ARG     HE    129     0.3456      1.008
   130         CA      7    ARG     CZ    130     0.8076      12.01
   131         N2      7    ARG    NH1    131    -0.8627      14.01
   132          H      7    ARG   HH11    132     0.4478      1.008
   133          H      7    ARG   HH12    133     0.4478      1.008
   134         N2      7    ARG    NH2    134    -0.8627      14.01
   135          H      7    ARG   HH21    135     0.4478      1.008
   136          H      7    ARG   HH22    136     0.4478      1.008
   137          C      7    ARG      C    137     0.7341      12.01
   138          O      7    ARG      O    138    -0.5894         16   ; qtot 5
; residue   8 LEU rtp LEU  q  0.0
   139          N      8    LEU      N    139    -0.4157      14.01
   140          H      8    LEU      H    140     0.2719      1.008
   141         CT      8    LEU     CA    141    -0.0518      12.01
   142         H1      8    LEU     HA    142     0.0922      1.008
   143         CT      8    LEU     CB    143    -0.1102      12.01
   144         HC      8    LEU    HB1    144     0.0457      1.008
   145         HC      8    LEU    HB2    145     0.0457      1.008
   146         CT      8    LEU     CG    146     0.3531      12.01
   147         HC      8    LEU     HG    147    -0.0361      1.008
   148         CT      8    LEU    CD1    148    -0.4121      12.01
   149         HC      8    LEU   HD11    149        0.1      1.008
   150         HC      8    LEU   HD12    150        0.1      1.008
   151         HC      8    LEU   HD13    151        0.1      1.008
   152         CT      8    LEU    CD2    152    -0.4121      12.01
   153         HC      8    LEU   HD21    153        0.1      1.008
   154         HC      8    LEU   HD22    154        0.1      1.008
   155         HC      8    LEU   HD23    155        0.1      1.008
   156          C      8    LEU      C    156     0.5973      12.01
   157          O      8    LEU      O    157    -0.5679         16   ; qtot 5
; residue   9 GLU rtp GLU  q -1.0
   158          N      9    GLU      N    158    -0.5163      14.01
   159          H      9    GLU      H    159     0.2936      1.008
   160         CT      9    GLU     CA    160     0.0397      12.01
   161         H1      9    GLU     HA    161     0.1105      1.008
   162         CT      9    GLU     CB    162      0.056      12.01
   163         HC      9    GLU    HB1    163    -0.0173      1.008
   164         HC      9    GLU    HB2    164    -0.0173      1.008
   165         CT      9    GLU     CG    165     0.0136      12.01
   166         HC      9    GLU    HG1    166    -0.0425      1.008
   167         HC      9    GLU    HG2    167    -0.0425      1.008
   168          C      9    GLU     CD    168     0.8054      12.01
   169         O2      9    GLU    OE1    169    -0.8188         16
   170         O2      9    GLU    OE2    170    -0.8188         16
   171          C      9    GLU      C    171     0.5366      12.01
   172          O      9    GLU      O    172    -0.5819         16   ; qtot 4
; residue  10 LYS rtp LYS  q +1.0
   173          N     10    LYS      N    173    -0.3479      14.01
   174          H     10    LYS      H    174     0.2747      1.008
   175         CT     10    LYS     CA    175      -0.24      12.01
   176         H1     10    LYS     HA    176     0.1426      1.008
   177         CT     10    LYS     CB    177    -0.0094      12.01
   178         HC     10    LYS    HB1    178     0.0362      1.008
   179         HC     10    LYS    HB2    179     0.0362      1.008
   180         CT     10    LYS     CG    180     0.0187      12.01
   181         HC     10    LYS    HG1    181     0.0103      1.008
   182         HC     10    LYS    HG2    182     0.0103      1.008
   183         CT     10    LYS     CD    183    -0.0479      12.01
   184         HC     10    LYS    HD1    184     0.0621      1.008
   185         HC     10    LYS    HD2    185     0.0621      1.008
   186         CT     10    LYS     CE    186    -0.0143      12.01
   187         HP     10    LYS    HE1    187     0.1135      1.008
   188         HP     10    LYS    HE2    188     0.1135      1.008
   189         N3     10    LYS     NZ    189    -0.3854      14.01
   190          H     10    LYS    HZ1    190       0.34      1.008
   191          H     10    LYS    HZ2    191       0.34      1.008
   192          H     10    LYS    HZ3    192       0.34      1.008
   193          C     10    LYS      C    193     0.7341      12.01
   194          O     10    LYS      O    194    -0.5894         16   ; qtot 5
; residue  11 LEU rtp LEU  q  0.0
   195          N     11    LEU      N    195    -0.4157      14.01
   196          H     11    LEU      H    196     0.2719      1.008
   197         CT     11    LEU     CA    197    -0.0518      12.01
   198         H1     11    LEU     HA    198     0.0922      1.008
   199         CT     11    LEU     CB    199    -0.1102      12.01
   200         HC     11    LEU    HB1    200     0.0457      1.008
   201         HC     11    LEU    HB2    201     0.0457      1.008
   202         CT     11    LEU     CG    202     0.3531      12.01
   203         HC     11    LEU     HG    203    -0.0361      1.008
   204         CT     11    LEU    CD1    204    -0.4121      12.01
   205         HC     11    LEU   HD11    205        0.1      1.008
   206         HC     11    LEU   HD12    206        0.1      1.008
   207         HC     11    LEU   HD13    207        0.1      1.008
   208         CT     11    LEU    CD2    208    -0.4121      12.01
   209         HC     11    LEU   HD21    209        0.1      1.008
   210         HC     11    LEU   HD22    210        0.1      1.008
   211         HC     11    LEU   HD23    211        0.1      1.008
   212          C     11    LEU      C    212     0.5973      12.01
   213          O     11    LEU      O    213    -0.5679         16   ; qtot 5
; residue  12 PHE rtp PHE  q  0.0
   214          N     12    PHE      N    214    -0.4157      14.01
   215          H     12    PHE      H    215     0.2719      1.008
   216         CT     12    PHE     CA    216    -0.0024      12.01
   217         H1     12    PHE     HA    217     0.0978      1.008
   218         CT     12    PHE     CB    218    -0.0343      12.01
   219         HC     12    PHE    HB1    219     0.0295      1.008
   220         HC     12    PHE    HB2    220     0.0295      1.008
   221         CA     12    PHE     CG    221     0.0118      12.01
   222         CA     12    PHE    CD1    222    -0.1256      12.01
   223         HA     12    PHE    HD1    223      0.133      1.008
   224         CA     12    PHE    CE1    224    -0.1704      12.01
   225         HA     12    PHE    HE1    225      0.143      1.008
   226         CA     12    PHE     CZ    226    -0.1072      12.01
   227         HA     12    PHE     HZ    227     0.1297      1.008
   228         CA     12    PHE    CE2    228    -0.1704      12.01
   229         HA     12    PHE    HE2    229      0.143      1.008
   230         CA     12    PHE    CD2    230    -0.1256      12.01
   231         HA     12    PHE    HD2    231      0.133      1.008
   232          C     12    PHE      C    232     0.5973      12.01
   233          O     12    PHE      O    233    -0.5679         16   ; qtot 5
; residue  13 SER rtp SER  q  0.0
   234          N     13    SER      N    234    -0.4157      14.01
   235          H     13    SER      H    235     0.2719      1.008
   236         CT     13    SER     CA    236    -0.0249      12.01
   237         H1     13    SER     HA    237     0.0843      1.008
   238         CT     13    SER     CB    238     0.2117      12.01
   239         H1     13    SER    HB1    239     0.0352      1.008
   240         H1     13    SER    HB2    240     0.0352      1.008
   241         OH     13    SER     OG    241    -0.6546         16
   242         HO     13    SER     HG    242     0.4275      1.008
   243          C     13    SER      C    243     0.5973      12.01
   244          O     13    SER      O    244    -0.5679         16   ; qtot 5
; residue  14 LYS rtp LYS  q +1.0
   245          N     14    LYS      N    245    -0.3479      14.01
   246          H     14    LYS      H    246     0.2747      1.008
   247         CT     14    LYS     CA    247      -0.24      12.01
   248         H1     14    LYS     HA    248     0.1426      1.008
   249         CT     14    LYS     CB    249    -0.0094      12.01
   250         HC     14    LYS    HB1    250     0.0362      1.008
   251         HC     14    LYS    HB2    251     0.0362      1.008
   252         CT     14    LYS     CG    252     0.0187      12.01
   253         HC     14    LYS    HG1    253     0.0103      1.008
   254         HC     14    LYS    HG2    254     0.0103      1.008
   255         CT     14    LYS     CD    255    -0.0479      12.01
   256         HC     14    LYS    HD1    256     0.0621      1.008
   257         HC     14    LYS    HD2    257     0.0621      1.008
   258         CT     14    LYS     CE    258    -0.0143      12.01
   259         HP     14    LYS    HE1    259     0.1135      1.008
   260         HP     14    LYS    HE2    260     0.1135      1.008
   261         N3     14    LYS     NZ    261    -0.3854      14.01
   262          H     14    LYS    HZ1    262       0.34      1.008
   263          H     14    LYS    HZ2    263       0.34      1.008
   264          H     14    LYS    HZ3    264       0.34      1.008
   265          C     14    LYS      C    265     0.7341      12.01
   266          O     14    LYS      O    266    -0.5894         16   ; qtot 6
; residue  15 ILE rtp ILE  q  0.0
   267          N     15    ILE      N    267    -0.4157      14.01
   268          H     15    ILE      H    268     0.2719      1.008
   269         CT     15    ILE     CA    269    -0.0597      12.01
   270         H1     15    ILE     HA    270     0.0869      1.008
   271         CT     15    ILE     CB    271     0.1303      12.01
   272         HC     15    ILE     HB    272     0.0187      1.008
   273         CT     15    ILE    CG2    273    -0.3204      12.01
   274         HC     15    ILE   HG21    274     0.0882      1.008
   275         HC     15    ILE   HG22    275     0.0882      1.008
   276         HC     15    ILE   HG23    276     0.0882      1.008
   277         CT     15    ILE    CG1    277     -0.043      12.01
   278         HC     15    ILE   HG11    278     0.0236      1.008
   279         HC     15    ILE   HG12    279     0.0236      1.008
   280         CT     15    ILE     CD    280     -0.066      12.01
   281         HC     15    ILE    HD1    281     0.0186      1.008
   282         HC     15    ILE    HD2    282     0.0186      1.008
   283         HC     15    ILE    HD3    283     0.0186      1.008
   284          C     15    ILE      C    284     0.5973      12.01
   285          O     15    ILE      O    285    -0.5679         16   ; qtot 6
; residue  16 GLN rtp GLN  q  0.0
   286          N     16    GLN      N    286    -0.4157      14.01
   287          H     16    GLN      H    287     0.2719      1.008
   288         CT     16    GLN     CA    288    -0.0031      12.01
   289         H1     16    GLN     HA    289      0.085      1.008
   290         CT     16    GLN     CB    290    -0.0036      12.01
   291         HC     16    GLN    HB1    291     0.0171      1.008
   292         HC     16    GLN    HB2    292     0.0171      1.008
   293         CT     16    GLN     CG    293    -0.0645      12.01
   294         HC     16    GLN    HG1    294     0.0352      1.008
   295         HC     16    GLN    HG2    295     0.0352      1.008
   296          C     16    GLN     CD    296     0.6951      12.01
   297          O     16    GLN    OE1    297    -0.6086         16
   298          N     16    GLN    NE2    298    -0.9407      14.01
   299          H     16    GLN   HE21    299     0.4251      1.008
   300          H     16    GLN   HE22    300     0.4251      1.008
   301          C     16    GLN      C    301     0.5973      12.01
   302          O     16    GLN      O    302    -0.5679         16   ; qtot 6
; residue  17 ASN rtp ASN  q  0.0
   303          N     17    ASN      N    303    -0.4157      14.01
   304          H     17    ASN      H    304     0.2719      1.008
   305         CT     17    ASN     CA    305     0.0143      12.01
   306         H1     17    ASN     HA    306     0.1048      1.008
   307         CT     17    ASN     CB    307    -0.2041      12.01
   308         HC     17    ASN    HB1    308     0.0797      1.008
   309         HC     17    ASN    HB2    309     0.0797      1.008
   310          C     17    ASN     CG    310      0.713      12.01
   311          O     17    ASN    OD1    311    -0.5931         16
   312          N     17    ASN    ND2    312    -0.9191      14.01
   313          H     17    ASN   HD21    313     0.4196      1.008
   314          H     17    ASN   HD22    314     0.4196      1.008
   315          C     17    ASN      C    315     0.5973      12.01
   316          O     17    ASN      O    316    -0.5679         16   ; qtot 6
; residue  18 ASP rtp ASP  q -1.0
   317          N     18    ASP      N    317    -0.5163      14.01
   318          H     18    ASP      H    318     0.2936      1.008
   319         CT     18    ASP     CA    319     0.0381      12.01
   320         H1     18    ASP     HA    320      0.088      1.008
   321         CT     18    ASP     CB    321    -0.0303      12.01
   322         HC     18    ASP    HB1    322    -0.0122      1.008
   323         HC     18    ASP    HB2    323    -0.0122      1.008
   324          C     18    ASP     CG    324     0.7994      12.01
   325         O2     18    ASP    OD1    325    -0.8014         16
   326         O2     18    ASP    OD2    326    -0.8014         16
   327          C     18    ASP      C    327     0.5366      12.01
   328          O     18    ASP      O    328    -0.5819         16   ; qtot 5
; residue  19 LYS rtp LYS  q +1.0
   329          N     19    LYS      N    329    -0.3479      14.01
   330          H     19    LYS      H    330     0.2747      1.008
   331         CT     19    LYS     CA    331      -0.24      12.01
   332         H1     19    LYS     HA    332     0.1426      1.008
   333         CT     19    LYS     CB    333    -0.0094      12.01
   334         HC     19    LYS    HB1    334     0.0362      1.008
   335         HC     19    LYS    HB2    335     0.0362      1.008
   336         CT     19    LYS     CG    336     0.0187      12.01
   337         HC     19    LYS    HG1    337     0.0103      1.008
   338         HC     19    LYS    HG2    338     0.0103      1.008
   339         CT     19    LYS     CD    339    -0.0479      12.01
   340         HC     19    LYS    HD1    340     0.0621      1.008
   341         HC     19    LYS    HD2    341     0.0621      1.008
   342         CT     19    LYS     CE    342    -0.0143      12.01
   343         HP     19    LYS    HE1    343     0.1135      1.008
   344         HP     19    LYS    HE2    344     0.1135      1.008
   345         N3     19    LYS     NZ    345    -0.3854      14.01
   346          H     19    LYS    HZ1    346       0.34      1.008
   347          H     19    LYS    HZ2    347       0.34      1.008
   348          H     19    LYS    HZ3    348       0.34      1.008
   349          C     19    LYS      C    349     0.7341      12.01
   350          O     19    LYS      O    350    -0.5894         16   ; qtot 6
; residue  20 NH2 rtp NH2  q  0.0
   351          N     20    NH2      N    351     -0.463      14.01
   352          H     20    NH2     H1    352     0.2315      1.008
   353          H     20    NH2     H2    353     0.2315      1.008   ; qtot 6

[ bonds ]
;  ai    aj funct            c0            c1            c2            c3
    1     2     1 
    1     3     1 
    1     4     1 
    1     5     1 
    5     6     1 
    5     7     1 
    5    11     1 
    7     8     1 
    7     9     1 
    7    10     1 
   11    12     1 
   11    13     1 
   13    14     1 
   13    15     1 
   15    16     1 
   15    17     1 
   15    33     1 
   17    18     1 
   17    19     1 
   17    20     1 
   20    21     1 
   20    22     1 
   20    23     1 
   23    24     1 
   23    25     1 
   23    26     1 
   26    27     1 
   26    28     1 
   26    29     1 
   29    30     1 
   29    31     1 
   29    32     1 
   33    34     1 
   33    35     1 
   35    36     1 
   35    37     1 
   37    38     1 
   37    39     1 
   37    55     1 
   39    40     1 
   39    41     1 
   39    42     1 
   42    43     1 
   42    44     1 
   42    45     1 
   45    46     1 
   45    47     1 
   45    48     1 
   48    49     1 
   48    50     1 
   48    51     1 
   51    52     1 
   51    53     1 
   51    54     1 
   55    56     1 
   55    57     1 
   57    58     1 
   57    59     1 
   59    60     1 
   59    61     1 
   59    71     1 
   61    62     1 
   61    63     1 
   61    67     1 
   63    64     1 
   63    65     1 
   63    66     1 
   67    68     1 
   67    69     1 
   67    70     1 
   71    72     1 
   71    73     1 
   73    74     1 
   73    75     1 
   75    76     1 
   75    77     1 
   75    91     1 
   77    78     1 
   77    79     1 
   77    80     1 
   80    81     1 
   80    89     1 
   81    82     1 
   81    83     1 
   83    84     1 
   83    85     1 
   85    86     1 
   85    87     1 
   87    88     1 
   87    89     1 
   89    90     1 
   91    92     1 
   91    93     1 
   93    94     1 
   93    95     1 
   95    96     1 
   95    97     1 
   95   113     1 
   97    98     1 
   97    99     1 
   97   100     1 
  100   101     1 
  100   102     1 
  100   103     1 
  103   104     1 
  103   105     1 
  103   106     1 
  106   107     1 
  106   108     1 
  106   109     1 
  109   110     1 
  109   111     1 
  109   112     1 
  113   114     1 
  113   115     1 
  115   116     1 
  115   117     1 
  117   118     1 
  117   119     1 
  117   137     1 
  119   120     1 
  119   121     1 
  119   122     1 
  122   123     1 
  122   124     1 
  122   125     1 
  125   126     1 
  125   127     1 
  125   128     1 
  128   129     1 
  128   130     1 
  130   131     1 
  130   134     1 
  131   132     1 
  131   133     1 
  134   135     1 
  134   136     1 
  137   138     1 
  137   139     1 
  139   140     1 
  139   141     1 
  141   142     1 
  141   143     1 
  141   156     1 
  143   144     1 
  143   145     1 
  143   146     1 
  146   147     1 
  146   148     1 
  146   152     1 
  148   149     1 
  148   150     1 
  148   151     1 
  152   153     1 
  152   154     1 
  152   155     1 
  156   157     1 
  156   158     1 
  158   159     1 
  158   160     1 
  160   161     1 
  160   162     1 
  160   171     1 
  162   163     1 
  162   164     1 
  162   165     1 
  165   166     1 
  165   167     1 
  165   168     1 
  168   169     1 
  168   170     1 
  171   172     1 
  171   173     1 
  173   174     1 
  173   175     1 
  175   176     1 
  175   177     1 
  175   193     1 
  177   178     1 
  177   179     1 
  177   180     1 
  180   181     1 
  180   182     1 
  180   183     1 
  183   184     1 
  183   185     1 
  183   186     1 
  186   187     1 
  186   188     1 
  186   189     1 
  189   190     1 
  189   191     1 
  189   192     1 
  193   194     1 
  193   195     1 
  195   196     1 
  195   197     1 
  197   198     1 
  197   199     1 
  197   212     1 
  199   200     1 
  199   201     1 
  199   202     1 
  202   203     1 
  202   204     1 
  202   208     1 
  204   205     1 
  204   206     1 
  204   207     1 
  208   209     1 
  208   210     1 
  208   211     1 
  212   213     1 
  212   214     1 
  214   215     1 
  214   216     1 
  216   217     1 
  216   218     1 
  216   232     1 
  218   219     1 
  218   220     1 
  218   221     1 
  221   222     1 
  221   230     1 
  222   223     1 
  222   224     1 
  224   225     1 
  224   226     1 
  226   227     1 
  226   228     1 
  228   229     1 
  228   230     1 
  230   231     1 
  232   233     1 
  232   234     1 
  234   235     1 
  234   236     1 
  236   237     1 
  236   238     1 
  236   243     1 
  238   239     1 
  238   240     1 
  238   241     1 
  241   242     1 
  243   244     1 
  243   245     1 
  245   246     1 
  245   247     1 
  247   248     1 
  247   249     1 
  247   265     1 
  249   250     1 
  249   251     1 
  249   252     1 
  252   253     1 
  252   254     1 
  252   255     1 
  255   256     1 
  255   257     1 
  255   258     1 
  258   259     1 
  258   260     1 
  258   261     1 
  261   262     1 
  261   263     1 
  261   264     1 
  265   266     1 
  265   267     1 
  267   268     1 
  267   269     1 
  269   270     1 
  269   271     1 
  269   284     1 
  271   272     1 
  271   273     1 
  271   277     1 
  273   274     1 
  273   275     1 
  273   276     1 
  277   278     1 
  277   279     1 
  277   280     1 
  280   281     1 
  280   282     1 
  280   283     1 
  284   285     1 
  284   286     1 
  286   287     1 
  286   288     1 
  288   289     1 
  288   290     1 
  288   301     1 
  290   291     1 
  290   292     1 
  290   293     1 
  293   294     1 
  293   295     1 
  293   296     1 
  296   297     1 
  296   298     1 
  298   299     1 
  298   300     1 
  301   302     1 
  301   303     1 
  303   304     1 
  303   305     1 
  305   306     1 
  305   307     1 
  305   315     1 
  307   308     1 
  307   309     1 
  307   310     1 
  310   311     1 
  310   312     1 
  312   313     1 
  312   314     1 
  315   316     1 
  315   317     1 
  317   318     1 
  317   319     1 
  319   320     1 
  319   321     1 
  319   327     1 
  321   322     1 
  321   323     1 
  321   324     1 
  324   325     1 
  324   326     1 
  327   328     1 
  327   329     1 
  329   330     1 
  329   331     1 
  331   332     1 
  331   333     1 
  331   349     1 
  333   334     1 
  333   335     1 
  333   336     1 
  336   337     1 
  336   338     1 
  336   339     1 
  339   340     1 
  339   341     1 
  339   342     1 
  342   343     1 
  342   344     1 
  342   345     1 
  345   346     1 
  345   347     1 
  345   348     1 
  349   350     1 
  349   351     1 
  351   352     1 
  351   353     1 

[ pairs ]
;  ai    aj funct            c0            c1            c2            c3
    1     8     1 
    1     9     1 
    1    10     1 
    1    12     1 
    1    13     1 
    2     6     1 
    2     7     1 
    2    11     1 
    3     6     1 
    3     7     1 
    3    11     1 
    4     6     1 
    4     7     1 
    4    11     1 
    5    14     1 
    5    15     1 
    6     8     1 
    6     9     1 
    6    10     1 
    6    12     1 
    6    13     1 
    7    12     1 
    7    13     1 
    8    11     1 
    9    11     1 
   10    11     1 
   11    16     1 
   11    17     1 
   11    33     1 
   12    14     1 
   12    15     1 
   13    18     1 
   13    19     1 
   13    20     1 
   13    34     1 
   13    35     1 
   14    16     1 
   14    17     1 
   14    33     1 
   15    21     1 
   15    22     1 
   15    23     1 
   15    36     1 
   15    37     1 
   16    18     1 
   16    19     1 
   16    20     1 
   16    34     1 
   16    35     1 
   17    24     1 
   17    25     1 
   17    26     1 
   17    34     1 
   17    35     1 
   18    21     1 
   18    22     1 
   18    23     1 
   18    33     1 
   19    21     1 
   19    22     1 
   19    23     1 
   19    33     1 
   20    27     1 
   20    28     1 
   20    29     1 
   20    33     1 
   21    24     1 
   21    25     1 
   21    26     1 
   22    24     1 
   22    25     1 
   22    26     1 
   23    30     1 
   23    31     1 
   23    32     1 
   24    27     1 
   24    28     1 
   24    29     1 
   25    27     1 
   25    28     1 
   25    29     1 
   27    30     1 
   27    31     1 
   27    32     1 
   28    30     1 
   28    31     1 
   28    32     1 
   33    38     1 
   33    39     1 
   33    55     1 
   34    36     1 
   34    37     1 
   35    40     1 
   35    41     1 
   35    42     1 
   35    56     1 
   35    57     1 
   36    38     1 
   36    39     1 
   36    55     1 
   37    43     1 
   37    44     1 
   37    45     1 
   37    58     1 
   37    59     1 
   38    40     1 
   38    41     1 
   38    42     1 
   38    56     1 
   38    57     1 
   39    46     1 
   39    47     1 
   39    48     1 
   39    56     1 
   39    57     1 
   40    43     1 
   40    44     1 
   40    45     1 
   40    55     1 
   41    43     1 
   41    44     1 
   41    45     1 
   41    55     1 
   42    49     1 
   42    50     1 
   42    51     1 
   42    55     1 
   43    46     1 
   43    47     1 
   43    48     1 
   44    46     1 
   44    47     1 
   44    48     1 
   45    52     1 
   45    53     1 
   45    54     1 
   46    49     1 
   46    50     1 
   46    51     1 
   47    49     1 
   47    50     1 
   47    51     1 
   49    52     1 
   49    53     1 
   49    54     1 
   50    52     1 
   50    53     1 
   50    54     1 
   55    60     1 
   55    61     1 
   55    71     1 
   56    58     1 
   56    59     1 
   57    62     1 
   57    63     1 
   57    67     1 
   57    72     1 
   57    73     1 
   58    60     1 
   58    61     1 
   58    71     1 
   59    64     1 
   59    65     1 
   59    66     1 
   59    68     1 
   59    69     1 
   59    70     1 
   59    74     1 
   59    75     1 
   60    62     1 
   60    63     1 
   60    67     1 
   60    72     1 
   60    73     1 
   61    72     1 
   61    73     1 
   62    64     1 
   62    65     1 
   62    66     1 
   62    68     1 
   62    69     1 
   62    70     1 
   62    71     1 
   63    68     1 
   63    69     1 
   63    70     1 
   63    71     1 
   64    67     1 
   65    67     1 
   66    67     1 
   67    71     1 
   71    76     1 
   71    77     1 
   71    91     1 
   72    74     1 
   72    75     1 
   73    78     1 
   73    79     1 
   73    80     1 
   73    92     1 
   73    93     1 
   74    76     1 
   74    77     1 
   74    91     1 
   75    81     1 
   75    89     1 
   75    94     1 
   75    95     1 
   76    78     1 
   76    79     1 
   76    80     1 
   76    92     1 
   76    93     1 
   77    82     1 
   77    83     1 
   77    87     1 
   77    90     1 
   77    92     1 
   77    93     1 
   78    81     1 
   78    89     1 
   78    91     1 
   79    81     1 
   79    89     1 
   79    91     1 
   80    84     1 
   80    85     1 
   80    88     1 
   80    91     1 
   81    86     1 
   81    87     1 
   81    90     1 
   82    84     1 
   82    85     1 
   82    89     1 
   83    88     1 
   83    89     1 
   84    86     1 
   84    87     1 
   85    90     1 
   86    88     1 
   86    89     1 
   88    90     1 
   91    96     1 
   91    97     1 
   91   113     1 
   92    94     1 
   92    95     1 
   93    98     1 
   93    99     1 
   93   100     1 
   93   114     1 
   93   115     1 
   94    96     1 
   94    97     1 
   94   113     1 
   95   101     1 
   95   102     1 
   95   103     1 
   95   116     1 
   95   117     1 
   96    98     1 
   96    99     1 
   96   100     1 
   96   114     1 
   96   115     1 
   97   104     1 
   97   105     1 
   97   106     1 
   97   114     1 
   97   115     1 
   98   101     1 
   98   102     1 
   98   103     1 
   98   113     1 
   99   101     1 
   99   102     1 
   99   103     1 
   99   113     1 
  100   107     1 
  100   108     1 
  100   109     1 
  100   113     1 
  101   104     1 
  101   105     1 
  101   106     1 
  102   104     1 
  102   105     1 
  102   106     1 
  103   110     1 
  103   111     1 
  103   112     1 
  104   107     1 
  104   108     1 
  104   109     1 
  105   107     1 
  105   108     1 
  105   109     1 
  107   110     1 
  107   111     1 
  107   112     1 
  108   110     1 
  108   111     1 
  108   112     1 
  113   118     1 
  113   119     1 
  113   137     1 
  114   116     1 
  114   117     1 
  115   120     1 
  115   121     1 
  115   122     1 
  115   138     1 
  115   139     1 
  116   118     1 
  116   119     1 
  116   137     1 
  117   123     1 
  117   124     1 
  117   125     1 
  117   140     1 
  117   141     1 
  118   120     1 
  118   121     1 
  118   122     1 
  118   138     1 
  118   139     1 
  119   126     1 
  119   127     1 
  119   128     1 
  119   138     1 
  119   139     1 
  120   123     1 
  120   124     1 
  120   125     1 
  120   137     1 
  121   123     1 
  121   124     1 
  121   125     1 
  121   137     1 
  122   129     1 
  122   130     1 
  122   137     1 
  123   126     1 
  123   127     1 
  123   128     1 
  124   126     1 
  124   127     1 
  124   128     1 
  125   131     1 
  125   134     1 
  126   129     1 
  126   130     1 
  127   129     1 
  127   130     1 
  128   132     1 
  128   133     1 
  128   135     1 
  128   136     1 
  129   131     1 
  129   134     1 
  131   135     1 
  131   136     1 
  132   134     1 
  133   134     1 
  137   142     1 
  137   143     1 
  137   156     1 
  138   140     1 
  138   141     1 
  139   144     1 
  139   145     1 
  139   146     1 
  139   157     1 
  139   158     1 
  140   142     1 
  140   143     1 
  140   156     1 
  141   147     1 
  141   148     1 
  141   152     1 
  141   159     1 
  141   160     1 
  142   144     1 
  142   145     1 
  142   146     1 
  142   157     1 
  142   158     1 
  143   149     1 
  143   150     1 
  143   151     1 
  143   153     1 
  143   154     1 
  143   155     1 
  143   157     1 
  143   158     1 
  144   147     1 
  144   148     1 
  144   152     1 
  144   156     1 
  145   147     1 
  145   148     1 
  145   152     1 
  145   156     1 
  146   156     1 
  147   149     1 
  147   150     1 
  147   151     1 
  147   153     1 
  147   154     1 
  147   155     1 
  148   153     1 
  148   154     1 
  148   155     1 
  149   152     1 
  150   152     1 
  151   152     1 
  156   161     1 
  156   162     1 
  156   171     1 
  157   159     1 
  157   160     1 
  158   163     1 
  158   164     1 
  158   165     1 
  158   172     1 
  158   173     1 
  159   161     1 
  159   162     1 
  159   171     1 
  160   166     1 
  160   167     1 
  160   168     1 
  160   174     1 
  160   175     1 
  161   163     1 
  161   164     1 
  161   165     1 
  161   172     1 
  161   173     1 
  162   169     1 
  162   170     1 
  162   172     1 
  162   173     1 
  163   166     1 
  163   167     1 
  163   168     1 
  163   171     1 
  164   166     1 
  164   167     1 
  164   168     1 
  164   171     1 
  165   171     1 
  166   169     1 
  166   170     1 
  167   169     1 
  167   170     1 
  171   176     1 
  171   177     1 
  171   193     1 
  172   174     1 
  172   175     1 
  173   178     1 
  173   179     1 
  173   180     1 
  173   194     1 
  173   195     1 
  174   176     1 
  174   177     1 
  174   193     1 
  175   181     1 
  175   182     1 
  175   183     1 
  175   196     1 
  175   197     1 
  176   178     1 
  176   179     1 
  176   180     1 
  176   194     1 
  176   195     1 
  177   184     1 
  177   185     1 
  177   186     1 
  177   194     1 
  177   195     1 
  178   181     1 
  178   182     1 
  178   183     1 
  178   193     1 
  179   181     1 
  179   182     1 
  179   183     1 
  179   193     1 
  180   187     1 
  180   188     1 
  180   189     1 
  180   193     1 
  181   184     1 
  181   185     1 
  181   186     1 
  182   184     1 
  182   185     1 
  182   186     1 
  183   190     1 
  183   191     1 
  183   192     1 
  184   187     1 
  184   188     1 
  184   189     1 
  185   187     1 
  185   188     1 
  185   189     1 
  187   190     1 
  187   191     1 
  187   192     1 
  188   190     1 
  188   191     1 
  188   192     1 
  193   198     1 
  193   199     1 
  193   212     1 
  194   196     1 
  194   197     1 
  195   200     1 
  195   201     1 
  195   202     1 
  195   213     1 
  195   214     1 
  196   198     1 
  196   199     1 
  196   212     1 
  197   203     1 
  197   204     1 
  197   208     1 
  197   215     1 
  197   216     1 
  198   200     1 
  198   201     1 
  198   202     1 
  198   213     1 
  198   214     1 
  199   205     1 
  199   206     1 
  199   207     1 
  199   209     1 
  199   210     1 
  199   211     1 
  199   213     1 
  199   214     1 
  200   203     1 
  200   204     1 
  200   208     1 
  200   212     1 
  201   203     1 
  201   204     1 
  201   208     1 
  201   212     1 
  202   212     1 
  203   205     1 
  203   206     1 
  203   207     1 
  203   209     1 
  203   210     1 
  203   211     1 
  204   209     1 
  204   210     1 
  204   211     1 
  205   208     1 
  206   208     1 
  207   208     1 
  212   217     1 
  212   218     1 
  212   232     1 
  213   215     1 
  213   216     1 
  214   219     1 
  214   220     1 
  214   221     1 
  214   233     1 
  214   234     1 
  215   217     1 
  215   218     1 
  215   232     1 
  216   222     1 
  216   230     1 
  216   235     1 
  216   236     1 
  217   219     1 
  217   220     1 
  217   221     1 
  217   233     1 
  217   234     1 
  218   223     1 
  218   224     1 
  218   228     1 
  218   231     1 
  218   233     1 
  218   234     1 
  219   222     1 
  219   230     1 
  219   232     1 
  220   222     1 
  220   230     1 
  220   232     1 
  221   225     1 
  221   226     1 
  221   229     1 
  221   232     1 
  222   227     1 
  222   228     1 
  222   231     1 
  223   225     1 
  223   226     1 
  223   230     1 
  224   229     1 
  224   230     1 
  225   227     1 
  225   228     1 
  226   231     1 
  227   229     1 
  227   230     1 
  229   231     1 
  232   237     1 
  232   238     1 
  232   243     1 
  233   235     1 
  233   236     1 
  234   239     1 
  234   240     1 
  234   241     1 
  234   244     1 
  234   245     1 
  235   237     1 
  235   238     1 
  235   243     1 
  236   242     1 
  236   246     1 
  236   247     1 
  237   239     1 
  237   240     1 
  237   241     1 
  237   244     1 
  237   245     1 
  238   244     1 
  238   245     1 
  239   242     1 
  239   243     1 
  240   242     1 
  240   243     1 
  241   243     1 
  243   248     1 
  243   249     1 
  243   265     1 
  244   246     1 
  244   247     1 
  245   250     1 
  245   251     1 
  245   252     1 
  245   266     1 
  245   267     1 
  246   248     1 
  246   249     1 
  246   265     1 
  247   253     1 
  247   254     1 
  247   255     1 
  247   268     1 
  247   269     1 
  248   250     1 
  248   251     1 
  248   252     1 
  248   266     1 
  248   267     1 
  249   256     1 
  249   257     1 
  249   258     1 
  249   266     1 
  249   267     1 
  250   253     1 
  250   254     1 
  250   255     1 
  250   265     1 
  251   253     1 
  251   254     1 
  251   255     1 
  251   265     1 
  252   259     1 
  252   260     1 
  252   261     1 
  252   265     1 
  253   256     1 
  253   257     1 
  253   258     1 
  254   256     1 
  254   257     1 
  254   258     1 
  255   262     1 
  255   263     1 
  255   264     1 
  256   259     1 
  256   260     1 
  256   261     1 
  257   259     1 
  257   260     1 
  257   261     1 
  259   262     1 
  259   263     1 
  259   264     1 
  260   262     1 
  260   263     1 
  260   264     1 
  265   270     1 
  265   271     1 
  265   284     1 
  266   268     1 
  266   269     1 
  267   272     1 
  267   273     1 
  267   277     1 
  267   285     1 
  267   286     1 
  268   270     1 
  268   271     1 
  268   284     1 
  269   274     1 
  269   275     1 
  269   276     1 
  269   278     1 
  269   279     1 
  269   280     1 
  269   287     1 
  269   288     1 
  270   272     1 
  270   273     1 
  270   277     1 
  270   285     1 
  270   286     1 
  271   281     1 
  271   282     1 
  271   283     1 
  271   285     1 
  271   286     1 
  272   274     1 
  272   275     1 
  272   276     1 
  272   278     1 
  272   279     1 
  272   280     1 
  272   284     1 
  273   278     1 
  273   279     1 
  273   280     1 
  273   284     1 
  274   277     1 
  275   277     1 
  276   277     1 
  277   284     1 
  278   281     1 
  278   282     1 
  278   283     1 
  279   281     1 
  279   282     1 
  279   283     1 
  284   289     1 
  284   290     1 
  284   301     1 
  285   287     1 
  285   288     1 
  286   291     1 
  286   292     1 
  286   293     1 
  286   302     1 
  286   303     1 
  287   289     1 
  287   290     1 
  287   301     1 
  288   294     1 
  288   295     1 
  288   296     1 
  288   304     1 
  288   305     1 
  289   291     1 
  289   292     1 
  289   293     1 
  289   302     1 
  289   303     1 
  290   297     1 
  290   298     1 
  290   302     1 
  290   303     1 
  291   294     1 
  291   295     1 
  291   296     1 
  291   301     1 
  292   294     1 
  292   295     1 
  292   296     1 
  292   301     1 
  293   299     1 
  293   300     1 
  293   301     1 
  294   297     1 
  294   298     1 
  295   297     1 
  295   298     1 
  297   299     1 
  297   300     1 
  301   306     1 
  301   307     1 
  301   315     1 
  302   304     1 
  302   305     1 
  303   308     1 
  303   309     1 
  303   310     1 
  303   316     1 
  303   317     1 
  304   306     1 
  304   307     1 
  304   315     1 
  305   311     1 
  305   312     1 
  305   318     1 
  305   319     1 
  306   308     1 
  306   309     1 
  306   310     1 
  306   316     1 
  306   317     1 
  307   313     1 
  307   314     1 
  307   316     1 
  307   317     1 
  308   311     1 
  308   312     1 
  308   315     1 
  309   311     1 
  309   312     1 
  309   315     1 
  310   315     1 
  311   313     1 
  311   314     1 
  315   320     1 
  315   321     1 
  315   327     1 
  316   318     1 
  316   319     1 
  317   322     1 
  317   323     1 
  317   324     1 
  317   328     1 
  317   329     1 
  318   320     1 
  318   321     1 
  318   327     1 
  319   325     1 
  319   326     1 
  319   330     1 
  319   331     1 
  320   322     1 
  320   323     1 
  320   324     1 
  320   328     1 
  320   329     1 
  321   328     1 
  321   329     1 
  322   325     1 
  322   326     1 
  322   327     1 
  323   325     1 
  323   326     1 
  323   327     1 
  324   327     1 
  327   332     1 
  327   333     1 
  327   349     1 
  328   330     1 
  328   331     1 
  329   334     1 
  329   335     1 
  329   336     1 
  329   350     1 
  329   351     1 
  330   332     1 
  330   333     1 
  330   349     1 
  331   337     1 
  331   338     1 
  331   339     1 
  331   352     1 
  331   353     1 
  332   334     1 
  332   335     1 
  332   336     1 
  332   350     1 
  332   351     1 
  333   340     1 
  333   341     1 
  333   342     1 
  333   350     1 
  333   351     1 
  334   337     1 
  334   338     1 
  334   339     1 
  334   349     1 
  335   337     1 
  335   338     1 
  335   339     1 
  335   349     1 
  336   343     1 
  336   344     1 
  336   345     1 
  336   349     1 
  337   340     1 
  337   341     1 
  337   342     1 
  338   340     1 
  338   341     1 
  338   342     1 
  339   346     1 
  339   347     1 
  339   348     1 
  340   343     1 
  340   344     1 
  340   345     1 
  341   343     1 
  341   344     1 
  341   345     1 
  343   346     1 
  343   347     1 
  343   348     1 
  344   346     1 
  344   347     1 
  344   348     1 
  350   352     1 
  350   353     1 

[ angles ]
;  ai    aj    ak funct            c0            c1            c2            c3
    2     1     3     1 
    2     1     4     1 
    2     1     5     1 
    3     1     4     1 
    3     1     5     1 
    4     1     5     1 
    1     5     6     1 
    1     5     7     1 
    1     5    11     1 
    6     5     7     1 
    6     5    11     1 
    7     5    11     1 
    5     7     8     1 
    5     7     9     1 
    5     7    10     1 
    8     7     9     1 
    8     7    10     1 
    9     7    10     1 
    5    11    12     1 
    5    11    13     1 
   12    11    13     1 
   11    13    14     1 
   11    13    15     1 
   14    13    15     1 
   13    15    16     1 
   13    15    17     1 
   13    15    33     1 
   16    15    17     1 
   16    15    33     1 
   17    15    33     1 
   15    17    18     1 
   15    17    19     1 
   15    17    20     1 
   18    17    19     1 
   18    17    20     1 
   19    17    20     1 
   17    20    21     1 
   17    20    22     1 
   17    20    23     1 
   21    20    22     1 
   21    20    23     1 
   22    20    23     1 
   20    23    24     1 
   20    23    25     1 
   20    23    26     1 
   24    23    25     1 
   24    23    26     1 
   25    23    26     1 
   23    26    27     1 
   23    26    28     1 
   23    26    29     1 
   27    26    28     1 
   27    26    29     1 
   28    26    29     1 
   26    29    30     1 
   26    29    31     1 
   26    29    32     1 
   30    29    31     1 
   30    29    32     1 
   31    29    32     1 
   15    33    34     1 
   15    33    35     1 
   34    33    35     1 
   33    35    36     1 
   33    35    37     1 
   36    35    37     1 
   35    37    38     1 
   35    37    39     1 
   35    37    55     1 
   38    37    39     1 
   38    37    55     1 
   39    37    55     1 
   37    39    40     1 
   37    39    41     1 
   37    39    42     1 
   40    39    41     1 
   40    39    42     1 
   41    39    42     1 
   39    42    43     1 
   39    42    44     1 
   39    42    45     1 
   43    42    44     1 
   43    42    45     1 
   44    42    45     1 
   42    45    46     1 
   42    45    47     1 
   42    45    48     1 
   46    45    47     1 
   46    45    48     1 
   47    45    48     1 
   45    48    49     1 
   45    48    50     1 
   45    48    51     1 
   49    48    50     1 
   49    48    51     1 
   50    48    51     1 
   48    51    52     1 
   48    51    53     1 
   48    51    54     1 
   52    51    53     1 
   52    51    54     1 
   53    51    54     1 
   37    55    56     1 
   37    55    57     1 
   56    55    57     1 
   55    57    58     1 
   55    57    59     1 
   58    57    59     1 
   57    59    60     1 
   57    59    61     1 
   57    59    71     1 
   60    59    61     1 
   60    59    71     1 
   61    59    71     1 
   59    61    62     1 
   59    61    63     1 
   59    61    67     1 
   62    61    63     1 
   62    61    67     1 
   63    61    67     1 
   61    63    64     1 
   61    63    65     1 
   61    63    66     1 
   64    63    65     1 
   64    63    66     1 
   65    63    66     1 
   61    67    68     1 
   61    67    69     1 
   61    67    70     1 
   68    67    69     1 
   68    67    70     1 
   69    67    70     1 
   59    71    72     1 
   59    71    73     1 
   72    71    73     1 
   71    73    74     1 
   71    73    75     1 
   74    73    75     1 
   73    75    76     1 
   73    75    77     1 
   73    75    91     1 
   76    75    77     1 
   76    75    91     1 
   77    75    91     1 
   75    77    78     1 
   75    77    79     1 
   75    77    80     1 
   78    77    79     1 
   78    77    80     1 
   79    77    80     1 
   77    80    81     1 
   77    80    89     1 
   81    80    89     1 
   80    81    82     1 
   80    81    83     1 
   82    81    83     1 
   81    83    84     1 
   81    83    85     1 
   84    83    85     1 
   83    85    86     1 
   83    85    87     1 
   86    85    87     1 
   85    87    88     1 
   85    87    89     1 
   88    87    89     1 
   80    89    87     1 
   80    89    90     1 
   87    89    90     1 
   75    91    92     1 
   75    91    93     1 
   92    91    93     1 
   91    93    94     1 
   91    93    95     1 
   94    93    95     1 
   93    95    96     1 
   93    95    97     1 
   93    95   113     1 
   96    95    97     1 
   96    95   113     1 
   97    95   113     1 
   95    97    98     1 
   95    97    99     1 
   95    97   100     1 
   98    97    99     1 
   98    97   100     1 
   99    97   100     1 
   97   100   101     1 
   97   100   102     1 
   97   100   103     1 
  101   100   102     1 
  101   100   103     1 
  102   100   103     1 
  100   103   104     1 
  100   103   105     1 
  100   103   106     1 
  104   103   105     1 
  104   103   106     1 
  105   103   106     1 
  103   106   107     1 
  103   106   108     1 
  103   106   109     1 
  107   106   108     1 
  107   106   109     1 
  108   106   109     1 
  106   109   110     1 
  106   109   111     1 
  106   109   112     1 
  110   109   111     1 
  110   109   112     1 
  111   109   112     1 
   95   113   114     1 
   95   113   115     1 
  114   113   115     1 
  113   115   116     1 
  113   115   117     1 
  116   115   117     1 
  115   117   118     1 
  115   117   119     1 
  115   117   137     1 
  118   117   119     1 
  118   117   137     1 
  119   117   137     1 
  117   119   120     1 
  117   119   121     1 
  117   119   122     1 
  120   119   121     1 
  120   119   122     1 
  121   119   122     1 
  119   122   123     1 
  119   122   124     1 
  119   122   125     1 
  123   122   124     1 
  123   122   125     1 
  124   122   125     1 
  122   125   126     1 
  122   125   127     1 
  122   125   128     1 
  126   125   127     1 
  126   125   128     1 
  127   125   128     1 
  125   128   129     1 
  125   128   130     1 
  129   128   130     1 
  128   130   131     1 
  128   130   134     1 
  131   130   134     1 
  130   131   132     1 
  130   131   133     1 
  132   131   133     1 
  130   134   135     1 
  130   134   136     1 
  135   134   136     1 
  117   137   138     1 
  117   137   139     1 
  138   137   139     1 
  137   139   140     1 
  137   139   141     1 
  140   139   141     1 
  139   141   142     1 
  139   141   143     1 
  139   141   156     1 
  142   141   143     1 
  142   141   156     1 
  143   141   156     1 
  141   143   144     1 
  141   143   145     1 
  141   143   146     1 
  144   143   145     1 
  144   143   146     1 
  145   143   146     1 
  143   146   147     1 
  143   146   148     1 
  143   146   152     1 
  147   146   148     1 
  147   146   152     1 
  148   146   152     1 
  146   148   149     1 
  146   148   150     1 
  146   148   151     1 
  149   148   150     1 
  149   148   151     1 
  150   148   151     1 
  146   152   153     1 
  146   152   154     1 
  146   152   155     1 
  153   152   154     1 
  153   152   155     1 
  154   152   155     1 
  141   156   157     1 
  141   156   158     1 
  157   156   158     1 
  156   158   159     1 
  156   158   160     1 
  159   158   160     1 
  158   160   161     1 
  158   160   162     1 
  158   160   171     1 
  161   160   162     1 
  161   160   171     1 
  162   160   171     1 
  160   162   163     1 
  160   162   164     1 
  160   162   165     1 
  163   162   164     1 
  163   162   165     1 
  164   162   165     1 
  162   165   166     1 
  162   165   167     1 
  162   165   168     1 
  166   165   167     1 
  166   165   168     1 
  167   165   168     1 
  165   168   169     1 
  165   168   170     1 
  169   168   170     1 
  160   171   172     1 
  160   171   173     1 
  172   171   173     1 
  171   173   174     1 
  171   173   175     1 
  174   173   175     1 
  173   175   176     1 
  173   175   177     1 
  173   175   193     1 
  176   175   177     1 
  176   175   193     1 
  177   175   193     1 
  175   177   178     1 
  175   177   179     1 
  175   177   180     1 
  178   177   179     1 
  178   177   180     1 
  179   177   180     1 
  177   180   181     1 
  177   180   182     1 
  177   180   183     1 
  181   180   182     1 
  181   180   183     1 
  182   180   183     1 
  180   183   184     1 
  180   183   185     1 
  180   183   186     1 
  184   183   185     1 
  184   183   186     1 
  185   183   186     1 
  183   186   187     1 
  183   186   188     1 
  183   186   189     1 
  187   186   188     1 
  187   186   189     1 
  188   186   189     1 
  186   189   190     1 
  186   189   191     1 
  186   189   192     1 
  190   189   191     1 
  190   189   192     1 
  191   189   192     1 
  175   193   194     1 
  175   193   195     1 
  194   193   195     1 
  193   195   196     1 
  193   195   197     1 
  196   195   197     1 
  195   197   198     1 
  195   197   199     1 
  195   197   212     1 
  198   197   199     1 
  198   197   212     1 
  199   197   212     1 
  197   199   200     1 
  197   199   201     1 
  197   199   202     1 
  200   199   201     1 
  200   199   202     1 
  201   199   202     1 
  199   202   203     1 
  199   202   204     1 
  199   202   208     1 
  203   202   204     1 
  203   202   208     1 
  204   202   208     1 
  202   204   205     1 
  202   204   206     1 
  202   204   207     1 
  205   204   206     1 
  205   204   207     1 
  206   204   207     1 
  202   208   209     1 
  202   208   210     1 
  202   208   211     1 
  209   208   210     1 
  209   208   211     1 
  210   208   211     1 
  197   212   213     1 
  197   212   214     1 
  213   212   214     1 
  212   214   215     1 
  212   214   216     1 
  215   214   216     1 
  214   216   217     1 
  214   216   218     1 
  214   216   232     1 
  217   216   218     1 
  217   216   232     1 
  218   216   232     1 
  216   218   219     1 
  216   218   220     1 
  216   218   221     1 
  219   218   220     1 
  219   218   221     1 
  220   218   221     1 
  218   221   222     1 
  218   221   230     1 
  222   221   230     1 
  221   222   223     1 
  221   222   224     1 
  223   222   224     1 
  222   224   225     1 
  222   224   226     1 
  225   224   226     1 
  224   226   227     1 
  224   226   228     1 
  227   226   228     1 
  226   228   229     1 
  226   228   230     1 
  229   228   230     1 
  221   230   228     1 
  221   230   231     1 
  228   230   231     1 
  216   232   233     1 
  216   232   234     1 
  233   232   234     1 
  232   234   235     1 
  232   234   236     1 
  235   234   236     1 
  234   236   237     1 
  234   236   238     1 
  234   236   243     1 
  237   236   238     1 
  237   236   243     1 
  238   236   243     1 
  236   238   239     1 
  236   238   240     1 
  236   238   241     1 
  239   238   240     1 
  239   238   241     1 
  240   238   241     1 
  238   241   242     1 
  236   243   244     1 
  236   243   245     1 
  244   243   245     1 
  243   245   246     1 
  243   245   247     1 
  246   245   247     1 
  245   247   248     1 
  245   247   249     1 
  245   247   265     1 
  248   247   249     1 
  248   247   265     1 
  249   247   265     1 
  247   249   250     1 
  247   249   251     1 
  247   249   252     1 
  250   249   251     1 
  250   249   252     1 
  251   249   252     1 
  249   252   253     1 
  249   252   254     1 
  249   252   255     1 
  253   252   254     1 
  253   252   255     1 
  254   252   255     1 
  252   255   256     1 
  252   255   257     1 
  252   255   258     1 
  256   255   257     1 
  256   255   258     1 
  257   255   258     1 
  255   258   259     1 
  255   258   260     1 
  255   258   261     1 
  259   258   260     1 
  259   258   261     1 
  260   258   261     1 
  258   261   262     1 
  258   261   263     1 
  258   261   264     1 
  262   261   263     1 
  262   261   264     1 
  263   261   264     1 
  247   265   266     1 
  247   265   267     1 
  266   265   267     1 
  265   267   268     1 
  265   267   269     1 
  268   267   269     1 
  267   269   270     1 
  267   269   271     1 
  267   269   284     1 
  270   269   271     1 
  270   269   284     1 
  271   269   284     1 
  269   271   272     1 
  269   271   273     1 
  269   271   277     1 
  272   271   273     1 
  272   271   277     1 
  273   271   277     1 
  271   273   274     1 
  271   273   275     1 
  271   273   276     1 
  274   273   275     1 
  274   273   276     1 
  275   273   276     1 
  271   277   278     1 
  271   277   279     1 
  271   277   280     1 
  278   277   279     1 
  278   277   280     1 
  279   277   280     1 
  277   280   281     1 
  277   280   282     1 
  277   280   283     1 
  281   280   282     1 
  281   280   283     1 
  282   280   283     1 
  269   284   285     1 
  269   284   286     1 
  285   284   286     1 
  284   286   287     1 
  284   286   288     1 
  287   286   288     1 
  286   288   289     1 
  286   288   290     1 
  286   288   301     1 
  289   288   290     1 
  289   288   301     1 
  290   288   301     1 
  288   290   291     1 
  288   290   292     1 
  288   290   293     1 
  291   290   292     1 
  291   290   293     1 
  292   290   293     1 
  290   293   294     1 
  290   293   295     1 
  290   293   296     1 
  294   293   295     1 
  294   293   296     1 
  295   293   296     1 
  293   296   297     1 
  293   296   298     1 
  297   296   298     1 
  296   298   299     1 
  296   298   300     1 
  299   298   300     1 
  288   301   302     1 
  288   301   303     1 
  302   301   303     1 
  301   303   304     1 
  301   303   305     1 
  304   303   305     1 
  303   305   306     1 
  303   305   307     1 
  303   305   315     1 
  306   305   307     1 
  306   305   315     1 
  307   305   315     1 
  305   307   308     1 
  305   307   309     1 
  305   307   310     1 
  308   307   309     1 
  308   307   310     1 
  309   307   310     1 
  307   310   311     1 
  307   310   312     1 
  311   310   312     1 
  310   312   313     1 
  310   312   314     1 
  313   312   314     1 
  305   315   316     1 
  305   315   317     1 
  316   315   317     1 
  315   317   318     1 
  315   317   319     1 
  318   317   319     1 
  317   319   320     1 
  317   319   321     1 
  317   319   327     1 
  320   319   321     1 
  320   319   327     1 
  321   319   327     1 
  319   321   322     1 
  319   321   323     1 
  319   321   324     1 
  322   321   323     1 
  322   321   324     1 
  323   321   324     1 
  321   324   325     1 
  321   324   326     1 
  325   324   326     1 
  319   327   328     1 
  319   327   329     1 
  328   327   329     1 
  327   329   330     1 
  327   329   331     1 
  330   329   331     1 
  329   331   332     1 
  329   331   333     1 
  329   331   349     1 
  332   331   333     1 
  332   331   349     1 
  333   331   349     1 
  331   333   334     1 
  331   333   335     1 
  331   333   336     1 
  334   333   335     1 
  334   333   336     1 
  335   333   336     1 
  333   336   337     1 
  333   336   338     1 
  333   336   339     1 
  337   336   338     1 
  337   336   339     1 
  338   336   339     1 
  336   339   340     1 
  336   339   341     1 
  336   339   342     1 
  340   339   341     1 
  340   339   342     1 
  341   339   342     1 
  339   342   343     1 
  339   342   344     1 
  339   342   345     1 
  343   342   344     1 
  343   342   345     1 
  344   342   345     1 
  342   345   346     1 
  342   345   347     1 
  342   345   348     1 
  346   345   347     1 
  346   345   348     1 
  347   345   348     1 
  331   349   350     1 
  331   349   351     1 
  350   349   351     1 
  349   351   352     1 
  349   351   353     1 
  352   351   353     1 

[ dihedrals ]
;  ai    aj    ak    al funct            c0            c1            c2            c3            c4            c5
    2     1     5     6     9 
    2     1     5     7     9 
    2     1     5    11     9 
    3     1     5     6     9 
    3     1     5     7     9 
    3     1     5    11     9 
    4     1     5     6     9 
    4     1     5     7     9 
    4     1     5    11     9 
    1     5     7     8     9 
    1     5     7     9     9 
    1     5     7    10     9 
    6     5     7     8     9 
    6     5     7     9     9 
    6     5     7    10     9 
   11     5     7     8     9 
   11     5     7     9     9 
   11     5     7    10     9 
    1     5    11    12     9 
    1     5    11    13     9 
    6     5    11    12     9 
    6     5    11    13     9 
    7     5    11    12     9 
    7     5    11    13     9 
    5    11    13    14     9 
    5    11    13    15     9 
   12    11    13    14     9 
   12    11    13    15     9 
   11    13    15    16     9 
   11    13    15    17     9 
   11    13    15    33     9 
   14    13    15    16     9 
   14    13    15    17     9 
   14    13    15    33     9 
   13    15    17    18     9 
   13    15    17    19     9 
   13    15    17    20     9 
   16    15    17    18     9 
   16    15    17    19     9 
   16    15    17    20     9 
   33    15    17    18     9 
   33    15    17    19     9 
   33    15    17    20     9 
   13    15    33    34     9 
   13    15    33    35     9 
   16    15    33    34     9 
   16    15    33    35     9 
   17    15    33    34     9 
   17    15    33    35     9 
   15    17    20    21     9 
   15    17    20    22     9 
   15    17    20    23     9 
   18    17    20    21     9 
   18    17    20    22     9 
   18    17    20    23     9 
   19    17    20    21     9 
   19    17    20    22     9 
   19    17    20    23     9 
   17    20    23    24     9 
   17    20    23    25     9 
   17    20    23    26     9 
   21    20    23    24     9 
   21    20    23    25     9 
   21    20    23    26     9 
   22    20    23    24     9 
   22    20    23    25     9 
   22    20    23    26     9 
   20    23    26    27     9 
   20    23    26    28     9 
   20    23    26    29     9 
   24    23    26    27     9 
   24    23    26    28     9 
   24    23    26    29     9 
   25    23    26    27     9 
   25    23    26    28     9 
   25    23    26    29     9 
   23    26    29    30     9 
   23    26    29    31     9 
   23    26    29    32     9 
   27    26    29    30     9 
   27    26    29    31     9 
   27    26    29    32     9 
   28    26    29    30     9 
   28    26    29    31     9 
   28    26    29    32     9 
   15    33    35    36     9 
   15    33    35    37     9 
   34    33    35    36     9 
   34    33    35    37     9 
   33    35    37    38     9 
   33    35    37    39     9 
   33    35    37    55     9 
   36    35    37    38     9 
   36    35    37    39     9 
   36    35    37    55     9 
   35    37    39    40     9 
   35    37    39    41     9 
   35    37    39    42     9 
   38    37    39    40     9 
   38    37    39    41     9 
   38    37    39    42     9 
   55    37    39    40     9 
   55    37    39    41     9 
   55    37    39    42     9 
   35    37    55    56     9 
   35    37    55    57     9 
   38    37    55    56     9 
   38    37    55    57     9 
   39    37    55    56     9 
   39    37    55    57     9 
   37    39    42    43     9 
   37    39    42    44     9 
   37    39    42    45     9 
   40    39    42    43     9 
   40    39    42    44     9 
   40    39    42    45     9 
   41    39    42    43     9 
   41    39    42    44     9 
   41    39    42    45     9 
   39    42    45    46     9 
   39    42    45    47     9 
   39    42    45    48     9 
   43    42    45    46     9 
   43    42    45    47     9 
   43    42    45    48     9 
   44    42    45    46     9 
   44    42    45    47     9 
   44    42    45    48     9 
   42    45    48    49     9 
   42    45    48    50     9 
   42    45    48    51     9 
   46    45    48    49     9 
   46    45    48    50     9 
   46    45    48    51     9 
   47    45    48    49     9 
   47    45    48    50     9 
   47    45    48    51     9 
   45    48    51    52     9 
   45    48    51    53     9 
   45    48    51    54     9 
   49    48    51    52     9 
   49    48    51    53     9 
   49    48    51    54     9 
   50    48    51    52     9 
   50    48    51    53     9 
   50    48    51    54     9 
   37    55    57    58     9 
   37    55    57    59     9 
   56    55    57    58     9 
   56    55    57    59     9 
   55    57    59    60     9 
   55    57    59    61     9 
   55    57    59    71     9 
   58    57    59    60     9 
   58    57    59    61     9 
   58    57    59    71     9 
   57    59    61    62     9 
   57    59    61    63     9 
   57    59    61    67     9 
   60    59    61    62     9 
   60    59    61    63     9 
   60    59    61    67     9 
   71    59    61    62     9 
   71    59    61    63     9 
   71    59    61    67     9 
   57    59    71    72     9 
   57    59    71    73     9 
   60    59    71    72     9 
   60    59    71    73     9 
   61    59    71    72     9 
   61    59    71    73     9 
   59    61    63    64     9 
   59    61    63    65     9 
   59    61    63    66     9 
   62    61    63    64     9 
   62    61    63    65     9 
   62    61    63    66     9 
   67    61    63    64     9 
   67    61    63    65     9 
   67    61    63    66     9 
   59    61    67    68     9 
   59    61    67    69     9 
   59    61    67    70     9 
   62    61    67    68     9 
   62    61    67    69     9 
   62    61    67    70     9 
   63    61    67    68     9 
   63    61    67    69     9 
   63    61    67    70     9 
   59    71    73    74     9 
   59    71    73    75     9 
   72    71    73    74     9 
   72    71    73    75     9 
   71    73    75    76     9 
   71    73    75    77     9 
   71    73    75    91     9 
   74    73    75    76     9 
   74    73    75    77     9 
   74    73    75    91     9 
   73    75    77    78     9 
   73    75    77    79     9 
   73    75    77    80     9 
   76    75    77    78     9 
   76    75    77    79     9 
   76    75    77    80     9 
   91    75    77    78     9 
   91    75    77    79     9 
   91    75    77    80     9 
   73    75    91    92     9 
   73    75    91    93     9 
   76    75    91    92     9 
   76    75    91    93     9 
   77    75    91    92     9 
   77    75    91    93     9 
   75    77    80    81     9 
   75    77    80    89     9 
   78    77    80    81     9 
   78    77    80    89     9 
   79    77    80    81     9 
   79    77    80    89     9 
   77    80    81    82     9 
   77    80    81    83     9 
   89    80    81    82     9 
   89    80    81    83     9 
   77    80    89    87     9 
   77    80    89    90     9 
   81    80    89    87     9 
   81    80    89    90     9 
   80    81    83    84     9 
   80    81    83    85     9 
   82    81    83    84     9 
   82    81    83    85     9 
   81    83    85    86     9 
   81    83    85    87     9 
   84    83    85    86     9 
   84    83    85    87     9 
   83    85    87    88     9 
   83    85    87    89     9 
   86    85    87    88     9 
   86    85    87    89     9 
   85    87    89    80     9 
   85    87    89    90     9 
   88    87    89    80     9 
   88    87    89    90     9 
   75    91    93    94     9 
   75    91    93    95     9 
   92    91    93    94     9 
   92    91    93    95     9 
   91    93    95    96     9 
   91    93    95    97     9 
   91    93    95   113     9 
   94    93    95    96     9 
   94    93    95    97     9 
   94    93    95   113     9 
   93    95    97    98     9 
   93    95    97    99     9 
   93    95    97   100     9 
   96    95    97    98     9 
   96    95    97    99     9 
   96    95    97   100     9 
  113    95    97    98     9 
  113    95    97    99     9 
  113    95    97   100     9 
   93    95   113   114     9 
   93    95   113   115     9 
   96    95   113   114     9 
   96    95   113   115     9 
   97    95   113   114     9 
   97    95   113   115     9 
   95    97   100   101     9 
   95    97   100   102     9 
   95    97   100   103     9 
   98    97   100   101     9 
   98    97   100   102     9 
   98    97   100   103     9 
   99    97   100   101     9 
   99    97   100   102     9 
   99    97   100   103     9 
   97   100   103   104     9 
   97   100   103   105     9 
   97   100   103   106     9 
  101   100   103   104     9 
  101   100   103   105     9 
  101   100   103   106     9 
  102   100   103   104     9 
  102   100   103   105     9 
  102   100   103   106     9 
  100   103   106   107     9 
  100   103   106   108     9 
  100   103   106   109     9 
  104   103   106   107     9 
  104   103   106   108     9 
  104   103   106   109     9 
  105   103   106   107     9 
  105   103   106   108     9 
  105   103   106   109     9 
  103   106   109   110     9 
  103   106   109   111     9 
  103   106   109   112     9 
  107   106   109   110     9 
  107   106   109   111     9 
  107   106   109   112     9 
  108   106   109   110     9 
  108   106   109   111     9 
  108   106   109   112     9 
   95   113   115   116     9 
   95   113   115   117     9 
  114   113   115   116     9 
  114   113   115   117     9 
  113   115   117   118     9 
  113   115   117   119     9 
  113   115   117   137     9 
  116   115   117   118     9 
  116   115   117   119     9 
  116   115   117   137     9 
  115   117   119   120     9 
  115   117   119   121     9 
  115   117   119   122     9 
  118   117   119   120     9 
  118   117   119   121     9 
  118   117   119   122     9 
  137   117   119   120     9 
  137   117   119   121     9 
  137   117   119   122     9 
  115   117   137   138     9 
  115   117   137   139     9 
  118   117   137   138     9 
  118   117   137   139     9 
  119   117   137   138     9 
  119   117   137   139     9 
  117   119   122   123     9 
  117   119   122   124     9 
  117   119   122   125     9 
  120   119   122   123     9 
  120   119   122   124     9 
  120   119   122   125     9 
  121   119   122   123     9 
  121   119   122   124     9 
  121   119   122   125     9 
  119   122   125   126     9 
  119   122   125   127     9 
  119   122   125   128     9 
  123   122   125   126     9 
  123   122   125   127     9 
  123   122   125   128     9 
  124   122   125   126     9 
  124   122   125   127     9 
  124   122   125   128     9 
  122   125   128   129     9 
  122   125   128   130     9 
  126   125   128   129     9 
  126   125   128   130     9 
  127   125   128   129     9 
  127   125   128   130     9 
  125   128   130   131     9 
  125   128   130   134     9 
  129   128   130   131     9 
  129   128   130   134     9 
  128   130   131   132     9 
  128   130   131   133     9 
  134   130   131   132     9 
  134   130   131   133     9 
  128   130   134   135     9 
  128   130   134   136     9 
  131   130   134   135     9 
  131   130   134   136     9 
  117   137   139   140     9 
  117   137   139   141     9 
  138   137   139   140     9 
  138   137   139   141     9 
  137   139   141   142     9 
  137   139   141   143     9 
  137   139   141   156     9 
  140   139   141   142     9 
  140   139   141   143     9 
  140   139   141   156     9 
  156   141   143   146     9    torsion_LEU_C_CA_CB_CG_mult1
  156   141   143   146     9    torsion_LEU_C_CA_CB_CG_mult2
  156   141   143   146     9    torsion_LEU_C_CA_CB_CG_mult3
  139   141   143   144     9 
  139   141   143   145     9 
  139   141   143   146     9 
  142   141   143   144     9 
  142   141   143   145     9 
  142   141   143   146     9 
  156   141   143   144     9 
  156   141   143   145     9 
  139   141   156   157     9 
  139   141   156   158     9 
  142   141   156   157     9 
  142   141   156   158     9 
  143   141   156   157     9 
  143   141   156   158     9 
  141   143   146   147     9 
  141   143   146   148     9 
  141   143   146   152     9 
  144   143   146   147     9 
  144   143   146   148     9 
  144   143   146   152     9 
  145   143   146   147     9 
  145   143   146   148     9 
  145   143   146   152     9 
  143   146   148   149     9 
  143   146   148   150     9 
  143   146   148   151     9 
  147   146   148   149     9 
  147   146   148   150     9 
  147   146   148   151     9 
  152   146   148   149     9 
  152   146   148   150     9 
  152   146   148   151     9 
  143   146   152   153     9 
  143   146   152   154     9 
  143   146   152   155     9 
  147   146   152   153     9 
  147   146   152   154     9 
  147   146   152   155     9 
  148   146   152   153     9 
  148   146   152   154     9 
  148   146   152   155     9 
  141   156   158   159     9 
  141   156   158   160     9 
  157   156   158   159     9 
  157   156   158   160     9 
  156   158   160   161     9 
  156   158   160   162     9 
  156   158   160   171     9 
  159   158   160   161     9 
  159   158   160   162     9 
  159   158   160   171     9 
  158   160   162   163     9 
  158   160   162   164     9 
  158   160   162   165     9 
  161   160   162   163     9 
  161   160   162   164     9 
  161   160   162   165     9 
  171   160   162   163     9 
  171   160   162   164     9 
  171   160   162   165     9 
  158   160   171   172     9 
  158   160   171   173     9 
  161   160   171   172     9 
  161   160   171   173     9 
  162   160   171   172     9 
  162   160   171   173     9 
  160   162   165   166     9 
  160   162   165   167     9 
  160   162   165   168     9 
  163   162   165   166     9 
  163   162   165   167     9 
  163   162   165   168     9 
  164   162   165   166     9 
  164   162   165   167     9 
  164   162   165   168     9 
  162   165   168   169     9 
  162   165   168   170     9 
  166   165   168   169     9 
  166   165   168   170     9 
  167   165   168   169     9 
  167   165   168   170     9 
  160   171   173   174     9 
  160   171   173   175     9 
  172   171   173   174     9 
  172   171   173   175     9 
  171   173   175   176     9 
  171   173   175   177     9 
  171   173   175   193     9 
  174   173   175   176     9 
  174   173   175   177     9 
  174   173   175   193     9 
  173   175   177   178     9 
  173   175   177   179     9 
  173   175   177   180     9 
  176   175   177   178     9 
  176   175   177   179     9 
  176   175   177   180     9 
  193   175   177   178     9 
  193   175   177   179     9 
  193   175   177   180     9 
  173   175   193   194     9 
  173   175   193   195     9 
  176   175   193   194     9 
  176   175   193   195     9 
  177   175   193   194     9 
  177   175   193   195     9 
  175   177   180   181     9 
  175   177   180   182     9 
  175   177   180   183     9 
  178   177   180   181     9 
  178   177   180   182     9 
  178   177   180   183     9 
  179   177   180   181     9 
  179   177   180   182     9 
  179   177   180   183     9 
  177   180   183   184     9 
  177   180   183   185     9 
  177   180   183   186     9 
  181   180   183   184     9 
  181   180   183   185     9 
  181   180   183   186     9 
  182   180   183   184     9 
  182   180   183   185     9 
  182   180   183   186     9 
  180   183   186   187     9 
  180   183   186   188     9 
  180   183   186   189     9 
  184   183   186   187     9 
  184   183   186   188     9 
  184   183   186   189     9 
  185   183   186   187     9 
  185   183   186   188     9 
  185   183   186   189     9 
  183   186   189   190     9 
  183   186   189   191     9 
  183   186   189   192     9 
  187   186   189   190     9 
  187   186   189   191     9 
  187   186   189   192     9 
  188   186   189   190     9 
  188   186   189   191     9 
  188   186   189   192     9 
  175   193   195   196     9 
  175   193   195   197     9 
  194   193   195   196     9 
  194   193   195   197     9 
  193   195   197   198     9 
  193   195   197   199     9 
  193   195   197   212     9 
  196   195   197   198     9 
  196   195   197   199     9 
  196   195   197   212     9 
  212   197   199   202     9    torsion_LEU_C_CA_CB_CG_mult1
  212   197   199   202     9    torsion_LEU_C_CA_CB_CG_mult2
  212   197   199   202     9    torsion_LEU_C_CA_CB_CG_mult3
  195   197   199   200     9 
  195   197   199   201     9 
  195   197   199   202     9 
  198   197   199   200     9 
  198   197   199   201     9 
  198   197   199   202     9 
  212   197   199   200     9 
  212   197   199   201     9 
  195   197   212   213     9 
  195   197   212   214     9 
  198   197   212   213     9 
  198   197   212   214     9 
  199   197   212   213     9 
  199   197   212   214     9 
  197   199   202   203     9 
  197   199   202   204     9 
  197   199   202   208     9 
  200   199   202   203     9 
  200   199   202   204     9 
  200   199   202   208     9 
  201   199   202   203     9 
  201   199   202   204     9 
  201   199   202   208     9 
  199   202   204   205     9 
  199   202   204   206     9 
  199   202   204   207     9 
  203   202   204   205     9 
  203   202   204   206     9 
  203   202   204   207     9 
  208   202   204   205     9 
  208   202   204   206     9 
  208   202   204   207     9 
  199   202   208   209     9 
  199   202   208   210     9 
  199   202   208   211     9 
  203   202   208   209     9 
  203   202   208   210     9 
  203   202   208   211     9 
  204   202   208   209     9 
  204   202   208   210     9 
  204   202   208   211     9 
  197   212   214   215     9 
  197   212   214   216     9 
  213   212   214   215     9 
  213   212   214   216     9 
  212   214   216   217     9 
  212   214   216   218     9 
  212   214   216   232     9 
  215   214   216   217     9 
  215   214   216   218     9 
  215   214   216   232     9 
  214   216   218   219     9 
  214   216   218   220     9 
  214   216   218   221     9 
  217   216   218   219     9 
  217   216   218   220     9 
  217   216   218   221     9 
  232   216   218   219     9 
  232   216   218   220     9 
  232   216   218   221     9 
  214   216   232   233     9 
  214   216   232   234     9 
  217   216   232   233     9 
  217   216   232   234     9 
  218   216   232   233     9 
  218   216   232   234     9 
  216   218   221   222     9 
  216   218   221   230     9 
  219   218   221   222     9 
  219   218   221   230     9 
  220   218   221   222     9 
  220   218   221   230     9 
  218   221   222   223     9 
  218   221   222   224     9 
  230   221   222   223     9 
  230   221   222   224     9 
  218   221   230   228     9 
  218   221   230   231     9 
  222   221   230   228     9 
  222   221   230   231     9 
  221   222   224   225     9 
  221   222   224   226     9 
  223   222   224   225     9 
  223   222   224   226     9 
  222   224   226   227     9 
  222   224   226   228     9 
  225   224   226   227     9 
  225   224   226   228     9 
  224   226   228   229     9 
  224   226   228   230     9 
  227   226   228   229     9 
  227   226   228   230     9 
  226   228   230   221     9 
  226   228   230   231     9 
  229   228   230   221     9 
  229   228   230   231     9 
  216   232   234   235     9 
  216   232   234   236     9 
  233   232   234   235     9 
  233   232   234   236     9 
  232   234   236   237     9 
  232   234   236   238     9 
  232   234   236   243     9 
  235   234   236   237     9 
  235   234   236   238     9 
  235   234   236   243     9 
  234   236   238   239     9 
  234   236   238   240     9 
  234   236   238   241     9 
  237   236   238   239     9 
  237   236   238   240     9 
  237   236   238   241     9 
  243   236   238   239     9 
  243   236   238   240     9 
  243   236   238   241     9 
  234   236   243   244     9 
  234   236   243   245     9 
  237   236   243   244     9 
  237   236   243   245     9 
  238   236   243   244     9 
  238   236   243   245     9 
  236   238   241   242     9 
  239   238   241   242     9 
  240   238   241   242     9 
  236   243   245   246     9 
  236   243   245   247     9 
  244   243   245   246     9 
  244   243   245   247     9 
  243   245   247   248     9 
  243   245   247   249     9 
  243   245   247   265     9 
  246   245   247   248     9 
  246   245   247   249     9 
  246   245   247   265     9 
  245   247   249   250     9 
  245   247   249   251     9 
  245   247   249   252     9 
  248   247   249   250     9 
  248   247   249   251     9 
  248   247   249   252     9 
  265   247   249   250     9 
  265   247   249   251     9 
  265   247   249   252     9 
  245   247   265   266     9 
  245   247   265   267     9 
  248   247   265   266     9 
  248   247   265   267     9 
  249   247   265   266     9 
  249   247   265   267     9 
  247   249   252   253     9 
  247   249   252   254     9 
  247   249   252   255     9 
  250   249   252   253     9 
  250   249   252   254     9 
  250   249   252   255     9 
  251   249   252   253     9 
  251   249   252   254     9 
  251   249   252   255     9 
  249   252   255   256     9 
  249   252   255   257     9 
  249   252   255   258     9 
  253   252   255   256     9 
  253   252   255   257     9 
  253   252   255   258     9 
  254   252   255   256     9 
  254   252   255   257     9 
  254   252   255   258     9 
  252   255   258   259     9 
  252   255   258   260     9 
  252   255   258   261     9 
  256   255   258   259     9 
  256   255   258   260     9 
  256   255   258   261     9 
  257   255   258   259     9 
  257   255   258   260     9 
  257   255   258   261     9 
  255   258   261   262     9 
  255   258   261   263     9 
  255   258   261   264     9 
  259   258   261   262     9 
  259   258   261   263     9 
  259   258   261   264     9 
  260   258   261   262     9 
  260   258   261   263     9 
  260   258   261   264     9 
  247   265   267   268     9 
  247   265   267   269     9 
  266   265   267   268     9 
  266   265   267   269     9 
  265   267   269   270     9 
  265   267   269   271     9 
  265   267   269   284     9 
  268   267   269   270     9 
  268   267   269   271     9 
  268   267   269   284     9 
  267   269   271   273     9    torsion_ILE_N_CA_CB_CG2_mult1
  267   269   271   273     9    torsion_ILE_N_CA_CB_CG2_mult2
  267   269   271   272     9 
  267   269   271   277     9 
  270   269   271   272     9 
  270   269   271   273     9 
  270   269   271   277     9 
  284   269   271   272     9 
  284   269   271   273     9 
  284   269   271   277     9 
  267   269   284   285     9 
  267   269   284   286     9 
  270   269   284   285     9 
  270   269   284   286     9 
  271   269   284   285     9 
  271   269   284   286     9 
  269   271   273   274     9 
  269   271   273   275     9 
  269   271   273   276     9 
  272   271   273   274     9 
  272   271   273   275     9 
  272   271   273   276     9 
  277   271   273   274     9 
  277   271   273   275     9 
  277   271   273   276     9 
  269   271   277   278     9 
  269   271   277   279     9 
  269   271   277   280     9 
  272   271   277   278     9 
  272   271   277   279     9 
  272   271   277   280     9 
  273   271   277   278     9 
  273   271   277   279     9 
  273   271   277   280     9 
  271   277   280   281     9 
  271   277   280   282     9 
  271   277   280   283     9 
  278   277   280   281     9 
  278   277   280   282     9 
  278   277   280   283     9 
  279   277   280   281     9 
  279   277   280   282     9 
  279   277   280   283     9 
  269   284   286   287     9 
  269   284   286   288     9 
  285   284   286   287     9 
  285   284   286   288     9 
  284   286   288   289     9 
  284   286   288   290     9 
  284   286   288   301     9 
  287   286   288   289     9 
  287   286   288   290     9 
  287   286   288   301     9 
  286   288   290   291     9 
  286   288   290   292     9 
  286   288   290   293     9 
  289   288   290   291     9 
  289   288   290   292     9 
  289   288   290   293     9 
  301   288   290   291     9 
  301   288   290   292     9 
  301   288   290   293     9 
  286   288   301   302     9 
  286   288   301   303     9 
  289   288   301   302     9 
  289   288   301   303     9 
  290   288   301   302     9 
  290   288   301   303     9 
  288   290   293   294     9 
  288   290   293   295     9 
  288   290   293   296     9 
  291   290   293   294     9 
  291   290   293   295     9 
  291   290   293   296     9 
  292   290   293   294     9 
  292   290   293   295     9 
  292   290   293   296     9 
  290   293   296   297     9 
  290   293   296   298     9 
  294   293   296   297     9 
  294   293   296   298     9 
  295   293   296   297     9 
  295   293   296   298     9 
  293   296   298   299     9 
  293   296   298   300     9 
  297   296   298   299     9 
  297   296   298   300     9 
  288   301   303   304     9 
  288   301   303   305     9 
  302   301   303   304     9 
  302   301   303   305     9 
  301   303   305   306     9 
  301   303   305   307     9 
  301   303   305   315     9 
  304   303   305   306     9 
  304   303   305   307     9 
  304   303   305   315     9 
  315   305   307   310     9    torsion_ASN_C_CA_CB_CG_mult1
  315   305   307   310     9    torsion_ASN_C_CA_CB_CG_mult2
  315   305   307   310     9    torsion_ASN_C_CA_CB_CG_mult3
  315   305   307   310     9    torsion_ASN_C_CA_CB_CG_mult4
  315   305   307   310     9    torsion_ASN_C_CA_CB_CG_mult5
  315   305   307   310     9    torsion_ASN_C_CA_CB_CG_mult6
  303   305   307   308     9 
  303   305   307   309     9 
  303   305   307   310     9 
  306   305   307   308     9 
  306   305   307   309     9 
  306   305   307   310     9 
  315   305   307   308     9 
  315   305   307   309     9 
  303   305   315   316     9 
  303   305   315   317     9 
  306   305   315   316     9 
  306   305   315   317     9 
  307   305   315   316     9 
  307   305   315   317     9 
  305   307   310   312     9    torsion_ASN_CA_CB_CG_ND2_mult1
  305   307   310   312     9    torsion_ASN_CA_CB_CG_ND2_mult2
  305   307   310   312     9    torsion_ASN_CA_CB_CG_ND2_mult3
  305   307   310   312     9    torsion_ASN_CA_CB_CG_ND2_mult4
  305   307   310   312     9    torsion_ASN_CA_CB_CG_ND2_mult5
  305   307   310   312     9    torsion_ASN_CA_CB_CG_ND2_mult6
  305   307   310   311     9 
  308   307   310   311     9 
  308   307   310   312     9 
  309   307   310   311     9 
  309   307   310   312     9 
  307   310   312   313     9 
  307   310   312   314     9 
  311   310   312   313     9 
  311   310   312   314     9 
  305   315   317   318     9 
  305   315   317   319     9 
  316   315   317   318     9 
  316   315   317   319     9 
  315   317   319   320     9 
  315   317   319   321     9 
  315   317   319   327     9 
  318   317   319   320     9 
  318   317   319   321     9 
  318   317   319   327     9 
  317   319   321   324     9    torsion_ASP_N_CA_CB_CG_mult1
  317   319   321   324     9    torsion_ASP_N_CA_CB_CG_mult2
  317   319   321   324     9    torsion_ASP_N_CA_CB_CG_mult3
  317   319   321   324     9    torsion_ASP_N_CA_CB_CG_mult4
  317   319   321   324     9    torsion_ASP_N_CA_CB_CG_mult5
  317   319   321   324     9    torsion_ASP_N_CA_CB_CG_mult6
  317   319   321   322     9 
  317   319   321   323     9 
  320   319   321   322     9 
  320   319   321   323     9 
  320   319   321   324     9 
  327   319   321   322     9 
  327   319   321   323     9 
  327   319   321   324     9 
  317   319   327   328     9 
  317   319   327   329     9 
  320   319   327   328     9 
  320   319   327   329     9 
  321   319   327   328     9 
  321   319   327   329     9 
  319   321   324   325     9    torsion_ASP_CA_CB_CG_OD_mult1
  319   321   324   325     9    torsion_ASP_CA_CB_CG_OD_mult2
  319   321   324   325     9    torsion_ASP_CA_CB_CG_OD_mult3
  319   321   324   325     9    torsion_ASP_CA_CB_CG_OD_mult4
  319   321   324   325     9    torsion_ASP_CA_CB_CG_OD_mult5
  319   321   324   325     9    torsion_ASP_CA_CB_CG_OD_mult6
  319   321   324   326     9    torsion_ASP_CA_CB_CG_OD_mult1
  319   321   324   326     9    torsion_ASP_CA_CB_CG_OD_mult2
  319   321   324   326     9    torsion_ASP_CA_CB_CG_OD_mult3
  319   321   324   326     9    torsion_ASP_CA_CB_CG_OD_mult4
  319   321   324   326     9    torsion_ASP_CA_CB_CG_OD_mult5
  319   321   324   326     9    torsion_ASP_CA_CB_CG_OD_mult6
  322   321   324   325     9 
  322   321   324   326     9 
  323   321   324   325     9 
  323   321   324   326     9 
  319   327   329   330     9 
  319   327   329   331     9 
  328   327   329   330     9 
  328   327   329   331     9 
  327   329   331   332     9 
  327   329   331   333     9 
  327   329   331   349     9 
  330   329   331   332     9 
  330   329   331   333     9 
  330   329   331   349     9 
  329   331   333   334     9 
  329   331   333   335     9 
  329   331   333   336     9 
  332   331   333   334     9 
  332   331   333   335     9 
  332   331   333   336     9 
  349   331   333   334     9 
  349   331   333   335     9 
  349   331   333   336     9 
  329   331   349   350     9 
  329   331   349   351     9 
  332   331   349   350     9 
  332   331   349   351     9 
  333   331   349   350     9 
  333   331   349   351     9 
  331   333   336   337     9 
  331   333   336   338     9 
  331   333   336   339     9 
  334   333   336   337     9 
  334   333   336   338     9 
  334   333   336   339     9 
  335   333   336   337     9 
  335   333   336   338     9 
  335   333   336   339     9 
  333   336   339   340     9 
  333   336   339   341     9 
  333   336   339   342     9 
  337   336   339   340     9 
  337   336   339   341     9 
  337   336   339   342     9 
  338   336   339   340     9 
  338   336   339   341     9 
  338   336   339   342     9 
  336   339   342   343     9 
  336   339   342   344     9 
  336   339   342   345     9 
  340   339   342   343     9 
  340   339   342   344     9 
  340   339   342   345     9 
  341   339   342   343     9 
  341   339   342   344     9 
  341   339   342   345     9 
  339   342   345   346     9 
  339   342   345   347     9 
  339   342   345   348     9 
  343   342   345   346     9 
  343   342   345   347     9 
  343   342   345   348     9 
  344   342   345   346     9 
  344   342   345   347     9 
  344   342   345   348     9 
  331   349   351   352     9 
  331   349   351   353     9 
  350   349   351   352     9 
  350   349   351   353     9 

[ dihedrals ]
;  ai    aj    ak    al funct            c0            c1            c2            c3
    5    13    11    12     4 
   11    15    13    14     4 
   15    35    33    34     4 
   33    37    35    36     4 
   37    57    55    56     4 
   55    59    57    58     4 
   59    73    71    72     4 
   71    75    73    74     4 
   75    93    91    92     4 
   77    80    89    81     4 
   80    83    81    82     4 
   80    87    89    90     4 
   81    85    83    84     4 
   83    87    85    86     4 
   85    89    87    88     4 
   91    95    93    94     4 
   95   115   113   114     4 
  113   117   115   116     4 
  117   139   137   138     4 
  125   130   128   129     4 
  128   131   130   134     4 
  130   132   131   133     4 
  130   135   134   136     4 
  137   141   139   140     4 
  141   158   156   157     4 
  156   160   158   159     4 
  160   173   171   172     4 
  165   169   168   170     4 
  171   175   173   174     4 
  175   195   193   194     4 
  193   197   195   196     4 
  197   214   212   213     4 
  212   216   214   215     4 
  216   234   232   233     4 
  218   221   230   222     4 
  221   224   222   223     4 
  221   228   230   231     4 
  222   226   224   225     4 
  224   228   226   227     4 
  226   230   228   229     4 
  232   236   234   235     4 
  236   245   243   244     4 
  243   247   245   246     4 
  247   267   265   266     4 
  265   269   267   268     4 
  269   286   284   285     4 
  284   288   286   287     4 
  288   303   301   302     4 
  293   298   296   297     4 
  296   299   298   300     4 
  301   305   303   304     4 
  305   317   315   316     4 
  307   312   310   311     4 
  310   313   312   314     4 
  315   319   317   318     4 
  319   329   327   328     4 
  321   325   324   326     4 
  327   331   329   330     4 
  331   351   349   350     4 
  349   352   351   353     4 

; Include Position restraint file
#ifdef POSRES
#include "posre.itp"
#endif

; Include water topology
#include "amber99sb-ildn.ff/tip3p.itp"

#ifdef POSRES_WATER
; Position restraint for each water oxygen
[ position_restraints ]
;  i funct       fcx        fcy        fcz
   1    1       1000       1000       1000
#endif

; Include topology for ions
#include "amber99sb-ildn.ff/ions.itp"

[ system ]
; Name
19-MER PEPTIDE FROM 50S RIBOSOMAL PROTEIN L1 in water

[ molecules ]
; Compound        #mols
Protein_chain_A     1
SOL         771
CL               6
