;
;	File 'topol.top' was generated
;	By user: user (1000)
;	On host: user
;	At date: Fri Jun 24 14:21:08 2022
;
;	This is a standalone topology file
;
;	Created by:
;	              :-) GROMACS - gmx pdb2gmx, 2021.4-plumed-2.7.3 (-:
;	
;	Executable:   /apps/codes/Gpu/gromacs/2021.4/bin/gmx_mpi
;	Data prefix:  /apps/codes/Gpu/gromacs/2021.4
;	Working dir:  /home/user/btech/btech/Gandharva/AMBER
;	Command line:
;	  gmx_mpi pdb2gmx -f finalext.gro -o final2.gro -ter
;	Force field was read from the standard GROMACS share directory.
;

; Include forcefield parameters
#include "charmm27.ff/forcefield.itp"

[ moleculetype ]
; Name            nrexcl
Protein             3

[ atoms ]
;   nr       type  resnr residue  atom   cgnr     charge       mass  typeB    chargeB      massB
; residue  81 GLY rtp GLY  q  0.0
     1        NH2     81    GLY      N      1      -0.96     14.007
     2          H     81    GLY    HT1      2       0.34      1.008
     3          H     81    GLY    HT2      3       0.34      1.008
     4        CT2     81    GLY     CA      4        0.1     12.011
     5         HB     81    GLY    HA1      5       0.09      1.008
     6         HB     81    GLY    HA2      6       0.09      1.008
     7          C     81    GLY      C      7       0.51     12.011
     8          O     81    GLY      O      8      -0.51     15.999   ; qtot 0
; residue  82 GLU rtp GLU  q -1.0
     9        NH1     82    GLU      N      9      -0.47     14.007
    10          H     82    GLU     HN     10       0.31      1.008
    11        CT1     82    GLU     CA     11       0.07     12.011
    12         HB     82    GLU     HA     12       0.09      1.008
    13        CT2     82    GLU     CB     13      -0.18     12.011
    14         HA     82    GLU    HB1     14       0.09      1.008
    15         HA     82    GLU    HB2     15       0.09      1.008
    16        CT2     82    GLU     CG     16      -0.28     12.011
    17         HA     82    GLU    HG1     17       0.09      1.008
    18         HA     82    GLU    HG2     18       0.09      1.008
    19         CC     82    GLU     CD     19       0.62     12.011
    20         OC     82    GLU    OE1     20      -0.76     15.999
    21         OC     82    GLU    OE2     21      -0.76     15.999
    22          C     82    GLU      C     22       0.51     12.011
    23          O     82    GLU      O     23      -0.51     15.999   ; qtot -1
; residue  83 TRP rtp TRP  q  0.0
    24        NH1     83    TRP      N     24      -0.47     14.007
    25          H     83    TRP     HN     25       0.31      1.008
    26        CT1     83    TRP     CA     26       0.07     12.011
    27         HB     83    TRP     HA     27       0.09      1.008
    28        CT2     83    TRP     CB     28      -0.18     12.011
    29         HA     83    TRP    HB1     29       0.09      1.008
    30         HA     83    TRP    HB2     30       0.09      1.008
    31         CY     83    TRP     CG     31      -0.03     12.011
    32         CA     83    TRP    CD1     32      0.035     12.011
    33         HP     83    TRP    HD1     33      0.115      1.008
    34         NY     83    TRP    NE1     34      -0.61     14.007
    35          H     83    TRP    HE1     35       0.38      1.008
    36        CPT     83    TRP    CE2     36       0.13     12.011
    37        CPT     83    TRP    CD2     37      -0.02     12.011
    38         CA     83    TRP    CE3     38     -0.115     12.011
    39         HP     83    TRP    HE3     39      0.115      1.008
    40         CA     83    TRP    CZ3     40     -0.115     12.011
    41         HP     83    TRP    HZ3     41      0.115      1.008
    42         CA     83    TRP    CZ2     42     -0.115     12.011
    43         HP     83    TRP    HZ2     43      0.115      1.008
    44         CA     83    TRP    CH2     44     -0.115     12.011
    45         HP     83    TRP    HH2     45      0.115      1.008
    46          C     83    TRP      C     46       0.51     12.011
    47          O     83    TRP      O     47      -0.51     15.999   ; qtot -1
; residue  84 THR rtp THR  q  0.0
    48        NH1     84    THR      N     48      -0.47     14.007
    49          H     84    THR     HN     49       0.31      1.008
    50        CT1     84    THR     CA     50       0.07     12.011
    51         HB     84    THR     HA     51       0.09      1.008
    52        CT1     84    THR     CB     52       0.14     12.011
    53         HA     84    THR     HB     53       0.09      1.008
    54        OH1     84    THR    OG1     54      -0.66     15.999
    55          H     84    THR    HG1     55       0.43      1.008
    56        CT3     84    THR    CG2     56      -0.27     12.011
    57         HA     84    THR   HG21     57       0.09      1.008
    58         HA     84    THR   HG22     58       0.09      1.008
    59         HA     84    THR   HG23     59       0.09      1.008
    60          C     84    THR      C     60       0.51     12.011
    61          O     84    THR      O     61      -0.51     15.999   ; qtot -1
; residue  85 TYR rtp TYR  q  0.0
    62        NH1     85    TYR      N     62      -0.47     14.007
    63          H     85    TYR     HN     63       0.31      1.008
    64        CT1     85    TYR     CA     64       0.07     12.011
    65         HB     85    TYR     HA     65       0.09      1.008
    66        CT2     85    TYR     CB     66      -0.18     12.011
    67         HA     85    TYR    HB1     67       0.09      1.008
    68         HA     85    TYR    HB2     68       0.09      1.008
    69         CA     85    TYR     CG     69          0     12.011
    70         CA     85    TYR    CD1     70     -0.115     12.011
    71         HP     85    TYR    HD1     71      0.115      1.008
    72         CA     85    TYR    CE1     72     -0.115     12.011
    73         HP     85    TYR    HE1     73      0.115      1.008
    74         CA     85    TYR     CZ     74       0.11     12.011
    75        OH1     85    TYR     OH     75      -0.54     15.999
    76          H     85    TYR     HH     76       0.43      1.008
    77         CA     85    TYR    CD2     77     -0.115     12.011
    78         HP     85    TYR    HD2     78      0.115      1.008
    79         CA     85    TYR    CE2     79     -0.115     12.011
    80         HP     85    TYR    HE2     80      0.115      1.008
    81          C     85    TYR      C     81       0.51     12.011
    82          O     85    TYR      O     82      -0.51     15.999   ; qtot -1
; residue  86 ASP rtp ASP  q -1.0
    83        NH1     86    ASP      N     83      -0.47     14.007
    84          H     86    ASP     HN     84       0.31      1.008
    85        CT1     86    ASP     CA     85       0.07     12.011
    86         HB     86    ASP     HA     86       0.09      1.008
    87        CT2     86    ASP     CB     87      -0.28     12.011
    88         HA     86    ASP    HB1     88       0.09      1.008
    89         HA     86    ASP    HB2     89       0.09      1.008
    90         CC     86    ASP     CG     90       0.62     12.011
    91         OC     86    ASP    OD1     91      -0.76     15.999
    92         OC     86    ASP    OD2     92      -0.76     15.999
    93          C     86    ASP      C     93       0.51     12.011
    94          O     86    ASP      O     94      -0.51     15.999   ; qtot -2
; residue  87 ASP rtp ASP  q -1.0
    95        NH1     87    ASP      N     95      -0.47     14.007
    96          H     87    ASP     HN     96       0.31      1.008
    97        CT1     87    ASP     CA     97       0.07     12.011
    98         HB     87    ASP     HA     98       0.09      1.008
    99        CT2     87    ASP     CB     99      -0.28     12.011
   100         HA     87    ASP    HB1    100       0.09      1.008
   101         HA     87    ASP    HB2    101       0.09      1.008
   102         CC     87    ASP     CG    102       0.62     12.011
   103         OC     87    ASP    OD1    103      -0.76     15.999
   104         OC     87    ASP    OD2    104      -0.76     15.999
   105          C     87    ASP      C    105       0.51     12.011
   106          O     87    ASP      O    106      -0.51     15.999   ; qtot -3
; residue  88 ALA rtp ALA  q  0.0
   107        NH1     88    ALA      N    107      -0.47     14.007
   108          H     88    ALA     HN    108       0.31      1.008
   109        CT1     88    ALA     CA    109       0.07     12.011
   110         HB     88    ALA     HA    110       0.09      1.008
   111        CT3     88    ALA     CB    111      -0.27     12.011
   112         HA     88    ALA    HB1    112       0.09      1.008
   113         HA     88    ALA    HB2    113       0.09      1.008
   114         HA     88    ALA    HB3    114       0.09      1.008
   115          C     88    ALA      C    115       0.51     12.011
   116          O     88    ALA      O    116      -0.51     15.999   ; qtot -3
; residue  89 THR rtp THR  q  0.0
   117        NH1     89    THR      N    117      -0.47     14.007
   118          H     89    THR     HN    118       0.31      1.008
   119        CT1     89    THR     CA    119       0.07     12.011
   120         HB     89    THR     HA    120       0.09      1.008
   121        CT1     89    THR     CB    121       0.14     12.011
   122         HA     89    THR     HB    122       0.09      1.008
   123        OH1     89    THR    OG1    123      -0.66     15.999
   124          H     89    THR    HG1    124       0.43      1.008
   125        CT3     89    THR    CG2    125      -0.27     12.011
   126         HA     89    THR   HG21    126       0.09      1.008
   127         HA     89    THR   HG22    127       0.09      1.008
   128         HA     89    THR   HG23    128       0.09      1.008
   129          C     89    THR      C    129       0.51     12.011
   130          O     89    THR      O    130      -0.51     15.999   ; qtot -3
; residue  90 LYS rtp LYS  q +1.0
   131        NH1     90    LYS      N    131      -0.47     14.007
   132          H     90    LYS     HN    132       0.31      1.008
   133        CT1     90    LYS     CA    133       0.07     12.011
   134         HB     90    LYS     HA    134       0.09      1.008
   135        CT2     90    LYS     CB    135      -0.18     12.011
   136         HA     90    LYS    HB1    136       0.09      1.008
   137         HA     90    LYS    HB2    137       0.09      1.008
   138        CT2     90    LYS     CG    138      -0.18     12.011
   139         HA     90    LYS    HG1    139       0.09      1.008
   140         HA     90    LYS    HG2    140       0.09      1.008
   141        CT2     90    LYS     CD    141      -0.18     12.011
   142         HA     90    LYS    HD1    142       0.09      1.008
   143         HA     90    LYS    HD2    143       0.09      1.008
   144        CT2     90    LYS     CE    144       0.21     12.011
   145         HA     90    LYS    HE1    145       0.05      1.008
   146         HA     90    LYS    HE2    146       0.05      1.008
   147        NH3     90    LYS     NZ    147       -0.3     14.007
   148         HC     90    LYS    HZ1    148       0.33      1.008
   149         HC     90    LYS    HZ2    149       0.33      1.008
   150         HC     90    LYS    HZ3    150       0.33      1.008
   151          C     90    LYS      C    151       0.51     12.011
   152          O     90    LYS      O    152      -0.51     15.999   ; qtot -2
; residue  91 THR rtp THR  q  0.0
   153        NH1     91    THR      N    153      -0.47     14.007
   154          H     91    THR     HN    154       0.31      1.008
   155        CT1     91    THR     CA    155       0.07     12.011
   156         HB     91    THR     HA    156       0.09      1.008
   157        CT1     91    THR     CB    157       0.14     12.011
   158         HA     91    THR     HB    158       0.09      1.008
   159        OH1     91    THR    OG1    159      -0.66     15.999
   160          H     91    THR    HG1    160       0.43      1.008
   161        CT3     91    THR    CG2    161      -0.27     12.011
   162         HA     91    THR   HG21    162       0.09      1.008
   163         HA     91    THR   HG22    163       0.09      1.008
   164         HA     91    THR   HG23    164       0.09      1.008
   165          C     91    THR      C    165       0.51     12.011
   166          O     91    THR      O    166      -0.51     15.999   ; qtot -2
; residue  92 PHE rtp PHE  q  0.0
   167        NH1     92    PHE      N    167      -0.47     14.007
   168          H     92    PHE     HN    168       0.31      1.008
   169        CT1     92    PHE     CA    169       0.07     12.011
   170         HB     92    PHE     HA    170       0.09      1.008
   171        CT2     92    PHE     CB    171      -0.18     12.011
   172         HA     92    PHE    HB1    172       0.09      1.008
   173         HA     92    PHE    HB2    173       0.09      1.008
   174         CA     92    PHE     CG    174          0     12.011
   175         CA     92    PHE    CD1    175     -0.115     12.011
   176         HP     92    PHE    HD1    176      0.115      1.008
   177         CA     92    PHE    CE1    177     -0.115     12.011
   178         HP     92    PHE    HE1    178      0.115      1.008
   179         CA     92    PHE     CZ    179     -0.115     12.011
   180         HP     92    PHE     HZ    180      0.115      1.008
   181         CA     92    PHE    CD2    181     -0.115     12.011
   182         HP     92    PHE    HD2    182      0.115      1.008
   183         CA     92    PHE    CE2    183     -0.115     12.011
   184         HP     92    PHE    HE2    184      0.115      1.008
   185          C     92    PHE      C    185       0.51     12.011
   186          O     92    PHE      O    186      -0.51     15.999   ; qtot -2
; residue  93 THR rtp THR  q  0.0
   187        NH1     93    THR      N    187      -0.47     14.007
   188          H     93    THR     HN    188       0.31      1.008
   189        CT1     93    THR     CA    189       0.07     12.011
   190         HB     93    THR     HA    190       0.09      1.008
   191        CT1     93    THR     CB    191       0.14     12.011
   192         HA     93    THR     HB    192       0.09      1.008
   193        OH1     93    THR    OG1    193      -0.66     15.999
   194          H     93    THR    HG1    194       0.43      1.008
   195        CT3     93    THR    CG2    195      -0.27     12.011
   196         HA     93    THR   HG21    196       0.09      1.008
   197         HA     93    THR   HG22    197       0.09      1.008
   198         HA     93    THR   HG23    198       0.09      1.008
   199          C     93    THR      C    199       0.51     12.011
   200          O     93    THR      O    200      -0.51     15.999   ; qtot -2
; residue  94 VAL rtp VAL  q  0.0
   201        NH1     94    VAL      N    201      -0.47     14.007
   202          H     94    VAL     HN    202       0.31      1.008
   203        CT1     94    VAL     CA    203       0.07     12.011
   204         HB     94    VAL     HA    204       0.09      1.008
   205        CT1     94    VAL     CB    205      -0.09     12.011
   206         HA     94    VAL     HB    206       0.09      1.008
   207        CT3     94    VAL    CG1    207      -0.27     12.011
   208         HA     94    VAL   HG11    208       0.09      1.008
   209         HA     94    VAL   HG12    209       0.09      1.008
   210         HA     94    VAL   HG13    210       0.09      1.008
   211        CT3     94    VAL    CG2    211      -0.27     12.011
   212         HA     94    VAL   HG21    212       0.09      1.008
   213         HA     94    VAL   HG22    213       0.09      1.008
   214         HA     94    VAL   HG23    214       0.09      1.008
   215          C     94    VAL      C    215       0.51     12.011
   216          O     94    VAL      O    216      -0.51     15.999   ; qtot -2
; residue  95 THR rtp THR  q  0.0
   217        NH1     95    THR      N    217      -0.47     14.007
   218          H     95    THR     HN    218       0.31      1.008
   219        CT1     95    THR     CA    219       0.07     12.011
   220         HB     95    THR     HA    220       0.09      1.008
   221        CT1     95    THR     CB    221       0.14     12.011
   222         HA     95    THR     HB    222       0.09      1.008
   223        OH1     95    THR    OG1    223      -0.66     15.999
   224          H     95    THR    HG1    224       0.43      1.008
   225        CT3     95    THR    CG2    225      -0.27     12.011
   226         HA     95    THR   HG21    226       0.09      1.008
   227         HA     95    THR   HG22    227       0.09      1.008
   228         HA     95    THR   HG23    228       0.09      1.008
   229          C     95    THR      C    229       0.51     12.011
   230          O     95    THR      O    230      -0.51     15.999   ; qtot -2
; residue  96 GLU rtp GLU  q -1.0
   231        NH1     96    GLU      N    231      -0.47     14.007
   232          H     96    GLU     HN    232       0.31      1.008
   233        CT1     96    GLU     CA    233       0.07     12.011
   234         HB     96    GLU     HA    234       0.09      1.008
   235        CT2     96    GLU     CB    235      -0.18     12.011
   236         HA     96    GLU    HB1    236       0.09      1.008
   237         HA     96    GLU    HB2    237       0.09      1.008
   238        CT2     96    GLU     CG    238      -0.28     12.011
   239         HA     96    GLU    HG1    239       0.09      1.008
   240         HA     96    GLU    HG2    240       0.09      1.008
   241         CC     96    GLU     CD    241       0.62     12.011
   242         OC     96    GLU    OE1    242      -0.76     15.999
   243         OC     96    GLU    OE2    243      -0.76     15.999
   244         CD     96    GLU      C    244       0.72     12.011
   245         OB     96    GLU    OT1    245      -0.55    15.9994
   246        OH1     96    GLU    OT2    246      -0.61    15.9994
   247          H     96    GLU    HT2    247       0.44      1.008   ; qtot -3

[ bonds ]
;  ai    aj funct            c0            c1            c2            c3
    1     2     1 
    1     3     1 
    1     4     1 
    4     5     1 
    4     6     1 
    4     7     1 
    7     8     1 
    7     9     1 
    9    10     1 
    9    11     1 
   11    12     1 
   11    13     1 
   11    22     1 
   13    14     1 
   13    15     1 
   13    16     1 
   16    17     1 
   16    18     1 
   16    19     1 
   19    20     1 
   19    21     1 
   22    23     1 
   22    24     1 
   24    25     1 
   24    26     1 
   26    27     1 
   26    28     1 
   26    46     1 
   28    29     1 
   28    30     1 
   28    31     1 
   31    32     1 
   31    37     1 
   32    33     1 
   32    34     1 
   34    35     1 
   34    36     1 
   36    37     1 
   36    42     1 
   37    38     1 
   38    39     1 
   38    40     1 
   40    41     1 
   40    44     1 
   42    43     1 
   42    44     1 
   44    45     1 
   46    47     1 
   46    48     1 
   48    49     1 
   48    50     1 
   50    51     1 
   50    52     1 
   50    60     1 
   52    53     1 
   52    54     1 
   52    56     1 
   54    55     1 
   56    57     1 
   56    58     1 
   56    59     1 
   60    61     1 
   60    62     1 
   62    63     1 
   62    64     1 
   64    65     1 
   64    66     1 
   64    81     1 
   66    67     1 
   66    68     1 
   66    69     1 
   69    70     1 
   69    77     1 
   70    71     1 
   70    72     1 
   72    73     1 
   72    74     1 
   74    75     1 
   74    79     1 
   75    76     1 
   77    78     1 
   77    79     1 
   79    80     1 
   81    82     1 
   81    83     1 
   83    84     1 
   83    85     1 
   85    86     1 
   85    87     1 
   85    93     1 
   87    88     1 
   87    89     1 
   87    90     1 
   90    91     1 
   90    92     1 
   93    94     1 
   93    95     1 
   95    96     1 
   95    97     1 
   97    98     1 
   97    99     1 
   97   105     1 
   99   100     1 
   99   101     1 
   99   102     1 
  102   103     1 
  102   104     1 
  105   106     1 
  105   107     1 
  107   108     1 
  107   109     1 
  109   110     1 
  109   111     1 
  109   115     1 
  111   112     1 
  111   113     1 
  111   114     1 
  115   116     1 
  115   117     1 
  117   118     1 
  117   119     1 
  119   120     1 
  119   121     1 
  119   129     1 
  121   122     1 
  121   123     1 
  121   125     1 
  123   124     1 
  125   126     1 
  125   127     1 
  125   128     1 
  129   130     1 
  129   131     1 
  131   132     1 
  131   133     1 
  133   134     1 
  133   135     1 
  133   151     1 
  135   136     1 
  135   137     1 
  135   138     1 
  138   139     1 
  138   140     1 
  138   141     1 
  141   142     1 
  141   143     1 
  141   144     1 
  144   145     1 
  144   146     1 
  144   147     1 
  147   148     1 
  147   149     1 
  147   150     1 
  151   152     1 
  151   153     1 
  153   154     1 
  153   155     1 
  155   156     1 
  155   157     1 
  155   165     1 
  157   158     1 
  157   159     1 
  157   161     1 
  159   160     1 
  161   162     1 
  161   163     1 
  161   164     1 
  165   166     1 
  165   167     1 
  167   168     1 
  167   169     1 
  169   170     1 
  169   171     1 
  169   185     1 
  171   172     1 
  171   173     1 
  171   174     1 
  174   175     1 
  174   181     1 
  175   176     1 
  175   177     1 
  177   178     1 
  177   179     1 
  179   180     1 
  179   183     1 
  181   182     1 
  181   183     1 
  183   184     1 
  185   186     1 
  185   187     1 
  187   188     1 
  187   189     1 
  189   190     1 
  189   191     1 
  189   199     1 
  191   192     1 
  191   193     1 
  191   195     1 
  193   194     1 
  195   196     1 
  195   197     1 
  195   198     1 
  199   200     1 
  199   201     1 
  201   202     1 
  201   203     1 
  203   204     1 
  203   205     1 
  203   215     1 
  205   206     1 
  205   207     1 
  205   211     1 
  207   208     1 
  207   209     1 
  207   210     1 
  211   212     1 
  211   213     1 
  211   214     1 
  215   216     1 
  215   217     1 
  217   218     1 
  217   219     1 
  219   220     1 
  219   221     1 
  219   229     1 
  221   222     1 
  221   223     1 
  221   225     1 
  223   224     1 
  225   226     1 
  225   227     1 
  225   228     1 
  229   230     1 
  229   231     1 
  231   232     1 
  231   233     1 
  233   234     1 
  233   235     1 
  233   244     1 
  235   236     1 
  235   237     1 
  235   238     1 
  238   239     1 
  238   240     1 
  238   241     1 
  241   242     1 
  241   243     1 
  244   245     1 
  244   246     1 
  246   247     1 

[ pairs ]
;  ai    aj funct            c0            c1            c2            c3
    1     8     1 
    1     9     1 
    2     5     1 
    2     6     1 
    2     7     1 
    3     5     1 
    3     6     1 
    3     7     1 
    4    10     1 
    4    11     1 
    5     8     1 
    5     9     1 
    6     8     1 
    6     9     1 
    7    12     1 
    7    13     1 
    7    22     1 
    8    10     1 
    8    11     1 
    9    14     1 
    9    15     1 
    9    16     1 
    9    23     1 
    9    24     1 
   10    12     1 
   10    13     1 
   10    22     1 
   11    17     1 
   11    18     1 
   11    19     1 
   11    25     1 
   11    26     1 
   12    14     1 
   12    15     1 
   12    16     1 
   12    23     1 
   12    24     1 
   13    20     1 
   13    21     1 
   13    23     1 
   13    24     1 
   14    17     1 
   14    18     1 
   14    19     1 
   14    22     1 
   15    17     1 
   15    18     1 
   15    19     1 
   15    22     1 
   16    22     1 
   17    20     1 
   17    21     1 
   18    20     1 
   18    21     1 
   22    27     1 
   22    28     1 
   22    46     1 
   23    25     1 
   23    26     1 
   24    29     1 
   24    30     1 
   24    31     1 
   24    47     1 
   24    48     1 
   25    27     1 
   25    28     1 
   25    46     1 
   26    32     1 
   26    37     1 
   26    49     1 
   26    50     1 
   27    29     1 
   27    30     1 
   27    31     1 
   27    47     1 
   27    48     1 
   28    33     1 
   28    34     1 
   28    36     1 
   28    38     1 
   28    47     1 
   28    48     1 
   29    32     1 
   29    37     1 
   29    46     1 
   30    32     1 
   30    37     1 
   30    46     1 
   31    35     1 
   31    39     1 
   31    40     1 
   31    42     1 
   31    46     1 
   32    38     1 
   32    42     1 
   33    35     1 
   33    36     1 
   33    37     1 
   34    38     1 
   34    43     1 
   34    44     1 
   35    37     1 
   35    42     1 
   36    39     1 
   36    40     1 
   36    45     1 
   37    41     1 
   37    43     1 
   37    44     1 
   38    42     1 
   38    45     1 
   39    41     1 
   39    44     1 
   40    43     1 
   41    42     1 
   41    45     1 
   43    45     1 
   46    51     1 
   46    52     1 
   46    60     1 
   47    49     1 
   47    50     1 
   48    53     1 
   48    54     1 
   48    56     1 
   48    61     1 
   48    62     1 
   49    51     1 
   49    52     1 
   49    60     1 
   50    55     1 
   50    57     1 
   50    58     1 
   50    59     1 
   50    63     1 
   50    64     1 
   51    53     1 
   51    54     1 
   51    56     1 
   51    61     1 
   51    62     1 
   52    61     1 
   52    62     1 
   53    55     1 
   53    57     1 
   53    58     1 
   53    59     1 
   53    60     1 
   54    57     1 
   54    58     1 
   54    59     1 
   54    60     1 
   55    56     1 
   56    60     1 
   60    65     1 
   60    66     1 
   60    81     1 
   61    63     1 
   61    64     1 
   62    67     1 
   62    68     1 
   62    69     1 
   62    82     1 
   62    83     1 
   63    65     1 
   63    66     1 
   63    81     1 
   64    70     1 
   64    77     1 
   64    84     1 
   64    85     1 
   65    67     1 
   65    68     1 
   65    69     1 
   65    82     1 
   65    83     1 
   66    71     1 
   66    72     1 
   66    78     1 
   66    79     1 
   66    82     1 
   66    83     1 
   67    70     1 
   67    77     1 
   67    81     1 
   68    70     1 
   68    77     1 
   68    81     1 
   69    73     1 
   69    74     1 
   69    80     1 
   69    81     1 
   70    75     1 
   70    78     1 
   70    79     1 
   71    73     1 
   71    74     1 
   71    77     1 
   72    76     1 
   72    77     1 
   72    80     1 
   73    75     1 
   73    79     1 
   74    78     1 
   75    77     1 
   75    80     1 
   76    79     1 
   78    80     1 
   81    86     1 
   81    87     1 
   81    93     1 
   82    84     1 
   82    85     1 
   83    88     1 
   83    89     1 
   83    90     1 
   83    94     1 
   83    95     1 
   84    86     1 
   84    87     1 
   84    93     1 
   85    91     1 
   85    92     1 
   85    96     1 
   85    97     1 
   86    88     1 
   86    89     1 
   86    90     1 
   86    94     1 
   86    95     1 
   87    94     1 
   87    95     1 
   88    91     1 
   88    92     1 
   88    93     1 
   89    91     1 
   89    92     1 
   89    93     1 
   90    93     1 
   93    98     1 
   93    99     1 
   93   105     1 
   94    96     1 
   94    97     1 
   95   100     1 
   95   101     1 
   95   102     1 
   95   106     1 
   95   107     1 
   96    98     1 
   96    99     1 
   96   105     1 
   97   103     1 
   97   104     1 
   97   108     1 
   97   109     1 
   98   100     1 
   98   101     1 
   98   102     1 
   98   106     1 
   98   107     1 
   99   106     1 
   99   107     1 
  100   103     1 
  100   104     1 
  100   105     1 
  101   103     1 
  101   104     1 
  101   105     1 
  102   105     1 
  105   110     1 
  105   111     1 
  105   115     1 
  106   108     1 
  106   109     1 
  107   112     1 
  107   113     1 
  107   114     1 
  107   116     1 
  107   117     1 
  108   110     1 
  108   111     1 
  108   115     1 
  109   118     1 
  109   119     1 
  110   112     1 
  110   113     1 
  110   114     1 
  110   116     1 
  110   117     1 
  111   116     1 
  111   117     1 
  112   115     1 
  113   115     1 
  114   115     1 
  115   120     1 
  115   121     1 
  115   129     1 
  116   118     1 
  116   119     1 
  117   122     1 
  117   123     1 
  117   125     1 
  117   130     1 
  117   131     1 
  118   120     1 
  118   121     1 
  118   129     1 
  119   124     1 
  119   126     1 
  119   127     1 
  119   128     1 
  119   132     1 
  119   133     1 
  120   122     1 
  120   123     1 
  120   125     1 
  120   130     1 
  120   131     1 
  121   130     1 
  121   131     1 
  122   124     1 
  122   126     1 
  122   127     1 
  122   128     1 
  122   129     1 
  123   126     1 
  123   127     1 
  123   128     1 
  123   129     1 
  124   125     1 
  125   129     1 
  129   134     1 
  129   135     1 
  129   151     1 
  130   132     1 
  130   133     1 
  131   136     1 
  131   137     1 
  131   138     1 
  131   152     1 
  131   153     1 
  132   134     1 
  132   135     1 
  132   151     1 
  133   139     1 
  133   140     1 
  133   141     1 
  133   154     1 
  133   155     1 
  134   136     1 
  134   137     1 
  134   138     1 
  134   152     1 
  134   153     1 
  135   142     1 
  135   143     1 
  135   144     1 
  135   152     1 
  135   153     1 
  136   139     1 
  136   140     1 
  136   141     1 
  136   151     1 
  137   139     1 
  137   140     1 
  137   141     1 
  137   151     1 
  138   145     1 
  138   146     1 
  138   147     1 
  138   151     1 
  139   142     1 
  139   143     1 
  139   144     1 
  140   142     1 
  140   143     1 
  140   144     1 
  141   148     1 
  141   149     1 
  141   150     1 
  142   145     1 
  142   146     1 
  142   147     1 
  143   145     1 
  143   146     1 
  143   147     1 
  145   148     1 
  145   149     1 
  145   150     1 
  146   148     1 
  146   149     1 
  146   150     1 
  151   156     1 
  151   157     1 
  151   165     1 
  152   154     1 
  152   155     1 
  153   158     1 
  153   159     1 
  153   161     1 
  153   166     1 
  153   167     1 
  154   156     1 
  154   157     1 
  154   165     1 
  155   160     1 
  155   162     1 
  155   163     1 
  155   164     1 
  155   168     1 
  155   169     1 
  156   158     1 
  156   159     1 
  156   161     1 
  156   166     1 
  156   167     1 
  157   166     1 
  157   167     1 
  158   160     1 
  158   162     1 
  158   163     1 
  158   164     1 
  158   165     1 
  159   162     1 
  159   163     1 
  159   164     1 
  159   165     1 
  160   161     1 
  161   165     1 
  165   170     1 
  165   171     1 
  165   185     1 
  166   168     1 
  166   169     1 
  167   172     1 
  167   173     1 
  167   174     1 
  167   186     1 
  167   187     1 
  168   170     1 
  168   171     1 
  168   185     1 
  169   175     1 
  169   181     1 
  169   188     1 
  169   189     1 
  170   172     1 
  170   173     1 
  170   174     1 
  170   186     1 
  170   187     1 
  171   176     1 
  171   177     1 
  171   182     1 
  171   183     1 
  171   186     1 
  171   187     1 
  172   175     1 
  172   181     1 
  172   185     1 
  173   175     1 
  173   181     1 
  173   185     1 
  174   178     1 
  174   179     1 
  174   184     1 
  174   185     1 
  175   180     1 
  175   182     1 
  175   183     1 
  176   178     1 
  176   179     1 
  176   181     1 
  177   181     1 
  177   184     1 
  178   180     1 
  178   183     1 
  179   182     1 
  180   181     1 
  180   184     1 
  182   184     1 
  185   190     1 
  185   191     1 
  185   199     1 
  186   188     1 
  186   189     1 
  187   192     1 
  187   193     1 
  187   195     1 
  187   200     1 
  187   201     1 
  188   190     1 
  188   191     1 
  188   199     1 
  189   194     1 
  189   196     1 
  189   197     1 
  189   198     1 
  189   202     1 
  189   203     1 
  190   192     1 
  190   193     1 
  190   195     1 
  190   200     1 
  190   201     1 
  191   200     1 
  191   201     1 
  192   194     1 
  192   196     1 
  192   197     1 
  192   198     1 
  192   199     1 
  193   196     1 
  193   197     1 
  193   198     1 
  193   199     1 
  194   195     1 
  195   199     1 
  199   204     1 
  199   205     1 
  199   215     1 
  200   202     1 
  200   203     1 
  201   206     1 
  201   207     1 
  201   211     1 
  201   216     1 
  201   217     1 
  202   204     1 
  202   205     1 
  202   215     1 
  203   208     1 
  203   209     1 
  203   210     1 
  203   212     1 
  203   213     1 
  203   214     1 
  203   218     1 
  203   219     1 
  204   206     1 
  204   207     1 
  204   211     1 
  204   216     1 
  204   217     1 
  205   216     1 
  205   217     1 
  206   208     1 
  206   209     1 
  206   210     1 
  206   212     1 
  206   213     1 
  206   214     1 
  206   215     1 
  207   212     1 
  207   213     1 
  207   214     1 
  207   215     1 
  208   211     1 
  209   211     1 
  210   211     1 
  211   215     1 
  215   220     1 
  215   221     1 
  215   229     1 
  216   218     1 
  216   219     1 
  217   222     1 
  217   223     1 
  217   225     1 
  217   230     1 
  217   231     1 
  218   220     1 
  218   221     1 
  218   229     1 
  219   224     1 
  219   226     1 
  219   227     1 
  219   228     1 
  219   232     1 
  219   233     1 
  220   222     1 
  220   223     1 
  220   225     1 
  220   230     1 
  220   231     1 
  221   230     1 
  221   231     1 
  222   224     1 
  222   226     1 
  222   227     1 
  222   228     1 
  222   229     1 
  223   226     1 
  223   227     1 
  223   228     1 
  223   229     1 
  224   225     1 
  225   229     1 
  229   234     1 
  229   235     1 
  229   244     1 
  230   232     1 
  230   233     1 
  231   236     1 
  231   237     1 
  231   238     1 
  231   245     1 
  231   246     1 
  232   234     1 
  232   235     1 
  232   244     1 
  233   239     1 
  233   240     1 
  233   241     1 
  233   247     1 
  234   236     1 
  234   237     1 
  234   238     1 
  234   245     1 
  234   246     1 
  235   242     1 
  235   243     1 
  235   245     1 
  235   246     1 
  236   239     1 
  236   240     1 
  236   241     1 
  236   244     1 
  237   239     1 
  237   240     1 
  237   241     1 
  237   244     1 
  238   244     1 
  239   242     1 
  239   243     1 
  240   242     1 
  240   243     1 
  245   247     1 

[ angles ]
;  ai    aj    ak funct            c0            c1            c2            c3
    2     1     3     5 
    2     1     4     5 
    3     1     4     5 
    1     4     5     5 
    1     4     6     5 
    1     4     7     5 
    5     4     6     5 
    5     4     7     5 
    6     4     7     5 
    4     7     8     5 
    4     7     9     5 
    8     7     9     5 
    7     9    10     5 
    7     9    11     5 
   10     9    11     5 
    9    11    12     5 
    9    11    13     5 
    9    11    22     5 
   12    11    13     5 
   12    11    22     5 
   13    11    22     5 
   11    13    14     5 
   11    13    15     5 
   11    13    16     5 
   14    13    15     5 
   14    13    16     5 
   15    13    16     5 
   13    16    17     5 
   13    16    18     5 
   13    16    19     5 
   17    16    18     5 
   17    16    19     5 
   18    16    19     5 
   16    19    20     5 
   16    19    21     5 
   20    19    21     5 
   11    22    23     5 
   11    22    24     5 
   23    22    24     5 
   22    24    25     5 
   22    24    26     5 
   25    24    26     5 
   24    26    27     5 
   24    26    28     5 
   24    26    46     5 
   27    26    28     5 
   27    26    46     5 
   28    26    46     5 
   26    28    29     5 
   26    28    30     5 
   26    28    31     5 
   29    28    30     5 
   29    28    31     5 
   30    28    31     5 
   28    31    32     5 
   28    31    37     5 
   32    31    37     5 
   31    32    33     5 
   31    32    34     5 
   33    32    34     5 
   32    34    35     5 
   32    34    36     5 
   35    34    36     5 
   34    36    37     5 
   34    36    42     5 
   37    36    42     5 
   31    37    36     5 
   31    37    38     5 
   36    37    38     5 
   37    38    39     5 
   37    38    40     5 
   39    38    40     5 
   38    40    41     5 
   38    40    44     5 
   41    40    44     5 
   36    42    43     5 
   36    42    44     5 
   43    42    44     5 
   40    44    42     5 
   40    44    45     5 
   42    44    45     5 
   26    46    47     5 
   26    46    48     5 
   47    46    48     5 
   46    48    49     5 
   46    48    50     5 
   49    48    50     5 
   48    50    51     5 
   48    50    52     5 
   48    50    60     5 
   51    50    52     5 
   51    50    60     5 
   52    50    60     5 
   50    52    53     5 
   50    52    54     5 
   50    52    56     5 
   53    52    54     5 
   53    52    56     5 
   54    52    56     5 
   52    54    55     5 
   52    56    57     5 
   52    56    58     5 
   52    56    59     5 
   57    56    58     5 
   57    56    59     5 
   58    56    59     5 
   50    60    61     5 
   50    60    62     5 
   61    60    62     5 
   60    62    63     5 
   60    62    64     5 
   63    62    64     5 
   62    64    65     5 
   62    64    66     5 
   62    64    81     5 
   65    64    66     5 
   65    64    81     5 
   66    64    81     5 
   64    66    67     5 
   64    66    68     5 
   64    66    69     5 
   67    66    68     5 
   67    66    69     5 
   68    66    69     5 
   66    69    70     5 
   66    69    77     5 
   70    69    77     5 
   69    70    71     5 
   69    70    72     5 
   71    70    72     5 
   70    72    73     5 
   70    72    74     5 
   73    72    74     5 
   72    74    75     5 
   72    74    79     5 
   75    74    79     5 
   74    75    76     5 
   69    77    78     5 
   69    77    79     5 
   78    77    79     5 
   74    79    77     5 
   74    79    80     5 
   77    79    80     5 
   64    81    82     5 
   64    81    83     5 
   82    81    83     5 
   81    83    84     5 
   81    83    85     5 
   84    83    85     5 
   83    85    86     5 
   83    85    87     5 
   83    85    93     5 
   86    85    87     5 
   86    85    93     5 
   87    85    93     5 
   85    87    88     5 
   85    87    89     5 
   85    87    90     5 
   88    87    89     5 
   88    87    90     5 
   89    87    90     5 
   87    90    91     5 
   87    90    92     5 
   91    90    92     5 
   85    93    94     5 
   85    93    95     5 
   94    93    95     5 
   93    95    96     5 
   93    95    97     5 
   96    95    97     5 
   95    97    98     5 
   95    97    99     5 
   95    97   105     5 
   98    97    99     5 
   98    97   105     5 
   99    97   105     5 
   97    99   100     5 
   97    99   101     5 
   97    99   102     5 
  100    99   101     5 
  100    99   102     5 
  101    99   102     5 
   99   102   103     5 
   99   102   104     5 
  103   102   104     5 
   97   105   106     5 
   97   105   107     5 
  106   105   107     5 
  105   107   108     5 
  105   107   109     5 
  108   107   109     5 
  107   109   110     5 
  107   109   111     5 
  107   109   115     5 
  110   109   111     5 
  110   109   115     5 
  111   109   115     5 
  109   111   112     5 
  109   111   113     5 
  109   111   114     5 
  112   111   113     5 
  112   111   114     5 
  113   111   114     5 
  109   115   116     5 
  109   115   117     5 
  116   115   117     5 
  115   117   118     5 
  115   117   119     5 
  118   117   119     5 
  117   119   120     5 
  117   119   121     5 
  117   119   129     5 
  120   119   121     5 
  120   119   129     5 
  121   119   129     5 
  119   121   122     5 
  119   121   123     5 
  119   121   125     5 
  122   121   123     5 
  122   121   125     5 
  123   121   125     5 
  121   123   124     5 
  121   125   126     5 
  121   125   127     5 
  121   125   128     5 
  126   125   127     5 
  126   125   128     5 
  127   125   128     5 
  119   129   130     5 
  119   129   131     5 
  130   129   131     5 
  129   131   132     5 
  129   131   133     5 
  132   131   133     5 
  131   133   134     5 
  131   133   135     5 
  131   133   151     5 
  134   133   135     5 
  134   133   151     5 
  135   133   151     5 
  133   135   136     5 
  133   135   137     5 
  133   135   138     5 
  136   135   137     5 
  136   135   138     5 
  137   135   138     5 
  135   138   139     5 
  135   138   140     5 
  135   138   141     5 
  139   138   140     5 
  139   138   141     5 
  140   138   141     5 
  138   141   142     5 
  138   141   143     5 
  138   141   144     5 
  142   141   143     5 
  142   141   144     5 
  143   141   144     5 
  141   144   145     5 
  141   144   146     5 
  141   144   147     5 
  145   144   146     5 
  145   144   147     5 
  146   144   147     5 
  144   147   148     5 
  144   147   149     5 
  144   147   150     5 
  148   147   149     5 
  148   147   150     5 
  149   147   150     5 
  133   151   152     5 
  133   151   153     5 
  152   151   153     5 
  151   153   154     5 
  151   153   155     5 
  154   153   155     5 
  153   155   156     5 
  153   155   157     5 
  153   155   165     5 
  156   155   157     5 
  156   155   165     5 
  157   155   165     5 
  155   157   158     5 
  155   157   159     5 
  155   157   161     5 
  158   157   159     5 
  158   157   161     5 
  159   157   161     5 
  157   159   160     5 
  157   161   162     5 
  157   161   163     5 
  157   161   164     5 
  162   161   163     5 
  162   161   164     5 
  163   161   164     5 
  155   165   166     5 
  155   165   167     5 
  166   165   167     5 
  165   167   168     5 
  165   167   169     5 
  168   167   169     5 
  167   169   170     5 
  167   169   171     5 
  167   169   185     5 
  170   169   171     5 
  170   169   185     5 
  171   169   185     5 
  169   171   172     5 
  169   171   173     5 
  169   171   174     5 
  172   171   173     5 
  172   171   174     5 
  173   171   174     5 
  171   174   175     5 
  171   174   181     5 
  175   174   181     5 
  174   175   176     5 
  174   175   177     5 
  176   175   177     5 
  175   177   178     5 
  175   177   179     5 
  178   177   179     5 
  177   179   180     5 
  177   179   183     5 
  180   179   183     5 
  174   181   182     5 
  174   181   183     5 
  182   181   183     5 
  179   183   181     5 
  179   183   184     5 
  181   183   184     5 
  169   185   186     5 
  169   185   187     5 
  186   185   187     5 
  185   187   188     5 
  185   187   189     5 
  188   187   189     5 
  187   189   190     5 
  187   189   191     5 
  187   189   199     5 
  190   189   191     5 
  190   189   199     5 
  191   189   199     5 
  189   191   192     5 
  189   191   193     5 
  189   191   195     5 
  192   191   193     5 
  192   191   195     5 
  193   191   195     5 
  191   193   194     5 
  191   195   196     5 
  191   195   197     5 
  191   195   198     5 
  196   195   197     5 
  196   195   198     5 
  197   195   198     5 
  189   199   200     5 
  189   199   201     5 
  200   199   201     5 
  199   201   202     5 
  199   201   203     5 
  202   201   203     5 
  201   203   204     5 
  201   203   205     5 
  201   203   215     5 
  204   203   205     5 
  204   203   215     5 
  205   203   215     5 
  203   205   206     5 
  203   205   207     5 
  203   205   211     5 
  206   205   207     5 
  206   205   211     5 
  207   205   211     5 
  205   207   208     5 
  205   207   209     5 
  205   207   210     5 
  208   207   209     5 
  208   207   210     5 
  209   207   210     5 
  205   211   212     5 
  205   211   213     5 
  205   211   214     5 
  212   211   213     5 
  212   211   214     5 
  213   211   214     5 
  203   215   216     5 
  203   215   217     5 
  216   215   217     5 
  215   217   218     5 
  215   217   219     5 
  218   217   219     5 
  217   219   220     5 
  217   219   221     5 
  217   219   229     5 
  220   219   221     5 
  220   219   229     5 
  221   219   229     5 
  219   221   222     5 
  219   221   223     5 
  219   221   225     5 
  222   221   223     5 
  222   221   225     5 
  223   221   225     5 
  221   223   224     5 
  221   225   226     5 
  221   225   227     5 
  221   225   228     5 
  226   225   227     5 
  226   225   228     5 
  227   225   228     5 
  219   229   230     5 
  219   229   231     5 
  230   229   231     5 
  229   231   232     5 
  229   231   233     5 
  232   231   233     5 
  231   233   234     5 
  231   233   235     5 
  231   233   244     5 
  234   233   235     5 
  234   233   244     5 
  235   233   244     5 
  233   235   236     5 
  233   235   237     5 
  233   235   238     5 
  236   235   237     5 
  236   235   238     5 
  237   235   238     5 
  235   238   239     5 
  235   238   240     5 
  235   238   241     5 
  239   238   240     5 
  239   238   241     5 
  240   238   241     5 
  238   241   242     5 
  238   241   243     5 
  242   241   243     5 
  233   244   245     5 
  233   244   246     5 
  245   244   246     5 
  244   246   247     5 

[ dihedrals ]
;  ai    aj    ak    al funct            c0            c1            c2            c3            c4            c5
    2     1     4     5     9 
    2     1     4     6     9 
    2     1     4     7     9 
    3     1     4     5     9 
    3     1     4     6     9 
    3     1     4     7     9 
    1     4     7     8     9 
    1     4     7     9     9 
    5     4     7     8     9 
    5     4     7     9     9 
    6     4     7     8     9 
    6     4     7     9     9 
    4     7     9    10     9 
    4     7     9    11     9 
    8     7     9    10     9 
    8     7     9    11     9 
    7     9    11    12     9 
    7     9    11    13     9 
    7     9    11    22     9 
   10     9    11    12     9 
   10     9    11    13     9 
   10     9    11    22     9 
    9    11    13    14     9 
    9    11    13    15     9 
    9    11    13    16     9 
   12    11    13    14     9 
   12    11    13    15     9 
   12    11    13    16     9 
   22    11    13    14     9 
   22    11    13    15     9 
   22    11    13    16     9 
    9    11    22    23     9 
    9    11    22    24     9 
   12    11    22    23     9 
   12    11    22    24     9 
   13    11    22    23     9 
   13    11    22    24     9 
   11    13    16    17     9 
   11    13    16    18     9 
   11    13    16    19     9 
   14    13    16    17     9 
   14    13    16    18     9 
   14    13    16    19     9 
   15    13    16    17     9 
   15    13    16    18     9 
   15    13    16    19     9 
   13    16    19    20     9 
   13    16    19    21     9 
   17    16    19    20     9 
   17    16    19    21     9 
   18    16    19    20     9 
   18    16    19    21     9 
   11    22    24    25     9 
   11    22    24    26     9 
   23    22    24    25     9 
   23    22    24    26     9 
   22    24    26    27     9 
   22    24    26    28     9 
   22    24    26    46     9 
   25    24    26    27     9 
   25    24    26    28     9 
   25    24    26    46     9 
   24    26    28    29     9 
   24    26    28    30     9 
   24    26    28    31     9 
   27    26    28    29     9 
   27    26    28    30     9 
   27    26    28    31     9 
   46    26    28    29     9 
   46    26    28    30     9 
   46    26    28    31     9 
   24    26    46    47     9 
   24    26    46    48     9 
   27    26    46    47     9 
   27    26    46    48     9 
   28    26    46    47     9 
   28    26    46    48     9 
   26    28    31    32     9 
   26    28    31    37     9 
   29    28    31    32     9 
   29    28    31    37     9 
   30    28    31    32     9 
   30    28    31    37     9 
   28    31    32    33     9 
   28    31    32    34     9 
   37    31    32    33     9 
   37    31    32    34     9 
   28    31    37    36     9 
   28    31    37    38     9 
   32    31    37    36     9 
   32    31    37    38     9 
   31    32    34    35     9 
   31    32    34    36     9 
   33    32    34    35     9 
   33    32    34    36     9 
   32    34    36    37     9 
   32    34    36    42     9 
   35    34    36    37     9 
   35    34    36    42     9 
   34    36    37    31     9 
   34    36    37    38     9 
   42    36    37    31     9 
   42    36    37    38     9 
   34    36    42    43     9 
   34    36    42    44     9 
   37    36    42    43     9 
   37    36    42    44     9 
   31    37    38    39     9 
   31    37    38    40     9 
   36    37    38    39     9 
   36    37    38    40     9 
   37    38    40    41     9 
   37    38    40    44     9 
   39    38    40    41     9 
   39    38    40    44     9 
   38    40    44    42     9 
   38    40    44    45     9 
   41    40    44    42     9 
   41    40    44    45     9 
   36    42    44    40     9 
   36    42    44    45     9 
   43    42    44    40     9 
   43    42    44    45     9 
   26    46    48    49     9 
   26    46    48    50     9 
   47    46    48    49     9 
   47    46    48    50     9 
   46    48    50    51     9 
   46    48    50    52     9 
   46    48    50    60     9 
   49    48    50    51     9 
   49    48    50    52     9 
   49    48    50    60     9 
   48    50    52    53     9 
   48    50    52    54     9 
   48    50    52    56     9 
   51    50    52    53     9 
   51    50    52    54     9 
   51    50    52    56     9 
   60    50    52    53     9 
   60    50    52    54     9 
   60    50    52    56     9 
   48    50    60    61     9 
   48    50    60    62     9 
   51    50    60    61     9 
   51    50    60    62     9 
   52    50    60    61     9 
   52    50    60    62     9 
   50    52    54    55     9 
   53    52    54    55     9 
   56    52    54    55     9 
   50    52    56    57     9 
   50    52    56    58     9 
   50    52    56    59     9 
   53    52    56    57     9 
   53    52    56    58     9 
   53    52    56    59     9 
   54    52    56    57     9 
   54    52    56    58     9 
   54    52    56    59     9 
   50    60    62    63     9 
   50    60    62    64     9 
   61    60    62    63     9 
   61    60    62    64     9 
   60    62    64    65     9 
   60    62    64    66     9 
   60    62    64    81     9 
   63    62    64    65     9 
   63    62    64    66     9 
   63    62    64    81     9 
   62    64    66    67     9 
   62    64    66    68     9 
   62    64    66    69     9 
   65    64    66    67     9 
   65    64    66    68     9 
   65    64    66    69     9 
   81    64    66    67     9 
   81    64    66    68     9 
   81    64    66    69     9 
   62    64    81    82     9 
   62    64    81    83     9 
   65    64    81    82     9 
   65    64    81    83     9 
   66    64    81    82     9 
   66    64    81    83     9 
   64    66    69    70     9 
   64    66    69    77     9 
   67    66    69    70     9 
   67    66    69    77     9 
   68    66    69    70     9 
   68    66    69    77     9 
   66    69    70    71     9 
   66    69    70    72     9 
   77    69    70    71     9 
   77    69    70    72     9 
   66    69    77    78     9 
   66    69    77    79     9 
   70    69    77    78     9 
   70    69    77    79     9 
   69    70    72    73     9 
   69    70    72    74     9 
   71    70    72    73     9 
   71    70    72    74     9 
   70    72    74    75     9 
   70    72    74    79     9 
   73    72    74    75     9 
   73    72    74    79     9 
   72    74    75    76     9 
   79    74    75    76     9 
   72    74    79    77     9 
   72    74    79    80     9 
   75    74    79    77     9 
   75    74    79    80     9 
   69    77    79    74     9 
   69    77    79    80     9 
   78    77    79    74     9 
   78    77    79    80     9 
   64    81    83    84     9 
   64    81    83    85     9 
   82    81    83    84     9 
   82    81    83    85     9 
   81    83    85    86     9 
   81    83    85    87     9 
   81    83    85    93     9 
   84    83    85    86     9 
   84    83    85    87     9 
   84    83    85    93     9 
   83    85    87    88     9 
   83    85    87    89     9 
   83    85    87    90     9 
   86    85    87    88     9 
   86    85    87    89     9 
   86    85    87    90     9 
   93    85    87    88     9 
   93    85    87    89     9 
   93    85    87    90     9 
   83    85    93    94     9 
   83    85    93    95     9 
   86    85    93    94     9 
   86    85    93    95     9 
   87    85    93    94     9 
   87    85    93    95     9 
   85    87    90    91     9 
   85    87    90    92     9 
   88    87    90    91     9 
   88    87    90    92     9 
   89    87    90    91     9 
   89    87    90    92     9 
   85    93    95    96     9 
   85    93    95    97     9 
   94    93    95    96     9 
   94    93    95    97     9 
   93    95    97    98     9 
   93    95    97    99     9 
   93    95    97   105     9 
   96    95    97    98     9 
   96    95    97    99     9 
   96    95    97   105     9 
   95    97    99   100     9 
   95    97    99   101     9 
   95    97    99   102     9 
   98    97    99   100     9 
   98    97    99   101     9 
   98    97    99   102     9 
  105    97    99   100     9 
  105    97    99   101     9 
  105    97    99   102     9 
   95    97   105   106     9 
   95    97   105   107     9 
   98    97   105   106     9 
   98    97   105   107     9 
   99    97   105   106     9 
   99    97   105   107     9 
   97    99   102   103     9 
   97    99   102   104     9 
  100    99   102   103     9 
  100    99   102   104     9 
  101    99   102   103     9 
  101    99   102   104     9 
   97   105   107   108     9 
   97   105   107   109     9 
  106   105   107   108     9 
  106   105   107   109     9 
  105   107   109   110     9 
  105   107   109   111     9 
  105   107   109   115     9 
  108   107   109   110     9 
  108   107   109   111     9 
  108   107   109   115     9 
  107   109   111   112     9 
  107   109   111   113     9 
  107   109   111   114     9 
  110   109   111   112     9 
  110   109   111   113     9 
  110   109   111   114     9 
  115   109   111   112     9 
  115   109   111   113     9 
  115   109   111   114     9 
  107   109   115   116     9 
  107   109   115   117     9 
  110   109   115   116     9 
  110   109   115   117     9 
  111   109   115   116     9 
  111   109   115   117     9 
  109   115   117   118     9 
  109   115   117   119     9 
  116   115   117   118     9 
  116   115   117   119     9 
  115   117   119   120     9 
  115   117   119   121     9 
  115   117   119   129     9 
  118   117   119   120     9 
  118   117   119   121     9 
  118   117   119   129     9 
  117   119   121   122     9 
  117   119   121   123     9 
  117   119   121   125     9 
  120   119   121   122     9 
  120   119   121   123     9 
  120   119   121   125     9 
  129   119   121   122     9 
  129   119   121   123     9 
  129   119   121   125     9 
  117   119   129   130     9 
  117   119   129   131     9 
  120   119   129   130     9 
  120   119   129   131     9 
  121   119   129   130     9 
  121   119   129   131     9 
  119   121   123   124     9 
  122   121   123   124     9 
  125   121   123   124     9 
  119   121   125   126     9 
  119   121   125   127     9 
  119   121   125   128     9 
  122   121   125   126     9 
  122   121   125   127     9 
  122   121   125   128     9 
  123   121   125   126     9 
  123   121   125   127     9 
  123   121   125   128     9 
  119   129   131   132     9 
  119   129   131   133     9 
  130   129   131   132     9 
  130   129   131   133     9 
  129   131   133   134     9 
  129   131   133   135     9 
  129   131   133   151     9 
  132   131   133   134     9 
  132   131   133   135     9 
  132   131   133   151     9 
  131   133   135   136     9 
  131   133   135   137     9 
  131   133   135   138     9 
  134   133   135   136     9 
  134   133   135   137     9 
  134   133   135   138     9 
  151   133   135   136     9 
  151   133   135   137     9 
  151   133   135   138     9 
  131   133   151   152     9 
  131   133   151   153     9 
  134   133   151   152     9 
  134   133   151   153     9 
  135   133   151   152     9 
  135   133   151   153     9 
  133   135   138   139     9 
  133   135   138   140     9 
  133   135   138   141     9 
  136   135   138   139     9 
  136   135   138   140     9 
  136   135   138   141     9 
  137   135   138   139     9 
  137   135   138   140     9 
  137   135   138   141     9 
  135   138   141   142     9 
  135   138   141   143     9 
  135   138   141   144     9 
  139   138   141   142     9 
  139   138   141   143     9 
  139   138   141   144     9 
  140   138   141   142     9 
  140   138   141   143     9 
  140   138   141   144     9 
  138   141   144   145     9 
  138   141   144   146     9 
  138   141   144   147     9 
  142   141   144   145     9 
  142   141   144   146     9 
  142   141   144   147     9 
  143   141   144   145     9 
  143   141   144   146     9 
  143   141   144   147     9 
  141   144   147   148     9 
  141   144   147   149     9 
  141   144   147   150     9 
  145   144   147   148     9 
  145   144   147   149     9 
  145   144   147   150     9 
  146   144   147   148     9 
  146   144   147   149     9 
  146   144   147   150     9 
  133   151   153   154     9 
  133   151   153   155     9 
  152   151   153   154     9 
  152   151   153   155     9 
  151   153   155   156     9 
  151   153   155   157     9 
  151   153   155   165     9 
  154   153   155   156     9 
  154   153   155   157     9 
  154   153   155   165     9 
  153   155   157   158     9 
  153   155   157   159     9 
  153   155   157   161     9 
  156   155   157   158     9 
  156   155   157   159     9 
  156   155   157   161     9 
  165   155   157   158     9 
  165   155   157   159     9 
  165   155   157   161     9 
  153   155   165   166     9 
  153   155   165   167     9 
  156   155   165   166     9 
  156   155   165   167     9 
  157   155   165   166     9 
  157   155   165   167     9 
  155   157   159   160     9 
  158   157   159   160     9 
  161   157   159   160     9 
  155   157   161   162     9 
  155   157   161   163     9 
  155   157   161   164     9 
  158   157   161   162     9 
  158   157   161   163     9 
  158   157   161   164     9 
  159   157   161   162     9 
  159   157   161   163     9 
  159   157   161   164     9 
  155   165   167   168     9 
  155   165   167   169     9 
  166   165   167   168     9 
  166   165   167   169     9 
  165   167   169   170     9 
  165   167   169   171     9 
  165   167   169   185     9 
  168   167   169   170     9 
  168   167   169   171     9 
  168   167   169   185     9 
  167   169   171   172     9 
  167   169   171   173     9 
  167   169   171   174     9 
  170   169   171   172     9 
  170   169   171   173     9 
  170   169   171   174     9 
  185   169   171   172     9 
  185   169   171   173     9 
  185   169   171   174     9 
  167   169   185   186     9 
  167   169   185   187     9 
  170   169   185   186     9 
  170   169   185   187     9 
  171   169   185   186     9 
  171   169   185   187     9 
  169   171   174   175     9 
  169   171   174   181     9 
  172   171   174   175     9 
  172   171   174   181     9 
  173   171   174   175     9 
  173   171   174   181     9 
  171   174   175   176     9 
  171   174   175   177     9 
  181   174   175   176     9 
  181   174   175   177     9 
  171   174   181   182     9 
  171   174   181   183     9 
  175   174   181   182     9 
  175   174   181   183     9 
  174   175   177   178     9 
  174   175   177   179     9 
  176   175   177   178     9 
  176   175   177   179     9 
  175   177   179   180     9 
  175   177   179   183     9 
  178   177   179   180     9 
  178   177   179   183     9 
  177   179   183   181     9 
  177   179   183   184     9 
  180   179   183   181     9 
  180   179   183   184     9 
  174   181   183   179     9 
  174   181   183   184     9 
  182   181   183   179     9 
  182   181   183   184     9 
  169   185   187   188     9 
  169   185   187   189     9 
  186   185   187   188     9 
  186   185   187   189     9 
  185   187   189   190     9 
  185   187   189   191     9 
  185   187   189   199     9 
  188   187   189   190     9 
  188   187   189   191     9 
  188   187   189   199     9 
  187   189   191   192     9 
  187   189   191   193     9 
  187   189   191   195     9 
  190   189   191   192     9 
  190   189   191   193     9 
  190   189   191   195     9 
  199   189   191   192     9 
  199   189   191   193     9 
  199   189   191   195     9 
  187   189   199   200     9 
  187   189   199   201     9 
  190   189   199   200     9 
  190   189   199   201     9 
  191   189   199   200     9 
  191   189   199   201     9 
  189   191   193   194     9 
  192   191   193   194     9 
  195   191   193   194     9 
  189   191   195   196     9 
  189   191   195   197     9 
  189   191   195   198     9 
  192   191   195   196     9 
  192   191   195   197     9 
  192   191   195   198     9 
  193   191   195   196     9 
  193   191   195   197     9 
  193   191   195   198     9 
  189   199   201   202     9 
  189   199   201   203     9 
  200   199   201   202     9 
  200   199   201   203     9 
  199   201   203   204     9 
  199   201   203   205     9 
  199   201   203   215     9 
  202   201   203   204     9 
  202   201   203   205     9 
  202   201   203   215     9 
  201   203   205   206     9 
  201   203   205   207     9 
  201   203   205   211     9 
  204   203   205   206     9 
  204   203   205   207     9 
  204   203   205   211     9 
  215   203   205   206     9 
  215   203   205   207     9 
  215   203   205   211     9 
  201   203   215   216     9 
  201   203   215   217     9 
  204   203   215   216     9 
  204   203   215   217     9 
  205   203   215   216     9 
  205   203   215   217     9 
  203   205   207   208     9 
  203   205   207   209     9 
  203   205   207   210     9 
  206   205   207   208     9 
  206   205   207   209     9 
  206   205   207   210     9 
  211   205   207   208     9 
  211   205   207   209     9 
  211   205   207   210     9 
  203   205   211   212     9 
  203   205   211   213     9 
  203   205   211   214     9 
  206   205   211   212     9 
  206   205   211   213     9 
  206   205   211   214     9 
  207   205   211   212     9 
  207   205   211   213     9 
  207   205   211   214     9 
  203   215   217   218     9 
  203   215   217   219     9 
  216   215   217   218     9 
  216   215   217   219     9 
  215   217   219   220     9 
  215   217   219   221     9 
  215   217   219   229     9 
  218   217   219   220     9 
  218   217   219   221     9 
  218   217   219   229     9 
  217   219   221   222     9 
  217   219   221   223     9 
  217   219   221   225     9 
  220   219   221   222     9 
  220   219   221   223     9 
  220   219   221   225     9 
  229   219   221   222     9 
  229   219   221   223     9 
  229   219   221   225     9 
  217   219   229   230     9 
  217   219   229   231     9 
  220   219   229   230     9 
  220   219   229   231     9 
  221   219   229   230     9 
  221   219   229   231     9 
  219   221   223   224     9 
  222   221   223   224     9 
  225   221   223   224     9 
  219   221   225   226     9 
  219   221   225   227     9 
  219   221   225   228     9 
  222   221   225   226     9 
  222   221   225   227     9 
  222   221   225   228     9 
  223   221   225   226     9 
  223   221   225   227     9 
  223   221   225   228     9 
  219   229   231   232     9 
  219   229   231   233     9 
  230   229   231   232     9 
  230   229   231   233     9 
  229   231   233   234     9 
  229   231   233   235     9 
  229   231   233   244     9 
  232   231   233   234     9 
  232   231   233   235     9 
  232   231   233   244     9 
  231   233   235   236     9 
  231   233   235   237     9 
  231   233   235   238     9 
  234   233   235   236     9 
  234   233   235   237     9 
  234   233   235   238     9 
  244   233   235   236     9 
  244   233   235   237     9 
  244   233   235   238     9 
  231   233   244   245     9 
  231   233   244   246     9 
  234   233   244   245     9 
  234   233   244   246     9 
  235   233   244   245     9 
  235   233   244   246     9 
  233   235   238   239     9 
  233   235   238   240     9 
  233   235   238   241     9 
  236   235   238   239     9 
  236   235   238   240     9 
  236   235   238   241     9 
  237   235   238   239     9 
  237   235   238   240     9 
  237   235   238   241     9 
  235   238   241   242     9 
  235   238   241   243     9 
  239   238   241   242     9 
  239   238   241   243     9 
  240   238   241   242     9 
  240   238   241   243     9 
  233   244   246   247     9 
  245   244   246   247     9 

[ dihedrals ]
;  ai    aj    ak    al funct            c0            c1            c2            c3
    7     4     9     8     2 
    9     7    11    10     2 
   19    16    21    20     2 
   22    11    24    23     2 
   24    22    26    25     2 
   46    26    48    47     2 
   48    46    50    49     2 
   60    50    62    61     2 
   62    60    64    63     2 
   81    64    83    82     2 
   83    81    85    84     2 
   90    87    92    91     2 
   93    85    95    94     2 
   95    93    97    96     2 
  102    99   104   103     2 
  105    97   107   106     2 
  107   105   109   108     2 
  115   109   117   116     2 
  117   115   119   118     2 
  129   119   131   130     2 
  131   129   133   132     2 
  151   133   153   152     2 
  153   151   155   154     2 
  165   155   167   166     2 
  167   165   169   168     2 
  185   169   187   186     2 
  187   185   189   188     2 
  199   189   201   200     2 
  201   199   203   202     2 
  215   203   217   216     2 
  217   215   219   218     2 
  229   219   231   230     2 
  231   229   233   232     2 
  241   238   243   242     2 
  244   233   246   245     2 

[ cmap ]
;  ai    aj    ak    al    am funct
    7     9    11    22    24     1 
   22    24    26    46    48     1 
   46    48    50    60    62     1 
   60    62    64    81    83     1 
   81    83    85    93    95     1 
   93    95    97   105   107     1 
  105   107   109   115   117     1 
  115   117   119   129   131     1 
  129   131   133   151   153     1 
  151   153   155   165   167     1 
  165   167   169   185   187     1 
  185   187   189   199   201     1 
  199   201   203   215   217     1 
  215   217   219   229   231     1 

; Include Position restraint file
#ifdef POSRES
#include "posre.itp"
#endif

;#include "topol_10.itp"

; Include water topology
#include "charmm27.ff/tip3p.itp"

#ifdef POSRES_WATER
; Position restraint for each water oxygen
[ position_restraints ]
;  i funct       fcx        fcy        fcz
   1    1       1000       1000       1000
#endif

; Include topology for ions
#include "charmm27.ff/ions.itp"

[ system ]
; Name
frame t= 0.000 in water

[ molecules ]
; Compound        #mols 
Protein             1
SOL         32679
NA               3
