VMLF in water
 2642
    1VMLF    H9    1   1.073   1.399   1.548
    1VMLF    O2    2   1.091   1.453   1.468
    1VMLF    C6    3   1.227   1.465   1.456
    1VMLF    C5    4   1.309   1.365   1.504
    1VMLF    H6    5   1.268   1.265   1.517
    1VMLF    C4    6   1.439   1.394   1.543
    1VMLF    H5    7   1.505   1.312   1.571
    1VMLF    C3    8   1.491   1.523   1.539
    1VMLF    C8    9   1.404   1.621   1.495
    1VMLF    H8   10   1.442   1.723   1.486
    1VMLF    C7   11   1.276   1.593   1.448
    1VMLF    H7   12   1.214   1.670   1.403
    1VMLF    N1   13   1.629   1.545   1.525
    1VMLF    H4   14   1.651   1.642   1.506
    1VMLF    C2   15   1.726   1.467   1.478
    1VMLF    O1   16   1.708   1.394   1.381
    1VMLF    C1   17   1.863   1.513   1.505
    1VMLF    H1   18   1.934   1.433   1.485
    1VMLF    H2   19   1.883   1.597   1.439
    1VMLF    H3   20   1.873   1.544   1.609
    2SOL     OW   21   0.234   0.657   0.105
    2SOL    HW1   22   0.166   0.609   0.160
    2SOL    HW2   23   0.254   0.603   0.023
    3SOL     OW   24   0.206   0.272   1.001
    3SOL    HW1   25   0.246   0.248   1.089
    3SOL    HW2   26   0.107   0.255   1.004
    4SOL     OW   27   0.009   0.390   0.659
    4SOL    HW1   28   2.923   0.431   0.689
    4SOL    HW2   29   2.989   0.314   0.596
    5SOL     OW   30   0.568   1.282   1.172
    5SOL    HW1   31   0.474   1.276   1.137
    5SOL    HW2   32   0.582   1.374   1.210
    6SOL     OW   33   1.555   1.510   0.705
    6SOL    HW1   34   1.512   1.493   0.794
    6SOL    HW2   35   1.484   1.519   0.635
    7SOL     OW   36   1.131   0.702   0.701
    7SOL    HW1   37   1.184   0.785   0.685
    7SOL    HW2   38   1.079   0.711   0.787
    8SOL     OW   39   1.763   0.595   0.231
    8SOL    HW1   40   1.747   0.583   0.133
    8SOL    HW2   41   1.724   0.517   0.280
    9SOL     OW   42   0.761   1.147   1.035
    9SOL    HW1   43   0.687   1.175   1.096
    9SOL    HW2   44   0.796   1.227   0.986
   10SOL     OW   45   0.859   0.783   1.818
   10SOL    HW1   46   0.850   0.854   1.888
   10SOL    HW2   47   0.886   0.825   1.731
   11SOL     OW   48   0.684   1.006   0.654
   11SOL    HW1   49   0.754   0.991   0.724
   11SOL    HW2   50   0.608   1.058   0.693
   12SOL     OW   51   0.704   1.152   1.809
   12SOL    HW1   52   0.757   1.232   1.837
   12SOL    HW2   53   0.616   1.182   1.772
   13SOL     OW   54   0.327   1.434   1.069
   13SOL    HW1   55   0.260   1.379   1.020
   13SOL    HW2   56   0.386   1.481   1.003
   14SOL     OW   57   0.450   0.401   1.493
   14SOL    HW1   58   0.529   0.340   1.495
   14SOL    HW2   59   0.366   0.347   1.505
   15SOL     OW   60   1.612   0.457   0.737
   15SOL    HW1   61   1.533   0.481   0.681
   15SOL    HW2   62   1.633   0.533   0.799
   16SOL     OW   63   0.221   1.716   0.480
   16SOL    HW1   64   0.241   1.801   0.530
   16SOL    HW2   65   0.290   1.702   0.410
   17SOL     OW   66   1.098   1.345   1.715
   17SOL    HW1   67   1.164   1.345   1.791
   17SOL    HW2   68   1.049   1.258   1.714
   18SOL     OW   69   0.248   1.451   0.532
   18SOL    HW1   70   0.213   1.545   0.526
   18SOL    HW2   71   0.186   1.397   0.588
   19SOL     OW   72   0.259   1.083   0.897
   19SOL    HW1   73   0.256   0.990   0.932
   19SOL    HW2   74   0.195   1.140   0.949
   20SOL     OW   75   0.612   1.794   1.430
   20SOL    HW1   76   0.526   1.770   1.476
   20SOL    HW2   77   0.639   1.886   1.457
   21SOL     OW   78   0.590   0.975   0.151
   21SOL    HW1   79   0.601   1.047   0.083
   21SOL    HW2   80   0.634   1.003   0.236
   22SOL     OW   81   1.550   0.145   1.467
   22SOL    HW1   82   1.585   0.216   1.406
   22SOL    HW2   83   1.623   0.115   1.529
   23SOL     OW   84   0.121   0.631   0.572
   23SOL    HW1   85   0.080   0.546   0.607
   23SOL    HW2   86   0.117   0.701   0.643
   24SOL     OW   87   1.845   1.761   0.336
   24SOL    HW1   88   1.900   1.722   0.410
   24SOL    HW2   89   1.869   1.857   0.323
   25SOL     OW   90   0.018   1.597   0.114
   25SOL    HW1   91   0.021   1.498   0.131
   25SOL    HW2   92   2.992   1.644   0.198
   26SOL     OW   93   1.690   0.920   0.638
   26SOL    HW1   94   1.779   0.876   0.625
   26SOL    HW2   95   1.667   0.974   0.557
   27SOL     OW   96   1.648   1.109   0.433
   27SOL    HW1   97   1.736   1.112   0.385
   27SOL    HW2   98   1.650   1.172   0.511
   28SOL     OW   99   0.127   0.747   1.592
   28SOL    HW1  100   0.227   0.752   1.597
   28SOL    HW2  101   0.089   0.839   1.589
   29SOL     OW  102   0.609   1.382   0.734
   29SOL    HW1  103   0.562   1.295   0.746
   29SOL    HW2  104   0.595   1.415   0.641
   30SOL     OW  105   0.818   0.014   0.509
   30SOL    HW1  106   0.853   0.107   0.495
   30SOL    HW2  107   0.718   0.014   0.499
   31SOL     OW  108   0.190   0.958   1.272
   31SOL    HW1  109   0.278   0.916   1.252
   31SOL    HW2  110   0.118   0.914   1.219
   32SOL     OW  111   1.507   1.007   0.212
   32SOL    HW1  112   1.438   0.943   0.246
   32SOL    HW2  113   1.564   1.038   0.288
   33SOL     OW  114   1.184   1.815   1.637
   33SOL    HW1  115   1.189   1.883   1.563
   33SOL    HW2  116   1.185   1.723   1.598
   34SOL     OW  117   0.330   0.253   1.798
   34SOL    HW1  118   0.389   0.331   1.820
   34SOL    HW2  119   0.242   0.263   1.845
   35SOL     OW  120   1.465   1.418   0.956
   35SOL    HW1  121   1.396   1.436   1.026
   35SOL    HW2  122   1.455   1.325   0.922
   36SOL     OW  123   1.660   1.730   0.577
   36SOL    HW1  124   1.635   1.707   0.483
   36SOL    HW2  125   1.633   1.656   0.638
   37SOL     OW  126   0.592   0.721   0.268
   37SOL    HW1  127   0.604   0.805   0.215
   37SOL    HW2  128   0.525   0.736   0.341
   38SOL     OW  129   1.285   0.340   0.930
   38SOL    HW1  130   1.188   0.315   0.935
   38SOL    HW2  131   1.336   0.291   1.001
   39SOL     OW  132   1.586   1.667   0.309
   39SOL    HW1  133   1.679   1.703   0.305
   39SOL    HW2  134   1.555   1.645   0.216
   40SOL     OW  135   0.793   0.614   1.456
   40SOL    HW1  136   0.765   0.594   1.550
   40SOL    HW2  137   0.749   0.550   1.393
   41SOL     OW  138   1.396   0.476   1.678
   41SOL    HW1  139   1.392   0.523   1.766
   41SOL    HW2  140   1.457   0.397   1.686
   42SOL     OW  141   0.960   0.887   1.578
   42SOL    HW1  142   1.016   0.811   1.544
   42SOL    HW2  143   0.907   0.926   1.502
   43SOL     OW  144   0.996   0.418   1.227
   43SOL    HW1  145   0.920   0.438   1.289
   43SOL    HW2  146   0.963   0.365   1.149
   44SOL     OW  147   1.046   0.705   0.425
   44SOL    HW1  148   1.067   0.697   0.523
   44SOL    HW2  149   0.964   0.652   0.405
   45SOL     OW  150   0.104   0.819   0.763
   45SOL    HW1  151   0.186   0.812   0.820
   45SOL    HW2  152   0.035   0.874   0.810
   46SOL     OW  153   0.140   1.840   1.575
   46SOL    HW1  154   0.127   1.814   1.671
   46SOL    HW2  155   0.053   1.867   1.536
   47SOL     OW  156   0.925   0.338   0.221
   47SOL    HW1  157   0.938   0.403   0.146
   47SOL    HW2  158   0.880   0.256   0.186
   48SOL     OW  159   1.711   0.580   1.827
   48SOL    HW1  160   1.672   0.660   1.782
   48SOL    HW2  161   1.736   0.512   1.757
   49SOL     OW  162   1.374   1.142   0.539
   49SOL    HW1  163   1.458   1.124   0.488
   49SOL    HW2  164   1.319   1.209   0.490
   50SOL     OW  165   0.515   0.198   0.915
   50SOL    HW1  166   0.537   0.210   1.012
   50SOL    HW2  167   0.549   0.275   0.863
   51SOL     OW  168   1.005   1.447   0.472
   51SOL    HW1  169   0.963   1.521   0.420
   51SOL    HW2  170   0.993   1.464   0.570
   52SOL     OW  171   0.356   1.806   0.855
   52SOL    HW1  172   0.402   1.718   0.867
   52SOL    HW2  173   0.420   1.880   0.872
   53SOL     OW  174   1.796   1.059   0.867
   53SOL    HW1  175   1.741   1.043   0.785
   53SOL    HW2  176   1.736   1.064   0.947
   54SOL     OW  177   0.322   0.949   0.231
   54SOL    HW1  178   0.419   0.960   0.208
   54SOL    HW2  179   0.291   0.858   0.203
   55SOL     OW  180   1.475   0.741   0.728
   55SOL    HW1  181   1.462   0.690   0.813
   55SOL    HW2  182   1.555   0.800   0.736
   56SOL     OW  183   0.463   1.259   1.732
   56SOL    HW1  184   0.435   1.267   1.636
   56SOL    HW2  185   0.382   1.265   1.791
   57SOL     OW  186   1.110   1.774   0.225
   57SOL    HW1  187   1.047   1.727   0.286
   57SOL    HW2  188   1.145   1.709   0.157
   58SOL     OW  189   0.202   0.298   1.498
   58SOL    HW1  190   0.115   0.346   1.484
   58SOL    HW2  191   0.186   0.219   1.557
   59SOL     OW  192   1.624   1.362   0.084
   59SOL    HW1  193   1.599   1.459   0.077
   59SOL    HW2  194   1.542   1.306   0.078
   60SOL     OW  195   0.468   1.725   0.332
   60SOL    HW1  196   0.497   1.797   0.395
   60SOL    HW2  197   0.536   1.712   0.261
   61SOL     OW  198   1.409   0.107   0.433
   61SOL    HW1  199   1.389   0.079   0.339
   61SOL    HW2  200   1.507   0.128   0.440
   62SOL     OW  201   0.264   1.798   1.232
   62SOL    HW1  202   0.306   1.725   1.285
   62SOL    HW2  203   0.225   1.760   1.148
   63SOL     OW  204   0.937   1.699   0.899
   63SOL    HW1  205   1.018   1.647   0.926
   63SOL    HW2  206   0.888   1.650   0.826
   64SOL     OW  207   0.390   0.689   0.475
   64SOL    HW1  208   0.426   0.597   0.490
   64SOL    HW2  209   0.294   0.693   0.501
   65SOL     OW  210   1.538   0.249   1.738
   65SOL    HW1  211   1.540   0.258   1.837
   65SOL    HW2  212   1.481   0.170   1.712
   66SOL     OW  213   0.610   0.108   0.104
   66SOL    HW1  214   0.709   0.109   0.120
   66SOL    HW2  215   0.590   0.139   0.012
   67SOL     OW  216   0.766   0.270   1.750
   67SOL    HW1  217   0.844   0.209   1.763
   67SOL    HW2  218   0.716   0.278   1.836
   68SOL     OW  219   0.877   1.522   1.190
   68SOL    HW1  220   0.860   1.482   1.100
   68SOL    HW2  221   0.933   1.459   1.244
   69SOL     OW  222   1.345   0.589   1.433
   69SOL    HW1  223   1.373   0.553   1.522
   69SOL    HW2  224   1.377   0.683   1.424
   70SOL     OW  225   0.815   1.396   0.933
   70SOL    HW1  226   0.904   1.388   0.888
   70SOL    HW2  227   0.742   1.395   0.864
   71SOL     OW  228   0.926   0.509   0.901
   71SOL    HW1  229   0.902   0.503   0.804
   71SOL    HW2  230   0.962   0.421   0.933
   72SOL     OW  231   0.538   0.048   0.496
   72SOL    HW1  232   0.450   0.039   0.542
   72SOL    HW2  233   0.537   0.130   0.439
   73SOL     OW  234   1.411   1.207   0.052
   73SOL    HW1  235   1.437   1.128   0.108
   73SOL    HW2  236   1.319   1.236   0.075
   74SOL     OW  237   0.299   0.079   0.198
   74SOL    HW1  238   0.378   0.141   0.192
   74SOL    HW2  239   0.331   2.985   0.206
   75SOL     OW  240   0.947   0.252   0.474
   75SOL    HW1  241   0.916   0.291   0.387
   75SOL    HW2  242   1.046   0.259   0.481
   76SOL     OW  243   1.080   0.678   1.458
   76SOL    HW1  244   1.002   0.616   1.466
   76SOL    HW2  245   1.165   0.625   1.452
   77SOL     OW  246   1.225   1.568   0.795
   77SOL    HW1  247   1.240   1.638   0.725
   77SOL    HW2  248   1.296   1.576   0.865
   78SOL     OW  249   0.465   1.146   0.738
   78SOL    HW1  250   0.392   1.128   0.804
   78SOL    HW2  251   0.430   1.134   0.645
   79SOL     OW  252   1.270   1.795   0.603
   79SOL    HW1  253   1.318   1.857   0.542
   79SOL    HW2  254   1.201   1.846   0.655
   80SOL     OW  255   1.041   0.501   0.032
   80SOL    HW1  256   0.997   0.589   0.016
   80SOL    HW2  257   1.113   0.511   0.100
   81SOL     OW  258   0.084   0.565   1.391
   81SOL    HW1  259   0.175   0.558   1.351
   81SOL    HW2  260   0.084   0.632   1.465
   82SOL     OW  261   0.578   0.214   1.178
   82SOL    HW1  262   0.620   0.161   1.252
   82SOL    HW2  263   0.480   0.226   1.198
   83SOL     OW  264   0.876   0.469   0.638
   83SOL    HW1  265   0.820   0.524   0.575
   83SOL    HW2  266   0.888   0.377   0.601
   84SOL     OW  267   0.997   0.054   0.764
   84SOL    HW1  268   0.959   0.066   0.672
   84SOL    HW2  269   0.976   2.962   0.797
   85SOL     OW  270   1.437   1.164   0.858
   85SOL    HW1  271   1.368   1.093   0.860
   85SOL    HW2  272   1.465   1.182   0.764
   86SOL     OW  273   1.470   0.600   0.982
   86SOL    HW1  274   1.415   0.516   0.985
   86SOL    HW2  275   1.534   0.600   1.058
   87SOL     OW  276   1.846   0.818   0.381
   87SOL    HW1  277   1.903   0.761   0.441
   87SOL    HW2  278   1.817   0.765   0.302
   88SOL     OW  279   0.487   1.405   0.155
   88SOL    HW1  280   0.420   1.375   0.222
   88SOL    HW2  281   0.444   1.414   0.065
   89SOL     OW  282   1.668   1.267   0.650
   89SOL    HW1  283   1.768   1.268   0.660
   89SOL    HW2  284   1.632   1.358   0.671
   90SOL     OW  285   1.411   0.577   0.101
   90SOL    HW1  286   1.336   0.568   0.166
   90SOL    HW2  287   1.465   0.493   0.101
   91SOL     OW  288   0.529   0.263   0.324
   91SOL    HW1  289   0.570   0.206   0.253
   91SOL    HW2  290   0.503   0.351   0.285
   92SOL     OW  291   1.766   1.185   1.603
   92SOL    HW1  292   1.862   1.175   1.578
   92SOL    HW2  293   1.748   1.280   1.631
   93SOL     OW  294   1.123   1.226   1.118
   93SOL    HW1  295   1.042   1.216   1.176
   93SOL    HW2  296   1.094   1.240   1.023
   94SOL     OW  297   1.632   1.099   1.079
   94SOL    HW1  298   1.635   1.167   1.152
   94SOL    HW2  299   1.548   1.110   1.025
   95SOL     OW  300   0.902   0.111   1.388
   95SOL    HW1  301   0.939   0.087   1.298
   95SOL    HW2  302   0.969   0.166   1.438
   96SOL     OW  303   0.977   1.107   1.725
   96SOL    HW1  304   0.880   1.126   1.743
   96SOL    HW2  305   0.984   1.028   1.664
   97SOL     OW  306   0.705   1.060   0.379
   97SOL    HW1  307   0.687   1.050   0.477
   97SOL    HW2  308   0.789   1.012   0.355
   98SOL     OW  309   0.420   0.811   1.250
   98SOL    HW1  310   0.492   0.826   1.318
   98SOL    HW2  311   0.379   0.721   1.264
   99SOL     OW  312   1.271   0.388   1.262
   99SOL    HW1  313   1.304   0.462   1.321
   99SOL    HW2  314   1.173   0.400   1.245
  100SOL     OW  315   0.069   1.570   1.309
  100SOL    HW1  316   0.021   1.655   1.332
  100SOL    HW2  317   0.161   1.572   1.347
  101SOL     OW  318   0.363   1.111   0.489
  101SOL    HW1  319   0.350   1.190   0.429
  101SOL    HW2  320   0.357   1.027   0.435
  102SOL     OW  321   0.554   0.546   0.863
  102SOL    HW1  322   0.572   0.602   0.782
  102SOL    HW2  323   0.619   0.569   0.935
  103SOL     OW  324   1.247   1.349   0.397
  103SOL    HW1  325   1.307   1.424   0.424
  103SOL    HW2  326   1.153   1.369   0.426
  104SOL     OW  327   1.278   1.450   1.149
  104SOL    HW1  328   1.314   1.451   1.242
  104SOL    HW2  329   1.220   1.370   1.136
  105SOL     OW  330   1.582   0.627   0.477
  105SOL    HW1  331   1.536   0.683   0.545
  105SOL    HW2  332   1.632   0.686   0.414
  106SOL     OW  333   0.353   1.525   1.321
  106SOL    HW1  334   0.329   1.484   1.233
  106SOL    HW2  335   0.452   1.540   1.324
  107SOL     OW  336   0.410   0.741   1.601
  107SOL    HW1  337   0.468   0.796   1.540
  107SOL    HW2  338   0.457   0.655   1.622
  108SOL     OW  339   1.597   0.779   1.678
  108SOL    HW1  340   1.505   0.817   1.674
  108SOL    HW2  341   1.654   0.821   1.608
  109SOL     OW  342   1.004   0.110   1.762
  109SOL    HW1  343   1.047   0.198   1.738
  109SOL    HW2  344   1.026   0.042   1.692
  110SOL     OW  345   0.501   0.053   1.750
  110SOL    HW1  346   0.474   2.987   1.680
  110SOL    HW2  347   0.429   0.121   1.761
  111SOL     OW  348   0.583   0.870   1.033
  111SOL    HW1  349   0.613   0.965   1.024
  111SOL    HW2  350   0.522   0.862   1.111
  112SOL     OW  351   1.359   0.861   1.033
  112SOL    HW1  352   1.274   0.856   0.981
  112SOL    HW2  353   1.401   0.770   1.036
  113SOL     OW  354   1.204   0.530   0.273
  113SOL    HW1  355   1.215   0.445   0.324
  113SOL    HW2  356   1.160   0.598   0.332
  114SOL     OW  357   0.323   0.208   1.246
  114SOL    HW1  358   0.289   0.256   1.327
  114SOL    HW2  359   0.275   0.121   1.236
  115SOL     OW  360   0.038   1.305   1.281
  115SOL    HW1  361   0.072   1.253   1.359
  115SOL    HW2  362   0.047   1.403   1.298
  116SOL     OW  363   0.727   0.633   1.060
  116SOL    HW1  364   0.801   0.609   0.997
  116SOL    HW2  365   0.693   0.724   1.039
  117SOL     OW  366   1.736   0.955   1.854
  117SOL    HW1  367   1.688   0.905   1.781
  117SOL    HW2  368   1.673   0.971   1.930
  118SOL     OW  369   0.309   0.070   0.643
  118SOL    HW1  370   0.306   0.163   0.681
  118SOL    HW2  371   0.284   0.005   0.715
  119SOL     OW  372   1.618   0.376   0.368
  119SOL    HW1  373   1.649   0.304   0.431
  119SOL    HW2  374   1.588   0.456   0.420
  120SOL     OW  375   1.024   0.758   0.963
  120SOL    HW1  376   1.027   0.779   1.061
  120SOL    HW2  377   0.996   0.663   0.950
  121SOL     OW  378   0.355   0.914   1.806
  121SOL    HW1  379   0.437   0.937   1.859
  121SOL    HW2  380   0.380   0.849   1.734
  122SOL     OW  381   1.503   0.298   0.128
  122SOL    HW1  382   1.459   0.209   0.141
  122SOL    HW2  383   1.562   0.318   0.206
  123SOL     OW  384   1.294   0.823   0.035
  123SOL    HW1  385   1.336   0.734   0.052
  123SOL    HW2  386   1.322   0.857   2.946
  124SOL     OW  387   1.068   1.334   0.851
  124SOL    HW1  388   1.067   1.256   0.788
  124SOL    HW2  389   1.130   1.404   0.817
  125SOL     OW  390   0.313   0.808   0.946
  125SOL    HW1  391   0.410   0.833   0.942
  125SOL    HW2  392   0.303   0.717   0.987
  126SOL     OW  393   0.335   0.513   1.015
  126SOL    HW1  394   0.291   0.426   0.994
  126SOL    HW2  395   0.413   0.527   0.954
  127SOL     OW  396   1.141   0.385   1.700
  127SOL    HW1  397   1.092   0.440   1.767
  127SOL    HW2  398   1.234   0.419   1.689
  128SOL     OW  399   1.100   0.255   1.475
  128SOL    HW1  400   1.121   0.309   1.557
  128SOL    HW2  401   1.184   0.240   1.423
  129SOL     OW  402   0.008   1.313   0.171
  129SOL    HW1  403   2.913   1.334   0.147
  129SOL    HW2  404   0.011   1.234   0.232
  130SOL     OW  405   0.102   1.803   0.965
  130SOL    HW1  406   0.053   1.736   0.909
  130SOL    HW2  407   0.192   1.821   0.925
  131SOL     OW  408   0.498   1.573   0.903
  131SOL    HW1  409   0.567   1.639   0.932
  131SOL    HW2  410   0.540   1.503   0.846
  132SOL     OW  411   0.988   0.799   1.230
  132SOL    HW1  412   1.043   0.769   1.308
  132SOL    HW2  413   0.897   0.758   1.236
  133SOL     OW  414   0.046   0.557   1.107
  133SOL    HW1  415   0.138   0.531   1.077
  133SOL    HW2  416   0.038   0.543   1.206
  134SOL     OW  417   0.195   0.518   1.721
  134SOL    HW1  418   0.268   0.487   1.660
  134SOL    HW2  419   0.152   0.600   1.682
  135SOL     OW  420   1.377   0.944   1.663
  135SOL    HW1  421   1.402   1.039   1.681
  135SOL    HW2  422   1.379   0.926   1.565
  136SOL     OW  423   0.819   0.578   0.347
  136SOL    HW1  424   0.827   0.494   0.293
  136SOL    HW2  425   0.734   0.625   0.323
  137SOL     OW  426   1.645   0.604   1.189
  137SOL    HW1  427   1.624   0.543   1.266
  137SOL    HW2  428   1.735   0.581   1.152
  138SOL     OW  429   0.284   1.559   1.750
  138SOL    HW1  430   0.223   1.625   1.794
  138SOL    HW2  431   0.253   1.466   1.769
  139SOL     OW  432   0.691   0.459   1.263
  139SOL    HW1  433   0.645   0.375   1.233
  139SOL    HW2  434   0.696   0.523   1.187
  140SOL     OW  435   0.916   1.696   1.480
  140SOL    HW1  436   0.907   1.644   1.396
  140SOL    HW2  437   0.917   1.794   1.460
  141SOL     OW  438   0.447   0.495   0.203
  141SOL    HW1  439   0.518   0.563   0.219
  141SOL    HW2  440   0.359   0.542   0.191
  142SOL     OW  441   0.160   1.140   1.466
  142SOL    HW1  442   0.146   1.093   1.553
  142SOL    HW2  443   0.171   1.072   1.393
  143SOL     OW  444   1.334   1.050   1.227
  143SOL    HW1  445   1.353   0.984   1.154
  143SOL    HW2  446   1.259   1.110   1.198
  144SOL     OW  447   1.306   0.850   0.309
  144SOL    HW1  448   1.226   0.824   0.363
  144SOL    HW2  449   1.285   0.839   0.211
  145SOL     OW  450   1.746   1.749   1.121
  145SOL    HW1  451   1.825   1.777   1.066
  145SOL    HW2  452   1.736   1.650   1.118
  146SOL     OW  453   1.245   1.732   1.119
  146SOL    HW1  454   1.329   1.755   1.070
  146SOL    HW2  455   1.242   1.634   1.136
  147SOL     OW  456   0.092   1.247   1.027
  147SOL    HW1  457   0.077   1.261   1.125
  147SOL    HW2  458   0.007   1.263   0.977
  148SOL     OW  459   0.693   1.666   1.720
  148SOL    HW1  460   0.629   1.742   1.722
  148SOL    HW2  461   0.752   1.673   1.640
  149SOL     OW  462   0.881   0.083   0.144
  149SOL    HW1  463   0.935   0.066   0.062
  149SOL    HW2  464   0.915   0.028   0.219
  150SOL     OW  465   1.714   0.140   0.503
  150SOL    HW1  466   1.788   0.138   0.436
  150SOL    HW2  467   1.722   0.061   0.564
  151SOL     OW  468   1.392   1.570   0.482
  151SOL    HW1  469   1.458   1.599   0.412
  151SOL    HW2  470   1.341   1.650   0.514
  152SOL     OW  471   0.127   1.794   1.845
  152SOL    HW1  472   0.079   1.721   1.894
  152SOL    HW2  473   0.187   1.843   1.908
  153SOL     OW  474   1.280   0.924   0.667
  153SOL    HW1  475   1.354   0.858   0.678
  153SOL    HW2  476   1.313   1.003   0.615
  154SOL     OW  477   0.818   1.272   1.420
  154SOL    HW1  478   0.808   1.314   1.510
  154SOL    HW2  479   0.739   1.294   1.363
  155SOL     OW  480   0.671   1.607   0.159
  155SOL    HW1  481   0.676   1.631   0.062
  155SOL    HW2  482   0.614   1.526   0.171
  156SOL     OW  483   1.695   1.775   1.389
  156SOL    HW1  484   1.704   1.766   1.289
  156SOL    HW2  485   1.642   1.857   1.410
  157SOL     OW  486   1.848   0.158   0.964
  157SOL    HW1  487   1.857   0.070   0.917
  157SOL    HW2  488   1.762   0.201   0.938
  158SOL     OW  489   0.268   0.334   0.741
  158SOL    HW1  490   0.176   0.367   0.721
  158SOL    HW2  491   0.272   0.302   0.836
  159SOL     OW  492   1.206   1.604   0.035
  159SOL    HW1  493   1.199   1.510   0.070
  159SOL    HW2  494   1.151   1.612   2.952
  160SOL     OW  495   0.824   1.007   1.374
  160SOL    HW1  496   0.869   0.992   1.286
  160SOL    HW2  497   0.825   1.105   1.396
  161SOL     OW  498   0.922   0.928   0.304
  161SOL    HW1  499   0.987   0.964   0.238
  161SOL    HW2  500   0.965   0.854   0.357
  162SOL     OW  501   1.487   1.602   0.050
  162SOL    HW1  502   1.388   1.613   0.057
  162SOL    HW2  503   1.519   1.637   2.962
  163SOL     OW  504   0.372   1.302   1.489
  163SOL    HW1  505   0.359   1.386   1.436
  163SOL    HW2  506   0.292   1.243   1.476
  164SOL     OW  507   1.049   1.103   0.708
  164SOL    HW1  508   0.974   1.052   0.751
  164SOL    HW2  509   1.114   1.040   0.667
  165SOL     OW  510   1.017   0.241   0.966
  165SOL    HW1  511   1.010   0.191   0.879
  165SOL    HW2  512   1.020   0.176   1.042
  166SOL     OW  513   0.601   1.490   0.484
  166SOL    HW1  514   0.644   1.434   0.412
  166SOL    HW2  515   0.535   1.553   0.442
  167SOL     OW  516   1.723   0.391   1.379
  167SOL    HW1  517   1.795   0.461   1.377
  167SOL    HW2  518   1.747   0.316   1.317
  168SOL     OW  519   0.263   1.337   0.296
  168SOL    HW1  520   0.171   1.339   0.255
  168SOL    HW2  521   0.261   1.384   0.384
  169SOL     OW  522   0.125   1.015   1.711
  169SOL    HW1  523   0.043   0.978   1.754
  169SOL    HW2  524   0.207   0.977   1.755
  170SOL     OW  525   0.668   0.210   1.494
  170SOL    HW1  526   0.751   0.180   1.449
  170SOL    HW2  527   0.686   0.227   1.591
  171SOL     OW  528   0.070   0.320   0.052
  171SOL    HW1  529   2.973   0.328   0.033
  171SOL    HW2  530   0.117   0.402   0.020
  172SOL     OW  531   1.431   0.862   1.402
  172SOL    HW1  532   1.380   0.926   1.345
  172SOL    HW2  533   1.527   0.859   1.373
  173SOL     OW  534   0.037   0.186   0.289
  173SOL    HW1  535   0.040   0.249   0.212
  173SOL    HW2  536   0.127   0.145   0.302
  174SOL     OW  537   1.184   1.349   0.126
  174SOL    HW1  538   1.086   1.334   0.111
  174SOL    HW2  539   1.205   1.339   0.223
  175SOL     OW  540   0.619   0.832   1.432
  175SOL    HW1  541   0.674   0.914   1.418
  175SOL    HW2  542   0.678   0.753   1.442
  176SOL     OW  543   1.489   1.776   0.979
  176SOL    HW1  544   1.510   1.832   0.899
  176SOL    HW2  545   1.573   1.758   1.031
  177SOL     OW  546   0.717   0.565   1.709
  177SOL    HW1  547   0.755   0.636   1.768
  177SOL    HW2  548   0.759   0.477   1.732
  178SOL     OW  549   0.386   1.737   1.564
  178SOL    HW1  550   0.298   1.781   1.551
  178SOL    HW2  551   0.373   1.650   1.613
  179SOL     OW  552   1.674   0.881   1.255
  179SOL    HW1  553   1.663   0.789   1.217
  179SOL    HW2  554   1.662   0.948   1.182
  180SOL     OW  555   1.228   0.316   0.456
  180SOL    HW1  556   1.291   0.238   0.451
  180SOL    HW2  557   1.249   0.371   0.536
  181SOL     OW  558   0.592   0.741   0.662
  181SOL    HW1  559   0.634   0.832   0.653
  181SOL    HW2  560   0.515   0.734   0.599
  182SOL     OW  561   1.762   0.352   1.645
  182SOL    HW1  562   1.745   0.376   1.550
  182SOL    HW2  563   1.679   0.315   1.685
  183SOL     OW  564   1.745   0.928   1.514
  183SOL    HW1  565   1.747   1.024   1.543
  183SOL    HW2  566   1.730   0.924   1.415
  184SOL     OW  567   0.905   1.387   0.061
  184SOL    HW1  568   0.831   1.382   0.128
  184SOL    HW2  569   0.869   1.418   2.973
  185SOL     OW  570   0.659   1.794   0.949
  185SOL    HW1  571   0.633   1.887   0.922
  185SOL    HW2  572   0.758   1.783   0.938
  186SOL     OW  573   0.866   0.965   0.858
  186SOL    HW1  574   0.917   0.889   0.897
  186SOL    HW2  575   0.829   1.022   0.931
  187SOL     OW  576   1.100   1.021   0.097
  187SOL    HW1  577   1.059   1.059   0.014
  187SOL    HW2  578   1.168   0.953   0.072
  188SOL     OW  579   1.855   1.559   0.848
  188SOL    HW1  580   1.779   1.546   0.785
  188SOL    HW2  581   1.855   1.485   0.915
  189SOL     OW  582   0.223   1.303   1.854
  189SOL    HW1  583   0.174   1.221   1.825
  189SOL    HW2  584   0.213   1.315   1.952
  190SOL     OW  585   0.128   1.249   0.661
  190SOL    HW1  586   0.078   1.186   0.720
  190SOL    HW2  587   0.179   1.199   0.592
  191SOL     OW  588   0.681   1.401   1.627
  191SOL    HW1  589   0.598   1.351   1.654
  191SOL    HW2  590   0.676   1.495   1.661
  192SOL     OW  591   1.792   0.174   1.232
  192SOL    HW1  592   1.842   0.101   1.279
  192SOL    HW2  593   1.822   0.180   1.137
  193SOL     OW  594   0.460   0.431   0.545
  193SOL    HW1  595   0.457   0.365   0.469
  193SOL    HW2  596   0.403   0.398   0.620
  194SOL     OW  597   1.701   1.485   1.108
  194SOL    HW1  598   1.618   1.459   1.058
  194SOL    HW2  599   1.703   1.437   1.196
  195SOL     OW  600   0.332   0.551   1.288
  195SOL    HW1  601   0.390   0.498   1.349
  195SOL    HW2  602   0.351   0.526   1.193
  196SOL     OW  603   0.825   1.578   0.681
  196SOL    HW1  604   0.825   1.625   0.593
  196SOL    HW2  605   0.743   1.521   0.688
  197SOL     OW  606   1.427   0.218   1.127
  197SOL    HW1  607   1.453   0.138   1.182
  197SOL    HW2  608   1.375   0.282   1.183
  198SOL     OW  609   1.010   0.029   1.150
  198SOL    HW1  610   0.928   2.992   1.106
  198SOL    HW2  611   1.086   2.966   1.137
  199SOL     OW  612   0.766   1.327   0.313
  199SOL    HW1  613   0.731   1.235   0.329
  199SOL    HW2  614   0.856   1.337   0.355
  200SOL     OW  615   0.624   1.562   1.286
  200SOL    HW1  616   0.622   1.646   1.339
  200SOL    HW2  617   0.714   1.551   1.243
  201SOL     OW  618   1.355   0.055   0.169
  201SOL    HW1  619   1.418   2.983   0.140
  201SOL    HW2  620   1.261   0.024   0.156
  202SOL     OW  621   1.296   0.461   0.684
  202SOL    HW1  622   1.239   0.543   0.689
  202SOL    HW2  623   1.296   0.415   0.773
  203SOL     OW  624   1.604   0.232   0.887
  203SOL    HW1  625   1.522   0.226   0.944
  203SOL    HW2  626   1.596   0.312   0.827
  204SOL     OW  627   0.069   1.089   0.341
  204SOL    HW1  628   0.152   1.050   0.300
  204SOL    HW2  629   2.996   1.022   0.338
  205SOL     OW  630   0.879   1.654   0.346
  205SOL    HW1  631   0.808   1.627   0.281
  205SOL    HW2  632   0.848   1.732   0.400
  206SOL     OW  633   0.238   0.644   1.973
  206SOL    HW1  634   0.167   0.606   2.033
  206SOL    HW2  635   0.229   0.605   1.882
  207SOL     OW  636   0.234   0.250   2.850
  207SOL    HW1  637   0.252   0.235   2.947
  207SOL    HW2  638   0.135   0.240   2.833
  208SOL     OW  639   0.008   0.388   2.522
  208SOL    HW1  640   2.921   0.428   2.550
  208SOL    HW2  641   2.992   0.313   2.458
  209SOL     OW  642   1.555   1.510   2.567
  209SOL    HW1  643   1.509   1.491   2.654
  209SOL    HW2  644   1.486   1.519   2.495
  210SOL     OW  645   1.132   0.701   2.564
  210SOL    HW1  646   1.186   0.784   2.546
  210SOL    HW2  647   1.081   0.713   2.648
  211SOL     OW  648   1.762   0.606   2.092
  211SOL    HW1  649   1.744   0.600   1.994
  211SOL    HW2  650   1.729   0.523   2.137
  212SOL     OW  651   0.752   1.147   2.891
  212SOL    HW1  652   0.681   1.185   2.952
  212SOL    HW2  653   0.803   1.221   2.849
  213SOL     OW  654   0.684   1.008   2.513
  213SOL    HW1  655   0.754   0.991   2.583
  213SOL    HW2  656   0.608   1.058   2.554
  214SOL     OW  657   0.332   1.452   2.930
  214SOL    HW1  658   0.273   1.384   2.886
  214SOL    HW2  659   0.391   1.494   2.862
  215SOL     OW  660   1.616   0.457   2.594
  215SOL    HW1  661   1.536   0.478   2.537
  215SOL    HW2  662   1.621   0.523   2.669
  216SOL     OW  663   0.222   1.712   2.347
  216SOL    HW1  664   0.242   1.799   2.393
  216SOL    HW2  665   0.281   1.703   2.266
  217SOL     OW  666   0.250   1.447   2.389
  217SOL    HW1  667   0.219   1.543   2.387
  217SOL    HW2  668   0.187   1.394   2.447
  218SOL     OW  669   0.240   1.085   2.752
  218SOL    HW1  670   0.258   0.996   2.794
  218SOL    HW2  671   0.191   1.143   2.816
  219SOL     OW  672   0.589   0.982   1.995
  219SOL    HW1  673   0.631   1.035   1.921
  219SOL    HW2  674   0.631   1.007   2.082
  220SOL     OW  675   0.125   0.628   2.436
  220SOL    HW1  676   0.081   0.544   2.470
  220SOL    HW2  677   0.120   0.699   2.506
  221SOL     OW  678   1.843   1.762   2.199
  221SOL    HW1  679   1.901   1.728   2.273
  221SOL    HW2  680   1.867   1.856   2.177
  222SOL     OW  681   0.028   1.596   1.997
  222SOL    HW1  682   0.021   1.497   2.006
  222SOL    HW2  683   2.976   1.640   2.071
  223SOL     OW  684   1.690   0.921   2.499
  223SOL    HW1  685   1.779   0.876   2.486
  223SOL    HW2  686   1.667   0.974   2.418
  224SOL     OW  687   1.646   1.109   2.293
  224SOL    HW1  688   1.733   1.114   2.244
  224SOL    HW2  689   1.649   1.172   2.371
  225SOL     OW  690   0.607   1.380   2.593
  225SOL    HW1  691   0.559   1.293   2.605
  225SOL    HW2  692   0.594   1.413   2.499
  226SOL     OW  693   0.819   0.012   2.368
  226SOL    HW1  694   0.854   0.104   2.351
  226SOL    HW2  695   0.719   0.013   2.360
  227SOL     OW  696   1.534   0.993   2.060
  227SOL    HW1  697   1.459   0.930   2.084
  227SOL    HW2  698   1.574   1.030   2.143
  228SOL     OW  699   1.434   1.422   2.801
  228SOL    HW1  700   1.418   1.429   2.899
  228SOL    HW2  701   1.442   1.326   2.775
  229SOL     OW  702   1.659   1.731   2.440
  229SOL    HW1  703   1.635   1.706   2.346
  229SOL    HW2  704   1.633   1.657   2.501
  230SOL     OW  705   0.597   0.724   2.127
  230SOL    HW1  706   0.607   0.805   2.069
  230SOL    HW2  707   0.528   0.743   2.197
  231SOL     OW  708   1.293   0.335   2.806
  231SOL    HW1  709   1.195   0.322   2.798
  231SOL    HW2  710   1.324   0.299   2.895
  232SOL     OW  711   1.585   1.667   2.171
  232SOL    HW1  712   1.678   1.704   2.170
  232SOL    HW2  713   1.555   1.650   2.078
  233SOL     OW  714   1.046   0.699   2.290
  233SOL    HW1  715   1.066   0.693   2.388
  233SOL    HW2  716   0.962   0.649   2.270
  234SOL     OW  717   0.105   0.817   2.626
  234SOL    HW1  718   0.188   0.812   2.682
  234SOL    HW2  719   0.041   0.882   2.667
  235SOL     OW  720   0.872   0.356   2.051
  235SOL    HW1  721   0.934   0.416   2.000
  235SOL    HW2  722   0.897   0.260   2.034
  236SOL     OW  723   1.375   1.144   2.402
  236SOL    HW1  724   1.458   1.123   2.349
  236SOL    HW2  725   1.319   1.210   2.351
  237SOL     OW  726   0.553   0.199   2.828
  237SOL    HW1  727   0.506   0.269   2.881
  237SOL    HW2  728   0.574   0.234   2.736
  238SOL     OW  729   1.005   1.446   2.334
  238SOL    HW1  730   0.963   1.522   2.284
  238SOL    HW2  731   0.995   1.461   2.432
  239SOL     OW  732   0.355   1.801   2.714
  239SOL    HW1  733   0.402   1.715   2.729
  239SOL    HW2  734   0.417   1.877   2.736
  240SOL     OW  735   1.803   1.061   2.720
  240SOL    HW1  736   1.745   1.042   2.641
  240SOL    HW2  737   1.748   1.063   2.803
  241SOL     OW  738   0.316   0.948   2.106
  241SOL    HW1  739   0.404   0.979   2.068
  241SOL    HW2  740   0.293   0.859   2.066
  242SOL     OW  741   1.474   0.745   2.588
  242SOL    HW1  742   1.468   0.686   2.669
  242SOL    HW2  743   1.558   0.799   2.593
  243SOL     OW  744   1.120   1.775   2.092
  243SOL    HW1  745   1.045   1.735   2.144
  243SOL    HW2  746   1.146   1.713   2.018
  244SOL     OW  747   1.628   1.377   1.944
  244SOL    HW1  748   1.584   1.467   1.941
  244SOL    HW2  749   1.560   1.307   1.922
  245SOL     OW  750   0.468   1.739   2.181
  245SOL    HW1  751   0.504   1.799   2.253
  245SOL    HW2  752   0.542   1.709   2.122
  246SOL     OW  753   1.409   0.110   2.293
  246SOL    HW1  754   1.390   0.076   2.201
  246SOL    HW2  755   1.507   0.130   2.302
  247SOL     OW  756   0.264   1.799   0.098
  247SOL    HW1  757   0.306   1.729   0.156
  247SOL    HW2  758   0.204   1.755   0.031
  248SOL     OW  759   0.941   1.692   2.757
  248SOL    HW1  760   1.026   1.640   2.764
  248SOL    HW2  761   0.883   1.650   2.687
  249SOL     OW  762   0.391   0.690   2.339
  249SOL    HW1  763   0.428   0.598   2.352
  249SOL    HW2  764   0.294   0.691   2.363
  250SOL     OW  765   0.624   0.122   1.974
  250SOL    HW1  766   0.717   0.084   1.978
  250SOL    HW2  767   0.584   0.101   1.885
  251SOL     OW  768   0.807   1.398   2.787
  251SOL    HW1  769   0.898   1.390   2.748
  251SOL    HW2  770   0.739   1.391   2.714
  252SOL     OW  771   0.920   0.517   2.758
  252SOL    HW1  772   0.900   0.499   2.662
  252SOL    HW2  773   0.954   0.433   2.801
  253SOL     OW  774   0.542   0.059   2.365
  253SOL    HW1  775   0.451   0.042   2.404
  253SOL    HW2  776   0.536   0.134   2.299
  254SOL     OW  777   1.429   1.193   1.899
  254SOL    HW1  778   1.464   1.116   1.952
  254SOL    HW2  779   1.340   1.220   1.935
  255SOL     OW  780   0.292   0.032   2.051
  255SOL    HW1  781   0.340   0.114   2.018
  255SOL    HW2  782   0.358   2.968   2.089
  256SOL     OW  783   0.941   0.252   2.326
  256SOL    HW1  784   0.904   0.300   2.246
  256SOL    HW2  785   1.040   0.264   2.328
  257SOL     OW  786   1.220   1.583   2.670
  257SOL    HW1  787   1.243   1.643   2.594
  257SOL    HW2  788   1.303   1.560   2.721
  258SOL     OW  789   0.461   1.145   2.601
  258SOL    HW1  790   0.387   1.129   2.667
  258SOL    HW2  791   0.427   1.130   2.508
  259SOL     OW  792   1.271   1.795   2.465
  259SOL    HW1  793   1.318   1.857   2.403
  259SOL    HW2  794   1.202   1.845   2.517
  260SOL     OW  795   1.022   0.549   1.885
  260SOL    HW1  796   0.980   0.636   1.862
  260SOL    HW2  797   1.092   0.563   1.955
  261SOL     OW  798   0.874   0.467   2.497
  261SOL    HW1  799   0.821   0.522   2.432
  261SOL    HW2  800   0.888   0.376   2.459
  262SOL     OW  801   0.997   0.049   2.623
  262SOL    HW1  802   0.961   0.060   2.530
  262SOL    HW2  803   0.976   2.957   2.656
  263SOL     OW  804   1.440   1.161   2.713
  263SOL    HW1  805   1.362   1.098   2.712
  263SOL    HW2  806   1.469   1.180   2.619
  264SOL     OW  807   1.488   0.584   2.819
  264SOL    HW1  808   1.420   0.511   2.825
  264SOL    HW2  809   1.513   0.614   2.911
  265SOL     OW  810   1.849   0.817   2.242
  265SOL    HW1  811   1.906   0.765   2.305
  265SOL    HW2  812   1.814   0.757   2.170
  266SOL     OW  813   0.491   1.411   2.026
  266SOL    HW1  814   0.411   1.383   2.078
  266SOL    HW2  815   0.473   1.401   1.928
  267SOL     OW  816   1.669   1.267   2.510
  267SOL    HW1  817   1.768   1.269   2.521
  267SOL    HW2  818   1.631   1.358   2.532
  268SOL     OW  819   1.391   0.573   1.934
  268SOL    HW1  820   1.329   0.553   2.009
  268SOL    HW2  821   1.483   0.540   1.957
  269SOL     OW  822   0.528   0.265   2.182
  269SOL    HW1  823   0.566   0.206   2.111
  269SOL    HW2  824   0.508   0.355   2.143
  270SOL     OW  825   1.649   1.104   2.933
  270SOL    HW1  826   1.655   1.175   0.003
  270SOL    HW2  827   1.560   1.110   2.887
  271SOL     OW  828   0.709   1.056   2.234
  271SOL    HW1  829   0.693   1.046   2.333
  271SOL    HW2  830   0.789   1.003   2.208
  272SOL     OW  831   0.354   1.108   2.353
  272SOL    HW1  832   0.356   1.188   2.292
  272SOL    HW2  833   0.357   1.025   2.298
  273SOL     OW  834   0.547   0.550   2.731
  273SOL    HW1  835   0.567   0.599   2.646
  273SOL    HW2  836   0.618   0.569   2.798
  274SOL     OW  837   1.248   1.350   2.256
  274SOL    HW1  838   1.308   1.424   2.285
  274SOL    HW2  839   1.154   1.369   2.286
  275SOL     OW  840   1.583   0.627   2.338
  275SOL    HW1  841   1.536   0.684   2.405
  275SOL    HW2  842   1.629   0.685   2.271
  276SOL     OW  843   0.578   0.871   2.880
  276SOL    HW1  844   0.622   0.956   2.852
  276SOL    HW2  845   0.546   0.880   2.974
  277SOL     OW  846   1.209   0.534   2.134
  277SOL    HW1  847   1.216   0.447   2.184
  277SOL    HW2  848   1.162   0.601   2.192
  278SOL     OW  849   0.731   0.641   2.916
  278SOL    HW1  850   0.800   0.610   2.851
  278SOL    HW2  851   0.694   0.729   2.886
  279SOL     OW  852   0.309   0.070   2.506
  279SOL    HW1  853   0.304   0.162   2.543
  279SOL    HW2  854   0.282   0.004   2.577
  280SOL     OW  855   1.611   0.375   2.232
  280SOL    HW1  856   1.650   0.307   2.294
  280SOL    HW2  857   1.588   0.458   2.284
  281SOL     OW  858   1.019   0.760   2.818
  281SOL    HW1  859   1.024   0.774   2.917
  281SOL    HW2  860   0.991   0.666   2.799
  282SOL     OW  861   1.530   0.272   1.997
  282SOL    HW1  862   1.463   0.203   2.021
  282SOL    HW2  863   1.567   0.314   2.080
  283SOL     OW  864   1.296   0.827   1.896
  283SOL    HW1  865   1.336   0.736   1.903
  283SOL    HW2  866   1.324   0.870   1.810
  284SOL     OW  867   1.053   1.348   2.695
  284SOL    HW1  868   1.064   1.260   2.648
  284SOL    HW2  869   1.131   1.406   2.675
  285SOL     OW  870   0.313   0.811   2.810
  285SOL    HW1  871   0.410   0.834   2.807
  285SOL    HW2  872   0.302   0.718   2.847
  286SOL     OW  873   0.322   0.518   2.873
  286SOL    HW1  874   0.285   0.427   2.851
  286SOL    HW2  875   0.404   0.535   2.818
  287SOL     OW  876   2.995   1.318   2.043
  287SOL    HW1  877   2.900   1.328   2.015
  287SOL    HW2  878   0.006   1.233   2.094
  288SOL     OW  879   0.097   1.815   2.809
  288SOL    HW1  880   0.054   1.735   2.768
  288SOL    HW2  881   0.192   1.822   2.778
  289SOL     OW  882   0.505   1.575   2.761
  289SOL    HW1  883   0.575   1.642   2.787
  289SOL    HW2  884   0.546   1.503   2.706
  290SOL     OW  885   0.979   0.755   0.085
  290SOL    HW1  886   1.034   0.754   0.168
  290SOL    HW2  887   0.883   0.771   0.109
  291SOL     OW  888   0.814   0.571   2.214
  291SOL    HW1  889   0.822   0.492   2.153
  291SOL    HW2  890   0.737   0.627   2.185
  292SOL     OW  891   0.698   0.441   0.091
  292SOL    HW1  892   0.600   0.421   0.098
  292SOL    HW2  893   0.711   0.521   0.032
  293SOL     OW  894   0.466   0.497   2.052
  293SOL    HW1  895   0.532   0.570   2.070
  293SOL    HW2  896   0.375   0.536   2.041
  294SOL     OW  897   1.307   0.856   2.168
  294SOL    HW1  898   1.228   0.827   2.222
  294SOL    HW2  899   1.288   0.842   2.071
  295SOL     OW  900   1.736   1.764   2.971
  295SOL    HW1  901   1.814   1.794   2.917
  295SOL    HW2  902   1.761   1.684   0.026
  296SOL     OW  903   0.074   1.250   2.902
  296SOL    HW1  904   0.047   1.274   2.995
  296SOL    HW2  905   0.002   1.278   2.838
  297SOL     OW  906   1.719   0.142   2.364
  297SOL    HW1  907   1.785   0.137   2.289
  297SOL    HW2  908   1.727   0.061   2.422
  298SOL     OW  909   1.392   1.570   2.345
  298SOL    HW1  910   1.457   1.598   2.275
  298SOL    HW2  911   1.340   1.649   2.376
  299SOL     OW  912   1.279   0.926   2.529
  299SOL    HW1  913   1.353   0.859   2.541
  299SOL    HW2  914   1.313   1.004   2.476
  300SOL     OW  915   0.673   1.612   2.016
  300SOL    HW1  916   0.682   1.629   1.918
  300SOL    HW2  917   0.616   1.532   2.031
  301SOL     OW  918   1.851   0.161   2.813
  301SOL    HW1  919   1.855   0.070   2.772
  301SOL    HW2  920   1.762   0.203   2.794
  302SOL     OW  921   0.271   0.334   2.600
  302SOL    HW1  922   0.178   0.369   2.583
  302SOL    HW2  923   0.277   0.300   2.693
  303SOL     OW  924   1.211   1.604   1.894
  303SOL    HW1  925   1.201   1.511   1.928
  303SOL    HW2  926   1.154   1.616   1.812
  304SOL     OW  927   0.917   0.910   2.149
  304SOL    HW1  928   0.981   0.945   2.080
  304SOL    HW2  929   0.961   0.836   2.200
  305SOL     OW  930   1.494   1.624   1.908
  305SOL    HW1  931   1.394   1.618   1.903
  305SOL    HW2  932   1.532   1.627   1.816
  306SOL     OW  933   1.050   1.103   2.572
  306SOL    HW1  934   0.974   1.052   2.612
  306SOL    HW2  935   1.115   1.038   2.530
  307SOL     OW  936   1.017   0.245   2.811
  307SOL    HW1  937   1.010   0.179   2.737
  307SOL    HW2  938   1.048   0.199   2.894
  308SOL     OW  939   0.601   1.488   2.344
  308SOL    HW1  940   0.644   1.434   2.272
  308SOL    HW2  941   0.531   1.547   2.304
  309SOL     OW  942   0.252   1.347   2.145
  309SOL    HW1  943   0.154   1.342   2.123
  309SOL    HW2  944   0.263   1.388   2.236
  310SOL     OW  945   0.097   0.328   1.912
  310SOL    HW1  946   0.009   0.293   1.878
  310SOL    HW2  947   0.117   0.415   1.867
  311SOL     OW  948   0.022   0.215   2.145
  311SOL    HW1  949   0.062   0.267   2.070
  311SOL    HW2  950   0.082   0.139   2.168
  312SOL     OW  951   1.183   1.345   1.986
  312SOL    HW1  952   1.090   1.310   1.981
  312SOL    HW2  953   1.215   1.341   2.081
  313SOL     OW  954   1.506   1.782   2.830
  313SOL    HW1  955   1.517   1.833   2.745
  313SOL    HW2  956   1.590   1.787   2.883
  314SOL     OW  957   1.716   0.850   0.062
  314SOL    HW1  958   1.637   0.805   0.106
  314SOL    HW2  959   1.693   0.945   0.042
  315SOL     OW  960   1.225   0.315   2.318
  315SOL    HW1  961   1.290   0.239   2.314
  315SOL    HW2  962   1.246   0.372   2.398
  316SOL     OW  963   0.591   0.742   2.525
  316SOL    HW1  964   0.635   0.831   2.513
  316SOL    HW2  965   0.515   0.733   2.460
  317SOL     OW  966   0.857   1.361   1.899
  317SOL    HW1  967   0.814   1.385   1.986
  317SOL    HW2  968   0.880   1.445   1.849
  318SOL     OW  969   0.663   1.796   2.821
  318SOL    HW1  970   0.635   1.886   2.788
  318SOL    HW2  971   0.761   1.784   2.805
  319SOL     OW  972   0.863   0.965   2.717
  319SOL    HW1  973   0.916   0.889   2.755
  319SOL    HW2  974   0.830   1.023   2.792
  320SOL     OW  975   1.081   0.989   1.949
  320SOL    HW1  976   1.051   1.038   1.868
  320SOL    HW2  977   1.160   0.932   1.927
  321SOL     OW  978   1.853   1.559   2.714
  321SOL    HW1  979   1.778   1.546   2.649
  321SOL    HW2  980   1.865   1.477   2.769
  322SOL     OW  981   0.127   1.247   2.519
  322SOL    HW1  982   0.088   1.185   2.587
  322SOL    HW2  983   0.187   1.196   2.458
  323SOL     OW  984   1.809   0.188   0.080
  323SOL    HW1  985   1.834   0.105   0.129
  323SOL    HW2  986   1.829   0.177   2.983
  324SOL     OW  987   0.461   0.432   2.403
  324SOL    HW1  988   0.458   0.365   2.328
  324SOL    HW2  989   0.406   0.398   2.479
  325SOL     OW  990   0.818   1.586   2.540
  325SOL    HW1  991   0.823   1.625   2.448
  325SOL    HW2  992   0.740   1.524   2.547
  326SOL     OW  993   0.772   1.331   2.174
  326SOL    HW1  994   0.735   1.239   2.178
  326SOL    HW2  995   0.858   1.335   2.223
  327SOL     OW  996   1.347   0.047   2.029
  327SOL    HW1  997   1.416   2.986   1.990
  327SOL    HW2  998   1.260   2.998   2.036
  328SOL     OW  999   1.296   0.458   2.549
  328SOL    HW1 1000   1.240   0.540   2.554
  328SOL    HW2 1001   1.296   0.413   2.638
  329SOL     OW 1002   1.600   0.237   2.750
  329SOL    HW1 1003   1.507   0.222   2.783
  329SOL    HW2 1004   1.601   0.314   2.686
  330SOL     OW 1005   0.064   1.082   2.163
  330SOL    HW1 1006   0.157   1.044   2.161
  330SOL    HW2 1007   0.001   1.013   2.199
  331SOL     OW 1008   0.879   1.652   2.208
  331SOL    HW1 1009   0.807   1.628   2.142
  331SOL    HW2 1010   0.851   1.732   2.261
  332SOL     OW 1011   0.236   2.512   0.099
  332SOL    HW1 1012   0.166   2.469   0.156
  332SOL    HW2 1013   0.252   2.457   0.017
  333SOL     OW 1014   0.212   2.137   0.991
  333SOL    HW1 1015   0.248   2.107   1.079
  333SOL    HW2 1016   0.121   2.098   0.977
  334SOL     OW 1017   0.017   2.250   0.643
  334SOL    HW1 1018   2.929   2.288   0.672
  334SOL    HW2 1019   0.002   2.162   0.598
  335SOL     OW 1020   1.134   2.569   0.702
  335SOL    HW1 1021   1.184   2.655   0.690
  335SOL    HW2 1022   1.078   2.575   0.785
  336SOL     OW 1023   1.758   2.457   0.227
  336SOL    HW1 1024   1.749   2.439   0.129
  336SOL    HW2 1025   1.724   2.379   0.278
  337SOL     OW 1026   0.760   0.010   1.030
  337SOL    HW1 1027   0.673   0.036   1.071
  337SOL    HW2 1028   0.788   0.080   0.964
  338SOL     OW 1029   0.865   2.640   1.820
  338SOL    HW1 1030   0.844   2.704   1.895
  338SOL    HW2 1031   0.890   2.692   1.738
  339SOL     OW 1032   0.654   2.850   0.710
  339SOL    HW1 1033   0.752   2.853   0.728
  339SOL    HW2 1034   0.626   2.934   0.665
  340SOL     OW 1035   0.472   2.270   1.488
  340SOL    HW1 1036   0.547   2.204   1.490
  340SOL    HW2 1037   0.385   2.222   1.505
  341SOL     OW 1038   1.614   2.312   0.740
  341SOL    HW1 1039   1.534   2.336   0.685
  341SOL    HW2 1040   1.639   2.389   0.798
  342SOL     OW 1041   0.212   0.313   0.464
  342SOL    HW1 1042   0.227   0.393   0.522
  342SOL    HW2 1043   0.197   0.233   0.521
  343SOL     OW 1044   0.235   2.943   0.878
  343SOL    HW1 1045   0.259   2.857   0.923
  343SOL    HW2 1046   0.200   0.008   0.945
  344SOL     OW 1047   0.616   2.832   0.149
  344SOL    HW1 1048   0.596   2.926   0.123
  344SOL    HW2 1049   0.679   2.832   0.228
  345SOL     OW 1050   1.575   1.996   1.471
  345SOL    HW1 1051   1.590   2.074   1.410
  345SOL    HW2 1052   1.581   2.026   1.566
  346SOL     OW 1053   0.116   2.499   0.567
  346SOL    HW1 1054   0.092   2.407   0.598
  346SOL    HW2 1055   0.114   2.563   0.644
  347SOL     OW 1056   1.700   2.806   0.625
  347SOL    HW1 1057   1.781   2.748   0.635
  347SOL    HW2 1058   1.684   2.824   0.528
  348SOL     OW 1059   0.126   2.608   1.589
  348SOL    HW1 1060   0.226   2.614   1.597
  348SOL    HW2 1061   0.086   2.698   1.606
  349SOL     OW 1062   0.657   0.241   0.685
  349SOL    HW1 1063   0.592   0.173   0.721
  349SOL    HW2 1064   0.609   0.302   0.622
  350SOL     OW 1065   1.304   0.051   1.441
  350SOL    HW1 1066   1.329   2.989   1.366
  350SOL    HW2 1067   1.385   0.102   1.470
  351SOL     OW 1068   0.812   1.864   0.505
  351SOL    HW1 1069   0.857   1.952   0.490
  351SOL    HW2 1070   0.713   1.878   0.515
  352SOL     OW 1071   0.192   2.835   1.257
  352SOL    HW1 1072   0.279   2.787   1.250
  352SOL    HW2 1073   0.118   2.773   1.231
  353SOL     OW 1074   1.523   2.844   0.206
  353SOL    HW1 1075   1.449   2.795   0.252
  353SOL    HW2 1076   1.594   2.868   0.272
  354SOL     OW 1077   0.335   2.112   1.809
  354SOL    HW1 1078   0.389   2.195   1.823
  354SOL    HW2 1079   0.244   2.125   1.849
  355SOL     OW 1080   0.594   2.583   0.271
  355SOL    HW1 1081   0.601   2.665   0.214
  355SOL    HW2 1082   0.523   2.597   0.340
  356SOL     OW 1083   1.279   2.208   0.932
  356SOL    HW1 1084   1.185   2.175   0.937
  356SOL    HW2 1085   1.336   2.157   0.997
  357SOL     OW 1086   0.793   2.475   1.455
  357SOL    HW1 1087   0.766   2.456   1.549
  357SOL    HW2 1088   0.749   2.410   1.393
  358SOL     OW 1089   1.393   2.333   1.678
  358SOL    HW1 1090   1.389   2.382   1.766
  358SOL    HW2 1091   1.462   2.261   1.684
  359SOL     OW 1092   0.960   2.756   1.588
  359SOL    HW1 1093   1.016   2.682   1.552
  359SOL    HW2 1094   0.904   2.794   1.514
  360SOL     OW 1095   0.993   2.273   1.236
  360SOL    HW1 1096   0.910   2.300   1.285
  360SOL    HW2 1097   0.968   2.220   1.155
  361SOL     OW 1098   1.048   2.566   0.424
  361SOL    HW1 1099   1.066   2.561   0.522
  361SOL    HW2 1100   0.964   2.516   0.403
  362SOL     OW 1101   0.104   2.672   0.769
  362SOL    HW1 1102   0.185   2.673   0.827
  362SOL    HW2 1103   0.042   2.746   0.796
  363SOL     OW 1104   0.925   2.195   0.221
  363SOL    HW1 1105   0.936   2.262   0.147
  363SOL    HW2 1106   0.895   2.108   0.184
  364SOL     OW 1107   1.709   2.439   1.826
  364SOL    HW1 1108   1.672   2.520   1.781
  364SOL    HW2 1109   1.737   2.372   1.757
  365SOL     OW 1110   0.545   2.045   0.894
  365SOL    HW1 1111   0.551   2.070   0.991
  365SOL    HW2 1112   0.551   2.128   0.838
  366SOL     OW 1113   1.795   2.907   0.868
  366SOL    HW1 1114   1.741   2.890   0.786
  366SOL    HW2 1115   1.735   2.918   0.946
  367SOL     OW 1116   1.481   2.600   0.726
  367SOL    HW1 1117   1.459   2.546   0.807
  367SOL    HW2 1118   1.557   2.662   0.747
  368SOL     OW 1119   0.231   2.167   1.510
  368SOL    HW1 1120   0.150   2.214   1.476
  368SOL    HW2 1121   0.205   2.084   1.559
  369SOL     OW 1122   1.403   1.967   0.428
  369SOL    HW1 1123   1.389   1.945   0.331
  369SOL    HW2 1124   1.500   1.980   0.446
  370SOL     OW 1125   0.388   2.552   0.476
  370SOL    HW1 1126   0.416   2.457   0.484
  370SOL    HW2 1127   0.291   2.561   0.499
  371SOL     OW 1128   1.540   2.088   1.730
  371SOL    HW1 1129   1.547   2.111   1.827
  371SOL    HW2 1130   1.463   2.025   1.717
  372SOL     OW 1131   0.627   1.984   0.117
  372SOL    HW1 1132   0.724   1.962   0.121
  372SOL    HW2 1133   0.585   1.936   0.040
  373SOL     OW 1134   0.768   2.138   1.753
  373SOL    HW1 1135   0.844   2.073   1.759
  373SOL    HW2 1136   0.710   2.129   1.834
  374SOL     OW 1137   1.343   2.450   1.434
  374SOL    HW1 1138   1.372   2.414   1.522
  374SOL    HW2 1139   1.378   2.543   1.423
  375SOL     OW 1140   0.927   2.371   0.900
  375SOL    HW1 1141   0.901   2.363   0.804
  375SOL    HW2 1142   0.961   2.283   0.933
  376SOL     OW 1143   0.545   1.924   0.504
  376SOL    HW1 1144   0.462   1.924   0.559
  376SOL    HW2 1145   0.546   2.004   0.445
  377SOL     OW 1146   0.943   2.104   0.473
  377SOL    HW1 1147   0.912   2.143   0.387
  377SOL    HW2 1148   1.043   2.114   0.480
  378SOL     OW 1149   1.079   2.544   1.458
  378SOL    HW1 1150   1.000   2.483   1.467
  378SOL    HW2 1151   1.163   2.490   1.453
  379SOL     OW 1152   1.047   2.361   0.028
  379SOL    HW1 1153   0.997   2.445   0.011
  379SOL    HW2 1154   1.112   2.375   0.103
  380SOL     OW 1155   0.089   2.417   1.399
  380SOL    HW1 1156   0.177   2.420   1.351
  380SOL    HW2 1157   0.086   2.490   1.467
  381SOL     OW 1158   0.561   2.086   1.165
  381SOL    HW1 1159   0.605   2.003   1.199
  381SOL    HW2 1160   0.465   2.087   1.193
  382SOL     OW 1161   0.870   2.322   0.638
  382SOL    HW1 1162   0.819   2.383   0.578
  382SOL    HW2 1163   0.892   2.237   0.590
  383SOL     OW 1164   1.015   1.913   0.752
  383SOL    HW1 1165   0.954   1.912   0.673
  383SOL    HW2 1166   0.993   1.835   0.812
  384SOL     OW 1167   1.429   2.994   0.873
  384SOL    HW1 1168   1.359   2.933   0.836
  384SOL    HW2 1169   1.453   0.063   0.805
  385SOL     OW 1170   1.468   2.463   0.983
  385SOL    HW1 1171   1.416   2.377   0.983
  385SOL    HW2 1172   1.534   2.462   1.059
  386SOL     OW 1173   1.833   2.666   0.389
  386SOL    HW1 1174   1.897   2.617   0.448
  386SOL    HW2 1175   1.813   2.611   0.308
  387SOL     OW 1176   1.410   2.438   0.102
  387SOL    HW1 1177   1.335   2.428   0.167
  387SOL    HW2 1178   1.466   2.355   0.103
  388SOL     OW 1179   0.523   2.126   0.324
  388SOL    HW1 1180   0.560   2.069   0.250
  388SOL    HW2 1181   0.501   2.216   0.288
  389SOL     OW 1182   1.782   0.078   1.592
  389SOL    HW1 1183   1.873   0.041   1.572
  389SOL    HW2 1184   1.791   0.169   1.633
  390SOL     OW 1185   1.627   2.956   1.077
  390SOL    HW1 1186   1.649   0.042   1.125
  390SOL    HW2 1187   1.549   2.971   1.017
  391SOL     OW 1188   0.920   1.964   1.397
  391SOL    HW1 1189   0.940   1.939   1.303
  391SOL    HW2 1190   1.001   2.006   1.439
  392SOL     OW 1191   0.416   2.678   1.254
  392SOL    HW1 1192   0.490   2.688   1.320
  392SOL    HW2 1193   0.376   2.586   1.262
  393SOL     OW 1194   1.266   2.241   1.273
  393SOL    HW1 1195   1.303   2.320   1.324
  393SOL    HW2 1196   1.172   2.261   1.244
  394SOL     OW 1197   0.556   2.404   0.863
  394SOL    HW1 1198   0.572   2.460   0.781
  394SOL    HW2 1199   0.621   2.430   0.934
  395SOL     OW 1200   1.579   2.488   0.474
  395SOL    HW1 1201   1.537   2.543   0.547
  395SOL    HW2 1202   1.638   2.546   0.419
  396SOL     OW 1203   0.412   2.600   1.602
  396SOL    HW1 1204   0.471   2.653   1.541
  396SOL    HW2 1205   0.455   2.513   1.623
  397SOL     OW 1206   1.597   2.639   1.678
  397SOL    HW1 1207   1.504   2.677   1.674
  397SOL    HW2 1208   1.654   2.683   1.608
  398SOL     OW 1209   0.995   1.984   1.759
  398SOL    HW1 1210   1.044   2.067   1.730
  398SOL    HW2 1211   1.048   1.904   1.731
  399SOL     OW 1212   0.498   1.905   1.745
  399SOL    HW1 1213   0.458   1.844   1.676
  399SOL    HW2 1214   0.435   1.981   1.761
  400SOL     OW 1215   0.591   2.727   1.040
  400SOL    HW1 1216   0.601   2.821   1.007
  400SOL    HW2 1217   0.521   2.724   1.111
  401SOL     OW 1218   1.350   2.713   1.034
  401SOL    HW1 1219   1.277   2.711   0.966
  401SOL    HW2 1220   1.398   2.625   1.033
  402SOL     OW 1221   1.203   2.394   0.273
  402SOL    HW1 1222   1.213   2.305   0.319
  402SOL    HW2 1223   1.156   2.458   0.334
  403SOL     OW 1224   0.300   2.065   1.242
  403SOL    HW1 1225   0.283   2.101   1.334
  403SOL    HW2 1226   0.285   1.966   1.241
  404SOL     OW 1227   0.054   0.169   1.271
  404SOL    HW1 1228   0.086   0.131   1.358
  404SOL    HW2 1229   0.011   0.257   1.287
  405SOL     OW 1230   0.731   2.494   1.061
  405SOL    HW1 1231   0.801   2.471   0.994
  405SOL    HW2 1232   0.693   2.584   1.041
  406SOL     OW 1233   1.733   2.819   1.844
  406SOL    HW1 1234   1.685   2.760   1.779
  406SOL    HW2 1235   1.677   2.830   1.926
  407SOL     OW 1236   0.301   1.930   0.625
  407SOL    HW1 1237   0.285   2.026   0.649
  407SOL    HW2 1238   0.311   1.876   0.708
  408SOL     OW 1239   1.620   2.236   0.369
  408SOL    HW1 1240   1.646   2.164   0.435
  408SOL    HW2 1241   1.589   2.317   0.419
  409SOL     OW 1242   1.025   2.616   0.967
  409SOL    HW1 1243   1.028   2.635   1.065
  409SOL    HW2 1244   0.997   2.521   0.953
  410SOL     OW 1245   0.357   2.786   1.795
  410SOL    HW1 1246   0.420   2.787   1.872
  410SOL    HW2 1247   0.381   2.711   1.734
  411SOL     OW 1248   1.506   2.162   0.128
  411SOL    HW1 1249   1.463   2.073   0.139
  411SOL    HW2 1250   1.562   2.182   0.209
  412SOL     OW 1251   1.296   2.684   0.038
  412SOL    HW1 1252   1.337   2.594   0.052
  412SOL    HW2 1253   1.324   2.719   2.949
  413SOL     OW 1254   0.314   2.676   0.951
  413SOL    HW1 1255   0.412   2.690   0.934
  413SOL    HW2 1256   0.300   2.584   0.987
  414SOL     OW 1257   0.337   2.377   1.013
  414SOL    HW1 1258   0.292   2.289   0.994
  414SOL    HW2 1259   0.415   2.388   0.952
  415SOL     OW 1260   1.135   2.239   1.683
  415SOL    HW1 1261   1.084   2.297   1.747
  415SOL    HW2 1262   1.228   2.274   1.675
  416SOL     OW 1263   1.162   2.066   1.475
  416SOL    HW1 1264   1.150   2.130   1.550
  416SOL    HW2 1265   1.199   2.115   1.395
  417SOL     OW 1266   0.983   2.669   1.234
  417SOL    HW1 1267   1.039   2.637   1.310
  417SOL    HW2 1268   0.897   2.618   1.232
  418SOL     OW 1269   0.049   2.438   1.116
  418SOL    HW1 1270   0.125   2.390   1.072
  418SOL    HW2 1271   0.032   2.399   1.206
  419SOL     OW 1272   0.197   2.381   1.722
  419SOL    HW1 1273   0.265   2.344   1.658
  419SOL    HW2 1274   0.155   2.462   1.683
  420SOL     OW 1275   1.377   2.805   1.660
  420SOL    HW1 1276   1.404   2.901   1.667
  420SOL    HW2 1277   1.372   2.778   1.564
  421SOL     OW 1278   0.820   2.439   0.347
  421SOL    HW1 1279   0.824   2.356   0.292
  421SOL    HW2 1280   0.736   2.489   0.326
  422SOL     OW 1281   1.645   2.466   1.190
  422SOL    HW1 1282   1.626   2.403   1.266
  422SOL    HW2 1283   1.735   2.445   1.152
  423SOL     OW 1284   0.696   2.316   1.261
  423SOL    HW1 1285   0.643   2.236   1.233
  423SOL    HW2 1286   0.698   2.382   1.186
  424SOL     OW 1287   0.439   2.359   0.211
  424SOL    HW1 1288   0.518   2.419   0.220
  424SOL    HW2 1289   0.358   2.414   0.188
  425SOL     OW 1290   0.160   0.006   1.469
  425SOL    HW1 1291   0.148   2.954   1.554
  425SOL    HW2 1292   0.175   2.942   1.394
  426SOL     OW 1293   1.349   2.906   1.220
  426SOL    HW1 1294   1.364   2.841   1.146
  426SOL    HW2 1295   1.273   2.966   1.196
  427SOL     OW 1296   1.299   2.722   0.311
  427SOL    HW1 1297   1.224   2.680   0.362
  427SOL    HW2 1298   1.291   2.700   0.214
  428SOL     OW 1299   0.898   1.939   0.128
  428SOL    HW1 1300   0.946   1.925   0.042
  428SOL    HW2 1301   0.949   1.895   0.202
  429SOL     OW 1302   1.713   2.001   0.509
  429SOL    HW1 1303   1.797   1.998   0.454
  429SOL    HW2 1304   1.699   1.913   0.554
  430SOL     OW 1305   1.293   2.793   0.682
  430SOL    HW1 1306   1.363   2.722   0.682
  430SOL    HW2 1307   1.305   2.851   0.601
  431SOL     OW 1308   1.840   2.035   0.965
  431SOL    HW1 1309   1.875   1.945   0.939
  431SOL    HW2 1310   1.749   2.047   0.927
  432SOL     OW 1311   0.267   2.180   0.722
  432SOL    HW1 1312   0.181   2.220   0.690
  432SOL    HW2 1313   0.263   2.166   0.821
  433SOL     OW 1314   0.813   2.861   1.373
  433SOL    HW1 1315   0.871   2.828   1.299
  433SOL    HW2 1316   0.836   2.956   1.394
  434SOL     OW 1317   0.904   2.792   0.288
  434SOL    HW1 1318   0.982   2.817   0.231
  434SOL    HW2 1319   0.935   2.731   0.361
  435SOL     OW 1320   1.019   2.101   0.966
  435SOL    HW1 1321   1.013   2.055   0.877
  435SOL    HW2 1322   1.015   2.032   1.039
  436SOL     OW 1323   1.722   2.253   1.380
  436SOL    HW1 1324   1.793   2.323   1.380
  436SOL    HW2 1325   1.750   2.178   1.320
  437SOL     OW 1326   0.117   2.866   1.698
  437SOL    HW1 1327   0.042   2.844   1.760
  437SOL    HW2 1328   0.204   2.850   1.744
  438SOL     OW 1329   0.677   2.060   1.498
  438SOL    HW1 1330   0.763   2.038   1.451
  438SOL    HW2 1331   0.696   2.085   1.593
  439SOL     OW 1332   0.055   2.175   0.054
  439SOL    HW1 1333   2.962   2.200   0.026
  439SOL    HW2 1334   0.120   2.241   0.017
  440SOL     OW 1335   1.433   2.717   1.402
  440SOL    HW1 1336   1.385   2.778   1.339
  440SOL    HW2 1337   1.530   2.717   1.380
  441SOL     OW 1338   0.064   2.059   0.321
  441SOL    HW1 1339   0.048   2.103   0.232
  441SOL    HW2 1340   0.131   1.986   0.310
  442SOL     OW 1341   1.140   0.213   0.095
  442SOL    HW1 1342   1.061   0.250   0.145
  442SOL    HW2 1343   1.222   0.220   0.153
  443SOL     OW 1344   0.615   2.691   1.434
  443SOL    HW1 1345   0.673   2.770   1.417
  443SOL    HW2 1346   0.672   2.609   1.445
  444SOL     OW 1347   0.719   2.427   1.707
  444SOL    HW1 1348   0.755   2.496   1.769
  444SOL    HW2 1349   0.754   2.337   1.733
  445SOL     OW 1350   1.677   2.744   1.254
  445SOL    HW1 1351   1.666   2.651   1.217
  445SOL    HW2 1352   1.658   2.811   1.182
  446SOL     OW 1353   1.223   2.179   0.461
  446SOL    HW1 1354   1.289   2.105   0.446
  446SOL    HW2 1355   1.251   2.233   0.540
  447SOL     OW 1356   0.591   2.589   0.661
  447SOL    HW1 1357   0.620   2.684   0.672
  447SOL    HW2 1358   0.516   2.585   0.595
  448SOL     OW 1359   1.761   2.224   1.649
  448SOL    HW1 1360   1.747   2.237   1.550
  448SOL    HW2 1361   1.689   2.164   1.685
  449SOL     OW 1362   1.736   2.796   1.513
  449SOL    HW1 1363   1.753   2.891   1.538
  449SOL    HW2 1364   1.728   2.788   1.414
  450SOL     OW 1365   0.889   2.830   0.864
  450SOL    HW1 1366   0.927   2.745   0.901
  450SOL    HW2 1367   0.826   2.870   0.931
  451SOL     OW 1368   1.111   2.888   0.084
  451SOL    HW1 1369   1.057   2.893   3.000
  451SOL    HW2 1370   1.175   2.811   0.077
  452SOL     OW 1371   1.806   2.046   1.236
  452SOL    HW1 1372   1.832   1.954   1.265
  452SOL    HW2 1373   1.819   2.054   1.137
  453SOL     OW 1374   0.432   2.292   0.527
  453SOL    HW1 1375   0.464   2.221   0.465
  453SOL    HW2 1376   0.382   2.250   0.603
  454SOL     OW 1377   0.334   2.415   1.288
  454SOL    HW1 1378   0.396   2.362   1.346
  454SOL    HW2 1379   0.348   2.389   1.192
  455SOL     OW 1380   1.432   2.087   1.118
  455SOL    HW1 1381   1.468   2.005   1.161
  455SOL    HW2 1382   1.376   2.138   1.184
  456SOL     OW 1383   1.009   1.883   1.147
  456SOL    HW1 1384   0.945   1.815   1.110
  456SOL    HW2 1385   1.101   1.844   1.147
  457SOL     OW 1386   1.352   1.913   0.163
  457SOL    HW1 1387   1.385   1.864   0.083
  457SOL    HW2 1388   1.263   1.877   0.190
  458SOL     OW 1389   1.298   2.325   0.686
  458SOL    HW1 1390   1.240   2.406   0.690
  458SOL    HW2 1391   1.295   2.278   0.774
  459SOL     OW 1392   1.588   2.071   0.878
  459SOL    HW1 1393   1.521   2.083   0.951
  459SOL    HW2 1394   1.589   2.152   0.820
  460SOL     OW 1395   0.002   2.886   0.283
  460SOL    HW1 1396   0.091   2.919   0.254
  460SOL    HW2 1397   0.009   2.848   0.376
  461SOL     OW 1398   0.229   2.504   1.970
  461SOL    HW1 1399   0.161   2.458   2.029
  461SOL    HW2 1400   0.225   2.464   1.879
  462SOL     OW 1401   0.235   2.125   2.839
  462SOL    HW1 1402   0.272   2.101   2.928
  462SOL    HW2 1403   0.142   2.088   2.830
  463SOL     OW 1404   0.016   2.249   2.504
  463SOL    HW1 1405   2.929   2.286   2.535
  463SOL    HW2 1406   0.001   2.158   2.464
  464SOL     OW 1407   1.135   2.569   2.564
  464SOL    HW1 1408   1.187   2.654   2.551
  464SOL    HW2 1409   1.080   2.576   2.647
  465SOL     OW 1410   1.759   2.467   2.090
  465SOL    HW1 1411   1.743   2.458   1.991
  465SOL    HW2 1412   1.728   2.384   2.136
  466SOL     OW 1413   0.783   0.012   2.878
  466SOL    HW1 1414   0.695   0.021   2.924
  466SOL    HW2 1415   0.799   0.092   2.821
  467SOL     OW 1416   0.654   2.847   2.568
  467SOL    HW1 1417   0.750   2.849   2.594
  467SOL    HW2 1418   0.628   2.935   2.529
  468SOL     OW 1419   1.618   2.312   2.595
  468SOL    HW1 1420   1.537   2.334   2.541
  468SOL    HW2 1421   1.628   2.379   2.669
  469SOL     OW 1422   0.210   0.311   2.327
  469SOL    HW1 1423   0.229   0.391   2.384
  469SOL    HW2 1424   0.200   0.231   2.385
  470SOL     OW 1425   0.235   2.944   2.743
  470SOL    HW1 1426   0.258   2.855   2.782
  470SOL    HW2 1427   0.208   0.007   2.817
  471SOL     OW 1428   0.609   2.824   1.992
  471SOL    HW1 1429   0.596   2.909   1.941
  471SOL    HW2 1430   0.667   2.840   2.071
  472SOL     OW 1431   0.117   2.497   2.428
  472SOL    HW1 1432   0.092   2.407   2.462
  472SOL    HW2 1433   0.118   2.562   2.504
  473SOL     OW 1434   1.700   2.806   2.487
  473SOL    HW1 1435   1.781   2.749   2.499
  473SOL    HW2 1436   1.685   2.822   2.389
  474SOL     OW 1437   0.631   0.246   2.569
  474SOL    HW1 1438   0.591   0.156   2.554
  474SOL    HW2 1439   0.611   0.305   2.490
  475SOL     OW 1440   0.811   1.864   2.365
  475SOL    HW1 1441   0.857   1.951   2.349
  475SOL    HW2 1442   0.713   1.879   2.378
  476SOL     OW 1443   0.213   2.806   0.101
  476SOL    HW1 1444   0.282   2.733   0.100
  476SOL    HW2 1445   0.122   2.766   0.094
  477SOL     OW 1446   1.540   2.841   2.047
  477SOL    HW1 1447   1.466   2.786   2.087
  477SOL    HW2 1448   1.597   2.877   2.121
  478SOL     OW 1449   0.597   2.581   2.129
  478SOL    HW1 1450   0.604   2.661   2.069
  478SOL    HW2 1451   0.528   2.599   2.199
  479SOL     OW 1452   1.297   2.197   2.807
  479SOL    HW1 1453   1.199   2.179   2.799
  479SOL    HW2 1454   1.329   2.166   2.897
  480SOL     OW 1455   1.050   2.561   2.289
  480SOL    HW1 1456   1.066   2.558   2.388
  480SOL    HW2 1457   0.964   2.514   2.268
  481SOL     OW 1458   0.107   2.673   2.627
  481SOL    HW1 1459   0.188   2.672   2.686
  481SOL    HW2 1460   0.042   2.740   2.661
  482SOL     OW 1461   0.885   2.209   2.056
  482SOL    HW1 1462   0.930   2.275   1.996
  482SOL    HW2 1463   0.901   2.117   2.022
  483SOL     OW 1464   0.550   2.047   2.766
  483SOL    HW1 1465   0.518   2.077   2.856
  483SOL    HW2 1466   0.559   2.125   2.705
  484SOL     OW 1467   1.797   2.909   2.729
  484SOL    HW1 1468   1.740   2.890   2.649
  484SOL    HW2 1469   1.739   2.916   2.810
  485SOL     OW 1470   1.481   2.602   2.585
  485SOL    HW1 1471   1.465   2.543   2.664
  485SOL    HW2 1472   1.559   2.662   2.603
  486SOL     OW 1473   1.402   1.968   2.291
  486SOL    HW1 1474   1.387   1.943   2.195
  486SOL    HW2 1475   1.500   1.979   2.308
  487SOL     OW 1476   0.395   2.551   2.337
  487SOL    HW1 1477   0.414   2.454   2.351
  487SOL    HW2 1478   0.298   2.568   2.355
  488SOL     OW 1479   0.627   1.986   1.968
  488SOL    HW1 1480   0.709   1.932   1.984
  488SOL    HW2 1481   0.579   1.951   1.887
  489SOL     OW 1482   0.922   2.379   2.757
  489SOL    HW1 1483   0.900   2.358   2.661
  489SOL    HW2 1484   0.960   2.298   2.800
  490SOL     OW 1485   0.546   1.925   2.366
  490SOL    HW1 1486   0.462   1.924   2.421
  490SOL    HW2 1487   0.546   2.006   2.307
  491SOL     OW 1488   0.292   1.905   2.042
  491SOL    HW1 1489   0.347   1.981   2.008
  491SOL    HW2 1490   0.352   1.838   2.087
  492SOL     OW 1491   0.939   2.104   2.326
  492SOL    HW1 1492   0.901   2.151   2.246
  492SOL    HW2 1493   1.038   2.118   2.329
  493SOL     OW 1494   1.025   2.407   1.882
  493SOL    HW1 1495   0.978   2.492   1.858
  493SOL    HW2 1496   1.092   2.425   1.954
  494SOL     OW 1497   0.869   2.319   2.499
  494SOL    HW1 1498   0.820   2.382   2.439
  494SOL    HW2 1499   0.891   2.235   2.449
  495SOL     OW 1500   1.012   1.909   2.613
  495SOL    HW1 1501   0.953   1.909   2.532
  495SOL    HW2 1502   0.992   1.829   2.669
  496SOL     OW 1503   1.424   2.999   2.736
  496SOL    HW1 1504   1.353   2.939   2.701
  496SOL    HW2 1505   1.454   0.061   2.663
  497SOL     OW 1506   1.486   2.447   2.819
  497SOL    HW1 1507   1.418   2.374   2.827
  497SOL    HW2 1508   1.515   2.477   2.910
  498SOL     OW 1509   1.838   2.667   2.251
  498SOL    HW1 1510   1.900   2.617   2.312
  498SOL    HW2 1511   1.813   2.607   2.175
  499SOL     OW 1512   1.391   2.435   1.934
  499SOL    HW1 1513   1.330   2.413   2.010
  499SOL    HW2 1514   1.484   2.405   1.956
  500SOL     OW 1515   0.530   2.126   2.181
  500SOL    HW1 1516   0.567   2.069   2.108
  500SOL    HW2 1517   0.509   2.217   2.145
  501SOL     OW 1518   1.627   2.966   2.936
  501SOL    HW1 1519   1.639   0.046   2.995
  501SOL    HW2 1520   1.549   2.982   2.875
  502SOL     OW 1521   0.554   2.401   2.726
  502SOL    HW1 1522   0.568   2.458   2.645
  502SOL    HW2 1523   0.617   2.429   2.799
  503SOL     OW 1524   1.577   2.487   2.333
  503SOL    HW1 1525   1.537   2.542   2.407
  503SOL    HW2 1526   1.637   2.545   2.277
  504SOL     OW 1527   0.576   2.726   2.883
  504SOL    HW1 1528   0.618   2.808   2.845
  504SOL    HW2 1529   0.555   2.741   2.979
  505SOL     OW 1530   1.206   2.391   2.133
  505SOL    HW1 1531   1.217   2.307   2.187
  505SOL    HW2 1532   1.159   2.460   2.189
  506SOL     OW 1533   0.326   2.061   0.081
  506SOL    HW1 1534   0.314   2.110   0.167
  506SOL    HW2 1535   0.301   1.965   0.094
  507SOL     OW 1536   0.730   2.501   2.914
  507SOL    HW1 1537   0.799   2.474   2.847
  507SOL    HW2 1538   0.690   2.589   2.887
  508SOL     OW 1539   0.302   1.930   2.485
  508SOL    HW1 1540   0.284   2.026   2.509
  508SOL    HW2 1541   0.309   1.876   2.569
  509SOL     OW 1542   1.616   2.235   2.231
  509SOL    HW1 1543   1.645   2.166   2.297
  509SOL    HW2 1544   1.589   2.318   2.280
  510SOL     OW 1545   1.022   2.618   2.821
  510SOL    HW1 1546   1.027   2.630   2.921
  510SOL    HW2 1547   0.992   2.525   2.800
  511SOL     OW 1548   1.531   2.134   1.992
  511SOL    HW1 1549   1.462   2.065   2.016
  511SOL    HW2 1550   1.566   2.175   2.076
  512SOL     OW 1551   1.294   2.687   1.895
  512SOL    HW1 1552   1.335   2.597   1.904
  512SOL    HW2 1553   1.323   2.729   1.809
  513SOL     OW 1554   0.313   2.673   2.808
  513SOL    HW1 1555   0.411   2.694   2.808
  513SOL    HW2 1556   0.299   2.582   2.845
  514SOL     OW 1557   0.322   2.383   2.867
  514SOL    HW1 1558   0.287   2.291   2.853
  514SOL    HW2 1559   0.405   2.396   2.813
  515SOL     OW 1560   0.984   2.619   0.087
  515SOL    HW1 1561   1.033   2.608   0.173
  515SOL    HW2 1562   0.887   2.634   0.106
  516SOL     OW 1563   0.817   2.432   2.214
  516SOL    HW1 1564   0.821   2.352   2.155
  516SOL    HW2 1565   0.739   2.489   2.188
  517SOL     OW 1566   0.701   2.313   0.102
  517SOL    HW1 1567   0.617   2.260   0.090
  517SOL    HW2 1568   0.704   2.386   0.034
  518SOL     OW 1569   0.465   2.358   2.050
  518SOL    HW1 1570   0.531   2.430   2.072
  518SOL    HW2 1571   0.373   2.398   2.044
  519SOL     OW 1572   1.302   2.724   2.168
  519SOL    HW1 1573   1.226   2.686   2.221
  519SOL    HW2 1574   1.288   2.704   2.071
  520SOL     OW 1575   1.716   2.002   2.370
  520SOL    HW1 1576   1.796   1.994   2.309
  520SOL    HW2 1577   1.701   1.914   2.415
  521SOL     OW 1578   1.294   2.795   2.543
  521SOL    HW1 1579   1.363   2.723   2.546
  521SOL    HW2 1580   1.306   2.849   2.460
  522SOL     OW 1581   1.840   2.039   2.820
  522SOL    HW1 1582   1.876   1.948   2.797
  522SOL    HW2 1583   1.747   2.048   2.787
  523SOL     OW 1584   0.269   2.181   2.577
  523SOL    HW1 1585   0.182   2.221   2.550
  523SOL    HW2 1586   0.269   2.165   2.676
  524SOL     OW 1587   0.907   2.758   2.115
  524SOL    HW1 1588   0.983   2.810   2.076
  524SOL    HW2 1589   0.939   2.706   2.194
  525SOL     OW 1590   1.034   2.107   2.805
  525SOL    HW1 1591   1.020   2.048   2.725
  525SOL    HW2 1592   1.012   2.055   2.888
  526SOL     OW 1593   0.092   2.183   1.918
  526SOL    HW1 1594   0.007   2.148   1.880
  526SOL    HW2 1595   0.112   2.273   1.877
  527SOL     OW 1596   0.067   2.058   2.177
  527SOL    HW1 1597   0.066   2.111   2.093
  527SOL    HW2 1598   0.137   1.987   2.171
  528SOL     OW 1599   1.133   0.245   2.000
  528SOL    HW1 1600   1.098   0.162   1.956
  528SOL    HW2 1601   1.215   0.222   2.053
  529SOL     OW 1602   1.727   2.710   0.053
  529SOL    HW1 1603   1.655   2.660   0.102
  529SOL    HW2 1604   1.698   2.804   0.039
  530SOL     OW 1605   1.221   2.180   2.320
  530SOL    HW1 1606   1.286   2.105   2.308
  530SOL    HW2 1607   1.247   2.233   2.401
  531SOL     OW 1608   0.593   2.587   2.523
  531SOL    HW1 1609   0.623   2.682   2.535
  531SOL    HW2 1610   0.518   2.582   2.457
  532SOL     OW 1611   0.883   2.824   2.719
  532SOL    HW1 1612   0.928   2.744   2.759
  532SOL    HW2 1613   0.844   2.881   2.791
  533SOL     OW 1614   1.103   2.873   1.953
  533SOL    HW1 1615   1.056   2.905   1.870
  533SOL    HW2 1616   1.163   2.796   1.930
  534SOL     OW 1617   1.826   2.053   0.093
  534SOL    HW1 1618   1.796   1.960   0.112
  534SOL    HW2 1619   1.831   2.067   2.994
  535SOL     OW 1620   0.428   2.290   2.383
  535SOL    HW1 1621   0.463   2.217   2.325
  535SOL    HW2 1622   0.381   2.251   2.461
  536SOL     OW 1623   1.349   1.916   2.027
  536SOL    HW1 1624   1.384   1.858   1.953
  536SOL    HW2 1625   1.259   1.883   2.055
  537SOL     OW 1626   1.295   2.321   2.549
  537SOL    HW1 1627   1.240   2.404   2.555
  537SOL    HW2 1628   1.298   2.276   2.639
  538SOL     OW 1629   1.586   2.077   2.738
  538SOL    HW1 1630   1.500   2.087   2.787
  538SOL    HW2 1631   1.598   2.155   2.676
  539SOL     OW 1632   0.020   2.931   2.154
  539SOL    HW1 1633   0.119   2.923   2.143
  539SOL    HW2 1634   2.991   2.872   2.230
  540SOL     OW 1635   2.092   0.633   0.120
  540SOL    HW1 1636   1.994   0.628   0.142
  540SOL    HW2 1637   2.107   0.599   0.027
  541SOL     OW 1638   2.078   0.284   1.007
  541SOL    HW1 1639   2.113   0.251   1.094
  541SOL    HW2 1640   1.989   0.242   0.989
  542SOL     OW 1641   1.865   0.382   0.642
  542SOL    HW1 1642   1.780   0.411   0.687
  542SOL    HW2 1643   1.845   0.304   0.582
  543SOL     OW 1644   2.427   1.282   1.172
  543SOL    HW1 1645   2.335   1.281   1.133
  543SOL    HW2 1646   2.446   1.372   1.211
  544SOL     OW 1647   2.616   1.145   1.032
  544SOL    HW1 1648   2.546   1.176   1.096
  544SOL    HW2 1649   2.660   1.225   0.989
  545SOL     OW 1650   2.719   0.780   1.815
  545SOL    HW1 1651   2.712   0.849   1.888
  545SOL    HW2 1652   2.744   0.825   1.729
  546SOL     OW 1653   2.546   1.007   0.653
  546SOL    HW1 1654   2.613   0.989   0.725
  546SOL    HW2 1655   2.469   1.059   0.691
  547SOL     OW 1656   2.568   1.156   1.811
  547SOL    HW1 1657   2.620   1.237   1.837
  547SOL    HW2 1658   2.479   1.184   1.773
  548SOL     OW 1659   2.191   1.431   1.065
  548SOL    HW1 1660   2.115   1.392   1.013
  548SOL    HW2 1661   2.249   1.485   1.004
  549SOL     OW 1662   2.311   0.400   1.489
  549SOL    HW1 1663   2.391   0.340   1.493
  549SOL    HW2 1664   2.228   0.346   1.502
  550SOL     OW 1665   2.085   1.714   0.475
  550SOL    HW1 1666   2.104   1.793   0.533
  550SOL    HW2 1667   2.160   1.701   0.410
  551SOL     OW 1668   2.980   1.346   1.691
  551SOL    HW1 1669   0.042   1.349   1.769
  551SOL    HW2 1670   2.933   1.258   1.690
  552SOL     OW 1671   2.085   1.442   0.535
  552SOL    HW1 1672   2.076   1.541   0.541
  552SOL    HW2 1673   2.024   1.399   0.602
  553SOL     OW 1674   2.118   1.088   0.892
  553SOL    HW1 1675   2.117   0.997   0.934
  553SOL    HW2 1676   2.058   1.149   0.943
  554SOL     OW 1677   2.477   1.791   1.435
  554SOL    HW1 1678   2.389   1.769   1.477
  554SOL    HW2 1679   2.501   1.886   1.456
  555SOL     OW 1680   2.455   0.976   0.148
  555SOL    HW1 1681   2.472   1.049   0.082
  555SOL    HW2 1682   2.493   1.002   0.237
  556SOL     OW 1683   1.978   0.647   0.564
  556SOL    HW1 1684   1.933   0.560   0.584
  556SOL    HW2 1685   1.972   0.706   0.644
  557SOL     OW 1686   1.873   1.587   0.123
  557SOL    HW1 1687   1.888   1.492   0.149
  557SOL    HW2 1688   1.878   1.645   0.205
  558SOL     OW 1689   1.982   0.741   1.587
  558SOL    HW1 1690   2.080   0.759   1.602
  558SOL    HW2 1691   1.932   0.828   1.591
  559SOL     OW 1692   2.471   1.382   0.734
  559SOL    HW1 1693   2.425   1.295   0.746
  559SOL    HW2 1694   2.457   1.415   0.641
  560SOL     OW 1695   2.681   0.016   0.514
  560SOL    HW1 1696   2.713   0.109   0.496
  560SOL    HW2 1697   2.582   0.013   0.501
  561SOL     OW 1698   2.055   0.969   1.267
  561SOL    HW1 1699   2.143   0.924   1.253
  561SOL    HW2 1700   1.982   0.911   1.231
  562SOL     OW 1701   2.187   0.254   1.802
  562SOL    HW1 1702   2.244   0.333   1.822
  562SOL    HW2 1703   2.096   0.267   1.843
  563SOL     OW 1704   2.454   0.722   0.267
  563SOL    HW1 1705   2.464   0.806   0.214
  563SOL    HW2 1706   2.386   0.736   0.340
  564SOL     OW 1707   2.650   0.624   1.455
  564SOL    HW1 1708   2.626   0.599   1.548
  564SOL    HW2 1709   2.611   0.557   1.391
  565SOL     OW 1710   2.832   0.882   1.572
  565SOL    HW1 1711   2.861   0.791   1.544
  565SOL    HW2 1712   2.779   0.925   1.499
  566SOL     OW 1713   2.846   0.376   1.260
  566SOL    HW1 1714   2.771   0.433   1.294
  566SOL    HW2 1715   2.841   0.371   1.160
  567SOL     OW 1716   2.892   0.713   0.409
  567SOL    HW1 1717   2.935   0.700   0.499
  567SOL    HW2 1718   2.813   0.652   0.402
  568SOL     OW 1719   1.953   0.822   0.774
  568SOL    HW1 1720   2.038   0.810   0.824
  568SOL    HW2 1721   1.905   0.902   0.810
  569SOL     OW 1722   1.993   1.848   1.578
  569SOL    HW1 1723   1.989   1.822   1.675
  569SOL    HW2 1724   1.901   1.841   1.538
  570SOL     OW 1725   2.781   0.343   0.219
  570SOL    HW1 1726   2.772   0.403   0.139
  570SOL    HW2 1727   2.771   0.247   0.189
  571SOL     OW 1728   2.379   0.198   0.913
  571SOL    HW1 1729   2.398   0.211   1.010
  571SOL    HW2 1730   2.406   0.280   0.862
  572SOL     OW 1731   2.857   1.443   0.467
  572SOL    HW1 1732   2.824   1.524   0.419
  572SOL    HW2 1733   2.864   1.463   0.565
  573SOL     OW 1734   2.218   1.806   0.856
  573SOL    HW1 1735   2.261   1.717   0.868
  573SOL    HW2 1736   2.284   1.879   0.874
  574SOL     OW 1737   2.182   0.952   0.242
  574SOL    HW1 1738   2.271   0.971   0.201
  574SOL    HW2 1739   2.149   0.863   0.209
  575SOL     OW 1740   2.324   1.259   1.734
  575SOL    HW1 1741   2.297   1.267   1.638
  575SOL    HW2 1742   2.243   1.261   1.792
  576SOL     OW 1743   2.063   0.294   1.498
  576SOL    HW1 1744   1.979   0.347   1.492
  576SOL    HW2 1745   2.053   0.223   1.567
  577SOL     OW 1746   2.328   1.725   0.331
  577SOL    HW1 1747   2.360   1.796   0.394
  577SOL    HW2 1748   2.398   1.710   0.261
  578SOL     OW 1749   2.121   1.793   1.233
  578SOL    HW1 1750   2.156   1.721   1.293
  578SOL    HW2 1751   2.095   1.754   1.145
  579SOL     OW 1752   2.800   1.696   0.900
  579SOL    HW1 1753   2.865   1.629   0.935
  579SOL    HW2 1754   2.749   1.655   0.824
  580SOL     OW 1755   2.254   0.688   0.477
  580SOL    HW1 1756   2.289   0.596   0.493
  580SOL    HW2 1757   2.157   0.691   0.500
  581SOL     OW 1758   2.476   0.105   0.104
  581SOL    HW1 1759   2.574   0.112   0.121
  581SOL    HW2 1760   2.455   0.140   0.013
  582SOL     OW 1761   2.634   0.276   1.754
  582SOL    HW1 1762   2.706   0.208   1.766
  582SOL    HW2 1763   2.573   0.274   1.834
  583SOL     OW 1764   2.741   1.515   1.191
  583SOL    HW1 1765   2.717   1.482   1.100
  583SOL    HW2 1766   2.805   1.452   1.234
  584SOL     OW 1767   2.670   1.403   0.935
  584SOL    HW1 1768   2.759   1.389   0.892
  584SOL    HW2 1769   2.598   1.396   0.866
  585SOL     OW 1770   2.784   0.504   0.903
  585SOL    HW1 1771   2.754   0.495   0.808
  585SOL    HW2 1772   2.828   0.419   0.933
  586SOL     OW 1773   2.399   0.048   0.496
  586SOL    HW1 1774   2.311   0.037   0.542
  586SOL    HW2 1775   2.398   0.132   0.441
  587SOL     OW 1776   0.319   1.153   0.046
  587SOL    HW1 1777   0.312   1.090   0.123
  587SOL    HW2 1778   0.249   1.224   0.055
  588SOL     OW 1779   2.161   0.085   0.188
  588SOL    HW1 1780   2.243   0.142   0.196
  588SOL    HW2 1781   2.185   2.990   0.206
  589SOL     OW 1782   2.823   0.246   0.467
  589SOL    HW1 1783   2.775   0.298   0.396
  589SOL    HW2 1784   2.905   0.205   0.428
  590SOL     OW 1785   0.081   1.577   0.798
  590SOL    HW1 1786   0.105   1.620   0.711
  590SOL    HW2 1787   0.165   1.551   0.847
  591SOL     OW 1788   2.327   1.147   0.735
  591SOL    HW1 1789   2.256   1.128   0.803
  591SOL    HW2 1790   2.290   1.132   0.643
  592SOL     OW 1791   2.889   0.510   0.025
  592SOL    HW1 1792   2.841   0.595   0.003
  592SOL    HW2 1793   2.945   0.524   0.106
  593SOL     OW 1794   1.939   0.558   1.390
  593SOL    HW1 1795   2.034   0.551   1.358
  593SOL    HW2 1796   1.933   0.630   1.459
  594SOL     OW 1797   2.427   0.215   1.180
  594SOL    HW1 1798   2.470   0.162   1.253
  594SOL    HW2 1799   2.330   0.228   1.201
  595SOL     OW 1800   2.743   0.468   0.635
  595SOL    HW1 1801   2.677   0.525   0.586
  595SOL    HW2 1802   2.741   0.375   0.599
  596SOL     OW 1803   2.860   0.055   0.760
  596SOL    HW1 1804   2.819   0.063   0.668
  596SOL    HW2 1805   2.837   2.967   0.799
  597SOL     OW 1806   2.350   1.400   0.153
  597SOL    HW1 1807   2.282   1.372   0.220
  597SOL    HW2 1808   2.306   1.410   0.063
  598SOL     OW 1809   2.393   0.263   0.322
  598SOL    HW1 1810   2.435   0.207   0.251
  598SOL    HW2 1811   2.365   0.350   0.283
  599SOL     OW 1812   2.778   0.113   1.400
  599SOL    HW1 1813   2.806   0.095   1.306
  599SOL    HW2 1814   2.842   0.176   1.443
  600SOL     OW 1815   2.838   1.108   1.727
  600SOL    HW1 1816   2.743   1.134   1.741
  600SOL    HW2 1817   2.844   1.037   1.657
  601SOL     OW 1818   2.566   1.059   0.379
  601SOL    HW1 1819   2.547   1.049   0.477
  601SOL    HW2 1820   2.653   1.017   0.357
  602SOL     OW 1821   2.279   0.812   1.253
  602SOL    HW1 1822   2.353   0.827   1.318
  602SOL    HW2 1823   2.239   0.721   1.267
  603SOL     OW 1824   2.219   1.109   0.489
  603SOL    HW1 1825   2.216   1.190   0.430
  603SOL    HW2 1826   2.215   1.026   0.432
  604SOL     OW 1827   2.418   0.547   0.864
  604SOL    HW1 1828   2.435   0.602   0.783
  604SOL    HW2 1829   2.484   0.570   0.935
  605SOL     OW 1830   2.217   1.516   1.320
  605SOL    HW1 1831   2.193   1.477   1.231
  605SOL    HW2 1832   2.315   1.536   1.322
  606SOL     OW 1833   2.274   0.745   1.601
  606SOL    HW1 1834   2.336   0.796   1.540
  606SOL    HW2 1835   2.313   0.655   1.620
  607SOL     OW 1836   2.868   0.118   1.759
  607SOL    HW1 1837   2.900   0.200   1.711
  607SOL    HW2 1838   2.904   0.037   1.713
  608SOL     OW 1839   2.364   0.056   1.749
  608SOL    HW1 1840   2.334   2.985   1.685
  608SOL    HW2 1841   2.290   0.123   1.761
  609SOL     OW 1842   2.442   0.872   1.032
  609SOL    HW1 1843   2.479   0.964   1.025
  609SOL    HW2 1844   2.383   0.865   1.112
  610SOL     OW 1845   0.064   0.532   0.272
  610SOL    HW1 1846   0.087   0.445   0.314
  610SOL    HW2 1847   0.028   0.595   0.341
  611SOL     OW 1848   2.161   0.200   1.249
  611SOL    HW1 1849   2.130   0.243   1.334
  611SOL    HW2 1850   2.140   0.102   1.252
  612SOL     OW 1851   1.951   1.301   1.258
  612SOL    HW1 1852   1.959   1.240   1.337
  612SOL    HW2 1853   1.914   1.389   1.288
  613SOL     OW 1854   2.590   0.634   1.060
  613SOL    HW1 1855   2.668   0.612   1.001
  613SOL    HW2 1856   2.557   0.726   1.039
  614SOL     OW 1857   2.169   0.061   0.643
  614SOL    HW1 1858   2.171   0.158   0.667
  614SOL    HW2 1859   2.151   0.007   0.725
  615SOL     OW 1860   2.866   0.768   0.971
  615SOL    HW1 1861   2.894   0.779   1.066
  615SOL    HW2 1862   2.869   0.672   0.946
  616SOL     OW 1863   2.831   1.567   1.701
  616SOL    HW1 1864   2.824   1.612   1.612
  616SOL    HW2 1865   2.890   1.486   1.693
  617SOL     OW 1866   2.217   0.912   1.808
  617SOL    HW1 1867   2.301   0.937   1.857
  617SOL    HW2 1868   2.240   0.850   1.733
  618SOL     OW 1869   2.908   1.343   0.835
  618SOL    HW1 1870   2.909   1.261   0.778
  618SOL    HW2 1871   2.981   1.404   0.806
  619SOL     OW 1872   2.174   0.808   0.946
  619SOL    HW1 1873   2.270   0.836   0.943
  619SOL    HW2 1874   2.169   0.715   0.983
  620SOL     OW 1875   2.197   0.523   1.013
  620SOL    HW1 1876   2.155   0.433   0.999
  620SOL    HW2 1877   2.276   0.533   0.952
  621SOL     OW 1878   2.963   0.368   1.667
  621SOL    HW1 1879   2.907   0.434   1.717
  621SOL    HW2 1880   0.058   0.402   1.663
  622SOL     OW 1881   1.871   1.316   0.182
  622SOL    HW1 1882   1.777   1.335   0.155
  622SOL    HW2 1883   1.875   1.228   0.229
  623SOL     OW 1884   1.955   1.792   0.935
  623SOL    HW1 1885   1.918   1.708   0.895
  623SOL    HW2 1886   2.050   1.803   0.905
  624SOL     OW 1887   2.362   1.575   0.905
  624SOL    HW1 1888   2.431   1.641   0.932
  624SOL    HW2 1889   2.403   1.504   0.848
  625SOL     OW 1890   2.862   0.796   1.248
  625SOL    HW1 1891   2.914   0.735   1.308
  625SOL    HW2 1892   2.769   0.761   1.238
  626SOL     OW 1893   1.898   0.541   1.118
  626SOL    HW1 1894   1.981   0.525   1.065
  626SOL    HW2 1895   1.922   0.553   1.214
  627SOL     OW 1896   2.051   0.520   1.725
  627SOL    HW1 1897   2.111   0.476   1.658
  627SOL    HW2 1898   2.003   0.596   1.682
  628SOL     OW 1899   2.674   0.572   0.348
  628SOL    HW1 1900   2.683   0.489   0.294
  628SOL    HW2 1901   2.590   0.620   0.323
  629SOL     OW 1902   2.134   1.556   1.742
  629SOL    HW1 1903   2.085   1.624   1.796
  629SOL    HW2 1904   2.111   1.464   1.775
  630SOL     OW 1905   2.554   0.461   1.263
  630SOL    HW1 1906   2.507   0.377   1.234
  630SOL    HW2 1907   2.558   0.524   1.186
  631SOL     OW 1908   2.801   1.690   1.459
  631SOL    HW1 1909   2.768   1.635   1.382
  631SOL    HW2 1910   2.776   1.786   1.446
  632SOL     OW 1911   2.314   0.494   0.203
  632SOL    HW1 1912   2.379   0.567   0.222
  632SOL    HW2 1913   2.224   0.534   0.185
  633SOL     OW 1914   2.011   1.134   1.473
  633SOL    HW1 1915   2.018   1.081   1.558
  633SOL    HW2 1916   2.030   1.074   1.395
  634SOL     OW 1917   1.944   1.269   0.996
  634SOL    HW1 1918   1.946   1.278   1.096
  634SOL    HW2 1919   1.870   1.207   0.970
  635SOL     OW 1920   2.540   1.666   1.728
  635SOL    HW1 1921   2.482   1.747   1.722
  635SOL    HW2 1922   2.608   1.668   1.655
  636SOL     OW 1923   2.763   0.085   0.142
  636SOL    HW1 1924   2.800   0.042   0.059
  636SOL    HW2 1925   2.808   0.048   0.222
  637SOL     OW 1926   1.995   1.791   1.845
  637SOL    HW1 1927   1.942   1.723   1.894
  637SOL    HW2 1928   2.050   1.844   1.909
  638SOL     OW 1929   2.678   1.270   1.427
  638SOL    HW1 1930   2.668   1.316   1.515
  638SOL    HW2 1931   2.604   1.296   1.366
  639SOL     OW 1932   2.528   1.609   0.160
  639SOL    HW1 1933   2.540   1.631   0.063
  639SOL    HW2 1934   2.474   1.525   0.169
  640SOL     OW 1935   2.134   0.346   0.751
  640SOL    HW1 1936   2.042   0.370   0.722
  640SOL    HW2 1937   2.132   0.312   0.845
  641SOL     OW 1938   2.689   1.008   1.376
  641SOL    HW1 1939   2.735   0.994   1.289
  641SOL    HW2 1940   2.689   1.105   1.399
  642SOL     OW 1941   2.794   0.943   0.309
  642SOL    HW1 1942   2.840   0.957   0.221
  642SOL    HW2 1943   2.824   0.857   0.350
  643SOL     OW 1944   2.228   1.300   1.492
  643SOL    HW1 1945   2.222   1.381   1.434
  643SOL    HW2 1946   2.150   1.240   1.473
  644SOL     OW 1947   2.914   1.085   0.724
  644SOL    HW1 1948   2.835   1.040   0.766
  644SOL    HW2 1949   2.938   1.036   0.639
  645SOL     OW 1950   2.880   0.237   0.970
  645SOL    HW1 1951   2.875   0.187   0.883
  645SOL    HW2 1952   2.871   0.172   1.046
  646SOL     OW 1953   2.459   1.486   0.483
  646SOL    HW1 1954   2.507   1.434   0.413
  646SOL    HW2 1955   2.400   1.554   0.439
  647SOL     OW 1956   2.128   1.336   0.298
  647SOL    HW1 1957   2.041   1.339   0.249
  647SOL    HW2 1958   2.118   1.381   0.387
  648SOL     OW 1959   1.980   1.015   1.722
  648SOL    HW1 1960   1.897   0.995   1.774
  648SOL    HW2 1961   2.059   0.976   1.769
  649SOL     OW 1962   2.530   0.210   1.492
  649SOL    HW1 1963   2.615   0.182   1.448
  649SOL    HW2 1964   2.547   0.224   1.590
  650SOL     OW 1965   1.912   0.196   0.328
  650SOL    HW1 1966   1.881   0.238   0.243
  650SOL    HW2 1967   2.003   0.157   0.315
  651SOL     OW 1968   2.480   0.836   1.431
  651SOL    HW1 1969   2.536   0.917   1.417
  651SOL    HW2 1970   2.539   0.755   1.440
  652SOL     OW 1971   2.580   0.563   1.706
  652SOL    HW1 1972   2.614   0.633   1.769
  652SOL    HW2 1973   2.617   0.474   1.733
  653SOL     OW 1974   2.245   1.740   1.564
  653SOL    HW1 1975   2.157   1.784   1.550
  653SOL    HW2 1976   2.231   1.651   1.609
  654SOL     OW 1977   2.457   0.741   0.661
  654SOL    HW1 1978   2.496   0.832   0.653
  654SOL    HW2 1979   2.379   0.732   0.598
  655SOL     OW 1980   2.764   1.380   0.064
  655SOL    HW1 1981   2.690   1.383   0.131
  655SOL    HW2 1982   2.736   1.427   2.981
  656SOL     OW 1983   2.522   1.796   0.950
  656SOL    HW1 1984   2.495   1.888   0.923
  656SOL    HW2 1985   2.621   1.785   0.936
  657SOL     OW 1986   2.718   0.962   0.859
  657SOL    HW1 1987   2.768   0.886   0.899
  657SOL    HW2 1988   2.684   1.022   0.931
  658SOL     OW 1989   2.956   1.017   0.075
  658SOL    HW1 1990   2.924   1.060   2.991
  658SOL    HW2 1991   0.018   0.942   0.053
  659SOL     OW 1992   2.084   1.304   1.854
  659SOL    HW1 1993   2.017   1.236   1.824
  659SOL    HW2 1994   2.074   1.320   1.952
  660SOL     OW 1995   1.943   1.234   0.662
  660SOL    HW1 1996   1.946   1.188   0.750
  660SOL    HW2 1997   2.016   1.199   0.603
  661SOL     OW 1998   2.540   1.403   1.629
  661SOL    HW1 1999   2.458   1.352   1.655
  661SOL    HW2 2000   2.536   1.495   1.667
  662SOL     OW 2001   2.337   0.431   0.550
  662SOL    HW1 2002   2.327   0.371   0.470
  662SOL    HW2 2003   2.269   0.407   0.619
  663SOL     OW 2004   2.188   0.549   1.289
  663SOL    HW1 2005   2.248   0.498   1.350
  663SOL    HW2 2006   2.210   0.528   1.194
  664SOL     OW 2007   2.682   1.585   0.681
  664SOL    HW1 2008   2.688   1.618   0.587
  664SOL    HW2 2009   2.604   1.523   0.690
  665SOL     OW 2010   2.852   0.021   1.150
  665SOL    HW1 2011   2.811   2.948   1.095
  665SOL    HW2 2012   2.949   3.000   1.166
  666SOL     OW 2013   2.629   1.329   0.314
  666SOL    HW1 2014   2.598   1.235   0.331
  666SOL    HW2 2015   2.717   1.343   0.360
  667SOL     OW 2016   2.486   1.561   1.285
  667SOL    HW1 2017   2.485   1.646   1.338
  667SOL    HW2 2018   2.576   1.549   1.243
  668SOL     OW 2019   1.903   1.074   0.305
  668SOL    HW1 2020   2.002   1.072   0.286
  668SOL    HW2 2021   1.873   0.981   0.328
  669SOL     OW 2022   2.735   1.652   0.348
  669SOL    HW1 2023   2.665   1.630   0.280
  669SOL    HW2 2024   2.708   1.733   0.400
  670SOL     OW 2025   2.091   0.621   1.984
  670SOL    HW1 2026   1.999   0.624   2.022
  670SOL    HW2 2027   2.086   0.595   1.887
  671SOL     OW 2028   2.085   0.277   2.878
  671SOL    HW1 2029   2.108   0.240   2.968
  671SOL    HW2 2030   1.996   0.242   2.849
  672SOL     OW 2031   1.865   0.382   2.503
  672SOL    HW1 2032   1.781   0.414   2.547
  672SOL    HW2 2033   1.844   0.304   2.444
  673SOL     OW 2034   2.614   1.149   2.891
  673SOL    HW1 2035   2.549   1.185   2.958
  673SOL    HW2 2036   2.662   1.224   2.846
  674SOL     OW 2037   2.546   1.008   2.512
  674SOL    HW1 2038   2.612   0.989   2.586
  674SOL    HW2 2039   2.469   1.059   2.550
  675SOL     OW 2040   2.205   1.432   2.928
  675SOL    HW1 2041   2.122   1.396   2.886
  675SOL    HW2 2042   2.254   1.488   2.862
  676SOL     OW 2043   2.084   1.712   2.338
  676SOL    HW1 2044   2.105   1.793   2.394
  676SOL    HW2 2045   2.152   1.703   2.266
  677SOL     OW 2046   2.091   1.440   2.397
  677SOL    HW1 2047   2.078   1.539   2.400
  677SOL    HW2 2048   2.028   1.396   2.460
  678SOL     OW 2049   2.118   1.092   2.759
  678SOL    HW1 2050   2.112   0.998   2.794
  678SOL    HW2 2051   2.056   1.150   2.811
  679SOL     OW 2052   2.455   0.980   1.994
  679SOL    HW1 2053   2.495   1.036   1.921
  679SOL    HW2 2054   2.493   1.008   2.082
  680SOL     OW 2055   1.978   0.647   2.427
  680SOL    HW1 2056   1.932   0.560   2.445
  680SOL    HW2 2057   1.972   0.706   2.507
  681SOL     OW 2058   1.880   1.597   1.986
  681SOL    HW1 2059   1.874   1.499   2.006
  681SOL    HW2 2060   1.865   1.649   2.070
  682SOL     OW 2061   2.468   1.381   2.592
  682SOL    HW1 2062   2.421   1.294   2.604
  682SOL    HW2 2063   2.456   1.414   2.499
  683SOL     OW 2064   2.682   0.015   2.373
  683SOL    HW1 2065   2.715   0.108   2.354
  683SOL    HW2 2066   2.583   0.012   2.363
  684SOL     OW 2067   2.458   0.726   2.127
  684SOL    HW1 2068   2.467   0.806   2.068
  684SOL    HW2 2069   2.388   0.742   2.196
  685SOL     OW 2070   2.891   0.707   2.281
  685SOL    HW1 2071   2.928   0.693   2.372
  685SOL    HW2 2072   2.811   0.648   2.268
  686SOL     OW 2073   1.953   0.823   2.636
  686SOL    HW1 2074   2.037   0.809   2.688
  686SOL    HW2 2075   1.903   0.901   2.673
  687SOL     OW 2076   2.738   0.348   2.052
  687SOL    HW1 2077   2.790   0.413   1.996
  687SOL    HW2 2078   2.772   0.256   2.038
  688SOL     OW 2079   2.414   0.202   2.824
  688SOL    HW1 2080   2.364   0.266   2.883
  688SOL    HW2 2081   2.428   0.243   2.734
  689SOL     OW 2082   2.858   1.441   2.331
  689SOL    HW1 2083   2.823   1.521   2.282
  689SOL    HW2 2084   2.868   1.463   2.428
  690SOL     OW 2085   2.217   1.804   2.716
  690SOL    HW1 2086   2.262   1.715   2.730
  690SOL    HW2 2087   2.283   1.877   2.735
  691SOL     OW 2088   2.187   0.953   2.111
  691SOL    HW1 2089   2.272   0.978   2.066
  691SOL    HW2 2090   2.149   0.870   2.068
  692SOL     OW 2091   2.329   1.738   2.182
  692SOL    HW1 2092   2.367   1.798   2.252
  692SOL    HW2 2093   2.403   1.707   2.122
  693SOL     OW 2094   2.125   1.800   0.101
  693SOL    HW1 2095   2.172   1.733   0.159
  693SOL    HW2 2096   2.079   1.753   0.027
  694SOL     OW 2097   2.794   1.699   2.760
  694SOL    HW1 2098   2.862   1.639   2.802
  694SOL    HW2 2099   2.751   1.651   2.683
  695SOL     OW 2100   2.255   0.688   2.342
  695SOL    HW1 2101   2.289   0.595   2.354
  695SOL    HW2 2102   2.157   0.691   2.362
  696SOL     OW 2103   2.487   0.123   1.972
  696SOL    HW1 2104   2.579   0.084   1.977
  696SOL    HW2 2105   2.446   0.100   1.884
  697SOL     OW 2106   2.664   1.400   2.787
  697SOL    HW1 2107   2.755   1.392   2.747
  697SOL    HW2 2108   2.595   1.394   2.714
  698SOL     OW 2109   2.783   0.518   2.755
  698SOL    HW1 2110   2.754   0.496   2.662
  698SOL    HW2 2111   2.816   0.435   2.800
  699SOL     OW 2112   2.403   0.058   2.363
  699SOL    HW1 2113   2.314   0.041   2.404
  699SOL    HW2 2114   2.397   0.135   2.299
  700SOL     OW 2115   2.151   0.033   2.060
  700SOL    HW1 2116   2.191   0.114   2.016
  700SOL    HW2 2117   2.224   2.971   2.087
  701SOL     OW 2118   2.813   0.250   2.321
  701SOL    HW1 2119   2.755   0.296   2.254
  701SOL    HW2 2120   2.897   0.218   2.277
  702SOL     OW 2121   0.081   1.573   2.661
  702SOL    HW1 2122   0.108   1.622   2.578
  702SOL    HW2 2123   0.163   1.553   2.716
  703SOL     OW 2124   2.327   1.145   2.598
  703SOL    HW1 2125   2.255   1.129   2.666
  703SOL    HW2 2126   2.290   1.129   2.506
  704SOL     OW 2127   2.885   0.551   1.878
  704SOL    HW1 2128   2.836   0.636   1.856
  704SOL    HW2 2129   2.942   0.566   1.959
  705SOL     OW 2130   2.743   0.467   2.494
  705SOL    HW1 2131   2.677   0.524   2.444
  705SOL    HW2 2132   2.744   0.375   2.454
  706SOL     OW 2133   2.857   0.053   2.617
  706SOL    HW1 2134   2.817   0.055   2.526
  706SOL    HW2 2135   2.839   2.965   2.660
  707SOL     OW 2136   2.353   1.412   2.025
  707SOL    HW1 2137   2.274   1.382   2.078
  707SOL    HW2 2138   2.337   1.396   1.928
  708SOL     OW 2139   2.396   0.267   2.182
  708SOL    HW1 2140   2.429   0.207   2.110
  708SOL    HW2 2141   2.371   0.356   2.142
  709SOL     OW 2142   2.570   1.057   2.234
  709SOL    HW1 2143   2.552   1.046   2.332
  709SOL    HW2 2144   2.652   1.006   2.209
  710SOL     OW 2145   2.219   1.106   2.352
  710SOL    HW1 2146   2.221   1.188   2.294
  710SOL    HW2 2147   2.216   1.025   2.295
  711SOL     OW 2148   2.414   0.546   2.729
  711SOL    HW1 2149   2.432   0.599   2.646
  711SOL    HW2 2150   2.481   0.571   2.799
  712SOL     OW 2151   2.439   0.870   2.880
  712SOL    HW1 2152   2.485   0.954   2.851
  712SOL    HW2 2153   2.410   0.879   2.975
  713SOL     OW 2154   0.056   0.532   2.135
  713SOL    HW1 2155   0.085   0.449   2.182
  713SOL    HW2 2156   0.019   0.597   2.201
  714SOL     OW 2157   2.596   0.645   2.916
  714SOL    HW1 2158   2.664   0.615   2.849
  714SOL    HW2 2159   2.555   0.731   2.886
  715SOL     OW 2160   2.174   0.062   2.508
  715SOL    HW1 2161   2.166   0.159   2.532
  715SOL    HW2 2162   2.151   0.006   2.588
  716SOL     OW 2163   2.873   0.774   2.829
  716SOL    HW1 2164   2.882   0.773   2.929
  716SOL    HW2 2165   2.864   0.680   2.796
  717SOL     OW 2166   2.909   1.342   2.697
  717SOL    HW1 2167   2.912   1.262   2.638
  717SOL    HW2 2168   2.979   1.408   2.668
  718SOL     OW 2169   2.173   0.809   2.810
  718SOL    HW1 2170   2.269   0.835   2.807
  718SOL    HW2 2171   2.164   0.715   2.841
  719SOL     OW 2172   2.185   0.532   2.869
  719SOL    HW1 2173   2.144   0.441   2.865
  719SOL    HW2 2174   2.267   0.534   2.812
  720SOL     OW 2175   1.864   1.321   2.058
  720SOL    HW1 2176   1.774   1.338   2.016
  720SOL    HW2 2177   1.868   1.227   2.092
  721SOL     OW 2178   1.953   1.795   2.794
  721SOL    HW1 2179   1.916   1.709   2.760
  721SOL    HW2 2180   2.049   1.804   2.767
  722SOL     OW 2181   2.366   1.578   2.764
  722SOL    HW1 2182   2.437   1.644   2.788
  722SOL    HW2 2183   2.406   1.505   2.709
  723SOL     OW 2184   2.848   0.760   0.101
  723SOL    HW1 2185   2.893   0.743   0.189
  723SOL    HW2 2186   2.750   0.769   0.116
  724SOL     OW 2187   2.671   0.566   2.213
  724SOL    HW1 2188   2.676   0.486   2.154
  724SOL    HW2 2189   2.593   0.623   2.185
  725SOL     OW 2190   2.560   0.440   0.083
  725SOL    HW1 2191   2.464   0.425   0.105
  725SOL    HW2 2192   2.570   0.522   0.028
  726SOL     OW 2193   2.329   0.497   2.053
  726SOL    HW1 2194   2.390   0.574   2.072
  726SOL    HW2 2195   2.236   0.531   2.039
  727SOL     OW 2196   1.943   1.268   2.885
  727SOL    HW1 2197   1.932   1.277   2.984
  727SOL    HW2 2198   1.868   1.212   2.848
  728SOL     OW 2199   2.532   1.615   2.016
  728SOL    HW1 2200   2.545   1.630   1.918
  728SOL    HW2 2201   2.477   1.533   2.030
  729SOL     OW 2202   2.132   0.334   2.613
  729SOL    HW1 2203   2.042   0.367   2.585
  729SOL    HW2 2204   2.129   0.309   2.710
  730SOL     OW 2205   2.787   0.921   2.155
  730SOL    HW1 2206   2.837   0.934   2.069
  730SOL    HW2 2207   2.820   0.838   2.200
  731SOL     OW 2208   2.912   1.081   2.587
  731SOL    HW1 2209   2.831   1.037   2.625
  731SOL    HW2 2210   2.937   1.036   2.501
  732SOL     OW 2211   2.882   0.235   2.820
  732SOL    HW1 2212   2.873   0.188   2.733
  732SOL    HW2 2213   2.881   0.168   2.895
  733SOL     OW 2214   2.460   1.485   2.343
  733SOL    HW1 2215   2.508   1.433   2.272
  733SOL    HW2 2216   2.396   1.550   2.300
  734SOL     OW 2217   2.116   1.348   2.148
  734SOL    HW1 2218   2.020   1.344   2.122
  734SOL    HW2 2219   2.123   1.386   2.241
  735SOL     OW 2220   1.940   0.338   1.898
  735SOL    HW1 2221   1.848   0.311   1.873
  735SOL    HW2 2222   1.969   0.415   1.842
  736SOL     OW 2223   1.900   0.204   2.160
  736SOL    HW1 2224   1.916   0.271   2.087
  736SOL    HW2 2225   1.975   0.138   2.161
  737SOL     OW 2226   2.456   0.741   2.525
  737SOL    HW1 2227   2.496   0.832   2.513
  737SOL    HW2 2228   2.379   0.730   2.462
  738SOL     OW 2229   2.731   1.369   1.898
  738SOL    HW1 2230   2.678   1.398   1.978
  738SOL    HW2 2231   2.749   1.448   1.840
  739SOL     OW 2232   2.526   1.798   2.822
  739SOL    HW1 2233   2.500   1.888   2.787
  739SOL    HW2 2234   2.624   1.782   2.804
  740SOL     OW 2235   2.713   0.960   2.721
  740SOL    HW1 2236   2.769   0.888   2.760
  740SOL    HW2 2237   2.685   1.024   2.793
  741SOL     OW 2238   2.934   0.954   1.931
  741SOL    HW1 2239   2.904   1.032   1.875
  741SOL    HW2 2240   0.031   0.965   1.953
  742SOL     OW 2241   1.945   1.237   2.526
  742SOL    HW1 2242   1.940   1.182   2.609
  742SOL    HW2 2243   2.015   1.198   2.465
  743SOL     OW 2244   2.331   0.428   2.408
  743SOL    HW1 2245   2.323   0.369   2.328
  743SOL    HW2 2246   2.264   0.401   2.477
  744SOL     OW 2247   2.682   1.584   2.540
  744SOL    HW1 2248   2.690   1.618   2.446
  744SOL    HW2 2249   2.602   1.524   2.547
  745SOL     OW 2250   2.634   1.332   2.174
  745SOL    HW1 2251   2.601   1.238   2.182
  745SOL    HW2 2252   2.719   1.342   2.226
  746SOL     OW 2253   1.906   1.072   2.167
  746SOL    HW1 2254   2.004   1.069   2.148
  746SOL    HW2 2255   1.874   0.981   2.191
  747SOL     OW 2256   2.734   1.648   2.211
  747SOL    HW1 2257   2.665   1.630   2.141
  747SOL    HW2 2258   2.711   1.733   2.259
  748SOL     OW 2259   2.090   2.496   0.112
  748SOL    HW1 2260   1.995   2.478   0.139
  748SOL    HW2 2261   2.107   2.455   0.023
  749SOL     OW 2262   2.084   2.142   0.993
  749SOL    HW1 2263   2.118   2.109   1.081
  749SOL    HW2 2264   1.992   2.108   0.978
  750SOL     OW 2265   1.869   2.246   0.636
  750SOL    HW1 2266   1.783   2.271   0.680
  750SOL    HW2 2267   1.856   2.162   0.583
  751SOL     OW 2268   2.601   0.002   1.019
  751SOL    HW1 2269   2.524   0.040   1.070
  751SOL    HW2 2270   2.648   0.074   0.970
  752SOL     OW 2271   2.720   2.640   1.817
  752SOL    HW1 2272   2.717   2.700   1.897
  752SOL    HW2 2273   2.750   2.692   1.737
  753SOL     OW 2274   2.517   2.847   0.708
  753SOL    HW1 2275   2.615   2.853   0.728
  753SOL    HW2 2276   2.486   2.934   0.668
  754SOL     OW 2277   2.307   2.260   1.492
  754SOL    HW1 2278   2.388   2.201   1.492
  754SOL    HW2 2279   2.225   2.204   1.501
  755SOL     OW 2280   2.108   0.304   0.479
  755SOL    HW1 2281   2.069   0.392   0.503
  755SOL    HW2 2282   2.048   0.231   0.511
  756SOL     OW 2283   2.108   2.946   0.882
  756SOL    HW1 2284   2.124   2.855   0.920
  756SOL    HW2 2285   2.064   0.004   0.951
  757SOL     OW 2286   2.479   2.831   0.149
  757SOL    HW1 2287   2.459   2.926   0.125
  757SOL    HW2 2288   2.544   2.828   0.224
  758SOL     OW 2289   1.975   2.512   0.563
  758SOL    HW1 2290   1.947   2.418   0.580
  758SOL    HW2 2291   1.968   2.565   0.647
  759SOL     OW 2292   1.983   2.604   1.586
  759SOL    HW1 2293   2.081   2.616   1.602
  759SOL    HW2 2294   1.936   2.691   1.602
  760SOL     OW 2295   2.521   0.246   0.679
  760SOL    HW1 2296   2.463   0.177   0.724
  760SOL    HW2 2297   2.464   0.306   0.624
  761SOL     OW 2298   2.673   1.866   0.504
  761SOL    HW1 2299   2.716   1.955   0.490
  761SOL    HW2 2300   2.574   1.878   0.516
  762SOL     OW 2301   2.058   2.841   1.256
  762SOL    HW1 2302   2.143   2.789   1.250
  762SOL    HW2 2303   1.981   2.781   1.234
  763SOL     OW 2304   2.192   2.113   1.811
  763SOL    HW1 2305   2.246   2.197   1.821
  763SOL    HW2 2306   2.098   2.130   1.842
  764SOL     OW 2307   2.455   2.582   0.271
  764SOL    HW1 2308   2.466   2.663   0.214
  764SOL    HW2 2309   2.385   2.599   0.341
  765SOL     OW 2310   2.648   2.485   1.453
  765SOL    HW1 2311   2.626   2.460   1.548
  765SOL    HW2 2312   2.610   2.417   1.391
  766SOL     OW 2313   2.827   2.747   1.579
  766SOL    HW1 2314   2.861   2.657   1.549
  766SOL    HW2 2315   2.772   2.787   1.507
  767SOL     OW 2316   2.848   2.240   1.256
  767SOL    HW1 2317   2.769   2.291   1.292
  767SOL    HW2 2318   2.837   2.227   1.158
  768SOL     OW 2319   2.889   2.578   0.411
  768SOL    HW1 2320   2.935   2.562   0.499
  768SOL    HW2 2321   2.812   2.515   0.403
  769SOL     OW 2322   1.948   2.683   0.778
  769SOL    HW1 2323   2.036   2.669   0.822
  769SOL    HW2 2324   1.906   2.768   0.812
  770SOL     OW 2325   2.787   2.196   0.217
  770SOL    HW1 2326   2.785   2.267   0.148
  770SOL    HW2 2327   2.759   2.109   0.177
  771SOL     OW 2328   2.408   2.046   0.894
  771SOL    HW1 2329   2.412   2.070   0.991
  771SOL    HW2 2330   2.413   2.129   0.839
  772SOL     OW 2331   2.062   2.147   1.500
  772SOL    HW1 2332   1.978   2.200   1.490
  772SOL    HW2 2333   2.049   2.076   1.569
  773SOL     OW 2334   2.249   2.553   0.477
  773SOL    HW1 2335   2.278   2.457   0.485
  773SOL    HW2 2336   2.152   2.560   0.498
  774SOL     OW 2337   2.487   1.982   0.116
  774SOL    HW1 2338   2.585   1.964   0.120
  774SOL    HW2 2339   2.449   1.935   0.036
  775SOL     OW 2340   2.631   2.141   1.756
  775SOL    HW1 2341   2.706   2.075   1.765
  775SOL    HW2 2342   2.566   2.127   1.831
  776SOL     OW 2343   2.786   2.366   0.902
  776SOL    HW1 2344   2.757   2.357   0.806
  776SOL    HW2 2345   2.827   2.279   0.932
  777SOL     OW 2346   2.406   1.923   0.504
  777SOL    HW1 2347   2.324   1.924   0.561
  777SOL    HW2 2348   2.406   2.004   0.445
  778SOL     OW 2349   2.810   2.099   0.466
  778SOL    HW1 2350   2.769   2.151   0.390
  778SOL    HW2 2351   2.902   2.071   0.440
  779SOL     OW 2352   2.881   2.380   0.034
  779SOL    HW1 2353   2.841   2.467   0.006
  779SOL    HW2 2354   2.945   2.396   0.109
  780SOL     OW 2355   1.940   2.420   1.390
  780SOL    HW1 2356   2.034   2.412   1.357
  780SOL    HW2 2357   1.934   2.492   1.459
  781SOL     OW 2358   2.423   2.086   1.165
  781SOL    HW1 2359   2.468   2.003   1.197
  781SOL    HW2 2360   2.328   2.087   1.195
  782SOL     OW 2361   2.741   2.320   0.635
  782SOL    HW1 2362   2.684   2.384   0.585
  782SOL    HW2 2363   2.748   2.234   0.584
  783SOL     OW 2364   2.857   1.923   0.756
  783SOL    HW1 2365   2.807   1.907   0.670
  783SOL    HW2 2366   2.851   1.841   0.813
  784SOL     OW 2367   2.382   2.123   0.322
  784SOL    HW1 2368   2.423   2.068   0.249
  784SOL    HW2 2369   2.364   2.215   0.288
  785SOL     OW 2370   2.757   1.950   1.390
  785SOL    HW1 2371   2.780   1.930   1.295
  785SOL    HW2 2372   2.834   1.996   1.434
  786SOL     OW 2373   2.276   2.677   1.255
  786SOL    HW1 2374   2.352   2.687   1.320
  786SOL    HW2 2375   2.237   2.585   1.264
  787SOL     OW 2376   2.419   2.404   0.863
  787SOL    HW1 2377   2.433   2.461   0.782
  787SOL    HW2 2378   2.484   2.429   0.934
  788SOL     OW 2379   2.275   2.603   1.602
  788SOL    HW1 2380   2.337   2.652   1.541
  788SOL    HW2 2381   2.313   2.513   1.622
  789SOL     OW 2382   2.858   1.989   1.770
  789SOL    HW1 2383   2.899   2.051   1.704
  789SOL    HW2 2384   2.900   1.898   1.761
  790SOL     OW 2385   2.358   1.908   1.745
  790SOL    HW1 2386   2.319   1.847   1.676
  790SOL    HW2 2387   2.294   1.983   1.762
  791SOL     OW 2388   2.450   2.728   1.037
  791SOL    HW1 2389   2.470   2.823   1.012
  791SOL    HW2 2390   2.383   2.727   1.111
  792SOL     OW 2391   0.062   2.400   0.271
  792SOL    HW1 2392   0.081   2.313   0.318
  792SOL    HW2 2393   0.028   2.466   0.338
  793SOL     OW 2394   2.163   2.062   1.244
  793SOL    HW1 2395   2.128   2.099   1.330
  793SOL    HW2 2396   2.148   1.964   1.241
  794SOL     OW 2397   2.590   2.492   1.060
  794SOL    HW1 2398   2.668   2.474   1.001
  794SOL    HW2 2399   2.556   2.585   1.042
  795SOL     OW 2400   2.161   1.928   0.625
  795SOL    HW1 2401   2.145   2.024   0.649
  795SOL    HW2 2402   2.171   1.874   0.709
  796SOL     OW 2403   2.858   2.624   0.980
  796SOL    HW1 2404   2.906   2.627   1.068
  796SOL    HW2 2405   2.863   2.532   0.942
  797SOL     OW 2406   2.223   2.786   1.798
  797SOL    HW1 2407   2.290   2.783   1.873
  797SOL    HW2 2408   2.244   2.713   1.733
  798SOL     OW 2409   2.176   2.673   0.947
  798SOL    HW1 2410   2.272   2.695   0.934
  798SOL    HW2 2411   2.167   2.580   0.983
  799SOL     OW 2412   2.195   2.384   1.010
  799SOL    HW1 2413   2.156   2.293   0.997
  799SOL    HW2 2414   2.276   2.394   0.951
  800SOL     OW 2415   2.968   2.243   1.668
  800SOL    HW1 2416   2.909   2.303   1.722
  800SOL    HW2 2417   0.062   2.276   1.670
  801SOL     OW 2418   2.977   2.065   1.472
  801SOL    HW1 2419   2.966   2.138   1.539
  801SOL    HW2 2420   2.984   2.104   1.381
  802SOL     OW 2421   2.856   2.668   1.260
  802SOL    HW1 2422   2.913   2.603   1.309
  802SOL    HW2 2423   2.772   2.623   1.231
  803SOL     OW 2424   1.898   2.408   1.117
  803SOL    HW1 2425   1.979   2.385   1.064
  803SOL    HW2 2426   1.921   2.414   1.214
  804SOL     OW 2427   2.052   2.381   1.724
  804SOL    HW1 2428   2.112   2.337   1.656
  804SOL    HW2 2429   2.001   2.455   1.680
  805SOL     OW 2430   2.671   2.428   0.354
  805SOL    HW1 2431   2.678   2.353   0.289
  805SOL    HW2 2432   2.594   2.487   0.330
  806SOL     OW 2433   2.554   2.319   1.263
  806SOL    HW1 2434   2.506   2.236   1.234
  806SOL    HW2 2435   2.558   2.383   1.187
  807SOL     OW 2436   2.304   2.357   0.211
  807SOL    HW1 2437   2.379   2.422   0.222
  807SOL    HW2 2438   2.220   2.406   0.186
  808SOL     OW 2439   2.017   2.993   1.475
  808SOL    HW1 2440   2.022   2.937   1.558
  808SOL    HW2 2441   2.035   2.936   1.396
  809SOL     OW 2442   2.761   1.937   0.128
  809SOL    HW1 2443   2.813   1.909   0.047
  809SOL    HW2 2444   2.802   1.896   0.210
  810SOL     OW 2445   2.125   2.179   0.719
  810SOL    HW1 2446   2.037   2.218   0.689
  810SOL    HW2 2447   2.124   2.167   0.818
  811SOL     OW 2448   2.674   2.867   1.375
  811SOL    HW1 2449   2.732   2.832   1.301
  811SOL    HW2 2450   2.701   2.960   1.397
  812SOL     OW 2451   2.746   2.782   0.290
  812SOL    HW1 2452   2.826   2.835   0.261
  812SOL    HW2 2453   2.773   2.713   0.357
  813SOL     OW 2454   2.880   2.101   0.968
  813SOL    HW1 2455   2.875   2.054   0.880
  813SOL    HW2 2456   2.869   2.035   1.042
  814SOL     OW 2457   1.974   2.864   1.711
  814SOL    HW1 2458   1.894   2.857   1.770
  814SOL    HW2 2459   2.056   2.843   1.764
  815SOL     OW 2460   2.531   2.063   1.500
  815SOL    HW1 2461   2.614   2.039   1.449
  815SOL    HW2 2462   2.556   2.090   1.593
  816SOL     OW 2463   1.935   2.020   0.339
  816SOL    HW1 2464   1.900   2.070   0.259
  816SOL    HW2 2465   2.030   1.993   0.322
  817SOL     OW 2466   2.476   2.694   1.433
  817SOL    HW1 2467   2.535   2.774   1.416
  817SOL    HW2 2468   2.533   2.613   1.442
  818SOL     OW 2469   2.580   2.425   1.705
  818SOL    HW1 2470   2.614   2.496   1.766
  818SOL    HW2 2471   2.615   2.336   1.734
  819SOL     OW 2472   2.454   2.588   0.660
  819SOL    HW1 2473   2.484   2.683   0.672
  819SOL    HW2 2474   2.379   2.585   0.594
  820SOL     OW 2475   2.752   2.836   0.864
  820SOL    HW1 2476   2.783   2.749   0.900
  820SOL    HW2 2477   2.681   2.874   0.924
  821SOL     OW 2478   2.294   2.292   0.528
  821SOL    HW1 2479   2.324   2.221   0.465
  821SOL    HW2 2480   2.242   2.250   0.603
  822SOL     OW 2481   2.189   2.413   1.288
  822SOL    HW1 2482   2.247   2.359   1.350
  822SOL    HW2 2483   2.210   2.388   1.193
  823SOL     OW 2484   2.866   1.881   1.145
  823SOL    HW1 2485   2.806   1.811   1.105
  823SOL    HW2 2486   2.961   1.859   1.125
  824SOL     OW 2487   1.873   2.915   0.302
  824SOL    HW1 2488   1.962   2.924   0.257
  824SOL    HW2 2489   1.863   2.822   0.339
  825SOL     OW 2490   2.092   2.468   1.983
  825SOL    HW1 2491   2.003   2.492   2.020
  825SOL    HW2 2492   2.084   2.451   1.885
  826SOL     OW 2493   2.088   2.141   2.847
  826SOL    HW1 2494   2.120   2.114   2.938
  826SOL    HW2 2495   1.994   2.109   2.834
  827SOL     OW 2496   1.869   2.246   2.495
  827SOL    HW1 2497   1.784   2.275   2.539
  827SOL    HW2 2498   1.854   2.159   2.448
  828SOL     OW 2499   2.644   0.016   2.880
  828SOL    HW1 2500   2.560   0.019   2.934
  828SOL    HW2 2501   2.648   0.095   2.819
  829SOL     OW 2502   2.516   2.844   2.564
  829SOL    HW1 2503   2.611   2.847   2.595
  829SOL    HW2 2504   2.487   2.934   2.532
  830SOL     OW 2505   2.098   0.298   2.336
  830SOL    HW1 2506   2.064   0.388   2.361
  830SOL    HW2 2507   2.044   0.228   2.382
  831SOL     OW 2508   2.112   2.949   2.749
  831SOL    HW1 2509   2.125   2.856   2.782
  831SOL    HW2 2510   2.059   0.001   2.816
  832SOL     OW 2511   2.467   2.825   1.994
  832SOL    HW1 2512   2.461   2.908   1.940
  832SOL    HW2 2513   2.531   2.839   2.070
  833SOL     OW 2514   1.976   2.512   2.426
  833SOL    HW1 2515   1.947   2.418   2.443
  833SOL    HW2 2516   1.969   2.565   2.510
  834SOL     OW 2517   2.504   0.249   2.561
  834SOL    HW1 2518   2.458   0.160   2.560
  834SOL    HW2 2519   2.464   0.308   2.491
  835SOL     OW 2520   2.673   1.866   2.364
  835SOL    HW1 2521   2.717   1.954   2.351
  835SOL    HW2 2522   2.575   1.880   2.378
  836SOL     OW 2523   2.062   2.807   0.114
  836SOL    HW1 2524   2.135   2.739   0.105
  836SOL    HW2 2525   1.975   2.764   0.092
  837SOL     OW 2526   2.459   2.582   2.129
  837SOL    HW1 2527   2.467   2.661   2.068
  837SOL    HW2 2528   2.389   2.601   2.199
  838SOL     OW 2529   2.895   2.577   2.275
  838SOL    HW1 2530   2.933   2.565   2.367
  838SOL    HW2 2531   2.813   2.520   2.265
  839SOL     OW 2532   1.948   2.685   2.639
  839SOL    HW1 2533   2.035   2.669   2.686
  839SOL    HW2 2534   1.905   2.767   2.676
  840SOL     OW 2535   2.748   2.208   2.060
  840SOL    HW1 2536   2.788   2.275   1.997
  840SOL    HW2 2537   2.752   2.117   2.018
  841SOL     OW 2538   2.409   2.047   2.764
  841SOL    HW1 2539   2.383   2.078   2.855
  841SOL    HW2 2540   2.419   2.126   2.704
  842SOL     OW 2541   2.249   2.552   2.338
  842SOL    HW1 2542   2.278   2.457   2.348
  842SOL    HW2 2543   2.152   2.560   2.360
  843SOL     OW 2544   2.492   1.987   1.966
  843SOL    HW1 2545   2.568   1.925   1.986
  843SOL    HW2 2546   2.441   1.953   1.887
  844SOL     OW 2547   2.785   2.375   2.756
  844SOL    HW1 2548   2.758   2.356   2.662
  844SOL    HW2 2549   2.817   2.291   2.800
  845SOL     OW 2550   2.407   1.925   2.366
  845SOL    HW1 2551   2.324   1.924   2.421
  845SOL    HW2 2552   2.406   2.007   2.308
  846SOL     OW 2553   2.155   1.908   2.045
  846SOL    HW1 2554   2.208   1.981   2.004
  846SOL    HW2 2555   2.216   1.841   2.087
  847SOL     OW 2556   2.805   2.102   2.318
  847SOL    HW1 2557   2.761   2.152   2.244
  847SOL    HW2 2558   2.897   2.075   2.291
  848SOL     OW 2559   2.885   2.414   1.879
  848SOL    HW1 2560   2.836   2.498   1.855
  848SOL    HW2 2561   2.940   2.430   1.961
  849SOL     OW 2562   2.741   2.318   2.495
  849SOL    HW1 2563   2.682   2.383   2.447
  849SOL    HW2 2564   2.746   2.233   2.443
  850SOL     OW 2565   2.855   1.923   2.611
  850SOL    HW1 2566   2.803   1.901   2.528
  850SOL    HW2 2567   2.853   1.845   2.674
  851SOL     OW 2568   2.392   2.125   2.181
  851SOL    HW1 2569   2.429   2.069   2.107
  851SOL    HW2 2570   2.370   2.216   2.146
  852SOL     OW 2571   2.418   2.399   2.724
  852SOL    HW1 2572   2.431   2.457   2.644
  852SOL    HW2 2573   2.479   2.428   2.797
  853SOL     OW 2574   2.435   2.728   2.883
  853SOL    HW1 2575   2.484   2.808   2.847
  853SOL    HW2 2576   2.419   2.741   2.981
  854SOL     OW 2577   0.054   2.392   2.137
  854SOL    HW1 2578   0.090   2.313   2.188
  854SOL    HW2 2579   0.013   2.457   2.201
  855SOL     OW 2580   2.163   2.068   0.090
  855SOL    HW1 2581   2.186   2.109   0.178
  855SOL    HW2 2582   2.152   1.969   0.101
  856SOL     OW 2583   2.591   2.500   2.913
  856SOL    HW1 2584   2.665   2.476   2.849
  856SOL    HW2 2585   2.554   2.590   2.888
  857SOL     OW 2586   2.162   1.928   2.486
  857SOL    HW1 2587   2.144   2.023   2.509
  857SOL    HW2 2588   2.169   1.874   2.570
  858SOL     OW 2589   2.871   2.630   2.825
  858SOL    HW1 2590   2.895   2.637   2.922
  858SOL    HW2 2591   2.865   2.534   2.799
  859SOL     OW 2592   2.173   2.671   2.808
  859SOL    HW1 2593   2.270   2.697   2.809
  859SOL    HW2 2594   2.164   2.576   2.839
  860SOL     OW 2595   2.184   2.394   2.864
  860SOL    HW1 2596   2.145   2.302   2.859
  860SOL    HW2 2597   2.269   2.397   2.811
  861SOL     OW 2598   2.878   2.645   0.093
  861SOL    HW1 2599   2.922   2.635   0.182
  861SOL    HW2 2600   2.781   2.667   0.106
  862SOL     OW 2601   2.675   2.430   2.215
  862SOL    HW1 2602   2.678   2.349   2.156
  862SOL    HW2 2603   2.597   2.487   2.188
  863SOL     OW 2604   2.565   2.310   0.100
  863SOL    HW1 2605   2.477   2.263   0.091
  863SOL    HW2 2606   2.569   2.385   0.034
  864SOL     OW 2607   2.330   2.356   2.053
  864SOL    HW1 2608   2.390   2.432   2.075
  864SOL    HW2 2609   2.237   2.389   2.038
  865SOL     OW 2610   0.167   2.702   2.164
  865SOL    HW1 2611   0.100   2.650   2.217
  865SOL    HW2 2612   0.198   2.646   2.087
  866SOL     OW 2613   2.125   2.180   2.578
  866SOL    HW1 2614   2.038   2.219   2.549
  866SOL    HW2 2615   2.125   2.169   2.678
  867SOL     OW 2616   2.762   2.762   2.115
  867SOL    HW1 2617   2.838   2.816   2.079
  867SOL    HW2 2618   2.795   2.701   2.187
  868SOL     OW 2619   2.878   2.100   2.819
  868SOL    HW1 2620   2.871   2.054   2.731
  868SOL    HW2 2621   2.898   2.033   2.890
  869SOL     OW 2622   1.940   2.196   1.895
  869SOL    HW1 2623   1.848   2.174   1.864
  869SOL    HW2 2624   1.973   2.276   1.845
  870SOL     OW 2625   1.931   2.020   2.174
  870SOL    HW1 2626   1.914   2.105   2.124
  870SOL    HW2 2627   2.020   1.983   2.147
  871SOL     OW 2628   2.455   2.585   2.520
  871SOL    HW1 2629   2.485   2.680   2.533
  871SOL    HW2 2630   2.378   2.583   2.456
  872SOL     OW 2631   2.742   2.831   2.716
  872SOL    HW1 2632   2.786   2.750   2.754
  872SOL    HW2 2633   2.705   2.886   2.790
  873SOL     OW 2634   2.946   2.834   1.900
  873SOL    HW1 2635   2.912   2.928   1.906
  873SOL    HW2 2636   0.014   2.819   1.971
  874SOL     OW 2637   2.294   2.291   2.387
  874SOL    HW1 2638   2.323   2.219   2.325
  874SOL    HW2 2639   2.243   2.252   2.463
  875SOL     OW 2640   1.888   2.917   2.172
  875SOL    HW1 2641   1.976   2.933   2.129
  875SOL    HW2 2642   1.879   2.821   2.197
   3.00000   3.00000   3.00000
