O7LP in water
 2661
    1O7LP   H45    1   1.551   1.291   1.641
    1O7LP   O11    2   1.638   1.245   1.647
    1O7LP   C23    3   1.745   1.340   1.628
    1O7LP   H14    4   1.825   1.283   1.582
    1O7LP   H13    5   1.783   1.376   1.724
    1O7LP   C20    6   1.707   1.456   1.535
    1O7LP   H12    7   1.729   1.421   1.434
    1O7LP   C19    8   1.779   1.592   1.548
    1O7LP   H11    9   1.885   1.578   1.571
    1O7LP    O8   10   1.772   1.663   1.422
    1O7LP   H42   11   1.685   1.710   1.423
    1O7LP   C18   12   1.714   1.681   1.658
    1O7LP   H10   13   1.755   1.781   1.647
    1O7LP    O7   14   1.726   1.630   1.795
    1O7LP   H41   15   1.815   1.648   1.843
    1O7LP   C17   16   1.562   1.692   1.629
    1O7LP   H09   17   1.516   1.752   1.708
    1O7LP    O6   18   1.541   1.752   1.500
    1O7LP   H40   19   1.449   1.726   1.461
    1O7LP   C16   20   1.504   1.550   1.630
    1O7LP   H08   21   1.533   1.501   1.723
    1O7LP    O3   22   1.565   1.475   1.526
    1O7LP    O2   23   1.365   1.551   1.616
    1O7LP   C12   24   1.276   1.489   1.519
    1O7LP   C21   25   1.138   1.479   1.587
    1O7LP   H06   26   1.059   1.493   1.513
    1O7LP   H07   27   1.125   1.560   1.659
    1O7LP    O9   28   1.110   1.357   1.652
    1O7LP   H43   29   1.193   1.308   1.674
    1O7LP    O1   30   1.321   1.355   1.484
    1O7LP   C15   31   1.370   1.351   1.346
    1O7LP   H01   32   1.294   1.304   1.285
    1O7LP   C22   33   1.493   1.260   1.339
    1O7LP   H04   34   1.460   1.157   1.340
    1O7LP   H05   35   1.553   1.270   1.427
    1O7LP   O10   36   1.574   1.275   1.224
    1O7LP   H44   37   1.593   1.370   1.209
    1O7LP   C14   38   1.386   1.498   1.303
    1O7LP   H02   39   1.481   1.542   1.332
    1O7LP    O5   40   1.375   1.509   1.162
    1O7LP   H39   41   1.466   1.542   1.129
    1O7LP   C13   42   1.275   1.568   1.386
    1O7LP   H03   43   1.179   1.551   1.335
    1O7LP    O4   44   1.307   1.708   1.396
    1O7LP   H38   45   1.264   1.749   1.484
    2SOL     OW   46   0.238   0.659   0.107
    2SOL    HW1   47   0.167   0.611   0.160
    2SOL    HW2   48   0.256   0.608   0.023
    3SOL     OW   49   0.204   0.272   1.002
    3SOL    HW1   50   0.243   0.248   1.091
    3SOL    HW2   51   0.104   0.260   1.005
    4SOL     OW   52   0.009   0.393   0.660
    4SOL    HW1   53   2.922   0.434   0.688
    4SOL    HW2   54   2.991   0.317   0.597
    5SOL     OW   55   0.568   1.286   1.177
    5SOL    HW1   56   0.475   1.277   1.141
    5SOL    HW2   57   0.582   1.379   1.211
    6SOL     OW   58   1.557   1.511   0.701
    6SOL    HW1   59   1.515   1.485   0.788
    6SOL    HW2   60   1.487   1.520   0.631
    7SOL     OW   61   1.132   0.702   0.699
    7SOL    HW1   62   1.184   0.786   0.684
    7SOL    HW2   63   1.080   0.710   0.784
    8SOL     OW   64   1.765   0.593   0.230
    8SOL    HW1   65   1.746   0.584   0.133
    8SOL    HW2   66   1.725   0.515   0.279
    9SOL     OW   67   0.752   1.144   1.034
    9SOL    HW1   68   0.682   1.177   1.097
    9SOL    HW2   69   0.796   1.222   0.989
   10SOL     OW   70   0.863   0.780   1.817
   10SOL    HW1   71   0.853   0.851   1.888
   10SOL    HW2   72   0.890   0.823   1.731
   11SOL     OW   73   0.683   1.004   0.654
   11SOL    HW1   74   0.754   0.990   0.723
   11SOL    HW2   75   0.608   1.057   0.692
   12SOL     OW   76   0.701   1.151   1.811
   12SOL    HW1   77   0.756   1.229   1.841
   12SOL    HW2   78   0.614   1.184   1.773
   13SOL     OW   79   0.326   1.432   1.070
   13SOL    HW1   80   0.260   1.374   1.022
   13SOL    HW2   81   0.384   1.478   1.002
   14SOL     OW   82   0.452   0.402   1.492
   14SOL    HW1   83   0.531   0.341   1.493
   14SOL    HW2   84   0.368   0.349   1.505
   15SOL     OW   85   1.612   0.458   0.738
   15SOL    HW1   86   1.534   0.479   0.680
   15SOL    HW2   87   1.628   0.535   0.801
   16SOL     OW   88   0.220   1.717   0.479
   16SOL    HW1   89   0.238   1.802   0.530
   16SOL    HW2   90   0.293   1.702   0.412
   17SOL     OW   91   0.251   1.453   0.531
   17SOL    HW1   92   0.215   1.546   0.525
   17SOL    HW2   93   0.190   1.398   0.588
   18SOL     OW   94   0.264   1.083   0.901
   18SOL    HW1   95   0.259   0.988   0.932
   18SOL    HW2   96   0.197   1.138   0.950
   19SOL     OW   97   0.616   1.792   1.435
   19SOL    HW1   98   0.528   1.767   1.476
   19SOL    HW2   99   0.637   1.888   1.457
   20SOL     OW  100   0.588   0.975   0.154
   20SOL    HW1  101   0.596   1.047   0.086
   20SOL    HW2  102   0.631   1.004   0.239
   21SOL     OW  103   1.552   0.147   1.464
   21SOL    HW1  104   1.585   0.223   1.408
   21SOL    HW2  105   1.627   0.112   1.521
   22SOL     OW  106   0.118   0.631   0.572
   22SOL    HW1  107   0.081   0.546   0.608
   22SOL    HW2  108   0.117   0.701   0.643
   23SOL     OW  109   1.846   1.758   0.334
   23SOL    HW1  110   1.904   1.720   0.406
   23SOL    HW2  111   1.868   1.855   0.322
   24SOL     OW  112   0.020   1.598   0.116
   24SOL    HW1  113   0.022   1.499   0.128
   24SOL    HW2  114   2.989   1.642   0.200
   25SOL     OW  115   1.692   0.922   0.641
   25SOL    HW1  116   1.778   0.873   0.624
   25SOL    HW2  117   1.667   0.975   0.561
   26SOL     OW  118   1.649   1.108   0.432
   26SOL    HW1  119   1.737   1.109   0.385
   26SOL    HW2  120   1.651   1.172   0.509
   27SOL     OW  121   0.131   0.748   1.590
   27SOL    HW1  122   0.230   0.755   1.590
   27SOL    HW2  123   0.091   0.839   1.591
   28SOL     OW  124   0.609   1.385   0.734
   28SOL    HW1  125   0.563   1.297   0.747
   28SOL    HW2  126   0.595   1.417   0.641
   29SOL     OW  127   0.818   0.017   0.513
   29SOL    HW1  128   0.855   0.108   0.497
   29SOL    HW2  129   0.719   0.018   0.499
   30SOL     OW  130   0.188   0.955   1.275
   30SOL    HW1  131   0.277   0.914   1.254
   30SOL    HW2  132   0.118   0.915   1.216
   31SOL     OW  133   1.506   1.008   0.215
   31SOL    HW1  134   1.436   0.946   0.251
   31SOL    HW2  135   1.564   1.040   0.290
   32SOL     OW  136   1.192   1.812   1.600
   32SOL    HW1  137   1.177   1.900   1.555
   32SOL    HW2  138   1.114   1.751   1.581
   33SOL     OW  139   0.333   0.253   1.801
   33SOL    HW1  140   0.391   0.331   1.823
   33SOL    HW2  141   0.245   0.262   1.846
   34SOL     OW  142   1.466   1.405   0.935
   34SOL    HW1  143   1.402   1.423   1.010
   34SOL    HW2  144   1.460   1.310   0.907
   35SOL     OW  145   1.659   1.735   0.576
   35SOL    HW1  146   1.635   1.710   0.482
   35SOL    HW2  147   1.631   1.661   0.638
   36SOL     OW  148   0.592   0.719   0.270
   36SOL    HW1  149   0.602   0.805   0.219
   36SOL    HW2  150   0.525   0.732   0.343
   37SOL     OW  151   1.285   0.342   0.930
   37SOL    HW1  152   1.188   0.317   0.935
   37SOL    HW2  153   1.335   0.292   1.000
   38SOL     OW  154   1.586   1.668   0.309
   38SOL    HW1  155   1.680   1.702   0.304
   38SOL    HW2  156   1.554   1.646   0.216
   39SOL     OW  157   0.792   0.614   1.455
   39SOL    HW1  158   0.764   0.593   1.549
   39SOL    HW2  159   0.749   0.549   1.392
   40SOL     OW  160   1.396   0.477   1.678
   40SOL    HW1  161   1.393   0.525   1.766
   40SOL    HW2  162   1.455   0.397   1.686
   41SOL     OW  163   0.956   0.885   1.576
   41SOL    HW1  164   1.014   0.812   1.541
   41SOL    HW2  165   0.905   0.926   1.500
   42SOL     OW  166   0.997   0.417   1.226
   42SOL    HW1  167   0.920   0.438   1.286
   42SOL    HW2  168   0.965   0.368   1.145
   43SOL     OW  169   1.048   0.705   0.425
   43SOL    HW1  170   1.068   0.697   0.522
   43SOL    HW2  171   0.964   0.654   0.404
   44SOL     OW  172   0.106   0.819   0.763
   44SOL    HW1  173   0.187   0.814   0.821
   44SOL    HW2  174   0.033   0.868   0.811
   45SOL     OW  175   0.142   1.846   1.576
   45SOL    HW1  176   0.128   1.818   1.671
   45SOL    HW2  177   0.054   1.871   1.535
   46SOL     OW  178   0.925   0.339   0.221
   46SOL    HW1  179   0.939   0.402   0.145
   46SOL    HW2  180   0.878   0.257   0.188
   47SOL     OW  181   1.710   0.578   1.826
   47SOL    HW1  182   1.670   0.657   1.780
   47SOL    HW2  183   1.737   0.510   1.758
   48SOL     OW  184   1.377   1.142   0.539
   48SOL    HW1  185   1.460   1.126   0.486
   48SOL    HW2  186   1.320   1.209   0.491
   49SOL     OW  187   0.513   0.202   0.917
   49SOL    HW1  188   0.538   0.212   1.013
   49SOL    HW2  189   0.552   0.278   0.865
   50SOL     OW  190   1.003   1.446   0.470
   50SOL    HW1  191   0.962   1.522   0.419
   50SOL    HW2  192   0.988   1.461   0.568
   51SOL     OW  193   0.357   1.808   0.858
   51SOL    HW1  194   0.402   1.720   0.869
   51SOL    HW2  195   0.422   1.882   0.877
   52SOL     OW  196   1.800   1.062   0.864
   52SOL    HW1  197   1.748   1.041   0.782
   52SOL    HW2  198   1.740   1.061   0.944
   53SOL     OW  199   0.320   0.946   0.232
   53SOL    HW1  200   0.417   0.958   0.209
   53SOL    HW2  201   0.290   0.856   0.203
   54SOL     OW  202   1.478   0.743   0.726
   54SOL    HW1  203   1.464   0.695   0.813
   54SOL    HW2  204   1.557   0.804   0.734
   55SOL     OW  205   0.463   1.262   1.731
   55SOL    HW1  206   0.437   1.269   1.635
   55SOL    HW2  207   0.382   1.266   1.789
   56SOL     OW  208   1.110   1.773   0.224
   56SOL    HW1  209   1.046   1.727   0.285
   56SOL    HW2  210   1.146   1.708   0.158
   57SOL     OW  211   0.203   0.299   1.498
   57SOL    HW1  212   0.117   0.347   1.483
   57SOL    HW2  213   0.186   0.215   1.549
   58SOL     OW  214   1.624   1.360   0.085
   58SOL    HW1  215   1.600   1.457   0.078
   58SOL    HW2  216   1.541   1.305   0.079
   59SOL     OW  217   0.467   1.722   0.333
   59SOL    HW1  218   0.498   1.795   0.393
   59SOL    HW2  219   0.536   1.705   0.263
   60SOL     OW  220   1.411   0.109   0.433
   60SOL    HW1  221   1.391   0.081   0.339
   60SOL    HW2  222   1.509   0.127   0.443
   61SOL     OW  223   0.267   1.798   1.231
   61SOL    HW1  224   0.306   1.721   1.282
   61SOL    HW2  225   0.222   1.763   1.149
   62SOL     OW  226   0.934   1.701   0.900
   62SOL    HW1  227   1.017   1.654   0.929
   62SOL    HW2  228   0.890   1.649   0.826
   63SOL     OW  229   0.392   0.687   0.475
   63SOL    HW1  230   0.426   0.594   0.493
   63SOL    HW2  231   0.295   0.692   0.499
   64SOL     OW  232   1.537   0.252   1.739
   64SOL    HW1  233   1.538   0.258   1.839
   64SOL    HW2  234   1.483   0.172   1.711
   65SOL     OW  235   0.609   0.107   0.100
   65SOL    HW1  236   0.707   0.108   0.118
   65SOL    HW2  237   0.591   0.148   0.011
   66SOL     OW  238   0.765   0.271   1.751
   66SOL    HW1  239   0.845   0.212   1.760
   66SOL    HW2  240   0.719   0.278   1.839
   67SOL     OW  241   0.880   1.514   1.191
   67SOL    HW1  242   0.857   1.484   1.099
   67SOL    HW2  243   0.946   1.451   1.232
   68SOL     OW  244   1.345   0.590   1.434
   68SOL    HW1  245   1.373   0.553   1.523
   68SOL    HW2  246   1.377   0.684   1.425
   69SOL     OW  247   0.816   1.397   0.935
   69SOL    HW1  248   0.905   1.385   0.892
   69SOL    HW2  249   0.745   1.394   0.865
   70SOL     OW  250   0.926   0.509   0.901
   70SOL    HW1  251   0.902   0.504   0.804
   70SOL    HW2  252   0.961   0.420   0.932
   71SOL     OW  253   0.539   0.047   0.497
   71SOL    HW1  254   0.450   0.037   0.543
   71SOL    HW2  255   0.537   0.127   0.437
   72SOL     OW  256   1.409   1.207   0.053
   72SOL    HW1  257   1.433   1.128   0.110
   72SOL    HW2  258   1.318   1.239   0.077
   73SOL     OW  259   0.297   0.081   0.201
   73SOL    HW1  260   0.379   0.138   0.203
   73SOL    HW2  261   0.323   2.985   0.198
   74SOL     OW  262   0.951   0.253   0.475
   74SOL    HW1  263   0.922   0.291   0.387
   74SOL    HW2  264   1.050   0.262   0.485
   75SOL     OW  265   1.081   0.678   1.458
   75SOL    HW1  266   1.003   0.615   1.465
   75SOL    HW2  267   1.166   0.625   1.452
   76SOL     OW  268   1.225   1.569   0.791
   76SOL    HW1  269   1.238   1.638   0.720
   76SOL    HW2  270   1.290   1.584   0.865
   77SOL     OW  271   0.466   1.148   0.736
   77SOL    HW1  272   0.395   1.128   0.803
   77SOL    HW2  273   0.429   1.137   0.643
   78SOL     OW  274   1.268   1.794   0.604
   78SOL    HW1  275   1.318   1.857   0.544
   78SOL    HW2  276   1.198   1.845   0.654
   79SOL     OW  277   1.043   0.498   0.035
   79SOL    HW1  278   1.000   0.587   0.023
   79SOL    HW2  279   1.116   0.504   0.103
   80SOL     OW  280   0.084   0.567   1.390
   80SOL    HW1  281   0.176   0.559   1.351
   80SOL    HW2  282   0.086   0.633   1.465
   81SOL     OW  283   0.580   0.210   1.182
   81SOL    HW1  284   0.625   0.169   1.261
   81SOL    HW2  285   0.483   0.220   1.200
   82SOL     OW  286   0.875   0.472   0.638
   82SOL    HW1  287   0.820   0.525   0.574
   82SOL    HW2  288   0.888   0.379   0.601
   83SOL     OW  289   0.994   0.057   0.764
   83SOL    HW1  290   0.958   0.070   0.671
   83SOL    HW2  291   0.973   2.965   0.796
   84SOL     OW  292   1.442   1.151   0.851
   84SOL    HW1  293   1.364   1.088   0.859
   84SOL    HW2  294   1.461   1.167   0.754
   85SOL     OW  295   1.469   0.600   0.979
   85SOL    HW1  296   1.411   0.519   0.982
   85SOL    HW2  297   1.532   0.600   1.056
   86SOL     OW  298   1.846   0.815   0.381
   86SOL    HW1  299   1.903   0.760   0.442
   86SOL    HW2  300   1.816   0.760   0.303
   87SOL     OW  301   0.486   1.408   0.153
   87SOL    HW1  302   0.421   1.374   0.221
   87SOL    HW2  303   0.440   1.418   0.064
   88SOL     OW  304   1.670   1.267   0.646
   88SOL    HW1  305   1.770   1.268   0.659
   88SOL    HW2  306   1.634   1.358   0.666
   89SOL     OW  307   1.412   0.574   0.101
   89SOL    HW1  308   1.338   0.569   0.168
   89SOL    HW2  309   1.462   0.487   0.100
   90SOL     OW  310   0.526   0.261   0.321
   90SOL    HW1  311   0.572   0.208   0.250
   90SOL    HW2  312   0.499   0.349   0.284
   91SOL     OW  313   1.045   1.322   1.329
   91SOL    HW1  314   0.956   1.302   1.371
   91SOL    HW2  315   1.118   1.299   1.393
   92SOL     OW  316   1.122   1.194   1.100
   92SOL    HW1  317   1.083   1.244   1.177
   92SOL    HW2  318   1.094   1.238   1.015
   93SOL     OW  319   1.628   1.078   1.067
   93SOL    HW1  320   1.621   1.150   1.137
   93SOL    HW2  321   1.549   1.085   1.005
   94SOL     OW  322   0.900   0.113   1.383
   94SOL    HW1  323   0.938   0.089   1.294
   94SOL    HW2  324   0.966   0.169   1.434
   95SOL     OW  325   0.979   1.095   1.740
   95SOL    HW1  326   0.887   1.132   1.746
   95SOL    HW2  327   0.982   1.023   1.670
   96SOL     OW  328   0.706   1.061   0.381
   96SOL    HW1  329   0.688   1.048   0.478
   96SOL    HW2  330   0.790   1.013   0.356
   97SOL     OW  331   0.421   0.812   1.250
   97SOL    HW1  332   0.493   0.826   1.318
   97SOL    HW2  333   0.381   0.721   1.264
   98SOL     OW  334   1.271   0.389   1.263
   98SOL    HW1  335   1.304   0.463   1.321
   98SOL    HW2  336   1.172   0.399   1.248
   99SOL     OW  337   0.068   1.570   1.310
   99SOL    HW1  338   0.021   1.653   1.341
   99SOL    HW2  339   0.162   1.571   1.345
  100SOL     OW  340   0.359   1.114   0.487
  100SOL    HW1  341   0.346   1.192   0.425
  100SOL    HW2  342   0.355   1.029   0.435
  101SOL     OW  343   0.552   0.546   0.863
  101SOL    HW1  344   0.569   0.602   0.782
  101SOL    HW2  345   0.619   0.568   0.934
  102SOL     OW  346   1.246   1.349   0.399
  102SOL    HW1  347   1.307   1.424   0.425
  102SOL    HW2  348   1.153   1.371   0.427
  103SOL     OW  349   1.581   0.625   0.479
  103SOL    HW1  350   1.533   0.679   0.548
  103SOL    HW2  351   1.631   0.686   0.417
  104SOL     OW  352   0.352   1.528   1.319
  104SOL    HW1  353   0.328   1.487   1.231
  104SOL    HW2  354   0.452   1.541   1.324
  105SOL     OW  355   0.412   0.740   1.600
  105SOL    HW1  356   0.470   0.794   1.540
  105SOL    HW2  357   0.458   0.654   1.622
  106SOL     OW  358   1.601   0.780   1.679
  106SOL    HW1  359   1.509   0.818   1.677
  106SOL    HW2  360   1.657   0.824   1.608
  107SOL     OW  361   1.007   0.113   1.762
  107SOL    HW1  362   1.051   0.200   1.740
  107SOL    HW2  363   1.023   0.048   1.687
  108SOL     OW  364   0.503   0.052   1.751
  108SOL    HW1  365   0.475   2.984   1.683
  108SOL    HW2  366   0.432   0.121   1.760
  109SOL     OW  367   0.583   0.871   1.032
  109SOL    HW1  368   0.617   0.965   1.025
  109SOL    HW2  369   0.523   0.863   1.112
  110SOL     OW  370   1.362   0.857   1.020
  110SOL    HW1  371   1.270   0.852   0.981
  110SOL    HW2  372   1.403   0.766   1.023
  111SOL     OW  373   1.203   0.530   0.273
  111SOL    HW1  374   1.215   0.445   0.325
  111SOL    HW2  375   1.157   0.597   0.330
  112SOL     OW  376   0.325   0.208   1.247
  112SOL    HW1  377   0.291   0.258   1.327
  112SOL    HW2  378   0.275   0.121   1.239
  113SOL     OW  379   0.035   1.305   1.280
  113SOL    HW1  380   0.070   1.253   1.358
  113SOL    HW2  381   0.045   1.402   1.298
  114SOL     OW  382   0.726   0.632   1.058
  114SOL    HW1  383   0.802   0.610   0.997
  114SOL    HW2  384   0.693   0.724   1.038
  115SOL     OW  385   1.735   0.956   1.853
  115SOL    HW1  386   1.687   0.899   1.786
  115SOL    HW2  387   1.674   0.976   1.929
  116SOL     OW  388   0.309   0.074   0.645
  116SOL    HW1  389   0.306   0.165   0.684
  116SOL    HW2  390   0.283   0.007   0.714
  117SOL     OW  391   1.621   0.378   0.366
  117SOL    HW1  392   1.650   0.305   0.428
  117SOL    HW2  393   1.591   0.457   0.419
  118SOL     OW  394   1.025   0.756   0.961
  118SOL    HW1  395   1.025   0.779   1.059
  118SOL    HW2  396   0.997   0.661   0.949
  119SOL     OW  397   0.357   0.915   1.805
  119SOL    HW1  398   0.438   0.937   1.860
  119SOL    HW2  399   0.382   0.849   1.735
  120SOL     OW  400   1.497   0.302   0.128
  120SOL    HW1  401   1.457   0.211   0.139
  120SOL    HW2  402   1.557   0.321   0.206
  121SOL     OW  403   1.293   0.821   0.035
  121SOL    HW1  404   1.336   0.732   0.051
  121SOL    HW2  405   1.321   0.856   2.946
  122SOL     OW  406   1.067   1.336   0.850
  122SOL    HW1  407   1.068   1.257   0.789
  122SOL    HW2  408   1.130   1.406   0.816
  123SOL     OW  409   0.313   0.807   0.945
  123SOL    HW1  410   0.410   0.832   0.942
  123SOL    HW2  411   0.303   0.715   0.984
  124SOL     OW  412   0.333   0.514   1.016
  124SOL    HW1  413   0.290   0.426   0.996
  124SOL    HW2  414   0.411   0.527   0.955
  125SOL     OW  415   1.140   0.383   1.704
  125SOL    HW1  416   1.090   0.440   1.770
  125SOL    HW2  417   1.232   0.420   1.692
  126SOL     OW  418   1.098   0.255   1.478
  126SOL    HW1  419   1.117   0.311   1.559
  126SOL    HW2  420   1.183   0.237   1.428
  127SOL     OW  421   0.009   1.313   0.169
  127SOL    HW1  422   2.914   1.333   0.145
  127SOL    HW2  423   0.012   1.236   0.232
  128SOL     OW  424   0.103   1.803   0.970
  128SOL    HW1  425   0.055   1.737   0.913
  128SOL    HW2  426   0.193   1.823   0.931
  129SOL     OW  427   0.496   1.574   0.903
  129SOL    HW1  428   0.566   1.639   0.933
  129SOL    HW2  429   0.539   1.505   0.844
  130SOL     OW  430   0.985   0.795   1.227
  130SOL    HW1  431   1.043   0.769   1.305
  130SOL    HW2  432   0.894   0.757   1.239
  131SOL     OW  433   0.045   0.555   1.108
  131SOL    HW1  434   0.139   0.537   1.077
  131SOL    HW2  435   0.039   0.543   1.207
  132SOL     OW  436   0.193   0.519   1.722
  132SOL    HW1  437   0.267   0.485   1.664
  132SOL    HW2  438   0.155   0.603   1.682
  133SOL     OW  439   1.380   0.942   1.665
  133SOL    HW1  440   1.406   1.037   1.683
  133SOL    HW2  441   1.380   0.926   1.566
  134SOL     OW  442   0.820   0.579   0.348
  134SOL    HW1  443   0.827   0.494   0.295
  134SOL    HW2  444   0.735   0.626   0.323
  135SOL     OW  445   1.644   0.604   1.187
  135SOL    HW1  446   1.624   0.545   1.265
  135SOL    HW2  447   1.735   0.582   1.150
  136SOL     OW  448   0.286   1.559   1.750
  136SOL    HW1  449   0.224   1.625   1.793
  136SOL    HW2  450   0.256   1.466   1.770
  137SOL     OW  451   0.694   0.457   1.261
  137SOL    HW1  452   0.647   0.374   1.231
  137SOL    HW2  453   0.698   0.523   1.186
  138SOL     OW  454   0.941   1.702   1.464
  138SOL    HW1  455   0.903   1.647   1.389
  138SOL    HW2  456   0.917   1.798   1.450
  139SOL     OW  457   0.450   0.496   0.202
  139SOL    HW1  458   0.518   0.566   0.223
  139SOL    HW2  459   0.361   0.539   0.188
  140SOL     OW  460   0.160   1.141   1.465
  140SOL    HW1  461   0.144   1.096   1.554
  140SOL    HW2  462   0.170   1.071   1.394
  141SOL     OW  463   1.302   1.026   1.219
  141SOL    HW1  464   1.338   0.968   1.147
  141SOL    HW2  465   1.234   1.089   1.181
  142SOL     OW  466   1.306   0.852   0.309
  142SOL    HW1  467   1.228   0.823   0.365
  142SOL    HW2  468   1.285   0.838   0.212
  143SOL     OW  469   1.737   1.766   1.116
  143SOL    HW1  470   1.822   1.782   1.066
  143SOL    HW2  471   1.725   1.668   1.133
  144SOL     OW  472   1.237   1.741   1.083
  144SOL    HW1  473   1.324   1.768   1.044
  144SOL    HW2  474   1.249   1.660   1.140
  145SOL     OW  475   0.093   1.249   1.026
  145SOL    HW1  476   0.076   1.262   1.123
  145SOL    HW2  477   0.010   1.269   0.974
  146SOL     OW  478   0.694   1.671   1.725
  146SOL    HW1  479   0.625   1.744   1.728
  146SOL    HW2  480   0.744   1.677   1.638
  147SOL     OW  481   0.874   0.082   0.148
  147SOL    HW1  482   0.931   0.067   0.068
  147SOL    HW2  483   0.907   0.025   0.224
  148SOL     OW  484   1.710   0.140   0.501
  148SOL    HW1  485   1.784   0.142   0.433
  148SOL    HW2  486   1.724   0.064   0.563
  149SOL     OW  487   1.392   1.571   0.482
  149SOL    HW1  488   1.458   1.601   0.413
  149SOL    HW2  489   1.340   1.649   0.516
  150SOL     OW  490   0.126   1.792   1.845
  150SOL    HW1  491   0.078   1.720   1.895
  150SOL    HW2  492   0.186   1.842   1.907
  151SOL     OW  493   1.280   0.925   0.665
  151SOL    HW1  494   1.355   0.860   0.679
  151SOL    HW2  495   1.313   1.003   0.614
  152SOL     OW  496   0.805   1.273   1.430
  152SOL    HW1  497   0.785   1.313   1.519
  152SOL    HW2  498   0.728   1.289   1.368
  153SOL     OW  499   0.668   1.609   0.161
  153SOL    HW1  500   0.678   1.633   0.065
  153SOL    HW2  501   0.612   1.527   0.170
  154SOL     OW  502   1.848   0.156   0.964
  154SOL    HW1  503   1.856   0.068   0.918
  154SOL    HW2  504   1.762   0.200   0.936
  155SOL     OW  505   0.267   0.332   0.740
  155SOL    HW1  506   0.174   0.363   0.722
  155SOL    HW2  507   0.273   0.301   0.835
  156SOL     OW  508   1.208   1.602   0.036
  156SOL    HW1  509   1.199   1.508   0.071
  156SOL    HW2  510   1.155   1.611   2.951
  157SOL     OW  511   0.823   1.008   1.372
  157SOL    HW1  512   0.874   0.997   1.286
  157SOL    HW2  513   0.821   1.105   1.397
  158SOL     OW  514   0.924   0.930   0.304
  158SOL    HW1  515   0.990   0.968   0.239
  158SOL    HW2  516   0.969   0.858   0.358
  159SOL     OW  517   1.485   1.602   0.051
  159SOL    HW1  518   1.386   1.608   0.057
  159SOL    HW2  519   1.515   1.644   2.965
  160SOL     OW  520   0.372   1.304   1.487
  160SOL    HW1  521   0.359   1.388   1.434
  160SOL    HW2  522   0.293   1.244   1.475
  161SOL     OW  523   1.051   1.105   0.709
  161SOL    HW1  524   0.977   1.054   0.753
  161SOL    HW2  525   1.118   1.040   0.672
  162SOL     OW  526   1.019   0.243   0.966
  162SOL    HW1  527   1.010   0.192   0.880
  162SOL    HW2  528   1.022   0.178   1.042
  163SOL     OW  529   0.603   1.490   0.483
  163SOL    HW1  530   0.646   1.435   0.412
  163SOL    HW2  531   0.535   1.550   0.441
  164SOL     OW  532   1.725   0.391   1.378
  164SOL    HW1  533   1.797   0.460   1.376
  164SOL    HW2  534   1.748   0.316   1.316
  165SOL     OW  535   0.266   1.334   0.297
  165SOL    HW1  536   0.175   1.336   0.255
  165SOL    HW2  537   0.263   1.383   0.384
  166SOL     OW  538   0.127   1.017   1.711
  166SOL    HW1  539   0.046   0.977   1.754
  166SOL    HW2  540   0.209   0.978   1.752
  167SOL     OW  541   0.667   0.213   1.493
  167SOL    HW1  542   0.751   0.180   1.449
  167SOL    HW2  543   0.685   0.230   1.590
  168SOL     OW  544   0.068   0.316   0.055
  168SOL    HW1  545   2.972   0.333   0.032
  168SOL    HW2  546   0.123   0.395   0.028
  169SOL     OW  547   1.429   0.864   1.402
  169SOL    HW1  548   1.371   0.921   1.342
  169SOL    HW2  549   1.522   0.864   1.367
  170SOL     OW  550   0.035   0.181   0.287
  170SOL    HW1  551   0.035   0.241   0.208
  170SOL    HW2  552   0.127   0.145   0.302
  171SOL     OW  553   1.183   1.348   0.127
  171SOL    HW1  554   1.084   1.339   0.111
  171SOL    HW2  555   1.202   1.338   0.225
  172SOL     OW  556   0.620   0.831   1.432
  172SOL    HW1  557   0.676   0.913   1.417
  172SOL    HW2  558   0.679   0.752   1.443
  173SOL     OW  559   1.495   1.773   0.982
  173SOL    HW1  560   1.508   1.829   0.901
  173SOL    HW2  561   1.580   1.771   1.035
  174SOL     OW  562   0.717   0.565   1.708
  174SOL    HW1  563   0.758   0.637   1.765
  174SOL    HW2  564   0.755   0.476   1.734
  175SOL     OW  565   0.387   1.735   1.565
  175SOL    HW1  566   0.299   1.781   1.549
  175SOL    HW2  567   0.371   1.651   1.616
  176SOL     OW  568   1.671   0.880   1.255
  176SOL    HW1  569   1.663   0.787   1.218
  176SOL    HW2  570   1.659   0.947   1.182
  177SOL     OW  571   1.228   0.316   0.457
  177SOL    HW1  572   1.291   0.238   0.452
  177SOL    HW2  573   1.250   0.371   0.537
  178SOL     OW  574   0.592   0.740   0.663
  178SOL    HW1  575   0.633   0.831   0.656
  178SOL    HW2  576   0.516   0.732   0.598
  179SOL     OW  577   1.761   0.354   1.645
  179SOL    HW1  578   1.745   0.377   1.550
  179SOL    HW2  579   1.677   0.317   1.686
  180SOL     OW  580   1.749   0.930   1.511
  180SOL    HW1  581   1.766   1.026   1.534
  180SOL    HW2  582   1.730   0.921   1.414
  181SOL     OW  583   0.908   1.389   0.062
  181SOL    HW1  584   0.836   1.381   0.131
  181SOL    HW2  585   0.867   1.410   2.973
  182SOL     OW  586   0.661   1.793   0.949
  182SOL    HW1  587   0.635   1.885   0.922
  182SOL    HW2  588   0.759   1.779   0.934
  183SOL     OW  589   0.868   0.966   0.857
  183SOL    HW1  590   0.920   0.891   0.896
  183SOL    HW2  591   0.829   1.022   0.931
  184SOL     OW  592   1.098   1.018   0.100
  184SOL    HW1  593   1.060   1.062   0.019
  184SOL    HW2  594   1.169   0.953   0.072
  185SOL     OW  595   1.851   1.558   0.853
  185SOL    HW1  596   1.778   1.544   0.785
  185SOL    HW2  597   1.871   1.471   0.898
  186SOL     OW  598   0.222   1.301   1.852
  186SOL    HW1  599   0.178   1.216   1.825
  186SOL    HW2  600   0.213   1.312   1.951
  187SOL     OW  601   0.131   1.249   0.660
  187SOL    HW1  602   0.078   1.185   0.716
  187SOL    HW2  603   0.184   1.199   0.592
  188SOL     OW  604   0.678   1.407   1.630
  188SOL    HW1  605   0.598   1.354   1.658
  188SOL    HW2  606   0.673   1.499   1.670
  189SOL     OW  607   1.790   0.172   1.232
  189SOL    HW1  608   1.843   0.102   1.280
  189SOL    HW2  609   1.821   0.177   1.137
  190SOL     OW  610   0.461   0.429   0.547
  190SOL    HW1  611   0.457   0.363   0.473
  190SOL    HW2  612   0.405   0.397   0.623
  191SOL     OW  613   1.670   1.500   1.120
  191SOL    HW1  614   1.639   1.459   1.034
  191SOL    HW2  615   1.751   1.451   1.153
  192SOL     OW  616   0.334   0.553   1.289
  192SOL    HW1  617   0.393   0.500   1.349
  192SOL    HW2  618   0.351   0.526   1.194
  193SOL     OW  619   0.826   1.579   0.680
  193SOL    HW1  620   0.821   1.630   0.594
  193SOL    HW2  621   0.746   1.519   0.687
  194SOL     OW  622   1.426   0.217   1.127
  194SOL    HW1  623   1.451   0.138   1.183
  194SOL    HW2  624   1.375   0.282   1.183
  195SOL     OW  625   1.009   0.028   1.147
  195SOL    HW1  626   0.923   2.999   1.105
  195SOL    HW2  627   1.078   2.956   1.133
  196SOL     OW  628   0.768   1.327   0.314
  196SOL    HW1  629   0.733   1.235   0.331
  196SOL    HW2  630   0.856   1.339   0.359
  197SOL     OW  631   0.626   1.560   1.287
  197SOL    HW1  632   0.624   1.646   1.338
  197SOL    HW2  633   0.715   1.547   1.244
  198SOL     OW  634   1.358   0.056   0.166
  198SOL    HW1  635   1.420   2.979   0.152
  198SOL    HW2  636   1.264   0.026   0.149
  199SOL     OW  637   1.295   0.462   0.683
  199SOL    HW1  638   1.239   0.544   0.687
  199SOL    HW2  639   1.294   0.416   0.772
  200SOL     OW  640   1.603   0.232   0.887
  200SOL    HW1  641   1.524   0.230   0.949
  200SOL    HW2  642   1.596   0.312   0.828
  201SOL     OW  643   0.071   1.091   0.340
  201SOL    HW1  644   0.152   1.047   0.304
  201SOL    HW2  645   2.994   1.027   0.338
  202SOL     OW  646   0.881   1.656   0.345
  202SOL    HW1  647   0.809   1.630   0.281
  202SOL    HW2  648   0.850   1.733   0.400
  203SOL     OW  649   0.241   0.643   1.975
  203SOL    HW1  650   0.169   0.606   2.035
  203SOL    HW2  651   0.228   0.608   1.882
  204SOL     OW  652   0.234   0.250   2.850
  204SOL    HW1  653   0.251   0.228   2.946
  204SOL    HW2  654   0.136   0.242   2.831
  205SOL     OW  655   0.009   0.392   2.524
  205SOL    HW1  656   2.920   0.430   2.549
  205SOL    HW2  657   2.995   0.316   2.460
  206SOL     OW  658   1.556   1.509   2.569
  206SOL    HW1  659   1.511   1.489   2.655
  206SOL    HW2  660   1.488   1.518   2.496
  207SOL     OW  661   1.134   0.701   2.562
  207SOL    HW1  662   1.186   0.784   2.544
  207SOL    HW2  663   1.082   0.712   2.647
  208SOL     OW  664   1.763   0.605   2.090
  208SOL    HW1  665   1.745   0.600   1.992
  208SOL    HW2  666   1.730   0.522   2.135
  209SOL     OW  667   0.748   1.146   2.893
  209SOL    HW1  668   0.678   1.185   2.953
  209SOL    HW2  669   0.800   1.219   2.849
  210SOL     OW  670   0.683   1.006   2.512
  210SOL    HW1  671   0.754   0.991   2.581
  210SOL    HW2  672   0.607   1.057   2.553
  211SOL     OW  673   0.332   1.451   2.930
  211SOL    HW1  674   0.276   1.381   2.886
  211SOL    HW2  675   0.391   1.494   2.862
  212SOL     OW  676   1.616   0.458   2.596
  212SOL    HW1  677   1.540   0.477   2.533
  212SOL    HW2  678   1.613   0.522   2.673
  213SOL     OW  679   0.221   1.713   2.347
  213SOL    HW1  680   0.240   1.799   2.393
  213SOL    HW2  681   0.282   1.704   2.267
  214SOL     OW  682   0.254   1.448   2.388
  214SOL    HW1  683   0.223   1.543   2.386
  214SOL    HW2  684   0.193   1.394   2.446
  215SOL     OW  685   0.242   1.085   2.753
  215SOL    HW1  686   0.260   0.995   2.793
  215SOL    HW2  687   0.191   1.141   2.819
  216SOL     OW  688   0.586   0.983   1.997
  216SOL    HW1  689   0.630   1.034   1.923
  216SOL    HW2  690   0.628   1.010   2.084
  217SOL     OW  691   0.124   0.627   2.436
  217SOL    HW1  692   0.084   0.543   2.472
  217SOL    HW2  693   0.121   0.699   2.507
  218SOL     OW  694   1.844   1.764   2.203
  218SOL    HW1  695   1.905   1.731   2.275
  218SOL    HW2  696   1.867   1.858   2.180
  219SOL     OW  697   0.026   1.596   2.000
  219SOL    HW1  698   0.021   1.496   2.007
  219SOL    HW2  699   2.973   1.637   2.074
  220SOL     OW  700   1.690   0.920   2.501
  220SOL    HW1  701   1.777   0.873   2.485
  220SOL    HW2  702   1.666   0.973   2.420
  221SOL     OW  703   1.647   1.108   2.293
  221SOL    HW1  704   1.734   1.111   2.244
  221SOL    HW2  705   1.649   1.172   2.370
  222SOL     OW  706   0.607   1.382   2.593
  222SOL    HW1  707   0.559   1.296   2.605
  222SOL    HW2  708   0.595   1.414   2.499
  223SOL     OW  709   0.819   0.016   2.374
  223SOL    HW1  710   0.858   0.105   2.350
  223SOL    HW2  711   0.720   0.018   2.359
  224SOL     OW  712   1.533   0.995   2.060
  224SOL    HW1  713   1.459   0.933   2.087
  224SOL    HW2  714   1.575   1.034   2.143
  225SOL     OW  715   1.430   1.422   2.798
  225SOL    HW1  716   1.421   1.430   2.897
  225SOL    HW2  717   1.437   1.326   2.773
  226SOL     OW  718   1.657   1.736   2.444
  226SOL    HW1  719   1.634   1.712   2.350
  226SOL    HW2  720   1.632   1.661   2.505
  227SOL     OW  721   0.597   0.724   2.128
  227SOL    HW1  722   0.606   0.806   2.071
  227SOL    HW2  723   0.528   0.739   2.198
  228SOL     OW  724   1.294   0.337   2.809
  228SOL    HW1  725   1.196   0.323   2.797
  228SOL    HW2  726   1.322   0.303   2.898
  229SOL     OW  727   1.588   1.671   2.185
  229SOL    HW1  728   1.681   1.705   2.177
  229SOL    HW2  729   1.551   1.654   2.094
  230SOL     OW  730   1.047   0.698   2.290
  230SOL    HW1  731   1.067   0.692   2.388
  230SOL    HW2  732   0.962   0.649   2.270
  231SOL     OW  733   0.107   0.817   2.625
  231SOL    HW1  734   0.189   0.814   2.682
  231SOL    HW2  735   0.040   0.878   2.667
  232SOL     OW  736   0.872   0.358   2.049
  232SOL    HW1  737   0.930   0.421   1.997
  232SOL    HW2  738   0.907   0.265   2.039
  233SOL     OW  739   1.377   1.144   2.401
  233SOL    HW1  740   1.459   1.124   2.347
  233SOL    HW2  741   1.320   1.209   2.351
  234SOL     OW  742   0.559   0.205   2.839
  234SOL    HW1  743   0.501   0.278   2.874
  234SOL    HW2  744   0.583   0.224   2.744
  235SOL     OW  745   1.003   1.444   2.333
  235SOL    HW1  746   0.963   1.522   2.283
  235SOL    HW2  747   0.991   1.458   2.431
  236SOL     OW  748   0.356   1.804   2.716
  236SOL    HW1  749   0.402   1.716   2.730
  236SOL    HW2  750   0.418   1.878   2.741
  237SOL     OW  751   1.805   1.060   2.718
  237SOL    HW1  752   1.748   1.037   2.639
  237SOL    HW2  753   1.749   1.063   2.801
  238SOL     OW  754   0.316   0.948   2.108
  238SOL    HW1  755   0.403   0.978   2.069
  238SOL    HW2  756   0.293   0.858   2.069
  239SOL     OW  757   1.476   0.748   2.587
  239SOL    HW1  758   1.472   0.690   2.669
  239SOL    HW2  759   1.561   0.802   2.589
  240SOL     OW  760   1.117   1.779   2.092
  240SOL    HW1  761   1.043   1.739   2.146
  240SOL    HW2  762   1.152   1.710   2.029
  241SOL     OW  763   1.625   1.375   1.958
  241SOL    HW1  764   1.578   1.463   1.963
  241SOL    HW2  765   1.561   1.305   1.925
  242SOL     OW  766   0.467   1.738   2.180
  242SOL    HW1  767   0.505   1.799   2.251
  242SOL    HW2  768   0.540   1.704   2.122
  243SOL     OW  769   1.411   0.111   2.294
  243SOL    HW1  770   1.392   0.076   2.202
  243SOL    HW2  771   1.508   0.130   2.303
  244SOL     OW  772   0.265   1.799   0.098
  244SOL    HW1  773   0.307   1.730   0.157
  244SOL    HW2  774   0.199   1.755   0.037
  245SOL     OW  775   0.943   1.691   2.754
  245SOL    HW1  776   1.029   1.641   2.760
  245SOL    HW2  777   0.884   1.649   2.685
  246SOL     OW  778   0.393   0.688   2.339
  246SOL    HW1  779   0.428   0.596   2.353
  246SOL    HW2  780   0.296   0.691   2.361
  247SOL     OW  781   0.627   0.119   1.975
  247SOL    HW1  782   0.721   0.084   1.975
  247SOL    HW2  783   0.585   0.101   1.886
  248SOL     OW  784   0.807   1.394   2.790
  248SOL    HW1  785   0.899   1.388   2.751
  248SOL    HW2  786   0.739   1.391   2.717
  249SOL     OW  787   0.920   0.517   2.757
  249SOL    HW1  788   0.900   0.500   2.661
  249SOL    HW2  789   0.953   0.433   2.800
  250SOL     OW  790   0.543   0.060   2.367
  250SOL    HW1  791   0.452   0.042   2.406
  250SOL    HW2  792   0.536   0.133   2.299
  251SOL     OW  793   1.424   1.196   1.897
  251SOL    HW1  794   1.459   1.119   1.950
  251SOL    HW2  795   1.335   1.224   1.933
  252SOL     OW  796   0.290   0.031   2.055
  252SOL    HW1  797   0.336   0.112   2.020
  252SOL    HW2  798   0.357   2.966   2.091
  253SOL     OW  799   0.942   0.255   2.322
  253SOL    HW1  800   0.907   0.304   2.242
  253SOL    HW2  801   1.042   0.266   2.327
  254SOL     OW  802   1.219   1.585   2.674
  254SOL    HW1  803   1.242   1.645   2.597
  254SOL    HW2  804   1.303   1.556   2.720
  255SOL     OW  805   0.461   1.146   2.600
  255SOL    HW1  806   0.388   1.129   2.666
  255SOL    HW2  807   0.426   1.132   2.507
  256SOL     OW  808   1.269   1.794   2.467
  256SOL    HW1  809   1.318   1.857   2.406
  256SOL    HW2  810   1.198   1.845   2.516
  257SOL     OW  811   1.020   0.548   1.889
  257SOL    HW1  812   0.978   0.636   1.865
  257SOL    HW2  813   1.091   0.563   1.958
  258SOL     OW  814   0.870   0.467   2.496
  258SOL    HW1  815   0.822   0.523   2.429
  258SOL    HW2  816   0.891   0.377   2.457
  259SOL     OW  817   0.996   0.050   2.622
  259SOL    HW1  818   0.961   0.063   2.529
  259SOL    HW2  819   0.973   2.958   2.654
  260SOL     OW  820   1.440   1.161   2.711
  260SOL    HW1  821   1.361   1.100   2.709
  260SOL    HW2  822   1.472   1.176   2.617
  261SOL     OW  823   1.487   0.584   2.817
  261SOL    HW1  824   1.419   0.511   2.819
  261SOL    HW2  825   1.508   0.613   2.911
  262SOL     OW  826   1.849   0.815   2.243
  262SOL    HW1  827   1.907   0.763   2.306
  262SOL    HW2  828   1.814   0.754   2.172
  263SOL     OW  829   0.490   1.415   2.024
  263SOL    HW1  830   0.409   1.387   2.076
  263SOL    HW2  831   0.475   1.397   1.927
  264SOL     OW  832   1.670   1.267   2.508
  264SOL    HW1  833   1.769   1.268   2.520
  264SOL    HW2  834   1.633   1.357   2.530
  265SOL     OW  835   1.391   0.573   1.934
  265SOL    HW1  836   1.328   0.554   2.009
  265SOL    HW2  837   1.483   0.540   1.959
  266SOL     OW  838   0.527   0.265   2.181
  266SOL    HW1  839   0.568   0.207   2.110
  266SOL    HW2  840   0.504   0.354   2.142
  267SOL     OW  841   1.651   1.106   2.932
  267SOL    HW1  842   1.656   1.176   0.003
  267SOL    HW2  843   1.562   1.112   2.886
  268SOL     OW  844   0.709   1.057   2.234
  268SOL    HW1  845   0.694   1.044   2.332
  268SOL    HW2  846   0.789   1.004   2.206
  269SOL     OW  847   0.350   1.111   2.352
  269SOL    HW1  848   0.355   1.190   2.290
  269SOL    HW2  849   0.354   1.026   2.299
  270SOL     OW  850   0.543   0.552   2.732
  270SOL    HW1  851   0.563   0.602   2.647
  270SOL    HW2  852   0.617   0.567   2.798
  271SOL     OW  853   1.246   1.349   2.259
  271SOL    HW1  854   1.307   1.423   2.286
  271SOL    HW2  855   1.153   1.370   2.288
  272SOL     OW  856   1.582   0.626   2.340
  272SOL    HW1  857   1.532   0.681   2.407
  272SOL    HW2  858   1.627   0.685   2.274
  273SOL     OW  859   0.579   0.873   2.880
  273SOL    HW1  860   0.622   0.957   2.849
  273SOL    HW2  861   0.552   0.883   2.976
  274SOL     OW  862   1.206   0.533   2.133
  274SOL    HW1  863   1.214   0.448   2.183
  274SOL    HW2  864   1.160   0.601   2.190
  275SOL     OW  865   0.731   0.641   2.915
  275SOL    HW1  866   0.801   0.611   2.851
  275SOL    HW2  867   0.693   0.728   2.884
  276SOL     OW  868   0.309   0.072   2.508
  276SOL    HW1  869   0.304   0.165   2.546
  276SOL    HW2  870   0.281   0.006   2.577
  277SOL     OW  871   1.614   0.378   2.231
  277SOL    HW1  872   1.652   0.309   2.292
  277SOL    HW2  873   1.591   0.460   2.284
  278SOL     OW  874   1.017   0.759   2.816
  278SOL    HW1  875   1.021   0.772   2.915
  278SOL    HW2  876   0.989   0.666   2.796
  279SOL     OW  877   1.528   0.270   2.000
  279SOL    HW1  878   1.460   0.201   2.025
  279SOL    HW2  879   1.565   0.312   2.083
  280SOL     OW  880   1.295   0.826   1.895
  280SOL    HW1  881   1.335   0.735   1.902
  280SOL    HW2  882   1.323   0.869   1.810
  281SOL     OW  883   1.051   1.350   2.692
  281SOL    HW1  884   1.063   1.262   2.645
  281SOL    HW2  885   1.130   1.408   2.675
  282SOL     OW  886   0.313   0.811   2.809
  282SOL    HW1  887   0.411   0.832   2.808
  282SOL    HW2  888   0.300   0.718   2.843
  283SOL     OW  889   0.318   0.520   2.874
  283SOL    HW1  890   0.283   0.429   2.853
  283SOL    HW2  891   0.401   0.537   2.820
  284SOL     OW  892   2.993   1.318   2.043
  284SOL    HW1  893   2.899   1.325   2.009
  284SOL    HW2  894   0.004   1.233   2.093
  285SOL     OW  895   0.097   1.818   2.810
  285SOL    HW1  896   0.055   1.737   2.769
  285SOL    HW2  897   0.193   1.823   2.782
  286SOL     OW  898   0.504   1.577   2.760
  286SOL    HW1  899   0.574   1.642   2.787
  286SOL    HW2  900   0.544   1.506   2.703
  287SOL     OW  901   0.974   0.751   0.084
  287SOL    HW1  902   1.032   0.755   0.165
  287SOL    HW2  903   0.880   0.773   0.109
  288SOL     OW  904   0.814   0.571   2.217
  288SOL    HW1  905   0.822   0.493   2.154
  288SOL    HW2  906   0.738   0.629   2.188
  289SOL     OW  907   0.694   0.436   0.085
  289SOL    HW1  908   0.596   0.432   0.104
  289SOL    HW2  909   0.713   0.516   0.028
  290SOL     OW  910   0.465   0.497   2.052
  290SOL    HW1  911   0.532   0.568   2.071
  290SOL    HW2  912   0.375   0.538   2.037
  291SOL     OW  913   1.310   0.855   2.167
  291SOL    HW1  914   1.231   0.829   2.222
  291SOL    HW2  915   1.288   0.843   2.070
  292SOL     OW  916   1.739   1.767   2.972
  292SOL    HW1  917   1.814   1.793   2.911
  292SOL    HW2  918   1.767   1.689   0.028
  293SOL     OW  919   0.073   1.251   2.903
  293SOL    HW1  920   0.047   1.276   2.996
  293SOL    HW2  921   0.004   1.283   2.839
  294SOL     OW  922   1.718   0.145   2.360
  294SOL    HW1  923   1.782   0.142   2.284
  294SOL    HW2  924   1.732   0.064   2.418
  295SOL     OW  925   1.391   1.569   2.348
  295SOL    HW1  926   1.459   1.599   2.281
  295SOL    HW2  927   1.338   1.648   2.380
  296SOL     OW  928   1.280   0.927   2.528
  296SOL    HW1  929   1.354   0.861   2.542
  296SOL    HW2  930   1.314   1.004   2.475
  297SOL     OW  931   0.672   1.615   2.016
  297SOL    HW1  932   0.684   1.631   1.918
  297SOL    HW2  933   0.615   1.534   2.030
  298SOL     OW  934   1.852   0.161   2.811
  298SOL    HW1  935   1.855   0.069   2.771
  298SOL    HW2  936   1.763   0.203   2.792
  299SOL     OW  937   0.270   0.332   2.598
  299SOL    HW1  938   0.177   0.366   2.582
  299SOL    HW2  939   0.279   0.300   2.692
  300SOL     OW  940   1.215   1.605   1.906
  300SOL    HW1  941   1.207   1.510   1.935
  300SOL    HW2  942   1.161   1.619   1.824
  301SOL     OW  943   0.917   0.910   2.150
  301SOL    HW1  944   0.981   0.946   2.082
  301SOL    HW2  945   0.962   0.836   2.202
  302SOL     OW  946   1.487   1.627   1.942
  302SOL    HW1  947   1.392   1.615   1.915
  302SOL    HW2  948   1.546   1.630   1.861
  303SOL     OW  949   1.054   1.104   2.574
  303SOL    HW1  950   0.977   1.053   2.613
  303SOL    HW2  951   1.119   1.039   2.534
  304SOL     OW  952   1.024   0.249   2.809
  304SOL    HW1  953   1.014   0.178   2.739
  304SOL    HW2  954   1.050   0.206   2.895
  305SOL     OW  955   0.603   1.488   2.343
  305SOL    HW1  956   0.648   1.434   2.271
  305SOL    HW2  957   0.529   1.541   2.302
  306SOL     OW  958   0.251   1.346   2.144
  306SOL    HW1  959   0.153   1.340   2.123
  306SOL    HW2  960   0.263   1.387   2.234
  307SOL     OW  961   0.099   0.326   1.910
  307SOL    HW1  962   0.012   0.291   1.876
  307SOL    HW2  963   0.119   0.415   1.868
  308SOL     OW  964   0.013   0.215   2.140
  308SOL    HW1  965   0.060   0.266   2.068
  308SOL    HW2  966   0.068   0.135   2.164
  309SOL     OW  967   1.185   1.349   1.988
  309SOL    HW1  968   1.100   1.300   1.967
  309SOL    HW2  969   1.207   1.339   2.085
  310SOL     OW  970   1.508   1.782   2.832
  310SOL    HW1  971   1.515   1.834   2.748
  310SOL    HW2  972   1.594   1.788   2.883
  311SOL     OW  973   1.712   0.847   0.058
  311SOL    HW1  974   1.636   0.811   0.112
  311SOL    HW2  975   1.695   0.942   0.035
  312SOL     OW  976   1.225   0.316   2.320
  312SOL    HW1  977   1.288   0.239   2.315
  312SOL    HW2  978   1.246   0.372   2.400
  313SOL     OW  979   0.590   0.741   2.527
  313SOL    HW1  980   0.633   0.831   2.515
  313SOL    HW2  981   0.516   0.731   2.460
  314SOL     OW  982   0.849   1.360   1.900
  314SOL    HW1  983   0.816   1.380   1.992
  314SOL    HW2  984   0.878   1.445   1.856
  315SOL     OW  985   0.665   1.794   2.822
  315SOL    HW1  986   0.638   1.886   2.791
  315SOL    HW2  987   0.763   1.781   2.804
  316SOL     OW  988   0.863   0.966   2.717
  316SOL    HW1  989   0.916   0.890   2.753
  316SOL    HW2  990   0.829   1.023   2.792
  317SOL     OW  991   1.086   0.989   1.958
  317SOL    HW1  992   1.050   1.037   1.878
  317SOL    HW2  993   1.162   0.931   1.930
  318SOL     OW  994   1.853   1.557   2.713
  318SOL    HW1  995   1.775   1.544   2.652
  318SOL    HW2  996   1.866   1.475   2.769
  319SOL     OW  997   0.132   1.246   2.517
  319SOL    HW1  998   0.092   1.184   2.585
  319SOL    HW2  999   0.194   1.195   2.458
  320SOL     OW 1000   1.806   0.183   0.079
  320SOL    HW1 1001   1.835   0.100   0.126
  320SOL    HW2 1002   1.828   0.176   2.982
  321SOL     OW 1003   0.460   0.432   2.404
  321SOL    HW1 1004   0.460   0.364   2.331
  321SOL    HW2 1005   0.410   0.396   2.483
  322SOL     OW 1006   0.817   1.586   2.539
  322SOL    HW1 1007   0.818   1.630   2.449
  322SOL    HW2 1008   0.741   1.521   2.544
  323SOL     OW 1009   0.773   1.332   2.175
  323SOL    HW1 1010   0.738   1.238   2.180
  323SOL    HW2 1011   0.859   1.337   2.226
  324SOL     OW 1012   1.347   0.045   2.030
  324SOL    HW1 1013   1.419   2.982   2.000
  324SOL    HW2 1014   1.260   2.997   2.033
  325SOL     OW 1015   1.295   0.458   2.549
  325SOL    HW1 1016   1.239   0.541   2.553
  325SOL    HW2 1017   1.294   0.413   2.638
  326SOL     OW 1018   1.599   0.237   2.749
  326SOL    HW1 1019   1.506   0.227   2.784
  326SOL    HW2 1020   1.603   0.315   2.686
  327SOL     OW 1021   0.066   1.079   2.158
  327SOL    HW1 1022   0.158   1.042   2.160
  327SOL    HW2 1023   0.002   1.015   2.201
  328SOL     OW 1024   0.880   1.655   2.207
  328SOL    HW1 1025   0.807   1.630   2.143
  328SOL    HW2 1026   0.852   1.734   2.261
  329SOL     OW 1027   0.240   2.513   0.100
  329SOL    HW1 1028   0.167   2.470   0.154
  329SOL    HW2 1029   0.254   2.460   0.016
  330SOL     OW 1030   0.211   2.137   0.991
  330SOL    HW1 1031   0.246   2.106   1.080
  330SOL    HW2 1032   0.118   2.101   0.978
  331SOL     OW 1033   0.016   2.251   0.644
  331SOL    HW1 1034   2.928   2.291   0.668
  331SOL    HW2 1035   0.002   2.163   0.598
  332SOL     OW 1036   1.134   2.570   0.700
  332SOL    HW1 1037   1.185   2.656   0.689
  332SOL    HW2 1038   1.079   2.574   0.783
  333SOL     OW 1039   1.760   2.454   0.225
  333SOL    HW1 1040   1.748   2.437   0.127
  333SOL    HW2 1041   1.724   2.376   0.277
  334SOL     OW 1042   0.760   0.012   1.029
  334SOL    HW1 1043   0.674   0.041   1.072
  334SOL    HW2 1044   0.785   0.077   0.957
  335SOL     OW 1045   0.868   2.635   1.822
  335SOL    HW1 1046   0.846   2.697   1.898
  335SOL    HW2 1047   0.892   2.689   1.741
  336SOL     OW 1048   0.652   2.851   0.714
  336SOL    HW1 1049   0.751   2.853   0.728
  336SOL    HW2 1050   0.625   2.929   0.657
  337SOL     OW 1051   0.474   2.271   1.486
  337SOL    HW1 1052   0.550   2.205   1.487
  337SOL    HW2 1053   0.388   2.223   1.502
  338SOL     OW 1054   1.614   2.311   0.741
  338SOL    HW1 1055   1.534   2.333   0.685
  338SOL    HW2 1056   1.635   2.388   0.801
  339SOL     OW 1057   0.210   0.317   0.460
  339SOL    HW1 1058   0.229   0.394   0.522
  339SOL    HW2 1059   0.206   0.232   0.512
  340SOL     OW 1060   0.233   2.941   0.876
  340SOL    HW1 1061   0.260   2.855   0.920
  340SOL    HW2 1062   0.205   0.007   0.946
  341SOL     OW 1063   0.618   2.832   0.152
  341SOL    HW1 1064   0.595   2.927   0.130
  341SOL    HW2 1065   0.687   2.830   0.224
  342SOL     OW 1066   1.623   2.021   1.469
  342SOL    HW1 1067   1.603   2.101   1.412
  342SOL    HW2 1068   1.589   2.037   1.562
  343SOL     OW 1069   0.113   2.500   0.565
  343SOL    HW1 1070   0.092   2.407   0.598
  343SOL    HW2 1071   0.114   2.563   0.642
  344SOL     OW 1072   1.702   2.805   0.627
  344SOL    HW1 1073   1.783   2.748   0.638
  344SOL    HW2 1074   1.686   2.821   0.529
  345SOL     OW 1075   0.130   2.609   1.589
  345SOL    HW1 1076   0.230   2.616   1.589
  345SOL    HW2 1077   0.090   2.697   1.611
  346SOL     OW 1078   0.659   0.244   0.686
  346SOL    HW1 1079   0.594   0.174   0.716
  346SOL    HW2 1080   0.612   0.308   0.624
  347SOL     OW 1081   1.307   0.050   1.445
  347SOL    HW1 1082   1.323   2.986   1.370
  347SOL    HW2 1083   1.392   0.100   1.465
  348SOL     OW 1084   0.813   1.865   0.506
  348SOL    HW1 1085   0.858   1.953   0.490
  348SOL    HW2 1086   0.714   1.880   0.515
  349SOL     OW 1087   0.191   2.835   1.258
  349SOL    HW1 1088   0.279   2.787   1.251
  349SOL    HW2 1089   0.117   2.775   1.230
  350SOL     OW 1090   1.521   2.845   0.209
  350SOL    HW1 1091   1.450   2.796   0.259
  350SOL    HW2 1092   1.598   2.864   0.271
  351SOL     OW 1093   0.339   2.112   1.814
  351SOL    HW1 1094   0.391   2.196   1.829
  351SOL    HW2 1095   0.247   2.122   1.851
  352SOL     OW 1096   0.593   2.583   0.274
  352SOL    HW1 1097   0.596   2.665   0.217
  352SOL    HW2 1098   0.522   2.592   0.343
  353SOL     OW 1099   1.278   2.211   0.933
  353SOL    HW1 1100   1.184   2.177   0.938
  353SOL    HW2 1101   1.336   2.159   0.996
  354SOL     OW 1102   0.792   2.474   1.454
  354SOL    HW1 1103   0.765   2.454   1.548
  354SOL    HW2 1104   0.749   2.409   1.392
  355SOL     OW 1105   1.392   2.332   1.679
  355SOL    HW1 1106   1.390   2.382   1.766
  355SOL    HW2 1107   1.462   2.261   1.683
  356SOL     OW 1108   0.958   2.757   1.591
  356SOL    HW1 1109   1.015   2.684   1.553
  356SOL    HW2 1110   0.901   2.796   1.519
  357SOL     OW 1111   0.993   2.271   1.235
  357SOL    HW1 1112   0.908   2.298   1.280
  357SOL    HW2 1113   0.972   2.221   1.152
  358SOL     OW 1114   1.050   2.567   0.423
  358SOL    HW1 1115   1.068   2.561   0.522
  358SOL    HW2 1116   0.965   2.518   0.402
  359SOL     OW 1117   0.105   2.671   0.769
  359SOL    HW1 1118   0.185   2.674   0.828
  359SOL    HW2 1119   0.042   2.744   0.794
  360SOL     OW 1120   0.926   2.194   0.223
  360SOL    HW1 1121   0.940   2.259   0.149
  360SOL    HW2 1122   0.897   2.106   0.185
  361SOL     OW 1123   1.706   2.437   1.825
  361SOL    HW1 1124   1.669   2.516   1.778
  361SOL    HW2 1125   1.736   2.369   1.758
  362SOL     OW 1126   0.545   2.043   0.895
  362SOL    HW1 1127   0.551   2.070   0.991
  362SOL    HW2 1128   0.550   2.124   0.837
  363SOL     OW 1129   1.795   2.905   0.867
  363SOL    HW1 1130   1.742   2.887   0.784
  363SOL    HW2 1131   1.732   2.914   0.945
  364SOL     OW 1132   1.485   2.602   0.726
  364SOL    HW1 1133   1.463   2.549   0.807
  364SOL    HW2 1134   1.561   2.664   0.747
  365SOL     OW 1135   0.233   2.166   1.508
  365SOL    HW1 1136   0.153   2.216   1.474
  365SOL    HW2 1137   0.204   2.082   1.554
  366SOL     OW 1138   1.403   1.967   0.429
  366SOL    HW1 1139   1.391   1.945   0.332
  366SOL    HW2 1140   1.501   1.979   0.449
  367SOL     OW 1141   0.389   2.551   0.475
  367SOL    HW1 1142   0.414   2.455   0.486
  367SOL    HW2 1143   0.292   2.563   0.495
  368SOL     OW 1144   1.536   2.086   1.728
  368SOL    HW1 1145   1.544   2.108   1.825
  368SOL    HW2 1146   1.461   2.021   1.714
  369SOL     OW 1147   0.628   1.982   0.119
  369SOL    HW1 1148   0.726   1.963   0.121
  369SOL    HW2 1149   0.586   1.932   0.043
  370SOL     OW 1150   0.766   2.139   1.754
  370SOL    HW1 1151   0.844   2.076   1.756
  370SOL    HW2 1152   0.709   2.124   1.836
  371SOL     OW 1153   1.341   2.451   1.435
  371SOL    HW1 1154   1.371   2.414   1.523
  371SOL    HW2 1155   1.377   2.543   1.422
  372SOL     OW 1156   0.927   2.370   0.900
  372SOL    HW1 1157   0.902   2.362   0.803
  372SOL    HW2 1158   0.961   2.281   0.932
  373SOL     OW 1159   0.545   1.924   0.502
  373SOL    HW1 1160   0.462   1.924   0.557
  373SOL    HW2 1161   0.545   2.004   0.442
  374SOL     OW 1162   0.947   2.105   0.474
  374SOL    HW1 1163   0.918   2.143   0.386
  374SOL    HW2 1164   1.046   2.116   0.484
  375SOL     OW 1165   1.078   2.547   1.458
  375SOL    HW1 1166   1.000   2.485   1.466
  375SOL    HW2 1167   1.163   2.494   1.453
  376SOL     OW 1168   1.049   2.355   0.032
  376SOL    HW1 1169   1.000   2.441   0.018
  376SOL    HW2 1170   1.115   2.366   0.107
  377SOL     OW 1171   0.092   2.414   1.402
  377SOL    HW1 1172   0.179   2.419   1.352
  377SOL    HW2 1173   0.088   2.489   1.468
  378SOL     OW 1174   0.561   2.087   1.167
  378SOL    HW1 1175   0.605   2.003   1.199
  378SOL    HW2 1176   0.465   2.087   1.194
  379SOL     OW 1177   0.869   2.323   0.638
  379SOL    HW1 1178   0.817   2.383   0.577
  379SOL    HW2 1179   0.893   2.239   0.589
  380SOL     OW 1180   1.016   1.913   0.750
  380SOL    HW1 1181   0.955   1.914   0.671
  380SOL    HW2 1182   0.993   1.837   0.810
  381SOL     OW 1183   1.429   2.990   0.875
  381SOL    HW1 1184   1.360   2.931   0.832
  381SOL    HW2 1185   1.454   0.063   0.811
  382SOL     OW 1186   1.467   2.464   0.980
  382SOL    HW1 1187   1.413   2.380   0.980
  382SOL    HW2 1188   1.532   2.462   1.056
  383SOL     OW 1189   1.829   2.661   0.389
  383SOL    HW1 1190   1.894   2.616   0.450
  383SOL    HW2 1191   1.811   2.604   0.310
  384SOL     OW 1192   1.411   2.435   0.102
  384SOL    HW1 1193   1.336   2.429   0.168
  384SOL    HW2 1194   1.463   2.350   0.102
  385SOL     OW 1195   0.521   2.126   0.323
  385SOL    HW1 1196   0.561   2.070   0.250
  385SOL    HW2 1197   0.497   2.216   0.287
  386SOL     OW 1198   1.782   0.078   1.589
  386SOL    HW1 1199   1.873   0.043   1.568
  386SOL    HW2 1200   1.790   0.167   1.633
  387SOL     OW 1201   1.625   2.955   1.076
  387SOL    HW1 1202   1.648   0.040   1.121
  387SOL    HW2 1203   1.548   2.970   1.014
  388SOL     OW 1204   0.920   1.966   1.395
  388SOL    HW1 1205   0.940   1.940   1.300
  388SOL    HW2 1206   0.999   2.011   1.435
  389SOL     OW 1207   0.416   2.678   1.254
  389SOL    HW1 1208   0.491   2.689   1.321
  389SOL    HW2 1209   0.378   2.586   1.261
  390SOL     OW 1210   1.265   2.238   1.278
  390SOL    HW1 1211   1.302   2.318   1.325
  390SOL    HW2 1212   1.171   2.258   1.249
  391SOL     OW 1213   0.555   2.403   0.863
  391SOL    HW1 1214   0.569   2.459   0.782
  391SOL    HW2 1215   0.621   2.428   0.933
  392SOL     OW 1216   1.578   2.486   0.476
  392SOL    HW1 1217   1.535   2.539   0.549
  392SOL    HW2 1218   1.639   2.545   0.424
  393SOL     OW 1219   0.413   2.598   1.602
  393SOL    HW1 1220   0.472   2.650   1.541
  393SOL    HW2 1221   0.457   2.511   1.624
  394SOL     OW 1222   1.599   2.639   1.679
  394SOL    HW1 1223   1.507   2.679   1.677
  394SOL    HW2 1224   1.656   2.683   1.610
  395SOL     OW 1225   0.996   1.989   1.754
  395SOL    HW1 1226   1.048   2.072   1.733
  395SOL    HW2 1227   1.053   1.909   1.737
  396SOL     OW 1228   0.497   1.902   1.746
  396SOL    HW1 1229   0.456   1.842   1.677
  396SOL    HW2 1230   0.437   1.980   1.762
  397SOL     OW 1231   0.593   2.727   1.040
  397SOL    HW1 1232   0.598   2.820   1.004
  397SOL    HW2 1233   0.523   2.723   1.112
  398SOL     OW 1234   1.348   2.711   1.032
  398SOL    HW1 1235   1.274   2.710   0.965
  398SOL    HW2 1236   1.397   2.624   1.029
  399SOL     OW 1237   1.201   2.393   0.272
  399SOL    HW1 1238   1.212   2.305   0.319
  399SOL    HW2 1239   1.153   2.457   0.332
  400SOL     OW 1240   0.300   2.064   1.243
  400SOL    HW1 1241   0.281   2.100   1.334
  400SOL    HW2 1242   0.286   1.965   1.242
  401SOL     OW 1243   0.053   0.169   1.269
  401SOL    HW1 1244   0.083   0.131   1.356
  401SOL    HW2 1245   0.002   0.253   1.285
  402SOL     OW 1246   0.731   2.493   1.061
  402SOL    HW1 1247   0.802   2.472   0.994
  402SOL    HW2 1248   0.693   2.584   1.042
  403SOL     OW 1249   1.734   2.818   1.844
  403SOL    HW1 1250   1.688   2.755   1.781
  403SOL    HW2 1251   1.677   2.832   1.925
  404SOL     OW 1252   0.301   1.930   0.625
  404SOL    HW1 1253   0.284   2.026   0.649
  404SOL    HW2 1254   0.313   1.877   0.709
  405SOL     OW 1255   1.623   2.238   0.368
  405SOL    HW1 1256   1.648   2.165   0.432
  405SOL    HW2 1257   1.592   2.318   0.418
  406SOL     OW 1258   1.026   2.614   0.966
  406SOL    HW1 1259   1.027   2.634   1.064
  406SOL    HW2 1260   0.998   2.519   0.952
  407SOL     OW 1261   0.359   2.786   1.794
  407SOL    HW1 1262   0.419   2.785   1.874
  407SOL    HW2 1263   0.383   2.710   1.733
  408SOL     OW 1264   1.502   2.166   0.129
  408SOL    HW1 1265   1.458   2.077   0.138
  408SOL    HW2 1266   1.558   2.185   0.209
  409SOL     OW 1267   1.296   2.682   0.039
  409SOL    HW1 1268   1.337   2.592   0.053
  409SOL    HW2 1269   1.324   2.718   2.950
  410SOL     OW 1270   0.315   2.676   0.950
  410SOL    HW1 1271   0.412   2.688   0.931
  410SOL    HW2 1272   0.299   2.584   0.986
  411SOL     OW 1273   0.335   2.377   1.014
  411SOL    HW1 1274   0.291   2.289   0.996
  411SOL    HW2 1275   0.413   2.389   0.953
  412SOL     OW 1276   1.135   2.236   1.688
  412SOL    HW1 1277   1.082   2.295   1.749
  412SOL    HW2 1278   1.228   2.272   1.678
  413SOL     OW 1279   1.161   2.064   1.479
  413SOL    HW1 1280   1.149   2.132   1.552
  413SOL    HW2 1281   1.200   2.108   1.399
  414SOL     OW 1282   0.979   2.669   1.233
  414SOL    HW1 1283   1.036   2.638   1.309
  414SOL    HW2 1284   0.894   2.616   1.232
  415SOL     OW 1285   0.048   2.441   1.119
  415SOL    HW1 1286   0.124   2.395   1.073
  415SOL    HW2 1287   0.031   2.397   1.207
  416SOL     OW 1288   0.196   2.381   1.722
  416SOL    HW1 1289   0.264   2.342   1.661
  416SOL    HW2 1290   0.158   2.465   1.682
  417SOL     OW 1291   1.378   2.803   1.660
  417SOL    HW1 1292   1.398   2.901   1.665
  417SOL    HW2 1293   1.373   2.774   1.565
  418SOL     OW 1294   0.821   2.440   0.348
  418SOL    HW1 1295   0.824   2.357   0.293
  418SOL    HW2 1296   0.737   2.491   0.327
  419SOL     OW 1297   1.645   2.468   1.187
  419SOL    HW1 1298   1.630   2.406   1.263
  419SOL    HW2 1299   1.735   2.451   1.146
  420SOL     OW 1300   0.700   2.313   1.259
  420SOL    HW1 1301   0.645   2.234   1.232
  420SOL    HW2 1302   0.701   2.381   1.185
  421SOL     OW 1303   0.440   2.359   0.210
  421SOL    HW1 1304   0.519   2.419   0.224
  421SOL    HW2 1305   0.360   2.413   0.185
  422SOL     OW 1306   0.157   0.008   1.469
  422SOL    HW1 1307   0.145   2.957   1.554
  422SOL    HW2 1308   0.173   2.944   1.394
  423SOL     OW 1309   1.343   2.905   1.220
  423SOL    HW1 1310   1.361   2.839   1.147
  423SOL    HW2 1311   1.276   2.972   1.188
  424SOL     OW 1312   1.299   2.722   0.313
  424SOL    HW1 1313   1.224   2.678   0.363
  424SOL    HW2 1314   1.291   2.700   0.215
  425SOL     OW 1315   0.899   1.938   0.127
  425SOL    HW1 1316   0.943   1.918   0.039
  425SOL    HW2 1317   0.950   1.894   0.201
  426SOL     OW 1318   1.711   2.003   0.506
  426SOL    HW1 1319   1.795   2.000   0.452
  426SOL    HW2 1320   1.698   1.915   0.552
  427SOL     OW 1321   1.295   2.794   0.684
  427SOL    HW1 1322   1.367   2.724   0.684
  427SOL    HW2 1323   1.303   2.849   0.601
  428SOL     OW 1324   1.841   2.036   0.962
  428SOL    HW1 1325   1.875   1.944   0.941
  428SOL    HW2 1326   1.748   2.046   0.925
  429SOL     OW 1327   0.266   2.180   0.722
  429SOL    HW1 1328   0.180   2.219   0.692
  429SOL    HW2 1329   0.263   2.165   0.821
  430SOL     OW 1330   0.815   2.860   1.375
  430SOL    HW1 1331   0.873   2.824   1.302
  430SOL    HW2 1332   0.837   2.957   1.390
  431SOL     OW 1333   0.903   2.796   0.284
  431SOL    HW1 1334   0.983   2.821   0.230
  431SOL    HW2 1335   0.931   2.740   0.362
  432SOL     OW 1336   1.020   2.101   0.966
  432SOL    HW1 1337   1.014   2.055   0.877
  432SOL    HW2 1338   1.016   2.032   1.039
  433SOL     OW 1339   1.725   2.266   1.373
  433SOL    HW1 1340   1.800   2.332   1.377
  433SOL    HW2 1341   1.754   2.186   1.320
  434SOL     OW 1342   0.118   2.866   1.696
  434SOL    HW1 1343   0.044   2.848   1.761
  434SOL    HW2 1344   0.206   2.850   1.740
  435SOL     OW 1345   0.678   2.059   1.499
  435SOL    HW1 1346   0.764   2.039   1.452
  435SOL    HW2 1347   0.697   2.088   1.593
  436SOL     OW 1348   0.051   2.168   0.058
  436SOL    HW1 1349   2.962   2.207   0.033
  436SOL    HW2 1350   0.124   2.226   0.022
  437SOL     OW 1351   1.432   2.716   1.402
  437SOL    HW1 1352   1.384   2.777   1.339
  437SOL    HW2 1353   1.529   2.715   1.380
  438SOL     OW 1354   0.062   2.061   0.320
  438SOL    HW1 1355   0.046   2.101   0.230
  438SOL    HW2 1356   0.128   1.987   0.313
  439SOL     OW 1357   1.137   0.212   0.092
  439SOL    HW1 1358   1.064   0.258   0.143
  439SOL    HW2 1359   1.222   0.216   0.144
  440SOL     OW 1360   0.616   2.689   1.435
  440SOL    HW1 1361   0.674   2.769   1.418
  440SOL    HW2 1362   0.673   2.608   1.445
  441SOL     OW 1363   0.719   2.426   1.706
  441SOL    HW1 1364   0.759   2.495   1.766
  441SOL    HW2 1365   0.749   2.335   1.736
  442SOL     OW 1366   1.677   2.744   1.254
  442SOL    HW1 1367   1.667   2.651   1.217
  442SOL    HW2 1368   1.656   2.810   1.182
  443SOL     OW 1369   1.223   2.179   0.462
  443SOL    HW1 1370   1.288   2.104   0.448
  443SOL    HW2 1371   1.252   2.233   0.541
  444SOL     OW 1372   0.590   2.589   0.664
  444SOL    HW1 1373   0.616   2.684   0.677
  444SOL    HW2 1374   0.518   2.583   0.595
  445SOL     OW 1375   1.758   2.229   1.648
  445SOL    HW1 1376   1.747   2.241   1.549
  445SOL    HW2 1377   1.689   2.164   1.681
  446SOL     OW 1378   1.737   2.796   1.513
  446SOL    HW1 1379   1.751   2.892   1.538
  446SOL    HW2 1380   1.728   2.788   1.414
  447SOL     OW 1381   0.892   2.830   0.865
  447SOL    HW1 1382   0.931   2.745   0.900
  447SOL    HW2 1383   0.827   2.867   0.931
  448SOL     OW 1384   1.111   2.885   0.085
  448SOL    HW1 1385   1.058   2.893   0.001
  448SOL    HW2 1386   1.177   2.811   0.077
  449SOL     OW 1387   1.817   2.055   1.234
  449SOL    HW1 1388   1.800   1.961   1.264
  449SOL    HW2 1389   1.827   2.056   1.135
  450SOL     OW 1390   0.432   2.292   0.529
  450SOL    HW1 1391   0.465   2.221   0.467
  450SOL    HW2 1392   0.381   2.250   0.604
  451SOL     OW 1393   0.337   2.417   1.287
  451SOL    HW1 1394   0.399   2.364   1.345
  451SOL    HW2 1395   0.349   2.390   1.192
  452SOL     OW 1396   1.432   2.087   1.117
  452SOL    HW1 1397   1.474   2.008   1.162
  452SOL    HW2 1398   1.377   2.137   1.184
  453SOL     OW 1399   1.006   1.882   1.145
  453SOL    HW1 1400   0.942   1.817   1.104
  453SOL    HW2 1401   1.099   1.846   1.137
  454SOL     OW 1402   1.352   1.914   0.162
  454SOL    HW1 1403   1.386   1.863   0.084
  454SOL    HW2 1404   1.263   1.878   0.189
  455SOL     OW 1405   1.297   2.326   0.685
  455SOL    HW1 1406   1.240   2.408   0.688
  455SOL    HW2 1407   1.293   2.279   0.774
  456SOL     OW 1408   1.586   2.069   0.878
  456SOL    HW1 1409   1.523   2.083   0.955
  456SOL    HW2 1410   1.589   2.150   0.821
  457SOL     OW 1411   2.998   2.881   0.282
  457SOL    HW1 1412   0.085   2.917   0.248
  457SOL    HW2 1413   0.010   2.849   0.376
  458SOL     OW 1414   0.233   2.499   1.973
  458SOL    HW1 1415   0.162   2.457   2.030
  458SOL    HW2 1416   0.224   2.466   1.879
  459SOL     OW 1417   0.234   2.126   2.839
  459SOL    HW1 1418   0.274   2.098   2.926
  459SOL    HW2 1419   0.143   2.086   2.829
  460SOL     OW 1420   0.016   2.250   2.503
  460SOL    HW1 1421   2.929   2.289   2.532
  460SOL    HW2 1422   0.001   2.158   2.466
  461SOL     OW 1423   1.137   2.570   2.562
  461SOL    HW1 1424   1.187   2.656   2.550
  461SOL    HW2 1425   1.082   2.575   2.646
  462SOL     OW 1426   1.761   2.465   2.088
  462SOL    HW1 1427   1.743   2.457   1.989
  462SOL    HW2 1428   1.728   2.382   2.134
  463SOL     OW 1429   0.784   0.012   2.875
  463SOL    HW1 1430   0.696   0.021   2.922
  463SOL    HW2 1431   0.800   0.092   2.818
  464SOL     OW 1432   0.650   2.848   2.573
  464SOL    HW1 1433   0.748   2.846   2.596
  464SOL    HW2 1434   0.630   2.929   2.519
  465SOL     OW 1435   1.618   2.312   2.596
  465SOL    HW1 1436   1.539   2.332   2.538
  465SOL    HW2 1437   1.621   2.376   2.673
  466SOL     OW 1438   0.206   0.314   2.323
  466SOL    HW1 1439   0.234   0.391   2.381
  466SOL    HW2 1440   0.209   0.229   2.375
  467SOL     OW 1441   0.235   2.943   2.743
  467SOL    HW1 1442   0.260   2.853   2.778
  467SOL    HW2 1443   0.213   0.003   2.820
  468SOL     OW 1444   0.607   2.823   1.994
  468SOL    HW1 1445   0.593   2.908   1.944
  468SOL    HW2 1446   0.672   2.838   2.069
  469SOL     OW 1447   0.115   2.498   2.426
  469SOL    HW1 1448   0.093   2.407   2.461
  469SOL    HW2 1449   0.118   2.563   2.502
  470SOL     OW 1450   1.702   2.804   2.488
  470SOL    HW1 1451   1.784   2.749   2.502
  470SOL    HW2 1452   1.687   2.818   2.390
  471SOL     OW 1453   0.620   0.243   2.575
  471SOL    HW1 1454   0.592   0.154   2.537
  471SOL    HW2 1455   0.616   0.312   2.503
  472SOL     OW 1456   0.813   1.865   2.366
  472SOL    HW1 1457   0.859   1.953   2.348
  472SOL    HW2 1458   0.715   1.881   2.378
  473SOL     OW 1459   0.217   2.804   0.104
  473SOL    HW1 1460   0.278   2.725   0.099
  473SOL    HW2 1461   0.122   2.773   0.093
  474SOL     OW 1462   1.539   2.844   2.049
  474SOL    HW1 1463   1.468   2.787   2.091
  474SOL    HW2 1464   1.603   2.874   2.119
  475SOL     OW 1465   0.597   2.580   2.131
  475SOL    HW1 1466   0.601   2.660   2.071
  475SOL    HW2 1467   0.528   2.594   2.202
  476SOL     OW 1468   1.299   2.200   2.810
  476SOL    HW1 1469   1.202   2.179   2.798
  476SOL    HW2 1470   1.328   2.173   2.902
  477SOL     OW 1471   1.051   2.561   2.289
  477SOL    HW1 1472   1.068   2.559   2.387
  477SOL    HW2 1473   0.965   2.514   2.268
  478SOL     OW 1474   0.110   2.673   2.625
  478SOL    HW1 1475   0.189   2.673   2.686
  478SOL    HW2 1476   0.040   2.734   2.662
  479SOL     OW 1477   0.889   2.211   2.057
  479SOL    HW1 1478   0.931   2.277   1.995
  479SOL    HW2 1479   0.903   2.119   2.022
  480SOL     OW 1480   0.548   2.044   2.768
  480SOL    HW1 1481   0.515   2.079   2.856
  480SOL    HW2 1482   0.560   2.121   2.705
  481SOL     OW 1483   1.796   2.906   2.728
  481SOL    HW1 1484   1.740   2.887   2.648
  481SOL    HW2 1485   1.736   2.914   2.809
  482SOL     OW 1486   1.485   2.604   2.583
  482SOL    HW1 1487   1.469   2.546   2.663
  482SOL    HW2 1488   1.564   2.664   2.600
  483SOL     OW 1489   1.403   1.968   2.293
  483SOL    HW1 1490   1.389   1.943   2.197
  483SOL    HW2 1491   1.500   1.978   2.311
  484SOL     OW 1492   0.397   2.550   2.335
  484SOL    HW1 1493   0.414   2.453   2.350
  484SOL    HW2 1494   0.301   2.571   2.353
  485SOL     OW 1495   0.631   1.986   1.966
  485SOL    HW1 1496   0.707   1.924   1.986
  485SOL    HW2 1497   0.580   1.951   1.887
  486SOL     OW 1498   0.922   2.379   2.755
  486SOL    HW1 1499   0.900   2.358   2.660
  486SOL    HW2 1500   0.961   2.298   2.799
  487SOL     OW 1501   0.546   1.926   2.364
  487SOL    HW1 1502   0.463   1.924   2.418
  487SOL    HW2 1503   0.546   2.007   2.305
  488SOL     OW 1504   0.291   1.904   2.042
  488SOL    HW1 1505   0.346   1.981   2.008
  488SOL    HW2 1506   0.350   1.838   2.087
  489SOL     OW 1507   0.941   2.106   2.323
  489SOL    HW1 1508   0.905   2.153   2.241
  489SOL    HW2 1509   1.040   2.121   2.329
  490SOL     OW 1510   1.023   2.405   1.884
  490SOL    HW1 1511   0.976   2.490   1.861
  490SOL    HW2 1512   1.091   2.423   1.955
  491SOL     OW 1513   0.868   2.318   2.498
  491SOL    HW1 1514   0.818   2.381   2.438
  491SOL    HW2 1515   0.891   2.235   2.447
  492SOL     OW 1516   1.013   1.909   2.610
  492SOL    HW1 1517   0.953   1.910   2.530
  492SOL    HW2 1518   0.992   1.829   2.667
  493SOL     OW 1519   1.424   2.995   2.736
  493SOL    HW1 1520   1.353   2.936   2.698
  493SOL    HW2 1521   1.455   0.060   2.666
  494SOL     OW 1522   1.485   2.447   2.816
  494SOL    HW1 1523   1.417   2.374   2.821
  494SOL    HW2 1524   1.510   2.476   2.909
  495SOL     OW 1525   1.836   2.663   2.251
  495SOL    HW1 1526   1.898   2.616   2.314
  495SOL    HW2 1527   1.812   2.602   2.176
  496SOL     OW 1528   1.391   2.435   1.934
  496SOL    HW1 1529   1.330   2.413   2.010
  496SOL    HW2 1530   1.484   2.408   1.957
  497SOL     OW 1531   0.530   2.126   2.178
  497SOL    HW1 1532   0.570   2.071   2.105
  497SOL    HW2 1533   0.506   2.216   2.143
  498SOL     OW 1534   1.626   2.966   2.934
  498SOL    HW1 1535   1.638   0.047   2.992
  498SOL    HW2 1536   1.548   2.980   2.874
  499SOL     OW 1537   0.551   2.400   2.726
  499SOL    HW1 1538   0.566   2.456   2.645
  499SOL    HW2 1539   0.616   2.427   2.798
  500SOL     OW 1540   1.576   2.486   2.334
  500SOL    HW1 1541   1.535   2.538   2.409
  500SOL    HW2 1542   1.637   2.545   2.282
  501SOL     OW 1543   0.578   2.727   2.884
  501SOL    HW1 1544   0.615   2.807   2.837
  501SOL    HW2 1545   0.565   2.749   2.981
  502SOL     OW 1546   1.204   2.390   2.132
  502SOL    HW1 1547   1.216   2.307   2.186
  502SOL    HW2 1548   1.157   2.460   2.186
  503SOL     OW 1549   0.328   2.060   0.077
  503SOL    HW1 1550   0.323   2.109   0.165
  503SOL    HW2 1551   0.305   1.964   0.091
  504SOL     OW 1552   0.728   2.499   2.911
  504SOL    HW1 1553   0.799   2.475   2.846
  504SOL    HW2 1554   0.689   2.588   2.886
  505SOL     OW 1555   0.303   1.930   2.485
  505SOL    HW1 1556   0.284   2.025   2.508
  505SOL    HW2 1557   0.311   1.876   2.570
  506SOL     OW 1558   1.619   2.237   2.229
  506SOL    HW1 1559   1.646   2.167   2.295
  506SOL    HW2 1560   1.591   2.320   2.278
  507SOL     OW 1561   1.023   2.616   2.821
  507SOL    HW1 1562   1.025   2.627   2.920
  507SOL    HW2 1563   0.992   2.524   2.798
  508SOL     OW 1564   1.530   2.131   1.992
  508SOL    HW1 1565   1.459   2.065   2.016
  508SOL    HW2 1566   1.566   2.173   2.075
  509SOL     OW 1567   1.292   2.686   1.894
  509SOL    HW1 1568   1.333   2.595   1.902
  509SOL    HW2 1569   1.322   2.729   1.809
  510SOL     OW 1570   0.314   2.673   2.807
  510SOL    HW1 1571   0.412   2.693   2.811
  510SOL    HW2 1572   0.298   2.581   2.842
  511SOL     OW 1573   0.319   2.385   2.867
  511SOL    HW1 1574   0.284   2.293   2.853
  511SOL    HW2 1575   0.403   2.397   2.814
  512SOL     OW 1576   0.980   2.614   0.086
  512SOL    HW1 1577   1.031   2.605   0.171
  512SOL    HW2 1578   0.885   2.635   0.106
  513SOL     OW 1579   0.818   2.433   2.216
  513SOL    HW1 1580   0.823   2.353   2.157
  513SOL    HW2 1581   0.740   2.490   2.190
  514SOL     OW 1582   0.702   2.312   0.100
  514SOL    HW1 1583   0.614   2.265   0.091
  514SOL    HW2 1584   0.706   2.386   0.032
  515SOL     OW 1585   0.463   2.358   2.050
  515SOL    HW1 1586   0.530   2.428   2.073
  515SOL    HW2 1587   0.373   2.400   2.038
  516SOL     OW 1588   1.303   2.724   2.167
  516SOL    HW1 1589   1.229   2.686   2.221
  516SOL    HW2 1590   1.288   2.705   2.071
  517SOL     OW 1591   1.715   2.004   2.367
  517SOL    HW1 1592   1.794   1.996   2.307
  517SOL    HW2 1593   1.700   1.917   2.414
  518SOL     OW 1594   1.296   2.796   2.544
  518SOL    HW1 1595   1.366   2.725   2.547
  518SOL    HW2 1596   1.305   2.848   2.459
  519SOL     OW 1597   1.841   2.041   2.819
  519SOL    HW1 1598   1.876   1.949   2.797
  519SOL    HW2 1599   1.747   2.049   2.786
  520SOL     OW 1600   0.268   2.180   2.576
  520SOL    HW1 1601   0.181   2.220   2.551
  520SOL    HW2 1602   0.270   2.165   2.675
  521SOL     OW 1603   0.906   2.759   2.108
  521SOL    HW1 1604   0.983   2.811   2.073
  521SOL    HW2 1605   0.935   2.709   2.190
  522SOL     OW 1606   1.039   2.109   2.800
  522SOL    HW1 1607   1.024   2.047   2.724
  522SOL    HW2 1608   1.009   2.065   2.885
  523SOL     OW 1609   0.093   2.179   1.918
  523SOL    HW1 1610   0.008   2.143   1.880
  523SOL    HW2 1611   0.111   2.270   1.881
  524SOL     OW 1612   0.065   2.061   2.176
  524SOL    HW1 1613   0.068   2.112   2.089
  524SOL    HW2 1614   0.133   1.988   2.174
  525SOL     OW 1615   1.124   0.237   2.007
  525SOL    HW1 1616   1.103   0.160   1.946
  525SOL    HW2 1617   1.213   0.222   2.049
  526SOL     OW 1618   1.728   2.710   0.051
  526SOL    HW1 1619   1.659   2.663   0.105
  526SOL    HW2 1620   1.698   2.803   0.031
  527SOL     OW 1621   1.221   2.180   2.321
  527SOL    HW1 1622   1.285   2.104   2.309
  527SOL    HW2 1623   1.246   2.233   2.402
  528SOL     OW 1624   0.593   2.585   2.526
  528SOL    HW1 1625   0.618   2.680   2.541
  528SOL    HW2 1626   0.521   2.580   2.456
  529SOL     OW 1627   0.886   2.823   2.716
  529SOL    HW1 1628   0.932   2.744   2.757
  529SOL    HW2 1629   0.847   2.880   2.789
  530SOL     OW 1630   1.106   2.878   1.953
  530SOL    HW1 1631   1.057   2.909   1.872
  530SOL    HW2 1632   1.164   2.800   1.929
  531SOL     OW 1633   1.824   2.050   0.093
  531SOL    HW1 1634   1.790   1.958   0.106
  531SOL    HW2 1635   1.833   2.070   2.995
  532SOL     OW 1636   0.428   2.290   2.383
  532SOL    HW1 1637   0.463   2.217   2.325
  532SOL    HW2 1638   0.379   2.251   2.461
  533SOL     OW 1639   1.347   1.917   2.027
  533SOL    HW1 1640   1.386   1.850   1.963
  533SOL    HW2 1641   1.257   1.886   2.057
  534SOL     OW 1642   1.294   2.321   2.549
  534SOL    HW1 1643   1.240   2.405   2.554
  534SOL    HW2 1644   1.296   2.277   2.639
  535SOL     OW 1645   1.585   2.076   2.736
  535SOL    HW1 1646   1.497   2.088   2.784
  535SOL    HW2 1647   1.600   2.154   2.674
  536SOL     OW 1648   0.018   2.932   2.156
  536SOL    HW1 1649   0.116   2.923   2.140
  536SOL    HW2 1650   2.992   2.876   2.235
  537SOL     OW 1651   2.092   0.632   0.121
  537SOL    HW1 1652   1.994   0.628   0.140
  537SOL    HW2 1653   2.109   0.602   0.028
  538SOL     OW 1654   2.077   0.286   1.009
  538SOL    HW1 1655   2.112   0.251   1.096
  538SOL    HW2 1656   1.989   0.243   0.989
  539SOL     OW 1657   1.865   0.384   0.640
  539SOL    HW1 1658   1.780   0.413   0.685
  539SOL    HW2 1659   1.846   0.306   0.581
  540SOL     OW 1660   2.427   1.284   1.175
  540SOL    HW1 1661   2.336   1.287   1.133
  540SOL    HW2 1662   2.449   1.375   1.212
  541SOL     OW 1663   2.613   1.144   1.034
  541SOL    HW1 1664   2.543   1.176   1.098
  541SOL    HW2 1665   2.658   1.223   0.991
  542SOL     OW 1666   2.721   0.776   1.815
  542SOL    HW1 1667   2.714   0.844   1.888
  542SOL    HW2 1668   2.746   0.821   1.729
  543SOL     OW 1669   2.544   1.005   0.653
  543SOL    HW1 1670   2.612   0.988   0.724
  543SOL    HW2 1671   2.469   1.058   0.690
  544SOL     OW 1672   2.570   1.156   1.813
  544SOL    HW1 1673   2.622   1.236   1.841
  544SOL    HW2 1674   2.482   1.185   1.775
  545SOL     OW 1675   2.195   1.424   1.068
  545SOL    HW1 1676   2.114   1.392   1.019
  545SOL    HW2 1677   2.250   1.481   1.007
  546SOL     OW 1678   2.313   0.401   1.486
  546SOL    HW1 1679   2.393   0.340   1.490
  546SOL    HW2 1680   2.230   0.347   1.501
  547SOL     OW 1681   2.085   1.714   0.475
  547SOL    HW1 1682   2.102   1.793   0.533
  547SOL    HW2 1683   2.162   1.701   0.412
  548SOL     OW 1684   2.978   1.347   1.694
  548SOL    HW1 1685   0.048   1.347   1.766
  548SOL    HW2 1686   2.932   1.259   1.693
  549SOL     OW 1687   2.084   1.443   0.535
  549SOL    HW1 1688   2.076   1.543   0.539
  549SOL    HW2 1689   2.025   1.402   0.604
  550SOL     OW 1690   2.118   1.091   0.896
  550SOL    HW1 1691   2.119   0.998   0.933
  550SOL    HW2 1692   2.060   1.149   0.952
  551SOL     OW 1693   2.476   1.792   1.432
  551SOL    HW1 1694   2.390   1.768   1.477
  551SOL    HW2 1695   2.500   1.887   1.454
  552SOL     OW 1696   2.451   0.977   0.151
  552SOL    HW1 1697   2.472   1.048   0.083
  552SOL    HW2 1698   2.489   1.004   0.239
  553SOL     OW 1699   1.977   0.648   0.564
  553SOL    HW1 1700   1.933   0.561   0.585
  553SOL    HW2 1701   1.973   0.708   0.645
  554SOL     OW 1702   1.871   1.587   0.123
  554SOL    HW1 1703   1.888   1.492   0.149
  554SOL    HW2 1704   1.876   1.645   0.205
  555SOL     OW 1705   1.984   0.742   1.587
  555SOL    HW1 1706   2.082   0.762   1.595
  555SOL    HW2 1707   1.932   0.827   1.594
  556SOL     OW 1708   2.471   1.385   0.734
  556SOL    HW1 1709   2.425   1.297   0.747
  556SOL    HW2 1710   2.458   1.417   0.640
  557SOL     OW 1711   2.681   0.019   0.519
  557SOL    HW1 1712   2.716   0.110   0.498
  557SOL    HW2 1713   2.582   0.016   0.502
  558SOL     OW 1714   2.054   0.967   1.265
  558SOL    HW1 1715   2.142   0.921   1.253
  558SOL    HW2 1716   1.981   0.909   1.228
  559SOL     OW 1717   2.187   0.254   1.805
  559SOL    HW1 1718   2.244   0.333   1.826
  559SOL    HW2 1719   2.096   0.266   1.844
  560SOL     OW 1720   2.453   0.721   0.270
  560SOL    HW1 1721   2.460   0.806   0.218
  560SOL    HW2 1722   2.385   0.732   0.343
  561SOL     OW 1723   2.649   0.625   1.453
  561SOL    HW1 1724   2.625   0.598   1.547
  561SOL    HW2 1725   2.611   0.557   1.390
  562SOL     OW 1726   2.830   0.881   1.573
  562SOL    HW1 1727   2.856   0.789   1.543
  562SOL    HW2 1728   2.779   0.926   1.499
  563SOL     OW 1729   2.848   0.372   1.260
  563SOL    HW1 1730   2.771   0.426   1.294
  563SOL    HW2 1731   2.848   0.373   1.160
  564SOL     OW 1732   2.893   0.714   0.406
  564SOL    HW1 1733   2.939   0.699   0.493
  564SOL    HW2 1734   2.812   0.655   0.400
  565SOL     OW 1735   1.954   0.823   0.774
  565SOL    HW1 1736   2.039   0.811   0.826
  565SOL    HW2 1737   1.904   0.903   0.810
  566SOL     OW 1738   2.005   1.859   1.580
  566SOL    HW1 1739   1.991   1.830   1.674
  566SOL    HW2 1740   1.918   1.853   1.530
  567SOL     OW 1741   2.775   0.344   0.220
  567SOL    HW1 1742   2.768   0.402   0.139
  567SOL    HW2 1743   2.771   0.247   0.193
  568SOL     OW 1744   2.379   0.202   0.914
  568SOL    HW1 1745   2.398   0.213   1.011
  568SOL    HW2 1746   2.407   0.285   0.865
  569SOL     OW 1747   2.851   1.440   0.465
  569SOL    HW1 1748   2.822   1.523   0.417
  569SOL    HW2 1749   2.861   1.459   0.562
  570SOL     OW 1750   2.219   1.807   0.857
  570SOL    HW1 1751   2.262   1.718   0.870
  570SOL    HW2 1752   2.284   1.880   0.879
  571SOL     OW 1753   2.181   0.951   0.244
  571SOL    HW1 1754   2.271   0.970   0.203
  571SOL    HW2 1755   2.148   0.863   0.212
  572SOL     OW 1756   2.326   1.260   1.735
  572SOL    HW1 1757   2.300   1.267   1.639
  572SOL    HW2 1758   2.243   1.260   1.792
  573SOL     OW 1759   2.064   0.295   1.498
  573SOL    HW1 1760   1.979   0.348   1.495
  573SOL    HW2 1761   2.053   0.219   1.562
  574SOL     OW 1762   2.328   1.722   0.332
  574SOL    HW1 1763   2.360   1.795   0.392
  574SOL    HW2 1764   2.398   1.703   0.263
  575SOL     OW 1765   2.135   1.800   1.229
  575SOL    HW1 1766   2.181   1.730   1.283
  575SOL    HW2 1767   2.086   1.756   1.154
  576SOL     OW 1768   2.799   1.696   0.899
  576SOL    HW1 1769   2.863   1.629   0.937
  576SOL    HW2 1770   2.750   1.655   0.822
  577SOL     OW 1771   2.257   0.685   0.477
  577SOL    HW1 1772   2.291   0.593   0.496
  577SOL    HW2 1773   2.159   0.690   0.497
  578SOL     OW 1774   2.479   0.105   0.100
  578SOL    HW1 1775   2.576   0.114   0.119
  578SOL    HW2 1776   2.457   0.149   0.013
  579SOL     OW 1777   2.631   0.277   1.755
  579SOL    HW1 1778   2.707   0.212   1.763
  579SOL    HW2 1779   2.575   0.272   1.837
  580SOL     OW 1780   2.740   1.513   1.191
  580SOL    HW1 1781   2.716   1.480   1.100
  580SOL    HW2 1782   2.807   1.451   1.232
  581SOL     OW 1783   2.671   1.401   0.938
  581SOL    HW1 1784   2.759   1.387   0.894
  581SOL    HW2 1785   2.598   1.397   0.869
  582SOL     OW 1786   2.784   0.504   0.904
  582SOL    HW1 1787   2.754   0.496   0.809
  582SOL    HW2 1788   2.828   0.418   0.932
  583SOL     OW 1789   2.400   0.047   0.496
  583SOL    HW1 1790   2.312   0.036   0.543
  583SOL    HW2 1791   2.398   0.129   0.439
  584SOL     OW 1792   0.322   1.150   0.045
  584SOL    HW1 1793   0.311   1.087   0.122
  584SOL    HW2 1794   0.255   1.224   0.053
  585SOL     OW 1795   2.158   0.090   0.188
  585SOL    HW1 1796   2.241   0.142   0.209
  585SOL    HW2 1797   2.176   2.992   0.198
  586SOL     OW 1798   2.828   0.245   0.466
  586SOL    HW1 1799   2.781   0.300   0.396
  586SOL    HW2 1800   2.909   0.203   0.425
  587SOL     OW 1801   0.081   1.578   0.798
  587SOL    HW1 1802   0.104   1.619   0.710
  587SOL    HW2 1803   0.165   1.548   0.844
  588SOL     OW 1804   2.326   1.148   0.733
  588SOL    HW1 1805   2.256   1.129   0.802
  588SOL    HW2 1806   2.288   1.134   0.642
  589SOL     OW 1807   2.886   0.506   0.027
  589SOL    HW1 1808   2.840   0.593   0.008
  589SOL    HW2 1809   2.943   0.517   0.109
  590SOL     OW 1810   1.941   0.558   1.390
  590SOL    HW1 1811   2.036   0.551   1.359
  590SOL    HW2 1812   1.933   0.630   1.459
  591SOL     OW 1813   2.427   0.213   1.184
  591SOL    HW1 1814   2.472   0.169   1.262
  591SOL    HW2 1815   2.329   0.223   1.204
  592SOL     OW 1816   2.743   0.469   0.636
  592SOL    HW1 1817   2.676   0.526   0.587
  592SOL    HW2 1818   2.738   0.375   0.602
  593SOL     OW 1819   2.858   0.059   0.759
  593SOL    HW1 1820   2.818   0.067   0.667
  593SOL    HW2 1821   2.835   2.970   0.798
  594SOL     OW 1822   2.350   1.401   0.151
  594SOL    HW1 1823   2.284   1.371   0.220
  594SOL    HW2 1824   2.304   1.411   0.063
  595SOL     OW 1825   2.391   0.259   0.319
  595SOL    HW1 1826   2.439   0.208   0.247
  595SOL    HW2 1827   2.361   0.348   0.282
  596SOL     OW 1828   2.775   0.115   1.399
  596SOL    HW1 1829   2.804   0.097   1.305
  596SOL    HW2 1830   2.836   0.183   1.440
  597SOL     OW 1831   2.837   1.108   1.728
  597SOL    HW1 1832   2.742   1.133   1.743
  597SOL    HW2 1833   2.842   1.037   1.658
  598SOL     OW 1834   2.567   1.060   0.380
  598SOL    HW1 1835   2.548   1.047   0.478
  598SOL    HW2 1836   2.656   1.020   0.358
  599SOL     OW 1837   2.280   0.812   1.253
  599SOL    HW1 1838   2.353   0.828   1.319
  599SOL    HW2 1839   2.241   0.721   1.266
  600SOL     OW 1840   1.955   1.558   1.270
  600SOL    HW1 1841   1.889   1.612   1.321
  600SOL    HW2 1842   2.045   1.568   1.312
  601SOL     OW 1843   2.216   1.111   0.486
  601SOL    HW1 1844   2.213   1.192   0.427
  601SOL    HW2 1845   2.212   1.029   0.430
  602SOL     OW 1846   2.416   0.547   0.864
  602SOL    HW1 1847   2.433   0.603   0.783
  602SOL    HW2 1848   2.484   0.569   0.934
  603SOL     OW 1849   2.223   1.519   1.318
  603SOL    HW1 1850   2.202   1.479   1.229
  603SOL    HW2 1851   2.321   1.537   1.325
  604SOL     OW 1852   2.275   0.744   1.600
  604SOL    HW1 1853   2.337   0.795   1.541
  604SOL    HW2 1854   2.313   0.654   1.620
  605SOL     OW 1855   2.866   0.121   1.758
  605SOL    HW1 1856   2.902   0.202   1.711
  605SOL    HW2 1857   2.901   0.039   1.713
  606SOL     OW 1858   2.364   0.056   1.750
  606SOL    HW1 1859   2.333   2.982   1.690
  606SOL    HW2 1860   2.291   0.123   1.760
  607SOL     OW 1861   2.442   0.873   1.032
  607SOL    HW1 1862   2.480   0.965   1.028
  607SOL    HW2 1863   2.384   0.864   1.113
  608SOL     OW 1864   0.063   0.531   0.269
  608SOL    HW1 1865   0.089   0.445   0.312
  608SOL    HW2 1866   0.027   0.594   0.338
  609SOL     OW 1867   2.159   0.197   1.252
  609SOL    HW1 1868   2.128   0.241   1.336
  609SOL    HW2 1869   2.141   0.098   1.258
  610SOL     OW 1870   1.896   1.300   1.272
  610SOL    HW1 1871   1.936   1.246   1.347
  610SOL    HW2 1872   1.928   1.395   1.279
  611SOL     OW 1873   2.590   0.634   1.059
  611SOL    HW1 1874   2.669   0.613   1.002
  611SOL    HW2 1875   2.557   0.726   1.038
  612SOL     OW 1876   2.169   0.064   0.644
  612SOL    HW1 1877   2.173   0.161   0.670
  612SOL    HW2 1878   2.151   0.009   0.725
  613SOL     OW 1879   2.866   0.769   0.970
  613SOL    HW1 1880   2.892   0.779   1.066
  613SOL    HW2 1881   2.870   0.672   0.945
  614SOL     OW 1882   2.828   1.567   1.700
  614SOL    HW1 1883   2.824   1.612   1.611
  614SOL    HW2 1884   2.888   1.487   1.695
  615SOL     OW 1885   2.215   0.916   1.806
  615SOL    HW1 1886   2.298   0.939   1.857
  615SOL    HW2 1887   2.239   0.851   1.733
  616SOL     OW 1888   2.908   1.343   0.834
  616SOL    HW1 1889   2.909   1.260   0.778
  616SOL    HW2 1890   2.980   1.405   0.804
  617SOL     OW 1891   2.174   0.808   0.944
  617SOL    HW1 1892   2.270   0.836   0.942
  617SOL    HW2 1893   2.167   0.714   0.980
  618SOL     OW 1894   2.196   0.526   1.014
  618SOL    HW1 1895   2.155   0.435   1.002
  618SOL    HW2 1896   2.275   0.535   0.953
  619SOL     OW 1897   2.961   0.367   1.667
  619SOL    HW1 1898   2.901   0.431   1.715
  619SOL    HW2 1899   0.054   0.403   1.666
  620SOL     OW 1900   1.873   1.314   0.178
  620SOL    HW1 1901   1.778   1.333   0.153
  620SOL    HW2 1902   1.876   1.227   0.228
  621SOL     OW 1903   1.956   1.791   0.938
  621SOL    HW1 1904   1.918   1.708   0.898
  621SOL    HW2 1905   2.051   1.802   0.908
  622SOL     OW 1906   2.360   1.575   0.907
  622SOL    HW1 1907   2.430   1.642   0.933
  622SOL    HW2 1908   2.401   1.506   0.847
  623SOL     OW 1909   2.862   0.793   1.248
  623SOL    HW1 1910   2.917   0.730   1.303
  623SOL    HW2 1911   2.768   0.759   1.243
  624SOL     OW 1912   1.898   0.542   1.118
  624SOL    HW1 1913   1.980   0.527   1.064
  624SOL    HW2 1914   1.922   0.553   1.214
  625SOL     OW 1915   2.050   0.521   1.727
  625SOL    HW1 1916   2.109   0.474   1.661
  625SOL    HW2 1917   2.006   0.599   1.683
  626SOL     OW 1918   2.673   0.573   0.350
  626SOL    HW1 1919   2.683   0.489   0.296
  626SOL    HW2 1920   2.589   0.620   0.323
  627SOL     OW 1921   2.126   1.554   1.733
  627SOL    HW1 1922   2.088   1.622   1.795
  627SOL    HW2 1923   2.112   1.463   1.771
  628SOL     OW 1924   2.558   0.459   1.261
  628SOL    HW1 1925   2.509   0.377   1.233
  628SOL    HW2 1926   2.561   0.524   1.185
  629SOL     OW 1927   2.801   1.690   1.458
  629SOL    HW1 1928   2.770   1.632   1.383
  629SOL    HW2 1929   2.772   1.784   1.442
  630SOL     OW 1930   2.316   0.495   0.202
  630SOL    HW1 1931   2.378   0.570   0.225
  630SOL    HW2 1932   2.225   0.530   0.183
  631SOL     OW 1933   2.012   1.140   1.466
  631SOL    HW1 1934   2.005   1.093   1.554
  631SOL    HW2 1935   2.031   1.073   1.394
  632SOL     OW 1936   1.934   1.272   1.008
  632SOL    HW1 1937   1.925   1.273   1.108
  632SOL    HW2 1938   1.872   1.203   0.970
  633SOL     OW 1939   2.538   1.667   1.732
  633SOL    HW1 1940   2.481   1.748   1.723
  633SOL    HW2 1941   2.611   1.669   1.664
  634SOL     OW 1942   2.762   0.085   0.144
  634SOL    HW1 1943   2.790   0.035   0.062
  634SOL    HW2 1944   2.811   0.048   0.223
  635SOL     OW 1945   1.995   1.789   1.849
  635SOL    HW1 1946   1.962   1.720   1.913
  635SOL    HW2 1947   2.052   1.855   1.898
  636SOL     OW 1948   2.675   1.271   1.427
  636SOL    HW1 1949   2.662   1.318   1.514
  636SOL    HW2 1950   2.602   1.297   1.363
  637SOL     OW 1951   2.526   1.609   0.161
  637SOL    HW1 1952   2.540   1.633   0.065
  637SOL    HW2 1953   2.472   1.525   0.167
  638SOL     OW 1954   2.134   0.345   0.750
  638SOL    HW1 1955   2.041   0.368   0.722
  638SOL    HW2 1956   2.133   0.312   0.845
  639SOL     OW 1957   2.690   1.008   1.377
  639SOL    HW1 1958   2.739   0.993   1.291
  639SOL    HW2 1959   2.689   1.106   1.398
  640SOL     OW 1960   2.799   0.949   0.310
  640SOL    HW1 1961   2.842   0.961   0.220
  640SOL    HW2 1962   2.828   0.862   0.350
  641SOL     OW 1963   2.231   1.300   1.491
  641SOL    HW1 1964   2.226   1.381   1.433
  641SOL    HW2 1965   2.151   1.242   1.475
  642SOL     OW 1966   2.916   1.086   0.724
  642SOL    HW1 1967   2.838   1.041   0.769
  642SOL    HW2 1968   2.935   1.039   0.638
  643SOL     OW 1969   2.882   0.237   0.971
  643SOL    HW1 1970   2.877   0.188   0.884
  643SOL    HW2 1971   2.870   0.172   1.047
  644SOL     OW 1972   2.460   1.486   0.482
  644SOL    HW1 1973   2.509   1.434   0.412
  644SOL    HW2 1974   2.400   1.552   0.438
  645SOL     OW 1975   2.130   1.332   0.300
  645SOL    HW1 1976   2.045   1.335   0.248
  645SOL    HW2 1977   2.118   1.379   0.388
  646SOL     OW 1978   1.973   1.021   1.719
  646SOL    HW1 1979   1.892   0.998   1.773
  646SOL    HW2 1980   2.055   0.982   1.763
  647SOL     OW 1981   2.530   0.213   1.492
  647SOL    HW1 1982   2.615   0.181   1.449
  647SOL    HW2 1983   2.546   0.228   1.589
  648SOL     OW 1984   1.910   0.197   0.329
  648SOL    HW1 1985   1.874   0.235   0.243
  648SOL    HW2 1986   2.002   0.163   0.313
  649SOL     OW 1987   2.480   0.836   1.432
  649SOL    HW1 1988   2.537   0.917   1.417
  649SOL    HW2 1989   2.538   0.755   1.440
  650SOL     OW 1990   2.581   0.561   1.705
  650SOL    HW1 1991   2.617   0.631   1.766
  650SOL    HW2 1992   2.612   0.471   1.735
  651SOL     OW 1993   2.248   1.737   1.565
  651SOL    HW1 1994   2.162   1.786   1.551
  651SOL    HW2 1995   2.229   1.650   1.611
  652SOL     OW 1996   2.456   0.740   0.663
  652SOL    HW1 1997   2.495   0.832   0.656
  652SOL    HW2 1998   2.381   0.730   0.598
  653SOL     OW 1999   2.765   1.380   0.066
  653SOL    HW1 2000   2.694   1.381   0.136
  653SOL    HW2 2001   2.730   1.419   2.981
  654SOL     OW 2002   2.523   1.794   0.948
  654SOL    HW1 2003   2.497   1.887   0.922
  654SOL    HW2 2004   2.622   1.782   0.934
  655SOL     OW 2005   2.718   0.964   0.859
  655SOL    HW1 2006   2.768   0.886   0.899
  655SOL    HW2 2007   2.682   1.022   0.932
  656SOL     OW 2008   2.953   1.016   0.076
  656SOL    HW1 2009   2.927   1.066   2.993
  656SOL    HW2 2010   0.018   0.944   0.052
  657SOL     OW 2011   2.085   1.304   1.853
  657SOL    HW1 2012   2.019   1.237   1.821
  657SOL    HW2 2013   2.073   1.318   1.952
  658SOL     OW 2014   1.945   1.235   0.665
  658SOL    HW1 2015   1.946   1.181   0.750
  658SOL    HW2 2016   2.014   1.200   0.603
  659SOL     OW 2017   2.541   1.405   1.630
  659SOL    HW1 2018   2.459   1.354   1.657
  659SOL    HW2 2019   2.537   1.497   1.669
  660SOL     OW 2020   2.341   0.430   0.554
  660SOL    HW1 2021   2.327   0.371   0.474
  660SOL    HW2 2022   2.272   0.409   0.623
  661SOL     OW 2023   2.190   0.552   1.290
  661SOL    HW1 2024   2.250   0.500   1.350
  661SOL    HW2 2025   2.210   0.529   1.194
  662SOL     OW 2026   2.683   1.585   0.681
  662SOL    HW1 2027   2.684   1.623   0.588
  662SOL    HW2 2028   2.606   1.522   0.689
  663SOL     OW 2029   2.851   0.020   1.150
  663SOL    HW1 2030   2.813   2.947   1.093
  663SOL    HW2 2031   2.947   0.003   1.167
  664SOL     OW 2032   2.630   1.329   0.316
  664SOL    HW1 2033   2.600   1.235   0.335
  664SOL    HW2 2034   2.716   1.346   0.364
  665SOL     OW 2035   2.490   1.561   1.287
  665SOL    HW1 2036   2.489   1.647   1.338
  665SOL    HW2 2037   2.580   1.548   1.245
  666SOL     OW 2038   1.904   1.072   0.306
  666SOL    HW1 2039   2.002   1.071   0.286
  666SOL    HW2 2040   1.874   0.979   0.329
  667SOL     OW 2041   2.736   1.655   0.347
  667SOL    HW1 2042   2.664   1.633   0.281
  667SOL    HW2 2043   2.709   1.735   0.400
  668SOL     OW 2044   2.090   0.620   1.985
  668SOL    HW1 2045   1.998   0.622   2.024
  668SOL    HW2 2046   2.084   0.596   1.888
  669SOL     OW 2047   2.086   0.277   2.881
  669SOL    HW1 2048   2.108   0.237   2.970
  669SOL    HW2 2049   1.997   0.242   2.850
  670SOL     OW 2050   1.865   0.384   2.501
  670SOL    HW1 2051   1.782   0.417   2.545
  670SOL    HW2 2052   1.844   0.305   2.444
  671SOL     OW 2053   2.610   1.149   2.893
  671SOL    HW1 2054   2.548   1.188   2.961
  671SOL    HW2 2055   2.659   1.222   2.846
  672SOL     OW 2056   2.545   1.006   2.511
  672SOL    HW1 2057   2.611   0.988   2.584
  672SOL    HW2 2058   2.468   1.058   2.547
  673SOL     OW 2059   2.204   1.432   2.928
  673SOL    HW1 2060   2.122   1.394   2.885
  673SOL    HW2 2061   2.253   1.488   2.861
  674SOL     OW 2062   2.084   1.713   2.337
  674SOL    HW1 2063   2.103   1.793   2.394
  674SOL    HW2 2064   2.155   1.703   2.268
  675SOL     OW 2065   2.092   1.441   2.397
  675SOL    HW1 2066   2.078   1.540   2.400
  675SOL    HW2 2067   2.030   1.397   2.462
  676SOL     OW 2068   2.122   1.092   2.761
  676SOL    HW1 2069   2.114   0.998   2.793
  676SOL    HW2 2070   2.059   1.150   2.813
  677SOL     OW 2071   2.452   0.982   1.996
  677SOL    HW1 2072   2.494   1.035   1.923
  677SOL    HW2 2073   2.490   1.011   2.084
  678SOL     OW 2074   1.978   0.649   2.427
  678SOL    HW1 2075   1.932   0.562   2.446
  678SOL    HW2 2076   1.973   0.708   2.507
  679SOL     OW 2077   1.899   1.597   2.000
  679SOL    HW1 2078   1.883   1.500   2.017
  679SOL    HW2 2079   1.878   1.649   2.083
  680SOL     OW 2080   2.468   1.384   2.593
  680SOL    HW1 2081   2.420   1.296   2.605
  680SOL    HW2 2082   2.456   1.415   2.498
  681SOL     OW 2083   2.682   0.019   2.380
  681SOL    HW1 2084   2.719   0.107   2.353
  681SOL    HW2 2085   2.584   0.016   2.362
  682SOL     OW 2086   2.458   0.725   2.128
  682SOL    HW1 2087   2.464   0.807   2.071
  682SOL    HW2 2088   2.388   0.739   2.199
  683SOL     OW 2089   2.889   0.707   2.280
  683SOL    HW1 2090   2.931   0.690   2.370
  683SOL    HW2 2091   2.809   0.649   2.269
  684SOL     OW 2092   1.954   0.824   2.636
  684SOL    HW1 2093   2.037   0.811   2.689
  684SOL    HW2 2094   1.902   0.902   2.672
  685SOL     OW 2095   2.739   0.350   2.051
  685SOL    HW1 2096   2.789   0.415   1.993
  685SOL    HW2 2097   2.781   0.260   2.043
  686SOL     OW 2098   2.419   0.208   2.835
  686SOL    HW1 2099   2.357   0.274   2.876
  686SOL    HW2 2100   2.440   0.235   2.741
  687SOL     OW 2101   2.853   1.438   2.328
  687SOL    HW1 2102   2.821   1.519   2.280
  687SOL    HW2 2103   2.866   1.459   2.425
  688SOL     OW 2104   2.218   1.806   2.719
  688SOL    HW1 2105   2.262   1.717   2.731
  688SOL    HW2 2106   2.283   1.879   2.741
  689SOL     OW 2107   2.187   0.955   2.112
  689SOL    HW1 2108   2.273   0.978   2.067
  689SOL    HW2 2109   2.148   0.872   2.070
  690SOL     OW 2110   2.328   1.737   2.182
  690SOL    HW1 2111   2.367   1.798   2.250
  690SOL    HW2 2112   2.401   1.703   2.122
  691SOL     OW 2113   2.127   1.801   0.103
  691SOL    HW1 2114   2.174   1.734   0.161
  691SOL    HW2 2115   2.077   1.753   0.031
  692SOL     OW 2116   2.792   1.700   2.759
  692SOL    HW1 2117   2.858   1.640   2.805
  692SOL    HW2 2118   2.751   1.652   2.681
  693SOL     OW 2119   2.257   0.685   2.342
  693SOL    HW1 2120   2.290   0.592   2.356
  693SOL    HW2 2121   2.159   0.690   2.361
  694SOL     OW 2122   2.491   0.122   1.972
  694SOL    HW1 2123   2.582   0.082   1.974
  694SOL    HW2 2124   2.447   0.101   1.885
  695SOL     OW 2125   2.665   1.398   2.789
  695SOL    HW1 2126   2.756   1.390   2.749
  695SOL    HW2 2127   2.595   1.394   2.717
  696SOL     OW 2128   2.783   0.520   2.755
  696SOL    HW1 2129   2.754   0.498   2.661
  696SOL    HW2 2130   2.815   0.437   2.800
  697SOL     OW 2131   2.404   0.059   2.364
  697SOL    HW1 2132   2.315   0.042   2.405
  697SOL    HW2 2133   2.397   0.135   2.299
  698SOL     OW 2134   2.147   0.031   2.062
  698SOL    HW1 2135   2.185   0.113   2.018
  698SOL    HW2 2136   2.222   2.971   2.091
  699SOL     OW 2137   2.811   0.251   2.317
  699SOL    HW1 2138   2.755   0.302   2.253
  699SOL    HW2 2139   2.896   0.222   2.271
  700SOL     OW 2140   0.081   1.572   2.661
  700SOL    HW1 2141   0.107   1.621   2.577
  700SOL    HW2 2142   0.163   1.551   2.714
  701SOL     OW 2143   2.327   1.146   2.596
  701SOL    HW1 2144   2.257   1.129   2.665
  701SOL    HW2 2145   2.288   1.131   2.505
  702SOL     OW 2146   2.881   0.549   1.883
  702SOL    HW1 2147   2.834   0.634   1.859
  702SOL    HW2 2148   2.941   0.565   1.961
  703SOL     OW 2149   2.741   0.467   2.494
  703SOL    HW1 2150   2.676   0.524   2.443
  703SOL    HW2 2151   2.743   0.375   2.454
  704SOL     OW 2152   2.855   0.056   2.613
  704SOL    HW1 2153   2.815   0.058   2.522
  704SOL    HW2 2154   2.836   2.967   2.656
  705SOL     OW 2155   2.352   1.416   2.022
  705SOL    HW1 2156   2.273   1.385   2.076
  705SOL    HW2 2157   2.339   1.389   1.927
  706SOL     OW 2158   2.396   0.267   2.180
  706SOL    HW1 2159   2.432   0.208   2.108
  706SOL    HW2 2160   2.368   0.354   2.141
  707SOL     OW 2161   2.571   1.058   2.234
  707SOL    HW1 2162   2.553   1.045   2.331
  707SOL    HW2 2163   2.654   1.008   2.208
  708SOL     OW 2164   2.216   1.109   2.351
  708SOL    HW1 2165   2.219   1.190   2.293
  708SOL    HW2 2166   2.212   1.027   2.293
  709SOL     OW 2167   2.410   0.549   2.730
  709SOL    HW1 2168   2.429   0.601   2.646
  709SOL    HW2 2169   2.481   0.568   2.798
  710SOL     OW 2170   2.439   0.872   2.880
  710SOL    HW1 2171   2.484   0.955   2.847
  710SOL    HW2 2172   2.416   0.882   2.976
  711SOL     OW 2173   0.053   0.533   2.133
  711SOL    HW1 2174   0.084   0.451   2.181
  711SOL    HW2 2175   0.016   0.598   2.199
  712SOL     OW 2176   2.598   0.646   2.915
  712SOL    HW1 2177   2.665   0.616   2.848
  712SOL    HW2 2178   2.554   0.731   2.884
  713SOL     OW 2179   2.174   0.065   2.511
  713SOL    HW1 2180   2.167   0.161   2.536
  713SOL    HW2 2181   2.152   0.008   2.590
  714SOL     OW 2182   2.873   0.776   2.829
  714SOL    HW1 2183   2.879   0.774   2.929
  714SOL    HW2 2184   2.864   0.682   2.794
  715SOL     OW 2185   2.910   1.343   2.697
  715SOL    HW1 2186   2.914   1.262   2.638
  715SOL    HW2 2187   2.978   1.410   2.666
  716SOL     OW 2188   2.172   0.809   2.808
  716SOL    HW1 2189   2.269   0.834   2.807
  716SOL    HW2 2190   2.163   0.714   2.837
  717SOL     OW 2191   2.181   0.536   2.870
  717SOL    HW1 2192   2.142   0.444   2.869
  717SOL    HW2 2193   2.263   0.538   2.814
  718SOL     OW 2194   1.865   1.320   2.057
  718SOL    HW1 2195   1.775   1.337   2.018
  718SOL    HW2 2196   1.869   1.227   2.093
  719SOL     OW 2197   1.952   1.795   2.794
  719SOL    HW1 2198   1.917   1.708   2.759
  719SOL    HW2 2199   2.049   1.804   2.769
  720SOL     OW 2200   2.366   1.579   2.763
  720SOL    HW1 2201   2.437   1.645   2.788
  720SOL    HW2 2202   2.405   1.508   2.705
  721SOL     OW 2203   2.844   0.757   0.103
  721SOL    HW1 2204   2.889   0.740   0.190
  721SOL    HW2 2205   2.746   0.769   0.118
  722SOL     OW 2206   2.669   0.565   2.215
  722SOL    HW1 2207   2.675   0.486   2.154
  722SOL    HW2 2208   2.593   0.623   2.186
  723SOL     OW 2209   2.554   0.436   0.076
  723SOL    HW1 2210   2.460   0.437   0.109
  723SOL    HW2 2211   2.571   0.519   0.022
  724SOL     OW 2212   2.327   0.497   2.052
  724SOL    HW1 2213   2.389   0.573   2.073
  724SOL    HW2 2214   2.235   0.532   2.037
  725SOL     OW 2215   1.942   1.269   2.885
  725SOL    HW1 2216   1.930   1.280   2.984
  725SOL    HW2 2217   1.869   1.212   2.849
  726SOL     OW 2218   2.531   1.617   2.016
  726SOL    HW1 2219   2.545   1.633   1.918
  726SOL    HW2 2220   2.475   1.536   2.029
  727SOL     OW 2221   2.130   0.330   2.613
  727SOL    HW1 2222   2.040   0.365   2.586
  727SOL    HW2 2223   2.130   0.309   2.710
  728SOL     OW 2224   2.790   0.923   2.154
  728SOL    HW1 2225   2.838   0.933   2.068
  728SOL    HW2 2226   2.821   0.840   2.201
  729SOL     OW 2227   2.914   1.082   2.588
  729SOL    HW1 2228   2.833   1.037   2.628
  729SOL    HW2 2229   2.935   1.038   2.500
  730SOL     OW 2230   2.886   0.236   2.817
  730SOL    HW1 2231   2.875   0.185   2.731
  730SOL    HW2 2232   2.878   0.173   2.894
  731SOL     OW 2233   2.461   1.485   2.342
  731SOL    HW1 2234   2.511   1.433   2.272
  731SOL    HW2 2235   2.395   1.546   2.298
  732SOL     OW 2236   2.117   1.348   2.150
  732SOL    HW1 2237   2.021   1.342   2.123
  732SOL    HW2 2238   2.123   1.385   2.242
  733SOL     OW 2239   1.940   0.336   1.898
  733SOL    HW1 2240   1.847   0.311   1.874
  733SOL    HW2 2241   1.970   0.414   1.843
  734SOL     OW 2242   1.896   0.207   2.156
  734SOL    HW1 2243   1.915   0.272   2.083
  734SOL    HW2 2244   1.969   0.138   2.160
  735SOL     OW 2245   2.456   0.740   2.526
  735SOL    HW1 2246   2.495   0.832   2.515
  735SOL    HW2 2247   2.381   0.727   2.461
  736SOL     OW 2248   2.731   1.368   1.901
  736SOL    HW1 2249   2.679   1.399   1.981
  736SOL    HW2 2250   2.749   1.446   1.841
  737SOL     OW 2251   2.528   1.797   2.823
  737SOL    HW1 2252   2.503   1.887   2.789
  737SOL    HW2 2253   2.625   1.780   2.803
  738SOL     OW 2254   2.713   0.962   2.721
  738SOL    HW1 2255   2.768   0.889   2.760
  738SOL    HW2 2256   2.683   1.024   2.795
  739SOL     OW 2257   2.936   0.953   1.928
  739SOL    HW1 2258   2.902   1.029   1.872
  739SOL    HW2 2259   0.028   0.975   1.961
  740SOL     OW 2260   1.946   1.236   2.527
  740SOL    HW1 2261   1.939   1.181   2.610
  740SOL    HW2 2262   2.015   1.196   2.466
  741SOL     OW 2263   2.334   0.428   2.412
  741SOL    HW1 2264   2.324   0.369   2.331
  741SOL    HW2 2265   2.267   0.402   2.481
  742SOL     OW 2266   2.683   1.584   2.539
  742SOL    HW1 2267   2.687   1.623   2.447
  742SOL    HW2 2268   2.604   1.523   2.545
  743SOL     OW 2269   2.634   1.333   2.177
  743SOL    HW1 2270   2.604   1.238   2.185
  743SOL    HW2 2271   2.718   1.346   2.229
  744SOL     OW 2272   1.907   1.071   2.168
  744SOL    HW1 2273   2.005   1.067   2.148
  744SOL    HW2 2274   1.875   0.979   2.192
  745SOL     OW 2275   2.735   1.650   2.210
  745SOL    HW1 2276   2.665   1.632   2.141
  745SOL    HW2 2277   2.713   1.734   2.259
  746SOL     OW 2278   2.090   2.495   0.112
  746SOL    HW1 2279   1.995   2.477   0.136
  746SOL    HW2 2280   2.109   2.457   0.021
  747SOL     OW 2281   2.084   2.143   0.993
  747SOL    HW1 2282   2.117   2.110   1.082
  747SOL    HW2 2283   1.992   2.110   0.978
  748SOL     OW 2284   1.868   2.248   0.636
  748SOL    HW1 2285   1.782   2.272   0.680
  748SOL    HW2 2286   1.856   2.164   0.582
  749SOL     OW 2287   2.594   0.001   1.018
  749SOL    HW1 2288   2.519   0.044   1.068
  749SOL    HW2 2289   2.644   0.070   0.966
  750SOL     OW 2290   2.724   2.636   1.819
  750SOL    HW1 2291   2.720   2.694   1.900
  750SOL    HW2 2292   2.754   2.689   1.740
  751SOL     OW 2293   2.515   2.848   0.711
  751SOL    HW1 2294   2.614   2.852   0.727
  751SOL    HW2 2295   2.486   2.929   0.660
  752SOL     OW 2296   2.309   2.261   1.491
  752SOL    HW1 2297   2.389   2.201   1.491
  752SOL    HW2 2298   2.226   2.206   1.500
  753SOL     OW 2299   2.112   0.306   0.472
  753SOL    HW1 2300   2.066   0.391   0.498
  753SOL    HW2 2301   2.056   0.229   0.499
  754SOL     OW 2302   2.109   2.944   0.883
  754SOL    HW1 2303   2.127   2.852   0.917
  754SOL    HW2 2304   2.067   2.999   0.955
  755SOL     OW 2305   2.481   2.831   0.151
  755SOL    HW1 2306   2.458   2.926   0.133
  755SOL    HW2 2307   2.554   2.825   0.219
  756SOL     OW 2308   1.975   2.514   0.564
  756SOL    HW1 2309   1.947   2.419   0.581
  756SOL    HW2 2310   1.968   2.567   0.648
  757SOL     OW 2311   1.985   2.605   1.585
  757SOL    HW1 2312   2.083   2.619   1.595
  757SOL    HW2 2313   1.937   2.690   1.605
  758SOL     OW 2314   2.524   0.251   0.678
  758SOL    HW1 2315   2.467   0.180   0.720
  758SOL    HW2 2316   2.466   0.313   0.626
  759SOL     OW 2317   2.674   1.867   0.505
  759SOL    HW1 2318   2.717   1.956   0.490
  759SOL    HW2 2319   2.575   1.880   0.516
  760SOL     OW 2320   2.058   2.842   1.256
  760SOL    HW1 2321   2.143   2.790   1.250
  760SOL    HW2 2322   1.981   2.783   1.231
  761SOL     OW 2323   2.194   2.112   1.816
  761SOL    HW1 2324   2.246   2.197   1.824
  761SOL    HW2 2325   2.099   2.128   1.844
  762SOL     OW 2326   2.453   2.581   0.274
  762SOL    HW1 2327   2.462   2.663   0.218
  762SOL    HW2 2328   2.383   2.594   0.344
  763SOL     OW 2329   2.647   2.485   1.452
  763SOL    HW1 2330   2.625   2.459   1.546
  763SOL    HW2 2331   2.610   2.417   1.389
  764SOL     OW 2332   2.824   2.744   1.582
  764SOL    HW1 2333   2.856   2.655   1.548
  764SOL    HW2 2334   2.770   2.789   1.511
  765SOL     OW 2335   2.850   2.237   1.256
  765SOL    HW1 2336   2.768   2.284   1.291
  765SOL    HW2 2337   2.842   2.226   1.157
  766SOL     OW 2338   2.889   2.579   0.409
  766SOL    HW1 2339   2.938   2.561   0.494
  766SOL    HW2 2340   2.811   2.516   0.402
  767SOL     OW 2341   1.947   2.685   0.778
  767SOL    HW1 2342   2.035   2.670   0.823
  767SOL    HW2 2343   1.906   2.769   0.813
  768SOL     OW 2344   2.785   2.194   0.219
  768SOL    HW1 2345   2.784   2.266   0.149
  768SOL    HW2 2346   2.761   2.107   0.177
  769SOL     OW 2347   2.409   2.044   0.896
  769SOL    HW1 2348   2.413   2.070   0.992
  769SOL    HW2 2349   2.412   2.126   0.839
  770SOL     OW 2350   2.064   2.148   1.502
  770SOL    HW1 2351   1.978   2.196   1.487
  770SOL    HW2 2352   2.048   2.070   1.563
  771SOL     OW 2353   2.251   2.551   0.476
  771SOL    HW1 2354   2.276   2.455   0.487
  771SOL    HW2 2355   2.153   2.562   0.496
  772SOL     OW 2356   2.487   1.979   0.117
  772SOL    HW1 2357   2.586   1.966   0.120
  772SOL    HW2 2358   2.450   1.931   0.037
  773SOL     OW 2359   2.629   2.142   1.758
  773SOL    HW1 2360   2.707   2.080   1.763
  773SOL    HW2 2361   2.566   2.123   1.833
  774SOL     OW 2362   2.788   2.364   0.901
  774SOL    HW1 2363   2.758   2.356   0.806
  774SOL    HW2 2364   2.827   2.277   0.931
  775SOL     OW 2365   2.406   1.923   0.502
  775SOL    HW1 2366   2.324   1.923   0.559
  775SOL    HW2 2367   2.404   2.003   0.442
  776SOL     OW 2368   2.814   2.099   0.464
  776SOL    HW1 2369   2.774   2.150   0.389
  776SOL    HW2 2370   2.906   2.068   0.439
  777SOL     OW 2371   2.881   2.377   0.038
  777SOL    HW1 2372   2.839   2.464   0.012
  777SOL    HW2 2373   2.944   2.392   0.114
  778SOL     OW 2374   1.944   2.422   1.389
  778SOL    HW1 2375   2.039   2.415   1.357
  778SOL    HW2 2376   1.938   2.493   1.459
  779SOL     OW 2377   2.423   2.087   1.167
  779SOL    HW1 2378   2.468   2.003   1.200
  779SOL    HW2 2379   2.328   2.087   1.197
  780SOL     OW 2380   2.742   2.319   0.634
  780SOL    HW1 2381   2.683   2.384   0.585
  780SOL    HW2 2382   2.749   2.234   0.583
  781SOL     OW 2383   2.855   1.924   0.756
  781SOL    HW1 2384   2.806   1.909   0.670
  781SOL    HW2 2385   2.848   1.842   0.813
  782SOL     OW 2386   2.379   2.123   0.320
  782SOL    HW1 2387   2.423   2.069   0.248
  782SOL    HW2 2388   2.360   2.215   0.286
  783SOL     OW 2389   2.754   1.950   1.386
  783SOL    HW1 2390   2.778   1.930   1.291
  783SOL    HW2 2391   2.830   1.995   1.432
  784SOL     OW 2392   2.276   2.678   1.255
  784SOL    HW1 2393   2.351   2.689   1.320
  784SOL    HW2 2394   2.239   2.586   1.263
  785SOL     OW 2395   2.418   2.403   0.862
  785SOL    HW1 2396   2.431   2.460   0.782
  785SOL    HW2 2397   2.484   2.427   0.933
  786SOL     OW 2398   2.275   2.603   1.602
  786SOL    HW1 2399   2.338   2.651   1.541
  786SOL    HW2 2400   2.311   2.511   1.623
  787SOL     OW 2401   2.857   1.992   1.772
  787SOL    HW1 2402   2.902   2.051   1.705
  787SOL    HW2 2403   2.899   1.901   1.768
  788SOL     OW 2404   2.357   1.905   1.747
  788SOL    HW1 2405   2.318   1.846   1.676
  788SOL    HW2 2406   2.295   1.983   1.762
  789SOL     OW 2407   2.450   2.728   1.037
  789SOL    HW1 2408   2.470   2.822   1.012
  789SOL    HW2 2409   2.384   2.726   1.112
  790SOL     OW 2410   0.059   2.400   0.268
  790SOL    HW1 2411   0.078   2.313   0.314
  790SOL    HW2 2412   0.026   2.467   0.334
  791SOL     OW 2413   2.164   2.066   1.245
  791SOL    HW1 2414   2.124   2.101   1.330
  791SOL    HW2 2415   2.151   1.967   1.240
  792SOL     OW 2416   2.589   2.492   1.059
  792SOL    HW1 2417   2.669   2.475   1.002
  792SOL    HW2 2418   2.554   2.584   1.042
  793SOL     OW 2419   2.162   1.928   0.625
  793SOL    HW1 2420   2.143   2.023   0.648
  793SOL    HW2 2421   2.173   1.875   0.709
  794SOL     OW 2422   2.858   2.622   0.980
  794SOL    HW1 2423   2.908   2.623   1.066
  794SOL    HW2 2424   2.860   2.530   0.940
  795SOL     OW 2425   2.225   2.786   1.799
  795SOL    HW1 2426   2.289   2.780   1.875
  795SOL    HW2 2427   2.245   2.713   1.733
  796SOL     OW 2428   2.176   2.672   0.944
  796SOL    HW1 2429   2.272   2.693   0.932
  796SOL    HW2 2430   2.166   2.579   0.981
  797SOL     OW 2431   2.195   2.386   1.011
  797SOL    HW1 2432   2.155   2.295   0.998
  797SOL    HW2 2433   2.275   2.395   0.952
  798SOL     OW 2434   2.965   2.243   1.670
  798SOL    HW1 2435   2.904   2.302   1.722
  798SOL    HW2 2436   0.058   2.280   1.673
  799SOL     OW 2437   2.973   2.069   1.470
  799SOL    HW1 2438   2.962   2.141   1.538
  799SOL    HW2 2439   2.972   2.109   1.378
  800SOL     OW 2440   2.855   2.667   1.262
  800SOL    HW1 2441   2.915   2.600   1.306
  800SOL    HW2 2442   2.771   2.623   1.232
  801SOL     OW 2443   1.898   2.414   1.115
  801SOL    HW1 2444   1.979   2.388   1.062
  801SOL    HW2 2445   1.922   2.415   1.213
  802SOL     OW 2446   2.053   2.381   1.724
  802SOL    HW1 2447   2.109   2.334   1.656
  802SOL    HW2 2448   2.005   2.457   1.681
  803SOL     OW 2449   2.670   2.428   0.356
  803SOL    HW1 2450   2.677   2.353   0.291
  803SOL    HW2 2451   2.592   2.487   0.332
  804SOL     OW 2452   2.558   2.317   1.261
  804SOL    HW1 2453   2.507   2.235   1.233
  804SOL    HW2 2454   2.560   2.382   1.186
  805SOL     OW 2455   2.305   2.356   0.210
  805SOL    HW1 2456   2.378   2.423   0.225
  805SOL    HW2 2457   2.221   2.403   0.185
  806SOL     OW 2458   2.018   2.993   1.477
  806SOL    HW1 2459   2.020   2.937   1.560
  806SOL    HW2 2460   2.036   2.935   1.398
  807SOL     OW 2461   2.761   1.935   0.128
  807SOL    HW1 2462   2.812   1.903   0.048
  807SOL    HW2 2463   2.800   1.893   0.210
  808SOL     OW 2464   2.123   2.178   0.719
  808SOL    HW1 2465   2.035   2.217   0.690
  808SOL    HW2 2466   2.124   2.167   0.818
  809SOL     OW 2467   2.676   2.866   1.377
  809SOL    HW1 2468   2.734   2.828   1.306
  809SOL    HW2 2469   2.703   2.961   1.395
  810SOL     OW 2470   2.741   2.786   0.287
  810SOL    HW1 2471   2.824   2.838   0.267
  810SOL    HW2 2472   2.761   2.715   0.355
  811SOL     OW 2473   2.882   2.101   0.969
  811SOL    HW1 2474   2.875   2.055   0.881
  811SOL    HW2 2475   2.869   2.035   1.043
  812SOL     OW 2476   1.975   2.864   1.711
  812SOL    HW1 2477   1.895   2.858   1.770
  812SOL    HW2 2478   2.057   2.843   1.764
  813SOL     OW 2479   2.531   2.063   1.502
  813SOL    HW1 2480   2.613   2.038   1.450
  813SOL    HW2 2481   2.557   2.094   1.593
  814SOL     OW 2482   1.933   2.018   0.339
  814SOL    HW1 2483   1.898   2.063   0.257
  814SOL    HW2 2484   2.030   1.997   0.328
  815SOL     OW 2485   2.476   2.694   1.434
  815SOL    HW1 2486   2.535   2.774   1.417
  815SOL    HW2 2487   2.533   2.613   1.443
  816SOL     OW 2488   2.581   2.424   1.704
  816SOL    HW1 2489   2.618   2.495   1.764
  816SOL    HW2 2490   2.609   2.334   1.737
  817SOL     OW 2491   2.453   2.587   0.662
  817SOL    HW1 2492   2.480   2.682   0.677
  817SOL    HW2 2493   2.380   2.583   0.594
  818SOL     OW 2494   2.755   2.838   0.866
  818SOL    HW1 2495   2.786   2.750   0.901
  818SOL    HW2 2496   2.680   2.872   0.922
  819SOL     OW 2497   2.294   2.291   0.530
  819SOL    HW1 2498   2.325   2.220   0.467
  819SOL    HW2 2499   2.241   2.250   0.604
  820SOL     OW 2500   2.193   2.415   1.288
  820SOL    HW1 2501   2.250   2.360   1.349
  820SOL    HW2 2502   2.210   2.389   1.193
  821SOL     OW 2503   2.867   1.879   1.142
  821SOL    HW1 2504   2.807   1.809   1.101
  821SOL    HW2 2505   2.962   1.859   1.118
  822SOL     OW 2506   1.869   2.912   0.299
  822SOL    HW1 2507   1.957   2.920   0.254
  822SOL    HW2 2508   1.859   2.820   0.338
  823SOL     OW 2509   2.092   2.466   1.983
  823SOL    HW1 2510   2.003   2.492   2.022
  823SOL    HW2 2511   2.082   2.450   1.885
  824SOL     OW 2512   2.088   2.143   2.847
  824SOL    HW1 2513   2.120   2.115   2.937
  824SOL    HW2 2514   1.994   2.111   2.833
  825SOL     OW 2515   1.869   2.247   2.494
  825SOL    HW1 2516   1.784   2.278   2.538
  825SOL    HW2 2517   1.853   2.160   2.448
  826SOL     OW 2518   2.646   0.017   2.879
  826SOL    HW1 2519   2.562   0.017   2.934
  826SOL    HW2 2520   2.646   0.095   2.816
  827SOL     OW 2521   2.512   2.844   2.570
  827SOL    HW1 2522   2.608   2.845   2.597
  827SOL    HW2 2523   2.489   2.929   2.522
  828SOL     OW 2524   2.101   0.299   2.329
  828SOL    HW1 2525   2.060   0.386   2.356
  828SOL    HW2 2526   2.052   0.224   2.373
  829SOL     OW 2527   2.112   2.947   2.749
  829SOL    HW1 2528   2.128   2.853   2.779
  829SOL    HW2 2529   2.061   2.996   2.820
  830SOL     OW 2530   2.465   2.823   1.997
  830SOL    HW1 2531   2.457   2.907   1.943
  830SOL    HW2 2532   2.535   2.835   2.067
  831SOL     OW 2533   1.976   2.513   2.427
  831SOL    HW1 2534   1.947   2.419   2.445
  831SOL    HW2 2535   1.970   2.567   2.511
  832SOL     OW 2536   2.496   0.249   2.568
  832SOL    HW1 2537   2.460   0.159   2.544
  832SOL    HW2 2538   2.464   0.316   2.501
  833SOL     OW 2539   2.674   1.867   2.366
  833SOL    HW1 2540   2.719   1.955   2.349
  833SOL    HW2 2541   2.576   1.881   2.379
  834SOL     OW 2542   2.062   2.805   0.115
  834SOL    HW1 2543   2.132   2.734   0.107
  834SOL    HW2 2544   1.973   2.768   0.090
  835SOL     OW 2545   2.458   2.580   2.131
  835SOL    HW1 2546   2.463   2.660   2.071
  835SOL    HW2 2547   2.388   2.596   2.201
  836SOL     OW 2548   2.894   2.577   2.273
  836SOL    HW1 2549   2.935   2.565   2.363
  836SOL    HW2 2550   2.812   2.521   2.265
  837SOL     OW 2551   1.948   2.686   2.640
  837SOL    HW1 2552   2.034   2.670   2.687
  837SOL    HW2 2553   1.904   2.768   2.677
  838SOL     OW 2554   2.749   2.210   2.058
  838SOL    HW1 2555   2.789   2.277   1.995
  838SOL    HW2 2556   2.751   2.119   2.016
  839SOL     OW 2557   2.407   2.045   2.766
  839SOL    HW1 2558   2.379   2.080   2.856
  839SOL    HW2 2559   2.421   2.122   2.703
  840SOL     OW 2560   2.251   2.550   2.337
  840SOL    HW1 2561   2.276   2.454   2.348
  840SOL    HW2 2562   2.154   2.562   2.358
  841SOL     OW 2563   2.496   1.985   1.965
  841SOL    HW1 2564   2.567   1.918   1.987
  841SOL    HW2 2565   2.443   1.952   1.887
  842SOL     OW 2566   2.786   2.376   2.755
  842SOL    HW1 2567   2.759   2.356   2.661
  842SOL    HW2 2568   2.817   2.292   2.800
  843SOL     OW 2569   2.407   1.925   2.363
  843SOL    HW1 2570   2.324   1.924   2.420
  843SOL    HW2 2571   2.406   2.007   2.305
  844SOL     OW 2572   2.155   1.911   2.045
  844SOL    HW1 2573   2.210   1.984   2.004
  844SOL    HW2 2574   2.216   1.844   2.088
  845SOL     OW 2575   2.807   2.102   2.313
  845SOL    HW1 2576   2.764   2.154   2.239
  845SOL    HW2 2577   2.900   2.075   2.285
  846SOL     OW 2578   2.881   2.412   1.883
  846SOL    HW1 2579   2.832   2.495   1.857
  846SOL    HW2 2580   2.937   2.430   1.964
  847SOL     OW 2581   2.742   2.317   2.494
  847SOL    HW1 2582   2.681   2.382   2.447
  847SOL    HW2 2583   2.747   2.233   2.441
  848SOL     OW 2584   2.852   1.924   2.609
  848SOL    HW1 2585   2.801   1.901   2.526
  848SOL    HW2 2586   2.850   1.846   2.672
  849SOL     OW 2587   2.392   2.125   2.179
  849SOL    HW1 2588   2.433   2.071   2.106
  849SOL    HW2 2589   2.367   2.215   2.143
  850SOL     OW 2590   2.415   2.398   2.724
  850SOL    HW1 2591   2.428   2.456   2.644
  850SOL    HW2 2592   2.479   2.426   2.796
  851SOL     OW 2593   2.437   2.729   2.886
  851SOL    HW1 2594   2.480   2.806   2.839
  851SOL    HW2 2595   2.430   2.749   2.983
  852SOL     OW 2596   0.051   2.392   2.136
  852SOL    HW1 2597   0.087   2.315   2.188
  852SOL    HW2 2598   0.007   2.456   2.198
  853SOL     OW 2599   2.164   2.068   0.090
  853SOL    HW1 2600   2.195   2.108   0.176
  853SOL    HW2 2601   2.153   1.969   0.101
  854SOL     OW 2602   2.591   2.499   2.910
  854SOL    HW1 2603   2.665   2.477   2.847
  854SOL    HW2 2604   2.553   2.589   2.887
  855SOL     OW 2605   2.162   1.927   2.487
  855SOL    HW1 2606   2.143   2.022   2.509
  855SOL    HW2 2607   2.171   1.874   2.571
  856SOL     OW 2608   2.874   2.630   2.824
  856SOL    HW1 2609   2.894   2.635   2.922
  856SOL    HW2 2610   2.865   2.534   2.797
  857SOL     OW 2611   2.173   2.671   2.806
  857SOL    HW1 2612   2.270   2.696   2.812
  857SOL    HW2 2613   2.162   2.575   2.835
  858SOL     OW 2614   2.182   2.397   2.864
  858SOL    HW1 2615   2.142   2.305   2.859
  858SOL    HW2 2616   2.267   2.399   2.812
  859SOL     OW 2617   2.878   2.645   0.093
  859SOL    HW1 2618   2.926   2.636   0.181
  859SOL    HW2 2619   2.784   2.675   0.110
  860SOL     OW 2620   2.674   2.430   2.217
  860SOL    HW1 2621   2.679   2.350   2.158
  860SOL    HW2 2622   2.597   2.487   2.190
  861SOL     OW 2623   2.564   2.310   0.097
  861SOL    HW1 2624   2.472   2.271   0.093
  861SOL    HW2 2625   2.571   2.385   0.032
  862SOL     OW 2626   2.329   2.355   2.052
  862SOL    HW1 2627   2.389   2.431   2.076
  862SOL    HW2 2628   2.237   2.389   2.035
  863SOL     OW 2629   0.166   2.699   2.159
  863SOL    HW1 2630   0.105   2.647   2.218
  863SOL    HW2 2631   0.204   2.639   2.089
  864SOL     OW 2632   2.124   2.179   2.577
  864SOL    HW1 2633   2.036   2.218   2.549
  864SOL    HW2 2634   2.126   2.170   2.676
  865SOL     OW 2635   2.759   2.763   2.109
  865SOL    HW1 2636   2.836   2.819   2.078
  865SOL    HW2 2637   2.789   2.701   2.181
  866SOL     OW 2638   2.878   2.102   2.816
  866SOL    HW1 2639   2.870   2.052   2.729
  866SOL    HW2 2640   2.905   2.039   2.888
  867SOL     OW 2641   1.940   2.193   1.892
  867SOL    HW1 2642   1.846   2.175   1.863
  867SOL    HW2 2643   1.975   2.274   1.845
  868SOL     OW 2644   1.931   2.020   2.172
  868SOL    HW1 2645   1.914   2.105   2.123
  868SOL    HW2 2646   2.019   1.983   2.144
  869SOL     OW 2647   2.454   2.583   2.522
  869SOL    HW1 2648   2.481   2.678   2.538
  869SOL    HW2 2649   2.379   2.580   2.456
  870SOL     OW 2650   2.745   2.831   2.714
  870SOL    HW1 2651   2.790   2.751   2.752
  870SOL    HW2 2652   2.708   2.887   2.789
  871SOL     OW 2653   2.948   2.840   1.900
  871SOL    HW1 2654   2.913   2.933   1.909
  871SOL    HW2 2655   0.012   2.822   1.974
  872SOL     OW 2656   2.295   2.291   2.388
  872SOL    HW1 2657   2.324   2.219   2.325
  872SOL    HW2 2658   2.242   2.251   2.463
  873SOL     OW 2659   1.887   2.917   2.176
  873SOL    HW1 2660   1.973   2.933   2.127
  873SOL    HW2 2661   1.879   2.820   2.199
   3.00000   3.00000   3.00000
