GROwing Monsters And Cloning Shrimps in water
 6361
    1UR       C    1   2.180   2.992   3.754
    1UR       O    2   2.296   2.940   3.761
    1UR      N1    3   2.167   3.121   3.717
    1UR      H1    4   2.076   3.163   3.713
    1UR      H2    5   2.247   3.174   3.691
    1UR      N2    6   2.070   2.919   3.783
    1UR      H3    7   2.077   2.824   3.811
    1UR      H4    8   1.979   2.960   3.780
    2UR       C    9   2.135   3.634   2.758
    2UR       O   10   2.073   3.711   2.679
    2UR      N1   11   2.171   3.678   2.881
    2UR      H1   12   2.220   3.620   2.945
    2UR      H2   13   2.151   3.773   2.905
    2UR      N2   14   2.164   3.507   2.722
    2UR      H3   15   2.136   3.473   2.632
    2UR      H4   16   2.213   3.444   2.783
    3UR       C   17   2.551   0.271   3.495
    3UR       O   18   2.559   0.151   3.534
    3UR      N1   19   2.474   0.355   3.567
    3UR      H1   20   2.498   0.419   3.494
    3UR      H2   21   2.426   0.436   3.602
    3UR      N2   22   2.615   0.311   3.383
    3UR      H3   23   2.669   0.244   3.332
    3UR      H4   24   2.611   0.403   3.345
    4UR       C   25   3.403   1.260   3.949
    4UR       O   26   3.371   1.147   3.902
    4UR      N1   27   3.374   1.290   0.078
    4UR      H1   28   3.407   1.380   0.051
    4UR      H2   29   3.366   1.335   0.166
    4UR      N2   30   3.466   1.348   3.868
    4UR      H3   31   3.485   1.321   3.774
    4UR      H4   32   3.492   1.439   3.898
    5UR       C   33   0.025   1.246   1.438
    5UR       O   34   0.005   1.352   1.506
    5UR      N1   35   3.922   1.162   1.416
    5UR      H1   36   3.995   1.109   1.373
    5UR      H2   37   3.866   1.085   1.385
    5UR      N2   38   0.147   1.221   1.388
    5UR      H3   39   0.223   1.283   1.408
    5UR      H4   40   0.170   1.138   1.337
    6UR       C   41   3.012   1.215   0.833
    6UR       O   42   2.936   1.307   0.877
    6UR      N1   43   2.955   1.113   0.765
    6UR      H1   44   3.049   1.079   0.762
    6UR      H2   45   2.939   1.029   0.715
    6UR      N2   46   3.144   1.221   0.861
    6UR      H3   47   3.181   1.297   0.914
    6UR      H4   48   3.209   1.151   0.829
    7UR       C   49   3.737   3.708   0.614
    7UR       O   50   3.634   3.649   0.569
    7UR      N1   51   3.758   3.837   0.582
    7UR      H1   52   3.694   3.885   0.523
    7UR      H2   53   3.839   3.887   0.616
    7UR      N2   54   3.827   3.639   0.687
    7UR      H3   55   3.810   3.543   0.709
    7UR      H4   56   3.911   3.681   0.721
    8UR       C   57   3.914   3.388   1.494
    8UR       O   58   3.825   3.355   1.578
    8UR      N1   59   3.880   3.393   1.363
    8UR      H1   60   3.977   3.419   1.355
    8UR      H2   61   3.886   3.406   1.264
    8UR      N2   62   0.040   3.416   1.534
    8UR      H3   63   0.064   3.413   1.631
    8UR      H4   64   0.114   3.442   1.472
    9UR       C   65   3.489   3.392   1.938
    9UR       O   66   3.539   3.502   1.974
    9UR      N1   67   3.553   3.276   1.967
    9UR      H1   68   3.514   3.189   1.938
    9UR      H2   69   3.638   3.275   2.019
    9UR      N2   70   3.371   3.391   1.872
    9UR      H3   71   3.325   3.476   1.848
    9UR      H4   72   3.329   3.305   1.842
   10UR       C   73   3.415   1.318   0.695
   10UR       O   74   3.422   1.219   0.774
   10UR      N1   75   3.520   1.342   0.613
   10UR      H1   76   3.460   1.416   0.581
   10UR      H2   77   3.582   1.381   0.545
   10UR      N2   78   3.305   1.397   0.695
   10UR      H3   79   3.228   1.376   0.755
   10UR      H4   80   3.294   1.475   0.634
   11UR       C   81   2.485   1.640   0.608
   11UR       O   82   2.597   1.601   0.650
   11UR      N1   83   2.417   1.559   0.524
   11UR      H1   84   2.352   1.635   0.524
   11UR      H2   85   2.346   1.520   0.465
   11UR      N2   86   2.436   1.759   0.648
   11UR      H3   87   2.489   1.814   0.712
   11UR      H4   88   2.347   1.795   0.620
   12UR       C   89   3.914   2.182   2.186
   12UR       O   90   3.798   2.193   2.235
   12UR      N1   91   3.963   2.058   2.166
   12UR      H1   92   0.044   2.110   2.138
   12UR      H2   93   0.024   1.982   2.141
   12UR      N2   94   3.989   2.292   2.163
   12UR      H3   95   3.952   2.384   2.180
   12UR      H4   96   0.082   2.286   2.128
   13UR       C   97   1.469   1.861   1.207
   13UR       O   98   1.575   1.880   1.275
   13UR      N1   99   1.419   1.963   1.135
   13UR      H1  100   1.336   1.954   1.079
   13UR      H2  101   1.468   2.051   1.135
   13UR      N2  102   1.408   1.741   1.208
   13UR      H3  103   1.448   1.665   1.260
   13UR      H4  104   1.325   1.722   1.154
   14UR       C  105   1.782   2.039   0.026
   14UR       O  106   1.705   1.965   0.095
   14UR      N1  107   1.868   1.982   3.939
   14UR      H1  108   1.892   2.077   3.919
   14UR      H2  109   1.939   1.967   3.870
   14UR      N2  110   1.776   2.173   0.044
   14UR      H3  111   1.711   2.209   0.111
   14UR      H4  112   1.834   2.237   3.994
   15UR       C  113   3.837   3.975   1.680
   15UR       O  114   3.751   3.900   1.732
   15UR      N1  115   3.887   0.079   1.750
   15UR      H1  116   3.954   0.143   1.712
   15UR      H2  117   3.854   0.096   1.843
   15UR      N2  118   3.876   3.958   1.551
   15UR      H3  119   3.839   3.880   1.499
   15UR      H4  120   3.941   0.019   1.506
   16UR       C  121   3.528   1.076   3.629
   16UR       O  122   3.608   0.984   3.659
   16UR      N1  123   3.577   1.202   3.614
   16UR      H1  124   3.480   1.222   3.599
   16UR      H2  125   3.586   1.299   3.596
   16UR      N2  126   3.398   1.048   3.605
   16UR      H3  127   3.368   0.954   3.616
   16UR      H4  128   3.330   1.117   3.579
   17UR       C  129   2.815   0.382   2.903
   17UR       O  130   2.902   0.464   2.945
   17UR      N1  131   2.714   0.423   2.824
   17UR      H1  132   2.645   0.359   2.790
   17UR      H2  133   2.706   0.518   2.793
   17UR      N2  134   2.824   0.251   2.935
   17UR      H3  135   2.898   0.215   2.992
   17UR      H4  136   2.757   0.186   2.900
   18UR       C  137   1.000   0.867   0.749
   18UR       O  138   0.972   0.974   0.687
   18UR      N1  139   1.104   0.866   0.836
   18UR      H1  140   1.159   0.949   0.847
   18UR      H2  141   1.128   0.784   0.888
   18UR      N2  142   0.928   0.755   0.729
   18UR      H3  143   0.851   0.756   0.666
   18UR      H4  144   0.949   0.670   0.777
   19UR       C  145   2.123   3.094   0.472
   19UR       O  146   2.183   2.986   0.499
   19UR      N1  147   2.186   3.185   0.395
   19UR      H1  148   2.104   3.238   0.415
   19UR      H2  149   2.208   3.267   0.341
   19UR      N2  150   1.999   3.116   0.522
   19UR      H3  151   1.957   3.045   0.579
   19UR      H4  152   1.947   3.199   0.504
   20UR       C  153   0.120   0.972   1.753
   20UR       O  154   0.139   1.093   1.722
   20UR      N1  155   0.184   0.872   1.688
   20UR      H1  156   0.172   0.777   1.716
   20UR      H2  157   0.249   0.892   1.615
   20UR      N2  158   0.033   0.941   1.852
   20UR      H3  159   3.986   1.014   1.901
   20UR      H4  160   0.017   0.847   1.881
   21UR       C  161   2.747   3.891   0.197
   21UR       O  162   2.716   0.013   0.180
   21UR      N1  163   2.728   3.802   0.098
   21UR      H1  164   2.749   3.705   0.110
   21UR      H2  165   2.693   3.831   0.009
   21UR      N2  166   2.794   3.848   0.317
   21UR      H3  167   2.803   3.913   0.392
   21UR      H4  168   2.819   3.753   0.331
   22UR       C  169   2.763   2.422   2.574
   22UR       O  170   2.649   2.368   2.560
   22UR      N1  171   2.777   2.529   2.655
   22UR      H1  172   2.866   2.574   2.669
   22UR      H2  173   2.696   2.566   2.701
   22UR      N2  174   2.870   2.373   2.508
   22UR      H3  175   2.856   2.294   2.447
   22UR      H4  176   2.962   2.409   2.517
   23UR       C  177   0.904   2.486   2.178
   23UR       O  178   0.806   2.455   2.252
   23UR      N1  179   0.896   2.469   2.044
   23UR      H1  180   0.971   2.494   1.982
   23UR      H2  181   0.811   2.436   2.004
   23UR      N2  182   1.015   2.539   2.232
   23UR      H3  183   1.020   2.551   2.331
   23UR      H4  184   1.096   2.563   2.178
   24UR       C  185   3.645   2.363   0.636
   24UR       O  186   3.707   2.466   0.596
   24UR      N1  187   3.714   2.255   0.677
   24UR      H1  188   3.667   2.171   0.707
   24UR      H2  189   3.814   2.256   0.682
   24UR      N2  190   3.510   2.360   0.636
   24UR      H3  191   3.457   2.440   0.609
   24UR      H4  192   3.460   2.278   0.664
   25UR       C  193   2.543   2.391   0.765
   25UR       O  194   2.558   2.268   0.793
   25UR      N1  195   2.444   2.463   0.822
   25UR      H1  196   2.423   2.554   0.788
   25UR      H2  197   2.398   2.429   0.905
   25UR      N2  198   2.634   2.459   0.693
   25UR      H3  199   2.715   2.415   0.652
   25UR      H4  200   2.625   2.558   0.685
   26UR       C  201   0.498   1.139   1.399
   26UR       O  202   0.404   1.157   1.482
   26UR      N1  203   0.483   1.048   1.300
   26UR      H1  204   0.573   1.081   1.274
   26UR      H2  205   0.498   0.988   1.221
   26UR      N2  206   0.612   1.211   1.412
   26UR      H3  207   0.619   1.278   1.486
   26UR      H4  208   0.689   1.200   1.350
   27UR       C  209   0.210   0.358   2.207
   27UR       O  210   0.288   0.458   2.198
   27UR      N1  211   0.262   0.234   2.216
   27UR      H1  212   0.205   0.152   2.222
   27UR      H2  213   0.362   0.223   2.217
   27UR      N2  214   0.076   0.377   2.204
   27UR      H3  215   0.040   0.470   2.198
   27UR      H4  216   0.012   0.301   2.210
   28UR       C  217   1.208   1.249   0.442
   28UR       O  218   1.123   1.254   0.349
   28UR      N1  219   1.335   1.288   0.418
   28UR      H1  220   1.405   1.287   0.490
   28UR      H2  221   1.364   1.322   0.329
   28UR      N2  222   1.173   1.204   0.565
   28UR      H3  223   1.080   1.173   0.581
   28UR      H4  224   1.240   1.199   0.639
   29UR       C  225   3.742   3.211   3.846
   29UR       O  226   3.857   3.257   3.869
   29UR      N1  227   3.731   3.110   3.757
   29UR      H1  228   3.634   3.118   3.781
   29UR      H2  229   3.695   3.038   3.698
   29UR      N2  230   3.634   3.262   3.908
   29UR      H3  231   3.646   3.337   3.974
   29UR      H4  232   3.540   3.229   3.895
   30UR       C  233   2.044   3.559   3.202
   30UR       O  234   1.929   3.506   3.195
   30UR      N1  235   2.153   3.482   3.186
   30UR      H1  236   2.246   3.519   3.196
   30UR      H2  237   2.144   3.385   3.165
   30UR      N2  238   2.058   3.691   3.228
   30UR      H3  239   1.978   3.750   3.239
   30UR      H4  240   2.149   3.731   3.239
   31UR       C  241   0.583   0.981   0.829
   31UR       O  242   0.609   1.105   0.834
   31UR      N1  243   0.678   0.890   0.862
   31UR      H1  244   0.659   0.792   0.856
   31UR      H2  245   0.768   0.920   0.892
   31UR      N2  246   0.462   0.936   0.790
   31UR      H3  247   0.391   1.002   0.765
   31UR      H4  248   0.440   0.839   0.784
   32UR       C  249   3.056   2.119   1.309
   32UR       O  250   3.101   2.136   1.192
   32UR      N1  251   3.036   1.992   1.351
   32UR      H1  252   3.013   2.037   1.437
   32UR      H2  253   3.013   1.910   1.404
   32UR      N2  254   3.032   2.226   1.388
   32UR      H3  255   3.053   2.317   1.352
   32UR      H4  256   2.999   2.220   1.482
   33UR       C  257   1.207   1.584   2.886
   33UR       O  258   1.273   1.499   2.818
   33UR      N1  259   1.112   1.540   2.971
   33UR      H1  260   1.054   1.601   3.026
   33UR      H2  261   1.099   1.442   2.983
   33UR      N2  262   1.227   1.716   2.870
   33UR      H3  263   1.300   1.748   2.809
   33UR      H4  264   1.175   1.787   2.918
   34UR       C  265   0.851   0.735   3.982
   34UR       O  266   0.920   0.631   3.960
   34UR      N1  267   0.775   0.744   0.093
   34UR      H1  268   0.719   0.825   0.113
   34UR      H2  269   0.776   0.669   0.160
   34UR      N2  270   0.851   0.837   3.894
   34UR      H3  271   0.908   0.834   3.812
   34UR      H4  272   0.798   0.921   3.910
   35UR       C  273   2.141   1.539   1.424
   35UR       O  274   2.023   1.580   1.403
   35UR      N1  275   2.163   1.407   1.445
   35UR      H1  276   2.257   1.374   1.459
   35UR      H2  277   2.089   1.341   1.446
   35UR      N2  278   2.244   1.626   1.424
   35UR      H3  279   2.230   1.723   1.406
   35UR      H4  280   2.337   1.592   1.437
   36UR       C  281   0.524   3.158   1.622
   36UR       O  282   0.485   3.276   1.640
   36UR      N1  283   0.653   3.127   1.648
   36UR      H1  284   0.690   3.036   1.632
   36UR      H2  285   0.713   3.199   1.684
   36UR      N2  286   0.440   3.062   1.577
   36UR      H3  287   0.345   3.084   1.558
   36UR      H4  288   0.469   2.967   1.562
   37UR       C  289   3.678   3.057   1.263
   37UR       O  290   3.588   2.973   1.232
   37UR      N1  291   3.785   3.016   1.335
   37UR      H1  292   3.861   3.079   1.354
   37UR      H2  293   3.791   2.922   1.368
   37UR      N2  294   3.672   3.184   1.218
   37UR      H3  295   3.592   3.214   1.165
   37UR      H4  296   3.742   3.251   1.242
   38UR       C  297   0.044   2.751   1.175
   38UR       O  298   0.066   2.870   1.213
   38UR      N1  299   3.918   2.707   1.153
   38UR      H1  300   3.901   2.613   1.124
   38UR      H2  301   3.840   2.769   1.164
   38UR      N2  302   0.148   2.667   1.158
   38UR      H3  303   0.242   2.697   1.173
   38UR      H4  304   0.133   2.572   1.128
   39UR       C  305   2.439   3.900   2.609
   39UR       O  306   2.429   3.774   2.618
   39UR      N1  307   2.562   3.951   2.584
   39UR      H1  308   2.512   0.038   2.589
   39UR      H2  309   2.638   0.014   2.565
   39UR      N2  310   2.328   3.976   2.619
   39UR      H3  311   2.240   3.935   2.637
   39UR      H4  312   2.332   0.076   2.613
   40UR       C  313   3.132   0.117   0.466
   40UR       O  314   3.099   0.189   0.564
   40UR      N1  315   3.231   0.159   0.385
   40UR      H1  316   3.208   0.076   0.334
   40UR      H2  317   3.299   0.165   0.311
   40UR      N2  318   3.063   0.003   0.443
   40UR      H3  319   2.990   3.977   0.508
   40UR      H4  320   3.082   3.942   0.367
   41UR       C  321   1.757   0.665   1.450
   41UR       O  322   1.653   0.594   1.448
   41UR      N1  323   1.872   0.605   1.413
   41UR      H1  324   1.911   0.693   1.439
   41UR      H2  325   1.968   0.588   1.389
   41UR      N2  326   1.748   0.796   1.481
   41UR      H3  327   1.660   0.836   1.504
   41UR      H4  328   1.827   0.858   1.479
   42UR       C  329   3.074   2.582   0.389
   42UR       O  330   3.076   2.708   0.379
   42UR      N1  331   3.058   2.507   0.277
   42UR      H1  332   3.056   2.407   0.282
   42UR      H2  333   3.048   2.554   0.190
   42UR      N2  334   3.089   2.522   0.509
   42UR      H3  335   3.101   2.579   0.590
   42UR      H4  336   3.088   2.423   0.517
   43UR       C  337   0.981   3.353   0.646
   43UR       O  338   1.042   3.462   0.626
   43UR      N1  339   0.857   3.339   0.593
   43UR      H1  340   0.858   3.251   0.642
   43UR      H2  341   0.767   3.305   0.565
   43UR      N2  342   1.039   3.259   0.723
   43UR      H3  343   1.130   3.278   0.761
   43UR      H4  344   0.999   3.170   0.741
   44UR       C  345   3.482   3.646   2.629
   44UR       O  346   3.506   3.530   2.675
   44UR      N1  347   3.580   3.718   2.571
   44UR      H1  348   3.562   3.810   2.535
   44UR      H2  349   3.673   3.681   2.564
   44UR      N2  350   3.357   3.697   2.639
   44UR      H3  351   3.284   3.644   2.680
   44UR      H4  352   3.336   3.788   2.605
   45UR       C  353   2.779   1.709   0.235
   45UR       O  354   2.822   1.820   0.192
   45UR      N1  355   2.796   1.599   0.159
   45UR      H1  356   2.761   1.511   0.191
   45UR      H2  357   2.845   1.604   0.072
   45UR      N2  358   2.718   1.698   0.355
   45UR      H3  359   2.706   1.777   0.415
   45UR      H4  360   2.680   1.610   0.386
   46UR       C  361   1.711   3.029   2.314
   46UR       O  362   1.683   2.912   2.273
   46UR      N1  363   1.608   3.105   2.355
   46UR      H1  364   1.681   3.172   2.370
   46UR      H2  365   1.552   3.181   2.391
   46UR      N2  366   1.838   3.072   2.314
   46UR      H3  367   1.912   3.011   2.284
   46UR      H4  368   1.865   3.163   2.346
   47UR       C  369   1.512   1.343   1.381
   47UR       O  370   1.576   1.256   1.317
   47UR      N1  371   1.412   1.305   1.464
   47UR      H1  372   1.404   1.404   1.479
   47UR      H2  373   1.337   1.305   1.530
   47UR      N2  374   1.541   1.474   1.363
   47UR      H3  375   1.614   1.499   1.300
   47UR      H4  376   1.493   1.547   1.411
   48UR       C  377   0.112   0.180   2.957
   48UR       O  378   3.987   0.165   2.976
   48UR      N1  379   0.178   0.094   2.876
   48UR      H1  380   0.276   0.100   2.861
   48UR      H2  381   0.128   0.019   2.833
   48UR      N2  382   0.178   0.281   3.016
   48UR      H3  383   0.128   0.345   3.074
   48UR      H4  384   0.277   0.294   3.004
   49UR       C  385   0.720   0.353   0.620
   49UR       O  386   0.706   0.232   0.654
   49UR      N1  387   0.726   0.389   0.491
   49UR      H1  388   0.739   0.485   0.464
   49UR      H2  389   0.715   0.321   0.419
   49UR      N2  390   0.731   0.449   0.715
   49UR      H3  391   0.726   0.423   0.811
   49UR      H4  392   0.740   0.545   0.689
   50UR       C  393   1.358   3.773   0.075
   50UR       O  394   1.254   3.741   0.010
   50UR      N1  395   1.445   3.679   0.116
   50UR      H1  396   1.528   3.704   0.165
   50UR      H2  397   1.429   3.582   0.097
   50UR      N2  398   1.386   3.903   0.098
   50UR      H3  399   1.325   3.975   0.065
   50UR      H4  400   1.469   3.930   0.147
   51SOL     OW  401   0.235   0.638   0.129
   51SOL    HW1  402   0.141   0.628   0.162
   51SOL    HW2  403   0.236   0.627   0.029
   52SOL     OW  404   0.218   0.284   0.985
   52SOL    HW1  405   0.248   0.243   1.071
   52SOL    HW2  406   0.119   0.272   0.975
   53SOL     OW  407   0.020   0.392   0.632
   53SOL    HW1  408   3.928   0.408   0.667
   53SOL    HW2  409   0.032   0.295   0.613
   54SOL     OW  410   0.579   1.307   1.144
   54SOL    HW1  411   0.486   1.308   1.108
   54SOL    HW2  412   0.597   1.392   1.193
   55SOL     OW  413   1.564   1.506   0.704
   55SOL    HW1  414   1.522   1.504   0.794
   55SOL    HW2  415   1.495   1.525   0.634
   56SOL     OW  416   1.828   0.553   0.228
   56SOL    HW1  417   1.771   0.586   0.152
   56SOL    HW2  418   1.773   0.493   0.287
   57SOL     OW  419   0.787   1.150   1.079
   57SOL    HW1  420   0.704   1.201   1.101
   57SOL    HW2  421   0.818   1.174   0.987
   58SOL     OW  422   0.868   0.773   1.820
   58SOL    HW1  423   0.853   0.839   1.893
   58SOL    HW2  424   0.891   0.822   1.735
   59SOL     OW  425   0.707   1.154   1.807
   59SOL    HW1  426   0.756   1.234   1.842
   59SOL    HW2  427   0.617   1.181   1.773
   60SOL     OW  428   0.337   1.404   1.074
   60SOL    HW1  429   0.252   1.384   1.025
   60SOL    HW2  430   0.392   1.468   1.020
   61SOL     OW  431   0.449   0.390   1.494
   61SOL    HW1  432   0.541   0.350   1.494
   61SOL    HW2  433   0.381   0.317   1.495
   62SOL     OW  434   1.617   0.450   0.733
   62SOL    HW1  435   1.535   0.471   0.680
   62SOL    HW2  436   1.640   0.528   0.791
   63SOL     OW  437   0.224   1.703   0.494
   63SOL    HW1  438   0.247   1.789   0.539
   63SOL    HW2  439   0.274   1.695   0.408
   64SOL     OW  440   1.146   1.337   1.687
   64SOL    HW1  441   1.191   1.340   1.776
   64SOL    HW2  442   1.084   1.258   1.683
   65SOL     OW  443   0.248   1.438   0.541
   65SOL    HW1  444   0.228   1.536   0.535
   65SOL    HW2  445   0.182   1.394   0.601
   66SOL     OW  446   0.215   1.053   0.886
   66SOL    HW1  447   0.242   0.968   0.931
   66SOL    HW2  448   0.178   1.116   0.954
   67SOL     OW  449   0.611   1.791   1.432
   67SOL    HW1  450   0.523   1.768   1.474
   67SOL    HW2  451   0.636   1.885   1.456
   68SOL     OW  452   0.587   0.992   0.123
   68SOL    HW1  453   0.611   1.073   0.069
   68SOL    HW2  454   0.625   1.002   0.215
   69SOL     OW  455   1.562   0.136   1.456
   69SOL    HW1  456   1.614   0.207   1.410
   69SOL    HW2  457   1.540   0.166   1.549
   70SOL     OW  458   0.136   0.649   0.573
   70SOL    HW1  459   0.092   0.559   0.576
   70SOL    HW2  460   0.099   0.707   0.646
   71SOL     OW  461   1.834   1.758   0.347
   71SOL    HW1  462   1.902   1.729   0.414
   71SOL    HW2  463   1.860   1.847   0.309
   72SOL     OW  464   0.015   1.573   0.116
   72SOL    HW1  465   0.009   1.490   0.171
   72SOL    HW2  466   3.987   1.651   0.171
   73SOL     OW  467   1.681   0.915   0.642
   73SOL    HW1  468   1.772   0.874   0.633
   73SOL    HW2  469   1.662   0.972   0.563
   74SOL     OW  470   1.654   1.102   0.431
   74SOL    HW1  471   1.743   1.109   0.388
   74SOL    HW2  472   1.647   1.169   0.505
   75SOL     OW  473   0.617   1.380   0.743
   75SOL    HW1  474   0.599   1.283   0.762
   75SOL    HW2  475   0.592   1.401   0.649
   76SOL     OW  476   0.820   0.001   0.495
   76SOL    HW1  477   0.879   0.080   0.478
   76SOL    HW2  478   0.727   0.032   0.513
   77SOL     OW  479   0.174   0.948   1.255
   77SOL    HW1  480   0.272   0.929   1.265
   77SOL    HW2  481   0.134   0.880   1.192
   78SOL     OW  482   1.524   0.995   0.212
   78SOL    HW1  483   1.449   0.940   0.250
   78SOL    HW2  484   1.577   1.035   0.287
   79SOL     OW  485   1.177   1.808   1.615
   79SOL    HW1  486   1.203   1.881   1.552
   79SOL    HW2  487   1.206   1.720   1.579
   80SOL     OW  488   0.339   0.249   1.827
   80SOL    HW1  489   0.394   0.333   1.829
   80SOL    HW2  490   0.244   0.271   1.849
   81SOL     OW  491   1.471   1.416   0.957
   81SOL    HW1  492   1.402   1.437   1.026
   81SOL    HW2  493   1.455   1.324   0.920
   82SOL     OW  494   1.649   1.747   0.585
   82SOL    HW1  495   1.644   1.721   0.488
   82SOL    HW2  496   1.627   1.668   0.642
   83SOL     OW  497   1.270   0.367   0.941
   83SOL    HW1  498   1.179   0.326   0.948
   83SOL    HW2  499   1.336   0.309   0.990
   84SOL     OW  500   1.583   1.667   0.309
   84SOL    HW1  501   1.677   1.702   0.310
   84SOL    HW2  502   1.555   1.652   0.214
   85SOL     OW  503   0.795   0.609   1.451
   85SOL    HW1  504   0.770   0.586   1.545
   85SOL    HW2  505   0.755   0.542   1.389
   86SOL     OW  506   1.389   0.472   1.678
   86SOL    HW1  507   1.392   0.521   1.765
   86SOL    HW2  508   1.455   0.397   1.679
   87SOL     OW  509   0.953   0.894   1.569
   87SOL    HW1  510   1.010   0.813   1.551
   87SOL    HW2  511   0.934   0.941   1.484
   88SOL     OW  512   0.994   0.407   1.223
   88SOL    HW1  513   0.907   0.421   1.271
   88SOL    HW2  514   0.977   0.358   1.138
   89SOL     OW  515   1.058   0.708   0.421
   89SOL    HW1  516   1.054   0.712   0.521
   89SOL    HW2  517   0.976   0.662   0.386
   90SOL     OW  518   0.079   0.825   0.787
   90SOL    HW1  519   0.145   0.786   0.851
   90SOL    HW2  520   0.096   0.923   0.778
   91SOL     OW  521   0.130   1.861   1.588
   91SOL    HW1  522   0.137   1.833   1.684
   91SOL    HW2  523   0.036   1.847   1.556
   92SOL     OW  524   0.882   0.366   0.203
   92SOL    HW1  525   0.901   0.408   0.115
   92SOL    HW2  526   0.875   0.266   0.192
   93SOL     OW  527   1.706   0.580   1.829
   93SOL    HW1  528   1.701   0.672   1.791
   93SOL    HW2  529   1.724   0.514   1.756
   94SOL     OW  530   0.543   0.177   0.901
   94SOL    HW1  531   0.552   0.225   0.988
   94SOL    HW2  532   0.530   0.243   0.827
   95SOL     OW  533   0.991   1.482   0.486
   95SOL    HW1  534   0.942   1.554   0.437
   95SOL    HW2  535   0.978   1.494   0.585
   96SOL     OW  536   0.366   1.814   0.868
   96SOL    HW1  537   0.427   1.735   0.876
   96SOL    HW2  538   0.416   1.898   0.886
   97SOL     OW  539   1.793   1.052   0.873
   97SOL    HW1  540   1.742   1.038   0.788
   97SOL    HW2  541   1.730   1.069   0.948
   98SOL     OW  542   1.232   1.541   1.503
   98SOL    HW1  543   1.216   1.485   1.584
   98SOL    HW2  544   1.154   1.531   1.440
   99SOL     OW  545   0.302   0.954   0.257
   99SOL    HW1  546   0.382   0.986   0.208
   99SOL    HW2  547   0.285   0.858   0.235
  100SOL     OW  548   1.481   0.731   0.728
  100SOL    HW1  549   1.474   0.693   0.820
  100SOL    HW2  550   1.555   0.798   0.726
  101SOL     OW  551   0.461   1.256   1.720
  101SOL    HW1  552   0.432   1.217   1.632
  101SOL    HW2  553   0.380   1.275   1.776
  102SOL     OW  554   1.109   1.771   0.219
  102SOL    HW1  555   1.052   1.734   0.292
  102SOL    HW2  556   1.160   1.697   0.174
  103SOL     OW  557   0.191   0.263   1.513
  103SOL    HW1  558   0.107   0.314   1.496
  103SOL    HW2  559   0.220   0.278   1.608
  104SOL     OW  560   1.625   1.375   0.114
  104SOL    HW1  561   1.596   1.467   0.088
  104SOL    HW2  562   1.560   1.308   0.078
  105SOL     OW  563   0.488   1.726   0.342
  105SOL    HW1  564   0.519   1.802   0.399
  105SOL    HW2  565   0.558   1.705   0.274
  106SOL     OW  566   1.444   0.147   0.364
  106SOL    HW1  567   1.371   0.083   0.389
  106SOL    HW2  568   1.523   0.131   0.423
  107SOL     OW  569   0.252   1.792   1.233
  107SOL    HW1  570   0.299   1.721   1.286
  107SOL    HW2  571   0.230   1.757   1.142
  108SOL     OW  572   0.941   1.699   0.898
  108SOL    HW1  573   1.023   1.644   0.918
  108SOL    HW2  574   0.887   1.653   0.829
  109SOL     OW  575   0.395   0.669   0.495
  109SOL    HW1  576   0.409   0.591   0.435
  109SOL    HW2  577   0.299   0.671   0.525
  110SOL     OW  578   1.527   0.224   1.733
  110SOL    HW1  579   1.522   0.256   1.828
  110SOL    HW2  580   1.503   0.127   1.729
  111SOL     OW  581   0.630   0.111   0.101
  111SOL    HW1  582   0.727   0.099   0.120
  111SOL    HW2  583   0.617   0.122   0.002
  112SOL     OW  584   0.772   0.282   1.766
  112SOL    HW1  585   0.850   0.220   1.766
  112SOL    HW2  586   0.712   0.260   1.842
  113SOL     OW  587   0.881   1.513   1.192
  113SOL    HW1  588   0.856   1.483   1.100
  113SOL    HW2  589   0.961   1.463   1.223
  114SOL     OW  590   1.340   0.593   1.433
  114SOL    HW1  591   1.374   0.553   1.518
  114SOL    HW2  592   1.381   0.683   1.420
  115SOL     OW  593   0.821   1.414   0.940
  115SOL    HW1  594   0.906   1.389   0.895
  115SOL    HW2  595   0.744   1.396   0.879
  116SOL     OW  596   0.531   0.046   0.476
  116SOL    HW1  597   0.459   0.057   0.545
  116SOL    HW2  598   0.544   0.132   0.427
  117SOL     OW  599   1.435   1.194   0.054
  117SOL    HW1  600   1.458   1.119   0.115
  117SOL    HW2  601   1.338   1.218   0.066
  118SOL     OW  602   0.350   0.055   0.187
  118SOL    HW1  603   0.398   0.115   0.123
  118SOL    HW2  604   0.416   3.996   0.234
  119SOL     OW  605   0.972   0.222   0.446
  119SOL    HW1  606   0.931   0.283   0.378
  119SOL    HW2  607   1.072   0.233   0.444
  120SOL     OW  608   1.081   0.680   1.466
  120SOL    HW1  609   1.009   0.611   1.469
  120SOL    HW2  610   1.170   0.635   1.459
  121SOL     OW  611   1.223   1.573   0.803
  121SOL    HW1  612   1.235   1.632   0.724
  121SOL    HW2  613   1.303   1.579   0.862
  122SOL     OW  614   1.261   1.795   0.601
  122SOL    HW1  615   1.318   1.856   0.545
  122SOL    HW2  616   1.194   1.849   0.651
  123SOL     OW  617   0.083   0.568   1.406
  123SOL    HW1  618   0.175   0.549   1.373
  123SOL    HW2  619   0.075   0.665   1.430
  124SOL     OW  620   0.573   0.231   1.173
  124SOL    HW1  621   0.600   0.135   1.168
  124SOL    HW2  622   0.476   0.236   1.200
  125SOL     OW  623   0.997   0.046   0.773
  125SOL    HW1  624   0.943   0.081   0.696
  125SOL    HW2  625   1.004   3.946   0.765
  126SOL     OW  626   1.441   1.165   0.848
  126SOL    HW1  627   1.388   1.083   0.827
  126SOL    HW2  628   1.508   1.181   0.776
  127SOL     OW  629   1.454   0.602   0.975
  127SOL    HW1  630   1.397   0.520   0.977
  127SOL    HW2  631   1.525   0.595   1.045
  128SOL     OW  632   1.826   0.805   0.395
  128SOL    HW1  633   1.891   0.752   0.450
  128SOL    HW2  634   1.824   0.769   0.302
  129SOL     OW  635   0.507   1.407   0.177
  129SOL    HW1  636   0.421   1.384   0.223
  129SOL    HW2  637   0.495   1.396   0.078
  130SOL     OW  638   1.661   1.256   0.658
  130SOL    HW1  639   1.761   1.253   0.660
  130SOL    HW2  640   1.630   1.351   0.670
  131SOL     OW  641   1.350   0.559   0.053
  131SOL    HW1  642   1.288   0.538   0.128
  131SOL    HW2  643   1.442   0.574   0.089
  132SOL     OW  644   0.559   0.261   0.308
  132SOL    HW1  645   0.580   0.208   0.226
  132SOL    HW2  646   0.512   0.345   0.284
  133SOL     OW  647   1.781   1.230   1.638
  133SOL    HW1  648   1.844   1.193   1.569
  133SOL    HW2  649   1.777   1.330   1.629
  134SOL     OW  650   1.089   1.352   1.342
  134SOL    HW1  651   1.003   1.337   1.392
  134SOL    HW2  652   1.160   1.293   1.379
  135SOL     OW  653   1.595   1.631   1.643
  135SOL    HW1  654   1.599   1.711   1.583
  135SOL    HW2  655   1.682   1.582   1.638
  136SOL     OW  656   1.132   1.214   1.096
  136SOL    HW1  657   1.065   1.224   1.170
  136SOL    HW2  658   1.091   1.241   1.009
  137SOL     OW  659   1.630   1.118   1.083
  137SOL    HW1  660   1.624   1.162   1.173
  137SOL    HW2  661   1.544   1.132   1.034
  138SOL     OW  662   0.913   0.121   1.396
  138SOL    HW1  663   0.933   0.083   1.306
  138SOL    HW2  664   0.997   0.161   1.434
  139SOL     OW  665   0.979   1.117   1.720
  139SOL    HW1  666   0.886   1.135   1.750
  139SOL    HW2  667   0.981   1.034   1.664
  140SOL     OW  668   0.704   1.057   0.358
  140SOL    HW1  669   0.679   1.060   0.455
  140SOL    HW2  670   0.791   1.008   0.349
  141SOL     OW  671   0.428   0.784   1.238
  141SOL    HW1  672   0.495   0.804   1.310
  141SOL    HW2  673   0.381   0.699   1.260
  142SOL     OW  674   1.263   0.380   1.278
  142SOL    HW1  675   1.301   0.458   1.327
  142SOL    HW2  676   1.171   0.402   1.245
  143SOL     OW  677   0.049   1.616   1.334
  143SOL    HW1  678   0.092   1.700   1.302
  143SOL    HW2  679   0.119   1.553   1.368
  144SOL     OW  680   0.406   1.089   0.484
  144SOL    HW1  681   0.373   1.182   0.467
  144SOL    HW2  682   0.370   1.028   0.414
  145SOL     OW  683   0.536   0.589   0.875
  145SOL    HW1  684   0.563   0.593   0.779
  145SOL    HW2  685   0.617   0.599   0.933
  146SOL     OW  686   1.278   1.449   1.141
  146SOL    HW1  687   1.283   1.465   1.239
  146SOL    HW2  688   1.224   1.367   1.123
  147SOL     OW  689   1.582   0.655   0.467
  147SOL    HW1  690   1.536   0.689   0.549
  147SOL    HW2  691   1.667   0.705   0.452
  148SOL     OW  692   0.347   1.540   1.311
  148SOL    HW1  693   0.329   1.480   1.233
  148SOL    HW2  694   0.445   1.540   1.331
  149SOL     OW  695   0.415   0.710   1.588
  149SOL    HW1  696   0.468   0.778   1.537
  149SOL    HW2  697   0.477   0.641   1.625
  150SOL     OW  698   1.011   0.134   1.777
  150SOL    HW1  699   1.064   0.211   1.742
  150SOL    HW2  700   1.001   0.065   1.705
  151SOL     OW  701   0.487   0.037   1.760
  151SOL    HW1  702   0.492   0.041   1.660
  151SOL    HW2  703   0.421   0.105   1.792
  152SOL     OW  704   1.373   0.867   1.026
  152SOL    HW1  705   1.277   0.869   0.999
  152SOL    HW2  706   1.406   0.772   1.027
  153SOL     OW  707   1.198   0.525   0.267
  153SOL    HW1  708   1.213   0.447   0.327
  153SOL    HW2  709   1.151   0.597   0.318
  154SOL     OW  710   0.311   0.209   1.239
  154SOL    HW1  711   0.261   0.242   1.319
  154SOL    HW2  712   0.301   0.109   1.232
  155SOL     OW  713   0.744   0.645   1.038
  155SOL    HW1  714   0.842   0.626   1.042
  155SOL    HW2  715   0.725   0.731   1.086
  156SOL     OW  716   1.724   0.932   1.840
  156SOL    HW1  717   1.678   0.979   1.764
  156SOL    HW2  718   1.672   0.946   1.924
  157SOL     OW  719   0.324   0.057   0.656
  157SOL    HW1  720   0.306   0.155   0.655
  157SOL    HW2  721   0.290   0.019   0.742
  158SOL     OW  722   1.644   0.400   0.361
  158SOL    HW1  723   1.631   0.314   0.410
  158SOL    HW2  724   1.600   0.474   0.411
  159SOL     OW  725   0.987   1.561   1.712
  159SOL    HW1  726   0.970   1.610   1.627
  159SOL    HW2  727   1.028   1.472   1.693
  160SOL     OW  728   1.846   1.517   1.607
  160SOL    HW1  729   1.890   1.545   1.522
  160SOL    HW2  730   1.913   1.522   1.682
  161SOL     OW  731   1.507   0.304   0.131
  161SOL    HW1  732   1.483   0.217   0.175
  161SOL    HW2  733   1.556   0.362   0.195
  162SOL     OW  734   1.300   0.824   0.035
  162SOL    HW1  735   1.323   0.728   0.049
  162SOL    HW2  736   1.287   0.842   3.937
  163SOL     OW  737   1.067   1.336   0.847
  163SOL    HW1  738   1.074   1.269   0.774
  163SOL    HW2  739   1.126   1.414   0.827
  164SOL     OW  740   0.283   0.792   0.979
  164SOL    HW1  741   0.366   0.828   1.020
  164SOL    HW2  742   0.277   0.694   0.997
  165SOL     OW  743   0.329   0.521   1.024
  165SOL    HW1  744   0.290   0.432   1.000
  165SOL    HW2  745   0.404   0.542   0.962
  166SOL     OW  746   1.132   0.381   1.699
  166SOL    HW1  747   1.081   0.438   1.763
  166SOL    HW2  748   1.225   0.417   1.690
  167SOL     OW  749   1.149   0.230   1.482
  167SOL    HW1  750   1.139   0.286   1.564
  167SOL    HW2  751   1.183   0.287   1.407
  168SOL     OW  752   3.998   1.308   0.207
  168SOL    HW1  753   3.901   1.330   0.212
  168SOL    HW2  754   0.011   1.209   0.209
  169SOL     OW  755   0.077   1.802   0.889
  169SOL    HW1  756   0.072   1.702   0.898
  169SOL    HW2  757   0.173   1.830   0.891
  170SOL     OW  758   0.503   1.574   0.911
  170SOL    HW1  759   0.575   1.637   0.939
  170SOL    HW2  760   0.543   1.503   0.852
  171SOL     OW  761   0.977   0.783   1.229
  171SOL    HW1  762   1.049   0.767   1.297
  171SOL    HW2  763   0.890   0.749   1.263
  172SOL     OW  764   0.042   0.572   1.120
  172SOL    HW1  765   0.092   0.515   1.055
  172SOL    HW2  766   0.070   0.548   1.213
  173SOL     OW  767   0.212   0.508   1.703
  173SOL    HW1  768   0.296   0.499   1.649
  173SOL    HW2  769   0.163   0.590   1.674
  174SOL     OW  770   1.384   0.949   1.666
  174SOL    HW1  771   1.409   1.045   1.675
  174SOL    HW2  772   1.399   0.919   1.572
  175SOL     OW  773   0.833   0.596   0.333
  175SOL    HW1  774   0.854   0.508   0.291
  175SOL    HW2  775   0.734   0.611   0.332
  176SOL     OW  776   1.643   0.589   1.165
  176SOL    HW1  777   1.614   0.578   1.260
  176SOL    HW2  778   1.737   0.557   1.155
  177SOL     OW  779   0.296   1.562   1.747
  177SOL    HW1  780   0.236   1.632   1.787
  177SOL    HW2  781   0.264   1.471   1.775
  178SOL     OW  782   0.704   0.458   1.250
  178SOL    HW1  783   0.658   0.370   1.239
  178SOL    HW2  784   0.685   0.515   1.169
  179SOL     OW  785   0.934   1.675   1.462
  179SOL    HW1  786   0.892   1.638   1.379
  179SOL    HW2  787   0.929   1.775   1.460
  180SOL     OW  788   0.467   0.527   0.226
  180SOL    HW1  789   0.531   0.537   0.149
  180SOL    HW2  790   0.378   0.565   0.201
  181SOL     OW  791   1.310   1.045   1.227
  181SOL    HW1  792   1.353   0.985   1.159
  181SOL    HW2  793   1.250   1.110   1.180
  182SOL     OW  794   1.303   0.858   0.310
  182SOL    HW1  795   1.222   0.819   0.354
  182SOL    HW2  796   1.298   0.841   0.212
  183SOL     OW  797   1.793   1.736   1.125
  183SOL    HW1  798   1.856   1.755   1.050
  183SOL    HW2  799   1.765   1.640   1.121
  184SOL     OW  800   0.082   1.228   1.037
  184SOL    HW1  801   0.102   1.257   1.130
  184SOL    HW2  802   3.983   1.226   1.022
  185SOL     OW  803   0.680   1.670   1.731
  185SOL    HW1  804   0.614   1.745   1.732
  185SOL    HW2  805   0.744   1.684   1.655
  186SOL     OW  806   0.899   0.100   0.141
  186SOL    HW1  807   0.980   0.119   0.086
  186SOL    HW2  808   0.917   0.023   0.202
  187SOL     OW  809   1.701   0.135   0.492
  187SOL    HW1  810   1.779   0.148   0.431
  187SOL    HW2  811   1.692   0.038   0.515
  188SOL     OW  812   1.402   1.576   0.496
  188SOL    HW1  813   1.463   1.602   0.421
  188SOL    HW2  814   1.342   1.652   0.519
  189SOL     OW  815   0.147   1.785   1.856
  189SOL    HW1  816   0.106   1.714   1.913
  189SOL    HW2  817   0.202   1.846   1.913
  190SOL     OW  818   1.332   0.956   0.668
  190SOL    HW1  819   1.376   0.868   0.682
  190SOL    HW2  820   1.320   0.972   0.570
  191SOL     OW  821   0.858   1.321   1.457
  191SOL    HW1  822   0.814   1.338   1.545
  191SOL    HW2  823   0.798   1.349   1.383
  192SOL     OW  824   0.681   1.612   0.167
  192SOL    HW1  825   0.695   1.625   0.069
  192SOL    HW2  826   0.625   1.531   0.182
  193SOL     OW  827   1.841   0.179   0.952
  193SOL    HW1  828   1.879   0.110   0.891
  193SOL    HW2  829   1.745   0.197   0.927
  194SOL     OW  830   0.278   0.324   0.722
  194SOL    HW1  831   0.195   0.363   0.682
  194SOL    HW2  832   0.261   0.303   0.818
  195SOL     OW  833   1.229   1.599   0.043
  195SOL    HW1  834   1.203   1.509   0.077
  195SOL    HW2  835   1.216   1.602   3.943
  196SOL     OW  836   0.925   0.921   0.297
  196SOL    HW1  837   0.977   0.954   0.219
  196SOL    HW2  838   0.973   0.844   0.339
  197SOL     OW  839   1.502   1.613   0.048
  197SOL    HW1  840   1.403   1.617   0.052
  197SOL    HW2  841   1.533   1.638   3.956
  198SOL     OW  842   1.018   0.242   0.975
  198SOL    HW1  843   1.003   0.200   0.885
  198SOL    HW2  844   1.012   0.172   1.046
  199SOL     OW  845   0.602   1.482   0.483
  199SOL    HW1  846   0.647   1.430   0.411
  199SOL    HW2  847   0.537   1.546   0.443
  200SOL     OW  848   1.728   0.334   1.385
  200SOL    HW1  849   1.744   0.432   1.372
  200SOL    HW2  850   1.778   0.283   1.315
  201SOL     OW  851   0.255   1.356   0.285
  201SOL    HW1  852   0.158   1.345   0.263
  201SOL    HW2  853   0.263   1.389   0.379
  202SOL     OW  854   0.691   0.247   1.501
  202SOL    HW1  855   0.762   0.194   1.454
  202SOL    HW2  856   0.716   0.257   1.597
  203SOL     OW  857   0.067   0.364   0.039
  203SOL    HW1  858   3.983   0.310   0.030
  203SOL    HW2  859   0.098   0.392   3.948
  204SOL     OW  860   1.435   0.869   1.400
  204SOL    HW1  861   1.374   0.935   1.357
  204SOL    HW2  862   1.522   0.866   1.350
  205SOL     OW  863   0.040   0.170   0.300
  205SOL    HW1  864   0.050   0.230   0.220
  205SOL    HW2  865   0.120   0.180   0.359
  206SOL     OW  866   1.201   1.322   0.097
  206SOL    HW1  867   1.102   1.314   0.109
  206SOL    HW2  868   1.245   1.318   0.187
  207SOL     OW  869   0.631   0.822   1.427
  207SOL    HW1  870   0.673   0.901   1.472
  207SOL    HW2  871   0.689   0.742   1.438
  208SOL     OW  872   1.505   1.751   0.907
  208SOL    HW1  873   1.537   1.827   0.851
  208SOL    HW2  874   1.569   1.735   0.981
  209SOL     OW  875   0.722   0.560   1.704
  209SOL    HW1  876   0.762   0.628   1.766
  209SOL    HW2  877   0.745   0.468   1.737
  210SOL     OW  878   0.377   1.742   1.560
  210SOL    HW1  879   0.289   1.786   1.545
  210SOL    HW2  880   0.364   1.658   1.613
  211SOL     OW  881   1.644   0.878   1.221
  211SOL    HW1  882   1.648   0.796   1.165
  211SOL    HW2  883   1.646   0.959   1.162
  212SOL     OW  884   1.239   0.333   0.446
  212SOL    HW1  885   1.302   0.259   0.422
  212SOL    HW2  886   1.266   0.373   0.533
  213SOL     OW  887   0.625   0.717   0.624
  213SOL    HW1  888   0.644   0.814   0.609
  213SOL    HW2  889   0.537   0.694   0.582
  214SOL     OW  890   1.746   0.375   1.651
  214SOL    HW1  891   1.734   0.377   1.552
  214SOL    HW2  892   1.687   0.304   1.691
  215SOL     OW  893   0.831   1.383   0.012
  215SOL    HW1  894   0.779   1.350   0.091
  215SOL    HW2  895   0.907   1.440   0.043
  216SOL     OW  896   0.666   1.792   0.950
  216SOL    HW1  897   0.637   1.883   0.922
  216SOL    HW2  898   0.763   1.780   0.930
  217SOL     OW  899   1.078   0.984   0.080
  217SOL    HW1  900   1.058   1.006   3.985
  217SOL    HW2  901   1.163   0.931   0.085
  218SOL     OW  902   1.852   1.555   0.844
  218SOL    HW1  903   1.773   1.543   0.785
  218SOL    HW2  904   1.853   1.483   0.914
  219SOL     OW  905   0.229   1.314   1.846
  219SOL    HW1  906   0.187   1.240   1.792
  219SOL    HW2  907   0.193   1.311   1.940
  220SOL     OW  908   0.118   1.279   0.723
  220SOL    HW1  909   0.122   1.233   0.812
  220SOL    HW2  910   0.112   1.211   0.650
  221SOL     OW  911   0.668   1.409   1.635
  221SOL    HW1  912   0.587   1.361   1.669
  221SOL    HW2  913   0.670   1.501   1.673
  222SOL     OW  914   1.844   0.168   1.220
  222SOL    HW1  915   1.833   0.071   1.241
  222SOL    HW2  916   1.849   0.181   1.121
  223SOL     OW  917   1.702   1.479   1.107
  223SOL    HW1  918   1.623   1.448   1.054
  223SOL    HW2  919   1.740   1.402   1.158
  224SOL     OW  920   0.323   0.539   1.297
  224SOL    HW1  921   0.386   0.487   1.354
  224SOL    HW2  922   0.337   0.515   1.201
  225SOL     OW  923   0.815   1.588   0.686
  225SOL    HW1  924   0.803   1.640   0.602
  225SOL    HW2  925   0.744   1.518   0.693
  226SOL     OW  926   1.455   0.255   1.109
  226SOL    HW1  927   1.484   0.165   1.144
  226SOL    HW2  928   1.399   0.300   1.179
  227SOL     OW  929   1.002   0.027   1.148
  227SOL    HW1  930   0.921   3.985   1.108
  227SOL    HW2  931   1.074   3.959   1.158
  228SOL     OW  932   0.773   1.320   0.312
  228SOL    HW1  933   0.737   1.228   0.321
  228SOL    HW2  934   0.866   1.323   0.349
  229SOL     OW  935   0.630   1.554   1.290
  229SOL    HW1  936   0.623   1.640   1.340
  229SOL    HW2  937   0.719   1.548   1.245
  230SOL     OW  938   1.295   0.452   0.688
  230SOL    HW1  939   1.281   0.551   0.686
  230SOL    HW2  940   1.291   0.420   0.783
  231SOL     OW  941   1.587   0.213   0.870
  231SOL    HW1  942   1.533   0.233   0.951
  231SOL    HW2  943   1.590   0.295   0.811
  232SOL     OW  944   0.037   1.033   0.253
  232SOL    HW1  945   0.136   1.020   0.248
  232SOL    HW2  946   3.996   0.959   0.307
  233SOL     OW  947   0.864   1.677   0.351
  233SOL    HW1  948   0.787   1.658   0.291
  233SOL    HW2  949   0.842   1.755   0.410
  234SOL     OW  950   0.218   0.686   1.957
  234SOL    HW1  951   0.128   0.656   1.990
  234SOL    HW2  952   0.260   0.614   1.903
  235SOL     OW  953   0.012   0.381   2.509
  235SOL    HW1  954   3.916   0.405   2.526
  235SOL    HW2  955   0.020   0.282   2.494
  236SOL     OW  956   0.577   1.288   3.052
  236SOL    HW1  957   0.489   1.286   3.006
  236SOL    HW2  958   0.592   1.379   3.092
  237SOL     OW  959   1.558   1.512   2.566
  237SOL    HW1  960   1.517   1.495   2.656
  237SOL    HW2  961   1.485   1.522   2.498
  238SOL     OW  962   1.133   0.702   2.560
  238SOL    HW1  963   1.184   0.786   2.542
  238SOL    HW2  964   1.083   0.711   2.646
  239SOL     OW  965   1.762   0.616   2.088
  239SOL    HW1  966   1.740   0.607   1.991
  239SOL    HW2  967   1.751   0.527   2.133
  240SOL     OW  968   0.747   1.141   2.897
  240SOL    HW1  969   0.682   1.175   2.964
  240SOL    HW2  970   0.791   1.217   2.850
  241SOL     OW  971   0.685   1.004   2.513
  241SOL    HW1  972   0.755   0.990   2.583
  241SOL    HW2  973   0.609   1.057   2.551
  242SOL     OW  974   0.712   1.152   3.671
  242SOL    HW1  975   0.763   1.233   3.698
  242SOL    HW2  976   0.621   1.179   3.638
  243SOL     OW  977   0.349   1.401   2.938
  243SOL    HW1  978   0.262   1.380   2.892
  243SOL    HW2  979   0.402   1.463   2.881
  244SOL     OW  980   1.470   1.500   3.212
  244SOL    HW1  981   1.519   1.586   3.224
  244SOL    HW2  982   1.395   1.494   3.279
  245SOL     OW  983   0.457   0.408   3.341
  245SOL    HW1  984   0.539   0.351   3.347
  245SOL    HW2  985   0.376   0.354   3.363
  246SOL     OW  986   1.616   0.452   2.597
  246SOL    HW1  987   1.542   0.482   2.536
  246SOL    HW2  988   1.638   0.525   2.661
  247SOL     OW  989   0.227   1.713   2.326
  247SOL    HW1  990   0.240   1.794   2.383
  247SOL    HW2  991   0.301   1.707   2.259
  248SOL     OW  992   1.135   1.340   3.554
  248SOL    HW1  993   1.185   1.334   3.640
  248SOL    HW2  994   1.079   1.258   3.542
  249SOL     OW  995   0.250   1.450   2.409
  249SOL    HW1  996   0.223   1.545   2.390
  249SOL    HW2  997   0.177   1.404   2.460
  250SOL     OW  998   0.253   1.070   2.755
  250SOL    HW1  999   0.270   0.977   2.790
  250SOL    HW2 1000   0.193   1.118   2.819
  251SOL     OW 1001   0.610   1.797   3.295
  251SOL    HW1 1002   0.524   1.773   3.340
  251SOL    HW2 1003   0.635   1.890   3.320
  252SOL     OW 1004   0.591   0.981   2.009
  252SOL    HW1 1005   0.627   1.029   1.929
  252SOL    HW2 1006   0.634   1.017   2.092
  253SOL     OW 1007   1.578   0.139   3.316
  253SOL    HW1 1008   1.607   0.214   3.256
  253SOL    HW2 1009   1.552   0.175   3.405
  254SOL     OW 1010   0.136   0.653   2.440
  254SOL    HW1 1011   0.087   0.566   2.442
  254SOL    HW2 1012   0.103   0.712   2.514
  255SOL     OW 1013   1.844   1.759   2.195
  255SOL    HW1 1014   1.910   1.726   2.264
  255SOL    HW2 1015   1.864   1.854   2.173
  256SOL     OW 1016   0.036   1.593   2.005
  256SOL    HW1 1017   0.043   1.494   2.016
  256SOL    HW2 1018   3.955   1.627   2.052
  257SOL     OW 1019   1.688   0.918   2.504
  257SOL    HW1 1020   1.775   0.872   2.489
  257SOL    HW2 1021   1.666   0.974   2.424
  258SOL     OW 1022   1.649   1.107   2.294
  258SOL    HW1 1023   1.737   1.108   2.246
  258SOL    HW2 1024   1.651   1.173   2.369
  259SOL     OW 1025   0.131   0.758   3.449
  259SOL    HW1 1026   0.230   0.742   3.446
  259SOL    HW2 1027   0.113   0.852   3.476
  260SOL     OW 1028   0.608   1.387   2.597
  260SOL    HW1 1029   0.562   1.299   2.610
  260SOL    HW2 1030   0.596   1.417   2.503
  261SOL     OW 1031   1.287   1.236   3.286
  261SOL    HW1 1032   1.317   1.171   3.217
  261SOL    HW2 1033   1.349   1.232   3.365
  262SOL     OW 1034   0.821   0.007   2.377
  262SOL    HW1 1035   0.872   0.089   2.352
  262SOL    HW2 1036   0.723   0.026   2.375
  263SOL     OW 1037   0.187   0.953   3.139
  263SOL    HW1 1038   0.278   0.914   3.127
  263SOL    HW2 1039   0.125   0.913   3.071
  264SOL     OW 1040   1.535   0.992   2.063
  264SOL    HW1 1041   1.459   0.934   2.093
  264SOL    HW2 1042   1.578   1.035   2.143
  265SOL     OW 1043   1.183   1.805   3.486
  265SOL    HW1 1044   1.197   1.874   3.416
  265SOL    HW2 1045   1.200   1.714   3.448
  266SOL     OW 1046   0.340   0.256   3.670
  266SOL    HW1 1047   0.396   0.339   3.677
  266SOL    HW2 1048   0.247   0.275   3.700
  267SOL     OW 1049   1.510   1.391   2.822
  267SOL    HW1 1050   1.422   1.436   2.838
  267SOL    HW2 1051   1.495   1.298   2.790
  268SOL     OW 1052   1.656   1.740   2.439
  268SOL    HW1 1053   1.635   1.714   2.345
  268SOL    HW2 1054   1.628   1.666   2.501
  269SOL     OW 1055   0.595   0.724   2.129
  269SOL    HW1 1056   0.601   0.810   2.077
  269SOL    HW2 1057   0.528   0.734   2.202
  270SOL     OW 1058   1.276   0.366   2.804
  270SOL    HW1 1059   1.185   0.326   2.807
  270SOL    HW2 1060   1.341   0.308   2.853
  271SOL     OW 1061   1.584   1.672   2.170
  271SOL    HW1 1062   1.679   1.703   2.168
  271SOL    HW2 1063   1.553   1.653   2.076
  272SOL     OW 1064   0.793   0.615   3.314
  272SOL    HW1 1065   0.775   0.590   3.410
  272SOL    HW2 1066   0.751   0.547   3.254
  273SOL     OW 1067   1.395   0.470   3.536
  273SOL    HW1 1068   1.390   0.519   3.623
  273SOL    HW2 1069   1.452   0.389   3.546
  274SOL     OW 1070   0.969   0.895   3.435
  274SOL    HW1 1071   1.020   0.815   3.402
  274SOL    HW2 1072   0.909   0.928   3.362
  275SOL     OW 1073   0.995   0.402   3.096
  275SOL    HW1 1074   0.911   0.427   3.145
  275SOL    HW2 1075   0.971   0.366   3.006
  276SOL     OW 1076   1.049   0.699   2.288
  276SOL    HW1 1077   1.069   0.694   2.386
  276SOL    HW2 1078   0.963   0.650   2.269
  277SOL     OW 1079   0.083   0.827   2.655
  277SOL    HW1 1080   0.166   0.800   2.703
  277SOL    HW2 1081   0.087   0.925   2.633
  278SOL     OW 1082   0.131   1.860   3.442
  278SOL    HW1 1083   0.142   1.827   3.536
  278SOL    HW2 1084   0.035   1.850   3.415
  279SOL     OW 1085   0.892   0.353   2.060
  279SOL    HW1 1086   0.935   0.417   1.997
  279SOL    HW2 1087   0.889   0.262   2.019
  280SOL     OW 1088   1.695   0.580   3.684
  280SOL    HW1 1089   1.662   0.659   3.633
  280SOL    HW2 1090   1.729   0.510   3.621
  281SOL     OW 1091   1.377   1.143   2.398
  281SOL    HW1 1092   1.462   1.127   2.348
  281SOL    HW2 1093   1.322   1.210   2.349
  282SOL     OW 1094   0.521   0.205   2.754
  282SOL    HW1 1095   0.542   0.221   2.850
  282SOL    HW2 1096   0.552   0.284   2.700
  283SOL     OW 1097   0.997   1.440   2.328
  283SOL    HW1 1098   0.963   1.521   2.280
  283SOL    HW2 1099   0.987   1.453   2.426
  284SOL     OW 1100   0.364   1.812   2.733
  284SOL    HW1 1101   0.428   1.735   2.741
  284SOL    HW2 1102   0.413   1.898   2.749
  285SOL     OW 1103   1.797   1.057   2.731
  285SOL    HW1 1104   1.742   1.039   2.649
  285SOL    HW2 1105   1.736   1.063   2.811
  286SOL     OW 1106   1.227   1.538   3.375
  286SOL    HW1 1107   1.216   1.463   3.440
  286SOL    HW2 1108   1.171   1.520   3.294
  287SOL     OW 1109   0.312   0.946   2.088
  287SOL    HW1 1110   0.403   0.970   2.052
  287SOL    HW2 1111   0.288   0.853   2.060
  288SOL     OW 1112   1.480   0.747   2.590
  288SOL    HW1 1113   1.472   0.701   2.679
  288SOL    HW2 1114   1.560   0.807   2.591
  289SOL     OW 1115   0.465   1.253   3.594
  289SOL    HW1 1116   0.441   1.264   3.498
  289SOL    HW2 1117   0.384   1.265   3.651
  290SOL     OW 1118   1.119   1.778   2.085
  290SOL    HW1 1119   1.045   1.738   2.140
  290SOL    HW2 1120   1.149   1.712   2.016
  291SOL     OW 1121   0.200   0.314   3.395
  291SOL    HW1 1122   0.102   0.321   3.378
  291SOL    HW2 1123   0.224   0.219   3.412
  292SOL     OW 1124   1.623   1.378   1.953
  292SOL    HW1 1125   1.584   1.469   1.935
  292SOL    HW2 1126   1.559   1.308   1.921
  293SOL     OW 1127   0.469   1.736   2.179
  293SOL    HW1 1128   0.509   1.798   2.246
  293SOL    HW2 1129   0.542   1.699   2.121
  294SOL     OW 1130   1.440   0.162   2.269
  294SOL    HW1 1131   1.393   0.102   2.204
  294SOL    HW2 1132   1.523   0.118   2.302
  295SOL     OW 1133   0.252   1.792   3.092
  295SOL    HW1 1134   0.299   1.726   3.151
  295SOL    HW2 1135   0.243   1.754   3.000
  296SOL     OW 1136   0.925   1.701   2.757
  296SOL    HW1 1137   0.999   1.641   2.784
  296SOL    HW2 1138   0.875   1.659   2.681
  297SOL     OW 1139   0.399   0.691   2.346
  297SOL    HW1 1140   0.429   0.595   2.349
  297SOL    HW2 1141   0.301   0.696   2.367
  298SOL     OW 1142   1.529   0.225   3.588
  298SOL    HW1 1143   1.526   0.254   3.683
  298SOL    HW2 1144   1.506   0.128   3.581
  299SOL     OW 1145   0.640   0.128   1.970
  299SOL    HW1 1146   0.678   0.045   2.011
  299SOL    HW2 1147   0.575   0.103   1.898
  300SOL     OW 1148   0.771   0.285   3.623
  300SOL    HW1 1149   0.850   0.224   3.624
  300SOL    HW2 1150   0.719   0.274   3.708
  301SOL     OW 1151   0.851   1.504   3.059
  301SOL    HW1 1152   0.835   1.470   2.967
  301SOL    HW2 1153   0.918   1.446   3.105
  302SOL     OW 1154   1.344   0.587   3.293
  302SOL    HW1 1155   1.373   0.554   3.383
  302SOL    HW2 1156   1.375   0.682   3.281
  303SOL     OW 1157   0.816   1.394   2.800
  303SOL    HW1 1158   0.904   1.381   2.755
  303SOL    HW2 1159   0.744   1.395   2.730
  304SOL     OW 1160   0.928   0.508   2.762
  304SOL    HW1 1161   0.902   0.503   2.665
  304SOL    HW2 1162   0.959   0.419   2.793
  305SOL     OW 1163   0.550   0.058   2.347
  305SOL    HW1 1164   0.473   0.063   2.410
  305SOL    HW2 1165   0.560   0.145   2.298
  306SOL     OW 1166   1.427   1.190   1.898
  306SOL    HW1 1167   1.462   1.114   1.952
  306SOL    HW2 1168   1.339   1.220   1.936
  307SOL     OW 1169   0.323   0.025   2.023
  307SOL    HW1 1170   0.332   0.113   1.976
  307SOL    HW2 1171   0.385   0.022   2.102
  308SOL     OW 1172   0.944   0.250   2.323
  308SOL    HW1 1173   0.911   0.293   2.239
  308SOL    HW2 1174   1.044   0.252   2.325
  309SOL     OW 1175   1.081   0.679   3.319
  309SOL    HW1 1176   1.003   0.616   3.326
  309SOL    HW2 1177   1.165   0.626   3.314
  310SOL     OW 1178   0.464   1.149   2.597
  310SOL    HW1 1179   0.392   1.126   2.661
  310SOL    HW2 1180   0.432   1.135   2.503
  311SOL     OW 1181   1.270   1.796   2.450
  311SOL    HW1 1182   1.318   1.864   2.395
  311SOL    HW2 1183   1.206   1.842   2.512
  312SOL     OW 1184   1.020   0.544   1.892
  312SOL    HW1 1185   0.976   0.630   1.869
  312SOL    HW2 1186   1.090   0.560   1.962
  313SOL     OW 1187   0.079   0.581   3.241
  313SOL    HW1 1188   0.172   0.558   3.215
  313SOL    HW2 1189   0.081   0.648   3.316
  314SOL     OW 1190   0.548   0.221   3.036
  314SOL    HW1 1191   0.585   0.129   3.030
  314SOL    HW2 1192   0.492   0.229   3.119
  315SOL     OW 1193   0.869   0.460   2.500
  315SOL    HW1 1194   0.814   0.519   2.441
  315SOL    HW2 1195   0.895   0.377   2.450
  316SOL     OW 1196   0.991   0.039   2.640
  316SOL    HW1 1197   0.960   0.071   2.550
  316SOL    HW2 1198   1.006   3.941   2.637
  317SOL     OW 1199   1.445   1.150   2.714
  317SOL    HW1 1200   1.368   1.086   2.718
  317SOL    HW2 1201   1.466   1.170   2.618
  318SOL     OW 1202   1.466   0.604   2.838
  318SOL    HW1 1203   1.406   0.524   2.840
  318SOL    HW2 1204   1.529   0.600   2.915
  319SOL     OW 1205   1.846   0.817   2.245
  319SOL    HW1 1206   1.903   0.765   2.309
  319SOL    HW2 1207   1.812   0.755   2.174
  320SOL     OW 1208   0.483   1.418   2.023
  320SOL    HW1 1209   0.408   1.384   2.080
  320SOL    HW2 1210   0.459   1.406   1.927
  321SOL     OW 1211   1.670   1.267   2.507
  321SOL    HW1 1212   1.770   1.267   2.519
  321SOL    HW2 1213   1.634   1.357   2.530
  322SOL     OW 1214   1.392   0.575   1.931
  322SOL    HW1 1215   1.328   0.555   2.005
  322SOL    HW2 1216   1.485   0.554   1.960
  323SOL     OW 1217   0.555   0.277   2.180
  323SOL    HW1 1218   0.597   0.222   2.108
  323SOL    HW2 1219   0.535   0.368   2.144
  324SOL     OW 1220   1.754   1.238   3.430
  324SOL    HW1 1221   1.845   1.198   3.417
  324SOL    HW2 1222   1.763   1.331   3.466
  325SOL     OW 1223   1.057   1.349   3.192
  325SOL    HW1 1224   0.979   1.318   3.247
  325SOL    HW2 1225   1.142   1.312   3.232
  326SOL     OW 1226   1.611   1.628   3.515
  326SOL    HW1 1227   1.601   1.663   3.422
  326SOL    HW2 1228   1.697   1.578   3.523
  327SOL     OW 1229   1.118   1.192   2.971
  327SOL    HW1 1230   1.087   1.249   3.046
  327SOL    HW2 1231   1.088   1.232   2.884
  328SOL     OW 1232   1.628   1.096   2.943
  328SOL    HW1 1233   1.625   1.163   3.017
  328SOL    HW2 1234   1.549   1.109   2.883
  329SOL     OW 1235   0.915   0.118   3.257
  329SOL    HW1 1236   0.934   0.083   3.166
  329SOL    HW2 1237   0.997   0.160   3.295
  330SOL     OW 1238   0.979   1.113   3.584
  330SOL    HW1 1239   0.883   1.129   3.609
  330SOL    HW2 1240   0.985   1.032   3.526
  331SOL     OW 1241   0.717   1.063   2.238
  331SOL    HW1 1242   0.697   1.046   2.334
  331SOL    HW2 1243   0.794   1.007   2.209
  332SOL     OW 1244   0.422   0.813   3.117
  332SOL    HW1 1245   0.496   0.826   3.183
  332SOL    HW2 1246   0.384   0.721   3.127
  333SOL     OW 1247   1.266   0.379   3.136
  333SOL    HW1 1248   1.304   0.458   3.185
  333SOL    HW2 1249   1.174   0.401   3.105
  334SOL     OW 1250   0.064   1.578   3.205
  334SOL    HW1 1251   0.063   1.641   3.128
  334SOL    HW2 1252   0.159   1.562   3.234
  335SOL     OW 1253   0.374   1.103   2.341
  335SOL    HW1 1254   0.362   1.187   2.288
  335SOL    HW2 1255   0.378   1.024   2.280
  336SOL     OW 1256   0.548   0.543   2.731
  336SOL    HW1 1257   0.561   0.594   2.646
  336SOL    HW2 1258   0.619   0.568   2.797
  337SOL     OW 1259   1.247   1.353   2.253
  337SOL    HW1 1260   1.307   1.426   2.283
  337SOL    HW2 1261   1.153   1.372   2.283
  338SOL     OW 1262   1.575   0.634   2.347
  338SOL    HW1 1263   1.531   0.690   2.417
  338SOL    HW2 1264   1.624   0.693   2.283
  339SOL     OW 1265   0.343   1.522   3.181
  339SOL    HW1 1266   0.329   1.471   3.095
  339SOL    HW2 1267   0.440   1.544   3.190
  340SOL     OW 1268   0.413   0.738   3.458
  340SOL    HW1 1269   0.481   0.785   3.402
  340SOL    HW2 1270   0.438   0.641   3.468
  341SOL     OW 1271   1.602   0.784   3.538
  341SOL    HW1 1272   1.511   0.826   3.538
  341SOL    HW2 1273   1.658   0.826   3.468
  342SOL     OW 1274   1.017   0.132   3.646
  342SOL    HW1 1275   1.066   0.211   3.610
  342SOL    HW2 1276   1.004   0.064   3.574
  343SOL     OW 1277   0.490   0.039   3.616
  343SOL    HW1 1278   0.498   0.041   3.517
  343SOL    HW2 1279   0.425   0.110   3.645
  344SOL     OW 1280   0.585   0.874   2.896
  344SOL    HW1 1281   0.622   0.966   2.891
  344SOL    HW2 1282   0.526   0.866   2.976
  345SOL     OW 1283   1.358   0.857   2.890
  345SOL    HW1 1284   1.268   0.854   2.847
  345SOL    HW2 1285   1.402   0.767   2.883
  346SOL     OW 1286   1.199   0.535   2.123
  346SOL    HW1 1287   1.212   0.451   2.176
  346SOL    HW2 1288   1.154   0.604   2.179
  347SOL     OW 1289   0.061   1.304   3.143
  347SOL    HW1 1290   0.095   1.258   3.225
  347SOL    HW2 1291   0.053   1.402   3.161
  348SOL     OW 1292   0.726   0.634   2.915
  348SOL    HW1 1293   0.803   0.612   2.855
  348SOL    HW2 1294   0.693   0.726   2.896
  349SOL     OW 1295   1.745   0.951   3.706
  349SOL    HW1 1296   1.693   0.892   3.644
  349SOL    HW2 1297   1.689   0.972   3.786
  350SOL     OW 1298   0.331   0.061   2.501
  350SOL    HW1 1299   0.305   0.158   2.511
  350SOL    HW2 1300   0.266   0.004   2.551
  351SOL     OW 1301   1.605   0.390   2.248
  351SOL    HW1 1302   1.569   0.316   2.304
  351SOL    HW2 1303   1.584   0.478   2.290
  352SOL     OW 1304   1.025   0.756   2.822
  352SOL    HW1 1305   1.022   0.778   2.919
  352SOL    HW2 1306   0.997   0.661   2.808
  353SOL     OW 1307   0.984   1.566   3.573
  353SOL    HW1 1308   0.969   1.614   3.487
  353SOL    HW2 1309   1.030   1.479   3.556
  354SOL     OW 1310   1.857   1.506   3.468
  354SOL    HW1 1311   1.873   1.532   3.373
  354SOL    HW2 1312   1.940   1.523   3.521
  355SOL     OW 1313   0.349   0.916   3.654
  355SOL    HW1 1314   0.430   0.970   3.677
  355SOL    HW2 1315   0.374   0.844   3.589
  356SOL     OW 1316   1.503   0.280   2.000
  356SOL    HW1 1317   1.426   0.218   2.009
  356SOL    HW2 1318   1.524   0.322   2.088
  357SOL     OW 1319   1.292   0.827   1.890
  357SOL    HW1 1320   1.331   0.735   1.897
  357SOL    HW2 1321   1.326   0.872   1.808
  358SOL     OW 1322   1.061   1.334   2.707
  358SOL    HW1 1323   1.061   1.254   2.647
  358SOL    HW2 1324   1.152   1.375   2.708
  359SOL     OW 1325   0.317   0.803   2.810
  359SOL    HW1 1326   0.414   0.828   2.801
  359SOL    HW2 1327   0.310   0.710   2.845
  360SOL     OW 1328   0.324   0.513   2.871
  360SOL    HW1 1329   0.270   0.444   2.823
  360SOL    HW2 1330   0.410   0.527   2.822
  361SOL     OW 1331   1.142   0.372   3.558
  361SOL    HW1 1332   1.093   0.433   3.619
  361SOL    HW2 1333   1.235   0.406   3.544
  362SOL     OW 1334   1.152   0.227   3.338
  362SOL    HW1 1335   1.143   0.279   3.422
  362SOL    HW2 1336   1.178   0.289   3.263
  363SOL     OW 1337   0.005   1.321   2.047
  363SOL    HW1 1338   3.907   1.341   2.045
  363SOL    HW2 1339   0.018   1.223   2.063
  364SOL     OW 1340   0.075   1.801   2.749
  364SOL    HW1 1341   0.074   1.701   2.755
  364SOL    HW2 1342   0.170   1.833   2.753
  365SOL     OW 1343   0.505   1.573   2.774
  365SOL    HW1 1344   0.575   1.639   2.801
  365SOL    HW2 1345   0.544   1.506   2.710
  366SOL     OW 1346   0.980   0.793   3.088
  366SOL    HW1 1347   1.039   0.769   3.165
  366SOL    HW2 1348   0.889   0.754   3.103
  367SOL     OW 1349   0.046   0.553   2.969
  367SOL    HW1 1350   0.139   0.550   2.933
  367SOL    HW2 1351   0.049   0.569   3.067
  368SOL     OW 1352   0.211   0.520   3.586
  368SOL    HW1 1353   0.233   0.451   3.517
  368SOL    HW2 1354   0.151   0.589   3.546
  369SOL     OW 1355   1.377   0.939   3.520
  369SOL    HW1 1356   1.400   1.036   3.521
  369SOL    HW2 1357   1.371   0.907   3.425
  370SOL     OW 1358   0.817   0.574   2.218
  370SOL    HW1 1359   0.826   0.493   2.160
  370SOL    HW2 1360   0.739   0.629   2.187
  371SOL     OW 1361   1.641   0.603   3.047
  371SOL    HW1 1362   1.623   0.543   3.124
  371SOL    HW2 1363   1.732   0.585   3.010
  372SOL     OW 1364   0.300   1.548   3.597
  372SOL    HW1 1365   0.249   1.623   3.639
  372SOL    HW2 1366   0.268   1.461   3.634
  373SOL     OW 1367   0.703   0.455   3.116
  373SOL    HW1 1368   0.651   0.373   3.093
  373SOL    HW2 1369   0.700   0.519   3.039
  374SOL     OW 1370   0.926   1.684   3.328
  374SOL    HW1 1371   0.876   1.642   3.253
  374SOL    HW2 1372   0.920   1.783   3.321
  375SOL     OW 1373   0.482   0.497   2.024
  375SOL    HW1 1374   0.535   0.580   2.041
  375SOL    HW2 1375   0.400   0.497   2.082
  376SOL     OW 1376   0.157   1.134   3.335
  376SOL    HW1 1377   0.150   1.087   3.423
  376SOL    HW2 1378   0.174   1.067   3.263
  377SOL     OW 1379   1.318   1.044   3.084
  377SOL    HW1 1380   1.350   0.978   3.016
  377SOL    HW2 1381   1.244   1.099   3.046
  378SOL     OW 1382   1.312   0.855   2.163
  378SOL    HW1 1383   1.234   0.829   2.220
  378SOL    HW2 1384   1.289   0.843   2.067
  379SOL     OW 1385   1.776   1.739   3.017
  379SOL    HW1 1386   1.837   1.773   2.945
  379SOL    HW2 1387   1.750   1.644   2.996
  380SOL     OW 1388   0.073   1.217   2.889
  380SOL    HW1 1389   0.086   1.244   2.984
  380SOL    HW2 1390   3.977   1.225   2.865
  381SOL     OW 1391   0.679   1.670   3.595
  381SOL    HW1 1392   0.617   1.749   3.595
  381SOL    HW2 1393   0.748   1.681   3.524
  382SOL     OW 1394   1.711   0.122   2.342
  382SOL    HW1 1395   1.796   0.135   2.291
  382SOL    HW2 1396   1.702   0.026   2.367
  383SOL     OW 1397   1.391   1.570   2.347
  383SOL    HW1 1398   1.456   1.602   2.278
  383SOL    HW2 1399   1.339   1.648   2.383
  384SOL     OW 1400   0.169   1.766   3.694
  384SOL    HW1 1401   0.105   1.712   3.748
  384SOL    HW2 1402   0.218   1.829   3.754
  385SOL     OW 1403   1.281   0.926   2.528
  385SOL    HW1 1404   1.356   0.862   2.544
  385SOL    HW2 1405   1.314   1.004   2.474
  386SOL     OW 1406   0.811   1.277   3.290
  386SOL    HW1 1407   0.782   1.320   3.376
  386SOL    HW2 1408   0.738   1.283   3.223
  387SOL     OW 1409   0.669   1.616   2.017
  387SOL    HW1 1410   0.684   1.633   1.919
  387SOL    HW2 1411   0.612   1.535   2.028
  388SOL     OW 1412   1.622   1.732   3.252
  388SOL    HW1 1413   1.676   1.733   3.168
  388SOL    HW2 1414   1.607   1.826   3.283
  389SOL     OW 1415   1.837   0.170   2.825
  389SOL    HW1 1416   1.881   0.110   2.758
  389SOL    HW2 1417   1.744   0.191   2.795
  390SOL     OW 1418   0.269   0.322   2.572
  390SOL    HW1 1419   0.180   0.361   2.548
  390SOL    HW2 1420   0.265   0.285   2.664
  391SOL     OW 1421   1.207   1.602   1.892
  391SOL    HW1 1422   1.200   1.509   1.928
  391SOL    HW2 1423   1.135   1.617   1.823
  392SOL     OW 1424   0.821   1.009   3.233
  392SOL    HW1 1425   0.877   0.994   3.151
  392SOL    HW2 1426   0.825   1.105   3.259
  393SOL     OW 1427   0.920   0.911   2.149
  393SOL    HW1 1428   0.982   0.945   2.079
  393SOL    HW2 1429   0.965   0.838   2.201
  394SOL     OW 1430   1.490   1.627   1.901
  394SOL    HW1 1431   1.391   1.619   1.893
  394SOL    HW2 1432   1.530   1.633   1.810
  395SOL     OW 1433   0.372   1.301   3.351
  395SOL    HW1 1434   0.361   1.385   3.298
  395SOL    HW2 1435   0.293   1.242   3.336
  396SOL     OW 1436   1.615   1.277   3.150
  396SOL    HW1 1437   1.673   1.268   3.231
  396SOL    HW2 1438   1.551   1.352   3.163
  397SOL     OW 1439   1.055   1.102   2.572
  397SOL    HW1 1440   0.980   1.050   2.614
  397SOL    HW2 1441   1.123   1.038   2.536
  398SOL     OW 1442   1.013   0.246   2.831
  398SOL    HW1 1443   1.004   0.199   2.744
  398SOL    HW2 1444   1.011   0.180   2.906
  399SOL     OW 1445   0.605   1.486   2.343
  399SOL    HW1 1446   0.651   1.433   2.273
  399SOL    HW2 1447   0.530   1.538   2.302
  400SOL     OW 1448   1.731   0.388   3.241
  400SOL    HW1 1449   1.800   0.460   3.239
  400SOL    HW2 1450   1.760   0.313   3.181
  401SOL     OW 1451   0.254   1.340   2.164
  401SOL    HW1 1452   0.159   1.346   2.133
  401SOL    HW2 1453   0.262   1.383   2.255
  402SOL     OW 1454   0.105   1.004   3.579
  402SOL    HW1 1455   0.036   0.999   3.651
  402SOL    HW2 1456   0.194   0.978   3.616
  403SOL     OW 1457   0.697   0.253   3.359
  403SOL    HW1 1458   0.766   0.196   3.315
  403SOL    HW2 1459   0.714   0.256   3.458
  404SOL     OW 1460   0.092   0.326   1.877
  404SOL    HW1 1461   3.993   0.320   1.885
  404SOL    HW2 1462   0.118   0.411   1.831
  405SOL     OW 1463   1.425   0.857   3.259
  405SOL    HW1 1464   1.371   0.921   3.206
  405SOL    HW2 1465   1.520   0.859   3.227
  406SOL     OW 1466   1.180   1.341   1.980
  406SOL    HW1 1467   1.086   1.308   1.977
  406SOL    HW2 1468   1.212   1.341   2.075
  407SOL     OW 1469   0.622   0.830   3.297
  407SOL    HW1 1470   0.679   0.910   3.280
  407SOL    HW2 1471   0.681   0.749   3.306
  408SOL     OW 1472   1.502   1.794   2.828
  408SOL    HW1 1473   1.538   1.856   2.758
  408SOL    HW2 1474   1.578   1.758   2.883
  409SOL     OW 1475   0.745   0.555   3.574
  409SOL    HW1 1476   0.720   0.595   3.662
  409SOL    HW2 1477   0.755   0.456   3.584
  410SOL     OW 1478   1.473   1.200   3.493
  410SOL    HW1 1479   1.458   1.209   3.591
  410SOL    HW2 1480   1.569   1.217   3.471
  411SOL     OW 1481   0.377   1.739   3.420
  411SOL    HW1 1482   0.288   1.784   3.407
  411SOL    HW2 1483   0.364   1.655   3.473
  412SOL     OW 1484   1.669   0.879   3.118
  412SOL    HW1 1485   1.661   0.789   3.075
  412SOL    HW2 1486   1.657   0.951   3.049
  413SOL     OW 1487   1.227   0.334   2.307
  413SOL    HW1 1488   1.296   0.263   2.297
  413SOL    HW2 1489   1.243   0.385   2.391
  414SOL     OW 1490   0.591   0.741   2.535
  414SOL    HW1 1491   0.632   0.830   2.521
  414SOL    HW2 1492   0.519   0.725   2.467
  415SOL     OW 1493   1.753   0.368   3.514
  415SOL    HW1 1494   1.742   0.385   3.417
  415SOL    HW2 1495   1.682   0.305   3.545
  416SOL     OW 1496   1.751   0.933   3.372
  416SOL    HW1 1497   1.742   1.030   3.394
  416SOL    HW2 1498   1.731   0.920   3.275
  417SOL     OW 1499   0.860   1.366   1.898
  417SOL    HW1 1500   0.822   1.383   1.988
  417SOL    HW2 1501   0.879   1.453   1.852
  418SOL     OW 1502   0.662   1.792   2.810
  418SOL    HW1 1503   0.634   1.885   2.785
  418SOL    HW2 1504   0.760   1.782   2.794
  419SOL     OW 1505   0.868   0.966   2.719
  419SOL    HW1 1506   0.921   0.890   2.757
  419SOL    HW2 1507   0.828   1.019   2.793
  420SOL     OW 1508   1.079   0.989   1.946
  420SOL    HW1 1509   1.054   1.044   1.866
  420SOL    HW2 1510   1.158   0.932   1.922
  421SOL     OW 1511   1.849   1.556   2.711
  421SOL    HW1 1512   1.773   1.545   2.647
  421SOL    HW2 1513   1.840   1.490   2.785
  422SOL     OW 1514   0.229   1.302   3.715
  422SOL    HW1 1515   0.158   1.241   3.682
  422SOL    HW2 1516   0.214   1.322   3.812
  423SOL     OW 1517   0.116   1.276   2.582
  423SOL    HW1 1518   0.124   1.231   2.671
  423SOL    HW2 1519   0.110   1.207   2.510
  424SOL     OW 1520   0.676   1.408   3.488
  424SOL    HW1 1521   0.598   1.355   3.521
  424SOL    HW2 1522   0.673   1.500   3.529
  425SOL     OW 1523   1.812   0.174   3.099
  425SOL    HW1 1524   1.821   0.076   3.117
  425SOL    HW2 1525   1.825   0.192   3.001
  426SOL     OW 1526   0.482   0.427   2.427
  426SOL    HW1 1527   0.492   0.370   2.345
  426SOL    HW2 1528   0.406   0.393   2.482
  427SOL     OW 1529   1.715   1.484   2.968
  427SOL    HW1 1530   1.636   1.456   2.915
  427SOL    HW2 1531   1.732   1.417   3.041
  428SOL     OW 1532   0.333   0.553   3.149
  428SOL    HW1 1533   0.388   0.501   3.214
  428SOL    HW2 1534   0.353   0.523   3.056
  429SOL     OW 1535   0.819   1.585   2.539
  429SOL    HW1 1536   0.815   1.638   2.454
  429SOL    HW2 1537   0.744   1.518   2.540
  430SOL     OW 1538   1.459   0.252   2.974
  430SOL    HW1 1539   1.476   0.158   3.004
  430SOL    HW2 1540   1.399   0.298   3.040
  431SOL     OW 1541   1.004   0.028   3.007
  431SOL    HW1 1542   0.923   3.981   2.973
  431SOL    HW2 1543   1.078   3.961   3.020
  432SOL     OW 1544   0.776   1.331   2.175
  432SOL    HW1 1545   0.744   1.237   2.186
  432SOL    HW2 1546   0.859   1.345   2.229
  433SOL     OW 1547   0.610   1.564   3.156
  433SOL    HW1 1548   0.613   1.651   3.205
  433SOL    HW2 1549   0.699   1.546   3.114
  434SOL     OW 1550   1.312   0.078   2.029
  434SOL    HW1 1551   1.343   0.004   1.970
  434SOL    HW2 1552   1.221   0.057   2.066
  435SOL     OW 1553   1.279   0.457   2.550
  435SOL    HW1 1554   1.231   0.545   2.542
  435SOL    HW2 1555   1.286   0.431   2.646
  436SOL     OW 1556   1.589   0.216   2.732
  436SOL    HW1 1557   1.536   0.235   2.815
  436SOL    HW2 1558   1.591   0.297   2.674
  437SOL     OW 1559   0.046   1.056   2.112
  437SOL    HW1 1560   0.141   1.038   2.087
  437SOL    HW2 1561   0.006   0.975   2.154
  438SOL     OW 1562   0.882   1.656   2.206
  438SOL    HW1 1563   0.808   1.635   2.141
  438SOL    HW2 1564   0.857   1.736   2.260
  439SOL     OW 1565   0.210   0.608   3.849
  439SOL    HW1 1566   0.112   0.625   3.859
  439SOL    HW2 1567   0.231   0.590   3.753
  440SOL     OW 1568   1.781   0.607   3.938
  440SOL    HW1 1569   1.743   0.617   3.846
  440SOL    HW2 1570   1.774   0.512   3.967
  441SOL     OW 1571   0.251   1.749   0.208
  441SOL    HW1 1572   0.336   1.769   0.257
  441SOL    HW2 1573   0.271   1.702   0.123
  442SOL     OW 1574   0.039   1.586   3.848
  442SOL    HW1 1575   0.032   1.486   3.847
  442SOL    HW2 1576   0.022   1.619   3.941
  443SOL     OW 1577   1.555   0.974   3.905
  443SOL    HW1 1578   1.477   0.912   3.914
  443SOL    HW2 1579   1.580   1.009   3.995
  444SOL     OW 1580   0.520   0.765   3.955
  444SOL    HW1 1581   0.596   0.810   3.908
  444SOL    HW2 1582   0.502   0.811   0.042
  445SOL     OW 1583   0.875   0.343   3.906
  445SOL    HW1 1584   0.902   0.438   3.890
  445SOL    HW2 1585   0.954   0.283   3.893
  446SOL     OW 1586   1.002   1.489   0.198
  446SOL    HW1 1587   0.933   1.555   0.224
  446SOL    HW2 1588   1.034   1.440   0.280
  447SOL     OW 1589   0.296   0.956   3.949
  447SOL    HW1 1590   0.386   0.997   3.939
  447SOL    HW2 1591   0.297   0.864   3.909
  448SOL     OW 1592   1.079   1.827   3.925
  448SOL    HW1 1593   1.082   1.776   0.011
  448SOL    HW2 1594   1.096   1.764   3.849
  449SOL     OW 1595   1.626   1.380   3.794
  449SOL    HW1 1596   1.587   1.472   3.788
  449SOL    HW2 1597   1.554   1.312   3.781
  450SOL     OW 1598   0.458   1.748   0.015
  450SOL    HW1 1599   0.505   1.811   0.078
  450SOL    HW2 1600   0.527   1.700   3.960
  451SOL     OW 1601   0.637   0.142   3.829
  451SOL    HW1 1602   0.727   0.097   3.833
  451SOL    HW2 1603   0.578   0.092   3.767
  452SOL     OW 1604   1.428   1.192   3.759
  452SOL    HW1 1605   1.472   1.123   3.816
  452SOL    HW2 1606   1.343   1.223   3.802
  453SOL     OW 1607   0.344   0.001   3.909
  453SOL    HW1 1608   0.377   0.095   3.896
  453SOL    HW2 1609   0.314   3.990   0.004
  454SOL     OW 1610   1.049   0.559   3.725
  454SOL    HW1 1611   0.996   0.630   3.681
  454SOL    HW2 1612   1.055   0.577   3.823
  455SOL     OW 1613   1.844   0.819   0.098
  455SOL    HW1 1614   1.935   0.788   0.123
  455SOL    HW2 1615   1.807   0.760   0.027
  456SOL     OW 1616   0.486   1.402   3.889
  456SOL    HW1 1617   0.393   1.391   3.924
  456SOL    HW2 1618   0.486   1.394   3.790
  457SOL     OW 1619   1.404   0.578   3.786
  457SOL    HW1 1620   1.368   0.556   3.877
  457SOL    HW2 1621   1.502   0.560   3.785
  458SOL     OW 1622   1.564   0.680   0.176
  458SOL    HW1 1623   1.545   0.681   0.274
  458SOL    HW2 1624   1.612   0.764   0.150
  459SOL     OW 1625   1.502   0.274   3.853
  459SOL    HW1 1626   1.430   0.205   3.854
  459SOL    HW2 1627   1.515   0.310   3.945
  460SOL     OW 1628   1.302   0.834   3.761
  460SOL    HW1 1629   1.331   0.738   3.761
  460SOL    HW2 1630   1.327   0.877   3.674
  461SOL     OW 1631   0.006   1.311   3.888
  461SOL    HW1 1632   3.908   1.331   3.892
  461SOL    HW2 1633   0.023   1.220   3.924
  462SOL     OW 1634   0.465   0.512   3.870
  462SOL    HW1 1635   0.518   0.591   3.901
  462SOL    HW2 1636   0.368   0.536   3.867
  463SOL     OW 1637   1.716   0.106   0.169
  463SOL    HW1 1638   1.814   0.112   0.148
  463SOL    HW2 1639   1.696   0.017   0.210
  464SOL     OW 1640   0.658   1.619   3.879
  464SOL    HW1 1641   0.679   1.636   3.782
  464SOL    HW2 1642   0.613   1.530   3.888
  465SOL     OW 1643   1.189   1.605   3.767
  465SOL    HW1 1644   1.191   1.506   3.780
  465SOL    HW2 1645   1.132   1.627   3.687
  466SOL     OW 1646   1.482   1.629   3.758
  466SOL    HW1 1647   1.385   1.619   3.738
  466SOL    HW2 1648   1.533   1.635   3.672
  467SOL     OW 1649   0.247   1.363   0.005
  467SOL    HW1 1650   0.149   1.365   3.985
  467SOL    HW2 1651   0.260   1.371   0.104
  468SOL     OW 1652   0.085   0.330   3.746
  468SOL    HW1 1653   3.985   0.324   3.749
  468SOL    HW2 1654   0.112   0.408   3.689
  469SOL     OW 1655   1.176   1.338   3.830
  469SOL    HW1 1656   1.085   1.302   3.813
  469SOL    HW2 1657   1.198   1.330   3.927
  470SOL     OW 1658   0.863   1.365   3.743
  470SOL    HW1 1659   0.840   1.383   3.839
  470SOL    HW2 1660   0.880   1.452   3.696
  471SOL     OW 1661   1.086   1.001   3.808
  471SOL    HW1 1662   1.049   1.044   3.725
  471SOL    HW2 1663   1.161   0.940   3.783
  472SOL     OW 1664   1.307   0.077   3.866
  472SOL    HW1 1665   1.359   0.003   3.824
  472SOL    HW2 1666   1.209   0.060   3.856
  473SOL     OW 1667   0.050   1.056   3.978
  473SOL    HW1 1668   0.143   1.025   3.958
  473SOL    HW2 1669   0.026   1.032   0.071
  474SOL     OW 1670   0.232   2.495   0.127
  474SOL    HW1 1671   0.138   2.494   0.159
  474SOL    HW2 1672   0.235   2.489   0.027
  475SOL     OW 1673   0.225   2.136   0.990
  475SOL    HW1 1674   0.253   2.101   1.079
  475SOL    HW2 1675   0.126   2.125   0.980
  476SOL     OW 1676   0.029   2.230   0.617
  476SOL    HW1 1677   3.958   2.291   0.652
  476SOL    HW2 1678   3.998   2.187   0.532
  477SOL     OW 1679   0.584   3.157   1.190
  477SOL    HW1 1680   0.496   3.150   1.144
  477SOL    HW2 1681   0.596   3.248   1.228
  478SOL     OW 1682   1.554   3.368   0.707
  478SOL    HW1 1683   1.513   3.348   0.796
  478SOL    HW2 1684   1.482   3.382   0.639
  479SOL     OW 1685   1.135   2.562   0.703
  479SOL    HW1 1686   1.185   2.646   0.682
  479SOL    HW2 1687   1.082   2.573   0.787
  480SOL     OW 1688   1.829   2.405   0.231
  480SOL    HW1 1689   1.765   2.464   0.182
  480SOL    HW2 1690   1.779   2.349   0.297
  481SOL     OW 1691   0.756   3.011   1.034
  481SOL    HW1 1692   0.694   3.052   1.102
  481SOL    HW2 1693   0.768   3.075   0.958
  482SOL     OW 1694   0.845   2.647   1.812
  482SOL    HW1 1695   0.855   2.714   1.886
  482SOL    HW2 1696   0.885   2.684   1.729
  483SOL     OW 1697   0.686   2.863   0.652
  483SOL    HW1 1698   0.754   2.849   0.724
  483SOL    HW2 1699   0.609   2.916   0.688
  484SOL     OW 1700   0.352   3.257   1.073
  484SOL    HW1 1701   0.266   3.235   1.027
  484SOL    HW2 1702   0.404   3.322   1.017
  485SOL     OW 1703   1.461   3.362   1.353
  485SOL    HW1 1704   1.517   3.445   1.359
  485SOL    HW2 1705   1.395   3.361   1.428
  486SOL     OW 1706   0.451   2.258   1.483
  486SOL    HW1 1707   0.530   2.197   1.488
  486SOL    HW2 1708   0.367   2.206   1.501
  487SOL     OW 1709   1.617   2.315   0.734
  487SOL    HW1 1710   1.532   2.334   0.685
  487SOL    HW2 1711   1.636   2.388   0.799
  488SOL     OW 1712   0.221   3.567   0.505
  488SOL    HW1 1713   0.246   3.656   0.544
  488SOL    HW2 1714   0.234   3.569   0.406
  489SOL     OW 1715   1.144   3.205   1.694
  489SOL    HW1 1716   1.189   3.207   1.784
  489SOL    HW2 1717   1.094   3.119   1.684
  490SOL     OW 1718   0.247   3.300   0.538
  490SOL    HW1 1719   0.232   3.398   0.535
  490SOL    HW2 1720   0.179   3.258   0.599
  491SOL     OW 1721   0.257   2.928   0.893
  491SOL    HW1 1722   0.270   2.836   0.927
  491SOL    HW2 1723   0.198   2.979   0.955
  492SOL     OW 1724   0.608   3.647   1.429
  492SOL    HW1 1725   0.522   3.627   1.476
  492SOL    HW2 1726   0.639   3.738   1.454
  493SOL     OW 1727   0.600   2.862   0.141
  493SOL    HW1 1728   0.584   2.950   0.096
  493SOL    HW2 1729   0.644   2.877   0.230
  494SOL     OW 1730   1.587   1.964   1.528
  494SOL    HW1 1731   1.598   1.961   1.429
  494SOL    HW2 1732   1.586   2.059   1.559
  495SOL     OW 1733   0.132   2.518   0.568
  495SOL    HW1 1734   0.099   2.424   0.579
  495SOL    HW2 1735   0.101   2.573   0.645
  496SOL     OW 1736   1.841   3.634   0.353
  496SOL    HW1 1737   1.901   3.583   0.416
  496SOL    HW2 1738   1.887   3.717   0.322
  497SOL     OW 1739   0.042   3.448   0.129
  497SOL    HW1 1740   0.013   3.356   0.156
  497SOL    HW2 1741   3.979   3.515   0.167
  498SOL     OW 1742   1.690   2.785   0.648
  498SOL    HW1 1743   1.776   2.736   0.633
  498SOL    HW2 1744   1.667   2.837   0.565
  499SOL     OW 1745   1.650   2.971   0.432
  499SOL    HW1 1746   1.735   2.968   0.381
  499SOL    HW2 1747   1.656   3.038   0.505
  500SOL     OW 1748   0.132   2.619   1.585
  500SOL    HW1 1749   0.231   2.606   1.584
  500SOL    HW2 1750   0.112   2.711   1.619
  501SOL     OW 1751   0.608   3.240   0.734
  501SOL    HW1 1752   0.557   3.154   0.741
  501SOL    HW2 1753   0.592   3.281   0.644
  502SOL     OW 1754   1.291   3.095   1.425
  502SOL    HW1 1755   1.322   3.027   1.359
  502SOL    HW2 1756   1.351   3.093   1.506
  503SOL     OW 1757   0.817   1.879   0.522
  503SOL    HW1 1758   0.862   1.965   0.497
  503SOL    HW2 1759   0.718   1.895   0.526
  504SOL     OW 1760   1.528   2.851   0.208
  504SOL    HW1 1761   1.450   2.799   0.244
  504SOL    HW2 1762   1.578   2.893   0.283
  505SOL     OW 1763   1.210   3.664   1.624
  505SOL    HW1 1764   1.194   3.734   1.554
  505SOL    HW2 1765   1.218   3.574   1.581
  506SOL     OW 1766   0.345   2.110   1.817
  506SOL    HW1 1767   0.389   2.198   1.834
  506SOL    HW2 1768   0.247   2.117   1.837
  507SOL     OW 1769   1.469   3.279   0.954
  507SOL    HW1 1770   1.396   3.303   1.018
  507SOL    HW2 1771   1.457   3.184   0.924
  508SOL     OW 1772   1.649   3.600   0.586
  508SOL    HW1 1773   1.637   3.575   0.490
  508SOL    HW2 1774   1.623   3.523   0.644
  509SOL     OW 1775   0.593   2.592   0.273
  509SOL    HW1 1776   0.620   2.682   0.239
  509SOL    HW2 1777   0.526   2.603   0.347
  510SOL     OW 1778   1.297   2.200   0.967
  510SOL    HW1 1779   1.206   2.166   0.943
  510SOL    HW2 1780   1.304   2.208   1.067
  511SOL     OW 1781   1.595   3.519   0.317
  511SOL    HW1 1782   1.689   3.553   0.315
  511SOL    HW2 1783   1.580   3.455   0.242
  512SOL     OW 1784   0.791   2.477   1.448
  512SOL    HW1 1785   0.766   2.455   1.543
  512SOL    HW2 1786   0.750   2.411   1.386
  513SOL     OW 1787   1.387   2.339   1.681
  513SOL    HW1 1788   1.390   2.391   1.765
  513SOL    HW2 1789   1.447   2.259   1.688
  514SOL     OW 1790   0.952   2.752   1.582
  514SOL    HW1 1791   1.011   2.678   1.549
  514SOL    HW2 1792   0.901   2.789   1.505
  515SOL     OW 1793   0.988   2.273   1.234
  515SOL    HW1 1794   0.900   2.296   1.276
  515SOL    HW2 1795   0.973   2.226   1.147
  516SOL     OW 1796   1.048   2.559   0.430
  516SOL    HW1 1797   1.069   2.554   0.527
  516SOL    HW2 1798   0.961   2.513   0.411
  517SOL     OW 1799   0.087   2.686   0.788
  517SOL    HW1 1800   0.172   2.661   0.835
  517SOL    HW2 1801   0.086   2.784   0.771
  518SOL     OW 1802   0.128   3.730   1.578
  518SOL    HW1 1803   0.143   3.703   1.673
  518SOL    HW2 1804   0.035   3.706   1.551
  519SOL     OW 1805   0.889   2.208   0.217
  519SOL    HW1 1806   0.892   2.278   0.146
  519SOL    HW2 1807   0.888   2.117   0.174
  520SOL     OW 1808   1.693   2.436   1.827
  520SOL    HW1 1809   1.664   2.517   1.776
  520SOL    HW2 1810   1.732   2.369   1.765
  521SOL     OW 1811   1.382   3.003   0.539
  521SOL    HW1 1812   1.466   2.985   0.488
  521SOL    HW2 1813   1.328   3.073   0.492
  522SOL     OW 1814   0.543   2.038   0.897
  522SOL    HW1 1815   0.551   2.069   0.992
  522SOL    HW2 1816   0.547   2.117   0.836
  523SOL     OW 1817   0.359   3.666   0.857
  523SOL    HW1 1818   0.434   3.600   0.865
  523SOL    HW2 1819   0.395   3.759   0.869
  524SOL     OW 1820   1.791   2.927   0.868
  524SOL    HW1 1821   1.741   2.891   0.789
  524SOL    HW2 1822   1.732   2.929   0.948
  525SOL     OW 1823   1.230   3.398   1.513
  525SOL    HW1 1824   1.216   3.322   1.576
  525SOL    HW2 1825   1.163   3.394   1.439
  526SOL     OW 1826   0.309   2.811   0.257
  526SOL    HW1 1827   0.381   2.846   0.196
  526SOL    HW2 1828   0.286   2.718   0.230
  527SOL     OW 1829   1.484   2.606   0.725
  527SOL    HW1 1830   1.474   2.562   0.815
  527SOL    HW2 1831   1.562   2.668   0.728
  528SOL     OW 1832   1.119   3.631   0.270
  528SOL    HW1 1833   1.038   3.592   0.313
  528SOL    HW2 1834   1.135   3.587   0.181
  529SOL     OW 1835   0.204   2.142   1.512
  529SOL    HW1 1836   0.111   2.176   1.499
  529SOL    HW2 1837   0.201   2.054   1.560
  530SOL     OW 1838   1.614   3.258   0.113
  530SOL    HW1 1839   1.635   3.308   0.029
  530SOL    HW2 1840   1.551   3.183   0.093
  531SOL     OW 1841   0.491   3.583   0.341
  531SOL    HW1 1842   0.513   3.660   0.401
  531SOL    HW2 1843   0.565   3.570   0.275
  532SOL     OW 1844   1.407   1.969   0.434
  532SOL    HW1 1845   1.392   1.946   0.337
  532SOL    HW2 1846   1.505   1.971   0.453
  533SOL     OW 1847   0.258   3.657   1.227
  533SOL    HW1 1848   0.291   3.578   1.278
  533SOL    HW2 1849   0.224   3.628   1.138
  534SOL     OW 1850   0.950   3.551   0.909
  534SOL    HW1 1851   1.044   3.518   0.908
  534SOL    HW2 1852   0.902   3.520   0.827
  535SOL     OW 1853   0.394   2.553   0.478
  535SOL    HW1 1854   0.421   2.457   0.488
  535SOL    HW2 1855   0.297   2.563   0.501
  536SOL     OW 1856   1.529   2.118   1.745
  536SOL    HW1 1857   1.530   2.129   1.844
  536SOL    HW2 1858   1.504   2.024   1.722
  537SOL     OW 1859   0.626   1.952   0.117
  537SOL    HW1 1860   0.726   1.949   0.123
  537SOL    HW2 1861   0.599   1.988   0.028
  538SOL     OW 1862   0.769   2.145   1.766
  538SOL    HW1 1863   0.847   2.084   1.756
  538SOL    HW2 1864   0.710   2.113   1.841
  539SOL     OW 1865   0.884   3.381   1.203
  539SOL    HW1 1866   0.898   3.393   1.104
  539SOL    HW2 1867   0.960   3.327   1.241
  540SOL     OW 1868   1.338   2.448   1.431
  540SOL    HW1 1869   1.369   2.412   1.519
  540SOL    HW2 1870   1.375   2.540   1.418
  541SOL     OW 1871   0.928   2.370   0.899
  541SOL    HW1 1872   0.901   2.364   0.803
  541SOL    HW2 1873   0.961   2.280   0.929
  542SOL     OW 1874   0.553   1.935   0.502
  542SOL    HW1 1875   0.465   1.935   0.549
  542SOL    HW2 1876   0.560   2.015   0.442
  543SOL     OW 1877   1.436   3.061   0.061
  543SOL    HW1 1878   1.457   2.981   0.117
  543SOL    HW2 1879   1.342   3.091   0.081
  544SOL     OW 1880   0.949   2.110   0.466
  544SOL    HW1 1881   0.913   2.149   0.381
  544SOL    HW2 1882   1.048   2.126   0.470
  545SOL     OW 1883   1.079   2.544   1.461
  545SOL    HW1 1884   1.004   2.478   1.458
  545SOL    HW2 1885   1.166   2.495   1.451
  546SOL     OW 1886   1.236   3.456   0.838
  546SOL    HW1 1887   1.228   3.497   0.747
  546SOL    HW2 1888   1.324   3.480   0.878
  547SOL     OW 1889   0.467   3.004   0.736
  547SOL    HW1 1890   0.392   2.984   0.800
  547SOL    HW2 1891   0.434   2.993   0.642
  548SOL     OW 1892   1.282   3.657   0.615
  548SOL    HW1 1893   1.326   3.727   0.558
  548SOL    HW2 1894   1.189   3.686   0.637
  549SOL     OW 1895   1.068   2.446   0.001
  549SOL    HW1 1896   0.970   2.458   0.022
  549SOL    HW2 1897   1.118   2.425   0.084
  550SOL     OW 1898   0.082   2.432   1.389
  550SOL    HW1 1899   0.176   2.419   1.354
  550SOL    HW2 1900   0.081   2.506   1.456
  551SOL     OW 1901   0.566   2.086   1.168
  551SOL    HW1 1902   0.612   2.005   1.203
  551SOL    HW2 1903   0.471   2.086   1.198
  552SOL     OW 1904   0.867   2.321   0.637
  552SOL    HW1 1905   0.820   2.382   0.573
  552SOL    HW2 1906   0.894   2.237   0.590
  553SOL     OW 1907   1.013   1.917   0.751
  553SOL    HW1 1908   0.955   1.917   0.670
  553SOL    HW2 1909   0.992   1.836   0.806
  554SOL     OW 1910   1.440   3.023   0.855
  554SOL    HW1 1911   1.368   2.954   0.864
  554SOL    HW2 1912   1.460   3.038   0.758
  555SOL     OW 1913   1.469   2.468   0.978
  555SOL    HW1 1914   1.417   2.382   0.976
  555SOL    HW2 1915   1.533   2.466   1.054
  556SOL     OW 1916   1.819   2.667   0.395
  556SOL    HW1 1917   1.885   2.613   0.448
  556SOL    HW2 1918   1.823   2.639   0.299
  557SOL     OW 1919   0.501   3.265   0.170
  557SOL    HW1 1920   0.416   3.245   0.217
  557SOL    HW2 1921   0.487   3.258   0.071
  558SOL     OW 1922   1.683   3.136   0.642
  558SOL    HW1 1923   1.758   3.127   0.707
  558SOL    HW2 1924   1.634   3.221   0.658
  559SOL     OW 1925   1.361   2.429   0.063
  559SOL    HW1 1926   1.301   2.392   0.134
  559SOL    HW2 1927   1.456   2.430   0.097
  560SOL     OW 1928   0.580   2.134   0.321
  560SOL    HW1 1929   0.592   2.066   0.248
  560SOL    HW2 1930   0.542   2.218   0.282
  561SOL     OW 1931   1.755   3.102   1.570
  561SOL    HW1 1932   1.844   3.058   1.560
  561SOL    HW2 1933   1.767   3.197   1.600
  562SOL     OW 1934   1.065   3.212   1.332
  562SOL    HW1 1935   0.983   3.180   1.379
  562SOL    HW2 1936   1.146   3.173   1.377
  563SOL     OW 1937   1.612   3.489   1.654
  563SOL    HW1 1938   1.597   3.525   1.562
  563SOL    HW2 1939   1.699   3.441   1.658
  564SOL     OW 1940   1.135   3.069   1.110
  564SOL    HW1 1941   1.083   3.110   1.185
  564SOL    HW2 1942   1.078   3.064   1.028
  565SOL     OW 1943   1.624   2.958   1.080
  565SOL    HW1 1944   1.623   3.023   1.157
  565SOL    HW2 1945   1.546   2.976   1.020
  566SOL     OW 1946   0.919   1.958   1.399
  566SOL    HW1 1947   0.931   1.942   1.301
  566SOL    HW2 1948   1.002   2.000   1.436
  567SOL     OW 1949   0.995   2.980   1.718
  567SOL    HW1 1950   0.906   3.010   1.754
  567SOL    HW2 1951   0.982   2.897   1.665
  568SOL     OW 1952   0.716   2.914   0.380
  568SOL    HW1 1953   0.696   2.900   0.477
  568SOL    HW2 1954   0.798   2.863   0.355
  569SOL     OW 1955   0.430   2.668   1.248
  569SOL    HW1 1956   0.495   2.687   1.322
  569SOL    HW2 1957   0.384   2.581   1.266
  570SOL     OW 1958   1.259   2.246   1.252
  570SOL    HW1 1959   1.302   2.316   1.309
  570SOL    HW2 1960   1.161   2.263   1.246
  571SOL     OW 1961   0.378   2.966   0.483
  571SOL    HW1 1962   0.370   3.056   0.440
  571SOL    HW2 1963   0.369   2.895   0.412
  572SOL     OW 1964   0.553   2.406   0.863
  572SOL    HW1 1965   0.566   2.465   0.783
  572SOL    HW2 1966   0.621   2.429   0.933
  573SOL     OW 1967   1.257   3.210   0.398
  573SOL    HW1 1968   1.306   3.291   0.431
  573SOL    HW2 1969   1.158   3.226   0.406
  574SOL     OW 1970   1.283   3.322   1.148
  574SOL    HW1 1971   1.345   3.329   1.227
  574SOL    HW2 1972   1.232   3.236   1.154
  575SOL     OW 1973   1.585   2.508   0.471
  575SOL    HW1 1974   1.533   2.543   0.549
  575SOL    HW2 1975   1.664   2.566   0.455
  576SOL     OW 1976   0.330   3.400   1.307
  576SOL    HW1 1977   0.334   3.342   1.225
  576SOL    HW2 1978   0.419   3.397   1.353
  577SOL     OW 1979   0.413   2.601   1.598
  577SOL    HW1 1980   0.480   2.646   1.540
  577SOL    HW2 1981   0.445   2.510   1.622
  578SOL     OW 1982   1.602   2.647   1.682
  578SOL    HW1 1983   1.512   2.689   1.679
  578SOL    HW2 1984   1.661   2.687   1.612
  579SOL     OW 1985   0.997   1.992   1.750
  579SOL    HW1 1986   1.058   2.068   1.728
  579SOL    HW2 1987   1.041   1.906   1.726
  580SOL     OW 1988   0.497   1.899   1.744
  580SOL    HW1 1989   0.452   1.841   1.675
  580SOL    HW2 1990   0.441   1.980   1.760
  581SOL     OW 1991   0.589   2.732   1.035
  581SOL    HW1 1992   0.610   2.830   1.028
  581SOL    HW2 1993   0.526   2.718   1.111
  582SOL     OW 1994   1.356   2.720   1.026
  582SOL    HW1 1995   1.269   2.713   0.979
  582SOL    HW2 1996   1.403   2.632   1.023
  583SOL     OW 1997   1.189   2.384   0.269
  583SOL    HW1 1998   1.204   2.301   0.323
  583SOL    HW2 1999   1.144   2.454   0.325
  584SOL     OW 2000   0.309   2.059   1.245
  584SOL    HW1 2001   0.264   2.101   1.324
  584SOL    HW2 2002   0.291   1.960   1.245
  585SOL     OW 2003   0.040   3.165   1.285
  585SOL    HW1 2004   0.093   3.117   1.355
  585SOL    HW2 2005   0.089   3.247   1.257
  586SOL     OW 2006   0.729   2.495   1.058
  586SOL    HW1 2007   0.802   2.474   0.994
  586SOL    HW2 2008   0.692   2.586   1.039
  587SOL     OW 2009   1.731   2.827   1.850
  587SOL    HW1 2010   1.690   2.759   1.789
  587SOL    HW2 2011   1.675   2.838   1.931
  588SOL     OW 2012   0.313   1.926   0.626
  588SOL    HW1 2013   0.295   2.022   0.647
  588SOL    HW2 2014   0.324   1.875   0.712
  589SOL     OW 2015   1.635   2.246   0.372
  589SOL    HW1 2016   1.652   2.169   0.434
  589SOL    HW2 2017   1.602   2.325   0.424
  590SOL     OW 2018   1.024   2.618   0.962
  590SOL    HW1 2019   1.021   2.640   1.059
  590SOL    HW2 2020   0.996   2.523   0.948
  591SOL     OW 2021   0.984   3.423   1.713
  591SOL    HW1 2022   0.968   3.473   1.629
  591SOL    HW2 2023   1.039   3.342   1.694
  592SOL     OW 2024   1.856   3.369   1.604
  592SOL    HW1 2025   1.873   3.394   1.509
  592SOL    HW2 2026   1.939   3.382   1.658
  593SOL     OW 2027   0.360   2.787   1.794
  593SOL    HW1 2028   0.430   2.788   1.865
  593SOL    HW2 2029   0.380   2.714   1.729
  594SOL     OW 2030   1.498   2.178   0.144
  594SOL    HW1 2031   1.466   2.083   0.147
  594SOL    HW2 2032   1.542   2.201   0.231
  595SOL     OW 2033   1.301   2.687   0.032
  595SOL    HW1 2034   1.322   2.590   0.046
  595SOL    HW2 2035   1.285   2.703   3.934
  596SOL     OW 2036   0.328   2.658   0.928
  596SOL    HW1 2037   0.425   2.683   0.925
  596SOL    HW2 2038   0.319   2.567   0.967
  597SOL     OW 2039   0.334   2.379   1.012
  597SOL    HW1 2040   0.296   2.288   0.998
  597SOL    HW2 2041   0.414   2.392   0.953
  598SOL     OW 2042   1.138   2.230   1.680
  598SOL    HW1 2043   1.077   2.298   1.721
  598SOL    HW2 2044   1.231   2.265   1.679
  599SOL     OW 2045   1.164   2.066   1.462
  599SOL    HW1 2046   1.154   2.126   1.541
  599SOL    HW2 2047   1.210   2.115   1.388
  600SOL     OW 2048   3.995   3.176   0.186
  600SOL    HW1 2049   3.897   3.196   0.188
  600SOL    HW2 2050   0.010   3.077   0.194
  601SOL     OW 2051   0.069   3.663   0.906
  601SOL    HW1 2052   0.093   3.567   0.892
  601SOL    HW2 2053   0.149   3.720   0.892
  602SOL     OW 2054   0.513   3.425   0.914
  602SOL    HW1 2055   0.578   3.499   0.933
  602SOL    HW2 2056   0.552   3.362   0.847
  603SOL     OW 2057   0.976   2.659   1.229
  603SOL    HW1 2058   1.036   2.636   1.305
  603SOL    HW2 2059   0.891   2.609   1.237
  604SOL     OW 2060   0.038   2.399   1.113
  604SOL    HW1 2061   0.116   2.359   1.064
  604SOL    HW2 2062   0.054   2.392   1.211
  605SOL     OW 2063   0.213   2.383   1.723
  605SOL    HW1 2064   0.245   2.322   1.651
  605SOL    HW2 2065   0.152   2.452   1.684
  606SOL     OW 2066   1.375   2.801   1.656
  606SOL    HW1 2067   1.401   2.897   1.659
  606SOL    HW2 2068   1.375   2.769   1.562
  607SOL     OW 2069   0.814   2.435   0.370
  607SOL    HW1 2070   0.825   2.353   0.314
  607SOL    HW2 2071   0.739   2.490   0.333
  608SOL     OW 2072   1.643   2.463   1.185
  608SOL    HW1 2073   1.630   2.403   1.264
  608SOL    HW2 2074   1.735   2.448   1.147
  609SOL     OW 2075   0.243   3.415   1.732
  609SOL    HW1 2076   0.231   3.480   1.807
  609SOL    HW2 2077   0.261   3.324   1.769
  610SOL     OW 2078   0.703   2.313   1.256
  610SOL    HW1 2079   0.648   2.233   1.230
  610SOL    HW2 2080   0.701   2.380   1.182
  611SOL     OW 2081   0.931   3.533   1.464
  611SOL    HW1 2082   0.899   3.495   1.377
  611SOL    HW2 2083   0.925   3.633   1.461
  612SOL     OW 2084   0.460   2.360   0.220
  612SOL    HW1 2085   0.524   2.435   0.235
  612SOL    HW2 2086   0.374   2.396   0.183
  613SOL     OW 2087   0.166   2.994   1.456
  613SOL    HW1 2088   0.144   2.946   1.541
  613SOL    HW2 2089   0.146   2.935   1.378
  614SOL     OW 2090   1.322   2.905   1.223
  614SOL    HW1 2091   1.351   2.838   1.154
  614SOL    HW2 2092   1.253   2.966   1.183
  615SOL     OW 2093   1.315   2.713   0.305
  615SOL    HW1 2094   1.235   2.687   0.360
  615SOL    HW2 2095   1.295   2.698   0.208
  616SOL     OW 2096   1.772   3.598   1.150
  616SOL    HW1 2097   1.836   3.634   1.082
  616SOL    HW2 2098   1.747   3.504   1.127
  617SOL     OW 2099   1.248   3.598   1.119
  617SOL    HW1 2100   1.330   3.623   1.067
  617SOL    HW2 2101   1.247   3.498   1.132
  618SOL     OW 2102   0.080   3.088   1.016
  618SOL    HW1 2103   0.081   3.072   1.114
  618SOL    HW2 2104   3.985   3.092   0.984
  619SOL     OW 2105   0.690   3.547   1.756
  619SOL    HW1 2106   0.621   3.619   1.748
  619SOL    HW2 2107   0.725   3.524   1.665
  620SOL     OW 2108   0.907   1.949   0.114
  620SOL    HW1 2109   0.956   1.930   0.029
  620SOL    HW2 2110   0.955   1.906   0.191
  621SOL     OW 2111   1.714   2.008   0.509
  621SOL    HW1 2112   1.790   1.999   0.444
  621SOL    HW2 2113   1.697   1.920   0.552
  622SOL     OW 2114   1.389   3.433   0.490
  622SOL    HW1 2115   1.455   3.467   0.423
  622SOL    HW2 2116   1.335   3.509   0.525
  623SOL     OW 2117   0.162   3.666   1.834
  623SOL    HW1 2118   0.095   3.599   1.868
  623SOL    HW2 2119   0.224   3.692   1.909
  624SOL     OW 2120   1.282   2.788   0.669
  624SOL    HW1 2121   1.357   2.723   0.681
  624SOL    HW2 2122   1.314   2.866   0.615
  625SOL     OW 2123   0.818   3.141   1.414
  625SOL    HW1 2124   0.800   3.187   1.501
  625SOL    HW2 2125   0.748   3.167   1.348
  626SOL     OW 2126   0.684   3.465   0.168
  626SOL    HW1 2127   0.688   3.487   0.071
  626SOL    HW2 2128   0.622   3.388   0.182
  627SOL     OW 2129   1.621   3.589   1.386
  627SOL    HW1 2130   1.676   3.591   1.302
  627SOL    HW2 2131   1.606   3.682   1.418
  628SOL     OW 2132   1.841   2.036   0.962
  628SOL    HW1 2133   1.874   1.944   0.939
  628SOL    HW2 2134   1.747   2.045   0.930
  629SOL     OW 2135   0.273   2.176   0.721
  629SOL    HW1 2136   0.186   2.208   0.685
  629SOL    HW2 2137   0.265   2.164   0.820
  630SOL     OW 2138   1.134   3.446   0.044
  630SOL    HW1 2139   1.193   3.369   0.066
  630SOL    HW2 2140   1.164   3.488   3.958
  631SOL     OW 2141   0.823   2.871   1.374
  631SOL    HW1 2142   0.873   2.844   1.292
  631SOL    HW2 2143   0.826   2.971   1.383
  632SOL     OW 2144   0.926   2.777   0.295
  632SOL    HW1 2145   0.980   2.806   0.216
  632SOL    HW2 2146   0.971   2.699   0.339
  633SOL     OW 2147   1.611   3.143   1.284
  633SOL    HW1 2148   1.681   3.131   1.355
  633SOL    HW2 2149   1.549   3.217   1.310
  634SOL     OW 2150   1.041   2.968   0.713
  634SOL    HW1 2151   0.971   2.910   0.756
  634SOL    HW2 2152   1.113   2.911   0.674
  635SOL     OW 2153   1.025   2.102   0.963
  635SOL    HW1 2154   1.018   2.057   0.874
  635SOL    HW2 2155   1.009   2.036   1.036
  636SOL     OW 2156   0.583   3.337   0.480
  636SOL    HW1 2157   0.629   3.288   0.406
  636SOL    HW2 2158   0.531   3.413   0.441
  637SOL     OW 2159   1.729   2.257   1.381
  637SOL    HW1 2160   1.805   2.322   1.379
  637SOL    HW2 2161   1.753   2.176   1.326
  638SOL     OW 2162   0.254   3.212   0.285
  638SOL    HW1 2163   0.158   3.209   0.257
  638SOL    HW2 2164   0.261   3.249   0.378
  639SOL     OW 2165   0.110   2.861   1.709
  639SOL    HW1 2166   0.043   2.863   1.783
  639SOL    HW2 2167   0.201   2.845   1.748
  640SOL     OW 2168   0.680   2.059   1.502
  640SOL    HW1 2169   0.767   2.034   1.459
  640SOL    HW2 2170   0.696   2.091   1.595
  641SOL     OW 2171   0.057   2.226   0.032
  641SOL    HW1 2172   3.961   2.198   0.041
  641SOL    HW2 2173   0.079   2.239   3.935
  642SOL     OW 2174   1.425   2.718   1.398
  642SOL    HW1 2175   1.374   2.784   1.343
  642SOL    HW2 2176   1.521   2.718   1.369
  643SOL     OW 2177   0.033   2.078   0.340
  643SOL    HW1 2178   0.044   2.156   0.278
  643SOL    HW2 2179   0.123   2.048   0.372
  644SOL     OW 2180   1.203   3.183   0.123
  644SOL    HW1 2181   1.104   3.177   0.132
  644SOL    HW2 2182   1.245   3.190   0.213
  645SOL     OW 2183   0.622   2.696   1.439
  645SOL    HW1 2184   0.680   2.773   1.415
  645SOL    HW2 2185   0.678   2.613   1.446
  646SOL     OW 2186   1.486   3.638   0.979
  646SOL    HW1 2187   1.505   3.697   0.900
  646SOL    HW2 2188   1.571   3.617   1.027
  647SOL     OW 2189   0.722   2.422   1.699
  647SOL    HW1 2190   0.754   2.492   1.762
  647SOL    HW2 2191   0.738   2.331   1.739
  648SOL     OW 2192   1.473   3.062   1.636
  648SOL    HW1 2193   1.459   3.073   1.735
  648SOL    HW2 2194   1.569   3.077   1.613
  649SOL     OW 2195   0.378   3.598   1.565
  649SOL    HW1 2196   0.289   3.641   1.548
  649SOL    HW2 2197   0.364   3.508   1.606
  650SOL     OW 2198   1.668   2.740   1.256
  650SOL    HW1 2199   1.665   2.649   1.215
  650SOL    HW2 2200   1.657   2.810   1.185
  651SOL     OW 2201   1.221   2.177   0.464
  651SOL    HW1 2202   1.287   2.104   0.447
  651SOL    HW2 2203   1.251   2.231   0.543
  652SOL     OW 2204   0.587   2.602   0.670
  652SOL    HW1 2205   0.629   2.691   0.656
  652SOL    HW2 2206   0.515   2.588   0.602
  653SOL     OW 2207   1.758   2.232   1.653
  653SOL    HW1 2208   1.745   2.242   1.554
  653SOL    HW2 2209   1.682   2.180   1.691
  654SOL     OW 2210   1.746   2.795   1.511
  654SOL    HW1 2211   1.745   2.893   1.531
  654SOL    HW2 2212   1.730   2.781   1.413
  655SOL     OW 2213   0.845   3.251   0.007
  655SOL    HW1 2214   0.797   3.229   0.092
  655SOL    HW2 2215   0.881   3.344   0.011
  656SOL     OW 2216   0.664   3.650   0.938
  656SOL    HW1 2217   0.628   3.741   0.916
  656SOL    HW2 2218   0.764   3.653   0.935
  657SOL     OW 2219   0.865   2.825   0.861
  657SOL    HW1 2220   0.918   2.747   0.896
  657SOL    HW2 2221   0.826   2.876   0.938
  658SOL     OW 2222   1.083   2.847   0.084
  658SOL    HW1 2223   1.057   2.870   3.990
  658SOL    HW2 2224   1.166   2.792   0.082
  659SOL     OW 2225   1.850   3.414   0.847
  659SOL    HW1 2226   1.769   3.408   0.790
  659SOL    HW2 2227   1.842   3.349   0.923
  660SOL     OW 2228   0.244   3.171   1.858
  660SOL    HW1 2229   0.174   3.117   1.810
  660SOL    HW2 2230   0.228   3.167   1.956
  661SOL     OW 2231   0.116   3.140   0.723
  661SOL    HW1 2232   0.125   3.096   0.812
  661SOL    HW2 2233   0.108   3.071   0.652
  662SOL     OW 2234   1.810   2.042   1.237
  662SOL    HW1 2235   1.771   1.951   1.254
  662SOL    HW2 2236   1.831   2.051   1.139
  663SOL     OW 2237   0.436   2.293   0.529
  663SOL    HW1 2238   0.475   2.222   0.470
  663SOL    HW2 2239   0.386   2.251   0.604
  664SOL     OW 2240   1.699   3.346   1.095
  664SOL    HW1 2241   1.614   3.325   1.046
  664SOL    HW2 2242   1.716   3.276   1.164
  665SOL     OW 2243   0.332   2.413   1.289
  665SOL    HW1 2244   0.389   2.357   1.349
  665SOL    HW2 2245   0.349   2.388   1.194
  666SOL     OW 2246   0.993   1.886   1.140
  666SOL    HW1 2247   0.941   1.816   1.091
  666SOL    HW2 2248   1.082   1.848   1.167
  667SOL     OW 2249   0.754   3.181   0.321
  667SOL    HW1 2250   0.740   3.084   0.341
  667SOL    HW2 2251   0.852   3.199   0.310
  668SOL     OW 2252   0.631   3.406   1.298
  668SOL    HW1 2253   0.618   3.494   1.342
  668SOL    HW2 2254   0.721   3.404   1.253
  669SOL     OW 2255   1.348   1.919   0.173
  669SOL    HW1 2256   1.380   1.899   0.081
  669SOL    HW2 2257   1.259   1.877   0.188
  670SOL     OW 2258   1.298   2.321   0.691
  670SOL    HW1 2259   1.241   2.404   0.692
  670SOL    HW2 2260   1.297   2.280   0.782
  671SOL     OW 2261   1.580   2.080   0.879
  671SOL    HW1 2262   1.486   2.094   0.910
  671SOL    HW2 2263   1.604   2.152   0.813
  672SOL     OW 2264   0.042   2.901   0.245
  672SOL    HW1 2265   0.141   2.884   0.244
  672SOL    HW2 2266   3.998   2.837   0.307
  673SOL     OW 2267   0.876   3.539   0.345
  673SOL    HW1 2268   0.797   3.515   0.289
  673SOL    HW2 2269   0.847   3.597   0.421
  674SOL     OW 2270   0.222   2.481   1.981
  674SOL    HW1 2271   0.125   2.499   1.998
  674SOL    HW2 2272   0.234   2.451   1.886
  675SOL     OW 2273   0.227   2.132   2.850
  675SOL    HW1 2274   0.253   2.101   2.941
  675SOL    HW2 2275   0.128   2.126   2.839
  676SOL     OW 2276   0.013   2.224   2.502
  676SOL    HW1 2277   3.926   2.248   2.545
  676SOL    HW2 2278   3.997   2.195   2.408
  677SOL     OW 2279   0.579   3.150   3.052
  677SOL    HW1 2280   0.489   3.149   3.007
  677SOL    HW2 2281   0.596   3.242   3.089
  678SOL     OW 2282   1.560   3.361   2.558
  678SOL    HW1 2283   1.525   3.341   2.650
  678SOL    HW2 2284   1.484   3.378   2.496
  679SOL     OW 2285   1.140   2.555   2.574
  679SOL    HW1 2286   1.184   2.641   2.547
  679SOL    HW2 2287   1.085   2.571   2.656
  680SOL     OW 2288   1.742   2.465   2.093
  680SOL    HW1 2289   1.733   2.458   1.993
  680SOL    HW2 2290   1.721   2.376   2.135
  681SOL     OW 2291   0.751   3.005   2.899
  681SOL    HW1 2292   0.684   3.037   2.966
  681SOL    HW2 2293   0.792   3.083   2.852
  682SOL     OW 2294   0.867   2.640   3.678
  682SOL    HW1 2295   0.871   2.711   3.749
  682SOL    HW2 2296   0.891   2.680   3.589
  683SOL     OW 2297   0.685   2.866   2.513
  683SOL    HW1 2298   0.755   2.852   2.582
  683SOL    HW2 2299   0.609   2.918   2.551
  684SOL     OW 2300   0.704   3.015   3.674
  684SOL    HW1 2301   0.760   3.095   3.698
  684SOL    HW2 2302   0.617   3.046   3.635
  685SOL     OW 2303   0.350   3.262   2.938
  685SOL    HW1 2304   0.262   3.243   2.896
  685SOL    HW2 2305   0.402   3.326   2.881
  686SOL     OW 2306   1.458   3.360   3.214
  686SOL    HW1 2307   1.514   3.442   3.221
  686SOL    HW2 2308   1.390   3.359   3.288
  687SOL     OW 2309   0.449   2.261   3.346
  687SOL    HW1 2310   0.530   2.202   3.353
  687SOL    HW2 2311   0.367   2.206   3.363
  688SOL     OW 2312   1.612   2.309   2.603
  688SOL    HW1 2313   1.534   2.329   2.544
  688SOL    HW2 2314   1.631   2.387   2.662
  689SOL     OW 2315   0.226   3.572   2.327
  689SOL    HW1 2316   0.235   3.645   2.394
  689SOL    HW2 2317   0.306   3.573   2.266
  690SOL     OW 2318   1.138   3.201   3.554
  690SOL    HW1 2319   1.186   3.198   3.642
  690SOL    HW2 2320   1.080   3.120   3.545
  691SOL     OW 2321   0.249   3.308   2.404
  691SOL    HW1 2322   0.219   3.402   2.387
  691SOL    HW2 2323   0.182   3.262   2.461
  692SOL     OW 2324   0.256   2.931   2.756
  692SOL    HW1 2325   0.270   2.838   2.790
  692SOL    HW2 2326   0.195   2.980   2.818
  693SOL     OW 2327   0.609   3.651   3.293
  693SOL    HW1 2328   0.522   3.630   3.338
  693SOL    HW2 2329   0.637   3.744   3.317
  694SOL     OW 2330   0.576   2.861   2.006
  694SOL    HW1 2331   0.600   2.930   1.937
  694SOL    HW2 2332   0.620   2.884   2.092
  695SOL     OW 2333   1.591   1.989   3.331
  695SOL    HW1 2334   1.612   2.068   3.274
  695SOL    HW2 2335   1.585   2.017   3.427
  696SOL     OW 2336   0.138   2.518   2.435
  696SOL    HW1 2337   0.085   2.433   2.433
  696SOL    HW2 2338   0.106   2.575   2.511
  697SOL     OW 2339   1.845   3.612   2.203
  697SOL    HW1 2340   1.913   3.583   2.270
  697SOL    HW2 2341   1.863   3.706   2.175
  698SOL     OW 2342   0.066   3.465   2.004
  698SOL    HW1 2343   0.091   3.369   1.997
  698SOL    HW2 2344   3.969   3.473   2.026
  699SOL     OW 2345   0.135   2.617   3.451
  699SOL    HW1 2346   0.234   2.607   3.445
  699SOL    HW2 2347   0.113   2.710   3.482
  700SOL     OW 2348   0.612   3.249   2.595
  700SOL    HW1 2349   0.565   3.163   2.610
  700SOL    HW2 2350   0.598   3.280   2.501
  701SOL     OW 2351   1.289   3.097   3.283
  701SOL    HW1 2352   1.319   3.027   3.218
  701SOL    HW2 2353   1.348   3.094   3.364
  702SOL     OW 2354   0.816   1.865   2.368
  702SOL    HW1 2355   0.863   1.952   2.351
  702SOL    HW2 2356   0.718   1.882   2.377
  703SOL     OW 2357   0.186   2.813   3.140
  703SOL    HW1 2358   0.278   2.775   3.127
  703SOL    HW2 2359   0.125   2.777   3.069
  704SOL     OW 2360   1.538   2.854   2.060
  704SOL    HW1 2361   1.464   2.795   2.093
  704SOL    HW2 2362   1.603   2.869   2.134
  705SOL     OW 2363   1.208   3.659   3.481
  705SOL    HW1 2364   1.194   3.729   3.410
  705SOL    HW2 2365   1.214   3.569   3.439
  706SOL     OW 2366   0.348   2.120   3.674
  706SOL    HW1 2367   0.401   2.197   3.709
  706SOL    HW2 2368   0.252   2.130   3.700
  707SOL     OW 2369   1.466   3.280   2.810
  707SOL    HW1 2370   1.399   3.301   2.882
  707SOL    HW2 2371   1.457   3.185   2.783
  708SOL     OW 2372   1.648   3.599   2.441
  708SOL    HW1 2373   1.634   3.572   2.346
  708SOL    HW2 2374   1.632   3.520   2.500
  709SOL     OW 2375   0.566   2.597   2.097
  709SOL    HW1 2376   0.583   2.690   2.065
  709SOL    HW2 2377   0.528   2.600   2.190
  710SOL     OW 2378   1.279   2.216   2.794
  710SOL    HW1 2379   1.184   2.185   2.798
  710SOL    HW2 2380   1.335   2.162   2.857
  711SOL     OW 2381   1.583   3.532   2.168
  711SOL    HW1 2382   1.679   3.561   2.168
  711SOL    HW2 2383   1.553   3.514   2.075
  712SOL     OW 2384   0.792   2.475   3.312
  712SOL    HW1 2385   0.766   2.454   3.407
  712SOL    HW2 2386   0.750   2.409   3.250
  713SOL     OW 2387   1.391   2.330   3.537
  713SOL    HW1 2388   1.385   2.379   3.624
  713SOL    HW2 2389   1.455   2.253   3.547
  714SOL     OW 2390   0.955   2.748   3.441
  714SOL    HW1 2391   1.013   2.675   3.405
  714SOL    HW2 2392   0.902   2.788   3.366
  715SOL     OW 2393   0.993   2.266   3.096
  715SOL    HW1 2394   0.908   2.295   3.140
  715SOL    HW2 2395   0.972   2.231   3.005
  716SOL     OW 2396   0.083   2.688   2.652
  716SOL    HW1 2397   0.164   2.659   2.703
  716SOL    HW2 2398   0.087   2.787   2.636
  717SOL     OW 2399   0.133   3.724   3.443
  717SOL    HW1 2400   0.139   3.688   3.536
  717SOL    HW2 2401   0.039   3.716   3.410
  718SOL     OW 2402   0.886   2.154   2.070
  718SOL    HW1 2403   0.882   2.249   2.038
  718SOL    HW2 2404   0.933   2.098   2.002
  719SOL     OW 2405   1.697   2.437   3.684
  719SOL    HW1 2406   1.661   2.515   3.632
  719SOL    HW2 2407   1.733   2.369   3.621
  720SOL     OW 2408   1.357   3.006   2.405
  720SOL    HW1 2409   1.448   3.000   2.363
  720SOL    HW2 2410   1.301   3.070   2.353
  721SOL     OW 2411   0.543   2.039   2.759
  721SOL    HW1 2412   0.551   2.070   2.854
  721SOL    HW2 2413   0.546   2.118   2.698
  722SOL     OW 2414   0.997   3.305   2.329
  722SOL    HW1 2415   0.961   3.384   2.279
  722SOL    HW2 2416   0.985   3.319   2.427
  723SOL     OW 2417   0.364   3.672   2.715
  723SOL    HW1 2418   0.428   3.597   2.730
  723SOL    HW2 2419   0.410   3.759   2.732
  724SOL     OW 2420   1.795   2.918   2.730
  724SOL    HW1 2421   1.742   2.927   2.646
  724SOL    HW2 2422   1.735   2.923   2.809
  725SOL     OW 2423   1.227   3.395   3.372
  725SOL    HW1 2424   1.213   3.322   3.439
  725SOL    HW2 2425   1.157   3.390   3.301
  726SOL     OW 2426   0.305   2.814   2.107
  726SOL    HW1 2427   0.394   2.845   2.071
  726SOL    HW2 2428   0.294   2.717   2.089
  727SOL     OW 2429   1.482   2.613   2.593
  727SOL    HW1 2430   1.449   2.549   2.663
  727SOL    HW2 2431   1.568   2.654   2.623
  728SOL     OW 2432   0.460   3.120   3.597
  728SOL    HW1 2433   0.435   3.130   3.501
  728SOL    HW2 2434   0.379   3.126   3.654
  729SOL     OW 2435   1.113   3.639   2.086
  729SOL    HW1 2436   1.044   3.595   2.142
  729SOL    HW2 2437   1.147   3.575   2.018
  730SOL     OW 2438   0.205   2.140   3.370
  730SOL    HW1 2439   0.112   2.175   3.360
  730SOL    HW2 2440   0.202   2.051   3.416
  731SOL     OW 2441   1.621   3.245   1.955
  731SOL    HW1 2442   1.584   3.335   1.933
  731SOL    HW2 2443   1.553   3.175   1.933
  732SOL     OW 2444   0.474   3.594   2.186
  732SOL    HW1 2445   0.510   3.664   2.247
  732SOL    HW2 2446   0.546   3.564   2.124
  733SOL     OW 2447   1.406   1.976   2.291
  733SOL    HW1 2448   1.392   1.945   2.197
  733SOL    HW2 2449   1.504   1.980   2.311
  734SOL     OW 2450   0.265   3.649   3.085
  734SOL    HW1 2451   0.309   3.582   3.144
  734SOL    HW2 2452   0.237   3.606   2.999
  735SOL     OW 2453   0.935   3.563   2.762
  735SOL    HW1 2454   1.015   3.513   2.794
  735SOL    HW2 2455   0.891   3.512   2.688
  736SOL     OW 2456   0.395   2.553   2.338
  736SOL    HW1 2457   0.425   2.458   2.344
  736SOL    HW2 2458   0.299   2.560   2.365
  737SOL     OW 2459   1.532   2.087   3.594
  737SOL    HW1 2460   1.539   2.109   3.691
  737SOL    HW2 2461   1.465   2.014   3.581
  738SOL     OW 2462   0.632   1.985   1.961
  738SOL    HW1 2463   0.708   1.927   1.989
  738SOL    HW2 2464   0.586   1.944   1.882
  739SOL     OW 2465   0.761   2.136   3.615
  739SOL    HW1 2466   0.843   2.079   3.616
  739SOL    HW2 2467   0.719   2.135   3.706
  740SOL     OW 2468   0.877   3.378   3.053
  740SOL    HW1 2469   0.857   3.342   2.962
  740SOL    HW2 2470   0.949   3.323   3.096
  741SOL     OW 2471   1.341   2.450   3.295
  741SOL    HW1 2472   1.372   2.415   3.383
  741SOL    HW2 2473   1.376   2.543   3.283
  742SOL     OW 2474   0.818   3.255   2.799
  742SOL    HW1 2475   0.908   3.243   2.756
  742SOL    HW2 2476   0.747   3.255   2.728
  743SOL     OW 2477   0.925   2.371   2.760
  743SOL    HW1 2478   0.898   2.367   2.664
  743SOL    HW2 2479   0.961   2.282   2.789
  744SOL     OW 2480   0.551   1.924   2.358
  744SOL    HW1 2481   0.467   1.923   2.413
  744SOL    HW2 2482   0.552   2.006   2.301
  745SOL     OW 2483   1.427   3.058   1.907
  745SOL    HW1 2484   1.463   2.982   1.959
  745SOL    HW2 2485   1.339   3.086   1.944
  746SOL     OW 2486   0.311   1.915   2.036
  746SOL    HW1 2487   0.370   1.968   1.975
  746SOL    HW2 2488   0.366   1.845   2.083
  747SOL     OW 2489   0.943   2.106   2.333
  747SOL    HW1 2490   0.908   2.129   2.242
  747SOL    HW2 2491   1.041   2.125   2.336
  748SOL     OW 2492   1.080   2.543   3.320
  748SOL    HW1 2493   1.004   2.478   3.326
  748SOL    HW2 2494   1.167   2.492   3.314
  749SOL     OW 2495   1.225   3.428   2.654
  749SOL    HW1 2496   1.238   3.501   2.587
  749SOL    HW2 2497   1.294   3.434   2.725
  750SOL     OW 2498   0.467   3.012   2.599
  750SOL    HW1 2499   0.394   2.988   2.663
  750SOL    HW2 2500   0.436   2.999   2.505
  751SOL     OW 2501   1.265   3.654   2.469
  751SOL    HW1 2502   1.317   3.717   2.411
  751SOL    HW2 2503   1.191   3.704   2.514
  752SOL     OW 2504   0.083   2.434   3.250
  752SOL    HW1 2505   0.176   2.417   3.215
  752SOL    HW2 2506   0.086   2.507   3.318
  753SOL     OW 2507   0.566   2.086   3.029
  753SOL    HW1 2508   0.613   2.006   3.068
  753SOL    HW2 2509   0.471   2.086   3.059
  754SOL     OW 2510   0.861   2.323   2.498
  754SOL    HW1 2511   0.816   2.383   2.432
  754SOL    HW2 2512   0.890   2.239   2.452
  755SOL     OW 2513   1.011   1.920   2.617
  755SOL    HW1 2514   0.963   1.925   2.530
  755SOL    HW2 2515   0.983   1.838   2.667
  756SOL     OW 2516   1.436   3.021   2.715
  756SOL    HW1 2517   1.369   2.951   2.740
  756SOL    HW2 2518   1.431   3.039   2.617
  757SOL     OW 2519   1.462   2.465   2.840
  757SOL    HW1 2520   1.407   2.382   2.838
  757SOL    HW2 2521   1.527   2.460   2.916
  758SOL     OW 2522   1.908   2.652   2.201
  758SOL    HW1 2523   1.934   2.612   2.288
  758SOL    HW2 2524   1.838   2.595   2.157
  759SOL     OW 2525   0.487   3.271   2.014
  759SOL    HW1 2526   0.413   3.244   2.075
  759SOL    HW2 2527   0.456   3.265   1.919
  760SOL     OW 2528   1.401   2.437   1.939
  760SOL    HW1 2529   1.364   2.396   2.022
  760SOL    HW2 2530   1.500   2.422   1.936
  761SOL     OW 2531   0.543   2.128   2.179
  761SOL    HW1 2532   0.582   2.073   2.105
  761SOL    HW2 2533   0.522   2.220   2.145
  762SOL     OW 2534   1.755   3.101   3.427
  762SOL    HW1 2535   1.845   3.058   3.421
  762SOL    HW2 2536   1.765   3.196   3.457
  763SOL     OW 2537   1.056   3.210   3.195
  763SOL    HW1 2538   0.975   3.182   3.248
  763SOL    HW2 2539   1.138   3.172   3.238
  764SOL     OW 2540   1.606   3.486   3.514
  764SOL    HW1 2541   1.595   3.523   3.421
  764SOL    HW2 2542   1.694   3.440   3.521
  765SOL     OW 2543   1.132   3.072   2.967
  765SOL    HW1 2544   1.076   3.108   3.042
  765SOL    HW2 2545   1.096   3.104   2.880
  766SOL     OW 2546   1.627   2.962   2.939
  766SOL    HW1 2547   1.625   3.024   3.018
  766SOL    HW2 2548   1.546   2.977   2.883
  767SOL     OW 2549   0.918   1.959   3.265
  767SOL    HW1 2550   0.926   1.954   3.166
  767SOL    HW2 2551   1.000   2.003   3.303
  768SOL     OW 2552   0.981   2.975   3.581
  768SOL    HW1 2553   0.886   2.999   3.604
  768SOL    HW2 2554   0.982   2.893   3.524
  769SOL     OW 2555   0.700   2.929   2.238
  769SOL    HW1 2556   0.681   2.910   2.334
  769SOL    HW2 2557   0.787   2.887   2.212
  770SOL     OW 2558   0.422   2.675   3.116
  770SOL    HW1 2559   0.496   2.688   3.183
  770SOL    HW2 2560   0.384   2.584   3.125
  771SOL     OW 2561   1.263   2.238   3.141
  771SOL    HW1 2562   1.301   2.317   3.188
  771SOL    HW2 2563   1.169   2.257   3.114
  772SOL     OW 2564   0.065   3.441   3.206
  772SOL    HW1 2565   0.064   3.517   3.141
  772SOL    HW2 2566   0.159   3.425   3.236
  773SOL     OW 2567   0.384   2.969   2.344
  773SOL    HW1 2568   0.359   3.052   2.294
  773SOL    HW2 2569   0.371   2.889   2.285
  774SOL     OW 2570   0.551   2.405   2.726
  774SOL    HW1 2571   0.563   2.465   2.647
  774SOL    HW2 2572   0.620   2.427   2.795
  775SOL     OW 2573   1.243   3.215   2.253
  775SOL    HW1 2574   1.304   3.289   2.281
  775SOL    HW2 2575   1.150   3.236   2.284
  776SOL     OW 2576   1.283   3.322   3.008
  776SOL    HW1 2577   1.343   3.328   3.088
  776SOL    HW2 2578   1.226   3.240   3.015
  777SOL     OW 2579   1.575   2.483   2.342
  777SOL    HW1 2580   1.531   2.544   2.408
  777SOL    HW2 2581   1.627   2.537   2.276
  778SOL     OW 2582   0.350   3.384   3.181
  778SOL    HW1 2583   0.335   3.333   3.096
  778SOL    HW2 2584   0.448   3.404   3.190
  779SOL     OW 2585   0.413   2.600   3.460
  779SOL    HW1 2586   0.477   2.649   3.402
  779SOL    HW2 2587   0.452   2.510   3.484
  780SOL     OW 2588   1.596   2.642   3.543
  780SOL    HW1 2589   1.504   2.683   3.545
  780SOL    HW2 2590   1.649   2.684   3.469
  781SOL     OW 2591   0.998   1.990   3.614
  781SOL    HW1 2592   1.053   2.072   3.596
  781SOL    HW2 2593   1.048   1.909   3.584
  782SOL     OW 2594   0.495   1.900   3.605
  782SOL    HW1 2595   0.451   1.842   3.537
  782SOL    HW2 2596   0.443   1.984   3.617
  783SOL     OW 2597   0.586   2.733   2.897
  783SOL    HW1 2598   0.618   2.827   2.889
  783SOL    HW2 2599   0.524   2.724   2.975
  784SOL     OW 2600   1.357   2.722   2.885
  784SOL    HW1 2601   1.265   2.712   2.847
  784SOL    HW2 2602   1.403   2.633   2.882
  785SOL     OW 2603   0.309   2.059   3.107
  785SOL    HW1 2604   0.265   2.102   3.186
  785SOL    HW2 2605   0.288   1.961   3.106
  786SOL     OW 2606   0.067   3.167   3.141
  786SOL    HW1 2607   0.096   3.121   3.225
  786SOL    HW2 2608   0.055   3.264   3.160
  787SOL     OW 2609   0.727   2.494   2.920
  787SOL    HW1 2610   0.801   2.473   2.856
  787SOL    HW2 2611   0.691   2.585   2.900
  788SOL     OW 2612   1.735   2.818   3.701
  788SOL    HW1 2613   1.685   2.752   3.645
  788SOL    HW2 2614   1.683   2.837   3.784
  789SOL     OW 2615   0.315   1.922   2.488
  789SOL    HW1 2616   0.290   2.018   2.505
  789SOL    HW2 2617   0.321   1.873   2.575
  790SOL     OW 2618   1.623   2.238   2.235
  790SOL    HW1 2619   1.650   2.167   2.299
  790SOL    HW2 2620   1.597   2.320   2.285
  791SOL     OW 2621   1.022   2.619   2.824
  791SOL    HW1 2622   1.019   2.640   2.921
  791SOL    HW2 2623   0.994   2.524   2.809
  792SOL     OW 2624   0.982   3.424   3.577
  792SOL    HW1 2625   0.966   3.473   3.491
  792SOL    HW2 2626   1.033   3.340   3.558
  793SOL     OW 2627   1.857   3.372   3.453
  793SOL    HW1 2628   1.859   3.424   3.368
  793SOL    HW2 2629   1.940   3.391   3.505
  794SOL     OW 2630   0.352   2.777   3.661
  794SOL    HW1 2631   0.433   2.807   3.711
  794SOL    HW2 2632   0.379   2.710   3.592
  795SOL     OW 2633   1.519   2.137   2.007
  795SOL    HW1 2634   1.456   2.063   2.029
  795SOL    HW2 2635   1.560   2.173   2.091
  796SOL     OW 2636   1.291   2.684   1.890
  796SOL    HW1 2637   1.338   2.596   1.901
  796SOL    HW2 2638   1.323   2.729   1.806
  797SOL     OW 2639   1.067   3.198   2.714
  797SOL    HW1 2640   1.070   3.120   2.651
  797SOL    HW2 2641   1.129   3.270   2.681
  798SOL     OW 2642   0.315   2.663   2.810
  798SOL    HW1 2643   0.412   2.685   2.801
  798SOL    HW2 2644   0.305   2.569   2.844
  799SOL     OW 2645   0.330   2.380   2.875
  799SOL    HW1 2646   0.292   2.288   2.860
  799SOL    HW2 2647   0.410   2.392   2.816
  800SOL     OW 2648   1.134   2.233   3.550
  800SOL    HW1 2649   1.083   2.295   3.610
  800SOL    HW2 2650   1.228   2.268   3.539
  801SOL     OW 2651   1.161   2.066   3.333
  801SOL    HW1 2652   1.147   2.126   3.412
  801SOL    HW2 2653   1.204   2.118   3.259
  802SOL     OW 2654   0.011   3.181   2.047
  802SOL    HW1 2655   3.926   3.222   2.080
  802SOL    HW2 2656   0.007   3.082   2.059
  803SOL     OW 2657   0.076   3.655   2.743
  803SOL    HW1 2658   0.073   3.556   2.756
  803SOL    HW2 2659   0.172   3.686   2.747
  804SOL     OW 2660   0.505   3.435   2.772
  804SOL    HW1 2661   0.575   3.501   2.799
  804SOL    HW2 2662   0.545   3.367   2.711
  805SOL     OW 2663   0.981   2.657   3.089
  805SOL    HW1 2664   1.038   2.631   3.166
  805SOL    HW2 2665   0.889   2.617   3.101
  806SOL     OW 2666   0.040   2.418   2.971
  806SOL    HW1 2667   0.124   2.393   2.923
  806SOL    HW2 2668   0.057   2.418   3.070
  807SOL     OW 2669   0.202   2.380   3.588
  807SOL    HW1 2670   0.254   2.327   3.522
  807SOL    HW2 2671   0.158   2.457   3.542
  808SOL     OW 2672   1.374   2.801   3.519
  808SOL    HW1 2673   1.398   2.898   3.520
  808SOL    HW2 2674   1.373   2.768   3.424
  809SOL     OW 2675   1.643   2.464   3.045
  809SOL    HW1 2676   1.627   2.405   3.125
  809SOL    HW2 2677   1.734   2.445   3.008
  810SOL     OW 2678   0.299   3.406   3.600
  810SOL    HW1 2679   0.247   3.483   3.637
  810SOL    HW2 2680   0.263   3.320   3.637
  811SOL     OW 2681   0.702   2.313   3.118
  811SOL    HW1 2682   0.648   2.234   3.092
  811SOL    HW2 2683   0.701   2.381   3.045
  812SOL     OW 2684   0.929   3.537   3.328
  812SOL    HW1 2685   0.897   3.494   3.244
  812SOL    HW2 2686   0.923   3.636   3.320
  813SOL     OW 2687   0.454   2.354   2.055
  813SOL    HW1 2688   0.518   2.429   2.072
  813SOL    HW2 2689   0.363   2.391   2.037
  814SOL     OW 2690   0.157   2.994   3.337
  814SOL    HW1 2691   0.155   2.946   3.425
  814SOL    HW2 2692   0.173   2.928   3.264
  815SOL     OW 2693   1.321   2.906   3.081
  815SOL    HW1 2694   1.349   2.839   3.013
  815SOL    HW2 2695   1.249   2.965   3.043
  816SOL     OW 2696   1.323   2.714   2.162
  816SOL    HW1 2697   1.245   2.723   2.223
  816SOL    HW2 2698   1.292   2.706   2.067
  817SOL     OW 2699   1.727   3.615   2.981
  817SOL    HW1 2700   1.799   3.650   2.920
  817SOL    HW2 2701   1.728   3.515   2.979
  818SOL     OW 2702   1.245   3.595   2.970
  818SOL    HW1 2703   1.332   3.621   2.926
  818SOL    HW2 2704   1.248   3.498   2.994
  819SOL     OW 2705   0.073   3.077   2.888
  819SOL    HW1 2706   0.087   3.104   2.983
  819SOL    HW2 2707   3.976   3.085   2.865
  820SOL     OW 2708   0.679   3.530   3.593
  820SOL    HW1 2709   0.615   3.607   3.596
  820SOL    HW2 2710   0.744   3.543   3.518
  821SOL     OW 2711   1.718   2.006   2.365
  821SOL    HW1 2712   1.795   1.998   2.302
  821SOL    HW2 2713   1.702   1.918   2.410
  822SOL     OW 2714   1.391   3.432   2.342
  822SOL    HW1 2715   1.456   3.465   2.274
  822SOL    HW2 2716   1.339   3.509   2.379
  823SOL     OW 2717   0.157   3.616   3.689
  823SOL    HW1 2718   0.094   3.565   3.747
  823SOL    HW2 2719   0.213   3.676   3.745
  824SOL     OW 2720   1.275   2.782   2.523
  824SOL    HW1 2721   1.353   2.722   2.541
  824SOL    HW2 2722   1.307   2.863   2.474
  825SOL     OW 2723   0.810   3.138   3.292
  825SOL    HW1 2724   0.779   3.181   3.377
  825SOL    HW2 2725   0.740   3.151   3.221
  826SOL     OW 2726   0.673   3.473   2.021
  826SOL    HW1 2727   0.686   3.501   1.926
  826SOL    HW2 2728   0.614   3.392   2.024
  827SOL     OW 2729   1.620   3.585   3.254
  827SOL    HW1 2730   1.684   3.578   3.178
  827SOL    HW2 2731   1.606   3.681   3.278
  828SOL     OW 2732   1.841   2.033   2.827
  828SOL    HW1 2733   1.876   1.942   2.802
  828SOL    HW2 2734   1.751   2.046   2.786
  829SOL     OW 2735   0.268   2.175   2.580
  829SOL    HW1 2736   0.179   2.209   2.549
  829SOL    HW2 2737   0.267   2.162   2.679
  830SOL     OW 2738   1.208   3.467   1.897
  830SOL    HW1 2739   1.198   3.372   1.927
  830SOL    HW2 2740   1.146   3.485   1.821
  831SOL     OW 2741   0.823   2.871   3.237
  831SOL    HW1 2742   0.872   2.858   3.151
  831SOL    HW2 2743   0.822   2.968   3.261
  832SOL     OW 2744   0.923   2.814   2.154
  832SOL    HW1 2745   0.986   2.831   2.078
  832SOL    HW2 2746   0.943   2.724   2.193
  833SOL     OW 2747   1.489   3.491   1.902
  833SOL    HW1 2748   1.390   3.481   1.890
  833SOL    HW2 2749   1.533   3.496   1.812
  834SOL     OW 2750   0.372   3.163   3.351
  834SOL    HW1 2751   0.362   3.247   3.298
  834SOL    HW2 2752   0.293   3.104   3.336
  835SOL     OW 2753   1.614   3.143   3.148
  835SOL    HW1 2754   1.676   3.128   3.225
  835SOL    HW2 2755   1.548   3.214   3.171
  836SOL     OW 2756   1.057   2.967   2.573
  836SOL    HW1 2757   0.980   2.918   2.616
  836SOL    HW2 2758   1.124   2.900   2.540
  837SOL     OW 2759   1.019   2.110   2.823
  837SOL    HW1 2760   1.017   2.062   2.735
  837SOL    HW2 2761   1.003   2.044   2.897
  838SOL     OW 2762   0.605   3.351   2.341
  838SOL    HW1 2763   0.651   3.297   2.271
  838SOL    HW2 2764   0.532   3.406   2.300
  839SOL     OW 2765   1.728   2.253   3.244
  839SOL    HW1 2766   1.800   2.323   3.243
  839SOL    HW2 2767   1.753   2.178   3.183
  840SOL     OW 2768   0.256   3.201   2.159
  840SOL    HW1 2769   0.161   3.203   2.128
  840SOL    HW2 2770   0.264   3.244   2.248
  841SOL     OW 2771   0.106   2.861   3.581
  841SOL    HW1 2772   0.040   2.866   3.656
  841SOL    HW2 2773   0.197   2.839   3.618
  842SOL     OW 2774   0.678   2.059   3.363
  842SOL    HW1 2775   0.765   2.036   3.320
  842SOL    HW2 2776   0.693   2.090   3.457
  843SOL     OW 2777   0.086   2.175   1.870
  843SOL    HW1 2778   3.987   2.168   1.884
  843SOL    HW2 2779   0.108   2.265   1.832
  844SOL     OW 2780   1.424   2.718   3.260
  844SOL    HW1 2781   1.373   2.783   3.204
  844SOL    HW2 2782   1.521   2.720   3.234
  845SOL     OW 2783   1.179   3.203   1.980
  845SOL    HW1 2784   1.081   3.183   1.973
  845SOL    HW2 2785   1.206   3.203   2.077
  846SOL     OW 2786   0.622   2.692   3.297
  846SOL    HW1 2787   0.678   2.773   3.281
  846SOL    HW2 2788   0.681   2.612   3.306
  847SOL     OW 2789   1.486   3.649   2.848
  847SOL    HW1 2790   1.511   3.693   2.762
  847SOL    HW2 2791   1.570   3.627   2.899
  848SOL     OW 2792   0.722   2.425   3.564
  848SOL    HW1 2793   0.760   2.493   3.627
  848SOL    HW2 2794   0.742   2.333   3.598
  849SOL     OW 2795   1.472   3.061   3.493
  849SOL    HW1 2796   1.457   3.073   3.591
  849SOL    HW2 2797   1.569   3.076   3.472
  850SOL     OW 2798   0.377   3.600   3.423
  850SOL    HW1 2799   0.289   3.646   3.407
  850SOL    HW2 2800   0.362   3.516   3.475
  851SOL     OW 2801   1.671   2.740   3.109
  851SOL    HW1 2802   1.663   2.649   3.069
  851SOL    HW2 2803   1.658   2.809   3.037
  852SOL     OW 2804   1.211   2.173   2.332
  852SOL    HW1 2805   1.282   2.105   2.312
  852SOL    HW2 2806   1.244   2.236   2.402
  853SOL     OW 2807   0.582   2.604   2.536
  853SOL    HW1 2808   0.628   2.692   2.520
  853SOL    HW2 2809   0.515   2.588   2.464
  854SOL     OW 2810   1.755   2.224   3.516
  854SOL    HW1 2811   1.745   2.240   3.418
  854SOL    HW2 2812   1.679   2.166   3.548
  855SOL     OW 2813   1.721   2.794   3.365
  855SOL    HW1 2814   1.736   2.891   3.384
  855SOL    HW2 2815   1.718   2.779   3.266
  856SOL     OW 2816   0.875   3.224   1.890
  856SOL    HW1 2817   0.820   3.238   1.973
  856SOL    HW2 2818   0.889   3.313   1.845
  857SOL     OW 2819   0.664   3.653   2.802
  857SOL    HW1 2820   0.639   3.747   2.781
  857SOL    HW2 2821   0.763   3.642   2.795
  858SOL     OW 2822   0.869   2.831   2.718
  858SOL    HW1 2823   0.919   2.753   2.756
  858SOL    HW2 2824   0.828   2.884   2.793
  859SOL     OW 2825   1.080   2.842   1.940
  859SOL    HW1 2826   1.062   2.904   1.864
  859SOL    HW2 2827   1.159   2.785   1.918
  860SOL     OW 2828   1.852   3.433   2.716
  860SOL    HW1 2829   1.780   3.410   2.651
  860SOL    HW2 2830   1.858   3.362   2.786
  861SOL     OW 2831   0.218   3.165   3.724
  861SOL    HW1 2832   0.147   3.099   3.702
  861SOL    HW2 2833   0.215   3.186   3.822
  862SOL     OW 2834   0.121   3.139   2.580
  862SOL    HW1 2835   0.120   3.096   2.670
  862SOL    HW2 2836   0.114   3.068   2.510
  863SOL     OW 2837   0.676   3.268   3.491
  863SOL    HW1 2838   0.593   3.220   3.520
  863SOL    HW2 2839   0.676   3.360   3.529
  864SOL     OW 2840   1.802   2.044   3.097
  864SOL    HW1 2841   1.823   1.949   3.121
  864SOL    HW2 2842   1.816   2.057   2.999
  865SOL     OW 2843   0.432   2.291   2.384
  865SOL    HW1 2844   0.478   2.217   2.334
  865SOL    HW2 2845   0.379   2.252   2.459
  866SOL     OW 2846   1.696   3.347   2.965
  866SOL    HW1 2847   1.616   3.327   2.909
  866SOL    HW2 2848   1.708   3.275   3.033
  867SOL     OW 2849   0.334   2.416   3.150
  867SOL    HW1 2850   0.390   2.360   3.211
  867SOL    HW2 2851   0.348   2.388   3.055
  868SOL     OW 2852   0.826   3.442   2.541
  868SOL    HW1 2853   0.819   3.492   2.455
  868SOL    HW2 2854   0.749   3.379   2.550
  869SOL     OW 2855   1.428   2.087   2.978
  869SOL    HW1 2856   1.471   2.008   3.021
  869SOL    HW2 2857   1.376   2.139   3.047
  870SOL     OW 2858   0.989   1.902   3.003
  870SOL    HW1 2859   0.948   1.823   2.958
  870SOL    HW2 2860   1.076   1.875   3.045
  871SOL     OW 2861   0.775   3.191   2.175
  871SOL    HW1 2862   0.738   3.099   2.192
  871SOL    HW2 2863   0.858   3.203   2.229
  872SOL     OW 2864   0.625   3.419   3.150
  872SOL    HW1 2865   0.622   3.505   3.202
  872SOL    HW2 2866   0.716   3.409   3.108
  873SOL     OW 2867   1.352   1.913   2.030
  873SOL    HW1 2868   1.392   1.850   1.963
  873SOL    HW2 2869   1.260   1.882   2.054
  874SOL     OW 2870   1.300   2.330   2.546
  874SOL    HW1 2871   1.239   2.409   2.548
  874SOL    HW2 2872   1.295   2.282   2.633
  875SOL     OW 2873   1.589   2.067   2.741
  875SOL    HW1 2874   1.522   2.081   2.814
  875SOL    HW2 2875   1.590   2.148   2.682
  876SOL     OW 2876   0.041   2.912   2.100
  876SOL    HW1 2877   0.139   2.892   2.092
  876SOL    HW2 2878   3.993   2.830   2.133
  877SOL     OW 2879   0.882   3.521   2.206
  877SOL    HW1 2880   0.811   3.497   2.140
  877SOL    HW2 2881   0.853   3.601   2.258
  878SOL     OW 2882   0.212   2.481   3.852
  878SOL    HW1 2883   0.112   2.491   3.858
  878SOL    HW2 2884   0.238   2.454   3.759
  879SOL     OW 2885   1.775   2.465   3.935
  879SOL    HW1 2886   1.748   2.461   3.839
  879SOL    HW2 2887   1.714   2.407   3.989
  880SOL     OW 2888   0.254   3.633   0.225
  880SOL    HW1 2889   0.346   3.625   0.261
  880SOL    HW2 2890   0.245   3.577   0.142
  881SOL     OW 2891   0.587   2.837   3.846
  881SOL    HW1 2892   0.632   2.898   3.779
  881SOL    HW2 2893   0.637   2.841   3.932
  882SOL     OW 2894   0.020   3.460   3.859
  882SOL    HW1 2895   3.956   3.384   3.856
  882SOL    HW2 2896   0.043   3.481   3.954
  883SOL     OW 2897   1.553   2.838   3.907
  883SOL    HW1 2898   1.474   2.776   3.909
  883SOL    HW2 2899   1.574   2.867   0.000
  884SOL     OW 2900   0.586   2.580   3.968
  884SOL    HW1 2901   0.590   2.655   3.901
  884SOL    HW2 2902   0.542   2.612   0.052
  885SOL     OW 2903   0.877   2.211   3.889
  885SOL    HW1 2904   0.934   2.276   3.839
  885SOL    HW2 2905   0.917   2.120   3.881
  886SOL     OW 2906   0.996   3.314   0.259
  886SOL    HW1 2907   1.028   3.363   0.178
  886SOL    HW2 2908   0.953   3.378   0.322
  887SOL     OW 2909   0.324   2.809   3.957
  887SOL    HW1 2910   0.414   2.835   3.922
  887SOL    HW2 2911   0.289   2.731   3.906
  888SOL     OW 2912   1.623   3.251   3.814
  888SOL    HW1 2913   1.585   3.341   3.793
  888SOL    HW2 2914   1.556   3.180   3.791
  889SOL     OW 2915   0.463   3.605   0.019
  889SOL    HW1 2916   0.511   3.671   0.077
  889SOL    HW2 2917   0.529   3.559   3.960
  890SOL     OW 2918   0.622   1.975   3.834
  890SOL    HW1 2919   0.711   1.932   3.843
  890SOL    HW2 2920   0.579   1.946   3.749
  891SOL     OW 2921   1.431   3.058   3.760
  891SOL    HW1 2922   1.470   2.987   3.818
  891SOL    HW2 2923   1.344   3.089   3.799
  892SOL     OW 2924   0.305   1.915   3.874
  892SOL    HW1 2925   0.371   1.971   3.825
  892SOL    HW2 2926   0.353   1.845   3.927
  893SOL     OW 2927   1.023   2.411   3.734
  893SOL    HW1 2928   0.974   2.493   3.704
  893SOL    HW2 2929   1.064   2.427   3.824
  894SOL     OW 2930   1.846   2.677   0.098
  894SOL    HW1 2931   1.941   2.650   0.118
  894SOL    HW2 2932   1.809   2.618   0.027
  895SOL     OW 2933   0.476   3.264   3.889
  895SOL    HW1 2934   0.381   3.250   3.918
  895SOL    HW2 2935   0.481   3.260   3.789
  896SOL     OW 2936   1.396   2.438   3.789
  896SOL    HW1 2937   1.359   2.420   3.879
  896SOL    HW2 2938   1.492   2.411   3.786
  897SOL     OW 2939   1.589   2.542   0.176
  897SOL    HW1 2940   1.546   2.540   0.267
  897SOL    HW2 2941   1.607   2.636   0.150
  898SOL     OW 2942   1.511   2.135   3.859
  898SOL    HW1 2943   1.453   2.054   3.867
  898SOL    HW2 2944   1.528   2.172   3.951
  899SOL     OW 2945   1.301   2.698   3.761
  899SOL    HW1 2946   1.328   2.602   3.760
  899SOL    HW2 2947   1.324   2.739   3.672
  900SOL     OW 2948   0.801   2.426   0.044
  900SOL    HW1 2949   0.795   2.345   3.985
  900SOL    HW2 2950   0.724   2.486   0.026
  901SOL     OW 2951   0.462   2.354   3.855
  901SOL    HW1 2952   0.528   2.415   3.898
  901SOL    HW2 2953   0.370   2.381   3.881
  902SOL     OW 2954   0.661   3.476   3.876
  902SOL    HW1 2955   0.679   3.493   3.779
  902SOL    HW2 2956   0.609   3.390   3.886
  903SOL     OW 2957   1.212   3.462   3.764
  903SOL    HW1 2958   1.195   3.365   3.781
  903SOL    HW2 2959   1.150   3.495   3.693
  904SOL     OW 2960   1.486   3.486   3.758
  904SOL    HW1 2961   1.386   3.480   3.753
  904SOL    HW2 2962   1.524   3.493   3.665
  905SOL     OW 2963   0.223   3.217   3.995
  905SOL    HW1 2964   0.123   3.214   3.996
  905SOL    HW2 2965   0.256   3.237   0.087
  906SOL     OW 2966   0.086   2.192   3.755
  906SOL    HW1 2967   3.988   2.177   3.752
  906SOL    HW2 2968   0.110   2.267   3.693
  907SOL     OW 2969   1.176   3.192   3.837
  907SOL    HW1 2970   1.082   3.164   3.821
  907SOL    HW2 2971   1.198   3.185   3.934
  908SOL     OW 2972   0.864   3.222   3.739
  908SOL    HW1 2973   0.847   3.239   3.836
  908SOL    HW2 2974   0.883   3.309   3.693
  909SOL     OW 2975   1.078   2.861   3.809
  909SOL    HW1 2976   1.049   2.909   3.726
  909SOL    HW2 2977   1.153   2.799   3.787
  910SOL     OW 2978   1.353   1.911   3.881
  910SOL    HW1 2979   1.389   1.835   3.827
  910SOL    HW2 2980   1.254   1.901   3.892
  911SOL     OW 2981   0.054   2.901   3.965
  911SOL    HW1 2982   0.154   2.893   3.962
  911SOL    HW2 2983   0.023   2.892   0.060
  912SOL     OW 2984   0.228   3.951   0.967
  912SOL    HW1 2985   0.256   3.952   1.063
  912SOL    HW2 2986   0.130   3.970   0.960
  913SOL     OW 2987   0.014   0.121   0.617
  913SOL    HW1 2988   3.934   0.102   0.674
  913SOL    HW2 2989   0.048   0.036   0.576
  914SOL     OW 2990   0.440   0.080   1.502
  914SOL    HW1 2991   0.529   0.064   1.461
  914SOL    HW2 2992   0.371   0.024   1.457
  915SOL     OW 2993   1.596   3.845   1.467
  915SOL    HW1 2994   1.599   3.929   1.413
  915SOL    HW2 2995   1.585   3.868   1.564
  916SOL     OW 2996   0.804   3.735   0.525
  916SOL    HW1 2997   0.829   3.829   0.505
  916SOL    HW2 2998   0.705   3.727   0.531
  917SOL     OW 2999   1.269   0.058   0.934
  917SOL    HW1 3000   1.189   0.009   0.900
  917SOL    HW2 3001   1.326   3.997   0.989
  918SOL     OW 3002   0.550   3.895   0.895
  918SOL    HW1 3003   0.550   3.917   0.992
  918SOL    HW2 3004   0.549   3.979   0.841
  919SOL     OW 3005   0.166   3.990   1.467
  919SOL    HW1 3006   0.175   0.081   1.508
  919SOL    HW2 3007   0.160   3.921   1.540
  920SOL     OW 3008   1.404   3.824   0.431
  920SOL    HW1 3009   1.383   3.769   0.350
  920SOL    HW2 3010   1.503   3.835   0.439
  921SOL     OW 3011   1.532   3.938   1.723
  921SOL    HW1 3012   1.558   3.943   1.820
  921SOL    HW2 3013   1.462   3.868   1.711
  922SOL     OW 3014   0.623   3.798   0.119
  922SOL    HW1 3015   0.718   3.811   0.147
  922SOL    HW2 3016   0.605   3.849   0.034
  923SOL     OW 3017   0.770   3.958   1.746
  923SOL    HW1 3018   0.829   3.928   1.820
  923SOL    HW2 3019   0.679   3.980   1.782
  924SOL     OW 3020   0.531   3.782   0.520
  924SOL    HW1 3021   0.479   3.782   0.605
  924SOL    HW2 3022   0.541   3.876   0.487
  925SOL     OW 3023   0.565   3.941   1.169
  925SOL    HW1 3024   0.610   3.863   1.212
  925SOL    HW2 3025   0.469   3.942   1.194
  926SOL     OW 3026   1.008   3.773   0.743
  926SOL    HW1 3027   0.951   3.754   0.664
  926SOL    HW2 3028   0.997   3.700   0.811
  927SOL     OW 3029   0.926   3.806   1.398
  927SOL    HW1 3030   0.953   3.779   1.305
  927SOL    HW2 3031   1.001   3.857   1.440
  928SOL     OW 3032   1.265   0.072   1.266
  928SOL    HW1 3033   1.297   0.135   1.337
  928SOL    HW2 3034   1.196   0.117   1.210
  929SOL     OW 3035   0.500   3.752   1.756
  929SOL    HW1 3036   0.449   3.699   1.689
  929SOL    HW2 3037   0.470   3.847   1.754
  930SOL     OW 3038   0.305   3.923   1.248
  930SOL    HW1 3039   0.248   3.947   1.327
  930SOL    HW2 3040   0.299   3.824   1.232
  931SOL     OW 3041   1.164   3.924   1.478
  931SOL    HW1 3042   1.169   3.998   1.545
  931SOL    HW2 3043   1.203   3.955   1.391
  932SOL     OW 3044   0.916   3.798   0.131
  932SOL    HW1 3045   0.982   3.784   0.058
  932SOL    HW2 3046   0.949   3.756   0.215
  933SOL     OW 3047   1.716   3.860   0.511
  933SOL    HW1 3048   1.802   3.850   0.462
  933SOL    HW2 3049   1.695   3.775   0.560
  934SOL     OW 3050   1.833   3.879   0.972
  934SOL    HW1 3051   1.875   3.794   0.939
  934SOL    HW2 3052   1.749   3.897   0.922
  935SOL     OW 3053   0.682   3.909   1.492
  935SOL    HW1 3054   0.766   3.897   1.439
  935SOL    HW2 3055   0.705   3.930   1.587
  936SOL     OW 3056   0.063   0.016   0.037
  936SOL    HW1 3057   3.965   0.026   0.019
  936SOL    HW2 3058   0.114   0.063   3.966
  937SOL     OW 3059   0.098   3.912   0.377
  937SOL    HW1 3060   0.078   3.998   0.329
  937SOL    HW2 3061   0.173   3.865   0.332
  938SOL     OW 3062   1.219   0.024   0.457
  938SOL    HW1 3063   1.264   3.935   0.456
  938SOL    HW2 3064   1.228   0.065   0.548
  939SOL     OW 3065   1.782   0.043   1.643
  939SOL    HW1 3066   1.763   0.083   1.553
  939SOL    HW2 3067   1.698   0.003   1.679
  940SOL     OW 3068   1.809   3.904   1.238
  940SOL    HW1 3069   1.825   3.813   1.277
  940SOL    HW2 3070   1.816   3.900   1.139
  941SOL     OW 3071   1.437   3.933   1.117
  941SOL    HW1 3072   1.476   3.852   1.160
  941SOL    HW2 3073   1.375   3.979   1.181
  942SOL     OW 3074   1.014   3.730   1.151
  942SOL    HW1 3075   0.954   3.679   1.090
  942SOL    HW2 3076   1.106   3.691   1.148
  943SOL     OW 3077   1.296   0.155   0.683
  943SOL    HW1 3078   1.264   0.250   0.684
  943SOL    HW2 3079   1.298   0.120   0.776
  944SOL     OW 3080   1.581   3.931   0.881
  944SOL    HW1 3081   1.526   3.930   0.964
  944SOL    HW2 3082   1.582   0.023   0.842
  945SOL     OW 3083   0.024   0.101   2.489
  945SOL    HW1 3084   3.931   0.090   2.525
  945SOL    HW2 3085   0.032   0.053   2.402
  946SOL     OW 3086   1.775   0.317   2.058
  946SOL    HW1 3087   1.703   0.299   1.990
  946SOL    HW2 3088   1.734   0.333   2.147
  947SOL     OW 3089   0.440   0.105   3.334
  947SOL    HW1 3090   0.515   0.043   3.315
  947SOL    HW2 3091   0.355   0.053   3.346
  948SOL     OW 3092   1.600   3.851   3.321
  948SOL    HW1 3093   1.588   3.944   3.285
  948SOL    HW2 3094   1.588   3.853   3.420
  949SOL     OW 3095   0.808   3.733   2.365
  949SOL    HW1 3096   0.837   3.828   2.358
  949SOL    HW2 3097   0.708   3.729   2.374
  950SOL     OW 3098   1.268   0.059   2.802
  950SOL    HW1 3099   1.192   0.006   2.764
  950SOL    HW2 3100   1.329   3.999   2.853
  951SOL     OW 3101   0.536   3.905   2.755
  951SOL    HW1 3102   0.546   3.917   2.853
  951SOL    HW2 3103   0.536   3.995   2.711
  952SOL     OW 3104   0.194   3.999   3.380
  952SOL    HW1 3105   0.100   0.025   3.357
  952SOL    HW2 3106   0.195   3.907   3.417
  953SOL     OW 3107   1.404   3.827   2.292
  953SOL    HW1 3108   1.393   3.796   2.198
  953SOL    HW2 3109   1.501   3.827   2.316
  954SOL     OW 3110   1.533   3.939   3.588
  954SOL    HW1 3111   1.563   3.950   3.683
  954SOL    HW2 3112   1.455   3.877   3.585
  955SOL     OW 3113   0.628   3.841   1.987
  955SOL    HW1 3114   0.725   3.816   1.988
  955SOL    HW2 3115   0.584   3.797   1.909
  956SOL     OW 3116   0.771   3.961   3.602
  956SOL    HW1 3117   0.833   3.917   3.667
  956SOL    HW2 3118   0.679   3.965   3.642
  957SOL     OW 3119   0.534   3.785   2.373
  957SOL    HW1 3120   0.486   3.779   2.460
  957SOL    HW2 3121   0.546   3.880   2.347
  958SOL     OW 3122   0.298   3.750   2.043
  958SOL    HW1 3123   0.334   3.841   2.022
  958SOL    HW2 3124   0.370   3.695   2.086
  959SOL     OW 3125   0.572   3.937   3.023
  959SOL    HW1 3126   0.620   3.864   3.073
  959SOL    HW2 3127   0.477   3.940   3.053
  960SOL     OW 3128   1.019   3.767   2.602
  960SOL    HW1 3129   0.956   3.761   2.525
  960SOL    HW2 3130   0.995   3.698   2.671
  961SOL     OW 3131   0.923   3.807   3.257
  961SOL    HW1 3132   0.951   3.779   3.165
  961SOL    HW2 3133   0.999   3.855   3.302
  962SOL     OW 3134   1.264   0.073   3.127
  962SOL    HW1 3135   1.283   0.136   3.202
  962SOL    HW2 3136   1.197   0.114   3.066
  963SOL     OW 3137   0.501   3.750   3.614
  963SOL    HW1 3138   0.450   3.700   3.545
  963SOL    HW2 3139   0.456   3.837   3.632
  964SOL     OW 3140   0.322   3.925   3.110
  964SOL    HW1 3141   0.262   3.972   3.176
  964SOL    HW2 3142   0.287   3.833   3.093
  965SOL     OW 3143   1.570   3.957   1.983
  965SOL    HW1 3144   1.515   3.892   2.035
  965SOL    HW2 3145   1.610   0.024   2.045
  966SOL     OW 3146   1.164   3.920   3.335
  966SOL    HW1 3147   1.172   3.987   3.410
  966SOL    HW2 3148   1.202   3.959   3.251
  967SOL     OW 3149   0.903   3.814   1.969
  967SOL    HW1 3150   0.954   3.770   1.895
  967SOL    HW2 3151   0.945   3.792   2.056
  968SOL     OW 3152   1.715   3.855   2.367
  968SOL    HW1 3153   1.794   3.846   2.306
  968SOL    HW2 3154   1.700   3.769   2.414
  969SOL     OW 3155   1.849   3.853   2.821
  969SOL    HW1 3156   1.898   3.808   2.747
  969SOL    HW2 3157   1.760   3.884   2.789
  970SOL     OW 3158   0.677   3.915   3.351
  970SOL    HW1 3159   0.761   3.902   3.299
  970SOL    HW2 3160   0.700   3.937   3.446
  971SOL     OW 3161   0.096   3.983   2.222
  971SOL    HW1 3162   0.105   3.993   2.123
  971SOL    HW2 3163   0.130   3.893   2.249
  972SOL     OW 3164   1.192   0.008   2.334
  972SOL    HW1 3165   1.264   3.939   2.323
  972SOL    HW2 3166   1.216   0.068   2.410
  973SOL     OW 3167   1.783   0.043   3.507
  973SOL    HW1 3168   1.762   0.078   3.415
  973SOL    HW2 3169   1.703   3.997   3.545
  974SOL     OW 3170   1.841   3.897   3.096
  974SOL    HW1 3171   1.780   3.827   3.135
  974SOL    HW2 3172   1.841   3.889   2.996
  975SOL     OW 3173   1.440   3.935   2.981
  975SOL    HW1 3174   1.467   3.844   3.014
  975SOL    HW2 3175   1.377   3.976   3.046
  976SOL     OW 3176   1.013   3.731   3.011
  976SOL    HW1 3177   0.948   3.675   2.960
  976SOL    HW2 3178   1.104   3.690   3.005
  977SOL     OW 3179   1.354   3.767   2.026
  977SOL    HW1 3180   1.392   3.703   1.961
  977SOL    HW2 3181   1.262   3.738   2.052
  978SOL     OW 3182   1.278   0.163   2.548
  978SOL    HW1 3183   1.280   0.263   2.546
  978SOL    HW2 3184   1.288   0.131   2.642
  979SOL     OW 3185   1.594   3.935   2.751
  979SOL    HW1 3186   1.534   3.930   2.831
  979SOL    HW2 3187   1.590   0.027   2.711
  980SOL     OW 3188   1.755   0.339   3.979
  980SOL    HW1 3189   1.721   0.306   3.891
  980SOL    HW2 3190   1.712   0.287   0.053
  981SOL     OW 3191   0.650   3.831   3.833
  981SOL    HW1 3192   0.710   3.757   3.861
  981SOL    HW2 3193   0.583   3.797   3.767
  982SOL     OW 3194   0.297   3.746   3.867
  982SOL    HW1 3195   0.319   3.844   3.875
  982SOL    HW2 3196   0.355   3.694   3.928
  983SOL     OW 3197   1.147   0.249   0.033
  983SOL    HW1 3198   1.232   0.205   0.005
  983SOL    HW2 3199   1.168   0.336   0.078
  984SOL     OW 3200   1.577   3.970   3.849
  984SOL    HW1 3201   1.532   3.890   3.889
  984SOL    HW2 3202   1.619   0.025   3.921
  985SOL     OW 3203   0.404   0.256   3.979
  985SOL    HW1 3204   0.492   0.287   3.943
  985SOL    HW2 3205   0.333   0.322   3.953
  986SOL     OW 3206   1.684   3.831   0.202
  986SOL    HW1 3207   1.759   3.839   0.136
  986SOL    HW2 3208   1.710   3.766   0.274
  987SOL     OW 3209   0.066   0.041   3.734
  987SOL    HW1 3210   3.967   0.033   3.735
  987SOL    HW2 3211   0.092   0.136   3.718
  988SOL     OW 3212   1.353   3.789   3.764
  988SOL    HW1 3213   1.393   3.702   3.734
  988SOL    HW2 3214   1.289   3.772   3.838
  989SOL     OW 3215   2.074   0.639   0.136
  989SOL    HW1 3216   1.995   0.591   0.174
  989SOL    HW2 3217   2.078   0.622   0.037
  990SOL     OW 3218   2.080   0.300   0.992
  990SOL    HW1 3219   2.119   0.262   1.076
  990SOL    HW2 3220   1.993   0.254   0.972
  991SOL     OW 3221   1.873   0.396   0.630
  991SOL    HW1 3222   1.782   0.409   0.670
  991SOL    HW2 3223   1.870   0.324   0.561
  992SOL     OW 3224   2.428   1.298   1.187
  992SOL    HW1 3225   2.340   1.300   1.139
  992SOL    HW2 3226   2.450   1.390   1.221
  993SOL     OW 3227   2.990   0.706   0.693
  993SOL    HW1 3228   3.047   0.787   0.682
  993SOL    HW2 3229   2.941   0.711   0.780
  994SOL     OW 3230   3.688   0.554   0.231
  994SOL    HW1 3231   3.629   0.595   0.162
  994SOL    HW2 3232   3.633   0.503   0.297
  995SOL     OW 3233   2.616   1.152   1.042
  995SOL    HW1 3234   2.544   1.186   1.102
  995SOL    HW2 3235   2.654   1.228   0.989
  996SOL     OW 3236   2.731   0.772   1.820
  996SOL    HW1 3237   2.717   0.842   1.890
  996SOL    HW2 3238   2.756   0.816   1.733
  997SOL     OW 3239   2.548   1.002   0.650
  997SOL    HW1 3240   2.617   0.986   0.721
  997SOL    HW2 3241   2.471   1.052   0.689
  998SOL     OW 3242   2.568   1.155   1.812
  998SOL    HW1 3243   2.619   1.235   1.843
  998SOL    HW2 3244   2.481   1.184   1.771
  999SOL     OW 3245   2.199   1.411   1.066
  999SOL    HW1 3246   2.114   1.387   1.019
  999SOL    HW2 3247   2.249   1.478   1.013
 1000SOL     OW 3248   3.325   1.495   1.349
 1000SOL    HW1 3249   3.376   1.581   1.358
 1000SOL    HW2 3250   3.257   1.489   1.423
 1001SOL     OW 3251   2.303   0.401   1.499
 1001SOL    HW1 3252   2.395   0.364   1.494
 1001SOL    HW2 3253   2.236   0.327   1.497
 1002SOL     OW 3254   3.469   0.451   0.732
 1002SOL    HW1 3255   3.376   0.462   0.697
 1002SOL    HW2 3256   3.491   0.528   0.793
 1003SOL     OW 3257   2.078   1.703   0.487
 1003SOL    HW1 3258   2.108   1.787   0.534
 1003SOL    HW2 3259   2.093   1.712   0.389
 1004SOL     OW 3260   2.998   1.339   1.697
 1004SOL    HW1 3261   3.045   1.338   1.786
 1004SOL    HW2 3262   2.942   1.257   1.688
 1005SOL     OW 3263   2.099   1.438   0.542
 1005SOL    HW1 3264   2.084   1.537   0.538
 1005SOL    HW2 3265   2.033   1.397   0.605
 1006SOL     OW 3266   2.114   1.087   0.892
 1006SOL    HW1 3267   2.120   0.996   0.934
 1006SOL    HW2 3268   2.063   1.148   0.951
 1007SOL     OW 3269   2.477   1.793   1.438
 1007SOL    HW1 3270   2.396   1.772   1.493
 1007SOL    HW2 3271   2.504   1.889   1.454
 1008SOL     OW 3272   2.462   1.006   0.138
 1008SOL    HW1 3273   2.446   1.096   0.098
 1008SOL    HW2 3274   2.506   1.016   0.227
 1009SOL     OW 3275   3.394   0.141   1.420
 1009SOL    HW1 3276   3.434   0.218   1.370
 1009SOL    HW2 3277   3.421   0.147   1.517
 1010SOL     OW 3278   1.975   0.657   0.565
 1010SOL    HW1 3279   1.953   0.562   0.584
 1010SOL    HW2 3280   1.971   0.710   0.650
 1011SOL     OW 3281   3.717   1.759   0.337
 1011SOL    HW1 3282   3.783   1.724   0.404
 1011SOL    HW2 3283   3.740   1.854   0.314
 1012SOL     OW 3284   1.866   1.597   0.116
 1012SOL    HW1 3285   1.860   1.504   0.154
 1012SOL    HW2 3286   1.865   1.664   0.191
 1013SOL     OW 3287   3.560   0.926   0.645
 1013SOL    HW1 3288   3.644   0.875   0.628
 1013SOL    HW2 3289   3.529   0.969   0.560
 1014SOL     OW 3290   3.507   1.117   0.435
 1014SOL    HW1 3291   3.595   1.108   0.388
 1014SOL    HW2 3292   3.518   1.176   0.515
 1015SOL     OW 3293   2.017   0.769   1.602
 1015SOL    HW1 3294   2.116   0.765   1.593
 1015SOL    HW2 3295   1.990   0.856   1.643
 1016SOL     OW 3296   2.471   1.361   0.766
 1016SOL    HW1 3297   2.416   1.278   0.757
 1016SOL    HW2 3298   2.483   1.402   0.676
 1017SOL     OW 3299   3.154   1.237   1.425
 1017SOL    HW1 3300   3.181   1.168   1.358
 1017SOL    HW2 3301   3.213   1.230   1.505
 1018SOL     OW 3302   2.686   0.011   0.541
 1018SOL    HW1 3303   2.725   0.097   0.509
 1018SOL    HW2 3304   2.586   0.016   0.535
 1019SOL     OW 3305   2.051   0.962   1.276
 1019SOL    HW1 3306   2.141   0.919   1.265
 1019SOL    HW2 3307   1.987   0.924   1.210
 1020SOL     OW 3308   3.417   0.956   0.220
 1020SOL    HW1 3309   3.321   0.933   0.234
 1020SOL    HW2 3310   3.445   1.025   0.287
 1021SOL     OW 3311   3.049   1.815   1.589
 1021SOL    HW1 3312   3.140   1.839   1.555
 1021SOL    HW2 3313   3.036   1.716   1.581
 1022SOL     OW 3314   2.218   0.253   1.835
 1022SOL    HW1 3315   2.272   0.336   1.825
 1022SOL    HW2 3316   2.121   0.277   1.844
 1023SOL     OW 3317   3.514   1.742   0.578
 1023SOL    HW1 3318   3.486   1.704   0.489
 1023SOL    HW2 3319   3.486   1.679   0.650
 1024SOL     OW 3320   2.452   0.729   0.272
 1024SOL    HW1 3321   2.489   0.818   0.248
 1024SOL    HW2 3322   2.387   0.739   0.347
 1025SOL     OW 3323   3.139   0.360   0.939
 1025SOL    HW1 3324   3.048   0.320   0.937
 1025SOL    HW2 3325   3.200   0.301   0.991
 1026SOL     OW 3326   3.457   1.663   0.307
 1026SOL    HW1 3327   3.555   1.684   0.306
 1026SOL    HW2 3328   3.426   1.644   0.213
 1027SOL     OW 3329   2.654   0.614   1.454
 1027SOL    HW1 3330   2.627   0.589   1.547
 1027SOL    HW2 3331   2.615   0.548   1.390
 1028SOL     OW 3332   3.250   0.484   1.675
 1028SOL    HW1 3333   3.253   0.531   1.764
 1028SOL    HW2 3334   3.295   0.395   1.683
 1029SOL     OW 3335   2.818   0.887   1.581
 1029SOL    HW1 3336   2.874   0.813   1.546
 1029SOL    HW2 3337   2.764   0.927   1.506
 1030SOL     OW 3338   2.855   0.404   1.232
 1030SOL    HW1 3339   2.768   0.424   1.277
 1030SOL    HW2 3340   2.838   0.363   1.142
 1031SOL     OW 3341   2.910   0.698   0.426
 1031SOL    HW1 3342   2.931   0.697   0.524
 1031SOL    HW2 3343   2.823   0.651   0.411
 1032SOL     OW 3344   1.948   0.825   0.782
 1032SOL    HW1 3345   2.035   0.811   0.829
 1032SOL    HW2 3346   1.904   0.908   0.815
 1033SOL     OW 3347   1.993   1.896   1.595
 1033SOL    HW1 3348   1.993   1.857   1.687
 1033SOL    HW2 3349   1.930   1.846   1.537
 1034SOL     OW 3350   2.751   0.333   0.220
 1034SOL    HW1 3351   2.766   0.398   0.146
 1034SOL    HW2 3352   2.750   0.240   0.183
 1035SOL     OW 3353   3.570   0.580   1.827
 1035SOL    HW1 3354   3.531   0.659   1.781
 1035SOL    HW2 3355   3.587   0.507   1.761
 1036SOL     OW 3356   3.219   1.126   0.511
 1036SOL    HW1 3357   3.307   1.108   0.467
 1036SOL    HW2 3358   3.173   1.201   0.464
 1037SOL     OW 3359   2.416   0.200   0.882
 1037SOL    HW1 3360   2.422   0.214   0.981
 1037SOL    HW2 3361   2.418   0.289   0.836
 1038SOL     OW 3362   2.866   1.453   0.480
 1038SOL    HW1 3363   2.858   1.551   0.461
 1038SOL    HW2 3364   2.855   1.437   0.578
 1039SOL     OW 3365   2.221   1.812   0.862
 1039SOL    HW1 3366   2.264   1.723   0.876
 1039SOL    HW2 3367   2.287   1.885   0.883
 1040SOL     OW 3368   3.667   1.068   0.867
 1040SOL    HW1 3369   3.612   1.042   0.787
 1040SOL    HW2 3370   3.608   1.073   0.947
 1041SOL     OW 3371   3.089   1.535   1.515
 1041SOL    HW1 3372   3.075   1.461   1.580
 1041SOL    HW2 3373   3.027   1.524   1.437
 1042SOL     OW 3374   2.184   0.949   0.259
 1042SOL    HW1 3375   2.259   0.982   0.202
 1042SOL    HW2 3376   2.153   0.860   0.226
 1043SOL     OW 3377   3.350   0.746   0.721
 1043SOL    HW1 3378   3.333   0.694   0.805
 1043SOL    HW2 3379   3.429   0.807   0.736
 1044SOL     OW 3380   2.319   1.257   1.717
 1044SOL    HW1 3381   2.285   1.227   1.628
 1044SOL    HW2 3382   2.241   1.266   1.780
 1045SOL     OW 3383   2.040   0.280   1.502
 1045SOL    HW1 3384   1.960   0.340   1.507
 1045SOL    HW2 3385   2.061   0.245   1.593
 1046SOL     OW 3386   2.349   1.766   0.326
 1046SOL    HW1 3387   2.392   1.852   0.351
 1046SOL    HW2 3388   2.415   1.708   0.277
 1047SOL     OW 3389   2.120   1.801   1.216
 1047SOL    HW1 3390   2.093   1.728   1.278
 1047SOL    HW2 3391   2.081   1.785   1.126
 1048SOL     OW 3392   2.795   1.696   0.891
 1048SOL    HW1 3393   2.880   1.645   0.905
 1048SOL    HW2 3394   2.733   1.642   0.834
 1049SOL     OW 3395   2.253   0.691   0.476
 1049SOL    HW1 3396   2.276   0.595   0.489
 1049SOL    HW2 3397   2.157   0.705   0.497
 1050SOL     OW 3398   3.344   0.239   1.737
 1050SOL    HW1 3399   3.360   0.258   1.834
 1050SOL    HW2 3400   3.355   0.140   1.721
 1051SOL     OW 3401   2.481   0.115   0.116
 1051SOL    HW1 3402   2.572   0.086   0.145
 1051SOL    HW2 3403   2.476   0.116   0.016
 1052SOL     OW 3404   2.636   0.283   1.767
 1052SOL    HW1 3405   2.714   0.220   1.764
 1052SOL    HW2 3406   2.576   0.257   1.842
 1053SOL     OW 3407   2.747   1.516   1.187
 1053SOL    HW1 3408   2.730   1.484   1.095
 1053SOL    HW2 3409   2.820   1.463   1.229
 1054SOL     OW 3410   3.204   0.589   1.429
 1054SOL    HW1 3411   3.231   0.555   1.519
 1054SOL    HW2 3412   3.237   0.682   1.418
 1055SOL     OW 3413   2.691   1.402   0.931
 1055SOL    HW1 3414   2.777   1.376   0.888
 1055SOL    HW2 3415   2.617   1.394   0.864
 1056SOL     OW 3416   2.789   0.512   0.899
 1056SOL    HW1 3417   2.763   0.505   0.802
 1056SOL    HW2 3418   2.818   0.422   0.932
 1057SOL     OW 3419   2.411   0.057   0.495
 1057SOL    HW1 3420   2.332   0.060   0.556
 1057SOL    HW2 3421   2.410   0.138   0.436
 1058SOL     OW 3422   2.195   0.030   0.199
 1058SOL    HW1 3423   2.227   0.121   0.174
 1058SOL    HW2 3424   2.273   3.972   0.223
 1059SOL     OW 3425   2.802   0.244   0.474
 1059SOL    HW1 3426   2.782   0.282   0.383
 1059SOL    HW2 3427   2.900   0.252   0.493
 1060SOL     OW 3428   2.941   0.680   1.459
 1060SOL    HW1 3429   2.863   0.618   1.462
 1060SOL    HW2 3430   3.025   0.628   1.451
 1061SOL     OW 3431   3.093   1.598   0.790
 1061SOL    HW1 3432   3.111   1.671   0.724
 1061SOL    HW2 3433   3.149   1.613   0.872
 1062SOL     OW 3434   2.322   1.136   0.729
 1062SOL    HW1 3435   2.252   1.120   0.798
 1062SOL    HW2 3436   2.283   1.124   0.638
 1063SOL     OW 3437   3.131   1.802   0.604
 1063SOL    HW1 3438   3.180   1.867   0.545
 1063SOL    HW2 3439   3.052   1.847   0.645
 1064SOL     OW 3440   2.930   0.574   0.004
 1064SOL    HW1 3441   2.832   0.589   0.022
 1064SOL    HW2 3442   2.980   0.576   0.091
 1065SOL     OW 3443   2.428   0.228   1.162
 1065SOL    HW1 3444   2.458   0.133   1.172
 1065SOL    HW2 3445   2.334   0.237   1.194
 1066SOL     OW 3446   2.727   0.462   0.637
 1066SOL    HW1 3447   2.682   0.523   0.572
 1066SOL    HW2 3448   2.747   0.374   0.594
 1067SOL     OW 3449   2.855   0.044   0.772
 1067SOL    HW1 3450   2.792   0.059   0.696
 1067SOL    HW2 3451   2.876   3.947   0.780
 1068SOL     OW 3452   3.329   0.607   0.977
 1068SOL    HW1 3453   3.268   0.528   0.972
 1068SOL    HW2 3454   3.390   0.597   1.055
 1069SOL     OW 3455   3.705   0.820   0.388
 1069SOL    HW1 3456   3.754   0.755   0.445
 1069SOL    HW2 3457   3.683   0.778   0.300
 1070SOL     OW 3458   2.367   1.359   0.172
 1070SOL    HW1 3459   2.279   1.357   0.220
 1070SOL    HW2 3460   2.352   1.370   0.074
 1071SOL     OW 3461   3.224   0.558   0.061
 1071SOL    HW1 3462   3.166   0.536   0.140
 1071SOL    HW2 3463   3.316   0.579   0.093
 1072SOL     OW 3464   2.385   0.266   0.316
 1072SOL    HW1 3465   2.428   0.210   0.246
 1072SOL    HW2 3466   2.364   0.356   0.278
 1073SOL     OW 3467   3.622   1.240   1.561
 1073SOL    HW1 3468   3.713   1.199   1.569
 1073SOL    HW2 3469   3.626   1.337   1.587
 1074SOL     OW 3470   2.920   1.358   1.349
 1074SOL    HW1 3471   2.838   1.326   1.396
 1074SOL    HW2 3472   3.001   1.315   1.389
 1075SOL     OW 3473   3.468   1.630   1.652
 1075SOL    HW1 3474   3.455   1.666   1.559
 1075SOL    HW2 3475   3.555   1.581   1.656
 1076SOL     OW 3476   2.979   1.201   1.139
 1076SOL    HW1 3477   2.936   1.251   1.214
 1076SOL    HW2 3478   2.935   1.226   1.053
 1077SOL     OW 3479   3.501   1.098   1.089
 1077SOL    HW1 3480   3.496   1.166   1.163
 1077SOL    HW2 3481   3.415   1.098   1.038
 1078SOL     OW 3482   2.775   0.118   1.397
 1078SOL    HW1 3483   2.795   0.084   1.305
 1078SOL    HW2 3484   2.858   0.160   1.435
 1079SOL     OW 3485   2.841   1.114   1.722
 1079SOL    HW1 3486   2.746   1.134   1.747
 1079SOL    HW2 3487   2.845   1.033   1.664
 1080SOL     OW 3488   2.574   1.053   0.379
 1080SOL    HW1 3489   2.558   1.041   0.477
 1080SOL    HW2 3490   2.658   1.006   0.352
 1081SOL     OW 3491   2.282   0.816   1.256
 1081SOL    HW1 3492   2.357   0.825   1.321
 1081SOL    HW2 3493   2.241   0.726   1.264
 1082SOL     OW 3494   3.127   0.376   1.276
 1082SOL    HW1 3495   3.165   0.455   1.324
 1082SOL    HW2 3496   3.035   0.397   1.243
 1083SOL     OW 3497   2.206   1.111   0.486
 1083SOL    HW1 3498   2.214   1.194   0.430
 1083SOL    HW2 3499   2.206   1.031   0.426
 1084SOL     OW 3500   2.418   0.540   0.859
 1084SOL    HW1 3501   2.432   0.601   0.781
 1084SOL    HW2 3502   2.484   0.562   0.931
 1085SOL     OW 3503   3.111   1.356   0.395
 1085SOL    HW1 3504   3.170   1.432   0.422
 1085SOL    HW2 3505   3.017   1.374   0.424
 1086SOL     OW 3506   3.144   1.459   1.141
 1086SOL    HW1 3507   3.207   1.462   1.219
 1086SOL    HW2 3508   3.089   1.376   1.145
 1087SOL     OW 3509   3.440   0.643   0.468
 1087SOL    HW1 3510   3.389   0.668   0.550
 1087SOL    HW2 3511   3.517   0.707   0.455
 1088SOL     OW 3512   2.288   0.742   1.604
 1088SOL    HW1 3513   2.350   0.790   1.541
 1088SOL    HW2 3514   2.323   0.650   1.621
 1089SOL     OW 3515   3.470   0.786   1.681
 1089SOL    HW1 3516   3.377   0.824   1.677
 1089SOL    HW2 3517   3.525   0.827   1.608
 1090SOL     OW 3518   2.873   0.133   1.775
 1090SOL    HW1 3519   2.927   0.211   1.744
 1090SOL    HW2 3520   2.870   0.063   1.703
 1091SOL     OW 3521   2.345   0.033   1.764
 1091SOL    HW1 3522   2.355   0.039   1.664
 1091SOL    HW2 3523   2.284   0.105   1.796
 1092SOL     OW 3524   2.439   0.870   1.031
 1092SOL    HW1 3525   2.480   0.961   1.025
 1092SOL    HW2 3526   2.383   0.864   1.113
 1093SOL     OW 3527   3.221   0.856   1.033
 1093SOL    HW1 3528   3.136   0.856   0.980
 1093SOL    HW2 3529   3.266   0.768   1.023
 1094SOL     OW 3530   3.059   0.523   0.272
 1094SOL    HW1 3531   3.095   0.453   0.333
 1094SOL    HW2 3532   3.009   0.591   0.326
 1095SOL     OW 3533   2.165   0.212   1.241
 1095SOL    HW1 3534   2.122   0.246   1.325
 1095SOL    HW2 3535   2.152   0.113   1.235
 1096SOL     OW 3536   1.902   1.331   1.272
 1096SOL    HW1 3537   1.923   1.261   1.341
 1096SOL    HW2 3538   1.937   1.419   1.302
 1097SOL     OW 3539   2.590   0.635   1.055
 1097SOL    HW1 3540   2.664   0.611   0.993
 1097SOL    HW2 3541   2.553   0.724   1.031
 1098SOL     OW 3542   3.589   0.956   1.861
 1098SOL    HW1 3543   3.547   0.892   1.797
 1098SOL    HW2 3544   3.526   0.974   1.936
 1099SOL     OW 3545   2.185   0.059   0.648
 1099SOL    HW1 3546   2.166   0.156   0.662
 1099SOL    HW2 3547   2.151   0.007   0.727
 1100SOL     OW 3548   3.487   0.386   0.365
 1100SOL    HW1 3549   3.489   0.308   0.428
 1100SOL    HW2 3550   3.455   0.467   0.414
 1101SOL     OW 3551   2.892   0.757   0.961
 1101SOL    HW1 3552   2.888   0.779   1.058
 1101SOL    HW2 3553   2.862   0.663   0.946
 1102SOL     OW 3554   2.849   1.567   1.713
 1102SOL    HW1 3555   2.825   1.609   1.625
 1102SOL    HW2 3556   2.893   1.478   1.696
 1103SOL     OW 3557   3.704   1.505   1.596
 1103SOL    HW1 3558   3.730   1.521   1.501
 1103SOL    HW2 3559   3.784   1.520   1.655
 1104SOL     OW 3560   2.226   0.920   1.807
 1104SOL    HW1 3561   2.305   0.938   1.865
 1104SOL    HW2 3562   2.251   0.852   1.738
 1105SOL     OW 3563   3.380   0.306   0.122
 1105SOL    HW1 3564   3.352   0.211   0.131
 1105SOL    HW2 3565   3.415   0.340   0.209
 1106SOL     OW 3566   3.159   0.826   0.045
 1106SOL    HW1 3567   3.182   0.728   0.044
 1106SOL    HW2 3568   3.182   0.867   3.957
 1107SOL     OW 3569   2.172   0.806   0.946
 1107SOL    HW1 3570   2.268   0.835   0.942
 1107SOL    HW2 3571   2.166   0.712   0.977
 1108SOL     OW 3572   2.199   0.538   1.015
 1108SOL    HW1 3573   2.148   0.453   1.003
 1108SOL    HW2 3574   2.279   0.538   0.955
 1109SOL     OW 3575   2.996   0.381   1.701
 1109SOL    HW1 3576   2.943   0.439   1.764
 1109SOL    HW2 3577   3.088   0.420   1.689
 1110SOL     OW 3578   3.009   0.228   1.484
 1110SOL    HW1 3579   3.002   0.286   1.565
 1110SOL    HW2 3580   3.042   0.283   1.407
 1111SOL     OW 3581   1.865   1.322   0.212
 1111SOL    HW1 3582   1.775   1.341   0.173
 1111SOL    HW2 3583   1.872   1.224   0.233
 1112SOL     OW 3584   1.959   1.791   0.919
 1112SOL    HW1 3585   1.924   1.707   0.878
 1112SOL    HW2 3586   2.055   1.803   0.893
 1113SOL     OW 3587   2.359   1.575   0.909
 1113SOL    HW1 3588   2.430   1.642   0.933
 1113SOL    HW2 3589   2.401   1.497   0.862
 1114SOL     OW 3590   2.842   0.796   1.227
 1114SOL    HW1 3591   2.898   0.768   1.306
 1114SOL    HW2 3592   2.753   0.750   1.232
 1115SOL     OW 3593   2.066   0.527   1.710
 1115SOL    HW1 3594   2.135   0.492   1.646
 1115SOL    HW2 3595   2.028   0.612   1.675
 1116SOL     OW 3596   3.241   0.938   1.657
 1116SOL    HW1 3597   3.263   1.035   1.659
 1116SOL    HW2 3598   3.236   0.906   1.562
 1117SOL     OW 3599   2.676   0.571   0.366
 1117SOL    HW1 3600   2.686   0.489   0.311
 1117SOL    HW2 3601   2.600   0.626   0.332
 1118SOL     OW 3602   3.504   0.605   1.188
 1118SOL    HW1 3603   3.484   0.539   1.261
 1118SOL    HW2 3604   3.593   0.583   1.147
 1119SOL     OW 3605   2.123   1.552   1.747
 1119SOL    HW1 3606   2.088   1.629   1.800
 1119SOL    HW2 3607   2.107   1.467   1.799
 1120SOL     OW 3608   2.564   0.456   1.257
 1120SOL    HW1 3609   2.515   0.373   1.233
 1120SOL    HW2 3610   2.562   0.520   1.180
 1121SOL     OW 3611   2.783   1.675   1.467
 1121SOL    HW1 3612   2.763   1.627   1.382
 1121SOL    HW2 3613   2.769   1.773   1.454
 1122SOL     OW 3614   2.319   0.501   0.195
 1122SOL    HW1 3615   2.386   0.572   0.220
 1122SOL    HW2 3616   2.228   0.542   0.189
 1123SOL     OW 3617   2.001   1.145   1.472
 1123SOL    HW1 3618   2.007   1.097   1.560
 1123SOL    HW2 3619   2.026   1.082   1.398
 1124SOL     OW 3620   3.186   1.047   1.221
 1124SOL    HW1 3621   3.208   0.977   1.154
 1124SOL    HW2 3622   3.107   1.099   1.190
 1125SOL     OW 3623   3.170   0.850   0.313
 1125SOL    HW1 3624   3.088   0.824   0.363
 1125SOL    HW2 3625   3.155   0.837   0.215
 1126SOL     OW 3626   3.634   1.744   1.149
 1126SOL    HW1 3627   3.698   1.775   1.078
 1126SOL    HW2 3628   3.606   1.650   1.129
 1127SOL     OW 3629   3.105   1.732   1.111
 1127SOL    HW1 3630   3.190   1.759   1.067
 1127SOL    HW2 3631   3.106   1.634   1.128
 1128SOL     OW 3632   1.942   1.267   1.011
 1128SOL    HW1 3633   1.931   1.286   1.108
 1128SOL    HW2 3634   1.870   1.205   0.980
 1129SOL     OW 3635   2.540   1.671   1.726
 1129SOL    HW1 3636   2.483   1.753   1.732
 1129SOL    HW2 3637   2.607   1.682   1.653
 1130SOL     OW 3638   3.560   0.150   0.506
 1130SOL    HW1 3639   3.636   0.143   0.441
 1130SOL    HW2 3640   3.523   0.059   0.523
 1131SOL     OW 3641   3.257   1.579   0.473
 1131SOL    HW1 3642   3.317   1.614   0.401
 1131SOL    HW2 3643   3.204   1.655   0.512
 1132SOL     OW 3644   2.007   1.786   1.847
 1132SOL    HW1 3645   1.947   1.721   1.894
 1132SOL    HW2 3646   2.055   1.841   1.916
 1133SOL     OW 3647   3.150   0.923   0.676
 1133SOL    HW1 3648   3.226   0.859   0.684
 1133SOL    HW2 3649   3.172   0.993   0.608
 1134SOL     OW 3650   2.671   1.278   1.429
 1134SOL    HW1 3651   2.637   1.319   1.514
 1134SOL    HW2 3652   2.609   1.299   1.354
 1135SOL     OW 3653   2.495   1.598   0.166
 1135SOL    HW1 3654   2.516   1.606   0.069
 1135SOL    HW2 3655   2.458   1.507   0.184
 1136SOL     OW 3656   3.474   1.731   1.385
 1136SOL    HW1 3657   3.537   1.730   1.308
 1136SOL    HW2 3658   3.463   1.825   1.418
 1137SOL     OW 3659   3.699   0.185   0.972
 1137SOL    HW1 3660   3.727   0.095   0.938
 1137SOL    HW2 3661   3.607   0.205   0.940
 1138SOL     OW 3662   2.126   0.318   0.716
 1138SOL    HW1 3663   2.036   0.354   0.692
 1138SOL    HW2 3664   2.132   0.307   0.816
 1139SOL     OW 3665   3.095   1.589   0.054
 1139SOL    HW1 3666   3.067   1.498   0.084
 1139SOL    HW2 3667   3.074   1.601   3.957
 1140SOL     OW 3668   2.686   1.010   1.376
 1140SOL    HW1 3669   2.734   0.993   1.290
 1140SOL    HW2 3670   2.685   1.108   1.395
 1141SOL     OW 3671   2.783   0.914   0.291
 1141SOL    HW1 3672   2.840   0.945   0.215
 1141SOL    HW2 3673   2.830   0.839   0.338
 1142SOL     OW 3674   3.367   1.593   0.048
 1142SOL    HW1 3675   3.268   1.600   0.063
 1142SOL    HW2 3676   3.388   1.625   3.955
 1143SOL     OW 3677   3.500   1.288   1.297
 1143SOL    HW1 3678   3.547   1.268   1.383
 1143SOL    HW2 3679   3.426   1.353   1.313
 1144SOL     OW 3680   2.869   0.249   0.970
 1144SOL    HW1 3681   2.862   0.203   0.882
 1144SOL    HW2 3682   2.868   0.181   1.043
 1145SOL     OW 3683   3.586   0.396   1.371
 1145SOL    HW1 3684   3.660   0.464   1.369
 1145SOL    HW2 3685   3.614   0.315   1.320
 1146SOL     OW 3686   2.119   1.356   0.289
 1146SOL    HW1 3687   2.024   1.344   0.260
 1146SOL    HW2 3688   2.122   1.391   0.383
 1147SOL     OW 3689   1.981   1.010   1.720
 1147SOL    HW1 3690   1.901   0.997   1.777
 1147SOL    HW2 3691   2.063   0.985   1.772
 1148SOL     OW 3692   2.556   0.249   1.501
 1148SOL    HW1 3693   2.626   0.196   1.454
 1148SOL    HW2 3694   2.580   0.259   1.597
 1149SOL     OW 3695   3.288   0.858   1.398
 1149SOL    HW1 3696   3.232   0.921   1.344
 1149SOL    HW2 3697   3.381   0.856   1.360
 1150SOL     OW 3698   1.946   0.169   0.348
 1150SOL    HW1 3699   1.924   0.238   0.279
 1150SOL    HW2 3700   2.039   0.135   0.333
 1151SOL     OW 3701   3.027   1.337   0.128
 1151SOL    HW1 3702   2.953   1.270   0.124
 1151SOL    HW2 3703   3.071   1.332   0.218
 1152SOL     OW 3704   2.486   0.831   1.433
 1152SOL    HW1 3705   2.544   0.910   1.416
 1152SOL    HW2 3706   2.543   0.749   1.442
 1153SOL     OW 3707   3.352   1.773   0.978
 1153SOL    HW1 3708   3.367   1.840   0.905
 1153SOL    HW2 3709   3.438   1.756   1.026
 1154SOL     OW 3710   2.581   0.560   1.707
 1154SOL    HW1 3711   2.625   0.629   1.766
 1154SOL    HW2 3712   2.609   0.469   1.737
 1155SOL     OW 3713   3.335   1.200   1.636
 1155SOL    HW1 3714   3.318   1.211   1.734
 1155SOL    HW2 3715   3.432   1.218   1.617
 1156SOL     OW 3716   3.529   0.876   1.263
 1156SOL    HW1 3717   3.525   0.785   1.222
 1156SOL    HW2 3718   3.524   0.945   1.190
 1157SOL     OW 3719   2.451   0.737   0.667
 1157SOL    HW1 3720   2.494   0.827   0.659
 1157SOL    HW2 3721   2.378   0.729   0.599
 1158SOL     OW 3722   3.616   0.388   1.643
 1158SOL    HW1 3723   3.592   0.409   1.548
 1158SOL    HW2 3724   3.595   0.292   1.662
 1159SOL     OW 3725   3.628   0.937   1.508
 1159SOL    HW1 3726   3.603   1.030   1.535
 1159SOL    HW2 3727   3.596   0.920   1.414
 1160SOL     OW 3728   2.715   1.378   0.008
 1160SOL    HW1 3729   2.691   1.339   0.097
 1160SOL    HW2 3730   2.722   1.477   0.016
 1161SOL     OW 3731   2.527   1.793   0.943
 1161SOL    HW1 3732   2.499   1.888   0.926
 1161SOL    HW2 3733   2.626   1.785   0.935
 1162SOL     OW 3734   2.711   0.954   0.863
 1162SOL    HW1 3735   2.779   0.889   0.897
 1162SOL    HW2 3736   2.690   1.020   0.935
 1163SOL     OW 3737   2.943   0.993   0.083
 1163SOL    HW1 3738   2.917   1.007   3.988
 1163SOL    HW2 3739   3.026   0.938   0.088
 1164SOL     OW 3740   3.709   1.560   0.847
 1164SOL    HW1 3741   3.692   1.504   0.766
 1164SOL    HW2 3742   3.720   1.501   0.927
 1165SOL     OW 3743   2.088   1.299   1.857
 1165SOL    HW1 3744   2.010   1.250   1.818
 1165SOL    HW2 3745   2.075   1.308   1.956
 1166SOL     OW 3746   1.940   1.226   0.662
 1166SOL    HW1 3747   1.958   1.186   0.752
 1166SOL    HW2 3748   2.008   1.193   0.596
 1167SOL     OW 3749   2.531   1.406   1.628
 1167SOL    HW1 3750   2.452   1.357   1.664
 1167SOL    HW2 3751   2.534   1.498   1.666
 1168SOL     OW 3752   3.679   0.181   1.245
 1168SOL    HW1 3753   3.680   0.082   1.258
 1168SOL    HW2 3754   3.691   0.202   1.148
 1169SOL     OW 3755   2.289   0.431   0.523
 1169SOL    HW1 3756   2.328   0.360   0.465
 1169SOL    HW2 3757   2.241   0.388   0.600
 1170SOL     OW 3758   3.558   1.491   1.107
 1170SOL    HW1 3759   3.467   1.466   1.074
 1170SOL    HW2 3760   3.582   1.436   1.187
 1171SOL     OW 3761   2.177   0.564   1.295
 1171SOL    HW1 3762   2.232   0.504   1.354
 1171SOL    HW2 3763   2.191   0.538   1.199
 1172SOL     OW 3764   3.322   0.248   1.114
 1172SOL    HW1 3765   3.338   0.155   1.147
 1172SOL    HW2 3766   3.262   0.296   1.177
 1173SOL     OW 3767   2.859   0.031   1.148
 1173SOL    HW1 3768   2.789   3.966   1.119
 1173SOL    HW2 3769   2.949   3.991   1.133
 1174SOL     OW 3770   2.678   1.326   0.278
 1174SOL    HW1 3771   2.608   1.259   0.303
 1174SOL    HW2 3772   2.735   1.345   0.357
 1175SOL     OW 3773   2.502   1.550   1.292
 1175SOL    HW1 3774   2.492   1.643   1.329
 1175SOL    HW2 3775   2.590   1.543   1.245
 1176SOL     OW 3776   3.192   0.489   0.702
 1176SOL    HW1 3777   3.118   0.553   0.685
 1176SOL    HW2 3778   3.166   0.425   0.774
 1177SOL     OW 3779   3.452   0.215   0.870
 1177SOL    HW1 3780   3.398   0.234   0.952
 1177SOL    HW2 3781   3.449   0.294   0.809
 1178SOL     OW 3782   1.906   1.064   0.322
 1178SOL    HW1 3783   2.003   1.061   0.297
 1178SOL    HW2 3784   1.874   0.973   0.347
 1179SOL     OW 3785   2.086   0.623   1.981
 1179SOL    HW1 3786   1.994   0.624   2.020
 1179SOL    HW2 3787   2.081   0.597   1.884
 1180SOL     OW 3788   2.070   0.305   2.857
 1180SOL    HW1 3789   2.112   0.266   2.939
 1180SOL    HW2 3790   1.986   0.255   2.836
 1181SOL     OW 3791   1.874   0.395   2.493
 1181SOL    HW1 3792   1.783   0.413   2.530
 1181SOL    HW2 3793   1.870   0.320   2.427
 1182SOL     OW 3794   2.429   1.290   3.042
 1182SOL    HW1 3795   2.339   1.287   2.999
 1182SOL    HW2 3796   2.447   1.382   3.077
 1183SOL     OW 3797   3.420   1.510   2.569
 1183SOL    HW1 3798   3.378   1.490   2.658
 1183SOL    HW2 3799   3.349   1.520   2.500
 1184SOL     OW 3800   2.996   0.701   2.564
 1184SOL    HW1 3801   3.046   0.786   2.547
 1184SOL    HW2 3802   2.936   0.713   2.643
 1185SOL     OW 3803   3.626   0.618   2.087
 1185SOL    HW1 3804   3.605   0.611   1.989
 1185SOL    HW2 3805   3.603   0.532   2.132
 1186SOL     OW 3806   2.611   1.143   2.901
 1186SOL    HW1 3807   2.542   1.177   2.964
 1186SOL    HW2 3808   2.654   1.220   2.853
 1187SOL     OW 3809   2.732   0.780   3.673
 1187SOL    HW1 3810   2.735   0.847   3.747
 1187SOL    HW2 3811   2.758   0.824   3.587
 1188SOL     OW 3812   2.547   1.001   2.512
 1188SOL    HW1 3813   2.617   0.990   2.582
 1188SOL    HW2 3814   2.471   1.056   2.549
 1189SOL     OW 3815   2.568   1.154   3.672
 1189SOL    HW1 3816   2.622   1.234   3.698
 1189SOL    HW2 3817   2.481   1.183   3.634
 1190SOL     OW 3818   2.190   1.424   2.928
 1190SOL    HW1 3819   2.113   1.383   2.881
 1190SOL    HW2 3820   2.244   1.478   2.863
 1191SOL     OW 3821   3.322   1.501   3.217
 1191SOL    HW1 3822   3.378   1.584   3.221
 1191SOL    HW2 3823   3.251   1.505   3.287
 1192SOL     OW 3824   2.280   0.403   3.344
 1192SOL    HW1 3825   2.349   0.332   3.326
 1192SOL    HW2 3826   2.191   0.360   3.355
 1193SOL     OW 3827   3.477   0.455   2.597
 1193SOL    HW1 3828   3.403   0.486   2.537
 1193SOL    HW2 3829   3.499   0.526   2.663
 1194SOL     OW 3830   2.084   1.713   2.335
 1194SOL    HW1 3831   2.101   1.792   2.393
 1194SOL    HW2 3832   2.157   1.703   2.268
 1195SOL     OW 3833   3.007   1.336   3.557
 1195SOL    HW1 3834   3.038   1.341   3.652
 1195SOL    HW2 3835   2.947   1.257   3.546
 1196SOL     OW 3836   2.094   1.442   2.399
 1196SOL    HW1 3837   2.079   1.541   2.398
 1196SOL    HW2 3838   2.031   1.400   2.464
 1197SOL     OW 3839   2.127   1.090   2.763
 1197SOL    HW1 3840   2.119   0.996   2.795
 1197SOL    HW2 3841   2.064   1.149   2.813
 1198SOL     OW 3842   2.469   1.793   3.293
 1198SOL    HW1 3843   2.384   1.771   3.341
 1198SOL    HW2 3844   2.497   1.886   3.317
 1199SOL     OW 3845   2.447   0.985   1.999
 1199SOL    HW1 3846   2.493   1.035   1.925
 1199SOL    HW2 3847   2.487   1.013   2.086
 1200SOL     OW 3848   3.441   0.140   3.316
 1200SOL    HW1 3849   3.473   0.214   3.257
 1200SOL    HW2 3850   3.412   0.177   3.404
 1201SOL     OW 3851   1.976   0.659   2.425
 1201SOL    HW1 3852   1.950   0.564   2.444
 1201SOL    HW2 3853   1.970   0.713   2.509
 1202SOL     OW 3854   3.705   1.774   2.198
 1202SOL    HW1 3855   3.772   1.744   2.266
 1202SOL    HW2 3856   3.735   1.860   2.157
 1203SOL     OW 3857   1.887   1.591   1.987
 1203SOL    HW1 3858   1.872   1.494   2.008
 1203SOL    HW2 3859   1.868   1.646   2.068
 1204SOL     OW 3860   3.550   0.920   2.507
 1204SOL    HW1 3861   3.638   0.872   2.494
 1204SOL    HW2 3862   3.530   0.974   2.426
 1205SOL     OW 3863   3.507   1.106   2.296
 1205SOL    HW1 3864   3.594   1.108   2.246
 1205SOL    HW2 3865   3.510   1.172   2.371
 1206SOL     OW 3866   1.981   0.749   3.444
 1206SOL    HW1 3867   2.076   0.779   3.448
 1206SOL    HW2 3868   1.921   0.829   3.447
 1207SOL     OW 3869   2.472   1.387   2.596
 1207SOL    HW1 3870   2.426   1.300   2.609
 1207SOL    HW2 3871   2.459   1.419   2.502
 1208SOL     OW 3872   3.146   1.236   3.281
 1208SOL    HW1 3873   3.181   1.168   3.216
 1208SOL    HW2 3874   3.193   1.226   3.369
 1209SOL     OW 3875   2.052   0.964   3.137
 1209SOL    HW1 3876   2.140   0.920   3.119
 1209SOL    HW2 3877   1.981   0.918   3.083
 1210SOL     OW 3878   3.392   0.996   2.065
 1210SOL    HW1 3879   3.318   0.936   2.095
 1210SOL    HW2 3880   3.437   1.036   2.145
 1211SOL     OW 3881   3.047   1.806   3.484
 1211SOL    HW1 3882   3.055   1.876   3.413
 1211SOL    HW2 3883   3.066   1.716   3.444
 1212SOL     OW 3884   2.179   0.260   3.637
 1212SOL    HW1 3885   2.260   0.298   3.682
 1212SOL    HW2 3886   2.097   0.285   3.688
 1213SOL     OW 3887   3.328   1.418   2.814
 1213SOL    HW1 3888   3.259   1.438   2.883
 1213SOL    HW2 3889   3.319   1.324   2.784
 1214SOL     OW 3890   3.516   1.737   2.441
 1214SOL    HW1 3891   3.496   1.713   2.347
 1214SOL    HW2 3892   3.491   1.661   2.502
 1215SOL     OW 3893   2.458   0.725   2.132
 1215SOL    HW1 3894   2.465   0.808   2.078
 1215SOL    HW2 3895   2.390   0.737   2.204
 1216SOL     OW 3896   3.152   0.364   2.797
 1216SOL    HW1 3897   3.063   0.319   2.790
 1216SOL    HW2 3898   3.213   0.309   2.855
 1217SOL     OW 3899   3.446   1.670   2.170
 1217SOL    HW1 3900   3.538   1.711   2.168
 1217SOL    HW2 3901   3.416   1.653   2.076
 1218SOL     OW 3902   2.660   0.626   3.311
 1218SOL    HW1 3903   2.639   0.605   3.406
 1218SOL    HW2 3904   2.612   0.563   3.250
 1219SOL     OW 3905   3.251   0.471   3.538
 1219SOL    HW1 3906   3.250   0.519   3.625
 1219SOL    HW2 3907   3.310   0.390   3.546
 1220SOL     OW 3908   2.821   0.889   3.437
 1220SOL    HW1 3909   2.878   0.815   3.401
 1220SOL    HW2 3910   2.767   0.929   3.363
 1221SOL     OW 3911   2.911   0.699   2.289
 1221SOL    HW1 3912   2.930   0.692   2.387
 1221SOL    HW2 3913   2.826   0.650   2.268
 1222SOL     OW 3914   1.950   0.827   2.640
 1222SOL    HW1 3915   2.034   0.814   2.691
 1222SOL    HW2 3916   1.900   0.906   2.676
 1223SOL     OW 3917   1.990   1.859   3.444
 1223SOL    HW1 3918   1.992   1.832   3.541
 1223SOL    HW2 3919   1.901   1.836   3.405
 1224SOL     OW 3920   2.754   0.353   2.061
 1224SOL    HW1 3921   2.796   0.417   1.997
 1224SOL    HW2 3922   2.746   0.263   2.018
 1225SOL     OW 3923   3.559   0.585   3.686
 1225SOL    HW1 3924   3.522   0.664   3.636
 1225SOL    HW2 3925   3.587   0.515   3.621
 1226SOL     OW 3926   3.237   1.142   2.398
 1226SOL    HW1 3927   3.322   1.126   2.348
 1226SOL    HW2 3928   3.182   1.210   2.350
 1227SOL     OW 3929   2.442   0.222   2.732
 1227SOL    HW1 3930   2.428   0.212   2.830
 1227SOL    HW2 3931   2.420   0.315   2.704
 1228SOL     OW 3932   2.860   1.443   2.329
 1228SOL    HW1 3933   2.826   1.522   2.278
 1228SOL    HW2 3934   2.846   1.459   2.427
 1229SOL     OW 3935   2.217   1.811   2.728
 1229SOL    HW1 3936   2.262   1.722   2.736
 1229SOL    HW2 3937   2.284   1.884   2.745
 1230SOL     OW 3938   3.665   1.062   2.730
 1230SOL    HW1 3939   3.612   1.038   2.648
 1230SOL    HW2 3940   3.603   1.066   2.809
 1231SOL     OW 3941   3.092   1.534   3.375
 1231SOL    HW1 3942   3.074   1.461   3.440
 1231SOL    HW2 3943   3.023   1.532   3.302
 1232SOL     OW 3944   2.184   0.957   2.114
 1232SOL    HW1 3945   2.272   0.979   2.070
 1232SOL    HW2 3946   2.149   0.871   2.077
 1233SOL     OW 3947   3.343   0.746   2.590
 1233SOL    HW1 3948   3.335   0.701   2.679
 1233SOL    HW2 3949   3.423   0.806   2.590
 1234SOL     OW 3950   2.326   1.261   3.593
 1234SOL    HW1 3951   2.300   1.269   3.497
 1234SOL    HW2 3952   2.245   1.262   3.651
 1235SOL     OW 3953   2.984   1.775   2.088
 1235SOL    HW1 3954   2.906   1.739   2.139
 1235SOL    HW2 3955   3.010   1.711   2.017
 1236SOL     OW 3956   2.040   0.280   3.365
 1236SOL    HW1 3957   1.960   0.340   3.358
 1236SOL    HW2 3958   2.055   0.254   3.460
 1237SOL     OW 3959   3.485   1.383   1.948
 1237SOL    HW1 3960   3.445   1.473   1.932
 1237SOL    HW2 3961   3.417   1.312   1.931
 1238SOL     OW 3962   2.329   1.734   2.183
 1238SOL    HW1 3963   2.367   1.799   2.249
 1238SOL    HW2 3964   2.402   1.703   2.122
 1239SOL     OW 3965   3.298   0.162   2.267
 1239SOL    HW1 3966   3.252   0.106   2.197
 1239SOL    HW2 3967   3.387   0.122   2.288
 1240SOL     OW 3968   2.119   1.792   3.091
 1240SOL    HW1 3969   2.171   1.723   3.140
 1240SOL    HW2 3970   2.101   1.761   2.998
 1241SOL     OW 3971   2.797   1.700   2.760
 1241SOL    HW1 3972   2.882   1.654   2.787
 1241SOL    HW2 3973   2.753   1.649   2.686
 1242SOL     OW 3974   2.255   0.692   2.340
 1242SOL    HW1 3975   2.279   0.596   2.351
 1242SOL    HW2 3976   2.158   0.705   2.357
 1243SOL     OW 3977   3.386   0.225   3.586
 1243SOL    HW1 3978   3.388   0.255   3.682
 1243SOL    HW2 3979   3.361   0.129   3.582
 1244SOL     OW 3980   2.501   0.132   1.968
 1244SOL    HW1 3981   2.537   0.049   2.011
 1244SOL    HW2 3982   2.436   0.108   1.897
 1245SOL     OW 3983   2.736   1.515   3.054
 1245SOL    HW1 3984   2.719   1.482   2.961
 1245SOL    HW2 3985   2.811   1.462   3.095
 1246SOL     OW 3986   3.205   0.585   3.294
 1246SOL    HW1 3987   3.234   0.550   3.383
 1246SOL    HW2 3988   3.241   0.677   3.280
 1247SOL     OW 3989   2.680   1.391   2.799
 1247SOL    HW1 3990   2.770   1.382   2.756
 1247SOL    HW2 3991   2.609   1.396   2.729
 1248SOL     OW 3992   2.369   0.052   2.317
 1248SOL    HW1 3993   2.300   0.071   2.387
 1248SOL    HW2 3994   2.395   0.138   2.272
 1249SOL     OW 3995   3.287   1.197   1.905
 1249SOL    HW1 3996   3.322   1.119   1.957
 1249SOL    HW2 3997   3.198   1.226   1.942
 1250SOL     OW 3998   2.188   0.048   2.074
 1250SOL    HW1 3999   2.204   0.118   2.004
 1250SOL    HW2 4000   2.272   0.033   2.125
 1251SOL     OW 4001   2.805   0.251   2.337
 1251SOL    HW1 4002   2.765   0.283   2.251
 1251SOL    HW2 4003   2.905   0.248   2.328
 1252SOL     OW 4004   2.948   0.683   3.316
 1252SOL    HW1 4005   2.873   0.618   3.322
 1252SOL    HW2 4006   3.035   0.634   3.314
 1253SOL     OW 4007   3.085   1.569   2.656
 1253SOL    HW1 4008   3.097   1.639   2.586
 1253SOL    HW2 4009   3.154   1.580   2.727
 1254SOL     OW 4010   2.330   1.148   2.594
 1254SOL    HW1 4011   2.260   1.130   2.664
 1254SOL    HW2 4012   2.290   1.135   2.503
 1255SOL     OW 4013   3.127   1.792   2.470
 1255SOL    HW1 4014   3.178   1.854   2.411
 1255SOL    HW2 4015   3.055   1.843   2.517
 1256SOL     OW 4016   2.882   0.544   1.892
 1256SOL    HW1 4017   2.836   0.630   1.867
 1256SOL    HW2 4018   2.951   0.562   1.962
 1257SOL     OW 4019   1.944   0.556   3.256
 1257SOL    HW1 4020   2.037   0.557   3.218
 1257SOL    HW2 4021   1.935   0.631   3.322
 1258SOL     OW 4022   2.431   0.232   3.026
 1258SOL    HW1 4023   2.458   0.136   3.033
 1258SOL    HW2 4024   2.335   0.241   3.054
 1259SOL     OW 4025   2.734   0.459   2.509
 1259SOL    HW1 4026   2.681   0.518   2.448
 1259SOL    HW2 4027   2.758   0.375   2.460
 1260SOL     OW 4028   2.867   0.033   2.654
 1260SOL    HW1 4029   2.868   0.083   2.567
 1260SOL    HW2 4030   2.866   3.934   2.635
 1261SOL     OW 4031   3.306   1.161   2.720
 1261SOL    HW1 4032   3.228   1.098   2.720
 1261SOL    HW2 4033   3.336   1.177   2.626
 1262SOL     OW 4034   3.327   0.605   2.838
 1262SOL    HW1 4035   3.269   0.524   2.838
 1262SOL    HW2 4036   3.391   0.600   2.915
 1263SOL     OW 4037   3.724   0.821   2.235
 1263SOL    HW1 4038   3.768   0.764   2.305
 1263SOL    HW2 4039   3.682   0.762   2.166
 1264SOL     OW 4040   2.349   1.417   2.021
 1264SOL    HW1 4041   2.272   1.387   2.077
 1264SOL    HW2 4042   2.327   1.403   1.924
 1265SOL     OW 4043   3.529   1.266   2.509
 1265SOL    HW1 4044   3.628   1.267   2.515
 1265SOL    HW2 4045   3.493   1.358   2.528
 1266SOL     OW 4046   3.253   0.578   1.933
 1266SOL    HW1 4047   3.188   0.557   2.006
 1266SOL    HW2 4048   3.345   0.548   1.960
 1267SOL     OW 4049   2.395   0.279   2.171
 1267SOL    HW1 4050   2.445   0.230   2.099
 1267SOL    HW2 4051   2.364   0.367   2.135
 1268SOL     OW 4052   2.916   1.351   3.195
 1268SOL    HW1 4053   2.836   1.322   3.247
 1268SOL    HW2 4054   2.999   1.311   3.236
 1269SOL     OW 4055   3.464   1.620   3.515
 1269SOL    HW1 4056   3.447   1.663   3.426
 1269SOL    HW2 4057   3.555   1.578   3.515
 1270SOL     OW 4058   2.993   1.211   2.968
 1270SOL    HW1 4059   2.935   1.248   3.040
 1270SOL    HW2 4060   2.962   1.243   2.878
 1271SOL     OW 4061   3.490   1.098   2.938
 1271SOL    HW1 4062   3.480   1.159   3.017
 1271SOL    HW2 4063   3.414   1.113   2.875
 1272SOL     OW 4064   2.791   0.116   3.255
 1272SOL    HW1 4065   2.811   0.065   3.172
 1272SOL    HW2 4066   2.876   0.154   3.292
 1273SOL     OW 4067   2.844   1.116   3.578
 1273SOL    HW1 4068   2.751   1.138   3.605
 1273SOL    HW2 4069   2.843   1.033   3.521
 1274SOL     OW 4070   2.573   1.059   2.234
 1274SOL    HW1 4071   2.555   1.043   2.331
 1274SOL    HW2 4072   2.652   1.005   2.205
 1275SOL     OW 4073   2.283   0.819   3.112
 1275SOL    HW1 4074   2.355   0.829   3.181
 1275SOL    HW2 4075   2.242   0.728   3.120
 1276SOL     OW 4076   3.117   0.385   3.131
 1276SOL    HW1 4077   3.156   0.460   3.184
 1276SOL    HW2 4078   3.050   0.421   3.066
 1277SOL     OW 4079   1.934   1.573   3.215
 1277SOL    HW1 4080   1.898   1.644   3.154
 1277SOL    HW2 4081   2.034   1.574   3.210
 1278SOL     OW 4082   2.212   1.113   2.350
 1278SOL    HW1 4083   2.215   1.194   2.293
 1278SOL    HW2 4084   2.208   1.031   2.292
 1279SOL     OW 4085   2.427   0.540   2.727
 1279SOL    HW1 4086   2.437   0.597   2.645
 1279SOL    HW2 4087   2.480   0.580   2.802
 1280SOL     OW 4088   3.108   1.353   2.255
 1280SOL    HW1 4089   3.170   1.426   2.285
 1280SOL    HW2 4090   3.015   1.373   2.285
 1281SOL     OW 4091   3.145   1.459   3.009
 1281SOL    HW1 4092   3.205   1.464   3.089
 1281SOL    HW2 4093   3.089   1.377   3.014
 1282SOL     OW 4094   3.437   0.634   2.345
 1282SOL    HW1 4095   3.392   0.688   2.415
 1282SOL    HW2 4096   3.484   0.695   2.281
 1283SOL     OW 4097   2.211   1.527   3.175
 1283SOL    HW1 4098   2.194   1.483   3.086
 1283SOL    HW2 4099   2.309   1.542   3.186
 1284SOL     OW 4100   2.270   0.755   3.457
 1284SOL    HW1 4101   2.339   0.799   3.400
 1284SOL    HW2 4102   2.290   0.657   3.464
 1285SOL     OW 4103   3.439   0.766   3.512
 1285SOL    HW1 4104   3.366   0.783   3.446
 1285SOL    HW2 4105   3.518   0.823   3.490
 1286SOL     OW 4106   2.877   0.094   3.634
 1286SOL    HW1 4107   2.898   0.190   3.619
 1286SOL    HW2 4108   2.872   0.047   3.546
 1287SOL     OW 4109   2.321   0.025   3.614
 1287SOL    HW1 4110   2.383   0.060   3.545
 1287SOL    HW2 4111   2.254   0.095   3.638
 1288SOL     OW 4112   2.438   0.885   2.894
 1288SOL    HW1 4113   2.472   0.979   2.886
 1288SOL    HW2 4114   2.376   0.878   2.972
 1289SOL     OW 4115   3.221   0.857   2.894
 1289SOL    HW1 4116   3.137   0.857   2.840
 1289SOL    HW2 4117   3.266   0.768   2.886
 1290SOL     OW 4118   3.063   0.535   2.125
 1290SOL    HW1 4119   3.073   0.451   2.177
 1290SOL    HW2 4120   3.016   0.604   2.180
 1291SOL     OW 4121   2.163   0.218   3.098
 1291SOL    HW1 4122   2.126   0.245   3.187
 1291SOL    HW2 4123   2.167   0.118   3.093
 1292SOL     OW 4124   1.915   1.312   3.139
 1292SOL    HW1 4125   1.945   1.251   3.212
 1292SOL    HW2 4126   1.919   1.407   3.172
 1293SOL     OW 4127   2.574   0.657   2.936
 1293SOL    HW1 4128   2.662   0.660   2.890
 1293SOL    HW2 4129   2.525   0.743   2.920
 1294SOL     OW 4130   3.470   0.390   2.248
 1294SOL    HW1 4131   3.429   0.317   2.303
 1294SOL    HW2 4132   3.449   0.478   2.289
 1295SOL     OW 4133   2.873   0.738   2.830
 1295SOL    HW1 4134   2.876   0.783   2.920
 1295SOL    HW2 4135   2.900   0.642   2.840
 1296SOL     OW 4136   2.847   1.563   3.574
 1296SOL    HW1 4137   2.828   1.612   3.489
 1296SOL    HW2 4138   2.892   1.476   3.553
 1297SOL     OW 4139   3.706   1.514   3.462
 1297SOL    HW1 4140   3.725   1.534   3.366
 1297SOL    HW2 4141   3.790   1.522   3.515
 1298SOL     OW 4142   2.216   0.910   3.675
 1298SOL    HW1 4143   2.300   0.940   3.719
 1298SOL    HW2 4144   2.239   0.852   3.596
 1299SOL     OW 4145   3.364   0.279   2.005
 1299SOL    HW1 4146   3.284   0.220   2.013
 1299SOL    HW2 4147   3.383   0.321   2.093
 1300SOL     OW 4148   3.154   0.829   1.892
 1300SOL    HW1 4149   3.193   0.737   1.899
 1300SOL    HW2 4150   3.183   0.871   1.806
 1301SOL     OW 4151   2.932   1.336   2.717
 1301SOL    HW1 4152   2.933   1.259   2.653
 1301SOL    HW2 4153   2.992   1.408   2.682
 1302SOL     OW 4154   2.170   0.808   2.806
 1302SOL    HW1 4155   2.266   0.837   2.800
 1302SOL    HW2 4156   2.167   0.712   2.836
 1303SOL     OW 4157   2.202   0.533   2.870
 1303SOL    HW1 4158   2.152   0.448   2.856
 1303SOL    HW2 4159   2.282   0.536   2.810
 1304SOL     OW 4160   2.992   0.386   3.554
 1304SOL    HW1 4161   2.944   0.444   3.620
 1304SOL    HW2 4162   3.087   0.415   3.547
 1305SOL     OW 4163   3.022   0.232   3.338
 1305SOL    HW1 4164   3.006   0.283   3.422
 1305SOL    HW2 4165   3.049   0.295   3.265
 1306SOL     OW 4166   1.863   1.317   2.056
 1306SOL    HW1 4167   1.772   1.335   2.018
 1306SOL    HW2 4168   1.866   1.224   2.093
 1307SOL     OW 4169   1.955   1.786   2.802
 1307SOL    HW1 4170   1.918   1.704   2.759
 1307SOL    HW2 4171   2.048   1.802   2.771
 1308SOL     OW 4172   2.359   1.575   2.768
 1308SOL    HW1 4173   2.428   1.643   2.794
 1308SOL    HW2 4174   2.399   1.508   2.707
 1309SOL     OW 4175   2.842   0.802   3.091
 1309SOL    HW1 4176   2.903   0.776   3.165
 1309SOL    HW2 4177   2.753   0.759   3.104
 1310SOL     OW 4178   1.893   0.546   2.979
 1310SOL    HW1 4179   1.965   0.511   2.920
 1310SOL    HW2 4180   1.926   0.552   3.073
 1311SOL     OW 4181   2.062   0.537   3.589
 1311SOL    HW1 4182   2.120   0.485   3.526
 1311SOL    HW2 4183   2.018   0.612   3.539
 1312SOL     OW 4184   2.681   0.575   2.218
 1312SOL    HW1 4185   2.690   0.492   2.162
 1312SOL    HW2 4186   2.601   0.627   2.187
 1313SOL     OW 4187   3.503   0.602   3.046
 1313SOL    HW1 4188   3.487   0.542   3.124
 1313SOL    HW2 4189   3.594   0.583   3.008
 1314SOL     OW 4190   2.107   1.550   3.592
 1314SOL    HW1 4191   2.079   1.624   3.654
 1314SOL    HW2 4192   2.107   1.463   3.642
 1315SOL     OW 4193   2.532   0.469   3.136
 1315SOL    HW1 4194   2.505   0.380   3.100
 1315SOL    HW2 4195   2.540   0.534   3.060
 1316SOL     OW 4196   2.790   1.680   3.329
 1316SOL    HW1 4197   2.759   1.638   3.243
 1316SOL    HW2 4198   2.787   1.779   3.320
 1317SOL     OW 4199   2.323   0.504   2.045
 1317SOL    HW1 4200   2.387   0.578   2.070
 1317SOL    HW2 4201   2.232   0.543   2.029
 1318SOL     OW 4202   2.006   1.137   3.337
 1318SOL    HW1 4203   2.007   1.089   3.425
 1318SOL    HW2 4204   2.025   1.072   3.263
 1319SOL     OW 4205   3.181   1.044   3.087
 1319SOL    HW1 4206   3.213   0.977   3.021
 1319SOL    HW2 4207   3.111   1.102   3.045
 1320SOL     OW 4208   3.174   0.854   2.165
 1320SOL    HW1 4209   3.095   0.829   2.221
 1320SOL    HW2 4210   3.151   0.843   2.068
 1321SOL     OW 4211   3.643   1.737   3.018
 1321SOL    HW1 4212   3.700   1.773   2.944
 1321SOL    HW2 4213   3.610   1.646   2.994
 1322SOL     OW 4214   3.105   1.733   2.972
 1322SOL    HW1 4215   3.189   1.760   2.926
 1322SOL    HW2 4216   3.109   1.635   2.993
 1323SOL     OW 4217   1.948   1.264   2.875
 1323SOL    HW1 4218   1.934   1.280   2.973
 1323SOL    HW2 4219   1.870   1.212   2.838
 1324SOL     OW 4220   2.541   1.671   3.592
 1324SOL    HW1 4221   2.480   1.750   3.596
 1324SOL    HW2 4222   2.606   1.683   3.516
 1325SOL     OW 4223   3.557   0.112   2.328
 1325SOL    HW1 4224   3.649   0.117   2.289
 1325SOL    HW2 4225   3.554   0.040   2.397
 1326SOL     OW 4226   3.255   1.570   2.347
 1326SOL    HW1 4227   3.320   1.601   2.277
 1326SOL    HW2 4228   3.202   1.648   2.380
 1327SOL     OW 4229   1.999   1.786   3.703
 1327SOL    HW1 4230   1.940   1.725   3.756
 1327SOL    HW2 4231   2.057   1.840   3.766
 1328SOL     OW 4232   3.144   0.926   2.530
 1328SOL    HW1 4233   3.219   0.861   2.543
 1328SOL    HW2 4234   3.175   1.004   2.476
 1329SOL     OW 4235   2.672   1.277   3.292
 1329SOL    HW1 4236   2.640   1.319   3.377
 1329SOL    HW2 4237   2.606   1.296   3.219
 1330SOL     OW 4238   2.533   1.616   2.016
 1330SOL    HW1 4239   2.546   1.633   1.918
 1330SOL    HW2 4240   2.476   1.535   2.028
 1331SOL     OW 4241   3.479   1.729   3.248
 1331SOL    HW1 4242   3.539   1.731   3.167
 1331SOL    HW2 4243   3.466   1.822   3.282
 1332SOL     OW 4244   3.700   0.192   2.831
 1332SOL    HW1 4245   3.746   0.111   2.794
 1332SOL    HW2 4246   3.608   0.199   2.791
 1333SOL     OW 4247   2.133   0.328   2.581
 1333SOL    HW1 4248   2.042   0.356   2.550
 1333SOL    HW2 4249   2.129   0.301   2.677
 1334SOL     OW 4250   3.067   1.602   1.891
 1334SOL    HW1 4251   3.063   1.509   1.929
 1334SOL    HW2 4252   2.995   1.612   1.822
 1335SOL     OW 4253   2.685   1.011   3.237
 1335SOL    HW1 4254   2.734   0.997   3.151
 1335SOL    HW2 4255   2.684   1.109   3.260
 1336SOL     OW 4256   2.782   0.912   2.150
 1336SOL    HW1 4257   2.844   0.947   2.079
 1336SOL    HW2 4258   2.826   0.838   2.200
 1337SOL     OW 4259   3.351   1.629   1.902
 1337SOL    HW1 4260   3.252   1.618   1.891
 1337SOL    HW2 4261   3.394   1.634   1.812
 1338SOL     OW 4262   2.229   1.301   3.349
 1338SOL    HW1 4263   2.220   1.383   3.292
 1338SOL    HW2 4264   2.149   1.243   3.337
 1339SOL     OW 4265   3.466   1.276   3.146
 1339SOL    HW1 4266   3.559   1.286   3.180
 1339SOL    HW2 4267   3.410   1.354   3.176
 1340SOL     OW 4268   2.917   1.106   2.574
 1340SOL    HW1 4269   2.842   1.055   2.615
 1340SOL    HW2 4270   2.983   1.042   2.534
 1341SOL     OW 4271   2.464   1.485   2.343
 1341SOL    HW1 4272   2.512   1.433   2.272
 1341SOL    HW2 4273   2.396   1.544   2.301
 1342SOL     OW 4274   3.590   0.391   3.241
 1342SOL    HW1 4275   3.661   0.461   3.241
 1342SOL    HW2 4276   3.617   0.316   3.181
 1343SOL     OW 4277   2.115   1.346   2.152
 1343SOL    HW1 4278   2.019   1.343   2.124
 1343SOL    HW2 4279   2.122   1.385   2.244
 1344SOL     OW 4280   1.980   1.025   3.584
 1344SOL    HW1 4281   1.896   1.002   3.634
 1344SOL    HW2 4282   2.059   0.985   3.630
 1345SOL     OW 4283   1.964   0.320   1.851
 1345SOL    HW1 4284   1.882   0.334   1.907
 1345SOL    HW2 4285   1.981   0.403   1.798
 1346SOL     OW 4286   3.296   0.848   3.268
 1346SOL    HW1 4287   3.233   0.912   3.224
 1346SOL    HW2 4288   3.386   0.855   3.227
 1347SOL     OW 4289   1.947   0.155   2.201
 1347SOL    HW1 4290   1.907   0.218   2.135
 1347SOL    HW2 4291   2.034   0.121   2.167
 1348SOL     OW 4292   3.043   1.340   1.983
 1348SOL    HW1 4293   2.949   1.308   1.977
 1348SOL    HW2 4294   3.073   1.341   2.079
 1349SOL     OW 4295   2.482   0.834   3.295
 1349SOL    HW1 4296   2.530   0.920   3.283
 1349SOL    HW2 4297   2.548   0.758   3.297
 1350SOL     OW 4298   3.347   1.782   2.844
 1350SOL    HW1 4299   3.366   1.844   2.768
 1350SOL    HW2 4300   3.433   1.753   2.886
 1351SOL     OW 4301   2.238   1.737   3.427
 1351SOL    HW1 4302   2.152   1.787   3.413
 1351SOL    HW2 4303   2.218   1.650   3.473
 1352SOL     OW 4304   3.525   0.878   3.116
 1352SOL    HW1 4305   3.523   0.787   3.074
 1352SOL    HW2 4306   3.517   0.948   3.045
 1353SOL     OW 4307   3.090   0.334   2.307
 1353SOL    HW1 4308   3.159   0.262   2.299
 1353SOL    HW2 4309   3.106   0.386   2.391
 1354SOL     OW 4310   2.449   0.739   2.533
 1354SOL    HW1 4311   2.491   0.828   2.520
 1354SOL    HW2 4312   2.378   0.724   2.464
 1355SOL     OW 4313   3.605   0.376   3.517
 1355SOL    HW1 4314   3.603   0.388   3.417
 1355SOL    HW2 4315   3.537   0.307   3.543
 1356SOL     OW 4316   3.630   0.921   3.362
 1356SOL    HW1 4317   3.672   1.012   3.369
 1356SOL    HW2 4318   3.595   0.908   3.269
 1357SOL     OW 4319   2.721   1.367   1.897
 1357SOL    HW1 4320   2.684   1.387   1.988
 1357SOL    HW2 4321   2.742   1.453   1.850
 1358SOL     OW 4322   2.525   1.789   2.807
 1358SOL    HW1 4323   2.499   1.883   2.784
 1358SOL    HW2 4324   2.624   1.778   2.796
 1359SOL     OW 4325   2.730   0.967   2.720
 1359SOL    HW1 4326   2.775   0.887   2.758
 1359SOL    HW2 4327   2.690   1.021   2.794
 1360SOL     OW 4328   2.942   0.991   1.947
 1360SOL    HW1 4329   2.913   1.042   1.867
 1360SOL    HW2 4330   3.019   0.933   1.924
 1361SOL     OW 4331   3.715   1.559   2.705
 1361SOL    HW1 4332   3.637   1.545   2.645
 1361SOL    HW2 4333   3.715   1.488   2.776
 1362SOL     OW 4334   2.091   1.300   3.718
 1362SOL    HW1 4335   2.023   1.238   3.679
 1362SOL    HW2 4336   2.067   1.320   3.813
 1363SOL     OW 4337   1.946   1.232   2.526
 1363SOL    HW1 4338   1.947   1.184   2.614
 1363SOL    HW2 4339   2.016   1.193   2.466
 1364SOL     OW 4340   2.540   1.407   3.490
 1364SOL    HW1 4341   2.459   1.357   3.521
 1364SOL    HW2 4342   2.539   1.500   3.528
 1365SOL     OW 4343   3.668   0.181   3.101
 1365SOL    HW1 4344   3.676   0.082   3.113
 1365SOL    HW2 4345   3.697   0.206   3.009
 1366SOL     OW 4346   2.296   0.434   2.388
 1366SOL    HW1 4347   2.331   0.364   2.325
 1366SOL    HW2 4348   2.244   0.390   2.460
 1367SOL     OW 4349   3.556   1.490   2.959
 1367SOL    HW1 4350   3.475   1.467   2.906
 1367SOL    HW2 4351   3.578   1.416   3.022
 1368SOL     OW 4352   2.187   0.563   3.141
 1368SOL    HW1 4353   2.241   0.503   3.200
 1368SOL    HW2 4354   2.203   0.541   3.045
 1369SOL     OW 4355   2.690   1.579   2.541
 1369SOL    HW1 4356   2.681   1.642   2.463
 1369SOL    HW2 4357   2.611   1.518   2.544
 1370SOL     OW 4358   3.322   0.254   2.977
 1370SOL    HW1 4359   3.349   0.164   3.011
 1370SOL    HW2 4360   3.259   0.297   3.042
 1371SOL     OW 4361   2.889   3.993   3.027
 1371SOL    HW1 4362   2.799   3.980   2.986
 1371SOL    HW2 4363   2.941   3.908   3.024
 1372SOL     OW 4364   2.637   1.331   2.176
 1372SOL    HW1 4365   2.605   1.237   2.185
 1372SOL    HW2 4366   2.720   1.343   2.230
 1373SOL     OW 4367   2.485   1.559   3.151
 1373SOL    HW1 4368   2.484   1.645   3.202
 1373SOL    HW2 4369   2.575   1.547   3.109
 1374SOL     OW 4370   3.177   0.075   2.033
 1374SOL    HW1 4371   3.202   0.014   1.958
 1374SOL    HW2 4372   3.083   0.055   2.062
 1375SOL     OW 4373   3.144   0.460   2.547
 1375SOL    HW1 4374   3.093   0.546   2.542
 1375SOL    HW2 4375   3.155   0.433   2.642
 1376SOL     OW 4376   3.450   0.224   2.731
 1376SOL    HW1 4377   3.402   0.242   2.817
 1376SOL    HW2 4378   3.452   0.307   2.676
 1377SOL     OW 4379   1.907   1.068   2.166
 1377SOL    HW1 4380   2.005   1.067   2.148
 1377SOL    HW2 4381   1.876   0.976   2.193
 1378SOL     OW 4382   2.745   1.657   2.202
 1378SOL    HW1 4383   2.671   1.635   2.138
 1378SOL    HW2 4384   2.718   1.733   2.260
 1379SOL     OW 4385   2.064   0.614   3.856
 1379SOL    HW1 4386   1.966   0.624   3.872
 1379SOL    HW2 4387   2.080   0.600   3.758
 1380SOL     OW 4388   3.647   0.603   3.940
 1380SOL    HW1 4389   3.609   0.610   3.848
 1380SOL    HW2 4390   3.643   0.508   3.970
 1381SOL     OW 4391   2.103   1.756   0.222
 1381SOL    HW1 4392   2.199   1.765   0.249
 1381SOL    HW2 4393   2.099   1.720   0.128
 1382SOL     OW 4394   2.451   0.977   3.845
 1382SOL    HW1 4395   2.498   1.036   3.780
 1382SOL    HW2 4396   2.496   0.984   3.934
 1383SOL     OW 4397   1.880   1.594   3.846
 1383SOL    HW1 4398   1.869   1.495   3.837
 1383SOL    HW2 4399   1.869   1.621   3.941
 1384SOL     OW 4400   2.455   0.727   3.972
 1384SOL    HW1 4401   2.457   0.803   3.907
 1384SOL    HW2 4402   2.415   0.757   0.059
 1385SOL     OW 4403   2.736   0.340   3.886
 1385SOL    HW1 4404   2.794   0.409   3.843
 1385SOL    HW2 4405   2.792   0.263   3.915
 1386SOL     OW 4406   2.179   0.942   3.961
 1386SOL    HW1 4407   2.268   0.978   3.930
 1386SOL    HW2 4408   2.145   0.875   3.895
 1387SOL     OW 4409   2.964   1.834   3.924
 1387SOL    HW1 4410   2.911   1.809   0.004
 1387SOL    HW2 4411   2.973   1.755   3.863
 1388SOL     OW 4412   2.309   1.755   0.008
 1388SOL    HW1 4413   2.348   1.795   0.091
 1388SOL    HW2 4414   2.382   1.712   3.955
 1389SOL     OW 4415   2.515   0.112   3.845
 1389SOL    HW1 4416   2.592   0.160   3.803
 1389SOL    HW2 4417   2.452   0.080   3.774
 1390SOL     OW 4418   2.187   0.014   3.916
 1390SOL    HW1 4419   2.228   0.104   3.900
 1390SOL    HW2 4420   2.198   3.989   0.012
 1391SOL     OW 4421   2.883   0.556   3.736
 1391SOL    HW1 4422   2.828   0.636   3.710
 1391SOL    HW2 4423   2.923   0.570   3.826
 1392SOL     OW 4424   3.727   0.824   0.088
 1392SOL    HW1 4425   3.808   0.773   0.118
 1392SOL    HW2 4426   3.673   0.767   0.026
 1393SOL     OW 4427   2.346   1.403   3.883
 1393SOL    HW1 4428   2.253   1.395   3.920
 1393SOL    HW2 4429   2.346   1.377   3.787
 1394SOL     OW 4430   3.259   0.576   3.791
 1394SOL    HW1 4431   3.223   0.556   3.882
 1394SOL    HW2 4432   3.359   0.569   3.792
 1395SOL     OW 4433   3.435   0.683   0.177
 1395SOL    HW1 4434   3.399   0.678   0.270
 1395SOL    HW2 4435   3.450   0.779   0.153
 1396SOL     OW 4436   3.372   0.273   3.853
 1396SOL    HW1 4437   3.294   0.211   3.848
 1396SOL    HW2 4438   3.378   0.313   3.945
 1397SOL     OW 4439   3.151   0.830   3.754
 1397SOL    HW1 4440   3.183   0.737   3.772
 1397SOL    HW2 4441   3.185   0.860   3.664
 1398SOL     OW 4442   1.867   1.314   3.895
 1398SOL    HW1 4443   1.773   1.332   3.867
 1398SOL    HW2 4444   1.872   1.225   3.940
 1399SOL     OW 4445   2.664   0.562   0.042
 1399SOL    HW1 4446   2.653   0.480   3.984
 1399SOL    HW2 4447   2.588   0.625   0.025
 1400SOL     OW 4448   2.328   0.527   3.843
 1400SOL    HW1 4449   2.391   0.585   3.894
 1400SOL    HW2 4450   2.234   0.554   3.861
 1401SOL     OW 4451   3.573   0.102   0.197
 1401SOL    HW1 4452   3.660   0.103   0.148
 1401SOL    HW2 4453   3.570   0.024   0.259
 1402SOL     OW 4454   2.523   1.609   3.882
 1402SOL    HW1 4455   2.544   1.632   3.787
 1402SOL    HW2 4456   2.465   1.528   3.884
 1403SOL     OW 4457   3.049   1.609   3.770
 1403SOL    HW1 4458   3.046   1.511   3.788
 1403SOL    HW2 4459   2.995   1.629   3.688
 1404SOL     OW 4460   3.343   1.640   3.766
 1404SOL    HW1 4461   3.246   1.621   3.747
 1404SOL    HW2 4462   3.395   1.634   3.681
 1405SOL     OW 4463   2.108   1.369   0.005
 1405SOL    HW1 4464   2.011   1.360   3.981
 1405SOL    HW2 4465   2.117   1.376   0.105
 1406SOL     OW 4466   1.944   0.340   3.732
 1406SOL    HW1 4467   1.856   0.319   3.688
 1406SOL    HW2 4468   1.979   0.427   3.697
 1407SOL     OW 4469   1.967   0.180   0.057
 1407SOL    HW1 4470   1.916   0.240   3.996
 1407SOL    HW2 4471   2.026   0.119   0.004
 1408SOL     OW 4472   3.026   1.349   3.836
 1408SOL    HW1 4473   2.934   1.309   3.830
 1408SOL    HW2 4474   3.068   1.324   3.924
 1409SOL     OW 4475   2.725   1.361   3.740
 1409SOL    HW1 4476   2.713   1.373   3.838
 1409SOL    HW2 4477   2.743   1.450   3.697
 1410SOL     OW 4478   2.931   0.994   3.810
 1410SOL    HW1 4479   2.911   1.044   3.726
 1410SOL    HW2 4480   3.009   0.934   3.796
 1411SOL     OW 4481   3.174   0.083   3.862
 1411SOL    HW1 4482   3.243   0.012   3.844
 1411SOL    HW2 4483   3.088   0.039   3.887
 1412SOL     OW 4484   1.925   1.072   0.008
 1412SOL    HW1 4485   2.021   1.046   3.996
 1412SOL    HW2 4486   1.874   0.995   0.048
 1413SOL     OW 4487   2.075   2.510   0.134
 1413SOL    HW1 4488   2.001   2.455   0.173
 1413SOL    HW2 4489   2.085   2.490   0.037
 1414SOL     OW 4490   2.081   2.151   0.998
 1414SOL    HW1 4491   2.115   2.116   1.085
 1414SOL    HW2 4492   1.990   2.114   0.979
 1415SOL     OW 4493   1.869   2.246   0.633
 1415SOL    HW1 4494   1.783   2.274   0.675
 1415SOL    HW2 4495   1.856   2.159   0.584
 1416SOL     OW 4496   2.430   3.153   1.179
 1416SOL    HW1 4497   2.339   3.149   1.138
 1416SOL    HW2 4498   2.447   3.245   1.214
 1417SOL     OW 4499   3.435   3.373   0.710
 1417SOL    HW1 4500   3.382   3.351   0.792
 1417SOL    HW2 4501   3.373   3.396   0.635
 1418SOL     OW 4502   3.668   2.437   0.240
 1418SOL    HW1 4503   3.640   2.443   0.145
 1418SOL    HW2 4504   3.611   2.369   0.287
 1419SOL     OW 4505   2.611   3.004   1.035
 1419SOL    HW1 4506   2.542   3.036   1.099
 1419SOL    HW2 4507   2.656   3.082   0.992
 1420SOL     OW 4508   2.731   2.633   1.819
 1420SOL    HW1 4509   2.715   2.701   1.890
 1420SOL    HW2 4510   2.755   2.679   1.734
 1421SOL     OW 4511   2.561   2.903   0.644
 1421SOL    HW1 4512   2.623   2.870   0.715
 1421SOL    HW2 4513   2.479   2.942   0.686
 1422SOL     OW 4514   2.573   3.016   1.814
 1422SOL    HW1 4515   2.625   3.096   1.845
 1422SOL    HW2 4516   2.486   3.046   1.774
 1423SOL     OW 4517   2.187   3.290   1.066
 1423SOL    HW1 4518   2.112   3.245   1.017
 1423SOL    HW2 4519   2.242   3.343   1.002
 1424SOL     OW 4520   3.329   3.367   1.335
 1424SOL    HW1 4521   3.376   3.452   1.360
 1424SOL    HW2 4522   3.291   3.325   1.417
 1425SOL     OW 4523   2.305   2.263   1.491
 1425SOL    HW1 4524   2.387   2.205   1.489
 1425SOL    HW2 4525   2.224   2.205   1.502
 1426SOL     OW 4526   2.082   3.568   0.490
 1426SOL    HW1 4527   2.110   3.622   0.570
 1426SOL    HW2 4528   2.162   3.550   0.432
 1427SOL     OW 4529   2.999   3.201   1.698
 1427SOL    HW1 4530   3.044   3.200   1.787
 1427SOL    HW2 4531   2.943   3.119   1.688
 1428SOL     OW 4532   2.136   2.955   0.907
 1428SOL    HW1 4533   2.123   2.860   0.937
 1428SOL    HW2 4534   2.066   3.013   0.948
 1429SOL     OW 4535   2.464   3.654   1.425
 1429SOL    HW1 4536   2.381   3.633   1.477
 1429SOL    HW2 4537   2.499   3.743   1.452
 1430SOL     OW 4538   2.454   2.854   0.140
 1430SOL    HW1 4539   2.443   2.936   0.084
 1430SOL    HW2 4540   2.501   2.878   0.224
 1431SOL     OW 4541   3.448   1.989   1.468
 1431SOL    HW1 4542   3.467   2.068   1.409
 1431SOL    HW2 4543   3.450   2.017   1.564
 1432SOL     OW 4544   1.971   2.518   0.562
 1432SOL    HW1 4545   1.952   2.421   0.581
 1432SOL    HW2 4546   1.970   2.569   0.647
 1433SOL     OW 4547   3.724   3.616   0.321
 1433SOL    HW1 4548   3.693   3.606   0.416
 1433SOL    HW2 4549   3.766   3.706   0.309
 1434SOL     OW 4550   1.845   3.461   0.116
 1434SOL    HW1 4551   1.856   3.369   0.155
 1434SOL    HW2 4552   1.902   3.526   0.168
 1435SOL     OW 4553   3.551   2.782   0.651
 1435SOL    HW1 4554   3.631   2.722   0.643
 1435SOL    HW2 4555   3.537   2.832   0.566
 1436SOL     OW 4556   3.503   2.965   0.433
 1436SOL    HW1 4557   3.591   2.967   0.384
 1436SOL    HW2 4558   3.505   3.031   0.508
 1437SOL     OW 4559   1.986   2.604   1.586
 1437SOL    HW1 4560   2.084   2.624   1.590
 1437SOL    HW2 4561   1.934   2.690   1.592
 1438SOL     OW 4562   2.473   3.250   0.734
 1438SOL    HW1 4563   2.427   3.162   0.745
 1438SOL    HW2 4564   2.462   3.282   0.640
 1439SOL     OW 4565   3.154   3.102   1.423
 1439SOL    HW1 4566   3.180   3.031   1.357
 1439SOL    HW2 4567   3.211   3.093   1.505
 1440SOL     OW 4568   2.674   1.916   0.552
 1440SOL    HW1 4569   2.729   1.989   0.513
 1440SOL    HW2 4570   2.577   1.940   0.544
 1441SOL     OW 4571   2.054   2.826   1.271
 1441SOL    HW1 4572   2.143   2.783   1.258
 1441SOL    HW2 4573   1.983   2.771   1.226
 1442SOL     OW 4574   3.387   2.859   0.199
 1442SOL    HW1 4575   3.308   2.800   0.218
 1442SOL    HW2 4576   3.426   2.891   0.286
 1443SOL     OW 4577   3.073   3.668   1.624
 1443SOL    HW1 4578   3.055   3.734   1.552
 1443SOL    HW2 4579   3.076   3.576   1.585
 1444SOL     OW 4580   2.205   2.112   1.830
 1444SOL    HW1 4581   2.251   2.200   1.840
 1444SOL    HW2 4582   2.107   2.124   1.848
 1445SOL     OW 4583   3.305   3.290   0.932
 1445SOL    HW1 4584   3.254   3.304   1.017
 1445SOL    HW2 4585   3.307   3.193   0.910
 1446SOL     OW 4586   2.454   2.588   0.269
 1446SOL    HW1 4587   2.484   2.679   0.238
 1446SOL    HW2 4588   2.387   2.599   0.342
 1447SOL     OW 4589   3.153   2.193   0.919
 1447SOL    HW1 4590   3.055   2.173   0.927
 1447SOL    HW2 4591   3.202   2.150   0.994
 1448SOL     OW 4592   3.441   3.551   0.297
 1448SOL    HW1 4593   3.537   3.533   0.316
 1448SOL    HW2 4594   3.420   3.522   0.204
 1449SOL     OW 4595   2.656   2.473   1.452
 1449SOL    HW1 4596   2.627   2.453   1.545
 1449SOL    HW2 4597   2.614   2.408   1.389
 1450SOL     OW 4598   3.252   2.327   1.679
 1450SOL    HW1 4599   3.250   2.378   1.765
 1450SOL    HW2 4600   3.320   2.254   1.686
 1451SOL     OW 4601   2.815   2.750   1.582
 1451SOL    HW1 4602   2.873   2.677   1.545
 1451SOL    HW2 4603   2.762   2.790   1.507
 1452SOL     OW 4604   1.949   2.689   0.778
 1452SOL    HW1 4605   2.035   2.674   0.827
 1452SOL    HW2 4606   1.906   2.772   0.812
 1453SOL     OW 4607   1.987   3.717   1.583
 1453SOL    HW1 4608   1.990   3.690   1.679
 1453SOL    HW2 4609   1.894   3.704   1.547
 1454SOL     OW 4610   2.749   2.211   0.211
 1454SOL    HW1 4611   2.741   2.277   0.136
 1454SOL    HW2 4612   2.754   2.118   0.174
 1455SOL     OW 4613   3.573   2.439   1.826
 1455SOL    HW1 4614   3.533   2.518   1.778
 1455SOL    HW2 4615   3.596   2.368   1.759
 1456SOL     OW 4616   3.241   3.002   0.536
 1456SOL    HW1 4617   3.328   2.986   0.488
 1456SOL    HW2 4618   3.186   3.068   0.484
 1457SOL     OW 4619   2.414   2.039   0.889
 1457SOL    HW1 4620   2.413   2.071   0.984
 1457SOL    HW2 4621   2.452   2.110   0.830
 1458SOL     OW 4622   2.866   3.323   0.469
 1458SOL    HW1 4623   2.813   3.405   0.448
 1458SOL    HW2 4624   2.870   3.310   0.568
 1459SOL     OW 4625   2.215   3.675   0.840
 1459SOL    HW1 4626   2.264   3.590   0.859
 1459SOL    HW2 4627   2.274   3.753   0.863
 1460SOL     OW 4628   3.651   2.931   0.869
 1460SOL    HW1 4629   3.610   2.896   0.784
 1460SOL    HW2 4630   3.582   2.931   0.941
 1461SOL     OW 4631   3.080   3.404   1.518
 1461SOL    HW1 4632   3.072   3.325   1.579
 1461SOL    HW2 4633   3.031   3.386   1.433
 1462SOL     OW 4634   2.152   2.810   0.189
 1462SOL    HW1 4635   2.247   2.840   0.200
 1462SOL    HW2 4636   2.147   2.711   0.200
 1463SOL     OW 4637   3.332   2.597   0.728
 1463SOL    HW1 4638   3.335   2.548   0.815
 1463SOL    HW2 4639   3.412   2.656   0.719
 1464SOL     OW 4640   2.330   3.125   1.731
 1464SOL    HW1 4641   2.303   3.132   1.635
 1464SOL    HW2 4642   2.248   3.123   1.789
 1465SOL     OW 4643   2.979   3.620   0.217
 1465SOL    HW1 4644   2.940   3.578   0.298
 1465SOL    HW2 4645   3.026   3.551   0.162
 1466SOL     OW 4646   2.061   2.142   1.501
 1466SOL    HW1 4647   1.977   2.195   1.493
 1466SOL    HW2 4648   2.041   2.053   1.543
 1467SOL     OW 4649   3.461   3.248   0.150
 1467SOL    HW1 4650   3.433   3.336   0.111
 1467SOL    HW2 4651   3.404   3.175   0.112
 1468SOL     OW 4652   2.335   3.575   0.351
 1468SOL    HW1 4653   2.359   3.657   0.403
 1468SOL    HW2 4654   2.393   3.569   0.270
 1469SOL     OW 4655   3.269   1.969   0.428
 1469SOL    HW1 4656   3.254   1.945   0.332
 1469SOL    HW2 4657   3.367   1.980   0.446
 1470SOL     OW 4658   2.120   3.655   1.223
 1470SOL    HW1 4659   2.172   3.587   1.275
 1470SOL    HW2 4660   2.103   3.621   1.130
 1471SOL     OW 4661   2.799   3.565   0.900
 1471SOL    HW1 4662   2.881   3.515   0.927
 1471SOL    HW2 4663   2.752   3.514   0.827
 1472SOL     OW 4664   2.245   2.553   0.460
 1472SOL    HW1 4665   2.273   2.459   0.476
 1472SOL    HW2 4666   2.150   2.565   0.487
 1473SOL     OW 4667   3.401   2.085   1.730
 1473SOL    HW1 4668   3.411   2.109   1.827
 1473SOL    HW2 4669   3.331   2.015   1.720
 1474SOL     OW 4670   2.491   1.959   0.123
 1474SOL    HW1 4671   2.586   1.933   0.133
 1474SOL    HW2 4672   2.473   1.983   0.027
 1475SOL     OW 4673   2.626   2.136   1.752
 1475SOL    HW1 4674   2.708   2.079   1.753
 1475SOL    HW2 4675   2.579   2.128   1.840
 1476SOL     OW 4676   2.737   3.376   1.193
 1476SOL    HW1 4677   2.720   3.342   1.101
 1476SOL    HW2 4678   2.812   3.324   1.234
 1477SOL     OW 4679   3.196   2.458   1.440
 1477SOL    HW1 4680   3.232   2.419   1.524
 1477SOL    HW2 4681   3.236   2.549   1.426
 1478SOL     OW 4682   2.679   3.257   0.938
 1478SOL    HW1 4683   2.768   3.242   0.896
 1478SOL    HW2 4684   2.608   3.251   0.867
 1479SOL     OW 4685   2.816   2.362   0.922
 1479SOL    HW1 4686   2.759   2.354   0.840
 1479SOL    HW2 4687   2.844   2.270   0.952
 1480SOL     OW 4688   3.295   3.062   0.050
 1480SOL    HW1 4689   3.325   2.983   0.104
 1480SOL    HW2 4690   3.203   3.089   0.078
 1481SOL     OW 4691   2.824   2.109   0.455
 1481SOL    HW1 4692   2.782   2.158   0.378
 1481SOL    HW2 4693   2.920   2.134   0.461
 1482SOL     OW 4694   2.940   2.547   1.459
 1482SOL    HW1 4695   2.866   2.480   1.464
 1482SOL    HW2 4696   3.028   2.499   1.455
 1483SOL     OW 4697   3.078   3.429   0.794
 1483SOL    HW1 4698   3.101   3.502   0.729
 1483SOL    HW2 4699   3.156   3.413   0.855
 1484SOL     OW 4700   2.327   3.012   0.727
 1484SOL    HW1 4701   2.263   2.991   0.802
 1484SOL    HW2 4702   2.283   2.990   0.640
 1485SOL     OW 4703   3.125   3.651   0.606
 1485SOL    HW1 4704   3.181   3.712   0.549
 1485SOL    HW2 4705   3.056   3.705   0.655
 1486SOL     OW 4706   2.940   2.448   0.002
 1486SOL    HW1 4707   2.841   2.461   0.006
 1486SOL    HW2 4708   2.976   2.430   0.093
 1487SOL     OW 4709   1.945   2.421   1.388
 1487SOL    HW1 4710   2.040   2.413   1.357
 1487SOL    HW2 4711   1.939   2.490   1.459
 1488SOL     OW 4712   2.421   2.087   1.161
 1488SOL    HW1 4713   2.469   2.006   1.196
 1488SOL    HW2 4714   2.327   2.087   1.196
 1489SOL     OW 4715   2.883   1.903   0.739
 1489SOL    HW1 4716   2.812   1.915   0.669
 1489SOL    HW2 4717   2.857   1.828   0.800
 1490SOL     OW 4718   3.297   3.033   0.843
 1490SOL    HW1 4719   3.236   2.954   0.855
 1490SOL    HW2 4720   3.323   3.040   0.746
 1491SOL     OW 4721   3.321   2.461   0.974
 1491SOL    HW1 4722   3.263   2.380   0.979
 1491SOL    HW2 4723   3.389   2.458   1.047
 1492SOL     OW 4724   3.725   2.672   0.400
 1492SOL    HW1 4725   3.740   2.612   0.479
 1492SOL    HW2 4726   3.694   2.617   0.322
 1493SOL     OW 4727   2.361   3.281   0.185
 1493SOL    HW1 4728   2.331   3.193   0.223
 1493SOL    HW2 4729   2.356   3.277   0.085
 1494SOL     OW 4730   3.531   3.130   0.640
 1494SOL    HW1 4731   3.631   3.131   0.644
 1494SOL    HW2 4732   3.495   3.220   0.664
 1495SOL     OW 4733   2.384   2.119   0.320
 1495SOL    HW1 4734   2.422   2.059   0.250
 1495SOL    HW2 4735   2.363   2.208   0.279
 1496SOL     OW 4736   3.611   3.095   1.595
 1496SOL    HW1 4737   3.702   3.057   1.608
 1496SOL    HW2 4738   3.616   3.194   1.593
 1497SOL     OW 4739   2.918   3.212   1.336
 1497SOL    HW1 4740   2.838   3.183   1.388
 1497SOL    HW2 4741   3.000   3.173   1.377
 1498SOL     OW 4742   3.482   3.462   1.612
 1498SOL    HW1 4743   3.483   3.514   1.526
 1498SOL    HW2 4744   3.571   3.470   1.657
 1499SOL     OW 4745   2.994   3.074   1.108
 1499SOL    HW1 4746   2.937   3.113   1.181
 1499SOL    HW2 4747   2.958   3.102   1.019
 1500SOL     OW 4748   2.752   1.948   1.394
 1500SOL    HW1 4749   2.787   1.930   1.302
 1500SOL    HW2 4750   2.812   2.015   1.439
 1501SOL     OW 4751   2.842   2.976   1.722
 1501SOL    HW1 4752   2.747   2.996   1.747
 1501SOL    HW2 4753   2.845   2.895   1.664
 1502SOL     OW 4754   2.572   2.922   0.373
 1502SOL    HW1 4755   2.564   2.919   0.473
 1502SOL    HW2 4756   2.652   2.869   0.345
 1503SOL     OW 4757   2.282   2.674   1.253
 1503SOL    HW1 4758   2.356   2.688   1.320
 1503SOL    HW2 4759   2.244   2.583   1.264
 1504SOL     OW 4760   1.935   3.433   1.350
 1504SOL    HW1 4761   1.902   3.508   1.292
 1504SOL    HW2 4762   2.035   3.432   1.348
 1505SOL     OW 4763   3.117   3.216   0.393
 1505SOL    HW1 4764   3.179   3.288   0.423
 1505SOL    HW2 4765   3.026   3.232   0.432
 1506SOL     OW 4766   3.142   3.324   1.147
 1506SOL    HW1 4767   3.208   3.332   1.221
 1506SOL    HW2 4768   3.093   3.237   1.154
 1507SOL     OW 4769   2.210   3.389   1.313
 1507SOL    HW1 4770   2.194   3.346   1.224
 1507SOL    HW2 4771   2.308   3.404   1.325
 1508SOL     OW 4772   2.274   2.606   1.598
 1508SOL    HW1 4773   2.341   2.653   1.540
 1508SOL    HW2 4774   2.307   2.514   1.621
 1509SOL     OW 4775   3.469   2.646   1.680
 1509SOL    HW1 4776   3.378   2.687   1.678
 1509SOL    HW2 4777   3.526   2.687   1.609
 1510SOL     OW 4778   2.861   1.991   1.742
 1510SOL    HW1 4779   2.918   2.072   1.729
 1510SOL    HW2 4780   2.912   1.910   1.715
 1511SOL     OW 4781   2.346   1.894   1.745
 1511SOL    HW1 4782   2.281   1.832   1.701
 1511SOL    HW2 4783   2.302   1.981   1.764
 1512SOL     OW 4784   2.437   2.726   1.027
 1512SOL    HW1 4785   2.479   2.817   1.022
 1512SOL    HW2 4786   2.384   2.720   1.112
 1513SOL     OW 4787   3.223   2.717   1.032
 1513SOL    HW1 4788   3.141   2.726   0.975
 1513SOL    HW2 4789   3.261   2.625   1.021
 1514SOL     OW 4790   2.164   2.065   1.246
 1514SOL    HW1 4791   2.123   2.099   1.331
 1514SOL    HW2 4792   2.149   1.967   1.238
 1515SOL     OW 4793   1.906   3.171   1.276
 1515SOL    HW1 4794   1.943   3.111   1.347
 1515SOL    HW2 4795   1.916   3.266   1.306
 1516SOL     OW 4796   2.600   2.503   1.079
 1516SOL    HW1 4797   2.672   2.477   1.015
 1516SOL    HW2 4798   2.555   2.586   1.046
 1517SOL     OW 4799   3.588   2.825   1.858
 1517SOL    HW1 4800   3.549   2.758   1.795
 1517SOL    HW2 4801   3.525   2.839   1.935
 1518SOL     OW 4802   2.170   1.921   0.620
 1518SOL    HW1 4803   2.159   2.019   0.632
 1518SOL    HW2 4804   2.179   1.877   0.709
 1519SOL     OW 4805   3.495   2.243   0.364
 1519SOL    HW1 4806   3.519   2.158   0.411
 1519SOL    HW2 4807   3.426   2.292   0.417
 1520SOL     OW 4808   2.881   2.627   0.964
 1520SOL    HW1 4809   2.881   2.645   1.063
 1520SOL    HW2 4810   2.874   2.529   0.948
 1521SOL     OW 4811   2.841   3.424   1.714
 1521SOL    HW1 4812   2.825   3.471   1.628
 1521SOL    HW2 4813   2.892   3.339   1.696
 1522SOL     OW 4814   2.215   2.782   1.801
 1522SOL    HW1 4815   2.295   2.801   1.859
 1522SOL    HW2 4816   2.240   2.715   1.731
 1523SOL     OW 4817   3.381   2.180   0.122
 1523SOL    HW1 4818   3.355   2.084   0.132
 1523SOL    HW2 4819   3.423   2.213   0.206
 1524SOL     OW 4820   3.175   2.702   0.040
 1524SOL    HW1 4821   3.233   2.627   0.071
 1524SOL    HW2 4822   3.155   2.690   3.943
 1525SOL     OW 4823   2.924   3.197   0.849
 1525SOL    HW1 4824   2.931   3.117   0.789
 1525SOL    HW2 4825   2.991   3.265   0.822
 1526SOL     OW 4826   2.170   2.667   0.943
 1526SOL    HW1 4827   2.264   2.700   0.943
 1526SOL    HW2 4828   2.167   2.574   0.981
 1527SOL     OW 4829   2.212   2.383   1.002
 1527SOL    HW1 4830   2.163   2.295   0.999
 1527SOL    HW2 4831   2.277   2.387   0.926
 1528SOL     OW 4832   2.993   2.229   1.685
 1528SOL    HW1 4833   2.942   2.289   1.746
 1528SOL    HW2 4834   3.087   2.263   1.675
 1529SOL     OW 4835   1.864   3.197   0.215
 1529SOL    HW1 4836   1.770   3.209   0.182
 1529SOL    HW2 4837   1.881   3.099   0.231
 1530SOL     OW 4838   1.960   3.643   0.936
 1530SOL    HW1 4839   1.925   3.560   0.894
 1530SOL    HW2 4840   2.050   3.664   0.898
 1531SOL     OW 4841   2.356   3.439   0.905
 1531SOL    HW1 4842   2.425   3.506   0.932
 1531SOL    HW2 4843   2.399   3.369   0.847
 1532SOL     OW 4844   2.839   2.659   1.230
 1532SOL    HW1 4845   2.895   2.634   1.309
 1532SOL    HW2 4846   2.752   2.610   1.234
 1533SOL     OW 4847   1.897   2.417   1.115
 1533SOL    HW1 4848   1.973   2.380   1.061
 1533SOL    HW2 4849   1.923   2.418   1.212
 1534SOL     OW 4850   2.052   2.380   1.728
 1534SOL    HW1 4851   2.101   2.325   1.662
 1534SOL    HW2 4852   2.012   2.460   1.682
 1535SOL     OW 4853   3.241   2.800   1.658
 1535SOL    HW1 4854   3.262   2.898   1.660
 1535SOL    HW2 4855   3.236   2.769   1.563
 1536SOL     OW 4856   2.687   2.445   0.358
 1536SOL    HW1 4857   2.696   2.358   0.310
 1536SOL    HW2 4858   2.605   2.493   0.325
 1537SOL     OW 4859   3.502   2.454   1.175
 1537SOL    HW1 4860   3.484   2.395   1.254
 1537SOL    HW2 4861   3.593   2.435   1.140
 1538SOL     OW 4862   2.103   3.410   1.727
 1538SOL    HW1 4863   2.083   3.484   1.791
 1538SOL    HW2 4864   2.108   3.323   1.777
 1539SOL     OW 4865   2.542   2.317   1.265
 1539SOL    HW1 4866   2.501   2.235   1.225
 1539SOL    HW2 4867   2.560   2.383   1.193
 1540SOL     OW 4868   2.779   3.540   1.472
 1540SOL    HW1 4869   2.761   3.494   1.385
 1540SOL    HW2 4870   2.781   3.639   1.457
 1541SOL     OW 4871   2.322   2.358   0.204
 1541SOL    HW1 4872   2.389   2.430   0.223
 1541SOL    HW2 4873   2.232   2.399   0.191
 1542SOL     OW 4874   2.006   2.998   1.472
 1542SOL    HW1 4875   2.010   2.952   1.560
 1542SOL    HW2 4876   2.027   2.933   1.399
 1543SOL     OW 4877   3.180   2.907   1.223
 1543SOL    HW1 4878   3.211   2.840   1.155
 1543SOL    HW2 4879   3.111   2.966   1.183
 1544SOL     OW 4880   3.601   3.601   1.133
 1544SOL    HW1 4881   3.681   3.630   1.081
 1544SOL    HW2 4882   3.591   3.502   1.126
 1545SOL     OW 4883   3.106   3.597   1.109
 1545SOL    HW1 4884   3.192   3.622   1.064
 1545SOL    HW2 4885   3.108   3.500   1.132
 1546SOL     OW 4886   1.944   3.130   1.008
 1546SOL    HW1 4887   1.928   3.140   1.106
 1546SOL    HW2 4888   1.877   3.065   0.970
 1547SOL     OW 4889   2.542   3.529   1.729
 1547SOL    HW1 4890   2.483   3.610   1.733
 1547SOL    HW2 4891   2.610   3.541   1.656
 1548SOL     OW 4892   3.562   2.004   0.502
 1548SOL    HW1 4893   3.651   2.006   0.456
 1548SOL    HW2 4894   3.551   1.916   0.549
 1549SOL     OW 4895   3.259   3.437   0.482
 1549SOL    HW1 4896   3.327   3.473   0.417
 1549SOL    HW2 4897   3.208   3.514   0.521
 1550SOL     OW 4898   1.999   3.647   1.843
 1550SOL    HW1 4899   1.940   3.581   1.889
 1550SOL    HW2 4900   2.051   3.699   1.911
 1551SOL     OW 4901   3.146   2.802   0.697
 1551SOL    HW1 4902   3.210   2.725   0.702
 1551SOL    HW2 4903   3.176   2.867   0.627
 1552SOL     OW 4904   2.672   3.138   1.430
 1552SOL    HW1 4905   2.643   3.180   1.516
 1552SOL    HW2 4906   2.604   3.155   1.359
 1553SOL     OW 4907   2.559   3.469   0.167
 1553SOL    HW1 4908   2.562   3.486   0.068
 1553SOL    HW2 4909   2.493   3.396   0.186
 1554SOL     OW 4910   3.497   3.602   1.384
 1554SOL    HW1 4911   3.540   3.605   1.294
 1554SOL    HW2 4912   3.479   3.696   1.416
 1555SOL     OW 4913   3.701   2.045   0.960
 1555SOL    HW1 4914   3.733   1.953   0.940
 1555SOL    HW2 4915   3.610   2.058   0.921
 1556SOL     OW 4916   2.125   2.179   0.719
 1556SOL    HW1 4917   2.035   2.211   0.689
 1556SOL    HW2 4918   2.124   2.163   0.817
 1557SOL     OW 4919   3.097   3.448   0.045
 1557SOL    HW1 4920   3.078   3.356   0.079
 1557SOL    HW2 4921   3.079   3.452   3.947
 1558SOL     OW 4922   2.684   2.870   1.376
 1558SOL    HW1 4923   2.738   2.853   1.293
 1558SOL    HW2 4924   2.686   2.968   1.396
 1559SOL     OW 4925   2.772   2.779   0.280
 1559SOL    HW1 4926   2.836   2.811   0.210
 1559SOL    HW2 4927   2.815   2.705   0.333
 1560SOL     OW 4928   3.365   3.480   0.040
 1560SOL    HW1 4929   3.266   3.474   0.050
 1560SOL    HW2 4930   3.388   3.496   3.944
 1561SOL     OW 4931   2.227   3.164   1.488
 1561SOL    HW1 4932   2.219   3.245   1.430
 1561SOL    HW2 4933   2.148   3.105   1.475
 1562SOL     OW 4934   2.913   2.966   0.707
 1562SOL    HW1 4935   2.839   2.914   0.750
 1562SOL    HW2 4936   2.988   2.904   0.685
 1563SOL     OW 4937   2.890   2.095   0.947
 1563SOL    HW1 4938   2.883   2.038   0.865
 1563SOL    HW2 4939   2.878   2.037   1.028
 1564SOL     OW 4940   2.465   3.352   0.480
 1564SOL    HW1 4941   2.502   3.290   0.411
 1564SOL    HW2 4942   2.406   3.420   0.436
 1565SOL     OW 4943   3.589   2.251   1.378
 1565SOL    HW1 4944   3.659   2.322   1.376
 1565SOL    HW2 4945   3.616   2.176   1.317
 1566SOL     OW 4946   1.975   2.891   1.723
 1566SOL    HW1 4947   1.894   2.865   1.776
 1566SOL    HW2 4948   2.056   2.849   1.764
 1567SOL     OW 4949   2.524   2.062   1.503
 1567SOL    HW1 4950   2.607   2.039   1.451
 1567SOL    HW2 4951   2.550   2.094   1.595
 1568SOL     OW 4952   3.285   2.721   1.401
 1568SOL    HW1 4953   3.233   2.784   1.344
 1568SOL    HW2 4954   3.378   2.712   1.365
 1569SOL     OW 4955   1.933   2.025   0.335
 1569SOL    HW1 4956   1.911   2.106   0.280
 1569SOL    HW2 4957   2.025   1.993   0.312
 1570SOL     OW 4958   3.067   3.180   0.124
 1570SOL    HW1 4959   2.967   3.172   0.128
 1570SOL    HW2 4960   3.103   3.184   0.217
 1571SOL     OW 4961   2.484   2.691   1.432
 1571SOL    HW1 4962   2.541   2.772   1.417
 1571SOL    HW2 4963   2.542   2.610   1.441
 1572SOL     OW 4964   3.350   3.654   0.990
 1572SOL    HW1 4965   3.370   3.688   0.897
 1572SOL    HW2 4966   3.436   3.629   1.035
 1573SOL     OW 4967   2.582   2.425   1.704
 1573SOL    HW1 4968   2.623   2.494   1.763
 1573SOL    HW2 4969   2.607   2.334   1.738
 1574SOL     OW 4970   3.332   3.061   1.637
 1574SOL    HW1 4971   3.318   3.074   1.735
 1574SOL    HW2 4972   3.429   3.075   1.616
 1575SOL     OW 4973   2.236   3.601   1.566
 1575SOL    HW1 4974   2.149   3.648   1.552
 1575SOL    HW2 4975   2.220   3.511   1.607
 1576SOL     OW 4976   3.529   2.713   1.281
 1576SOL    HW1 4977   3.519   2.637   1.217
 1576SOL    HW2 4978   3.534   2.799   1.231
 1577SOL     OW 4979   3.089   2.183   0.456
 1577SOL    HW1 4980   3.149   2.105   0.437
 1577SOL    HW2 4981   3.115   2.224   0.543
 1578SOL     OW 4982   2.413   2.675   0.639
 1578SOL    HW1 4983   2.465   2.755   0.611
 1578SOL    HW2 4984   2.354   2.645   0.564
 1579SOL     OW 4985   3.617   2.235   1.647
 1579SOL    HW1 4986   3.601   2.245   1.549
 1579SOL    HW2 4987   3.550   2.170   1.685
 1580SOL     OW 4988   3.631   2.800   1.515
 1580SOL    HW1 4989   3.597   2.892   1.536
 1580SOL    HW2 4990   3.597   2.772   1.425
 1581SOL     OW 4991   2.694   3.242   0.004
 1581SOL    HW1 4992   2.646   3.206   0.084
 1581SOL    HW2 4993   2.773   3.296   0.034
 1582SOL     OW 4994   2.523   3.652   0.940
 1582SOL    HW1 4995   2.499   3.746   0.919
 1582SOL    HW2 4996   2.622   3.641   0.937
 1583SOL     OW 4997   2.726   2.826   0.854
 1583SOL    HW1 4998   2.783   2.752   0.890
 1583SOL    HW2 4999   2.689   2.880   0.930
 1584SOL     OW 5000   2.945   2.857   0.085
 1584SOL    HW1 5001   2.930   2.872   3.987
 1584SOL    HW2 5002   3.030   2.807   0.098
 1585SOL     OW 5003   3.701   3.421   0.845
 1585SOL    HW1 5004   3.618   3.418   0.788
 1585SOL    HW2 5005   3.731   3.329   0.866
 1586SOL     OW 5006   2.094   3.163   1.856
 1586SOL    HW1 5007   2.027   3.096   1.825
 1586SOL    HW2 5008   2.089   3.172   1.955
 1587SOL     OW 5009   2.543   3.268   1.631
 1587SOL    HW1 5010   2.462   3.218   1.663
 1587SOL    HW2 5011   2.542   3.361   1.668
 1588SOL     OW 5012   3.670   2.041   1.233
 1588SOL    HW1 5013   3.673   1.942   1.247
 1588SOL    HW2 5014   3.685   2.062   1.136
 1589SOL     OW 5015   2.287   2.292   0.522
 1589SOL    HW1 5016   2.328   2.222   0.463
 1589SOL    HW2 5017   2.240   2.248   0.598
 1590SOL     OW 5018   2.195   2.413   1.285
 1590SOL    HW1 5019   2.251   2.362   1.351
 1590SOL    HW2 5020   2.220   2.387   1.192
 1591SOL     OW 5021   2.677   3.446   0.680
 1591SOL    HW1 5022   2.667   3.463   0.582
 1591SOL    HW2 5023   2.605   3.384   0.711
 1592SOL     OW 5024   3.337   2.067   1.114
 1592SOL    HW1 5025   3.366   1.986   1.164
 1592SOL    HW2 5026   3.249   2.099   1.151
 1593SOL     OW 5027   2.855   1.870   1.142
 1593SOL    HW1 5028   2.805   1.801   1.090
 1593SOL    HW2 5029   2.952   1.844   1.146
 1594SOL     OW 5030   2.624   3.181   0.316
 1594SOL    HW1 5031   2.593   3.088   0.332
 1594SOL    HW2 5032   2.714   3.195   0.357
 1595SOL     OW 5033   2.485   3.419   1.287
 1595SOL    HW1 5034   2.483   3.506   1.337
 1595SOL    HW2 5035   2.576   3.406   1.247
 1596SOL     OW 5036   3.211   1.907   0.169
 1596SOL    HW1 5037   3.244   1.896   0.075
 1596SOL    HW2 5038   3.115   1.879   0.174
 1597SOL     OW 5039   3.166   2.306   0.681
 1597SOL    HW1 5040   3.142   2.402   0.698
 1597SOL    HW2 5041   3.162   2.256   0.767
 1598SOL     OW 5042   3.450   2.081   0.874
 1598SOL    HW1 5043   3.409   2.074   0.964
 1598SOL    HW2 5044   3.408   2.156   0.823
 1599SOL     OW 5045   1.897   2.919   0.313
 1599SOL    HW1 5046   1.992   2.912   0.283
 1599SOL    HW2 5047   1.864   2.830   0.344
 1600SOL     OW 5048   2.713   3.538   0.378
 1600SOL    HW1 5049   2.651   3.507   0.305
 1600SOL    HW2 5050   2.675   3.619   0.421
 1601SOL     OW 5051   2.096   2.476   1.985
 1601SOL    HW1 5052   2.012   2.507   2.029
 1601SOL    HW2 5053   2.078   2.455   1.889
 1602SOL     OW 5054   2.085   2.143   2.856
 1602SOL    HW1 5055   2.117   2.110   2.944
 1602SOL    HW2 5056   1.991   2.111   2.840
 1603SOL     OW 5057   1.866   2.245   2.499
 1603SOL    HW1 5058   1.779   2.273   2.542
 1603SOL    HW2 5059   1.851   2.162   2.446
 1604SOL     OW 5060   2.431   3.150   3.053
 1604SOL    HW1 5061   2.350   3.136   2.996
 1604SOL    HW2 5062   2.440   3.247   3.075
 1605SOL     OW 5063   3.385   3.315   2.541
 1605SOL    HW1 5064   3.399   3.372   2.622
 1605SOL    HW2 5065   3.328   3.365   2.475
 1606SOL     OW 5066   3.621   2.471   2.091
 1606SOL    HW1 5067   3.603   2.463   1.993
 1606SOL    HW2 5068   3.617   2.380   2.133
 1607SOL     OW 5069   2.612   3.010   2.899
 1607SOL    HW1 5070   2.546   3.037   2.969
 1607SOL    HW2 5071   2.648   3.092   2.853
 1608SOL     OW 5072   2.725   2.637   3.682
 1608SOL    HW1 5073   2.677   2.699   3.744
 1608SOL    HW2 5074   2.753   2.686   3.600
 1609SOL     OW 5075   2.551   2.872   2.510
 1609SOL    HW1 5076   2.619   2.857   2.582
 1609SOL    HW2 5077   2.473   2.923   2.548
 1610SOL     OW 5078   2.577   3.014   3.659
 1610SOL    HW1 5079   2.616   3.103   3.681
 1610SOL    HW2 5080   2.485   3.026   3.621
 1611SOL     OW 5081   3.321   3.361   3.216
 1611SOL    HW1 5082   3.377   3.444   3.223
 1611SOL    HW2 5083   3.256   3.358   3.291
 1612SOL     OW 5084   2.314   2.254   3.336
 1612SOL    HW1 5085   2.393   2.195   3.352
 1612SOL    HW2 5086   2.230   2.203   3.358
 1613SOL     OW 5087   3.476   2.307   2.607
 1613SOL    HW1 5088   3.414   2.335   2.533
 1613SOL    HW2 5089   3.500   2.387   2.662
 1614SOL     OW 5090   2.082   3.578   2.349
 1614SOL    HW1 5091   2.105   3.644   2.421
 1614SOL    HW2 5092   2.157   3.574   2.282
 1615SOL     OW 5093   2.996   3.201   3.557
 1615SOL    HW1 5094   3.053   3.192   3.639
 1615SOL    HW2 5095   2.938   3.120   3.547
 1616SOL     OW 5096   2.081   3.304   2.388
 1616SOL    HW1 5097   2.069   3.403   2.400
 1616SOL    HW2 5098   2.045   3.257   2.469
 1617SOL     OW 5099   2.133   2.950   2.770
 1617SOL    HW1 5100   2.125   2.855   2.801
 1617SOL    HW2 5101   2.069   3.007   2.822
 1618SOL     OW 5102   2.452   3.646   3.285
 1618SOL    HW1 5103   2.383   3.626   3.355
 1618SOL    HW2 5104   2.494   3.734   3.303
 1619SOL     OW 5105   2.451   2.844   1.996
 1619SOL    HW1 5106   2.497   2.894   1.922
 1619SOL    HW2 5107   2.487   2.873   2.084
 1620SOL     OW 5108   3.457   1.985   3.333
 1620SOL    HW1 5109   3.467   2.065   3.274
 1620SOL    HW2 5110   3.448   2.015   3.428
 1621SOL     OW 5111   1.974   2.515   2.429
 1621SOL    HW1 5112   1.945   2.421   2.448
 1621SOL    HW2 5113   1.963   2.571   2.511
 1622SOL     OW 5114   3.691   3.628   2.245
 1622SOL    HW1 5115   3.773   3.593   2.290
 1622SOL    HW2 5116   3.707   3.722   2.215
 1623SOL     OW 5117   1.880   3.456   1.985
 1623SOL    HW1 5118   1.876   3.358   2.003
 1623SOL    HW2 5119   1.868   3.507   2.070
 1624SOL     OW 5120   3.539   2.767   2.499
 1624SOL    HW1 5121   3.632   2.731   2.497
 1624SOL    HW2 5122   3.525   2.829   2.422
 1625SOL     OW 5123   3.506   2.967   2.292
 1625SOL    HW1 5124   3.593   2.968   2.244
 1625SOL    HW2 5125   3.511   3.025   2.373
 1626SOL     OW 5126   1.990   2.599   3.444
 1626SOL    HW1 5127   2.089   2.610   3.442
 1626SOL    HW2 5128   1.947   2.688   3.458
 1627SOL     OW 5129   2.484   3.244   2.590
 1627SOL    HW1 5130   2.431   3.160   2.604
 1627SOL    HW2 5131   2.465   3.280   2.498
 1628SOL     OW 5132   3.152   3.099   3.285
 1628SOL    HW1 5133   3.179   3.030   3.218
 1628SOL    HW2 5134   3.213   3.095   3.364
 1629SOL     OW 5135   2.673   1.859   2.370
 1629SOL    HW1 5136   2.724   1.943   2.348
 1629SOL    HW2 5137   2.576   1.881   2.379
 1630SOL     OW 5138   2.055   2.831   3.124
 1630SOL    HW1 5139   2.142   2.783   3.116
 1630SOL    HW2 5140   1.982   2.777   3.082
 1631SOL     OW 5141   3.393   2.860   2.063
 1631SOL    HW1 5142   3.319   2.799   2.092
 1631SOL    HW2 5143   3.437   2.899   2.144
 1632SOL     OW 5144   3.081   3.660   3.485
 1632SOL    HW1 5145   3.053   3.728   3.418
 1632SOL    HW2 5146   3.080   3.569   3.442
 1633SOL     OW 5147   2.204   2.126   3.668
 1633SOL    HW1 5148   2.257   2.201   3.708
 1633SOL    HW2 5149   2.110   2.131   3.701
 1634SOL     OW 5150   3.318   3.293   2.819
 1634SOL    HW1 5151   3.250   3.300   2.892
 1634SOL    HW2 5152   3.318   3.201   2.782
 1635SOL     OW 5153   2.456   2.585   2.133
 1635SOL    HW1 5154   2.462   2.668   2.078
 1635SOL    HW2 5155   2.386   2.595   2.203
 1636SOL     OW 5156   3.138   2.216   2.795
 1636SOL    HW1 5157   3.044   2.185   2.803
 1636SOL    HW2 5158   3.197   2.164   2.856
 1637SOL     OW 5159   3.427   3.574   2.216
 1637SOL    HW1 5160   3.522   3.587   2.243
 1637SOL    HW2 5161   3.422   3.551   2.119
 1638SOL     OW 5162   2.653   2.475   3.311
 1638SOL    HW1 5163   2.628   2.454   3.405
 1638SOL    HW2 5164   2.613   2.407   3.250
 1639SOL     OW 5165   3.255   2.333   3.540
 1639SOL    HW1 5166   3.252   2.383   3.626
 1639SOL    HW2 5167   3.318   2.256   3.547
 1640SOL     OW 5168   2.819   2.750   3.442
 1640SOL    HW1 5169   2.875   2.675   3.406
 1640SOL    HW2 5170   2.764   2.789   3.368
 1641SOL     OW 5171   2.858   2.266   3.091
 1641SOL    HW1 5172   2.768   2.289   3.129
 1641SOL    HW2 5173   2.846   2.222   3.002
 1642SOL     OW 5174   2.913   2.565   2.270
 1642SOL    HW1 5175   2.914   2.575   2.369
 1642SOL    HW2 5176   2.830   2.516   2.242
 1643SOL     OW 5177   1.948   2.679   2.649
 1643SOL    HW1 5178   2.035   2.670   2.697
 1643SOL    HW2 5179   1.905   2.766   2.672
 1644SOL     OW 5180   2.746   2.212   2.047
 1644SOL    HW1 5181   2.792   2.277   1.986
 1644SOL    HW2 5182   2.782   2.120   2.030
 1645SOL     OW 5183   3.572   2.444   3.690
 1645SOL    HW1 5184   3.532   2.520   3.639
 1645SOL    HW2 5185   3.597   2.371   3.626
 1646SOL     OW 5186   3.235   2.997   2.397
 1646SOL    HW1 5187   3.322   2.984   2.349
 1646SOL    HW2 5188   3.181   3.067   2.350
 1647SOL     OW 5189   2.408   2.038   2.760
 1647SOL    HW1 5190   2.412   2.070   2.854
 1647SOL    HW2 5191   2.418   2.116   2.698
 1648SOL     OW 5192   2.860   3.305   2.330
 1648SOL    HW1 5193   2.824   3.382   2.279
 1648SOL    HW2 5194   2.843   3.317   2.428
 1649SOL     OW 5195   3.665   2.921   2.731
 1649SOL    HW1 5196   3.609   2.917   2.648
 1649SOL    HW2 5197   3.605   2.924   2.811
 1650SOL     OW 5198   3.087   3.396   3.374
 1650SOL    HW1 5199   3.073   3.321   3.439
 1650SOL    HW2 5200   3.023   3.386   3.298
 1651SOL     OW 5201   2.203   2.818   2.124
 1651SOL    HW1 5202   2.284   2.826   2.067
 1651SOL    HW2 5203   2.146   2.742   2.092
 1652SOL     OW 5204   3.330   2.598   2.594
 1652SOL    HW1 5205   3.334   2.560   2.687
 1652SOL    HW2 5206   3.406   2.662   2.582
 1653SOL     OW 5207   2.970   3.641   2.093
 1653SOL    HW1 5208   2.903   3.593   2.149
 1653SOL    HW2 5209   3.003   3.580   2.021
 1654SOL     OW 5210   2.065   2.143   3.362
 1654SOL    HW1 5211   1.982   2.198   3.356
 1654SOL    HW2 5212   2.048   2.064   3.421
 1655SOL     OW 5213   2.324   3.580   2.174
 1655SOL    HW1 5214   2.358   3.655   2.230
 1655SOL    HW2 5215   2.396   3.550   2.112
 1656SOL     OW 5216   3.263   1.966   2.295
 1656SOL    HW1 5217   3.252   1.942   2.198
 1656SOL    HW2 5218   3.360   1.985   2.314
 1657SOL     OW 5219   2.800   3.556   2.765
 1657SOL    HW1 5220   2.885   3.507   2.783
 1657SOL    HW2 5221   2.751   3.512   2.689
 1658SOL     OW 5222   2.256   2.553   2.336
 1658SOL    HW1 5223   2.276   2.456   2.349
 1658SOL    HW2 5224   2.158   2.568   2.351
 1659SOL     OW 5225   3.396   2.087   3.592
 1659SOL    HW1 5226   3.405   2.108   3.689
 1659SOL    HW2 5227   3.324   2.019   3.579
 1660SOL     OW 5228   2.490   1.977   1.969
 1660SOL    HW1 5229   2.573   1.922   1.982
 1660SOL    HW2 5230   2.441   1.945   1.888
 1661SOL     OW 5231   2.624   2.136   3.614
 1661SOL    HW1 5232   2.706   2.079   3.616
 1661SOL    HW2 5233   2.580   2.134   3.704
 1662SOL     OW 5234   2.736   3.375   3.056
 1662SOL    HW1 5235   2.719   3.344   2.962
 1662SOL    HW2 5236   2.810   3.322   3.096
 1663SOL     OW 5237   3.205   2.450   3.295
 1663SOL    HW1 5238   3.234   2.416   3.384
 1663SOL    HW2 5239   3.237   2.544   3.283
 1664SOL     OW 5240   2.675   3.257   2.800
 1664SOL    HW1 5241   2.764   3.244   2.757
 1664SOL    HW2 5242   2.604   3.260   2.730
 1665SOL     OW 5243   2.407   1.925   2.360
 1665SOL    HW1 5244   2.324   1.924   2.417
 1665SOL    HW2 5245   2.407   2.007   2.303
 1666SOL     OW 5246   3.294   3.069   1.905
 1666SOL    HW1 5247   3.329   2.991   1.957
 1666SOL    HW2 5248   3.205   3.097   1.942
 1667SOL     OW 5249   2.154   1.910   2.048
 1667SOL    HW1 5250   2.205   1.984   2.004
 1667SOL    HW2 5251   2.218   1.847   2.091
 1668SOL     OW 5252   2.812   2.088   2.317
 1668SOL    HW1 5253   2.761   2.155   2.263
 1668SOL    HW2 5254   2.909   2.113   2.319
 1669SOL     OW 5255   2.942   2.543   3.318
 1669SOL    HW1 5256   2.864   2.480   3.322
 1669SOL    HW2 5257   3.027   2.491   3.312
 1670SOL     OW 5258   3.079   3.432   2.669
 1670SOL    HW1 5259   3.098   3.495   2.594
 1670SOL    HW2 5260   3.166   3.401   2.709
 1671SOL     OW 5261   2.329   3.010   2.593
 1671SOL    HW1 5262   2.262   2.990   2.664
 1671SOL    HW2 5263   2.288   2.994   2.503
 1672SOL     OW 5264   3.115   3.661   2.469
 1672SOL    HW1 5265   3.161   3.724   2.406
 1672SOL    HW2 5266   3.036   3.708   2.510
 1673SOL     OW 5267   2.884   2.400   1.883
 1673SOL    HW1 5268   2.837   2.485   1.861
 1673SOL    HW2 5269   2.953   2.417   1.953
 1674SOL     OW 5270   1.944   2.417   3.250
 1674SOL    HW1 5271   2.038   2.410   3.218
 1674SOL    HW2 5272   1.937   2.488   3.321
 1675SOL     OW 5273   2.421   2.086   3.033
 1675SOL    HW1 5274   2.468   2.005   3.068
 1675SOL    HW2 5275   2.326   2.085   3.063
 1676SOL     OW 5276   2.885   1.910   2.609
 1676SOL    HW1 5277   2.821   1.921   2.532
 1676SOL    HW2 5278   2.854   1.836   2.667
 1677SOL     OW 5279   3.308   3.028   2.723
 1677SOL    HW1 5280   3.231   2.965   2.717
 1677SOL    HW2 5281   3.342   3.049   2.631
 1678SOL     OW 5282   3.325   2.466   2.841
 1678SOL    HW1 5283   3.271   2.382   2.841
 1678SOL    HW2 5284   3.391   2.463   2.916
 1679SOL     OW 5285   3.732   2.676   2.231
 1679SOL    HW1 5286   3.772   2.621   2.303
 1679SOL    HW2 5287   3.683   2.617   2.167
 1680SOL     OW 5288   2.353   3.278   2.017
 1680SOL    HW1 5289   2.273   3.252   2.071
 1680SOL    HW2 5290   2.345   3.239   1.925
 1681SOL     OW 5291   3.537   3.103   2.517
 1681SOL    HW1 5292   3.634   3.124   2.518
 1681SOL    HW2 5293   3.484   3.187   2.526
 1682SOL     OW 5294   3.254   2.435   1.932
 1682SOL    HW1 5295   3.190   2.413   2.005
 1682SOL    HW2 5296   3.347   2.408   1.959
 1683SOL     OW 5297   2.390   2.126   2.178
 1683SOL    HW1 5298   2.432   2.071   2.106
 1683SOL    HW2 5299   2.365   2.216   2.141
 1684SOL     OW 5300   3.621   3.095   3.437
 1684SOL    HW1 5301   3.708   3.054   3.410
 1684SOL    HW2 5302   3.635   3.192   3.459
 1685SOL     OW 5303   2.918   3.212   3.199
 1685SOL    HW1 5304   2.837   3.182   3.250
 1685SOL    HW2 5305   3.000   3.172   3.240
 1686SOL     OW 5306   3.472   3.491   3.517
 1686SOL    HW1 5307   3.453   3.526   3.425
 1686SOL    HW2 5308   3.556   3.437   3.515
 1687SOL     OW 5309   2.994   3.075   2.968
 1687SOL    HW1 5310   2.933   3.108   3.040
 1687SOL    HW2 5311   2.959   3.105   2.879
 1688SOL     OW 5312   3.490   2.959   2.940
 1688SOL    HW1 5313   3.483   3.023   3.016
 1688SOL    HW2 5314   3.416   2.975   2.875
 1689SOL     OW 5315   2.785   1.957   3.258
 1689SOL    HW1 5316   2.804   1.934   3.162
 1689SOL    HW2 5317   2.864   2.002   3.299
 1690SOL     OW 5318   2.840   2.976   3.583
 1690SOL    HW1 5319   2.745   2.992   3.610
 1690SOL    HW2 5320   2.844   2.894   3.526
 1691SOL     OW 5321   2.572   2.923   2.233
 1691SOL    HW1 5322   2.556   2.908   2.330
 1691SOL    HW2 5323   2.652   2.870   2.204
 1692SOL     OW 5324   2.281   2.676   3.119
 1692SOL    HW1 5325   2.353   2.689   3.187
 1692SOL    HW2 5326   2.241   2.585   3.131
 1693SOL     OW 5327   3.127   2.238   3.140
 1693SOL    HW1 5328   3.163   2.318   3.188
 1693SOL    HW2 5329   3.032   2.256   3.113
 1694SOL     OW 5330   2.204   2.977   2.352
 1694SOL    HW1 5331   2.219   3.057   2.295
 1694SOL    HW2 5332   2.201   2.895   2.295
 1695SOL     OW 5333   2.419   2.417   2.741
 1695SOL    HW1 5334   2.428   2.436   2.644
 1695SOL    HW2 5335   2.482   2.475   2.793
 1696SOL     OW 5336   3.107   3.213   2.254
 1696SOL    HW1 5337   3.166   3.288   2.285
 1696SOL    HW2 5338   3.013   3.229   2.284
 1697SOL     OW 5339   3.138   3.320   3.016
 1697SOL    HW1 5340   3.200   3.323   3.094
 1697SOL    HW2 5341   3.086   3.235   3.018
 1698SOL     OW 5342   3.443   2.479   2.345
 1698SOL    HW1 5343   3.398   2.547   2.405
 1698SOL    HW2 5344   3.490   2.527   2.271
 1699SOL     OW 5345   2.263   2.605   3.455
 1699SOL    HW1 5346   2.330   2.660   3.406
 1699SOL    HW2 5347   2.308   2.529   3.501
 1700SOL     OW 5348   3.466   2.644   3.541
 1700SOL    HW1 5349   3.375   2.687   3.542
 1700SOL    HW2 5350   3.521   2.684   3.469
 1701SOL     OW 5351   2.860   1.990   3.613
 1701SOL    HW1 5352   2.914   2.072   3.594
 1701SOL    HW2 5353   2.910   1.909   3.585
 1702SOL     OW 5354   2.356   1.902   3.609
 1702SOL    HW1 5355   2.312   1.844   3.541
 1702SOL    HW2 5356   2.301   1.984   3.623
 1703SOL     OW 5357   2.443   2.727   2.897
 1703SOL    HW1 5358   2.479   2.820   2.890
 1703SOL    HW2 5359   2.382   2.720   2.976
 1704SOL     OW 5360   3.228   2.721   2.896
 1704SOL    HW1 5361   3.144   2.726   2.842
 1704SOL    HW2 5362   3.266   2.629   2.890
 1705SOL     OW 5363   3.065   2.385   2.124
 1705SOL    HW1 5364   3.077   2.305   2.183
 1705SOL    HW2 5365   3.020   2.458   2.175
 1706SOL     OW 5366   2.160   2.060   3.108
 1706SOL    HW1 5367   2.125   2.097   3.194
 1706SOL    HW2 5368   2.143   1.961   3.105
 1707SOL     OW 5369   1.917   3.191   3.143
 1707SOL    HW1 5370   1.949   3.132   3.216
 1707SOL    HW2 5371   1.918   3.286   3.174
 1708SOL     OW 5372   3.598   2.830   3.705
 1708SOL    HW1 5373   3.558   2.763   3.642
 1708SOL    HW2 5374   3.542   2.835   3.788
 1709SOL     OW 5375   2.164   1.924   2.489
 1709SOL    HW1 5376   2.144   2.020   2.508
 1709SOL    HW2 5377   2.175   1.874   2.575
 1710SOL     OW 5378   3.467   2.233   2.231
 1710SOL    HW1 5379   3.505   2.165   2.293
 1710SOL    HW2 5380   3.451   2.319   2.280
 1711SOL     OW 5381   2.843   3.427   3.574
 1711SOL    HW1 5382   2.827   3.474   3.488
 1711SOL    HW2 5383   2.891   3.341   3.557
 1712SOL     OW 5384   3.705   3.361   3.458
 1712SOL    HW1 5385   3.724   3.391   3.365
 1712SOL    HW2 5386   3.787   3.373   3.515
 1713SOL     OW 5387   3.391   2.131   1.992
 1713SOL    HW1 5388   3.320   2.064   2.014
 1713SOL    HW2 5389   3.424   2.173   2.077
 1714SOL     OW 5390   3.155   2.688   1.891
 1714SOL    HW1 5391   3.196   2.597   1.898
 1714SOL    HW2 5392   3.185   2.732   1.806
 1715SOL     OW 5393   2.926   3.196   2.717
 1715SOL    HW1 5394   2.930   3.120   2.653
 1715SOL    HW2 5395   2.986   3.270   2.685
 1716SOL     OW 5396   2.173   2.667   2.809
 1716SOL    HW1 5397   2.269   2.692   2.796
 1716SOL    HW2 5398   2.166   2.573   2.841
 1717SOL     OW 5399   2.192   2.387   2.876
 1717SOL    HW1 5400   2.154   2.295   2.861
 1717SOL    HW2 5401   2.274   2.399   2.821
 1718SOL     OW 5402   2.997   2.236   3.551
 1718SOL    HW1 5403   2.944   2.298   3.609
 1718SOL    HW2 5404   3.089   2.272   3.539
 1719SOL     OW 5405   3.025   2.065   3.337
 1719SOL    HW1 5406   3.010   2.129   3.413
 1719SOL    HW2 5407   3.064   2.114   3.259
 1720SOL     OW 5408   1.862   3.179   2.043
 1720SOL    HW1 5409   1.772   3.205   2.007
 1720SOL    HW2 5410   1.863   3.081   2.064
 1721SOL     OW 5411   2.841   2.670   3.090
 1721SOL    HW1 5412   2.904   2.638   3.161
 1721SOL    HW2 5413   2.753   2.622   3.100
 1722SOL     OW 5414   1.897   2.409   2.978
 1722SOL    HW1 5415   1.979   2.396   2.922
 1722SOL    HW2 5416   1.923   2.414   3.074
 1723SOL     OW 5417   2.057   2.383   3.594
 1723SOL    HW1 5418   2.119   2.331   3.535
 1723SOL    HW2 5419   2.018   2.460   3.542
 1724SOL     OW 5420   3.240   2.799   3.521
 1724SOL    HW1 5421   3.259   2.897   3.526
 1724SOL    HW2 5422   3.236   2.770   3.425
 1725SOL     OW 5423   2.690   2.444   2.191
 1725SOL    HW1 5424   2.685   2.356   2.144
 1725SOL    HW2 5425   2.604   2.494   2.179
 1726SOL     OW 5426   3.505   2.465   3.046
 1726SOL    HW1 5427   3.485   2.404   3.123
 1726SOL    HW2 5428   3.594   2.444   3.008
 1727SOL     OW 5429   2.099   3.414   3.596
 1727SOL    HW1 5430   2.073   3.502   3.637
 1727SOL    HW2 5431   2.096   3.343   3.666
 1728SOL     OW 5432   2.565   2.314   3.110
 1728SOL    HW1 5433   2.514   2.228   3.099
 1728SOL    HW2 5434   2.538   2.378   3.038
 1729SOL     OW 5435   2.784   3.538   3.330
 1729SOL    HW1 5436   2.760   3.493   3.244
 1729SOL    HW2 5437   2.781   3.637   3.318
 1730SOL     OW 5438   2.329   2.356   2.050
 1730SOL    HW1 5439   2.391   2.431   2.076
 1730SOL    HW2 5440   2.238   2.393   2.033
 1731SOL     OW 5441   2.018   3.004   3.326
 1731SOL    HW1 5442   2.002   2.946   3.405
 1731SOL    HW2 5443   2.036   2.948   3.245
 1732SOL     OW 5444   3.180   2.909   3.085
 1732SOL    HW1 5445   3.214   2.843   3.018
 1732SOL    HW2 5446   3.110   2.966   3.043
 1733SOL     OW 5447   3.174   2.714   2.163
 1733SOL    HW1 5448   3.092   2.694   2.216
 1733SOL    HW2 5449   3.153   2.705   2.065
 1734SOL     OW 5450   3.648   3.597   3.023
 1734SOL    HW1 5451   3.703   3.632   2.947
 1734SOL    HW2 5452   3.607   3.510   2.997
 1735SOL     OW 5453   3.106   3.589   2.979
 1735SOL    HW1 5454   3.198   3.612   2.950
 1735SOL    HW2 5455   3.099   3.491   2.996
 1736SOL     OW 5456   1.946   3.114   2.882
 1736SOL    HW1 5457   1.930   3.141   2.977
 1736SOL    HW2 5458   1.867   3.064   2.848
 1737SOL     OW 5459   2.533   3.525   3.585
 1737SOL    HW1 5460   2.489   3.613   3.601
 1737SOL    HW2 5461   2.612   3.538   3.524
 1738SOL     OW 5462   3.560   2.003   2.366
 1738SOL    HW1 5463   3.649   2.004   2.321
 1738SOL    HW2 5464   3.548   1.916   2.414
 1739SOL     OW 5465   3.234   3.441   2.352
 1739SOL    HW1 5466   3.308   3.480   2.297
 1739SOL    HW2 5467   3.176   3.515   2.386
 1740SOL     OW 5468   2.001   3.643   3.691
 1740SOL    HW1 5469   1.936   3.584   3.739
 1740SOL    HW2 5470   2.053   3.696   3.758
 1741SOL     OW 5471   3.129   2.787   2.534
 1741SOL    HW1 5472   3.198   2.715   2.546
 1741SOL    HW2 5473   3.168   2.860   2.477
 1742SOL     OW 5474   2.673   3.138   3.292
 1742SOL    HW1 5475   2.640   3.173   3.380
 1742SOL    HW2 5476   2.606   3.158   3.220
 1743SOL     OW 5477   2.537   3.474   2.015
 1743SOL    HW1 5478   2.550   3.496   1.918
 1743SOL    HW2 5479   2.478   3.394   2.024
 1744SOL     OW 5480   3.478   3.590   3.248
 1744SOL    HW1 5481   3.541   3.587   3.170
 1744SOL    HW2 5482   3.467   3.685   3.279
 1745SOL     OW 5483   3.698   2.042   2.828
 1745SOL    HW1 5484   3.735   1.952   2.804
 1745SOL    HW2 5485   3.608   2.053   2.787
 1746SOL     OW 5486   2.121   2.176   2.580
 1746SOL    HW1 5487   2.034   2.215   2.552
 1746SOL    HW2 5488   2.123   2.166   2.680
 1747SOL     OW 5489   3.053   3.474   1.902
 1747SOL    HW1 5490   3.061   3.378   1.927
 1747SOL    HW2 5491   2.997   3.483   1.820
 1748SOL     OW 5492   2.684   2.871   3.236
 1748SOL    HW1 5493   2.740   2.852   3.156
 1748SOL    HW2 5494   2.687   2.968   3.257
 1749SOL     OW 5495   2.781   2.779   2.146
 1749SOL    HW1 5496   2.842   2.814   2.076
 1749SOL    HW2 5497   2.824   2.701   2.191
 1750SOL     OW 5498   2.239   3.177   3.392
 1750SOL    HW1 5499   2.253   3.232   3.310
 1750SOL    HW2 5500   2.169   3.108   3.374
 1751SOL     OW 5501   3.469   3.142   3.142
 1751SOL    HW1 5502   3.545   3.135   3.206
 1751SOL    HW2 5503   3.406   3.214   3.171
 1752SOL     OW 5504   2.917   2.967   2.574
 1752SOL    HW1 5505   2.841   2.918   2.616
 1752SOL    HW2 5506   2.986   2.902   2.542
 1753SOL     OW 5507   2.892   2.093   2.837
 1753SOL    HW1 5508   2.881   2.054   2.745
 1753SOL    HW2 5509   2.883   2.021   2.905
 1754SOL     OW 5510   2.462   3.352   2.338
 1754SOL    HW1 5511   2.512   3.296   2.272
 1754SOL    HW2 5512   2.395   3.409   2.289
 1755SOL     OW 5513   3.591   2.253   3.244
 1755SOL    HW1 5514   3.662   2.323   3.239
 1755SOL    HW2 5515   3.616   2.177   3.183
 1756SOL     OW 5516   2.113   3.214   2.141
 1756SOL    HW1 5517   2.017   3.208   2.113
 1756SOL    HW2 5518   2.118   3.250   2.234
 1757SOL     OW 5519   1.949   2.858   3.540
 1757SOL    HW1 5520   1.864   2.847   3.592
 1757SOL    HW2 5521   2.027   2.847   3.602
 1758SOL     OW 5522   2.543   2.057   3.360
 1758SOL    HW1 5523   2.630   2.034   3.317
 1758SOL    HW2 5524   2.559   2.088   3.453
 1759SOL     OW 5525   1.941   2.191   1.894
 1759SOL    HW1 5526   1.854   2.164   1.854
 1759SOL    HW2 5527   1.977   2.272   1.847
 1760SOL     OW 5528   3.287   2.720   3.260
 1760SOL    HW1 5529   3.230   2.784   3.207
 1760SOL    HW2 5530   3.380   2.721   3.224
 1761SOL     OW 5531   1.928   2.019   2.169
 1761SOL    HW1 5532   1.911   2.103   2.118
 1761SOL    HW2 5533   2.017   1.981   2.142
 1762SOL     OW 5534   3.046   3.202   1.981
 1762SOL    HW1 5535   2.950   3.173   1.973
 1762SOL    HW2 5536   3.073   3.202   2.077
 1763SOL     OW 5537   2.483   2.694   3.296
 1763SOL    HW1 5538   2.542   2.774   3.279
 1763SOL    HW2 5539   2.540   2.613   3.309
 1764SOL     OW 5540   2.585   2.424   3.564
 1764SOL    HW1 5541   2.622   2.492   3.626
 1764SOL    HW2 5542   2.605   2.332   3.598
 1765SOL     OW 5543   3.336   3.065   3.491
 1765SOL    HW1 5544   3.320   3.071   3.590
 1765SOL    HW2 5545   3.433   3.079   3.472
 1766SOL     OW 5546   2.236   3.605   3.449
 1766SOL    HW1 5547   2.146   3.649   3.452
 1766SOL    HW2 5548   2.229   3.514   3.491
 1767SOL     OW 5549   3.528   2.741   3.121
 1767SOL    HW1 5550   3.525   2.650   3.079
 1767SOL    HW2 5551   3.518   2.811   3.050
 1768SOL     OW 5552   3.081   2.179   2.321
 1768SOL    HW1 5553   3.144   2.103   2.307
 1768SOL    HW2 5554   3.109   2.232   2.402
 1769SOL     OW 5555   2.431   2.622   2.537
 1769SOL    HW1 5556   2.479   2.706   2.514
 1769SOL    HW2 5557   2.368   2.599   2.463
 1770SOL     OW 5558   3.616   2.229   3.515
 1770SOL    HW1 5559   3.606   2.243   3.416
 1770SOL    HW2 5560   3.544   2.168   3.548
 1771SOL     OW 5561   3.620   2.790   3.373
 1771SOL    HW1 5562   3.609   2.886   3.399
 1771SOL    HW2 5563   3.594   2.778   3.277
 1772SOL     OW 5564   2.728   3.228   1.900
 1772SOL    HW1 5565   2.685   3.254   1.986
 1772SOL    HW2 5566   2.745   3.310   1.845
 1773SOL     OW 5567   2.544   3.687   2.857
 1773SOL    HW1 5568   2.492   3.710   2.775
 1773SOL    HW2 5569   2.620   3.628   2.833
 1774SOL     OW 5570   2.728   2.835   2.727
 1774SOL    HW1 5571   2.755   2.753   2.777
 1774SOL    HW2 5572   2.686   2.900   2.790
 1775SOL     OW 5573   2.943   2.853   1.946
 1775SOL    HW1 5574   2.914   2.905   1.866
 1775SOL    HW2 5575   3.020   2.794   1.922
 1776SOL     OW 5576   3.744   3.409   2.708
 1776SOL    HW1 5577   3.650   3.436   2.687
 1776SOL    HW2 5578   3.742   3.333   2.773
 1777SOL     OW 5579   1.988   3.107   2.553
 1777SOL    HW1 5580   1.971   3.061   2.641
 1777SOL    HW2 5581   2.052   3.052   2.499
 1778SOL     OW 5582   2.514   3.258   3.484
 1778SOL    HW1 5583   2.418   3.238   3.464
 1778SOL    HW2 5584   2.521   3.349   3.525
 1779SOL     OW 5585   3.668   2.041   3.099
 1779SOL    HW1 5586   3.668   1.942   3.112
 1779SOL    HW2 5587   3.685   2.062   3.002
 1780SOL     OW 5588   2.287   2.292   2.387
 1780SOL    HW1 5589   2.327   2.222   2.327
 1780SOL    HW2 5590   2.236   2.246   2.461
 1781SOL     OW 5591   3.556   3.352   2.963
 1781SOL    HW1 5592   3.478   3.338   2.902
 1781SOL    HW2 5593   3.564   3.274   3.026
 1782SOL     OW 5594   2.192   2.416   3.151
 1782SOL    HW1 5595   2.250   2.359   3.210
 1782SOL    HW2 5596   2.208   2.390   3.056
 1783SOL     OW 5597   2.687   3.440   2.543
 1783SOL    HW1 5598   2.673   3.484   2.454
 1783SOL    HW2 5599   2.611   3.377   2.561
 1784SOL     OW 5600   3.294   2.092   2.979
 1784SOL    HW1 5601   3.318   2.003   3.018
 1784SOL    HW2 5602   3.238   2.143   3.044
 1785SOL     OW 5603   2.870   1.873   3.006
 1785SOL    HW1 5604   2.808   1.810   2.960
 1785SOL    HW2 5605   2.963   1.836   3.006
 1786SOL     OW 5606   2.634   3.194   2.180
 1786SOL    HW1 5607   2.602   3.099   2.185
 1786SOL    HW2 5608   2.720   3.203   2.230
 1787SOL     OW 5609   2.477   3.414   3.137
 1787SOL    HW1 5610   2.470   3.499   3.189
 1787SOL    HW2 5611   2.570   3.404   3.101
 1788SOL     OW 5612   3.214   1.914   2.027
 1788SOL    HW1 5613   3.257   1.846   1.968
 1788SOL    HW2 5614   3.123   1.883   2.053
 1789SOL     OW 5615   3.159   2.325   2.544
 1789SOL    HW1 5616   3.191   2.418   2.560
 1789SOL    HW2 5617   3.154   2.276   2.631
 1790SOL     OW 5618   3.444   2.066   2.742
 1790SOL    HW1 5619   3.386   2.085   2.821
 1790SOL    HW2 5620   3.448   2.147   2.684
 1791SOL     OW 5621   2.743   3.519   2.207
 1791SOL    HW1 5622   2.673   3.495   2.139
 1791SOL    HW2 5623   2.713   3.597   2.261
 1792SOL     OW 5624   2.063   2.471   3.859
 1792SOL    HW1 5625   1.964   2.477   3.871
 1792SOL    HW2 5626   2.084   2.453   3.763
 1793SOL     OW 5627   3.610   2.457   3.958
 1793SOL    HW1 5628   3.600   2.469   3.859
 1793SOL    HW2 5629   3.586   2.363   3.983
 1794SOL     OW 5630   2.093   3.600   0.185
 1794SOL    HW1 5631   2.159   3.623   0.257
 1794SOL    HW2 5632   2.142   3.577   0.101
 1795SOL     OW 5633   2.551   2.792   3.850
 1795SOL    HW1 5634   2.515   2.863   3.788
 1795SOL    HW2 5635   2.547   2.825   3.944
 1796SOL     OW 5636   1.885   3.451   3.845
 1796SOL    HW1 5637   1.876   3.352   3.842
 1796SOL    HW2 5638   1.866   3.484   3.938
 1797SOL     OW 5639   3.419   2.833   3.909
 1797SOL    HW1 5640   3.328   2.791   3.918
 1797SOL    HW2 5641   3.451   2.863   3.999
 1798SOL     OW 5642   2.448   2.571   3.966
 1798SOL    HW1 5643   2.483   2.644   3.907
 1798SOL    HW2 5644   2.403   2.612   0.045
 1799SOL     OW 5645   2.745   2.197   3.889
 1799SOL    HW1 5646   2.793   2.267   3.837
 1799SOL    HW2 5647   2.792   2.109   3.879
 1800SOL     OW 5648   2.856   3.350   0.196
 1800SOL    HW1 5649   2.777   3.411   0.199
 1800SOL    HW2 5650   2.881   3.323   0.289
 1801SOL     OW 5651   2.968   3.689   3.916
 1801SOL    HW1 5652   2.940   3.654   0.005
 1801SOL    HW2 5653   2.973   3.614   3.850
 1802SOL     OW 5654   2.315   3.594   0.018
 1802SOL    HW1 5655   2.352   3.671   0.070
 1802SOL    HW2 5656   2.387   3.555   3.960
 1803SOL     OW 5657   2.490   1.972   3.839
 1803SOL    HW1 5658   2.582   1.935   3.831
 1803SOL    HW2 5659   2.436   1.947   3.759
 1804SOL     OW 5660   3.288   3.047   3.753
 1804SOL    HW1 5661   3.338   2.983   3.813
 1804SOL    HW2 5662   3.212   3.087   3.804
 1805SOL     OW 5663   2.152   1.924   3.876
 1805SOL    HW1 5664   2.212   2.002   3.859
 1805SOL    HW2 5665   2.201   1.855   3.930
 1806SOL     OW 5666   2.884   2.413   3.736
 1806SOL    HW1 5667   2.833   2.493   3.706
 1806SOL    HW2 5668   2.926   2.430   3.825
 1807SOL     OW 5669   3.717   2.685   0.077
 1807SOL    HW1 5670   3.796   2.642   0.122
 1807SOL    HW2 5671   3.671   2.617   0.019
 1808SOL     OW 5672   2.353   3.272   3.908
 1808SOL    HW1 5673   2.258   3.255   3.934
 1808SOL    HW2 5674   2.373   3.225   3.823
 1809SOL     OW 5675   3.253   2.432   3.797
 1809SOL    HW1 5676   3.192   2.397   3.868
 1809SOL    HW2 5677   3.347   2.404   3.817
 1810SOL     OW 5678   3.377   2.548   0.163
 1810SOL    HW1 5679   3.392   2.557   0.261
 1810SOL    HW2 5680   3.456   2.586   0.114
 1811SOL     OW 5681   3.384   2.131   3.857
 1811SOL    HW1 5682   3.324   2.051   3.860
 1811SOL    HW2 5683   3.397   2.166   3.950
 1812SOL     OW 5684   3.163   2.692   3.764
 1812SOL    HW1 5685   3.193   2.597   3.762
 1812SOL    HW2 5686   3.187   2.736   3.677
 1813SOL     OW 5687   1.873   3.171   3.881
 1813SOL    HW1 5688   1.778   3.193   3.856
 1813SOL    HW2 5689   1.874   3.086   3.934
 1814SOL     OW 5690   2.670   2.423   0.031
 1814SOL    HW1 5691   2.655   2.340   3.976
 1814SOL    HW2 5692   2.592   2.484   0.022
 1815SOL     OW 5693   2.318   2.350   3.856
 1815SOL    HW1 5694   2.384   2.413   3.897
 1815SOL    HW2 5695   2.225   2.382   3.877
 1816SOL     OW 5696   3.538   1.949   0.192
 1816SOL    HW1 5697   3.631   1.981   0.208
 1816SOL    HW2 5698   3.515   1.878   0.259
 1817SOL     OW 5699   2.527   3.481   3.885
 1817SOL    HW1 5700   2.548   3.501   3.789
 1817SOL    HW2 5701   2.478   3.394   3.891
 1818SOL     OW 5702   3.052   3.463   3.768
 1818SOL    HW1 5703   3.047   3.363   3.780
 1818SOL    HW2 5704   3.001   3.489   3.686
 1819SOL     OW 5705   3.337   3.520   3.759
 1819SOL    HW1 5706   3.245   3.487   3.742
 1819SOL    HW2 5707   3.393   3.507   3.677
 1820SOL     OW 5708   2.109   3.227   0.013
 1820SOL    HW1 5709   2.022   3.206   3.969
 1820SOL    HW2 5710   2.093   3.273   0.100
 1821SOL     OW 5711   1.934   2.199   3.750
 1821SOL    HW1 5712   1.852   2.173   3.699
 1821SOL    HW2 5713   1.978   2.277   3.705
 1822SOL     OW 5714   3.038   3.199   3.843
 1822SOL    HW1 5715   2.956   3.145   3.823
 1822SOL    HW2 5716   3.066   3.183   3.937
 1823SOL     OW 5717   2.704   3.236   3.734
 1823SOL    HW1 5718   2.698   3.247   3.834
 1823SOL    HW2 5719   2.742   3.320   3.694
 1824SOL     OW 5720   2.958   2.881   3.813
 1824SOL    HW1 5721   2.912   2.911   3.729
 1824SOL    HW2 5722   3.022   2.808   3.792
 1825SOL     OW 5723   3.223   1.912   3.877
 1825SOL    HW1 5724   3.257   1.834   3.824
 1825SOL    HW2 5725   3.125   1.900   3.894
 1826SOL     OW 5726   1.910   2.938   0.018
 1826SOL    HW1 5727   2.007   2.930   0.038
 1826SOL    HW2 5728   1.862   2.857   0.051
 1827SOL     OW 5729   2.089   3.978   0.983
 1827SOL    HW1 5730   2.121   3.963   1.077
 1827SOL    HW2 5731   1.994   3.949   0.975
 1828SOL     OW 5732   1.879   0.059   0.709
 1828SOL    HW1 5733   1.805   0.119   0.679
 1828SOL    HW2 5734   1.914   0.007   0.630
 1829SOL     OW 5735   2.302   0.095   1.508
 1829SOL    HW1 5736   2.381   0.059   1.459
 1829SOL    HW2 5737   2.221   0.040   1.486
 1830SOL     OW 5738   3.466   3.859   1.466
 1830SOL    HW1 5739   3.438   3.941   1.417
 1830SOL    HW2 5740   3.454   3.873   1.565
 1831SOL     OW 5741   3.100   0.052   0.974
 1831SOL    HW1 5742   3.068   0.043   0.879
 1831SOL    HW2 5743   3.185   0.000   0.986
 1832SOL     OW 5744   2.413   3.905   0.893
 1832SOL    HW1 5745   2.411   3.918   0.993
 1832SOL    HW2 5746   2.409   3.994   0.848
 1833SOL     OW 5747   2.055   3.984   1.488
 1833SOL    HW1 5748   1.994   0.063   1.493
 1833SOL    HW2 5749   2.022   3.913   1.551
 1834SOL     OW 5750   3.279   3.798   0.430
 1834SOL    HW1 5751   3.261   3.780   0.334
 1834SOL    HW2 5752   3.378   3.804   0.445
 1835SOL     OW 5753   3.386   3.941   1.727
 1835SOL    HW1 5754   3.420   3.940   1.821
 1835SOL    HW2 5755   3.319   3.867   1.715
 1836SOL     OW 5756   2.423   3.817   0.115
 1836SOL    HW1 5757   2.494   3.869   0.162
 1836SOL    HW2 5758   2.438   3.820   0.016
 1837SOL     OW 5759   2.630   3.958   1.745
 1837SOL    HW1 5760   2.695   3.938   1.818
 1837SOL    HW2 5761   2.540   3.977   1.785
 1838SOL     OW 5762   2.383   3.788   0.506
 1838SOL    HW1 5763   2.349   3.779   0.600
 1838SOL    HW2 5764   2.401   3.884   0.486
 1839SOL     OW 5765   2.420   3.936   1.168
 1839SOL    HW1 5766   2.469   3.864   1.215
 1839SOL    HW2 5767   2.325   3.938   1.198
 1840SOL     OW 5768   2.885   3.769   0.738
 1840SOL    HW1 5769   2.803   3.783   0.682
 1840SOL    HW2 5770   2.866   3.701   0.808
 1841SOL     OW 5771   2.788   3.807   1.396
 1841SOL    HW1 5772   2.814   3.781   1.303
 1841SOL    HW2 5773   2.862   3.859   1.438
 1842SOL     OW 5774   3.130   0.069   1.267
 1842SOL    HW1 5775   3.163   0.131   1.338
 1842SOL    HW2 5776   3.074   0.121   1.202
 1843SOL     OW 5777   2.365   3.751   1.756
 1843SOL    HW1 5778   2.312   3.700   1.688
 1843SOL    HW2 5779   2.336   3.846   1.756
 1844SOL     OW 5780   2.157   3.922   1.249
 1844SOL    HW1 5781   2.115   3.946   1.337
 1844SOL    HW2 5782   2.146   3.824   1.233
 1845SOL     OW 5783   3.323   0.030   0.138
 1845SOL    HW1 5784   3.291   3.936   0.151
 1845SOL    HW2 5785   3.420   0.036   0.160
 1846SOL     OW 5786   3.027   3.926   1.478
 1846SOL    HW1 5787   3.034   0.002   1.542
 1846SOL    HW2 5788   3.062   3.954   1.388
 1847SOL     OW 5789   3.698   3.896   0.960
 1847SOL    HW1 5790   3.731   3.802   0.949
 1847SOL    HW2 5791   3.608   3.904   0.919
 1848SOL     OW 5792   2.542   3.910   1.492
 1848SOL    HW1 5793   2.626   3.901   1.438
 1848SOL    HW2 5794   2.566   3.932   1.586
 1849SOL     OW 5795   1.950   3.884   0.340
 1849SOL    HW1 5796   1.929   3.979   0.321
 1849SOL    HW2 5797   2.035   3.858   0.295
 1850SOL     OW 5798   3.583   0.120   1.622
 1850SOL    HW1 5799   3.620   0.084   1.537
 1850SOL    HW2 5800   3.564   0.044   1.685
 1851SOL     OW 5801   3.683   3.911   1.235
 1851SOL    HW1 5802   3.659   3.821   1.269
 1851SOL    HW2 5803   3.688   3.909   1.135
 1852SOL     OW 5804   3.311   3.936   1.120
 1852SOL    HW1 5805   3.331   3.843   1.152
 1852SOL    HW2 5806   3.241   3.978   1.178
 1853SOL     OW 5807   2.870   3.728   1.149
 1853SOL    HW1 5808   2.809   3.670   1.095
 1853SOL    HW2 5809   2.963   3.693   1.144
 1854SOL     OW 5810   3.204   3.777   0.167
 1854SOL    HW1 5811   3.233   3.752   0.074
 1854SOL    HW2 5812   3.118   3.731   0.189
 1855SOL     OW 5813   3.444   3.938   0.878
 1855SOL    HW1 5814   3.393   3.928   0.964
 1855SOL    HW2 5815   3.443   0.034   0.850
 1856SOL     OW 5816   2.091   3.992   2.848
 1856SOL    HW1 5817   2.119   3.984   2.944
 1856SOL    HW2 5818   2.002   3.949   2.835
 1857SOL     OW 5819   1.879   0.063   2.573
 1857SOL    HW1 5820   1.806   0.124   2.543
 1857SOL    HW2 5821   1.899   3.997   2.500
 1858SOL     OW 5822   3.635   0.308   2.056
 1858SOL    HW1 5823   3.563   0.302   1.987
 1858SOL    HW2 5824   3.595   0.329   2.145
 1859SOL     OW 5825   2.321   0.104   3.333
 1859SOL    HW1 5826   2.396   0.039   3.323
 1859SOL    HW2 5827   2.238   0.055   3.361
 1860SOL     OW 5828   3.460   3.850   3.326
 1860SOL    HW1 5829   3.457   3.941   3.283
 1860SOL    HW2 5830   3.450   3.860   3.425
 1861SOL     OW 5831   2.674   3.733   2.362
 1861SOL    HW1 5832   2.708   3.824   2.337
 1861SOL    HW2 5833   2.574   3.736   2.371
 1862SOL     OW 5834   3.123   0.066   2.799
 1862SOL    HW1 5835   3.035   0.027   2.772
 1862SOL    HW2 5836   3.174   3.999   2.852
 1863SOL     OW 5837   2.065   3.986   3.361
 1863SOL    HW1 5838   2.010   0.067   3.341
 1863SOL    HW2 5839   2.032   3.943   3.446
 1864SOL     OW 5840   3.265   3.827   2.283
 1864SOL    HW1 5841   3.235   3.802   2.190
 1864SOL    HW2 5842   3.355   3.786   2.300
 1865SOL     OW 5843   3.395   3.936   3.591
 1865SOL    HW1 5844   3.420   3.943   3.688
 1865SOL    HW2 5845   3.323   3.868   3.580
 1866SOL     OW 5846   2.493   3.846   1.985
 1866SOL    HW1 5847   2.589   3.818   1.990
 1866SOL    HW2 5848   2.448   3.799   1.910
 1867SOL     OW 5849   2.652   3.923   3.652
 1867SOL    HW1 5850   2.746   3.953   3.670
 1867SOL    HW2 5851   2.597   0.002   3.624
 1868SOL     OW 5852   2.392   3.779   2.335
 1868SOL    HW1 5853   2.372   3.763   2.431
 1868SOL    HW2 5854   2.389   3.877   2.316
 1869SOL     OW 5855   2.147   3.758   2.045
 1869SOL    HW1 5856   2.190   3.846   2.026
 1869SOL    HW2 5857   2.216   3.694   2.078
 1870SOL     OW 5858   2.439   3.955   3.032
 1870SOL    HW1 5859   2.478   3.867   3.005
 1870SOL    HW2 5860   2.344   3.942   3.059
 1871SOL     OW 5861   2.873   3.762   2.597
 1871SOL    HW1 5862   2.804   3.750   2.526
 1871SOL    HW2 5863   2.856   3.700   2.673
 1872SOL     OW 5864   2.785   3.805   3.260
 1872SOL    HW1 5865   2.809   3.776   3.167
 1872SOL    HW2 5866   2.861   3.856   3.300
 1873SOL     OW 5867   3.138   0.070   3.131
 1873SOL    HW1 5868   3.145   0.141   3.202
 1873SOL    HW2 5869   3.052   0.081   3.082
 1874SOL     OW 5870   2.366   3.756   3.623
 1874SOL    HW1 5871   2.313   3.707   3.554
 1874SOL    HW2 5872   2.342   3.853   3.620
 1875SOL     OW 5873   2.161   3.933   3.109
 1875SOL    HW1 5874   2.137   3.959   3.203
 1875SOL    HW2 5875   2.114   3.848   3.085
 1876SOL     OW 5876   3.438   3.956   1.989
 1876SOL    HW1 5877   3.377   3.890   2.033
 1876SOL    HW2 5878   3.448   0.036   2.047
 1877SOL     OW 5879   3.025   3.923   3.341
 1877SOL    HW1 5880   3.040   3.990   3.413
 1877SOL    HW2 5881   3.069   3.954   3.256
 1878SOL     OW 5882   2.768   3.809   1.971
 1878SOL    HW1 5883   2.813   3.776   1.889
 1878SOL    HW2 5884   2.816   3.775   2.052
 1879SOL     OW 5885   3.675   3.887   2.833
 1879SOL    HW1 5886   3.709   3.797   2.806
 1879SOL    HW2 5887   3.589   3.905   2.786
 1880SOL     OW 5888   2.534   3.907   3.354
 1880SOL    HW1 5889   2.617   3.894   3.300
 1880SOL    HW2 5890   2.559   3.934   3.447
 1881SOL     OW 5891   1.903   0.055   1.897
 1881SOL    HW1 5892   1.863   0.029   1.809
 1881SOL    HW2 5893   1.945   0.146   1.889
 1882SOL     OW 5894   1.924   3.867   2.170
 1882SOL    HW1 5895   1.910   3.960   2.135
 1882SOL    HW2 5896   2.009   3.830   2.133
 1883SOL     OW 5897   3.052   0.003   2.342
 1883SOL    HW1 5898   3.127   3.940   2.320
 1883SOL    HW2 5899   3.081   0.067   2.413
 1884SOL     OW 5900   3.637   0.049   3.509
 1884SOL    HW1 5901   3.612   0.082   3.417
 1884SOL    HW2 5902   3.559   0.001   3.549
 1885SOL     OW 5903   3.689   3.909   3.105
 1885SOL    HW1 5904   3.672   3.817   3.139
 1885SOL    HW2 5905   3.685   3.909   3.005
 1886SOL     OW 5906   3.298   3.926   2.973
 1886SOL    HW1 5907   3.350   3.857   3.023
 1886SOL    HW2 5908   3.240   3.977   3.036
 1887SOL     OW 5909   2.873   3.717   3.015
 1887SOL    HW1 5910   2.805   3.672   2.957
 1887SOL    HW2 5911   2.961   3.671   3.006
 1888SOL     OW 5912   3.206   3.766   2.022
 1888SOL    HW1 5913   3.239   3.709   1.946
 1888SOL    HW2 5914   3.116   3.733   2.051
 1889SOL     OW 5915   3.145   0.161   2.546
 1889SOL    HW1 5916   3.142   0.261   2.545
 1889SOL    HW2 5917   3.149   0.129   2.641
 1890SOL     OW 5918   3.437   3.959   2.727
 1890SOL    HW1 5919   3.381   3.934   2.806
 1890SOL    HW2 5920   3.434   0.058   2.714
 1891SOL     OW 5921   3.630   0.325   3.977
 1891SOL    HW1 5922   3.573   0.309   3.897
 1891SOL    HW2 5923   3.581   0.297   0.060
 1892SOL     OW 5924   2.489   3.803   3.855
 1892SOL    HW1 5925   2.568   3.852   3.818
 1892SOL    HW2 5926   2.430   3.773   3.781
 1893SOL     OW 5927   2.135   3.753   3.892
 1893SOL    HW1 5928   2.168   3.847   3.882
 1893SOL    HW2 5929   2.207   3.697   3.932
 1894SOL     OW 5930   3.016   0.252   0.038
 1894SOL    HW1 5931   3.095   0.202   0.001
 1894SOL    HW2 5932   3.043   0.347   0.055
 1895SOL     OW 5933   3.427   3.957   3.855
 1895SOL    HW1 5934   3.381   3.875   3.888
 1895SOL    HW2 5935   3.439   0.022   3.931
 1896SOL     OW 5936   2.270   0.264   3.926
 1896SOL    HW1 5937   2.362   0.304   3.926
 1896SOL    HW2 5938   2.204   0.333   3.956
 1897SOL     OW 5939   3.536   3.833   0.252
 1897SOL    HW1 5940   3.633   3.838   0.229
 1897SOL    HW2 5941   3.509   3.738   0.267
 1898SOL     OW 5942   1.889   0.056   3.776
 1898SOL    HW1 5943   1.849   0.030   3.689
 1898SOL    HW2 5944   1.963   0.122   3.761
 1899SOL     OW 5945   1.905   3.876   0.028
 1899SOL    HW1 5946   1.894   3.949   3.960
 1899SOL    HW2 5947   1.980   3.816   0.001
 1900SOL     OW 5948   3.227   3.764   3.880
 1900SOL    HW1 5949   3.263   3.689   3.826
 1900SOL    HW2 5950   3.128   3.754   3.889
 1901SOL     OW 5951   3.939   0.643   0.133
 1901SOL    HW1 5952   3.868   0.594   0.183
 1901SOL    HW2 5953   3.949   0.603   0.042
 1902SOL     OW 5954   3.949   0.297   1.000
 1902SOL    HW1 5955   3.966   0.271   1.095
 1902SOL    HW2 5956   3.860   0.262   0.971
 1903SOL     OW 5957   3.726   0.395   0.638
 1903SOL    HW1 5958   3.634   0.415   0.672
 1903SOL    HW2 5959   3.722   0.321   0.571
 1904SOL     OW 5960   3.997   1.512   1.021
 1904SOL    HW1 5961   3.954   1.423   1.008
 1904SOL    HW2 5962   0.080   1.517   0.965
 1905SOL     OW 5963   3.942   1.718   0.485
 1905SOL    HW1 5964   3.949   1.795   0.548
 1905SOL    HW2 5965   0.033   1.695   0.450
 1906SOL     OW 5966   3.933   1.437   0.503
 1906SOL    HW1 5967   3.925   1.535   0.520
 1906SOL    HW2 5968   3.886   1.387   0.575
 1907SOL     OW 5969   3.807   0.648   0.563
 1907SOL    HW1 5970   3.789   0.552   0.585
 1907SOL    HW2 5971   3.812   0.701   0.647
 1908SOL     OW 5972   3.704   1.596   0.122
 1908SOL    HW1 5973   3.737   1.507   0.153
 1908SOL    HW2 5974   3.718   1.664   0.194
 1909SOL     OW 5975   3.832   0.765   1.573
 1909SOL    HW1 5976   3.888   0.797   1.649
 1909SOL    HW2 5977   3.761   0.833   1.553
 1910SOL     OW 5978   3.805   0.820   0.773
 1910SOL    HW1 5979   3.903   0.815   0.790
 1910SOL    HW2 5980   3.766   0.896   0.824
 1911SOL     OW 5981   3.848   1.871   1.574
 1911SOL    HW1 5982   3.847   1.846   1.670
 1911SOL    HW2 5983   3.769   1.829   1.528
 1912SOL     OW 5984   3.903   0.301   1.517
 1912SOL    HW1 5985   3.846   0.359   1.459
 1912SOL    HW2 5986   3.849   0.267   1.594
 1913SOL     OW 5987   3.812   0.553   1.391
 1913SOL    HW1 5988   3.910   0.543   1.379
 1913SOL    HW2 5989   3.793   0.635   1.446
 1914SOL     OW 5990   0.274   0.297   0.336
 1914SOL    HW1 5991   0.318   0.217   0.295
 1914SOL    HW2 5992   0.276   0.373   0.272
 1915SOL     OW 5993   3.779   1.563   1.339
 1915SOL    HW1 5994   3.754   1.632   1.271
 1915SOL    HW2 5995   3.879   1.559   1.346
 1916SOL     OW 5996   0.080   1.096   0.531
 1916SOL    HW1 5997   0.067   1.146   0.445
 1916SOL    HW2 5998   0.137   1.016   0.515
 1917SOL     OW 5999   0.005   0.211   1.252
 1917SOL    HW1 6000   3.967   0.238   1.341
 1917SOL    HW2 6001   3.999   0.112   1.241
 1918SOL     OW 6002   3.722   1.330   0.212
 1918SOL    HW1 6003   3.638   1.337   0.157
 1918SOL    HW2 6004   3.728   1.238   0.252
 1919SOL     OW 6005   3.802   1.799   0.938
 1919SOL    HW1 6006   3.773   1.713   0.895
 1919SOL    HW2 6007   3.900   1.810   0.926
 1920SOL     OW 6008   0.212   1.553   0.865
 1920SOL    HW1 6009   0.283   1.623   0.870
 1920SOL    HW2 6010   0.235   1.486   0.794
 1921SOL     OW 6011   3.754   0.538   1.119
 1921SOL    HW1 6012   3.834   0.524   1.061
 1921SOL    HW2 6013   3.783   0.551   1.213
 1922SOL     OW 6014   3.907   0.539   1.713
 1922SOL    HW1 6015   3.955   0.479   1.648
 1922SOL    HW2 6016   3.844   0.598   1.664
 1923SOL     OW 6017   3.931   1.545   1.737
 1923SOL    HW1 6018   3.962   1.571   1.828
 1923SOL    HW2 6019   3.991   1.473   1.700
 1924SOL     OW 6020   3.815   1.259   1.023
 1924SOL    HW1 6021   3.767   1.277   1.110
 1924SOL    HW2 6022   3.758   1.200   0.966
 1925SOL     OW 6023   3.832   1.819   1.841
 1925SOL    HW1 6024   3.798   1.735   1.883
 1925SOL    HW2 6025   3.920   1.844   1.881
 1926SOL     OW 6026   3.787   0.175   0.368
 1926SOL    HW1 6027   3.752   0.251   0.314
 1926SOL    HW2 6028   3.887   0.169   0.357
 1927SOL     OW 6029   3.810   1.244   0.665
 1927SOL    HW1 6030   3.765   1.188   0.734
 1927SOL    HW2 6031   3.888   1.194   0.627
 1928SOL     OW 6032   3.754   1.079   0.324
 1928SOL    HW1 6033   3.844   1.081   0.279
 1928SOL    HW2 6034   3.730   0.984   0.344
 1929SOL     OW 6035   3.945   0.630   1.973
 1929SOL    HW1 6036   3.860   0.635   2.025
 1929SOL    HW2 6037   3.927   0.593   1.882
 1930SOL     OW 6038   3.731   0.397   2.497
 1930SOL    HW1 6039   3.641   0.415   2.537
 1930SOL    HW2 6040   3.725   0.318   2.436
 1931SOL     OW 6041   0.014   1.521   2.910
 1931SOL    HW1 6042   3.961   1.437   2.900
 1931SOL    HW2 6043   0.087   1.523   2.841
 1932SOL     OW 6044   3.946   1.724   2.334
 1932SOL    HW1 6045   3.949   1.800   2.399
 1932SOL    HW2 6046   0.039   1.701   2.305
 1933SOL     OW 6047   3.939   1.441   2.376
 1933SOL    HW1 6048   3.924   1.540   2.375
 1933SOL    HW2 6049   3.880   1.399   2.445
 1934SOL     OW 6050   3.811   0.650   2.423
 1934SOL    HW1 6051   3.785   0.556   2.446
 1934SOL    HW2 6052   3.813   0.705   2.506
 1935SOL     OW 6053   3.756   1.603   1.997
 1935SOL    HW1 6054   3.738   1.505   2.006
 1935SOL    HW2 6055   3.719   1.652   2.076
 1936SOL     OW 6056   3.826   0.743   3.448
 1936SOL    HW1 6057   3.917   0.782   3.462
 1936SOL    HW2 6058   3.759   0.817   3.438
 1937SOL     OW 6059   3.806   0.821   2.634
 1937SOL    HW1 6060   3.903   0.812   2.656
 1937SOL    HW2 6061   3.766   0.896   2.687
 1938SOL     OW 6062   3.848   1.871   3.439
 1938SOL    HW1 6063   3.853   1.840   3.533
 1938SOL    HW2 6064   3.764   1.837   3.397
 1939SOL     OW 6065   3.924   0.314   3.400
 1939SOL    HW1 6066   3.856   0.344   3.333
 1939SOL    HW2 6067   3.919   0.215   3.411
 1940SOL     OW 6068   3.806   0.555   3.251
 1940SOL    HW1 6069   3.905   0.547   3.238
 1940SOL    HW2 6070   3.787   0.628   3.316
 1941SOL     OW 6071   3.790   1.571   3.206
 1941SOL    HW1 6072   3.758   1.638   3.140
 1941SOL    HW2 6073   3.890   1.577   3.214
 1942SOL     OW 6074   0.071   1.091   2.391
 1942SOL    HW1 6075   0.064   1.146   2.308
 1942SOL    HW2 6076   0.139   1.018   2.377
 1943SOL     OW 6077   3.739   1.311   3.148
 1943SOL    HW1 6078   3.784   1.248   3.213
 1943SOL    HW2 6079   3.765   1.405   3.169
 1944SOL     OW 6080   3.728   1.328   2.048
 1944SOL    HW1 6081   3.639   1.345   2.005
 1944SOL    HW2 6082   3.726   1.241   2.096
 1945SOL     OW 6083   3.803   1.795   2.802
 1945SOL    HW1 6084   3.775   1.711   2.756
 1945SOL    HW2 6085   3.900   1.811   2.786
 1946SOL     OW 6086   0.212   1.552   2.731
 1946SOL    HW1 6087   0.282   1.624   2.732
 1946SOL    HW2 6088   0.234   1.486   2.659
 1947SOL     OW 6089   3.757   0.548   2.981
 1947SOL    HW1 6090   3.841   0.530   2.931
 1947SOL    HW2 6091   3.777   0.553   3.079
 1948SOL     OW 6092   3.916   0.527   3.577
 1948SOL    HW1 6093   3.927   0.453   3.511
 1948SOL    HW2 6094   3.867   0.603   3.534
 1949SOL     OW 6095   3.939   1.535   3.586
 1949SOL    HW1 6096   3.938   1.613   3.648
 1949SOL    HW2 6097   3.999   1.464   3.623
 1950SOL     OW 6098   3.852   1.115   3.316
 1950SOL    HW1 6099   3.905   1.125   3.400
 1950SOL    HW2 6100   3.914   1.092   3.240
 1951SOL     OW 6101   3.807   1.265   2.879
 1951SOL    HW1 6102   3.780   1.277   2.975
 1951SOL    HW2 6103   3.745   1.199   2.835
 1952SOL     OW 6104   3.846   1.794   3.699
 1952SOL    HW1 6105   3.790   1.728   3.750
 1952SOL    HW2 6106   3.899   1.849   3.764
 1953SOL     OW 6107   3.827   0.326   1.862
 1953SOL    HW1 6108   3.742   0.320   1.914
 1953SOL    HW2 6109   3.827   0.410   1.807
 1954SOL     OW 6110   3.805   0.156   2.206
 1954SOL    HW1 6111   3.763   0.219   2.140
 1954SOL    HW2 6112   3.899   0.137   2.179
 1955SOL     OW 6113   3.799   1.235   2.527
 1955SOL    HW1 6114   3.789   1.184   2.612
 1955SOL    HW2 6115   3.882   1.205   2.479
 1956SOL     OW 6116   3.754   1.081   2.172
 1956SOL    HW1 6117   3.848   1.092   2.140
 1956SOL    HW2 6118   3.736   0.984   2.192
 1957SOL     OW 6119   3.936   0.618   3.840
 1957SOL    HW1 6120   3.844   0.641   3.872
 1957SOL    HW2 6121   3.933   0.591   3.744
 1958SOL     OW 6122   3.720   1.601   3.850
 1958SOL    HW1 6123   3.751   1.506   3.845
 1958SOL    HW2 6124   3.708   1.626   3.946
 1959SOL     OW 6125   3.740   1.323   3.898
 1959SOL    HW1 6126   3.646   1.328   3.865
 1959SOL    HW2 6127   3.754   1.237   3.947
 1960SOL     OW 6128   3.806   0.334   3.720
 1960SOL    HW1 6129   3.710   0.326   3.696
 1960SOL    HW2 6130   3.846   0.414   3.675
 1961SOL     OW 6131   3.778   1.087   0.016
 1961SOL    HW1 6132   3.867   1.061   3.977
 1961SOL    HW2 6133   3.728   1.005   0.043
 1962SOL     OW 6134   3.937   2.505   0.133
 1962SOL    HW1 6135   3.867   2.452   0.181
 1962SOL    HW2 6136   3.951   2.466   0.042
 1963SOL     OW 6137   3.958   2.125   0.988
 1963SOL    HW1 6138   3.969   2.123   1.088
 1963SOL    HW2 6139   3.862   2.108   0.965
 1964SOL     OW 6140   0.021   3.372   1.075
 1964SOL    HW1 6141   3.982   3.285   1.044
 1964SOL    HW2 6142   0.093   3.401   1.012
 1965SOL     OW 6143   3.938   3.300   0.513
 1965SOL    HW1 6144   3.932   3.398   0.531
 1965SOL    HW2 6145   3.878   3.251   0.575
 1966SOL     OW 6146   3.718   3.457   0.111
 1966SOL    HW1 6147   3.733   3.365   0.147
 1966SOL    HW2 6148   3.724   3.523   0.186
 1967SOL     OW 6149   3.824   2.608   1.581
 1967SOL    HW1 6150   3.915   2.641   1.606
 1967SOL    HW2 6151   3.761   2.685   1.574
 1968SOL     OW 6152   3.801   2.688   0.794
 1968SOL    HW1 6153   3.900   2.675   0.799
 1968SOL    HW2 6154   3.776   2.774   0.838
 1969SOL     OW 6155   3.854   3.678   1.555
 1969SOL    HW1 6156   3.861   3.662   1.653
 1969SOL    HW2 6157   3.758   3.669   1.526
 1970SOL     OW 6158   3.923   2.158   1.514
 1970SOL    HW1 6159   3.837   2.203   1.487
 1970SOL    HW2 6160   3.902   2.072   1.560
 1971SOL     OW 6161   0.018   1.863   0.145
 1971SOL    HW1 6162   0.014   1.951   0.192
 1971SOL    HW2 6163   0.103   1.816   0.169
 1972SOL     OW 6164   3.808   2.414   1.390
 1972SOL    HW1 6165   3.907   2.404   1.380
 1972SOL    HW2 6166   3.788   2.490   1.452
 1973SOL     OW 6167   0.293   2.133   0.334
 1973SOL    HW1 6168   0.313   2.108   0.239
 1973SOL    HW2 6169   0.318   2.229   0.349
 1974SOL     OW 6170   0.072   2.955   0.529
 1974SOL    HW1 6171   0.063   3.015   0.450
 1974SOL    HW2 6172   0.144   2.888   0.512
 1975SOL     OW 6173   0.005   2.077   1.252
 1975SOL    HW1 6174   3.974   2.108   1.342
 1975SOL    HW2 6175   0.013   1.978   1.252
 1976SOL     OW 6176   3.995   1.924   0.656
 1976SOL    HW1 6177   0.028   2.018   0.662
 1976SOL    HW2 6178   0.020   1.874   0.739
 1977SOL     OW 6179   3.719   3.199   0.209
 1977SOL    HW1 6180   3.623   3.220   0.189
 1977SOL    HW2 6181   3.728   3.102   0.230
 1978SOL     OW 6182   3.806   3.648   0.967
 1978SOL    HW1 6183   3.774   3.570   0.914
 1978SOL    HW2 6184   3.904   3.662   0.952
 1979SOL     OW 6185   0.207   3.428   0.880
 1979SOL    HW1 6186   0.271   3.504   0.872
 1979SOL    HW2 6187   0.229   3.359   0.811
 1980SOL     OW 6188   3.760   2.406   1.122
 1980SOL    HW1 6189   3.846   2.389   1.074
 1980SOL    HW2 6190   3.777   2.411   1.220
 1981SOL     OW 6191   3.910   2.385   1.714
 1981SOL    HW1 6192   3.931   2.314   1.648
 1981SOL    HW2 6193   3.859   2.458   1.668
 1982SOL     OW 6194   3.815   3.119   0.975
 1982SOL    HW1 6195   3.789   3.132   1.070
 1982SOL    HW2 6196   3.753   3.053   0.932
 1983SOL     OW 6197   3.867   3.630   1.825
 1983SOL    HW1 6198   3.807   3.564   1.870
 1983SOL    HW2 6199   3.889   3.704   1.889
 1984SOL     OW 6200   3.772   2.205   0.037
 1984SOL    HW1 6201   3.712   2.127   0.022
 1984SOL    HW2 6202   3.795   2.247   3.949
 1985SOL     OW 6203   3.774   2.033   0.311
 1985SOL    HW1 6204   3.759   2.120   0.263
 1985SOL    HW2 6205   3.870   2.026   0.336
 1986SOL     OW 6206   3.802   3.103   0.659
 1986SOL    HW1 6207   3.792   3.050   0.743
 1986SOL    HW2 6208   3.873   3.063   0.602
 1987SOL     OW 6209   3.758   2.936   0.335
 1987SOL    HW1 6210   3.825   2.943   0.261
 1987SOL    HW2 6211   3.744   2.840   0.359
 1988SOL     OW 6212   3.946   2.512   1.962
 1988SOL    HW1 6213   3.860   2.512   2.012
 1988SOL    HW2 6214   3.934   2.464   1.875
 1989SOL     OW 6215   3.960   2.124   2.850
 1989SOL    HW1 6216   3.969   2.122   2.950
 1989SOL    HW2 6217   3.863   2.111   2.826
 1990SOL     OW 6218   3.732   2.256   2.509
 1990SOL    HW1 6219   3.643   2.262   2.552
 1990SOL    HW2 6220   3.726   2.200   2.426
 1991SOL     OW 6221   0.013   3.382   2.907
 1991SOL    HW1 6222   3.959   3.298   2.897
 1991SOL    HW2 6223   0.088   3.382   2.841
 1992SOL     OW 6224   3.942   3.582   2.343
 1992SOL    HW1 6225   3.964   3.658   2.404
 1992SOL    HW2 6226   0.025   3.549   2.299
 1993SOL     OW 6227   3.933   3.301   2.371
 1993SOL    HW1 6228   3.918   3.399   2.378
 1993SOL    HW2 6229   3.881   3.254   2.443
 1994SOL     OW 6230   3.817   2.506   2.423
 1994SOL    HW1 6231   3.786   2.413   2.445
 1994SOL    HW2 6232   3.813   2.563   2.505
 1995SOL     OW 6233   3.804   3.451   2.049
 1995SOL    HW1 6234   3.745   3.405   1.983
 1995SOL    HW2 6235   3.749   3.513   2.105
 1996SOL     OW 6236   3.826   2.607   3.448
 1996SOL    HW1 6237   3.919   2.642   3.465
 1996SOL    HW2 6238   3.763   2.684   3.436
 1997SOL     OW 6239   3.803   2.683   2.631
 1997SOL    HW1 6240   3.899   2.674   2.655
 1997SOL    HW2 6241   3.762   2.757   2.684
 1998SOL     OW 6242   3.848   3.726   3.442
 1998SOL    HW1 6243   3.853   3.698   3.538
 1998SOL    HW2 6244   3.762   3.695   3.402
 1999SOL     OW 6245   3.924   2.157   3.377
 1999SOL    HW1 6246   3.842   2.204   3.344
 1999SOL    HW2 6247   3.898   2.069   3.417
 2000SOL     OW 6248   3.809   2.415   3.253
 2000SOL    HW1 6249   3.908   2.407   3.238
 2000SOL    HW2 6250   3.791   2.491   3.316
 2001SOL     OW 6251   0.239   2.141   2.177
 2001SOL    HW1 6252   0.270   2.056   2.135
 2001SOL    HW2 6253   0.315   2.206   2.180
 2002SOL     OW 6254   3.789   3.435   3.209
 2002SOL    HW1 6255   3.755   3.497   3.138
 2002SOL    HW2 6256   3.889   3.441   3.214
 2003SOL     OW 6257   0.074   2.955   2.387
 2003SOL    HW1 6258   0.062   3.008   2.303
 2003SOL    HW2 6259   0.124   2.871   2.367
 2004SOL     OW 6260   0.004   2.076   3.114
 2004SOL    HW1 6261   3.977   2.107   3.205
 2004SOL    HW2 6262   0.016   1.977   3.114
 2005SOL     OW 6263   3.756   3.174   3.143
 2005SOL    HW1 6264   3.800   3.120   3.215
 2005SOL    HW2 6265   3.766   3.271   3.162
 2006SOL     OW 6266   3.998   1.924   2.514
 2006SOL    HW1 6267   0.012   2.022   2.527
 2006SOL    HW2 6268   0.021   1.876   2.599
 2007SOL     OW 6269   3.802   3.655   2.795
 2007SOL    HW1 6270   3.786   3.563   2.761
 2007SOL    HW2 6271   3.899   3.678   2.787
 2008SOL     OW 6272   0.214   3.411   2.731
 2008SOL    HW1 6273   0.280   3.487   2.728
 2008SOL    HW2 6274   0.238   3.344   2.661
 2009SOL     OW 6275   3.757   2.403   2.983
 2009SOL    HW1 6276   3.843   2.395   2.931
 2009SOL    HW2 6277   3.778   2.411   3.080
 2010SOL     OW 6278   3.903   2.382   3.579
 2010SOL    HW1 6279   3.934   2.316   3.510
 2010SOL    HW2 6280   3.858   2.459   3.534
 2011SOL     OW 6281   3.935   3.395   3.589
 2011SOL    HW1 6282   3.941   3.479   3.642
 2011SOL    HW2 6283   3.990   3.324   3.632
 2012SOL     OW 6284   3.859   2.993   3.334
 2012SOL    HW1 6285   3.932   2.989   3.403
 2012SOL    HW2 6286   3.892   2.953   3.248
 2013SOL     OW 6287   3.807   3.128   2.876
 2013SOL    HW1 6288   3.783   3.142   2.972
 2013SOL    HW2 6289   3.744   3.064   2.834
 2014SOL     OW 6290   3.839   3.653   3.705
 2014SOL    HW1 6291   3.790   3.591   3.766
 2014SOL    HW2 6292   3.898   3.713   3.758
 2015SOL     OW 6293   3.814   2.192   1.881
 2015SOL    HW1 6294   3.718   2.163   1.882
 2015SOL    HW2 6295   3.824   2.270   1.820
 2016SOL     OW 6296   3.810   3.097   2.527
 2016SOL    HW1 6297   3.797   3.048   2.614
 2016SOL    HW2 6298   3.891   3.061   2.481
 2017SOL     OW 6299   3.750   2.940   2.178
 2017SOL    HW1 6300   3.834   2.955   2.127
 2017SOL    HW2 6301   3.738   2.842   2.196
 2018SOL     OW 6302   3.938   2.478   3.841
 2018SOL    HW1 6303   3.855   2.530   3.862
 2018SOL    HW2 6304   3.933   2.442   3.748
 2019SOL     OW 6305   3.994   1.932   3.881
 2019SOL    HW1 6306   0.075   1.985   3.858
 2019SOL    HW2 6307   0.003   1.894   3.973
 2020SOL     OW 6308   0.300   2.102   0.069
 2020SOL    HW1 6309   0.297   2.031   3.999
 2020SOL    HW2 6310   0.224   2.165   0.056
 2021SOL     OW 6311   3.800   2.211   3.759
 2021SOL    HW1 6312   3.726   2.154   3.723
 2021SOL    HW2 6313   3.823   2.281   3.691
 2022SOL     OW 6314   3.780   2.946   0.045
 2022SOL    HW1 6315   3.850   2.948   3.974
 2022SOL    HW2 6316   3.741   2.854   0.051
 2023SOL     OW 6317   3.959   3.977   0.992
 2023SOL    HW1 6318   3.966   3.970   1.092
 2023SOL    HW2 6319   3.866   3.951   0.964
 2024SOL     OW 6320   3.757   0.094   0.707
 2024SOL    HW1 6321   3.703   0.170   0.742
 2024SOL    HW2 6322   3.731   0.075   0.612
 2025SOL     OW 6323   0.014   3.742   0.154
 2025SOL    HW1 6324   0.036   3.833   0.119
 2025SOL    HW2 6325   0.097   3.698   0.188
 2026SOL     OW 6326   0.005   3.930   1.256
 2026SOL    HW1 6327   0.052   3.940   1.343
 2026SOL    HW2 6328   0.005   3.834   1.228
 2027SOL     OW 6329   3.785   0.075   0.032
 2027SOL    HW1 6330   3.755   3.992   3.984
 2027SOL    HW2 6331   3.780   0.153   3.970
 2028SOL     OW 6332   3.809   3.883   0.291
 2028SOL    HW1 6333   3.820   3.982   0.296
 2028SOL    HW2 6334   3.898   3.839   0.278
 2029SOL     OW 6335   3.942   3.931   2.832
 2029SOL    HW1 6336   3.962   3.999   2.903
 2029SOL    HW2 6337   3.843   3.916   2.827
 2030SOL     OW 6338   3.762   0.070   2.546
 2030SOL    HW1 6339   3.680   0.121   2.571
 2030SOL    HW2 6340   3.740   0.007   2.471
 2031SOL     OW 6341   3.914   0.029   3.369
 2031SOL    HW1 6342   3.822   0.035   3.329
 2031SOL    HW2 6343   3.919   3.948   3.428
 2032SOL     OW 6344   3.998   3.768   2.046
 2032SOL    HW1 6345   0.057   3.804   1.973
 2032SOL    HW2 6346   0.038   3.685   2.084
 2033SOL     OW 6347   0.028   3.889   3.134
 2033SOL    HW1 6348   3.970   3.953   3.184
 2033SOL    HW2 6349   3.971   3.828   3.080
 2034SOL     OW 6350   0.033   3.785   2.510
 2034SOL    HW1 6351   0.022   3.881   2.534
 2034SOL    HW2 6352   0.041   3.731   2.594
 2035SOL     OW 6353   3.784   3.873   2.185
 2035SOL    HW1 6354   3.772   3.967   2.154
 2035SOL    HW2 6355   3.865   3.833   2.143
 2036SOL     OW 6356   3.993   3.792   3.869
 2036SOL    HW1 6357   0.059   3.863   3.843
 2036SOL    HW2 6358   0.029   3.740   3.946
 2037SOL     OW 6359   3.796   0.067   3.745
 2037SOL    HW1 6360   3.741   0.027   3.672
 2037SOL    HW2 6361   3.803   0.166   3.732
   4.00000   4.00000   4.00000
