;
;	File 'topol.top' was generated
;	By user: unknown (93529)
;	On host: khas023
;	At date: Mon Apr  6 09:40:34 2026
;
;	This is a standalone topology file
;
;	Created by:
;	              :-) GROMACS - gmx pdb2gmx, 2021.4-plumed-2.8.0 (-:
;	
;	Executable:   /home/apps/centos7/gromacs/2021.4/gcc9.1_ompi4.1.2/bin/gmx_mpi
;	Data prefix:  /home/apps/centos7/gromacs/2021.4/gcc9.1_ompi4.1.2
;	Working dir:  /scratch/mse/phd/msz208502/dev_gromacs/polymers/21_PHE_wat
;	Command line:
;	  gmx_mpi pdb2gmx -f 21_PHE.pdb -o processed.gro -water tip3p -ignh -ff charmm27
;	Force field was read from the standard GROMACS share directory.
;

; Include forcefield parameters
#include "charmm27.ff/forcefield.itp"

[ moleculetype ]
; Name            nrexcl
Protein_chain_A     3

[ atoms ]
;   nr       type  resnr residue  atom   cgnr     charge       mass  typeB    chargeB      massB
; residue   1 PHE rtp PHE  q  0.0
     1        NH3      1    PHE      N      1       -0.3     14.007
     2         HC      1    PHE     H1      2       0.33      1.008
     3         HC      1    PHE     H2      3       0.33      1.008
     4         HC      1    PHE     H3      4       0.33      1.008
     5        CT1      1    PHE     CA      5       0.21     12.011
     6         HB      1    PHE     HA      6        0.1      1.008
     7        CT2      1    PHE     CB      7      -0.18     12.011
     8         HA      1    PHE    HB1      8       0.09      1.008
     9         HA      1    PHE    HB2      9       0.09      1.008
    10         CA      1    PHE     CG     10          0     12.011
    11         CA      1    PHE    CD1     11     -0.115     12.011
    12         HP      1    PHE    HD1     12      0.115      1.008
    13         CA      1    PHE    CE1     13     -0.115     12.011
    14         HP      1    PHE    HE1     14      0.115      1.008
    15         CA      1    PHE     CZ     15     -0.115     12.011
    16         HP      1    PHE     HZ     16      0.115      1.008
    17         CA      1    PHE    CD2     17     -0.115     12.011
    18         HP      1    PHE    HD2     18      0.115      1.008
    19         CA      1    PHE    CE2     19     -0.115     12.011
    20         HP      1    PHE    HE2     20      0.115      1.008
    21         CC      1    PHE      C     21       0.34     12.011
    22         OC      1    PHE    OT1     22      -0.67    15.9994
    23         OC      1    PHE    OT2     23      -0.67    15.9994   ; qtot 0

[ bonds ]
;  ai    aj funct            c0            c1            c2            c3
    1     2     1 
    1     3     1 
    1     4     1 
    1     5     1 
    5     6     1 
    5     7     1 
    5    21     1 
    7     8     1 
    7     9     1 
    7    10     1 
   10    11     1 
   10    17     1 
   11    12     1 
   11    13     1 
   13    14     1 
   13    15     1 
   15    16     1 
   15    19     1 
   17    18     1 
   17    19     1 
   19    20     1 
   21    22     1 
   21    23     1 

[ pairs ]
;  ai    aj funct            c0            c1            c2            c3
    1     8     1 
    1     9     1 
    1    10     1 
    1    22     1 
    1    23     1 
    2     6     1 
    2     7     1 
    2    21     1 
    3     6     1 
    3     7     1 
    3    21     1 
    4     6     1 
    4     7     1 
    4    21     1 
    5    11     1 
    5    17     1 
    6     8     1 
    6     9     1 
    6    10     1 
    6    22     1 
    6    23     1 
    7    12     1 
    7    13     1 
    7    18     1 
    7    19     1 
    7    22     1 
    7    23     1 
    8    11     1 
    8    17     1 
    8    21     1 
    9    11     1 
    9    17     1 
    9    21     1 
   10    14     1 
   10    15     1 
   10    20     1 
   10    21     1 
   11    16     1 
   11    18     1 
   11    19     1 
   12    14     1 
   12    15     1 
   12    17     1 
   13    17     1 
   13    20     1 
   14    16     1 
   14    19     1 
   15    18     1 
   16    17     1 
   16    20     1 
   18    20     1 

[ angles ]
;  ai    aj    ak funct            c0            c1            c2            c3
    2     1     3     5 
    2     1     4     5 
    2     1     5     5 
    3     1     4     5 
    3     1     5     5 
    4     1     5     5 
    1     5     6     5 
    1     5     7     5 
    1     5    21     5 
    6     5     7     5 
    6     5    21     5 
    7     5    21     5 
    5     7     8     5 
    5     7     9     5 
    5     7    10     5 
    8     7     9     5 
    8     7    10     5 
    9     7    10     5 
    7    10    11     5 
    7    10    17     5 
   11    10    17     5 
   10    11    12     5 
   10    11    13     5 
   12    11    13     5 
   11    13    14     5 
   11    13    15     5 
   14    13    15     5 
   13    15    16     5 
   13    15    19     5 
   16    15    19     5 
   10    17    18     5 
   10    17    19     5 
   18    17    19     5 
   15    19    17     5 
   15    19    20     5 
   17    19    20     5 
    5    21    22     5 
    5    21    23     5 
   22    21    23     5 

[ dihedrals ]
;  ai    aj    ak    al funct            c0            c1            c2            c3            c4            c5
    2     1     5     6     9 
    2     1     5     7     9 
    2     1     5    21     9 
    3     1     5     6     9 
    3     1     5     7     9 
    3     1     5    21     9 
    4     1     5     6     9 
    4     1     5     7     9 
    4     1     5    21     9 
    1     5     7     8     9 
    1     5     7     9     9 
    1     5     7    10     9 
    6     5     7     8     9 
    6     5     7     9     9 
    6     5     7    10     9 
   21     5     7     8     9 
   21     5     7     9     9 
   21     5     7    10     9 
    1     5    21    22     9 
    1     5    21    23     9 
    6     5    21    22     9 
    6     5    21    23     9 
    7     5    21    22     9 
    7     5    21    23     9 
    5     7    10    11     9 
    5     7    10    17     9 
    8     7    10    11     9 
    8     7    10    17     9 
    9     7    10    11     9 
    9     7    10    17     9 
    7    10    11    12     9 
    7    10    11    13     9 
   17    10    11    12     9 
   17    10    11    13     9 
    7    10    17    18     9 
    7    10    17    19     9 
   11    10    17    18     9 
   11    10    17    19     9 
   10    11    13    14     9 
   10    11    13    15     9 
   12    11    13    14     9 
   12    11    13    15     9 
   11    13    15    16     9 
   11    13    15    19     9 
   14    13    15    16     9 
   14    13    15    19     9 
   13    15    19    17     9 
   13    15    19    20     9 
   16    15    19    17     9 
   16    15    19    20     9 
   10    17    19    15     9 
   10    17    19    20     9 
   18    17    19    15     9 
   18    17    19    20     9 

[ dihedrals ]
;  ai    aj    ak    al funct            c0            c1            c2            c3
   21     5    23    22     2 

; Include Position restraint file
#ifdef POSRES
#include "posre.itp"
#endif

; Include water topology
#include "charmm27.ff/tip3p.itp"

#ifdef POSRES_WATER
; Position restraint for each water oxygen
[ position_restraints ]
;  i funct       fcx        fcy        fcz
   1    1       1000       1000       1000
#endif

; Include topology for ions
#include "charmm27.ff/ions.itp"

[ system ]
; Name
UNNAMED in water

[ molecules ]
; Compound        #mols
Protein_chain_A     1
SOL               873
