100 SGML in water
14686
    1SGML    C1    1   1.288   2.834   5.872
    1SGML    C2    2   1.301   2.608   5.790
    1SGML    C3    3   1.156   2.664   5.968
    1SGML    N4    4   1.288   2.692   5.910
    1SGML    C5    5   1.390   2.663   6.014
    1SGML    C6    6   1.540   2.666   5.977
    1SGML   OS7    7   1.627   2.617   6.080
    1SGML    P8    8   1.771   2.578   6.027
    1SGML   OM9    9   1.800   2.661   5.909
    1SGML  OM10   10   1.860   2.580   6.145
    1SGML  OS11   11   1.734   2.430   5.989
    1SGML   C12   12   1.785   2.375   5.867
    1SGML   C13   13   1.793   2.223   5.877
    1SGML   N14   14   1.879   2.162   5.773
    1SGML   H15   15   1.844   2.080   5.723
    1SGML   C16   16   2.012   2.187   5.761
    1SGML   O17   17   2.077   2.246   5.849
    1SGML   C18   18   2.076   2.123   5.639
    1SGML   C19   19   2.110   2.229   5.534
    1SGML   C20   20   1.981   2.294   5.484
    1SGML   C21   21   1.898   2.202   5.394
    1SGML   C22   22   1.759   2.261   5.375
    1SGML   C23   23   1.682   2.191   5.263
    1SGML   C24   24   1.541   2.248   5.252
    1SGML   C25   25   1.479   2.219   5.115
    1SGML   C26   26   1.333   2.263   5.111
    1SGML   C27   27   1.319   2.410   5.150
    1SGML   C28   28   1.173   2.453   5.149
    1SGML   C29   29   1.154   2.589   5.218
    1SGML   C30   30   1.004   2.620   5.229
    1SGML   C31   31   0.977   2.746   5.310
    1SGML   C32   32   0.826   2.769   5.321
    1SGML   C33   33   0.792   2.889   5.408
    1SGML   C34   34   0.641   2.910   5.415
    1SGML   C35   35   1.651   2.164   5.887
    1SGML  OA36   36   1.659   2.023   5.915
    1SGML   H37   37   1.712   1.982   5.835
    1SGML   C38   38   1.572   2.179   5.760
    1SGML   C39   39   1.441   2.203   5.750
    1SGML   C40   40   1.362   2.214   5.623
    1SGML   C41   41   1.270   2.092   5.610
    1SGML   C42   42   1.190   2.091   5.479
    1SGML   C43   43   1.083   2.200   5.476
    1SGML   C44   44   0.993   2.185   5.353
    1SGML   C45   45   0.905   2.060   5.366
    1SGML   C46   46   0.812   2.042   5.246
    1SGML   C47   47   0.887   1.991   5.122
    1SGML   C48   48   0.789   1.964   5.008
    1SGML   C49   49   0.856   1.895   4.889
    1SGML   C50   50   0.955   1.986   4.817
    1SGML   C51   51   1.018   1.911   4.699
    1SGML   C52   52   1.126   1.994   4.630
    2SGML    C1   53   0.736   0.848   6.183
    2SGML    C2   54   0.754   0.739   6.393
    2SGML    C3   55   0.555   0.855   6.342
    2SGML    N4   56   0.701   0.858   6.326
    2SGML    C5   57   0.766   0.976   6.387
    2SGML    C6   58   0.706   1.117   6.363
    2SGML   OS7   59   0.696   1.155   6.226
    2SGML    P8   60   0.609   1.284   6.214
    2SGML   OM9   61   0.472   1.238   6.240
    2SGML  OM10   62   0.668   1.387   6.300
    2SGML  OS11   63   0.626   1.322   6.062
    2SGML   C12   64   0.558   1.232   5.973
    2SGML   C13   65   0.554   1.282   5.829
    2SGML   N14   66   0.460   1.197   5.751
    2SGML   H15   67   0.471   1.094   5.751
    2SGML   C16   68   0.346   1.248   5.699
    2SGML   O17   69   0.297   1.351   5.747
    2SGML   C18   70   0.273   1.158   5.600
    2SGML   C19   71   0.120   1.171   5.609
    2SGML   C20   72   0.064   1.286   5.525
    2SGML   C21   73   0.070   1.253   5.376
    2SGML   C22   74   0.007   1.365   5.293
    2SGML   C23   75   0.011   1.331   5.143
    2SGML   C24   76   5.230   1.445   5.060
    2SGML   C25   77   5.239   1.415   4.910
    2SGML   C26   78   5.187   1.534   4.830
    2SGML   C27   79   5.199   1.510   4.679
    2SGML   C28   80   0.066   1.496   4.637
    2SGML   C29   81   0.080   1.491   4.485
    2SGML   C30   82   0.007   1.370   4.426
    2SGML   C31   83   0.025   1.365   4.274
    2SGML   C32   84   0.169   1.328   4.238
    2SGML   C33   85   0.192   1.329   4.086
    2SGML   C34   86   0.189   1.472   4.032
    2SGML   C35   87   0.699   1.292   5.778
    2SGML  OA36   88   0.771   1.385   5.860
    2SGML   H37   89   0.724   1.371   5.951
    2SGML   C38   90   0.707   1.330   5.633
    2SGML   C39   91   0.739   1.244   5.535
    2SGML   C40   92   0.746   1.273   5.389
    2SGML   C41   93   0.618   1.221   5.322
    2SGML   C42   94   0.621   1.235   5.170
    2SGML   C43   95   0.483   1.202   5.114
    2SGML   C44   96   0.486   1.194   4.961
    2SGML   C45   97   0.345   1.184   4.904
    2SGML   C46   98   0.351   1.154   4.754
    2SGML   C47   99   0.429   1.263   4.681
    2SGML   C48  100   0.446   1.227   4.533
    2SGML   C49  101   0.535   1.330   4.463
    2SGML   C50  102   0.557   1.294   4.317
    2SGML   C51  103   0.648   1.397   4.249
    2SGML   C52  104   0.789   1.390   4.308
    3SGML    C1  105   3.693   1.884   1.102
    3SGML    C2  106   3.727   1.677   0.990
    3SGML    C3  107   3.529   1.807   0.951
    3SGML    N4  108   3.626   1.763   1.053
    3SGML    C5  109   3.549   1.693   1.159
    3SGML    C6  110   3.625   1.637   1.281
    3SGML   OS7  111   3.546   1.551   1.363
    3SGML    P8  112   3.634   1.470   1.464
    3SGML   OM9  113   3.548   1.380   1.541
    3SGML  OM10  114   3.751   1.420   1.389
    3SGML  OS11  115   3.684   1.588   1.556
    3SGML   C12  116   3.730   1.544   1.683
    3SGML   C13  117   3.749   1.665   1.774
    3SGML   N14  118   3.823   1.627   1.896
    3SGML   H15  119   3.838   1.528   1.916
    3SGML   C16  120   3.884   1.720   1.972
    3SGML   O17  121   3.876   1.839   1.938
    3SGML   C18  122   3.947   1.672   2.101
    3SGML   C19  123   3.871   1.551   2.156
    3SGML   C20  124   3.934   1.499   2.286
    3SGML   C21  125   3.927   1.604   2.397
    3SGML   C22  126   3.978   1.549   2.530
    3SGML   C23  127   3.978   1.660   2.636
    3SGML   C24  128   4.025   1.609   2.772
    3SGML   C25  129   4.035   1.726   2.870
    3SGML   C26  130   4.079   1.684   3.010
    3SGML   C27  131   4.092   1.809   3.097
    3SGML   C28  132   4.125   1.782   3.243
    3SGML   C29  133   4.266   1.727   3.259
    3SGML   C30  134   4.315   1.743   3.404
    3SGML   C31  135   4.230   1.662   3.503
    3SGML   C32  136   4.279   1.690   3.645
    3SGML   C33  137   4.193   1.617   3.749
    3SGML   C34  138   4.237   1.653   3.891
    3SGML   C35  139   3.612   1.733   1.790
    3SGML  OA36  140   3.629   1.866   1.840
    3SGML   H37  141   3.722   1.863   1.886
    3SGML   C38  142   3.518   1.650   1.871
    3SGML   C39  143   3.469   1.674   1.993
    3SGML   C40  144   3.373   1.585   2.065
    3SGML   C41  145   3.435   1.522   2.190
    3SGML   C42  146   3.462   1.626   2.298
    3SGML   C43  147   3.523   1.556   2.420
    3SGML   C44  148   3.544   1.654   2.535
    3SGML   C45  149   3.411   1.702   2.592
    3SGML   C46  150   3.436   1.780   2.721
    3SGML   C47  151   3.501   1.687   2.824
    3SGML   C48  152   3.525   1.758   2.957
    3SGML   C49  153   3.592   1.663   3.056
    3SGML   C50  154   3.605   1.728   3.193
    3SGML   C51  155   3.673   1.633   3.291
    3SGML   C52  156   3.682   1.694   3.431
    4SGML    C1  157   4.263   1.512   1.472
    4SGML    C2  158   4.139   1.664   1.612
    4SGML    C3  159   4.041   1.574   1.417
    4SGML    N4  160   4.167   1.623   1.474
    4SGML    C5  161   4.214   1.737   1.392
    4SGML    C6  162   4.347   1.808   1.427
    4SGML   OS7  163   4.369   1.930   1.355
    4SGML    P8  164   4.491   2.011   1.414
    4SGML   OM9  165   4.599   1.914   1.435
    4SGML  OM10  166   4.503   2.124   1.321
    4SGML  OS11  167   4.412   2.054   1.544
    4SGML   C12  168   4.494   2.110   1.647
    4SGML   C13  169   4.410   2.169   1.761
    4SGML   N14  170   4.504   2.227   1.860
    4SGML   H15  171   4.570   2.165   1.910
    4SGML   C16  172   4.519   2.361   1.872
    4SGML   O17  173   4.487   2.437   1.780
    4SGML   C18  174   4.601   2.408   1.992
    4SGML   C19  175   4.522   2.387   2.121
    4SGML   C20  176   4.582   2.471   2.235
    4SGML   C21  177   4.506   2.445   2.365
    4SGML   C22  178   4.554   2.537   2.476
    4SGML   C23  179   4.480   2.507   2.606
    4SGML   C24  180   4.524   2.600   2.719
    4SGML   C25  181   4.459   2.559   2.851
    4SGML   C26  182   4.511   2.646   2.966
    4SGML   C27  183   4.466   2.591   3.101
    4SGML   C28  184   4.531   2.671   3.215
    4SGML   C29  185   4.507   2.604   3.350
    4SGML   C30  186   4.581   2.678   3.461
    4SGML   C31  187   4.571   2.604   3.594
    4SGML   C32  188   4.647   2.471   3.589
    4SGML   C33  189   4.638   2.397   3.723
    4SGML   C34  190   4.710   2.263   3.716
    4SGML   C35  191   4.314   2.060   1.815
    4SGML  OA36  192   4.223   2.018   1.712
    4SGML   H37  193   4.282   2.032   1.628
    4SGML   C38  194   4.238   2.102   1.937
    4SGML   C39  195   4.236   2.035   2.052
    4SGML   C40  196   4.163   2.073   2.177
    4SGML   C41  197   4.260   2.083   2.295
    4SGML   C42  198   4.187   2.122   2.424
    4SGML   C43  199   4.284   2.123   2.542
    4SGML   C44  200   4.212   2.161   2.671
    4SGML   C45  201   4.308   2.158   2.790
    4SGML   C46  202   4.233   2.195   2.918
    4SGML   C47  203   4.324   2.188   3.041
    4SGML   C48  204   4.242   2.220   3.167
    4SGML   C49  205   4.326   2.210   3.294
    4SGML   C50  206   4.238   2.238   3.416
    4SGML   C51  207   4.318   2.232   3.546
    4SGML   C52  208   4.364   2.089   3.575
    5SGML    C1  209   1.796   1.987   6.200
    5SGML    C2  210   1.851   2.202   6.283
    5SGML    C3  211   2.000   2.097   6.133
    5SGML    N4  212   1.907   2.072   6.244
    5SGML    C5  213   1.978   2.010   6.359
    5SGML    C6  214   2.072   1.890   6.332
    5SGML   OS7  215   2.007   1.780   6.268
    5SGML    P8  216   2.103   1.675   6.203
    5SGML   OM9  217   2.238   1.691   6.257
    5SGML  OM10  218   2.026   1.551   6.216
    5SGML  OS11  219   2.100   1.731   6.054
    5SGML   C12  220   1.979   1.699   5.984
    5SGML   C13  221   1.971   1.747   5.839
    5SGML   N14  222   1.839   1.703   5.788
    5SGML   H15  223   1.802   1.613   5.822
    5SGML   C16  224   1.756   1.785   5.721
    5SGML   O17  225   1.777   1.908   5.719
    5SGML   C18  226   1.626   1.722   5.672
    5SGML   C19  227   1.590   1.771   5.532
    5SGML   C20  228   1.683   1.711   5.426
    5SGML   C21  229   1.647   1.763   5.287
    5SGML   C22  230   1.743   1.707   5.182
    5SGML   C23  231   1.723   1.557   5.157
    5SGML   C24  232   1.840   1.503   5.075
    5SGML   C25  233   1.851   1.576   4.941
    5SGML   C26  234   1.978   1.534   4.866
    5SGML   C27  235   1.969   1.389   4.818
    5SGML   C28  236   2.099   1.346   4.749
    5SGML   C29  237   2.087   1.203   4.697
    5SGML   C30  238   1.993   1.196   4.577
    5SGML   C31  239   1.974   1.052   4.531
    5SGML   C32  240   1.884   1.045   4.408
    5SGML   C33  241   1.955   1.106   4.287
    5SGML   C34  242   1.866   1.099   4.163
    5SGML   C35  243   2.092   1.692   5.760
    5SGML  OA36  244   2.215   1.728   5.826
    5SGML   H37  245   2.183   1.732   5.925
    5SGML   C38  246   2.097   1.733   5.616
    5SGML   C39  247   2.100   1.648   5.512
    5SGML   C40  248   2.104   1.678   5.365
    5SGML   C41  249   2.105   1.827   5.330
    5SGML   C42  250   2.099   1.843   5.178
    5SGML   C43  251   2.102   1.988   5.131
    5SGML   C44  252   2.082   1.994   4.979
    5SGML   C45  253   2.089   2.137   4.925
    5SGML   C46  254   1.971   2.222   4.973
    5SGML   C47  255   1.839   2.185   4.906
    5SGML   C48  256   1.832   2.234   4.761
    5SGML   C49  257   1.693   2.208   4.703
    5SGML   C50  258   1.682   2.261   4.560
    5SGML   C51  259   1.541   2.242   4.505
    5SGML   C52  260   1.508   2.094   4.487
    6SGML    C1  261   2.626   1.953   6.073
    6SGML    C2  262   2.525   1.741   6.100
    6SGML    C3  263   2.387   1.926   6.046
    6SGML    N4  264   2.506   1.884   6.122
    6SGML    C5  265   2.490   1.901   6.268
    6SGML    C6  266   2.461   2.041   6.328
    6SGML   OS7  267   2.332   2.096   6.299
    6SGML    P8  268   2.320   2.244   6.352
    6SGML   OM9  269   2.178   2.279   6.361
    6SGML  OM10  270   2.410   2.263   6.466
    6SGML  OS11  271   2.388   2.312   6.226
    6SGML   C12  272   2.296   2.339   6.119
    6SGML   C13  273   2.360   2.410   6.000
    6SGML   N14  274   2.249   2.441   5.907
    6SGML   H15  275   2.179   2.368   5.885
    6SGML   C16  276   2.223   2.569   5.871
    6SGML   O17  277   2.296   2.660   5.911
    6SGML   C18  278   2.106   2.589   5.776
    6SGML   C19  279   2.142   2.688   5.664
    6SGML   C20  280   2.243   2.626   5.568
    6SGML   C21  281   2.268   2.717   5.447
    6SGML   C22  282   2.142   2.725   5.360
    6SGML   C23  283   2.114   2.591   5.292
    6SGML   C24  284   2.170   2.581   5.151
    6SGML   C25  285   2.086   2.665   5.054
    6SGML   C26  286   2.102   2.615   4.911
    6SGML   C27  287   2.006   2.687   4.817
    6SGML   C28  288   2.002   2.618   4.680
    6SGML   C29  289   1.905   2.687   4.584
    6SGML   C30  290   1.899   2.610   4.452
    6SGML   C31  291   1.804   2.675   4.352
    6SGML   C32  292   1.797   2.590   4.224
    6SGML   C33  293   1.703   2.652   4.121
    6SGML   C34  294   1.698   2.566   3.994
    6SGML   C35  295   2.472   2.323   5.939
    6SGML  OA36  296   2.559   2.272   6.041
    6SGML   H37  297   2.501   2.284   6.126
    6SGML   C38  298   2.553   2.401   5.839
    6SGML   C39  299   2.556   2.383   5.707
    6SGML   C40  300   2.636   2.464   5.610
    6SGML   C41  301   2.718   2.380   5.512
    6SGML   C42  302   2.627   2.301   5.417
    6SGML   C43  303   2.536   2.394   5.337
    6SGML   C44  304   2.461   2.319   5.228
    6SGML   C45  305   2.556   2.289   5.112
    6SGML   C46  306   2.482   2.233   4.991
    6SGML   C47  307   2.576   2.230   4.871
    6SGML   C48  308   2.503   2.192   4.742
    6SGML   C49  309   2.595   2.218   4.623
    6SGML   C50  310   2.526   2.187   4.490
    6SGML   C51  311   2.616   2.229   4.374
    6SGML   C52  312   2.630   2.381   4.369
    7SGML    C1  313   1.211   2.074   1.652
    7SGML    C2  314   1.232   2.143   1.878
    7SGML    C3  315   1.113   1.943   1.824
    7SGML    N4  316   1.142   2.080   1.781
    7SGML    C5  317   1.018   2.159   1.761
    7SGML    C6  318   0.925   2.184   1.882
    7SGML   OS7  319   0.802   2.250   1.849
    7SGML    P8  320   0.709   2.270   1.974
    7SGML   OM9  321   0.588   2.335   1.924
    7SGML  OM10  322   0.706   2.139   2.040
    7SGML  OS11  323   0.795   2.376   2.052
    7SGML   C12  324   0.799   2.363   2.194
    7SGML   C13  325   0.865   2.485   2.257
    7SGML   N14  326   0.898   2.457   2.399
    7SGML   H15  327   0.864   2.369   2.440
    7SGML   C16  328   0.982   2.534   2.471
    7SGML   O17  329   1.015   2.645   2.428
    7SGML   C18  330   1.015   2.486   2.612
    7SGML   C19  331   1.065   2.604   2.696
    7SGML   C20  332   1.091   2.564   2.841
    7SGML   C21  333   1.132   2.688   2.921
    7SGML   C22  334   1.152   2.656   3.070
    7SGML   C23  335   1.187   2.784   3.147
    7SGML   C24  336   1.202   2.756   3.296
    7SGML   C25  337   1.327   2.672   3.326
    7SGML   C26  338   1.335   2.638   3.474
    7SGML   C27  339   1.359   2.762   3.561
    7SGML   C28  340   1.355   2.725   3.709
    7SGML   C29  341   1.387   2.846   3.797
    7SGML   C30  342   1.536   2.882   3.786
    7SGML   C31  343   1.568   3.009   3.865
    7SGML   C32  344   1.717   3.042   3.857
    7SGML   C33  345   1.747   3.177   3.922
    7SGML   C34  346   1.685   3.291   3.840
    7SGML   C35  347   0.775   2.607   2.226
    7SGML  OA36  348   0.849   2.728   2.243
    7SGML   H37  349   0.915   2.704   2.320
    7SGML   C38  350   0.647   2.603   2.305
    7SGML   C39  351   0.604   2.691   2.397
    7SGML   C40  352   0.475   2.680   2.473
    7SGML   C41  353   0.493   2.685   2.625
    7SGML   C42  354   0.580   2.570   2.674
    7SGML   C43  355   0.587   2.568   2.827
    7SGML   C44  356   0.688   2.463   2.874
    7SGML   C45  357   0.689   2.454   3.027
    7SGML   C46  358   0.562   2.386   3.077
    7SGML   C47  359   0.566   2.367   3.229
    7SGML   C48  360   0.547   2.499   3.304
    7SGML   C49  361   0.562   2.476   3.454
    7SGML   C50  362   0.520   2.600   3.534
    7SGML   C51  363   0.609   2.720   3.504
    7SGML   C52  364   0.562   2.841   3.585
    8SGML    C1  365   5.218   3.162   1.929
    8SGML    C2  366   0.019   2.945   1.872
    8SGML    C3  367   0.119   3.142   1.778
    8SGML    N4  368   5.272   3.080   1.820
    8SGML    C5  369   5.172   3.077   1.711
    8SGML    C6  370   5.208   3.003   1.579
    8SGML   OS7  371   5.096   2.955   1.505
    8SGML    P8  372   5.049   2.809   1.546
    8SGML   OM9  373   5.161   2.744   1.616
    8SGML  OM10  374   4.994   2.749   1.424
    8SGML  OS11  375   4.931   2.845   1.646
    8SGML   C12  376   4.949   2.797   1.779
    8SGML   C13  377   4.859   2.865   1.883
    8SGML   N14  378   4.913   2.823   2.015
    8SGML   H15  379   4.943   2.725   2.025
    8SGML   C16  380   4.953   2.911   2.110
    8SGML   O17  381   4.969   3.031   2.085
    8SGML   C18  382   5.003   2.847   2.239
    8SGML   C19  383   4.953   2.924   2.361
    8SGML   C20  384   4.809   2.887   2.395
    8SGML   C21  385   4.761   2.972   2.513
    8SGML   C22  386   4.854   2.954   2.633
    8SGML   C23  387   4.807   3.037   2.752
    8SGML   C24  388   4.686   2.972   2.819
    8SGML   C25  389   4.631   3.061   2.931
    8SGML   C26  390   4.738   3.086   3.037
    8SGML   C27  391   4.683   3.172   3.151
    8SGML   C28  392   4.587   3.092   3.238
    8SGML   C29  393   4.543   3.173   3.360
    8SGML   C30  394   4.665   3.215   3.442
    8SGML   C31  395   4.626   3.261   3.582
    8SGML   C32  396   4.582   3.141   3.666
    8SGML   C33  397   4.548   3.183   3.809
    8SGML   C34  398   4.508   3.061   3.893
    8SGML   C35  399   4.712   2.828   1.854
    8SGML  OA36  400   4.677   2.865   1.720
    8SGML   H37  401   4.768   2.875   1.673
    8SGML   C38  402   4.616   2.887   1.953
    8SGML   C39  403   4.526   2.817   2.024
    8SGML   C40  404   4.428   2.871   2.125
    8SGML   C41  405   4.448   3.020   2.152
    8SGML   C42  406   4.350   3.071   2.257
    8SGML   C43  407   4.375   3.006   2.393
    8SGML   C44  408   4.286   3.067   2.501
    8SGML   C45  409   4.308   2.998   2.636
    8SGML   C46  410   4.228   3.067   2.747
    8SGML   C47  411   4.248   2.995   2.881
    8SGML   C48  412   4.179   3.071   2.995
    8SGML   C49  413   4.200   3.001   3.129
    8SGML   C50  414   4.139   3.082   3.243
    8SGML   C51  415   4.163   3.015   3.378
    8SGML   C52  416   4.111   3.103   3.492
    9SGML    C1  417   3.977   1.453   6.085
    9SGML    C2  418   4.195   1.549   6.048
    9SGML    C3  419   4.171   1.339   6.155
    9SGML    N4  420   4.111   1.472   6.141
    9SGML    C5  421   4.108   1.536   6.275
    9SGML    C6  422   4.043   1.676   6.291
    9SGML   OS7  423   3.900   1.678   6.280
    9SGML    P8  424   3.845   1.819   6.237
    9SGML   OM9  425   3.703   1.830   6.275
    9SGML  OM10  426   3.942   1.923   6.275
    9SGML  OS11  427   3.861   1.799   6.081
    9SGML   C12  428   3.738   1.794   6.007
    9SGML   C13  429   3.757   1.837   5.861
    9SGML   N14  430   3.622   1.855   5.804
    9SGML   H15  431   3.555   1.777   5.809
    9SGML   C16  432   3.577   1.978   5.770
    9SGML   O17  433   3.650   2.078   5.782
    9SGML   C18  434   3.434   1.985   5.719
    9SGML   C19  435   3.419   2.089   5.609
    9SGML   C20  436   3.475   2.039   5.476
    9SGML   C21  437   3.462   2.146   5.368
    9SGML   C22  438   3.499   2.092   5.230
    9SGML   C23  439   3.486   2.203   5.125
    9SGML   C24  440   3.505   2.148   4.983
    9SGML   C25  441   3.501   2.263   4.882
    9SGML   C26  442   3.512   2.213   4.738
    9SGML   C27  443   3.380   2.150   4.691
    9SGML   C28  444   3.389   2.114   4.543
    9SGML   C29  445   3.255   2.061   4.491
    9SGML   C30  446   3.265   2.029   4.342
    9SGML   C31  447   3.131   1.982   4.286
    9SGML   C32  448   3.142   1.952   4.136
    9SGML   C33  449   3.006   1.911   4.079
    9SGML   C34  450   2.908   2.028   4.083
    9SGML   C35  451   3.853   1.739   5.789
    9SGML  OA36  452   3.974   1.725   5.866
    9SGML   H37  453   3.942   1.753   5.961
    9SGML   C38  454   3.888   1.783   5.651
    9SGML   C39  455   3.848   1.726   5.536
    9SGML   C40  456   3.886   1.771   5.398
    9SGML   C41  457   4.003   1.869   5.400
    9SGML   C42  458   4.037   1.919   5.260
    9SGML   C43  459   3.927   2.014   5.209
    9SGML   C44  460   3.959   2.067   5.070
    9SGML   C45  461   3.944   1.959   4.963
    9SGML   C46  462   3.967   2.019   4.824
    9SGML   C47  463   3.942   1.916   4.714
    9SGML   C48  464   3.958   1.980   4.575
    9SGML   C49  465   3.926   1.879   4.465
    9SGML   C50  466   3.939   1.942   4.326
    9SGML   C51  467   3.905   1.840   4.217
    9SGML   C52  468   3.914   1.903   4.078
   10SGML    C1  469   3.427   1.682   6.289
   10SGML    C2  470   3.453   1.806   6.489
   10SGML    C3  471   3.403   1.575   6.503
   10SGML    N4  472   3.376   1.697   6.426
   10SGML    C5  473   3.233   1.736   6.427
   10SGML    C6  474   3.125   1.640   6.371
   10SGML   OS7  475   2.999   1.705   6.353
   10SGML    P8  476   2.881   1.607   6.316
   10SGML   OM9  477   2.892   1.483   6.396
   10SGML  OM10  478   2.758   1.688   6.317
   10SGML  OS11  479   2.927   1.573   6.168
   10SGML   C12  480   2.885   1.670   6.071
   10SGML   C13  481   2.949   1.659   5.933
   10SGML   N14  482   2.891   1.765   5.848
   10SGML   H15  483   2.798   1.751   5.806
   10SGML   C16  484   2.962   1.874   5.813
   10SGML   O17  485   3.070   1.899   5.869
   10SGML   C18  486   2.886   1.976   5.730
   10SGML   C19  487   2.968   2.031   5.614
   10SGML   C20  488   2.974   1.936   5.494
   10SGML   C21  489   3.044   2.009   5.379
   10SGML   C22  490   3.041   1.930   5.248
   10SGML   C23  491   3.108   2.014   5.138
   10SGML   C24  492   3.108   1.945   5.002
   10SGML   C25  493   2.967   1.936   4.943
   10SGML   C26  494   2.973   1.887   4.799
   10SGML   C27  495   2.833   1.873   4.739
   10SGML   C28  496   2.840   1.840   4.590
   10SGML   C29  497   2.700   1.825   4.531
   10SGML   C30  498   2.704   1.813   4.379
   10SGML   C31  499   2.563   1.805   4.321
   10SGML   C32  500   2.566   1.809   4.168
   10SGML   C33  501   2.634   1.684   4.112
   10SGML   C34  502   2.635   1.688   3.959
   10SGML   C35  503   2.928   1.516   5.878
   10SGML  OA36  504   2.989   1.422   5.967
   10SGML   H37  505   2.976   1.469   6.058
   10SGML   C38  506   2.985   1.501   5.740
   10SGML   C39  507   2.915   1.481   5.627
   10SGML   C40  508   2.972   1.462   5.489
   10SGML   C41  509   2.900   1.546   5.384
   10SGML   C42  510   2.932   1.494   5.244
   10SGML   C43  511   2.846   1.568   5.141
   10SGML   C44  512   2.824   1.487   5.013
   10SGML   C45  513   2.940   1.495   4.914
   10SGML   C46  514   2.897   1.424   4.786
   10SGML   C47  515   2.996   1.441   4.670
   10SGML   C48  516   2.943   1.364   4.548
   10SGML   C49  517   3.033   1.383   4.426
   10SGML   C50  518   3.020   1.524   4.370
   10SGML   C51  519   3.100   1.538   4.240
   10SGML   C52  520   3.041   1.450   4.130
   11SGML    C1  521   4.939   1.550   1.183
   11SGML    C2  522   4.765   1.390   1.198
   11SGML    C3  523   4.765   1.582   1.341
   11SGML    N4  524   4.849   1.481   1.277
   11SGML    C5  525   4.933   1.408   1.375
   11SGML    C6  526   4.867   1.323   1.486
   11SGML   OS7  527   4.962   1.255   1.570
   11SGML    P8  528   4.893   1.149   1.665
   11SGML   OM9  529   4.808   1.066   1.579
   11SGML  OM10  530   5.003   1.090   1.741
   11SGML  OS11  531   4.811   1.248   1.757
   11SGML   C12  532   4.770   1.187   1.881
   11SGML   C13  533   4.842   1.249   2.001
   11SGML   N14  534   4.826   1.161   2.118
   11SGML   H15  535   4.732   1.131   2.146
   11SGML   C16  536   4.933   1.102   2.178
   11SGML   O17  537   5.047   1.118   2.134
   11SGML   C18  538   4.901   1.019   2.301
   11SGML   C19  539   4.989   0.894   2.310
   11SGML   C20  540   4.956   0.814   2.437
   11SGML   C21  541   4.996   0.891   2.563
   11SGML   C22  542   5.148   0.894   2.581
   11SGML   C23  543   5.186   0.977   2.705
   11SGML   C24  544   5.126   0.915   2.831
   11SGML   C25  545   5.168   0.991   2.957
   11SGML   C26  546   0.035   0.962   2.995
   11SGML   C27  547   0.071   1.032   3.126
   11SGML   C28  548   0.209   0.991   3.176
   11SGML   C29  549   0.241   1.061   3.308
   11SGML   C30  550   0.141   1.019   3.417
   11SGML   C31  551   0.167   1.092   3.549
   11SGML   C32  552   0.294   1.043   3.617
   11SGML   C33  553   0.311   1.109   3.754
   11SGML   C34  554   0.433   1.053   3.827
   11SGML   C35  555   4.794   1.395   2.017
   11SGML  OA36  556   4.821   1.465   1.894
   11SGML   H37  557   4.817   1.387   1.826
   11SGML   C38  558   4.860   1.464   2.133
   11SGML   C39  559   4.802   1.486   2.252
   11SGML   C40  560   4.864   1.553   2.371
   11SGML   C41  561   4.882   1.456   2.488
   11SGML   C42  562   4.935   1.529   2.612
   11SGML   C43  563   4.960   1.431   2.726
   11SGML   C44  564   5.004   1.506   2.853
   11SGML   C45  565   5.035   1.407   2.966
   11SGML   C46  566   5.069   1.482   3.095
   11SGML   C47  567   5.104   1.383   3.207
   11SGML   C48  568   5.120   1.455   3.341
   11SGML   C49  569   5.149   1.355   3.453
   11SGML   C50  570   5.144   1.424   3.589
   11SGML   C51  571   5.167   1.324   3.703
   11SGML   C52  572   5.145   1.388   3.840
   12SGML    C1  573   0.099   1.468   1.861
   12SGML    C2  574   5.218   1.358   1.999
   12SGML    C3  575   5.223   1.310   1.768
   12SGML    N4  576   5.239   1.418   1.866
   12SGML    C5  577   5.140   1.526   1.847
   12SGML    C6  578   5.127   1.603   1.712
   12SGML   OS7  579   5.239   1.683   1.674
   12SGML    P8  580   5.213   1.839   1.676
   12SGML   OM9  581   0.055   1.902   1.620
   12SGML  OM10  582   5.082   1.853   1.611
   12SGML  OS11  583   5.199   1.859   1.832
   12SGML   C12  584   0.041   1.883   1.905
   12SGML   C13  585   0.014   1.928   2.049
   12SGML   N14  586   0.146   1.949   2.112
   12SGML   H15  587   0.217   1.875   2.101
   12SGML   C16  588   0.186   2.074   2.148
   12SGML   O17  589   0.137   2.170   2.090
   12SGML   C18  590   0.312   2.083   2.233
   12SGML   C19  591   0.363   2.227   2.249
   12SGML   C20  592   0.278   2.309   2.346
   12SGML   C21  593   0.290   2.260   2.490
   12SGML   C22  594   0.211   2.350   2.585
   12SGML   C23  595   0.224   2.305   2.730
   12SGML   C24  596   0.158   2.407   2.824
   12SGML   C25  597   0.173   2.367   2.971
   12SGML   C26  598   0.127   2.482   3.061
   12SGML   C27  599   0.147   2.448   3.209
   12SGML   C28  600   0.118   2.571   3.296
   12SGML   C29  601   0.138   2.541   3.444
   12SGML   C30  602   0.116   2.667   3.528
   12SGML   C31  603   0.134   2.638   3.677
   12SGML   C32  604   0.120   2.766   3.760
   12SGML   C33  605   0.126   2.734   3.909
   12SGML   C34  606   0.006   2.649   3.950
   12SGML   C35  607   5.203   1.827   2.124
   12SGML  OA36  608   5.088   1.793   2.044
   12SGML   H37  609   5.121   1.819   1.949
   12SGML   C38  610   5.153   1.880   2.255
   12SGML   C39  611   5.172   1.831   2.378
   12SGML   C40  612   5.110   1.892   2.500
   12SGML   C41  613   5.207   1.933   2.611
   12SGML   C42  614   5.125   2.006   2.717
   12SGML   C43  615   5.204   2.042   2.844
   12SGML   C44  616   5.233   1.918   2.928
   12SGML   C45  617   5.262   1.961   3.072
   12SGML   C46  618   0.015   1.841   3.162
   12SGML   C47  619   0.013   1.883   3.309
   12SGML   C48  620   0.117   1.992   3.337
   12SGML   C49  621   0.112   2.033   3.484
   12SGML   C50  622   0.216   2.141   3.516
   12SGML   C51  623   0.213   2.173   3.665
   12SGML   C52  624   0.318   2.278   3.701
   13SGML    C1  625   4.096   2.289   5.955
   13SGML    C2  626   4.042   2.062   5.993
   13SGML    C3  627   3.980   2.229   6.153
   13SGML    N4  628   4.084   2.186   6.059
   13SGML    C5  629   4.216   2.169   6.124
   13SGML    C6  630   4.231   2.066   6.238
   13SGML   OS7  631   4.364   2.016   6.254
   13SGML    P8  632   4.381   1.868   6.202
   13SGML   OM9  633   4.383   1.787   6.325
   13SGML  OM10  634   4.279   1.844   6.098
   13SGML  OS11  635   4.524   1.879   6.138
   13SGML   C12  636   4.530   1.948   6.014
   13SGML   C13  637   4.667   1.944   5.947
   13SGML   N14  638   4.673   2.048   5.841
   13SGML   H15  639   4.585   2.080   5.801
   13SGML   C16  640   4.788   2.105   5.797
   13SGML   O17  641   4.895   2.042   5.809
   13SGML   C18  642   4.772   2.232   5.716
   13SGML   C19  643   4.881   2.252   5.611
   13SGML   C20  644   4.858   2.163   5.489
   13SGML   C21  645   4.735   2.208   5.412
   13SGML   C22  646   4.699   2.106   5.304
   13SGML   C23  647   4.799   2.106   5.189
   13SGML   C24  648   4.768   1.988   5.097
   13SGML   C25  649   4.846   1.992   4.965
   13SGML   C26  650   4.796   2.106   4.876
   13SGML   C27  651   4.848   2.088   4.734
   13SGML   C28  652   4.785   1.963   4.673
   13SGML   C29  653   4.842   1.935   4.533
   13SGML   C30  654   4.780   1.808   4.475
   13SGML   C31  655   4.844   1.777   4.339
   13SGML   C32  656   4.992   1.740   4.357
   13SGML   C33  657   5.060   1.725   4.221
   13SGML   C34  658   5.066   1.860   4.151
   13SGML   C35  659   4.697   1.799   5.905
   13SGML  OA36  660   4.835   1.790   5.866
   13SGML   H37  661   4.857   1.887   5.837
   13SGML   C38  662   4.603   1.754   5.796
   13SGML   C39  663   4.632   1.718   5.670
   13SGML   C40  664   4.533   1.674   5.566
   13SGML   C41  665   4.541   1.757   5.438
   13SGML   C42  666   4.446   1.702   5.332
   13SGML   C43  667   4.463   1.776   5.199
   13SGML   C44  668   4.380   1.709   5.088
   13SGML   C45  669   4.409   1.774   4.952
   13SGML   C46  670   4.338   1.698   4.840
   13SGML   C47  671   4.374   1.756   4.703
   13SGML   C48  672   4.309   1.676   4.590
   13SGML   C49  673   4.346   1.735   4.454
   13SGML   C50  674   4.282   1.657   4.339
   13SGML   C51  675   4.347   1.521   4.318
   13SGML   C52  676   4.489   1.536   4.263
   14SGML    C1  677   4.242   2.840   6.333
   14SGML    C2  678   4.098   3.023   6.291
   14SGML    C3  679   4.297   3.004   6.169
   14SGML    N4  680   4.238   2.983   6.302
   14SGML    C5  681   4.301   3.063   6.410
   14SGML    C6  682   4.452   3.044   6.440
   14SGML   OS7  683   4.536   3.093   6.335
   14SGML    P8  684   4.674   3.020   6.339
   14SGML   OM9  685   4.736   3.067   6.464
   14SGML  OM10  686   4.640   2.878   6.317
   14SGML  OS11  687   4.739   3.091   6.213
   14SGML   C12  688   4.716   3.024   6.088
   14SGML   C13  689   4.770   3.098   5.965
   14SGML   N14  690   4.742   3.011   5.848
   14SGML   H15  691   4.796   2.925   5.836
   14SGML   C16  692   4.639   3.031   5.762
   14SGML   O17  693   4.536   3.090   5.800
   14SGML   C18  694   4.642   2.941   5.640
   14SGML   C19  695   4.631   3.016   5.507
   14SGML   C20  696   4.487   3.052   5.471
   14SGML   C21  697   4.481   3.115   5.332
   14SGML   C22  698   4.517   3.013   5.223
   14SGML   C23  699   4.516   3.077   5.084
   14SGML   C24  700   4.558   2.977   4.977
   14SGML   C25  701   4.566   3.043   4.839
   14SGML   C26  702   4.613   2.943   4.733
   14SGML   C27  703   4.631   3.010   4.597
   14SGML   C28  704   4.685   2.911   4.494
   14SGML   C29  705   4.712   2.979   4.359
   14SGML   C30  706   4.780   2.883   4.262
   14SGML   C31  707   4.818   2.954   4.132
   14SGML   C32  708   4.901   2.863   4.041
   14SGML   C33  709   4.819   2.745   3.990
   14SGML   C34  710   4.903   2.654   3.900
   14SGML   C35  711   4.921   3.126   5.982
   14SGML  OA36  712   4.951   3.186   6.109
   14SGML   H37  713   4.872   3.151   6.167
   14SGML   C38  714   4.974   3.218   5.875
   14SGML   C39  715   5.046   3.188   5.767
   14SGML   C40  716   5.096   3.291   5.671
   14SGML   C41  717   5.020   3.295   5.538
   14SGML   C42  718   5.044   3.170   5.455
   14SGML   C43  719   4.985   3.188   5.315
   14SGML   C44  720   5.022   3.070   5.226
   14SGML   C45  721   4.984   3.094   5.080
   14SGML   C46  722   5.035   2.978   4.995
   14SGML   C47  723   5.014   3.005   4.846
   14SGML   C48  724   5.074   2.892   4.763
   14SGML   C49  725   5.072   2.928   4.614
   14SGML   C50  726   5.144   2.820   4.532
   14SGML   C51  727   5.157   2.864   4.386
   14SGML   C52  728   5.230   2.757   4.305
   15SGML    C1  729   1.587   0.951   2.042
   15SGML    C2  730   1.368   0.920   1.952
   15SGML    C3  731   1.481   0.743   2.068
   15SGML    N4  732   1.499   0.856   1.975
   15SGML    C5  733   1.561   0.817   1.846
   15SGML    C6  734   1.498   0.706   1.759
   15SGML   OS7  735   1.520   0.576   1.813
   15SGML    P8  736   1.403   0.475   1.787
   15SGML   OM9  737   1.281   0.549   1.751
   15SGML  OM10  738   1.458   0.372   1.697
   15SGML  OS11  739   1.400   0.424   1.937
   15SGML   C12  740   1.277   0.365   1.980
   15SGML   C13  741   1.293   0.292   2.114
   15SGML   N14  742   1.169   0.217   2.145
   15SGML   H15  743   1.078   0.264   2.133
   15SGML   C16  744   1.173   0.086   2.178
   15SGML   O17  745   1.272   0.019   2.147
   15SGML   C18  746   1.042   0.028   2.229
   15SGML   C19  747   1.040   0.018   2.381
   15SGML   C20  748   1.135   4.991   2.432
   15SGML   C21  749   1.136   4.983   2.585
   15SGML   C22  750   1.002   4.934   2.640
   15SGML   C23  751   1.016   4.896   2.788
   15SGML   C24  752   1.026   5.017   2.881
   15SGML   C25  753   1.073   4.969   3.019
   15SGML   C26  754   1.060   5.075   3.128
   15SGML   C27  755   0.914   0.008   3.172
   15SGML   C28  756   0.902   0.093   3.299
   15SGML   C29  757   0.757   0.100   3.347
   15SGML   C30  758   0.747   0.177   3.479
   15SGML   C31  759   0.601   0.185   3.525
   15SGML   C32  760   0.590   0.255   3.661
   15SGML   C33  761   0.444   0.265   3.705
   15SGML   C34  762   0.384   0.127   3.731
   15SGML   C35  763   1.339   0.391   2.223
   15SGML  OA36  764   1.469   0.440   2.188
   15SGML   H37  765   1.464   0.441   2.085
   15SGML   C38  766   1.346   0.328   2.359
   15SGML   C39  767   1.272   0.359   2.467
   15SGML   C40  768   1.281   0.288   2.598
   15SGML   C41  769   1.324   0.375   2.715
   15SGML   C42  770   1.338   0.287   2.840
   15SGML   C43  771   1.390   0.366   2.960
   15SGML   C44  772   1.422   0.270   3.074
   15SGML   C45  773   1.485   0.343   3.193
   15SGML   C46  774   1.527   0.243   3.301
   15SGML   C47  775   1.642   0.156   3.251
   15SGML   C48  776   1.686   0.056   3.358
   15SGML   C49  777   1.579   5.030   3.381
   15SGML   C50  778   1.625   4.928   3.486
   15SGML   C51  779   1.522   4.816   3.503
   15SGML   C52  780   1.571   4.711   3.603
   16SGML    C1  781   1.782   1.615   1.896
   16SGML    C2  782   1.848   1.448   1.738
   16SGML    C3  783   1.880   1.674   1.688
   16SGML    N4  784   1.788   1.581   1.754
   16SGML    C5  785   1.656   1.590   1.685
   16SGML    C6  786   1.535   1.509   1.740
   16SGML   OS7  787   1.556   1.368   1.743
   16SGML    P8  788   1.434   1.282   1.790
   16SGML   OM9  789   1.311   1.361   1.785
   16SGML  OM10  790   1.455   1.164   1.705
   16SGML  OS11  791   1.488   1.256   1.937
   16SGML   C12  792   1.418   1.329   2.039
   16SGML   C13  793   1.462   1.295   2.181
   16SGML   N14  794   1.372   1.372   2.270
   16SGML   H15  795   1.361   1.473   2.252
   16SGML   C16  796   1.286   1.308   2.353
   16SGML   O17  797   1.273   1.185   2.342
   16SGML   C18  798   1.200   1.396   2.442
   16SGML   C19  799   1.079   1.320   2.497
   16SGML   C20  800   1.110   1.238   2.622
   16SGML   C21  801   1.128   1.329   2.745
   16SGML   C22  802   1.151   1.246   2.871
   16SGML   C23  803   1.158   1.334   2.995
   16SGML   C24  804   1.176   1.250   3.122
   16SGML   C25  805   1.171   1.337   3.248
   16SGML   C26  806   1.189   1.252   3.374
   16SGML   C27  807   1.171   1.335   3.501
   16SGML   C28  808   1.201   1.251   3.625
   16SGML   C29  809   1.176   1.331   3.753
   16SGML   C30  810   1.224   1.255   3.877
   16SGML   C31  811   1.140   1.130   3.905
   16SGML   C32  812   1.002   1.165   3.961
   16SGML   C33  813   0.922   1.038   3.991
   16SGML   C34  814   0.784   1.072   4.047
   16SGML   C35  815   1.612   1.325   2.201
   16SGML  OA36  816   1.690   1.268   2.095
   16SGML   H37  817   1.620   1.260   2.019
   16SGML   C38  818   1.661   1.274   2.334
   16SGML   C39  819   1.699   1.348   2.438
   16SGML   C40  820   1.748   1.298   2.570
   16SGML   C41  821   1.662   1.344   2.688
   16SGML   C42  822   1.721   1.294   2.820
   16SGML   C43  823   1.636   1.337   2.940
   16SGML   C44  824   1.700   1.286   3.069
   16SGML   C45  825   1.617   1.322   3.193
   16SGML   C46  826   1.685   1.268   3.319
   16SGML   C47  827   1.606   1.301   3.445
   16SGML   C48  828   1.679   1.246   3.568
   16SGML   C49  829   1.602   1.276   3.697
   16SGML   C50  830   1.677   1.225   3.820
   16SGML   C51  831   1.677   1.072   3.825
   16SGML   C52  832   1.538   1.018   3.861
   17SGML    C1  833   0.538   1.787   6.032
   17SGML    C2  834   0.564   1.672   6.240
   17SGML    C3  835   0.385   1.616   6.094
   17SGML    N4  836   0.466   1.727   6.146
   17SGML    C5  837   0.376   1.823   6.214
   17SGML    C6  838   0.433   1.956   6.270
   17SGML   OS7  839   0.460   2.055   6.170
   17SGML    P8  840   0.555   2.171   6.222
   17SGML   OM9  841   0.475   2.293   6.229
   17SGML  OM10  842   0.631   2.127   6.341
   17SGML  OS11  843   0.654   2.186   6.100
   17SGML   C12  844   0.589   2.237   5.983
   17SGML   C13  845   0.683   2.300   5.881
   17SGML   N14  846   0.599   2.366   5.777
   17SGML   H15  847   0.505   2.328   5.760
   17SGML   C16  848   0.641   2.472   5.704
   17SGML   O17  849   0.755   2.517   5.723
   17SGML   C18  850   0.537   2.537   5.615
   17SGML   C19  851   0.549   2.499   5.467
   17SGML   C20  852   0.497   2.357   5.441
   17SGML   C21  853   0.474   2.334   5.291
   17SGML   C22  854   0.412   2.197   5.264
   17SGML   C23  855   0.361   2.187   5.120
   17SGML   C24  856   0.475   2.188   5.019
   17SGML   C25  857   0.420   2.189   4.876
   17SGML   C26  858   0.534   2.184   4.773
   17SGML   C27  859   0.480   2.201   4.631
   17SGML   C28  860   0.593   2.197   4.528
   17SGML   C29  861   0.539   2.227   4.388
   17SGML   C30  862   0.651   2.218   4.283
   17SGML   C31  863   0.600   2.257   4.144
   17SGML   C32  864   0.570   2.407   4.137
   17SGML   C33  865   0.525   2.446   3.996
   17SGML   C34  866   0.499   2.597   3.986
   17SGML   C35  867   0.785   2.196   5.832
   17SGML  OA36  868   0.902   2.265   5.788
   17SGML   H37  869   0.865   2.352   5.748
   17SGML   C38  870   0.729   2.108   5.723
   17SGML   C39  871   0.686   1.982   5.732
   17SGML   C40  872   0.633   1.903   5.616
   17SGML   C41  873   0.690   1.761   5.611
   17SGML   C42  874   0.664   1.698   5.474
   17SGML   C43  875   0.515   1.692   5.442
   17SGML   C44  876   0.494   1.639   5.300
   17SGML   C45  877   0.348   1.649   5.257
   17SGML   C46  878   0.332   1.601   5.112
   17SGML   C47  879   0.412   1.690   5.017
   17SGML   C48  880   0.395   1.644   4.872
   17SGML   C49  881   0.482   1.727   4.777
   17SGML   C50  882   0.460   1.684   4.632
   17SGML   C51  883   0.549   1.763   4.536
   17SGML   C52  884   0.696   1.723   4.553
   18SGML    C1  885   4.920   2.565   6.682
   18SGML    C2  886   5.061   2.715   6.563
   18SGML    C3  887   4.824   2.742   6.555
   18SGML    N4  888   4.933   2.643   6.558
   18SGML    C5  889   4.924   2.549   6.444
   18SGML    C6  890   4.935   2.600   6.298
   18SGML   OS7  891   5.066   2.644   6.262
   18SGML    P8  892   5.068   2.786   6.194
   18SGML   OM9  893   4.968   2.865   6.266
   18SGML  OM10  894   5.208   2.830   6.203
   18SGML  OS11  895   5.025   2.753   6.045
   18SGML   C12  896   5.134   2.715   5.960
   18SGML   C13  897   5.091   2.647   5.829
   18SGML   N14  898   5.214   2.605   5.758
   18SGML   H15  899   0.007   2.675   5.733
   18SGML   C16  900   5.240   2.475   5.729
   18SGML   O17  901   5.174   2.384   5.781
   18SGML   C18  902   0.093   2.452   5.656
   18SGML   C19  903   0.079   2.453   5.503
   18SGML   C20  904   0.018   2.323   5.450
   18SGML   C21  905   0.015   2.325   5.297
   18SGML   C22  906   5.193   2.429   5.246
   18SGML   C23  907   5.201   2.446   5.094
   18SGML   C24  908   5.156   2.321   5.020
   18SGML   C25  909   5.155   2.346   4.869
   18SGML   C26  910   0.017   2.372   4.817
   18SGML   C27  911   0.014   2.403   4.667
   18SGML   C28  912   0.155   2.424   4.612
   18SGML   C29  913   0.151   2.452   4.462
   18SGML   C30  914   0.092   2.332   4.387
   18SGML   C31  915   0.086   2.357   4.237
   18SGML   C32  916   0.018   2.240   4.166
   18SGML   C33  917   0.012   2.262   4.015
   18SGML   C34  918   5.222   2.144   3.946
   18SGML   C35  919   4.998   2.741   5.750
   18SGML  OA36  920   4.884   2.778   5.831
   18SGML   H37  921   4.923   2.768   5.927
   18SGML   C38  922   4.953   2.678   5.621
   18SGML   C39  923   4.970   2.728   5.498
   18SGML   C40  924   4.929   2.662   5.370
   18SGML   C41  925   4.825   2.740   5.290
   18SGML   C42  926   4.817   2.689   5.146
   18SGML   C43  927   4.764   2.546   5.138
   18SGML   C44  928   4.768   2.495   4.993
   18SGML   C45  929   4.677   2.579   4.903
   18SGML   C46  930   4.670   2.522   4.761
   18SGML   C47  931   4.804   2.533   4.688
   18SGML   C48  932   4.791   2.481   4.545
   18SGML   C49  933   4.924   2.489   4.470
   18SGML   C50  934   4.909   2.444   4.325
   18SGML   C51  935   4.875   2.295   4.316
   18SGML   C52  936   4.859   2.250   4.171
   19SGML    C1  937   1.916   0.487   1.801
   19SGML    C2  938   1.932   0.253   1.779
   19SGML    C3  939   1.745   0.346   1.892
   19SGML    N4  940   1.889   0.360   1.870
   19SGML    C5  941   1.966   0.344   1.996
   19SGML    C6  942   1.939   0.442   2.113
   19SGML   OS7  943   1.985   0.575   2.092
   19SGML    P8  944   1.878   0.686   2.120
   19SGML   OM9  945   1.859   0.760   1.995
   19SGML  OM10  946   1.762   0.626   2.187
   19SGML  OS11  947   1.960   0.778   2.219
   19SGML   C12  948   1.905   0.788   2.350
   19SGML   C13  949   1.985   0.873   2.449
   19SGML   N14  950   1.903   0.870   2.573
   19SGML   H15  951   1.801   0.871   2.562
   19SGML   C16  952   1.954   0.841   2.695
   19SGML   O17  953   2.071   0.802   2.706
   19SGML   C18  954   1.855   0.846   2.810
   19SGML   C19  955   1.919   0.895   2.940
   19SGML   C20  956   1.821   0.873   3.056
   19SGML   C21  957   1.873   0.923   3.191
   19SGML   C22  958   1.997   0.847   3.238
   19SGML   C23  959   2.020   0.868   3.388
   19SGML   C24  960   2.040   1.015   3.424
   19SGML   C25  961   2.062   1.034   3.574
   19SGML   C26  962   2.082   1.182   3.609
   19SGML   C27  963   2.101   1.201   3.759
   19SGML   C28  964   2.233   1.139   3.805
   19SGML   C29  965   2.252   1.150   3.957
   19SGML   C30  966   2.272   1.295   4.001
   19SGML   C31  967   2.297   1.301   4.152
   19SGML   C32  968   2.311   1.446   4.199
   19SGML   C33  969   2.335   1.452   4.350
   19SGML   C34  970   2.475   1.402   4.387
   19SGML   C35  971   2.009   1.016   2.394
   19SGML  OA36  972   2.033   1.017   2.252
   19SGML   H37  973   2.005   0.920   2.224
   19SGML   C38  974   2.124   1.081   2.465
   19SGML   C39  975   2.121   1.196   2.533
   19SGML   C40  976   2.238   1.256   2.605
   19SGML   C41  977   2.211   1.270   2.755
   19SGML   C42  978   2.336   1.319   2.828
   19SGML   C43  979   2.308   1.340   2.977
   19SGML   C44  980   2.273   1.209   3.047
   19SGML   C45  981   2.245   1.232   3.195
   19SGML   C46  982   2.374   1.258   3.275
   19SGML   C47  983   2.459   1.131   3.282
   19SGML   C48  984   2.587   1.152   3.363
   19SGML   C49  985   2.560   1.160   3.514
   19SGML   C50  986   2.692   1.176   3.590
   19SGML   C51  987   2.669   1.183   3.741
   19SGML   C52  988   2.623   1.049   3.798
   20SGML    C1  989   2.348   1.586   1.257
   20SGML    C2  990   2.268   1.455   1.439
   20SGML    C3  991   2.188   1.676   1.408
   20SGML    N4  992   2.307   1.591   1.398
   20SGML    C5  993   2.411   1.650   1.485
   20SGML    C6  994   2.549   1.582   1.501
   20SGML   OS7  995   2.544   1.457   1.569
   20SGML    P8  996   2.685   1.395   1.600
   20SGML   OM9  997   2.662   1.261   1.657
   20SGML  OM10  998   2.770   1.414   1.481
   20SGML  OS11  999   2.739   1.495   1.710
   20SGML   C12 1000   2.680   1.481   1.840
   20SGML   C13 1001   2.731   1.584   1.941
   20SGML   N14 1002   2.662   1.555   2.069
   20SGML   H15 1003   2.565   1.585   2.083
   20SGML   C16 1004   2.715   1.471   2.161
   20SGML   O17 1005   2.821   1.410   2.139
   20SGML   C18 1006   2.634   1.455   2.289
   20SGML   C19 1007   2.721   1.406   2.406
   20SGML   C20 1008   2.647   1.425   2.538
   20SGML   C21 1009   2.730   1.377   2.658
   20SGML   C22 1010   2.733   1.225   2.670
   20SGML   C23 1011   2.814   1.183   2.792
   20SGML   C24 1012   2.749   1.233   2.921
   20SGML   C25 1013   2.841   1.215   3.041
   20SGML   C26 1014   2.862   1.068   3.078
   20SGML   C27 1015   2.945   1.057   3.206
   20SGML   C28 1016   2.956   0.912   3.255
   20SGML   C29 1017   3.030   0.906   3.388
   20SGML   C30 1018   3.039   0.763   3.441
   20SGML   C31 1019   3.113   0.760   3.575
   20SGML   C32 1020   3.127   0.617   3.628
   20SGML   C33 1021   3.206   0.614   3.758
   20SGML   C34 1022   3.222   0.471   3.810
   20SGML   C35 1023   2.708   1.726   1.883
   20SGML  OA36 1024   2.779   1.739   1.759
   20SGML   H37 1025   2.773   1.642   1.724
   20SGML   C38 1026   2.750   1.838   1.974
   20SGML   C39 1027   2.667   1.932   2.024
   20SGML   C40 1028   2.707   2.046   2.112
   20SGML   C41 1029   2.659   2.027   2.256
   20SGML   C42 1030   2.700   2.146   2.344
   20SGML   C43 1031   2.609   2.266   2.320
   20SGML   C44 1032   2.657   2.387   2.400
   20SGML   C45 1033   2.667   2.354   2.549
   20SGML   C46 1034   2.705   2.478   2.630
   20SGML   C47 1035   2.740   2.443   2.775
   20SGML   C48 1036   2.766   2.570   2.856
   20SGML   C49 1037   2.815   2.538   2.997
   20SGML   C50 1038   2.955   2.478   2.994
   20SGML   C51 1039   3.007   2.452   3.136
   20SGML   C52 1040   3.035   2.584   3.209
   21SGML    C1 1041   1.544   3.644   6.297
   21SGML    C2 1042   1.369   3.494   6.349
   21SGML    C3 1043   1.590   3.460   6.437
   21SGML    N4 1044   1.512   3.502   6.320
   21SGML    C5 1045   1.549   3.426   6.198
   21SGML    C6 1046   1.546   3.271   6.195
   21SGML   OS7 1047   1.615   3.222   6.080
   21SGML    P8 1048   1.618   3.065   6.072
   21SGML   OM9 1049   1.723   3.027   6.168
   21SGML  OM10 1050   1.480   3.014   6.085
   21SGML  OS11 1051   1.671   3.049   5.924
   21SGML   C12 1052   1.569   3.077   5.827
   21SGML   C13 1053   1.609   3.063   5.680
   21SGML   N14 1054   1.657   2.925   5.657
   21SGML   H15 1055   1.747   2.899   5.697
   21SGML   C16 1056   1.581   2.827   5.602
   21SGML   O17 1057   1.458   2.838   5.597
   21SGML   C18 1058   1.652   2.694   5.585
   21SGML   C19 1059   1.638   2.640   5.443
   21SGML   C20 1060   1.730   2.718   5.348
   21SGML   C21 1061   1.735   2.655   5.209
   21SGML   C22 1062   1.607   2.680   5.129
   21SGML   C23 1063   1.623   2.628   4.986
   21SGML   C24 1064   1.505   2.672   4.900
   21SGML   C25 1065   1.526   2.639   4.753
   21SGML   C26 1066   1.419   2.709   4.670
   21SGML   C27 1067   1.440   2.695   4.519
   21SGML   C28 1068   1.340   2.784   4.447
   21SGML   C29 1069   1.366   2.930   4.485
   21SGML   C30 1070   1.258   3.024   4.432
   21SGML   C31 1071   1.282   3.167   4.482
   21SGML   C32 1072   1.169   3.260   4.440
   21SGML   C33 1073   1.193   3.402   4.492
   21SGML   C34 1074   1.078   3.495   4.453
   21SGML   C35 1075   1.710   3.175   5.647
   21SGML  OA36 1076   1.654   3.306   5.664
   21SGML   H37 1077   1.566   3.311   5.610
   21SGML   C38 1078   1.763   3.160   5.507
   21SGML   C39 1079   1.893   3.146   5.477
   21SGML   C40 1080   1.957   3.128   5.343
   21SGML   C41 1081   2.049   3.244   5.306
   21SGML   C42 1082   2.143   3.202   5.192
   21SGML   C43 1083   2.243   3.100   5.246
   21SGML   C44 1084   2.339   3.048   5.139
   21SGML   C45 1085   2.440   2.952   5.201
   21SGML   C46 1086   2.542   2.899   5.101
   21SGML   C47 1087   2.478   2.806   4.997
   21SGML   C48 1088   2.586   2.741   4.911
   21SGML   C49 1089   2.526   2.653   4.802
   21SGML   C50 1090   2.453   2.737   4.697
   21SGML   C51 1091   2.399   2.650   4.584
   21SGML   C52 1092   2.329   2.735   4.478
   22SGML    C1 1093   0.190   2.342   6.289
   22SGML    C2 1094   0.085   2.556   6.282
   22SGML    C3 1095   5.246   2.360   6.214
   22SGML    N4 1096   0.098   2.427   6.213
   22SGML    C5 1097   0.140   2.438   6.071
   22SGML    C6 1098   0.262   2.525   6.031
   22SGML   OS7 1099   0.236   2.664   6.045
   22SGML    P8 1100   0.356   2.758   6.013
   22SGML   OM9 1101   0.343   2.877   6.098
   22SGML  OM10 1102   0.482   2.681   6.018
   22SGML  OS11 1103   0.323   2.792   5.862
   22SGML   C12 1104   0.337   2.930   5.828
   22SGML   C13 1105   0.295   2.965   5.685
   22SGML   N14 1106   0.327   3.109   5.664
   22SGML   H15 1107   0.423   3.133   5.636
   22SGML   C16 1108   0.246   3.213   5.698
   22SGML   O17 1109   0.159   3.201   5.785
   22SGML   C18 1110   0.291   3.349   5.649
   22SGML   C19 1111   0.192   3.406   5.548
   22SGML   C20 1112   0.208   3.338   5.411
   22SGML   C21 1113   0.106   3.390   5.310
   22SGML   C22 1114   0.141   3.342   5.169
   22SGML   C23 1115   0.039   3.394   5.067
   22SGML   C24 1116   0.093   3.384   4.925
   22SGML   C25 1117   0.109   3.239   4.876
   22SGML   C26 1118   0.153   3.239   4.730
   22SGML   C27 1119   0.149   3.099   4.669
   22SGML   C28 1120   0.269   3.013   4.708
   22SGML   C29 1121   0.245   2.869   4.661
   22SGML   C30 1122   0.372   2.783   4.667
   22SGML   C31 1123   0.467   2.818   4.552
   22SGML   C32 1124   0.585   2.721   4.547
   22SGML   C33 1125   0.675   2.752   4.428
   22SGML   C34 1126   0.792   2.653   4.421
   22SGML   C35 1127   0.151   2.917   5.654
   22SGML  OA36 1128   0.128   2.783   5.701
   22SGML   H37 1129   0.205   2.771   5.769
   22SGML   C38 1130   0.119   2.933   5.508
   22SGML   C39 1131   0.086   2.840   5.418
   22SGML   C40 1132   0.056   2.865   5.273
   22SGML   C41 1133   0.128   2.770   5.178
   22SGML   C42 1134   0.280   2.790   5.177
   22SGML   C43 1135   0.343   2.686   5.084
   22SGML   C44 1136   0.494   2.705   5.070
   22SGML   C45 1137   0.551   2.595   4.980
   22SGML   C46 1138   0.700   2.616   4.954
   22SGML   C47 1139   0.754   2.504   4.864
   22SGML   C48 1140   0.899   2.531   4.825
   22SGML   C49 1141   0.952   2.425   4.728
   22SGML   C50 1142   1.089   2.466   4.675
   22SGML   C51 1143   1.142   2.364   4.574
   22SGML   C52 1144   1.051   2.357   4.452
   23SGML    C1 1145   3.220   1.498   1.394
   23SGML    C2 1146   3.293   1.625   1.581
   23SGML    C3 1147   3.077   1.526   1.584
   23SGML    N4 1148   3.176   1.592   1.498
   23SGML    C5 1149   3.116   1.716   1.443
   23SGML    C6 1150   3.187   1.799   1.333
   23SGML   OS7 1151   3.319   1.841   1.365
   23SGML    P8 1152   3.353   1.989   1.322
   23SGML   OM9 1153   3.497   2.000   1.299
   23SGML  OM10 1154   3.259   2.033   1.217
   23SGML  OS11 1155   3.315   2.067   1.452
   23SGML   C12 1156   3.407   2.047   1.561
   23SGML   C13 1157   3.357   2.092   1.698
   23SGML   N14 1158   3.475   2.085   1.790
   23SGML   H15 1159   3.526   1.997   1.802
   23SGML   C16 1160   3.530   2.194   1.848
   23SGML   O17 1161   3.501   2.309   1.812
   23SGML   C18 1162   3.646   2.165   1.942
   23SGML   C19 1163   3.601   2.162   2.088
   23SGML   C20 1164   3.711   2.104   2.175
   23SGML   C21 1165   3.670   2.105   2.322
   23SGML   C22 1166   3.782   2.048   2.410
   23SGML   C23 1167   3.745   2.064   2.558
   23SGML   C24 1168   3.738   2.212   2.595
   23SGML   C25 1169   3.696   2.228   2.741
   23SGML   C26 1170   3.807   2.180   2.834
   23SGML   C27 1171   3.756   2.167   2.978
   23SGML   C28 1172   3.869   2.115   3.066
   23SGML   C29 1173   3.818   2.063   3.201
   23SGML   C30 1174   3.768   2.176   3.291
   23SGML   C31 1175   3.731   2.118   3.428
   23SGML   C32 1176   3.854   2.060   3.496
   23SGML   C33 1177   3.820   2.000   3.632
   23SGML   C34 1178   3.942   1.932   3.693
   23SGML   C35 1179   3.236   2.006   1.741
   23SGML  OA36 1180   3.120   2.021   1.656
   23SGML   H37 1181   3.125   2.117   1.618
   23SGML   C38 1182   3.193   2.036   1.881
   23SGML   C39 1183   3.213   1.953   1.984
   23SGML   C40 1184   3.173   1.972   2.127
   23SGML   C41 1185   3.094   1.852   2.178
   23SGML   C42 1186   3.044   1.875   2.320
   23SGML   C43 1187   2.959   1.757   2.367
   23SGML   C44 1188   2.884   1.796   2.495
   23SGML   C45 1189   2.978   1.808   2.614
   23SGML   C46 1190   2.907   1.883   2.727
   23SGML   C47 1191   2.982   1.870   2.860
   23SGML   C48 1192   2.969   1.728   2.914
   23SGML   C49 1193   3.019   1.719   3.058
   23SGML   C50 1194   2.978   1.585   3.118
   23SGML   C51 1195   3.009   1.579   3.267
   23SGML   C52 1196   2.953   1.451   3.329
   24SGML    C1 1197   5.221   2.456   1.489
   24SGML    C2 1198   0.030   2.265   1.599
   24SGML    C3 1199   5.239   2.453   1.727
   24SGML    N4 1200   0.025   2.412   1.602
   24SGML    C5 1201   0.163   2.463   1.593
   24SGML    C6 1202   0.190   2.616   1.600
   24SGML   OS7 1203   0.326   2.650   1.571
   24SGML    P8 1204   0.357   2.800   1.607
   24SGML   OM9 1205   0.496   2.823   1.565
   24SGML  OM10 1206   0.246   2.881   1.553
   24SGML  OS11 1207   0.345   2.798   1.765
   24SGML   C12 1208   0.447   2.871   1.834
   24SGML   C13 1209   0.400   2.928   1.968
   24SGML   N14 1210   0.509   3.012   2.022
   24SGML   H15 1211   0.602   2.970   2.034
   24SGML   C16 1212   0.495   3.146   2.039
   24SGML   O17 1213   0.402   3.206   1.983
   24SGML   C18 1214   0.613   3.217   2.104
   24SGML   C19 1215   0.572   3.296   2.228
   24SGML   C20 1216   0.556   3.205   2.349
   24SGML   C21 1217   0.526   3.287   2.475
   24SGML   C22 1218   0.383   3.339   2.476
   24SGML   C23 1219   0.360   3.431   2.596
   24SGML   C24 1220   0.389   3.357   2.727
   24SGML   C25 1221   0.361   3.445   2.849
   24SGML   C26 1222   0.409   3.375   2.976
   24SGML   C27 1223   0.373   3.454   3.102
   24SGML   C28 1224   0.223   3.446   3.130
   24SGML   C29 1225   0.186   3.520   3.259
   24SGML   C30 1226   0.250   3.455   3.382
   24SGML   C31 1227   0.207   3.528   3.509
   24SGML   C32 1228   0.279   3.475   3.633
   24SGML   C33 1229   0.236   3.332   3.665
   24SGML   C34 1230   0.303   3.282   3.793
   24SGML   C35 1231   0.356   2.814   2.063
   24SGML  OA36 1232   0.270   2.721   1.994
   24SGML   H37 1233   0.294   2.739   1.894
   24SGML   C38 1234   0.294   2.868   2.189
   24SGML   C39 1235   0.171   2.849   2.237
   24SGML   C40 1236   0.113   2.907   2.363
   24SGML   C41 1237   0.087   2.798   2.467
   24SGML   C42 1238   0.010   2.851   2.589
   24SGML   C43 1239   5.274   2.739   2.693
   24SGML   C44 1240   5.174   2.773   2.803
   24SGML   C45 1241   5.219   2.891   2.890
   24SGML   C46 1242   5.119   2.911   3.005
   24SGML   C47 1243   5.129   2.796   3.105
   24SGML   C48 1244   5.020   2.803   3.212
   24SGML   C49 1245   5.034   2.928   3.299
   24SGML   C50 1246   4.925   2.932   3.406
   24SGML   C51 1247   4.954   2.835   3.520
   24SGML   C52 1248   5.066   2.888   3.610
   25SGML    C1 1249   2.018   3.111   6.055
   25SGML    C2 1250   2.177   2.938   6.002
   25SGML    C3 1251   2.004   2.897   6.158
   25SGML    N4 1252   2.097   2.999   6.109
   25SGML    C5 1253   2.183   3.042   6.221
   25SGML    C6 1254   2.296   3.145   6.201
   25SGML   OS7 1255   2.251   3.277   6.172
   25SGML    P8 1256   2.362   3.387   6.182
   25SGML   OM9 1257   2.295   3.517   6.191
   25SGML  OM10 1258   2.456   3.344   6.288
   25SGML  OS11 1259   2.433   3.365   6.042
   25SGML   C12 1260   2.376   3.441   5.935
   25SGML   C13 1261   2.458   3.440   5.805
   25SGML   N14 1262   2.376   3.514   5.707
   25SGML   H15 1263   2.289   3.469   5.676
   25SGML   C16 1264   2.399   3.641   5.668
   25SGML   O17 1265   2.484   3.712   5.725
   25SGML   C18 1266   2.294   3.698   5.574
   25SGML   C19 1267   2.350   3.744   5.439
   25SGML   C20 1268   2.315   3.646   5.326
   25SGML   C21 1269   2.353   3.705   5.190
   25SGML   C22 1270   2.270   3.830   5.158
   25SGML   C23 1271   2.124   3.796   5.128
   25SGML   C24 1272   2.037   3.922   5.123
   25SGML   C25 1273   1.890   3.886   5.104
   25SGML   C26 1274   1.797   4.003   5.140
   25SGML   C27 1275   1.652   3.957   5.128
   25SGML   C28 1276   1.551   4.057   5.185
   25SGML   C29 1277   1.568   4.074   5.336
   25SGML   C30 1278   1.440   4.131   5.398
   25SGML   C31 1279   1.410   4.273   5.348
   25SGML   C32 1280   1.274   4.319   5.402
   25SGML   C33 1281   1.239   4.459   5.352
   25SGML   C34 1282   1.099   4.500   5.398
   25SGML   C35 1283   2.482   3.294   5.759
   25SGML  OA36 1284   2.522   3.209   5.868
   25SGML   H37 1285   2.486   3.265   5.948
   25SGML   C38 1286   2.580   3.284   5.645
   25SGML   C39 1287   2.552   3.242   5.521
   25SGML   C40 1288   2.651   3.229   5.410
   25SGML   C41 1289   2.622   3.320   5.290
   25SGML   C42 1290   2.729   3.297   5.183
   25SGML   C43 1291   2.719   3.396   5.067
   25SGML   C44 1292   2.611   3.361   4.965
   25SGML   C45 1293   2.646   3.232   4.890
   25SGML   C46 1294   2.557   3.214   4.767
   25SGML   C47 1295   2.410   3.217   4.806
   25SGML   C48 1296   2.318   3.197   4.685
   25SGML   C49 1297   2.173   3.224   4.724
   25SGML   C50 1298   2.156   3.372   4.760
   25SGML   C51 1299   2.012   3.403   4.802
   25SGML   C52 1300   1.996   3.551   4.838
   26SGML    C1 1301   2.703   2.446   6.465
   26SGML    C2 1302   2.496   2.562   6.459
   26SGML    C3 1303   2.646   2.584   6.277
   26SGML    N4 1304   2.638   2.571   6.423
   26SGML    C5 1305   2.692   2.689   6.496
   26SGML    C6 1306   2.835   2.743   6.471
   26SGML   OS7 1307   2.857   2.803   6.342
   26SGML    P8 1308   2.998   2.873   6.339
   26SGML   OM9 1309   2.978   2.990   6.424
   26SGML  OM10 1310   3.097   2.769   6.372
   26SGML  OS11 1311   2.999   2.918   6.187
   26SGML   C12 1312   3.068   2.837   6.091
   26SGML   C13 1313   2.991   2.717   6.035
   26SGML   N14 1314   3.078   2.645   5.940
   26SGML   H15 1315   3.162   2.691   5.903
   26SGML   C16 1316   3.054   2.518   5.899
   26SGML   O17 1317   2.957   2.458   5.946
   26SGML   C18 1318   3.152   2.461   5.797
   26SGML   C19 1319   3.078   2.380   5.692
   26SGML   C20 1320   3.146   2.390   5.556
   26SGML   C21 1321   3.131   2.531   5.500
   26SGML   C22 1322   3.181   2.541   5.356
   26SGML   C23 1323   3.097   2.453   5.263
   26SGML   C24 1324   3.124   2.487   5.117
   26SGML   C25 1325   3.046   2.394   5.024
   26SGML   C26 1326   3.048   2.447   4.881
   26SGML   C27 1327   2.984   2.346   4.784
   26SGML   C28 1328   2.961   2.412   4.648
   26SGML   C29 1329   3.093   2.463   4.588
   26SGML   C30 1330   3.065   2.535   4.456
   26SGML   C31 1331   3.030   2.436   4.345
   26SGML   C32 1332   2.977   2.511   4.222
   26SGML   C33 1333   3.082   2.607   4.166
   26SGML   C34 1334   3.023   2.690   4.052
   26SGML   C35 1335   2.858   2.768   5.975
   26SGML  OA36 1336   2.769   2.657   5.954
   26SGML   H37 1337   2.834   2.578   5.943
   26SGML   C38 1338   2.883   2.849   5.850
   26SGML   C39 1339   2.824   2.839   5.730
   26SGML   C40 1340   2.857   2.923   5.610
   26SGML   C41 1341   2.871   2.840   5.483
   26SGML   C42 1342   2.919   2.927   5.366
   26SGML   C43 1343   2.916   2.850   5.234
   26SGML   C44 1344   2.979   2.933   5.122
   26SGML   C45 1345   2.960   2.866   4.986
   26SGML   C46 1346   3.040   2.941   4.879
   26SGML   C47 1347   3.012   2.889   4.738
   26SGML   C48 1348   2.877   2.939   4.686
   26SGML   C49 1349   2.858   2.902   4.539
   26SGML   C50 1350   2.727   2.960   4.485
   26SGML   C51 1351   2.710   2.929   4.336
   26SGML   C52 1352   2.691   2.779   4.312
   27SGML    C1 1353   4.389   3.721   1.420
   27SGML    C2 1354   4.429   3.675   1.649
   27SGML    C3 1355   4.612   3.726   1.503
   27SGML    N4 1356   4.483   3.657   1.514
   27SGML    C5 1357   4.497   3.514   1.478
   27SGML    C6 1358   4.576   3.415   1.567
   27SGML   OS7 1359   4.716   3.438   1.584
   27SGML    P8 1360   4.786   3.308   1.640
   27SGML   OM9 1361   4.710   3.187   1.606
   27SGML  OM10 1362   4.932   3.316   1.618
   27SGML  OS11 1363   4.752   3.344   1.789
   27SGML   C12 1364   4.834   3.281   1.888
   27SGML   C13 1365   4.826   3.353   2.023
   27SGML   N14 1366   4.926   3.292   2.113
   27SGML   H15 1367   4.940   3.189   2.109
   27SGML   C16 1368   5.016   3.368   2.179
   27SGML   O17 1369   5.026   3.488   2.151
   27SGML   C18 1370   5.107   3.297   2.278
   27SGML   C19 1371   5.104   3.371   2.412
   27SGML   C20 1372   5.184   3.296   2.518
   27SGML   C21 1373   5.165   3.366   2.653
   27SGML   C22 1374   5.238   3.291   2.765
   27SGML   C23 1375   5.203   3.354   2.900
   27SGML   C24 1376   5.054   3.334   2.929
   27SGML   C25 1377   5.014   3.399   3.061
   27SGML   C26 1378   5.081   3.331   3.180
   27SGML   C27 1379   5.029   3.389   3.312
   27SGML   C28 1380   5.099   3.324   3.431
   27SGML   C29 1381   5.042   3.374   3.563
   27SGML   C30 1382   5.121   3.315   3.680
   27SGML   C31 1383   5.066   3.363   3.815
   27SGML   C32 1384   5.155   3.314   3.929
   27SGML   C33 1385   5.153   3.161   3.937
   27SGML   C34 1386   5.242   3.111   4.051
   27SGML   C35 1387   4.679   3.355   2.072
   27SGML  OA36 1388   4.599   3.422   1.974
   27SGML   H37 1389   4.651   3.398   1.887
   27SGML   C38 1390   4.661   3.424   2.204
   27SGML   C39 1391   4.622   3.365   2.318
   27SGML   C40 1392   4.605   3.433   2.450
   27SGML   C41 1393   4.705   3.380   2.553
   27SGML   C42 1394   4.685   3.447   2.690
   27SGML   C43 1395   4.550   3.407   2.750
   27SGML   C44 1396   4.530   3.471   2.887
   27SGML   C45 1397   4.394   3.433   2.945
   27SGML   C46 1398   4.370   3.505   3.078
   27SGML   C47 1399   4.229   3.475   3.130
   27SGML   C48 1400   4.198   3.559   3.253
   27SGML   C49 1401   4.285   3.518   3.372
   27SGML   C50 1402   4.253   3.605   3.494
   27SGML   C51 1403   4.340   3.568   3.613
   27SGML   C52 1404   4.311   3.660   3.732
   28SGML    C1 1405   3.112   3.025   1.497
   28SGML    C2 1406   3.036   2.825   1.596
   28SGML    C3 1407   3.221   2.945   1.693
   28SGML    N4 1408   3.156   2.904   1.567
   28SGML    C5 1409   3.245   2.819   1.484
   28SGML    C6 1410   3.382   2.872   1.436
   28SGML   OS7 1411   3.463   2.771   1.375
   28SGML    P8 1412   3.599   2.827   1.321
   28SGML   OM9 1413   3.663   2.719   1.245
   28SGML  OM10 1414   3.574   2.957   1.257
   28SGML  OS11 1415   3.674   2.853   1.458
   28SGML   C12 1416   3.727   2.736   1.521
   28SGML   C13 1417   3.832   2.766   1.628
   28SGML   N14 1418   3.873   2.634   1.680
   28SGML   H15 1419   3.803   2.558   1.680
   28SGML   C16 1420   4.002   2.599   1.697
   28SGML   O17 1421   4.092   2.666   1.645
   28SGML   C18 1422   4.025   2.466   1.768
   28SGML   C19 1423   4.143   2.475   1.864
   28SGML   C20 1424   4.111   2.557   1.989
   28SGML   C21 1425   4.024   2.478   2.086
   28SGML   C22 1426   4.004   2.558   2.215
   28SGML   C23 1427   4.140   2.584   2.280
   28SGML   C24 1428   4.128   2.663   2.410
   28SGML   C25 1429   4.064   2.579   2.519
   28SGML   C26 1430   4.067   2.654   2.652
   28SGML   C27 1431   4.010   2.568   2.765
   28SGML   C28 1432   4.025   2.640   2.899
   28SGML   C29 1433   3.975   2.552   3.013
   28SGML   C30 1434   3.999   2.619   3.149
   28SGML   C31 1435   3.953   2.527   3.262
   28SGML   C32 1436   3.982   2.588   3.399
   28SGML   C33 1437   3.937   2.492   3.509
   28SGML   C34 1438   3.966   2.550   3.648
   28SGML   C35 1439   3.776   2.863   1.735
   28SGML  OA36 1440   3.701   2.971   1.678
   28SGML   H37 1441   3.680   2.934   1.583
   28SGML   C38 1442   3.882   2.919   1.826
   28SGML   C39 1443   3.860   2.967   1.950
   28SGML   C40 1444   3.960   3.024   2.045
   28SGML   C41 1445   3.943   2.967   2.186
   28SGML   C42 1446   3.801   2.995   2.235
   28SGML   C43 1447   3.773   2.933   2.373
   28SGML   C44 1448   3.825   3.020   2.488
   28SGML   C45 1449   3.785   2.953   2.620
   28SGML   C46 1450   3.810   3.042   2.742
   28SGML   C47 1451   3.766   2.968   2.869
   28SGML   C48 1452   3.777   3.056   2.993
   28SGML   C49 1453   3.673   3.169   2.990
   28SGML   C50 1454   3.680   3.255   3.116
   28SGML   C51 1455   3.811   3.335   3.122
   28SGML   C52 1456   3.816   3.420   3.248
   29SGML    C1 1457   3.602   3.600   5.957
   29SGML    C2 1458   3.721   3.737   6.112
   29SGML    C3 1459   3.713   3.798   5.884
   29SGML    N4 1460   3.722   3.683   5.975
   29SGML    C5 1461   3.848   3.608   5.947
   29SGML    C6 1462   3.882   3.477   6.022
   29SGML   OS7 1463   3.806   3.362   5.982
   29SGML    P8 1464   3.836   3.233   6.068
   29SGML   OM9 1465   3.845   3.279   6.208
   29SGML  OM10 1466   3.747   3.121   6.034
   29SGML  OS11 1467   3.984   3.200   6.021
   29SGML   C12 1468   3.991   3.109   5.910
   29SGML   C13 1469   4.031   3.180   5.780
   29SGML   N14 1470   3.979   3.099   5.667
   29SGML   H15 1471   3.880   3.114   5.643
   29SGML   C16 1472   4.040   2.993   5.607
   29SGML   O17 1473   4.132   2.929   5.659
   29SGML   C18 1474   3.972   2.948   5.479
   29SGML   C19 1475   4.076   2.920   5.370
   29SGML   C20 1476   4.010   2.912   5.233
   29SGML   C21 1477   4.114   2.886   5.124
   29SGML   C22 1478   4.050   2.891   4.985
   29SGML   C23 1479   4.152   2.866   4.875
   29SGML   C24 1480   4.088   2.884   4.737
   29SGML   C25 1481   4.189   2.865   4.625
   29SGML   C26 1482   4.229   2.719   4.607
   29SGML   C27 1483   4.326   2.704   4.489
   29SGML   C28 1484   4.348   2.557   4.454
   29SGML   C29 1485   4.442   2.543   4.335
   29SGML   C30 1486   4.384   2.613   4.212
   29SGML   C31 1487   4.474   2.593   4.090
   29SGML   C32 1488   4.433   2.686   3.975
   29SGML   C33 1489   4.295   2.652   3.919
   29SGML   C34 1490   4.258   2.747   3.806
   29SGML   C35 1491   4.177   3.229   5.789
   29SGML  OA36 1492   4.194   3.305   5.910
   29SGML   H37 1493   4.116   3.269   5.969
   29SGML   C38 1494   4.224   3.311   5.672
   29SGML   C39 1495   4.152   3.358   5.569
   29SGML   C40 1496   4.208   3.438   5.455
   29SGML   C41 1497   4.179   3.376   5.318
   29SGML   C42 1498   4.249   3.457   5.209
   29SGML   C43 1499   4.222   3.397   5.071
   29SGML   C44 1500   4.303   3.469   4.963
   29SGML   C45 1501   4.269   3.411   4.825
   29SGML   C46 1502   4.356   3.469   4.714
   29SGML   C47 1503   4.310   3.415   4.579
   29SGML   C48 1504   4.319   3.262   4.577
   29SGML   C49 1505   4.258   3.203   4.449
   29SGML   C50 1506   4.345   3.230   4.326
   29SGML   C51 1507   4.280   3.168   4.202
   29SGML   C52 1508   4.276   3.016   4.213
   30SGML    C1 1509   2.737   3.360   6.120
   30SGML    C2 1510   2.828   3.153   6.056
   30SGML    C3 1511   2.818   3.216   6.289
   30SGML    N4 1512   2.842   3.263   6.152
   30SGML    C5 1513   2.973   3.329   6.136
   30SGML    C6 1514   3.104   3.250   6.157
   30SGML   OS7 1515   3.218   3.327   6.116
   30SGML    P8 1516   3.356   3.262   6.155
   30SGML   OM9 1517   3.444   3.379   6.169
   30SGML  OM10 1518   3.335   3.169   6.266
   30SGML  OS11 1519   3.380   3.180   6.022
   30SGML   C12 1520   3.448   3.254   5.919
   30SGML   C13 1521   3.477   3.179   5.788
   30SGML   N14 1522   3.537   3.278   5.696
   30SGML   H15 1523   3.494   3.371   5.690
   30SGML   C16 1524   3.654   3.258   5.631
   30SGML   O17 1525   3.716   3.151   5.637
   30SGML   C18 1526   3.701   3.377   5.548
   30SGML   C19 1527   3.766   3.334   5.417
   30SGML   C20 1528   3.663   3.271   5.323
   30SGML   C21 1529   3.728   3.231   5.191
   30SGML   C22 1530   3.759   3.355   5.106
   30SGML   C23 1531   3.821   3.312   4.973
   30SGML   C24 1532   3.832   3.430   4.875
   30SGML   C25 1533   3.890   3.381   4.742
   30SGML   C26 1534   3.800   3.273   4.683
   30SGML   C27 1535   3.856   3.217   4.552
   30SGML   C28 1536   3.765   3.106   4.499
   30SGML   C29 1537   3.812   3.055   4.362
   30SGML   C30 1538   3.715   2.948   4.311
   30SGML   C31 1539   3.751   2.904   4.169
   30SGML   C32 1540   3.882   2.826   4.167
   30SGML   C33 1541   3.914   2.782   4.024
   30SGML   C34 1542   3.810   2.683   3.973
   30SGML   C35 1543   3.348   3.111   5.736
   30SGML  OA36 1544   3.291   3.029   5.839
   30SGML   H37 1545   3.316   3.083   5.924
   30SGML   C38 1546   3.373   3.027   5.614
   30SGML   C39 1547   3.309   3.035   5.497
   30SGML   C40 1548   3.338   2.949   5.377
   30SGML   C41 1549   3.474   2.878   5.388
   30SGML   C42 1550   3.490   2.774   5.278
   30SGML   C43 1551   3.491   2.836   5.138
   30SGML   C44 1552   3.494   2.725   5.033
   30SGML   C45 1553   3.493   2.779   4.890
   30SGML   C46 1554   3.491   2.661   4.793
   30SGML   C47 1555   3.493   2.703   4.646
   30SGML   C48 1556   3.491   2.578   4.558
   30SGML   C49 1557   3.493   2.609   4.409
   30SGML   C50 1558   3.488   2.479   4.329
   30SGML   C51 1559   3.491   2.506   4.178
   30SGML   C52 1560   3.482   2.375   4.100
   31SGML    C1 1561   0.855   2.734   1.656
   31SGML    C2 1562   0.894   2.498   1.650
   31SGML    C3 1563   0.692   2.585   1.740
   31SGML    N4 1564   0.837   2.608   1.728
   31SGML    C5 1565   0.895   2.614   1.865
   31SGML    C6 1566   1.047   2.619   1.890
   31SGML   OS7 1567   1.121   2.500   1.862
   31SGML    P8 1568   1.273   2.510   1.901
   31SGML   OM9 1569   1.346   2.425   1.805
   31SGML  OM10 1570   1.308   2.652   1.923
   31SGML  OS11 1571   1.270   2.432   2.039
   31SGML   C12 1572   1.355   2.493   2.138
   31SGML   C13 1573   1.325   2.447   2.281
   31SGML   N14 1574   1.377   2.554   2.370
   31SGML   H15 1575   1.320   2.637   2.381
   31SGML   C16 1576   1.503   2.563   2.419
   31SGML   O17 1577   1.595   2.490   2.379
   31SGML   C18 1578   1.528   2.683   2.508
   31SGML   C19 1579   1.535   2.643   2.656
   31SGML   C20 1580   1.540   2.767   2.745
   31SGML   C21 1581   1.539   2.727   2.892
   31SGML   C22 1582   1.667   2.653   2.930
   31SGML   C23 1583   1.661   2.606   3.075
   31SGML   C24 1584   1.793   2.541   3.117
   31SGML   C25 1585   1.786   2.490   3.260
   31SGML   C26 1586   1.761   2.603   3.359
   31SGML   C27 1587   1.767   2.551   3.503
   31SGML   C28 1588   1.910   2.507   3.535
   31SGML   C29 1589   1.921   2.454   3.678
   31SGML   C30 1590   2.067   2.417   3.706
   31SGML   C31 1591   2.085   2.369   3.850
   31SGML   C32 1592   2.234   2.349   3.879
   31SGML   C33 1593   2.256   2.308   4.025
   31SGML   C34 1594   2.406   2.296   4.055
   31SGML   C35 1595   1.360   2.298   2.299
   31SGML  OA36 1596   1.294   2.220   2.197
   31SGML   H37 1597   1.274   2.293   2.127
   31SGML   C38 1598   1.321   2.245   2.434
   31SGML   C39 1599   1.403   2.194   2.526
   31SGML   C40 1600   1.362   2.142   2.660
   31SGML   C41 1601   1.427   2.218   2.777
   31SGML   C42 1602   1.378   2.159   2.909
   31SGML   C43 1603   1.440   2.229   3.030
   31SGML   C44 1604   1.383   2.170   3.159
   31SGML   C45 1605   1.438   2.240   3.283
   31SGML   C46 1606   1.366   2.192   3.409
   31SGML   C47 1607   1.418   2.267   3.532
   31SGML   C48 1608   1.327   2.246   3.653
   31SGML   C49 1609   1.377   2.330   3.771
   31SGML   C50 1610   1.276   2.329   3.886
   31SGML   C51 1611   1.324   2.416   4.002
   31SGML   C52 1612   1.220   2.420   4.114
   32SGML    C1 1613   1.860   2.280   1.625
   32SGML    C2 1614   1.854   2.505   1.695
   32SGML    C3 1615   1.930   2.338   1.846
   32SGML    N4 1616   1.833   2.367   1.740
   32SGML    C5 1617   1.693   2.354   1.789
   32SGML    C6 1618   1.637   2.213   1.820
   32SGML   OS7 1619   1.701   2.144   1.927
   32SGML    P8 1620   1.697   1.987   1.915
   32SGML   OM9 1621   1.719   1.955   1.773
   32SGML  OM10 1622   1.781   1.922   2.017
   32SGML  OS11 1623   1.546   1.951   1.941
   32SGML   C12 1624   1.498   1.972   2.074
   32SGML   C13 1625   1.388   1.872   2.112
   32SGML   N14 1626   1.286   1.940   2.197
   32SGML   H15 1627   1.295   2.041   2.212
   32SGML   C16 1628   1.172   1.879   2.238
   32SGML   O17 1629   1.147   1.765   2.196
   32SGML   C18 1630   1.089   1.950   2.342
   32SGML   C19 1631   1.086   1.864   2.469
   32SGML   C20 1632   1.008   1.928   2.584
   32SGML   C21 1633   1.014   1.836   2.706
   32SGML   C22 1634   0.934   1.890   2.824
   32SGML   C23 1635   0.996   2.017   2.883
   32SGML   C24 1636   0.934   2.048   3.019
   32SGML   C25 1637   0.992   2.176   3.079
   32SGML   C26 1638   0.947   2.192   3.224
   32SGML   C27 1639   0.994   2.325   3.285
   32SGML   C28 1640   0.951   2.333   3.431
   32SGML   C29 1641   0.982   2.469   3.492
   32SGML   C30 1642   0.939   2.474   3.639
   32SGML   C31 1643   0.966   2.613   3.698
   32SGML   C32 1644   0.923   2.619   3.845
   32SGML   C33 1645   0.949   2.758   3.903
   32SGML   C34 1646   0.907   2.764   4.050
   32SGML   C35 1647   1.459   1.745   2.165
   32SGML  OA36 1648   1.366   1.637   2.184
   32SGML   H37 1649   1.274   1.686   2.189
   32SGML   C38 1650   1.535   1.776   2.291
   32SGML   C39 1651   1.527   1.714   2.409
   32SGML   C40 1652   1.603   1.748   2.533
   32SGML   C41 1653   1.512   1.754   2.656
   32SGML   C42 1654   1.594   1.777   2.783
   32SGML   C43 1655   1.504   1.765   2.906
   32SGML   C44 1656   1.585   1.776   3.035
   32SGML   C45 1657   1.494   1.751   3.155
   32SGML   C46 1658   1.573   1.754   3.286
   32SGML   C47 1659   1.481   1.719   3.403
   32SGML   C48 1660   1.559   1.717   3.535
   32SGML   C49 1661   1.468   1.673   3.649
   32SGML   C50 1662   1.544   1.671   3.782
   32SGML   C51 1663   1.452   1.623   3.895
   32SGML   C52 1664   1.526   1.623   4.028
   33SGML    C1 1665   3.509   2.878   6.067
   33SGML    C2 1666   3.411   2.817   6.274
   33SGML    C3 1667   3.594   2.970   6.270
   33SGML    N4 1668   3.538   2.849   6.208
   33SGML    C5 1669   3.629   2.733   6.224
   33SGML    C6 1670   3.769   2.741   6.159
   33SGML   OS7 1671   3.856   2.631   6.189
   33SGML    P8 1672   3.994   2.647   6.115
   33SGML   OM9 1673   4.028   2.790   6.114
   33SGML  OM10 1674   4.090   2.548   6.165
   33SGML  OS11 1675   3.951   2.602   5.970
   33SGML   C12 1676   4.035   2.661   5.870
   33SGML   C13 1677   4.030   2.586   5.737
   33SGML   N14 1678   4.134   2.648   5.653
   33SGML   H15 1679   4.140   2.750   5.649
   33SGML   C16 1680   4.244   2.578   5.615
   33SGML   O17 1681   4.258   2.459   5.649
   33SGML   C18 1682   4.345   2.653   5.530
   33SGML   C19 1683   4.411   2.561   5.428
   33SGML   C20 1684   4.316   2.525   5.313
   33SGML   C21 1685   4.385   2.431   5.215
   33SGML   C22 1686   4.298   2.399   5.094
   33SGML   C23 1687   4.376   2.311   4.996
   33SGML   C24 1688   4.299   2.287   4.865
   33SGML   C25 1689   4.389   2.215   4.765
   33SGML   C26 1690   4.320   2.198   4.629
   33SGML   C27 1691   4.418   2.145   4.525
   33SGML   C28 1692   4.353   2.134   4.387
   33SGML   C29 1693   4.456   2.092   4.282
   33SGML   C30 1694   4.391   2.078   4.144
   33SGML   C31 1695   4.496   2.042   4.038
   33SGML   C32 1696   4.551   1.901   4.062
   33SGML   C33 1697   4.659   1.866   3.959
   33SGML   C34 1698   4.598   1.853   3.819
   33SGML   C35 1699   3.885   2.583   5.683
   33SGML  OA36 1700   3.793   2.535   5.783
   33SGML   H37 1701   3.846   2.556   5.871
   33SGML   C38 1702   3.871   2.501   5.558
   33SGML   C39 1703   3.811   2.541   5.446
   33SGML   C40 1704   3.796   2.459   5.321
   33SGML   C41 1705   3.848   2.534   5.198
   33SGML   C42 1706   3.835   2.446   5.074
   33SGML   C43 1707   3.877   2.520   4.947
   33SGML   C44 1708   3.871   2.425   4.827
   33SGML   C45 1709   3.905   2.495   4.696
   33SGML   C46 1710   3.909   2.392   4.583
   33SGML   C47 1711   3.945   2.456   4.449
   33SGML   C48 1712   3.963   2.347   4.344
   33SGML   C49 1713   4.003   2.404   4.208
   33SGML   C50 1714   4.030   2.291   4.109
   33SGML   C51 1715   4.069   2.344   3.972
   33SGML   C52 1716   4.102   2.230   3.876
   34SGML    C1 1717   4.482   4.562   6.446
   34SGML    C2 1718   4.582   4.658   6.253
   34SGML    C3 1719   4.424   4.479   6.234
   34SGML    N4 1720   4.535   4.533   6.313
   34SGML    C5 1721   4.647   4.437   6.332
   34SGML    C6 1722   4.712   4.370   6.209
   34SGML   OS7 1723   4.834   4.305   6.243
   34SGML    P8 1724   4.901   4.229   6.123
   34SGML   OM9 1725   4.880   4.312   6.003
   34SGML  OM10 1726   5.032   4.190   6.173
   34SGML  OS11 1727   4.807   4.103   6.123
   34SGML   C12 1728   4.853   3.996   6.040
   34SGML   C13 1729   4.736   3.904   6.004
   34SGML   N14 1730   4.782   3.770   5.957
   34SGML   H15 1731   4.884   3.752   5.951
   34SGML   C16 1732   4.698   3.665   5.945
   34SGML   O17 1733   4.581   3.677   5.985
   34SGML   C18 1734   4.759   3.535   5.896
   34SGML   C19 1735   4.752   3.521   5.744
   34SGML   C20 1736   4.615   3.474   5.696
   34SGML   C21 1737   4.616   3.456   5.544
   34SGML   C22 1738   4.625   3.592   5.474
   34SGML   C23 1739   4.636   3.577   5.322
   34SGML   C24 1740   4.775   3.529   5.280
   34SGML   C25 1741   4.792   3.535   5.128
   34SGML   C26 1742   4.709   3.427   5.058
   34SGML   C27 1743   4.725   3.437   4.906
   34SGML   C28 1744   4.871   3.413   4.865
   34SGML   C29 1745   4.885   3.405   4.713
   34SGML   C30 1746   5.032   3.386   4.674
   34SGML   C31 1747   5.046   3.359   4.524
   34SGML   C32 1748   5.005   3.481   4.441
   34SGML   C33 1749   5.017   3.450   4.291
   34SGML   C34 1750   4.980   3.572   4.206
   34SGML   C35 1751   4.639   3.986   5.918
   34SGML  OA36 1752   4.516   3.914   5.903
   34SGML   H37 1753   4.541   3.817   5.933
   34SGML   C38 1754   4.699   4.027   5.786
   34SGML   C39 1755   4.650   4.007   5.663
   34SGML   C40 1756   4.712   4.050   5.534
   34SGML   C41 1757   4.622   4.148   5.458
   34SGML   C42 1758   4.675   4.174   5.317
   34SGML   C43 1759   4.798   4.265   5.315
   34SGML   C44 1760   4.859   4.263   5.175
   34SGML   C45 1761   4.759   4.313   5.070
   34SGML   C46 1762   4.812   4.285   4.930
   34SGML   C47 1763   4.709   4.325   4.823
   34SGML   C48 1764   4.756   4.278   4.685
   34SGML   C49 1765   4.653   4.311   4.577
   34SGML   C50 1766   4.693   4.251   4.443
   34SGML   C51 1767   4.589   4.281   4.336
   34SGML   C52 1768   4.622   4.210   4.205
   35SGML    C1 1769   1.532   3.189   1.603
   35SGML    C2 1770   1.721   3.048   1.632
   35SGML    C3 1771   1.606   3.136   1.822
   35SGML    N4 1772   1.652   3.166   1.685
   35SGML    C5 1773   1.737   3.287   1.681
   35SGML    C6 1774   1.859   3.306   1.776
   35SGML   OS7 1775   1.970   3.218   1.757
   35SGML    P8 1776   2.093   3.260   1.846
   35SGML   OM9 1777   2.200   3.164   1.819
   35SGML  OM10 1778   2.115   3.404   1.826
   35SGML  OS11 1779   2.040   3.243   1.995
   35SGML   C12 1780   2.089   3.127   2.065
   35SGML   C13 1781   2.081   3.138   2.218
   35SGML   N14 1782   2.150   3.021   2.278
   35SGML   H15 1783   2.104   2.930   2.282
   35SGML   C16 1784   2.277   3.030   2.324
   35SGML   O17 1785   2.349   3.127   2.294
   35SGML   C18 1786   2.330   2.908   2.398
   35SGML   C19 1787   2.410   2.951   2.521
   35SGML   C20 1788   2.316   3.010   2.626
   35SGML   C21 1789   2.394   3.067   2.744
   35SGML   C22 1790   2.460   2.958   2.828
   35SGML   C23 1791   2.531   3.021   2.947
   35SGML   C24 1792   2.597   2.917   3.037
   35SGML   C25 1793   2.662   2.986   3.156
   35SGML   C26 1794   2.728   2.887   3.252
   35SGML   C27 1795   2.797   2.962   3.365
   35SGML   C28 1796   2.865   2.866   3.464
   35SGML   C29 1797   2.940   2.945   3.571
   35SGML   C30 1798   3.011   2.852   3.668
   35SGML   C31 1799   3.115   2.767   3.595
   35SGML   C32 1800   3.204   2.692   3.694
   35SGML   C33 1801   3.296   2.789   3.768
   35SGML   C34 1802   3.389   2.715   3.864
   35SGML   C35 1803   1.934   3.157   2.261
   35SGML  OA36 1804   1.875   3.265   2.187
   35SGML   H37 1805   1.933   3.263   2.101
   35SGML   C38 1806   1.922   3.180   2.409
   35SGML   C39 1807   1.863   3.098   2.497
   35SGML   C40 1808   1.854   3.120   2.645
   35SGML   C41 1809   1.924   3.009   2.724
   35SGML   C42 1810   1.922   3.035   2.874
   35SGML   C43 1811   1.992   2.922   2.951
   35SGML   C44 1812   1.995   2.949   3.101
   35SGML   C45 1813   2.061   2.833   3.176
   35SGML   C46 1814   2.208   2.820   3.137
   35SGML   C47 1815   2.273   2.697   3.202
   35SGML   C48 1816   2.292   2.714   3.352
   35SGML   C49 1817   2.360   2.590   3.412
   35SGML   C50 1818   2.387   2.608   3.561
   35SGML   C51 1819   2.494   2.715   3.586
   35SGML   C52 1820   2.525   2.729   3.735
   36SGML    C1 1821   2.331   2.910   1.677
   36SGML    C2 1822   2.368   2.889   1.913
   36SGML    C3 1823   2.432   2.714   1.766
   36SGML    N4 1824   2.331   2.817   1.791
   36SGML    C5 1825   2.201   2.749   1.804
   36SGML    C6 1826   2.075   2.829   1.842
   36SGML   OS7 1827   1.960   2.746   1.849
   36SGML    P8 1828   1.839   2.814   1.921
   36SGML   OM9 1829   1.848   2.959   1.910
   36SGML  OM10 1830   1.720   2.743   1.874
   36SGML  OS11 1831   1.882   2.771   2.067
   36SGML   C12 1832   1.815   2.654   2.116
   36SGML   C13 1833   1.899   2.575   2.216
   36SGML   N14 1834   1.822   2.455   2.256
   36SGML   H15 1835   1.731   2.466   2.303
   36SGML   C16 1836   1.866   2.330   2.230
   36SGML   O17 1837   1.973   2.312   2.172
   36SGML   C18 1838   1.771   2.217   2.267
   36SGML   C19 1839   1.826   2.129   2.379
   36SGML   C20 1840   1.812   2.198   2.514
   36SGML   C21 1841   1.872   2.114   2.627
   36SGML   C22 1842   1.838   2.175   2.763
   36SGML   C23 1843   1.901   2.096   2.878
   36SGML   C24 1844   1.841   2.144   3.011
   36SGML   C25 1845   1.902   2.072   3.132
   36SGML   C26 1846   1.818   2.108   3.255
   36SGML   C27 1847   1.874   2.052   3.386
   36SGML   C28 1848   1.775   2.085   3.498
   36SGML   C29 1849   1.823   2.042   3.636
   36SGML   C30 1850   1.712   2.067   3.739
   36SGML   C31 1851   1.758   2.035   3.881
   36SGML   C32 1852   1.643   2.054   3.979
   36SGML   C33 1853   1.690   2.036   4.123
   36SGML   C34 1854   1.784   2.150   4.163
   36SGML   C35 1855   1.947   2.671   2.328
   36SGML  OA36 1856   2.030   2.773   2.269
   36SGML   H37 1857   1.979   2.787   2.180
   36SGML   C38 1858   2.018   2.600   2.439
   36SGML   C39 1859   1.987   2.609   2.569
   36SGML   C40 1860   2.055   2.534   2.678
   36SGML   C41 1861   2.170   2.613   2.740
   36SGML   C42 1862   2.241   2.530   2.846
   36SGML   C43 1863   2.290   2.398   2.785
   36SGML   C44 1864   2.384   2.326   2.882
   36SGML   C45 1865   2.315   2.287   3.012
   36SGML   C46 1866   2.420   2.232   3.109
   36SGML   C47 1867   2.362   2.203   3.247
   36SGML   C48 1868   2.476   2.167   3.343
   36SGML   C49 1869   2.426   2.144   3.486
   36SGML   C50 1870   2.544   2.119   3.579
   36SGML   C51 1871   2.498   2.091   3.722
   36SGML   C52 1872   2.617   2.066   3.815
   37SGML    C1 1873   4.850   3.643   6.412
   37SGML    C2 1874   4.921   3.483   6.249
   37SGML    C3 1875   4.722   3.446   6.373
   37SGML    N4 1876   4.859   3.500   6.381
   37SGML    C5 1877   4.932   3.425   6.487
   37SGML    C6 1878   5.076   3.469   6.525
   37SGML   OS7 1879   5.174   3.447   6.425
   37SGML    P8 1880   0.033   3.518   6.457
   37SGML   OM9 1881   0.036   3.564   6.596
   37SGML  OM10 1882   0.144   3.438   6.404
   37SGML  OS11 1883   0.012   3.647   6.367
   37SGML   C12 1884   0.026   3.626   6.226
   37SGML   C13 1885   5.250   3.741   6.142
   37SGML   N14 1886   5.265   3.704   5.999
   37SGML   H15 1887   0.081   3.692   5.961
   37SGML   C16 1888   5.160   3.694   5.915
   37SGML   O17 1889   5.043   3.705   5.954
   37SGML   C18 1890   5.197   3.662   5.771
   37SGML   C19 1891   5.113   3.744   5.673
   37SGML   C20 1892   5.161   3.720   5.530
   37SGML   C21 1893   5.079   3.800   5.429
   37SGML   C22 1894   5.131   3.773   5.288
   37SGML   C23 1895   5.046   3.846   5.183
   37SGML   C24 1896   5.099   3.814   5.043
   37SGML   C25 1897   5.011   3.877   4.935
   37SGML   C26 1898   5.069   3.848   4.797
   37SGML   C27 1899   4.984   3.910   4.686
   37SGML   C28 1900   5.051   3.892   4.550
   37SGML   C29 1901   4.967   3.955   4.440
   37SGML   C30 1902   5.038   3.948   4.305
   37SGML   C31 1903   4.946   4.001   4.195
   37SGML   C32 1904   5.014   3.995   4.058
   37SGML   C33 1905   4.918   4.038   3.948
   37SGML   C34 1906   4.803   3.938   3.934
   37SGML   C35 1907   0.046   3.871   6.180
   37SGML  OA36 1908   0.032   3.895   6.321
   37SGML   H37 1909   0.019   3.798   6.358
   37SGML   C38 1910   5.275   3.990   6.104
   37SGML   C39 1911   0.058   4.056   6.005
   37SGML   C40 1912   0.003   4.175   5.932
   37SGML   C41 1913   5.235   4.138   5.792
   37SGML   C42 1914   5.174   4.259   5.721
   37SGML   C43 1915   0.003   4.360   5.680
   37SGML   C44 1916   0.082   4.311   5.559
   37SGML   C45 1917   5.276   4.312   5.432
   37SGML   C46 1918   0.079   4.269   5.310
   37SGML   C47 1919   5.274   4.272   5.182
   37SGML   C48 1920   0.081   4.233   5.061
   37SGML   C49 1921   5.277   4.239   4.932
   37SGML   C50 1922   0.085   4.201   4.812
   37SGML   C51 1923   0.004   4.207   4.682
   37SGML   C52 1924   0.089   4.166   4.562
   38SGML    C1 1925   3.711   4.276   6.444
   38SGML    C2 1926   3.748   4.161   6.237
   38SGML    C3 1927   3.590   4.079   6.389
   38SGML    N4 1928   3.722   4.144   6.381
   38SGML    C5 1929   3.824   4.058   6.446
   38SGML    C6 1930   3.971   4.107   6.453
   38SGML   OS7 1931   4.038   4.115   6.327
   38SGML    P8 1932   4.172   4.197   6.343
   38SGML   OM9 1933   4.136   4.326   6.403
   38SGML  OM10 1934   4.267   4.106   6.410
   38SGML  OS11 1935   4.210   4.223   6.192
   38SGML   C12 1936   4.264   4.111   6.120
   38SGML   C13 1937   4.225   4.114   5.972
   38SGML   N14 1938   4.264   3.985   5.911
   38SGML   H15 1939   4.364   3.960   5.905
   38SGML   C16 1940   4.174   3.891   5.875
   38SGML   O17 1941   4.057   3.897   5.916
   38SGML   C18 1942   4.229   3.772   5.799
   38SGML   C19 1943   4.137   3.741   5.682
   38SGML   C20 1944   4.152   3.845   5.571
   38SGML   C21 1945   4.283   3.825   5.495
   38SGML   C22 1946   4.282   3.909   5.367
   38SGML   C23 1947   4.398   3.871   5.276
   38SGML   C24 1948   4.382   3.935   5.138
   38SGML   C25 1949   4.492   3.888   5.043
   38SGML   C26 1950   4.460   3.933   4.900
   38SGML   C27 1951   4.558   3.872   4.801
   38SGML   C28 1952   4.507   3.889   4.658
   38SGML   C29 1953   4.591   3.807   4.561
   38SGML   C30 1954   4.522   3.795   4.426
   38SGML   C31 1955   4.596   3.694   4.338
   38SGML   C32 1956   4.514   3.659   4.214
   38SGML   C33 1957   4.582   3.548   4.135
   38SGML   C34 1958   4.495   3.504   4.017
   38SGML   C35 1959   4.281   4.241   5.904
   38SGML  OA36 1960   4.241   4.357   5.978
   38SGML   H37 1961   4.222   4.316   6.072
   38SGML   C38 1962   4.242   4.251   5.759
   38SGML   C39 1963   4.136   4.319   5.710
   38SGML   C40 1964   4.090   4.337   5.569
   38SGML   C41 1965   4.192   4.295   5.463
   38SGML   C42 1966   4.137   4.330   5.325
   38SGML   C43 1967   4.235   4.300   5.212
   38SGML   C44 1968   4.172   4.336   5.077
   38SGML   C45 1969   4.261   4.295   4.960
   38SGML   C46 1970   4.187   4.320   4.828
   38SGML   C47 1971   4.262   4.258   4.710
   38SGML   C48 1972   4.178   4.268   4.582
   38SGML   C49 1973   4.239   4.182   4.471
   38SGML   C50 1974   4.145   4.174   4.351
   38SGML   C51 1975   4.197   4.074   4.247
   38SGML   C52 1976   4.097   4.055   4.134
   39SGML    C1 1977   2.709   2.189   1.697
   39SGML    C2 1978   2.738   2.190   1.464
   39SGML    C3 1979   2.574   2.332   1.557
   39SGML    N4 1980   2.637   2.199   1.569
   39SGML    C5 1981   2.541   2.087   1.548
   39SGML    C6 1982   2.411   2.083   1.631
   39SGML   OS7 1983   2.325   1.973   1.603
   39SGML    P8 1984   2.184   1.992   1.669
   39SGML   OM9 1985   2.143   2.133   1.664
   39SGML  OM10 1986   2.094   1.888   1.619
   39SGML  OS11 1987   2.223   1.958   1.818
   39SGML   C12 1988   2.111   1.935   1.904
   39SGML   C13 1989   2.152   1.914   2.050
   39SGML   N14 1990   2.037   1.855   2.122
   39SGML   H15 1991   1.943   1.890   2.100
   39SGML   C16 1992   2.048   1.741   2.193
   39SGML   O17 1993   2.138   1.659   2.168
   39SGML   C18 1994   1.925   1.703   2.273
   39SGML   C19 1995   1.960   1.630   2.403
   39SGML   C20 1996   2.008   1.724   2.513
   39SGML   C21 1997   2.020   1.649   2.646
   39SGML   C22 1998   2.060   1.741   2.761
   39SGML   C23 1999   2.065   1.664   2.893
   39SGML   C24 2000   2.111   1.752   3.009
   39SGML   C25 2001   2.122   1.670   3.138
   39SGML   C26 2002   1.983   1.633   3.193
   39SGML   C27 2003   1.994   1.525   3.300
   39SGML   C28 2004   2.061   1.572   3.429
   39SGML   C29 2005   1.968   1.661   3.513
   39SGML   C30 2006   2.030   1.692   3.649
   39SGML   C31 2007   2.154   1.781   3.634
   39SGML   C32 2008   2.222   1.805   3.769
   39SGML   C33 2009   2.137   1.893   3.860
   39SGML   C34 2010   2.205   1.913   3.996
   39SGML   C35 2011   2.210   2.046   2.106
   39SGML  OA36 2012   2.319   2.091   2.024
   39SGML   H37 2013   2.299   2.044   1.935
   39SGML   C38 2014   2.254   2.036   2.248
   39SGML   C39 2015   2.213   2.115   2.348
   39SGML   C40 2016   2.254   2.106   2.492
   39SGML   C41 2017   2.351   1.990   2.516
   39SGML   C42 2018   2.380   1.974   2.665
   39SGML   C43 2019   2.475   1.856   2.688
   39SGML   C44 2020   2.479   1.819   2.837
   39SGML   C45 2021   2.568   1.697   2.860
   39SGML   C46 2022   2.543   1.639   2.999
   39SGML   C47 2023   2.589   1.733   3.111
   39SGML   C48 2024   2.542   1.677   3.246
   39SGML   C49 2025   2.593   1.761   3.363
   39SGML   C50 2026   2.526   1.717   3.492
   39SGML   C51 2027   2.561   1.572   3.526
   39SGML   C52 2028   2.483   1.525   3.649
   40SGML    C1 2029   3.452   2.537   1.081
   40SGML    C2 2030   3.521   2.445   1.289
   40SGML    C3 2031   3.414   2.308   1.126
   40SGML    N4 2032   3.416   2.441   1.186
   40SGML    C5 2033   3.284   2.482   1.239
   40SGML    C6 2034   3.219   2.406   1.357
   40SGML   OS7 2035   3.094   2.464   1.397
   40SGML    P8 2036   3.042   2.413   1.537
   40SGML   OM9 2037   2.900   2.450   1.547
   40SGML  OM10 2038   3.083   2.272   1.555
   40SGML  OS11 2039   3.121   2.514   1.628
   40SGML   C12 2040   3.216   2.464   1.721
   40SGML   C13 2041   3.267   2.579   1.807
   40SGML   N14 2042   3.400   2.547   1.864
   40SGML   H15 2043   3.438   2.452   1.849
   40SGML   C16 2044   3.483   2.641   1.914
   40SGML   O17 2045   3.446   2.760   1.919
   40SGML   C18 2046   3.610   2.590   1.980
   40SGML   C19 2047   3.615   2.635   2.125
   40SGML   C20 2048   3.499   2.573   2.204
   40SGML   C21 2049   3.495   2.625   2.347
   40SGML   C22 2050   3.597   2.554   2.436
   40SGML   C23 2051   3.592   2.614   2.577
   40SGML   C24 2052   3.450   2.608   2.631
   40SGML   C25 2053   3.440   2.667   2.772
   40SGML   C26 2054   3.498   2.571   2.876
   40SGML   C27 2055   3.480   2.628   3.017
   40SGML   C28 2056   3.519   2.525   3.123
   40SGML   C29 2057   3.500   2.582   3.263
   40SGML   C30 2058   3.528   2.476   3.369
   40SGML   C31 2059   3.517   2.534   3.510
   40SGML   C32 2060   3.541   2.426   3.617
   40SGML   C33 2061   3.428   2.323   3.617
   40SGML   C34 2062   3.453   2.215   3.722
   40SGML   C35 2063   3.156   2.623   1.904
   40SGML  OA36 2064   3.191   2.753   1.955
   40SGML   H37 2065   3.295   2.754   1.945
   40SGML   C38 2066   3.134   2.528   2.018
   40SGML   C39 2067   3.022   2.459   2.045
   40SGML   C40 2068   3.002   2.367   2.161
   40SGML   C41 2069   3.117   2.376   2.262
   40SGML   C42 2070   3.088   2.290   2.385
   40SGML   C43 2071   3.200   2.305   2.489
   40SGML   C44 2072   3.169   2.223   2.615
   40SGML   C45 2073   3.278   2.241   2.720
   40SGML   C46 2074   3.250   2.158   2.844
   40SGML   C47 2075   3.362   2.175   2.948
   40SGML   C48 2076   3.342   2.080   3.066
   40SGML   C49 2077   3.225   2.123   3.155
   40SGML   C50 2078   3.199   2.017   3.262
   40SGML   C51 2079   3.320   2.002   3.354
   40SGML   C52 2080   3.297   1.888   3.454
   41SGML    C1 2081   2.178   4.239   6.408
   41SGML    C2 2082   2.110   4.449   6.499
   41SGML    C3 2083   1.950   4.299   6.400
   41SGML    N4 2084   2.086   4.353   6.390
   41SGML    C5 2085   2.115   4.411   6.257
   41SGML    C6 2086   2.028   4.523   6.196
   41SGML   OS7 2087   1.894   4.483   6.166
   41SGML    P8 2088   1.814   4.582   6.076
   41SGML   OM9 2089   1.672   4.569   6.110
   41SGML  OM10 2090   1.881   4.714   6.075
   41SGML  OS11 2091   1.840   4.518   5.934
   41SGML   C12 2092   1.757   4.578   5.835
   41SGML   C13 2093   1.759   4.512   5.696
   41SGML   N14 2094   1.748   4.623   5.598
   41SGML   H15 2095   1.836   4.669   5.575
   41SGML   C16 2096   1.633   4.683   5.557
   41SGML   O17 2097   1.524   4.651   5.606
   41SGML   C18 2098   1.650   4.797   5.459
   41SGML   C19 2099   1.707   4.748   5.326
   41SGML   C20 2100   1.604   4.663   5.251
   41SGML   C21 2101   1.663   4.608   5.121
   41SGML   C22 2102   1.565   4.512   5.054
   41SGML   C23 2103   1.628   4.444   4.934
   41SGML   C24 2104   1.536   4.333   4.883
   41SGML   C25 2105   1.607   4.246   4.778
   41SGML   C26 2106   1.524   4.121   4.753
   41SGML   C27 2107   1.595   4.022   4.661
   41SGML   C28 2108   1.731   3.982   4.719
   41SGML   C29 2109   1.772   3.844   4.669
   41SGML   C30 2110   1.777   3.838   4.517
   41SGML   C31 2111   1.811   3.697   4.470
   41SGML   C32 2112   1.804   3.686   4.318
   41SGML   C33 2113   1.836   3.543   4.273
   41SGML   C34 2114   1.823   3.530   4.121
   41SGML   C35 2115   1.665   4.389   5.688
   41SGML  OA36 2116   1.530   4.426   5.716
   41SGML   H37 2117   1.522   4.519   5.670
   41SGML   C38 2118   1.710   4.276   5.775
   41SGML   C39 2119   1.724   4.149   5.737
   41SGML   C40 2120   1.768   4.035   5.824
   41SGML   C41 2121   1.871   3.945   5.757
   41SGML   C42 2122   1.810   3.872   5.637
   41SGML   C43 2123   1.913   3.779   5.573
   41SGML   C44 2124   1.857   3.705   5.452
   41SGML   C45 2125   1.748   3.605   5.492
   41SGML   C46 2126   1.710   3.516   5.373
   41SGML   C47 2127   1.628   3.590   5.268
   41SGML   C48 2128   1.603   3.499   5.148
   41SGML   C49 2129   1.513   3.564   5.043
   41SGML   C50 2130   1.496   3.471   4.923
   41SGML   C51 2131   1.395   3.526   4.822
   41SGML   C52 2132   1.446   3.654   4.756
   42SGML    C1 2133   0.650   2.946   6.089
   42SGML    C2 2134   0.715   3.119   5.941
   42SGML    C3 2135   0.879   2.986   6.055
   42SGML    N4 2136   0.748   3.052   6.067
   42SGML    C5 2137   0.735   3.143   6.183
   42SGML    C6 2138   0.838   3.257   6.204
   42SGML   OS7 2139   0.966   3.207   6.243
   42SGML    P8 2140   1.082   3.309   6.220
   42SGML   OM9 2141   1.038   3.443   6.262
   42SGML  OM10 2142   1.199   3.243   6.279
   42SGML  OS11 2143   1.092   3.298   6.062
   42SGML   C12 2144   1.106   3.425   5.998
   42SGML   C13 2145   1.140   3.421   5.849
   42SGML   N14 2146   1.146   3.563   5.809
   42SGML   H15 2147   1.071   3.627   5.840
   42SGML   C16 2148   1.258   3.618   5.756
   42SGML   O17 2149   1.356   3.548   5.731
   42SGML   C18 2150   1.252   3.767   5.726
   42SGML   C19 2151   1.292   3.794   5.581
   42SGML   C20 2152   1.185   3.738   5.488
   42SGML   C21 2153   1.217   3.763   5.341
   42SGML   C22 2154   1.108   3.698   5.255
   42SGML   C23 2155   1.129   3.722   5.106
   42SGML   C24 2156   1.018   3.652   5.027
   42SGML   C25 2157   1.031   3.677   4.877
   42SGML   C26 2158   0.919   3.606   4.801
   42SGML   C27 2159   0.783   3.664   4.838
   42SGML   C28 2160   0.671   3.597   4.757
   42SGML   C29 2161   0.682   3.634   4.609
   42SGML   C30 2162   0.566   3.575   4.529
   42SGML   C31 2163   0.581   3.424   4.509
   42SGML   C32 2164   0.690   3.393   4.406
   42SGML   C33 2165   0.697   3.243   4.377
   42SGML   C34 2166   0.805   3.212   4.273
   42SGML   C35 2167   1.037   3.334   5.773
   42SGML  OA36 2168   1.018   3.207   5.837
   42SGML   H37 2169   1.053   3.226   5.933
   42SGML   C38 2170   1.080   3.314   5.631
   42SGML   C39 2171   1.012   3.341   5.519
   42SGML   C40 2172   1.067   3.319   5.382
   42SGML   C41 2173   0.998   3.206   5.306
   42SGML   C42 2174   1.077   3.177   5.179
   42SGML   C43 2175   1.217   3.129   5.217
   42SGML   C44 2176   1.308   3.121   5.095
   42SGML   C45 2177   1.451   3.083   5.135
   42SGML   C46 2178   1.541   3.093   5.012
   42SGML   C47 2179   1.688   3.069   5.045
   42SGML   C48 2180   1.772   3.100   4.920
   42SGML   C49 2181   1.736   3.004   4.807
   42SGML   C50 2182   1.793   3.051   4.673
   42SGML   C51 2183   1.719   3.176   4.625
   42SGML   C52 2184   1.773   3.224   4.490
   43SGML    C1 2185   3.885   4.522   1.941
   43SGML    C2 2186   3.708   4.562   1.787
   43SGML    C3 2187   3.899   4.437   1.720
   43SGML    N4 2188   3.854   4.551   1.801
   43SGML    C5 2189   3.913   4.679   1.755
   43SGML    C6 2190   4.064   4.708   1.775
   43SGML   OS7 2191   4.148   4.608   1.719
   43SGML    P8 2192   4.299   4.648   1.709
   43SGML   OM9 2193   4.342   4.550   1.609
   43SGML  OM10 2194   4.304   4.791   1.679
   43SGML  OS11 2195   4.347   4.617   1.856
   43SGML   C12 2196   4.447   4.514   1.860
   43SGML   C13 2197   4.507   4.479   1.996
   43SGML   N14 2198   4.395   4.434   2.083
   43SGML   H15 2199   4.323   4.502   2.106
   43SGML   C16 2200   4.365   4.304   2.100
   43SGML   O17 2201   4.408   4.217   2.023
   43SGML   C18 2202   4.250   4.281   2.196
   43SGML   C19 2203   4.269   4.361   2.325
   43SGML   C20 2204   4.365   4.289   2.420
   43SGML   C21 2205   4.377   4.365   2.552
   43SGML   C22 2206   4.446   4.277   2.657
   43SGML   C23 2207   4.458   4.348   2.792
   43SGML   C24 2208   4.566   4.456   2.788
   43SGML   C25 2209   4.574   4.527   2.923
   43SGML   C26 2210   4.447   4.609   2.947
   43SGML   C27 2211   4.447   4.667   3.089
   43SGML   C28 2212   4.433   4.555   3.192
   43SGML   C29 2213   4.430   4.612   3.334
   43SGML   C30 2214   4.420   4.500   3.438
   43SGML   C31 2215   4.425   4.558   3.579
   43SGML   C32 2216   4.422   4.448   3.684
   43SGML   C33 2217   4.434   4.507   3.825
   43SGML   C34 2218   4.430   4.396   3.931
   43SGML   C35 2219   4.590   4.599   2.049
   43SGML  OA36 2220   4.705   4.625   1.966
   43SGML   H37 2221   4.767   4.542   1.970
   43SGML   C38 2222   4.636   4.575   2.189
   43SGML   C39 2223   4.613   4.659   2.292
   43SGML   C40 2224   4.654   4.643   2.435
   43SGML   C41 2225   4.759   4.747   2.476
   43SGML   C42 2226   4.778   4.753   2.628
   43SGML   C43 2227   4.894   4.846   2.663
   43SGML   C44 2228   4.888   4.892   2.809
   43SGML   C45 2229   4.909   4.780   2.911
   43SGML   C46 2230   4.898   4.840   3.052
   43SGML   C47 2231   4.913   4.734   3.161
   43SGML   C48 2232   4.895   4.798   3.299
   43SGML   C49 2233   4.753   4.851   3.315
   43SGML   C50 2234   4.731   4.920   3.450
   43SGML   C51 2235   4.734   4.820   3.565
   43SGML   C52 2236   4.706   4.890   3.698
   44SGML    C1 2237   3.781   3.179   1.429
   44SGML    C2 2238   3.829   3.262   1.646
   44SGML    C3 2239   3.669   3.373   1.506
   44SGML    N4 2240   3.798   3.302   1.508
   44SGML    C5 2241   3.907   3.382   1.447
   44SGML    C6 2242   3.933   3.527   1.494
   44SGML   OS7 2243   3.971   3.540   1.631
   44SGML    P8 2244   3.946   3.687   1.679
   44SGML   OM9 2245   4.058   3.765   1.624
   44SGML  OM10 2246   3.803   3.710   1.650
   44SGML  OS11 2247   3.961   3.653   1.832
   44SGML   C12 2248   4.090   3.680   1.888
   44SGML   C13 2249   4.090   3.672   2.041
   44SGML   N14 2250   4.221   3.721   2.088
   44SGML   H15 2251   4.308   3.685   2.044
   44SGML   C16 2252   4.234   3.826   2.173
   44SGML   O17 2253   4.134   3.892   2.204
   44SGML   C18 2254   4.376   3.862   2.212
   44SGML   C19 2255   4.413   3.801   2.347
   44SGML   C20 2256   4.350   3.880   2.461
   44SGML   C21 2257   4.370   3.808   2.595
   44SGML   C22 2258   4.323   3.898   2.709
   44SGML   C23 2259   4.324   3.821   2.841
   44SGML   C24 2260   4.296   3.914   2.959
   44SGML   C25 2261   4.419   3.999   2.991
   44SGML   C26 2262   4.390   4.092   3.109
   44SGML   C27 2263   4.348   4.009   3.230
   44SGML   C28 2264   4.321   4.097   3.352
   44SGML   C29 2265   4.258   4.013   3.463
   44SGML   C30 2266   4.227   4.096   3.587
   44SGML   C31 2267   4.144   4.014   3.686
   44SGML   C32 2268   4.009   3.979   3.624
   44SGML   C33 2269   3.921   3.898   3.719
   44SGML   C34 2270   3.787   3.865   3.654
   44SGML   C35 2271   4.049   3.530   2.086
   44SGML  OA36 2272   3.922   3.495   2.027
   44SGML   H37 2273   3.927   3.548   1.939
   44SGML   C38 2274   4.040   3.519   2.235
   44SGML   C39 2275   4.107   3.434   2.315
   44SGML   C40 2276   4.094   3.432   2.464
   44SGML   C41 2277   4.011   3.551   2.511
   44SGML   C42 2278   3.993   3.555   2.663
   44SGML   C43 2279   3.912   3.679   2.701
   44SGML   C44 2280   3.883   3.686   2.851
   44SGML   C45 2281   3.802   3.811   2.882
   44SGML   C46 2282   3.761   3.818   3.029
   44SGML   C47 2283   3.678   3.944   3.055
   44SGML   C48 2284   3.624   3.946   3.198
   44SGML   C49 2285   3.523   3.833   3.218
   44SGML   C50 2286   3.463   3.836   3.358
   44SGML   C51 2287   3.372   3.958   3.376
   44SGML   C52 2288   3.311   3.959   3.516
   45SGML    C1 2289   2.962   4.120   5.989
   45SGML    C2 2290   2.728   4.101   6.021
   45SGML    C3 2291   2.817   4.285   5.898
   45SGML    N4 2292   2.840   4.196   6.013
   45SGML    C5 2293   2.858   4.275   6.137
   45SGML    C6 2294   2.736   4.336   6.210
   45SGML   OS7 2295   2.658   4.430   6.138
   45SGML    P8 2296   2.505   4.424   6.178
   45SGML   OM9 2297   2.486   4.345   6.301
   45SGML  OM10 2298   2.448   4.559   6.166
   45SGML  OS11 2299   2.460   4.332   6.057
   45SGML   C12 2300   2.435   4.406   5.937
   45SGML   C13 2301   2.445   4.323   5.810
   45SGML   N14 2302   2.436   4.415   5.694
   45SGML   H15 2303   2.348   4.462   5.673
   45SGML   C16 2304   2.547   4.452   5.625
   45SGML   O17 2305   2.659   4.432   5.672
   45SGML   C18 2306   2.524   4.537   5.502
   45SGML   C19 2307   2.598   4.479   5.381
   45SGML   C20 2308   2.521   4.360   5.324
   45SGML   C21 2309   2.597   4.292   5.211
   45SGML   C22 2310   2.510   4.182   5.150
   45SGML   C23 2311   2.588   4.092   5.055
   45SGML   C24 2312   2.634   4.163   4.928
   45SGML   C25 2313   2.694   4.061   4.832
   45SGML   C26 2314   2.587   3.959   4.793
   45SGML   C27 2315   2.641   3.851   4.699
   45SGML   C28 2316   2.530   3.753   4.660
   45SGML   C29 2317   2.580   3.648   4.561
   45SGML   C30 2318   2.466   3.554   4.520
   45SGML   C31 2319   2.515   3.449   4.420
   45SGML   C32 2320   2.553   3.514   4.287
   45SGML   C33 2321   2.597   3.408   4.185
   45SGML   C34 2322   2.634   3.474   4.052
   45SGML   C35 2323   2.340   4.212   5.817
   45SGML  OA36 2324   2.365   4.125   5.929
   45SGML   H37 2325   2.404   4.191   5.998
   45SGML   C38 2326   2.322   4.137   5.689
   45SGML   C39 2327   2.207   4.144   5.621
   45SGML   C40 2328   2.170   4.079   5.491
   45SGML   C41 2329   2.135   4.185   5.387
   45SGML   C42 2330   2.023   4.275   5.437
   45SGML   C43 2331   1.982   4.373   5.327
   45SGML   C44 2332   2.102   4.460   5.286
   45SGML   C45 2333   2.067   4.546   5.165
   45SGML   C46 2334   2.040   4.458   5.042
   45SGML   C47 2335   2.168   4.395   4.988
   45SGML   C48 2336   2.137   4.304   4.869
   45SGML   C49 2337   2.266   4.249   4.809
   45SGML   C50 2338   2.239   4.157   4.690
   45SGML   C51 2339   2.176   4.025   4.735
   45SGML   C52 2340   2.159   3.930   4.617
   46SGML    C1 2341   3.397   3.711   6.401
   46SGML    C2 2342   3.175   3.801   6.395
   46SGML    C3 2343   3.213   3.572   6.452
   46SGML    N4 2344   3.257   3.682   6.366
   46SGML    C5 2345   3.246   3.638   6.225
   46SGML    C6 2346   3.262   3.740   6.110
   46SGML   OS7 2347   3.390   3.801   6.101
   46SGML    P8 2348   3.387   3.951   6.054
   46SGML   OM9 2349   3.265   4.007   6.113
   46SGML  OM10 2350   3.520   3.997   6.093
   46SGML  OS11 2351   3.374   3.928   5.897
   46SGML   C12 2352   3.256   3.983   5.837
   46SGML   C13 2353   3.256   3.984   5.683
   46SGML   N14 2354   3.131   4.048   5.635
   46SGML   H15 2355   3.039   4.002   5.649
   46SGML   C16 2356   3.131   4.171   5.579
   46SGML   O17 2357   3.219   4.254   5.608
   46SGML   C18 2358   3.007   4.210   5.501
   46SGML   C19 2359   3.048   4.253   5.360
   46SGML   C20 2360   3.097   4.134   5.278
   46SGML   C21 2361   3.162   4.177   5.146
   46SGML   C22 2362   3.064   4.249   5.054
   46SGML   C23 2363   3.130   4.282   4.920
   46SGML   C24 2364   3.142   4.156   4.833
   46SGML   C25 2365   3.214   4.188   4.701
   46SGML   C26 2366   3.200   4.073   4.602
   46SGML   C27 2367   3.054   4.058   4.561
   46SGML   C28 2368   3.032   3.957   4.448
   46SGML   C29 2369   2.883   3.949   4.415
   46SGML   C30 2370   2.853   3.855   4.299
   46SGML   C31 2371   2.897   3.916   4.165
   46SGML   C32 2372   2.855   3.825   4.049
   46SGML   C33 2373   2.898   3.884   3.915
   46SGML   C34 2374   2.858   3.792   3.799
   46SGML   C35 2375   3.281   3.841   5.631
   46SGML  OA36 2376   3.400   3.787   5.689
   46SGML   H37 2377   3.406   3.839   5.778
   46SGML   C38 2378   3.283   3.835   5.481
   46SGML   C39 2379   3.391   3.826   5.402
   46SGML   C40 2380   3.397   3.820   5.253
   46SGML   C41 2381   3.486   3.705   5.206
   46SGML   C42 2382   3.526   3.722   5.059
   46SGML   C43 2383   3.418   3.678   4.961
   46SGML   C44 2384   3.468   3.707   4.819
   46SGML   C45 2385   3.393   3.627   4.713
   46SGML   C46 2386   3.447   3.663   4.575
   46SGML   C47 2387   3.401   3.564   4.467
   46SGML   C48 2388   3.455   3.609   4.331
   46SGML   C49 2389   3.433   3.504   4.223
   46SGML   C50 2390   3.478   3.558   4.088
   46SGML   C51 2391   3.627   3.591   4.091
   46SGML   C52 2392   3.673   3.654   3.959
   47SGML    C1 2393   4.872   4.483   1.443
   47SGML    C2 2394   4.732   4.428   1.632
   47SGML    C3 2395   4.925   4.565   1.659
   47SGML    N4 2396   4.870   4.450   1.587
   47SGML    C5 2397   4.956   4.334   1.617
   47SGML    C6 2398   4.928   4.196   1.552
   47SGML   OS7 2399   4.825   4.119   1.614
   47SGML    P8 2400   4.878   3.975   1.652
   47SGML   OM9 2401   4.774   3.893   1.713
   47SGML  OM10 2402   4.956   3.924   1.538
   47SGML  OS11 2403   4.974   4.027   1.767
   47SGML   C12 2404   5.005   3.937   1.873
   47SGML   C13 2405   5.020   4.010   2.007
   47SGML   N14 2406   5.074   3.915   2.107
   47SGML   H15 2407   5.014   3.839   2.140
   47SGML   C16 2408   5.203   3.915   2.149
   47SGML   O17 2409   0.013   3.983   2.094
   47SGML   C18 2410   5.236   3.805   2.250
   47SGML   C19 2411   0.021   3.860   2.378
   47SGML   C20 2412   0.090   3.746   2.454
   47SGML   C21 2413   0.156   3.795   2.583
   47SGML   C22 2414   0.057   3.804   2.699
   47SGML   C23 2415   0.129   3.853   2.825
   47SGML   C24 2416   0.042   3.844   2.950
   47SGML   C25 2417   0.120   3.900   3.069
   47SGML   C26 2418   0.050   3.878   3.203
   47SGML   C27 2419   5.197   3.955   3.217
   47SGML   C28 2420   5.146   3.943   3.360
   47SGML   C29 2421   5.115   3.797   3.393
   47SGML   C30 2422   5.086   3.777   3.542
   47SGML   C31 2423   5.212   3.798   3.625
   47SGML   C32 2424   5.190   3.761   3.772
   47SGML   C33 2425   0.041   3.776   3.852
   47SGML   C34 2426   0.023   3.731   3.997
   47SGML   C35 2427   4.882   4.072   2.040
   47SGML  OA36 2428   4.846   4.167   1.939
   47SGML   H37 2429   4.895   4.128   1.856
   47SGML   C38 2430   4.871   4.136   2.175
   47SGML   C39 2431   4.772   4.109   2.262
   47SGML   C40 2432   4.752   4.171   2.397
   47SGML   C41 2433   4.728   4.068   2.508
   47SGML   C42 2434   4.854   3.992   2.549
   47SGML   C43 2435   4.820   3.899   2.665
   47SGML   C44 2436   4.945   3.836   2.725
   47SGML   C45 2437   4.909   3.744   2.842
   47SGML   C46 2438   4.844   3.824   2.956
   47SGML   C47 2439   4.808   3.731   3.073
   47SGML   C48 2440   4.737   3.807   3.185
   47SGML   C49 2441   4.705   3.714   3.302
   47SGML   C50 2442   4.630   3.789   3.412
   47SGML   C51 2443   4.716   3.899   3.473
   47SGML   C52 2444   4.641   3.975   3.582
   48SGML    C1 2445   0.431   4.498   1.744
   48SGML    C2 2446   0.541   4.661   1.611
   48SGML    C3 2447   0.336   4.716   1.717
   48SGML    N4 2448   0.410   4.608   1.650
   48SGML    C5 2449   0.342   4.565   1.526
   48SGML    C6 2450   0.199   4.505   1.533
   48SGML   OS7 2451   0.191   4.373   1.587
   48SGML    P8 2452   0.042   4.322   1.593
   48SGML   OM9 2453   5.235   4.402   1.505
   48SGML  OM10 2454   0.046   4.176   1.580
   48SGML  OS11 2455   0.008   4.360   1.743
   48SGML   C12 2456   0.064   4.269   1.839
   48SGML   C13 2457   0.072   4.327   1.981
   48SGML   N14 2458   0.142   4.226   2.064
   48SGML   H15 2459   0.100   4.133   2.076
   48SGML   C16 2460   0.263   4.252   2.119
   48SGML   O17 2461   0.318   4.362   2.102
   48SGML   C18 2462   0.327   4.135   2.193
   48SGML   C19 2463   0.384   4.176   2.329
   48SGML   C20 2464   0.275   4.198   2.434
   48SGML   C21 2465   0.338   4.223   2.571
   48SGML   C22 2466   0.234   4.244   2.681
   48SGML   C23 2467   0.303   4.263   2.816
   48SGML   C24 2468   0.201   4.277   2.929
   48SGML   C25 2469   0.270   4.286   3.066
   48SGML   C26 2470   0.167   4.286   3.178
   48SGML   C27 2471   0.233   4.285   3.316
   48SGML   C28 2472   0.126   4.274   3.426
   48SGML   C29 2473   0.189   4.275   3.565
   48SGML   C30 2474   0.082   4.262   3.673
   48SGML   C31 2475   0.144   4.262   3.813
   48SGML   C32 2476   0.036   4.250   3.921
   48SGML   C33 2477   0.098   4.248   4.061
   48SGML   C34 2478   0.179   4.120   4.084
   48SGML   C35 2479   5.210   4.365   2.031
   48SGML  OA36 2480   5.146   4.452   1.936
   48SGML   H37 2481   5.196   4.426   1.849
   48SGML   C38 2482   5.213   4.424   2.169
   48SGML   C39 2483   5.170   4.360   2.279
   48SGML   C40 2484   5.171   4.408   2.421
   48SGML   C41 2485   5.031   4.410   2.482
   48SGML   C42 2486   5.035   4.427   2.634
   48SGML   C43 2487   5.102   4.306   2.699
   48SGML   C44 2488   5.093   4.311   2.852
   48SGML   C45 2489   4.951   4.278   2.900
   48SGML   C46 2490   4.946   4.276   3.053
   48SGML   C47 2491   4.807   4.235   3.103
   48SGML   C48 2492   4.802   4.235   3.256
   48SGML   C49 2493   4.815   4.377   3.311
   48SGML   C50 2494   4.815   4.378   3.464
   48SGML   C51 2495   4.942   4.314   3.520
   48SGML   C52 2496   4.942   4.318   3.673
   49SGML    C1 2497   3.147   0.178   6.284
   49SGML    C2 2498   3.267   5.062   6.336
   49SGML    C3 2499   3.327   0.190   6.438
   49SGML    N4 2500   3.280   0.126   6.315
   49SGML    C5 2501   3.370   0.155   6.201
   49SGML    C6 2502   3.517   0.106   6.206
   49SGML   OS7 2503   3.536   5.048   6.175
   49SGML    P8 2504   3.682   5.000   6.209
   49SGML   OM9 2505   3.708   5.048   6.345
   49SGML  OM10 2506   3.684   4.857   6.177
   49SGML  OS11 2507   3.758   0.007   6.100
   49SGML   C12 2508   3.843   5.017   6.008
   49SGML   C13 2509   3.807   5.036   5.859
   49SGML   N14 2510   3.914   4.969   5.783
   49SGML   H15 2511   4.010   4.972   5.823
   49SGML   C16 2512   3.894   4.891   5.673
   49SGML   O17 2513   3.781   4.847   5.648
   49SGML   C18 2514   4.021   4.841   5.607
   49SGML   C19 2515   3.997   4.735   5.499
   49SGML   C20 2516   3.958   4.796   5.363
   49SGML   C21 2517   3.932   4.683   5.264
   49SGML   C22 2518   3.900   4.733   5.123
   49SGML   C23 2519   3.857   4.612   5.039
   49SGML   C24 2520   3.815   4.648   4.896
   49SGML   C25 2521   3.933   4.653   4.799
   49SGML   C26 2522   3.879   4.661   4.656
   49SGML   C27 2523   3.990   4.647   4.552
   49SGML   C28 2524   3.929   4.644   4.411
   49SGML   C29 2525   4.037   4.624   4.305
   49SGML   C30 2526   3.976   4.619   4.165
   49SGML   C31 2527   4.084   4.599   4.058
   49SGML   C32 2528   4.023   4.593   3.918
   49SGML   C33 2529   3.941   4.466   3.897
   49SGML   C34 2530   4.032   4.343   3.887
   49SGML   C35 2531   3.791   0.106   5.825
   49SGML  OA36 2532   3.701   0.169   5.918
   49SGML   H37 2533   3.719   0.113   6.004
   49SGML   C38 2534   3.737   0.129   5.687
   49SGML   C39 2535   3.800   0.189   5.585
   49SGML   C40 2536   3.741   0.210   5.449
   49SGML   C41 2537   3.807   0.119   5.345
   49SGML   C42 2538   3.740   0.133   5.209
   49SGML   C43 2539   3.769   0.269   5.144
   49SGML   C44 2540   3.706   0.275   5.005
   49SGML   C45 2541   3.747   0.403   4.932
   49SGML   C46 2542   3.691   0.404   4.789
   49SGML   C47 2543   3.744   0.524   4.711
   49SGML   C48 2544   3.694   0.522   4.566
   49SGML   C49 2545   3.758   0.634   4.485
   49SGML   C50 2546   3.710   0.632   4.340
   49SGML   C51 2547   3.564   0.678   4.329
   49SGML   C52 2548   3.517   0.676   4.184
   50SGML    C1 2549   3.250   4.792   5.829
   50SGML    C2 2550   3.426   4.952   5.834
   50SGML    C3 2551   3.474   4.727   5.776
   50SGML    N4 2552   3.391   4.812   5.862
   50SGML    C5 2553   3.415   4.788   6.006
   50SGML    C6 2554   3.397   4.646   6.065
   50SGML   OS7 2555   3.496   4.553   6.019
   50SGML    P8 2556   3.486   4.409   6.081
   50SGML   OM9 2557   3.584   4.422   6.190
   50SGML  OM10 2558   3.344   4.384   6.109
   50SGML  OS11 2559   3.546   4.325   5.961
   50SGML   C12 2560   3.471   4.332   5.839
   50SGML   C13 2561   3.555   4.312   5.712
   50SGML   N14 2562   3.467   4.344   5.598
   50SGML   H15 2563   3.372   4.303   5.597
   50SGML   C16 2564   3.494   4.440   5.506
   50SGML   O17 2565   3.580   4.526   5.527
   50SGML   C18 2566   3.392   4.452   5.394
   50SGML   C19 2567   3.459   4.465   5.258
   50SGML   C20 2568   3.522   4.331   5.217
   50SGML   C21 2569   3.589   4.342   5.080
   50SGML   C22 2570   3.658   4.211   5.045
   50SGML   C23 2571   3.742   4.224   4.918
   50SGML   C24 2572   3.656   4.239   4.792
   50SGML   C25 2573   3.746   4.241   4.669
   50SGML   C26 2574   3.665   4.242   4.539
   50SGML   C27 2575   3.758   4.226   4.419
   50SGML   C28 2576   3.680   4.224   4.288
   50SGML   C29 2577   3.587   4.102   4.281
   50SGML   C30 2578   3.511   4.101   4.148
   50SGML   C31 2579   3.410   3.987   4.142
   50SGML   C32 2580   3.337   3.990   4.008
   50SGML   C33 2581   3.255   4.118   3.994
   50SGML   C34 2582   3.189   4.128   3.857
   50SGML   C35 2583   3.613   4.168   5.710
   50SGML  OA36 2584   3.678   4.139   5.835
   50SGML   H37 2585   3.627   4.199   5.902
   50SGML   C38 2586   3.710   4.143   5.598
   50SGML   C39 2587   3.692   4.057   5.497
   50SGML   C40 2588   3.787   4.027   5.385
   50SGML   C41 2589   3.814   3.877   5.372
   50SGML   C42 2590   3.919   3.845   5.265
   50SGML   C43 2591   3.869   3.875   5.123
   50SGML   C44 2592   3.978   3.845   5.020
   50SGML   C45 2593   3.926   3.875   4.879
   50SGML   C46 2594   4.038   3.868   4.775
   50SGML   C47 2595   3.988   3.918   4.639
   50SGML   C48 2596   3.909   3.813   4.561
   50SGML   C49 2597   4.005   3.717   4.491
   50SGML   C50 2598   3.930   3.620   4.399
   50SGML   C51 2599   4.029   3.533   4.321
   50SGML   C52 2600   3.956   3.434   4.230
   51SGML    C1 2601   0.682   3.097   1.560
   51SGML    C2 2602   0.738   3.328   1.532
   51SGML    C3 2603   0.601   3.219   1.372
   51SGML    N4 2604   0.716   3.201   1.462
   51SGML    C5 2605   0.836   3.164   1.382
   51SGML    C6 2606   0.972   3.141   1.453
   51SGML   OS7 2607   0.981   3.020   1.528
   51SGML    P8 2608   1.124   2.994   1.588
   51SGML   OM9 2609   1.140   2.847   1.586
   51SGML  OM10 2610   1.223   3.083   1.526
   51SGML  OS11 2611   1.090   3.043   1.735
   51SGML   C12 2612   1.203   3.054   1.823
   51SGML   C13 2613   1.169   3.121   1.958
   51SGML   N14 2614   1.289   3.114   2.044
   51SGML   H15 2615   1.322   3.020   2.072
   51SGML   C16 2616   1.354   3.221   2.095
   51SGML   O17 2617   1.339   3.334   2.046
   51SGML   C18 2618   1.469   3.188   2.189
   51SGML   C19 2619   1.469   3.277   2.314
   51SGML   C20 2620   1.373   3.225   2.421
   51SGML   C21 2621   1.380   3.313   2.546
   51SGML   C22 2622   1.308   3.249   2.665
   51SGML   C23 2623   1.320   3.337   2.790
   51SGML   C24 2624   1.270   3.265   2.915
   51SGML   C25 2625   1.283   3.353   3.038
   51SGML   C26 2626   1.254   3.275   3.166
   51SGML   C27 2627   1.266   3.363   3.290
   51SGML   C28 2628   1.252   3.280   3.418
   51SGML   C29 2629   1.257   3.368   3.543
   51SGML   C30 2630   1.250   3.284   3.670
   51SGML   C31 2631   1.249   3.372   3.794
   51SGML   C32 2632   1.243   3.287   3.922
   51SGML   C33 2633   1.235   3.376   4.046
   51SGML   C34 2634   1.101   3.451   4.051
   51SGML   C35 2635   1.049   3.047   2.022
   51SGML  OA36 2636   0.937   3.043   1.932
   51SGML   H37 2637   0.985   3.042   1.839
   51SGML   C38 2638   1.004   3.107   2.152
   51SGML   C39 2639   1.021   3.052   2.273
   51SGML   C40 2640   0.975   3.108   2.404
   51SGML   C41 2641   0.925   2.999   2.498
   51SGML   C42 2642   0.871   3.059   2.628
   51SGML   C43 2643   0.847   2.950   2.732
   51SGML   C44 2644   0.778   3.006   2.856
   51SGML   C45 2645   0.771   2.901   2.967
   51SGML   C46 2646   0.679   2.948   3.080
   51SGML   C47 2647   0.534   2.944   3.033
   51SGML   C48 2648   0.438   3.000   3.139
   51SGML   C49 2649   0.293   2.988   3.091
   51SGML   C50 2650   0.198   3.056   3.189
   51SGML   C51 2651   0.203   2.987   3.326
   51SGML   C52 2652   0.108   3.055   3.424
   52SGML    C1 2653   0.703   4.070   1.411
   52SGML    C2 2654   0.668   3.845   1.338
   52SGML    C3 2655   0.592   3.915   1.554
   52SGML    N4 2656   0.698   3.929   1.454
   52SGML    C5 2657   0.830   3.893   1.510
   52SGML    C6 2658   0.861   3.748   1.554
   52SGML   OS7 2659   0.993   3.732   1.604
   52SGML    P8 2660   1.054   3.590   1.573
   52SGML   OM9 2661   0.977   3.524   1.466
   52SGML  OM10 2662   1.197   3.622   1.560
   52SGML  OS11 2663   1.016   3.525   1.712
   52SGML   C12 2664   1.127   3.512   1.802
   52SGML   C13 2665   1.096   3.572   1.940
   52SGML   N14 2666   1.222   3.575   2.016
   52SGML   H15 2667   1.268   3.486   2.038
   52SGML   C16 2668   1.293   3.690   2.025
   52SGML   O17 2669   1.271   3.783   1.946
   52SGML   C18 2670   1.412   3.685   2.120
   52SGML   C19 2671   1.448   3.824   2.174
   52SGML   C20 2672   1.343   3.874   2.274
   52SGML   C21 2673   1.346   3.791   2.402
   52SGML   C22 2674   1.473   3.819   2.481
   52SGML   C23 2675   1.488   3.720   2.596
   52SGML   C24 2676   1.624   3.739   2.663
   52SGML   C25 2677   1.657   3.620   2.753
   52SGML   C26 2678   1.800   3.632   2.805
   52SGML   C27 2679   1.838   3.506   2.882
   52SGML   C28 2680   1.754   3.493   3.009
   52SGML   C29 2681   1.790   3.363   3.082
   52SGML   C30 2682   1.709   3.349   3.210
   52SGML   C31 2683   1.741   3.214   3.276
   52SGML   C32 2684   1.660   3.195   3.404
   52SGML   C33 2685   1.678   3.051   3.452
   52SGML   C34 2686   1.618   2.954   3.350
   52SGML   C35 2687   0.979   3.495   2.004
   52SGML  OA36 2688   0.864   3.506   1.918
   52SGML   H37 2689   0.909   3.514   1.824
   52SGML   C38 2690   0.942   3.544   2.140
   52SGML   C39 2691   0.954   3.477   2.255
   52SGML   C40 2692   0.915   3.529   2.390
   52SGML   C41 2693   1.037   3.554   2.478
   52SGML   C42 2694   0.997   3.606   2.616
   52SGML   C43 2695   0.929   3.497   2.698
   52SGML   C44 2696   0.895   3.548   2.838
   52SGML   C45 2697   0.844   3.435   2.927
   52SGML   C46 2698   0.818   3.485   3.069
   52SGML   C47 2699   0.782   3.369   3.162
   52SGML   C48 2700   0.757   3.418   3.304
   52SGML   C49 2701   0.732   3.299   3.398
   52SGML   C50 2702   0.858   3.213   3.408
   52SGML   C51 2703   0.837   3.096   3.505
   52SGML   C52 2704   0.962   3.008   3.513
   53SGML    C1 2705   3.810   4.626   6.024
   53SGML    C2 2706   4.033   4.595   5.944
   53SGML    C3 2707   3.882   4.413   5.955
   53SGML    N4 2708   3.926   4.535   6.023
   53SGML    C5 2709   3.969   4.499   6.160
   53SGML    C6 2710   4.020   4.610   6.256
   53SGML   OS7 2711   4.148   4.663   6.222
   53SGML    P8 2712   4.174   4.806   6.283
   53SGML   OM9 2713   4.053   4.857   6.348
   53SGML  OM10 2714   4.299   4.799   6.361
   53SGML  OS11 2715   4.196   4.881   6.146
   53SGML   C12 2716   4.332   4.919   6.124
   53SGML   C13 2717   4.376   4.914   5.977
   53SGML   N14 2718   4.524   4.929   5.973
   53SGML   H15 2719   4.580   4.844   5.955
   53SGML   C16 2720   4.592   5.044   5.994
   53SGML   O17 2721   4.540   0.067   6.039
   53SGML   C18 2722   4.743   5.028   5.983
   53SGML   C19 2723   4.800   0.028   5.866
   53SGML   C20 2724   4.760   5.045   5.732
   53SGML   C21 2725   4.834   0.033   5.617
   53SGML   C22 2726   4.798   5.053   5.482
   53SGML   C23 2727   4.888   0.032   5.374
   53SGML   C24 2728   4.856   5.057   5.235
   53SGML   C25 2729   4.958   0.028   5.134
   53SGML   C26 2730   4.932   5.052   4.995
   53SGML   C27 2731   5.044   0.012   4.900
   53SGML   C28 2732   5.027   5.029   4.761
   53SGML   C29 2733   4.911   0.013   4.685
   53SGML   C30 2734   4.895   5.028   4.548
   53SGML   C31 2735   5.019   5.053   4.462
   53SGML   C32 2736   5.008   4.980   4.328
   53SGML   C33 2737   5.135   5.002   4.245
   53SGML   C34 2738   5.127   4.924   4.113
   53SGML   C35 2739   4.287   5.004   5.889
   53SGML  OA36 2740   4.150   4.967   5.910
   53SGML   H37 2741   4.152   4.934   6.008
   53SGML   C38 2742   4.319   4.988   5.744
   53SGML   C39 2743   4.348   0.002   5.654
   53SGML   C40 2744   4.376   5.054   5.510
   53SGML   C41 2745   4.265   0.028   5.420
   53SGML   C42 2746   4.284   5.063   5.275
   53SGML   C43 2747   4.173   0.040   5.187
   53SGML   C44 2748   4.183   5.067   5.044
   53SGML   C45 2749   4.073   0.046   4.956
   53SGML   C46 2750   4.077   5.065   4.816
   53SGML   C47 2751   3.970   0.046   4.726
   53SGML   C48 2752   3.976   5.062   4.587
   53SGML   C49 2753   3.880   0.048   4.489
   53SGML   C50 2754   3.894   5.065   4.351
   53SGML   C51 2755   3.808   0.055   4.247
   53SGML   C52 2756   3.827   5.073   4.109
   54SGML    C1 2757   5.246   4.302   6.551
   54SGML    C2 2758   5.045   4.386   6.460
   54SGML    C3 2759   5.238   4.356   6.321
   54SGML    N4 2760   5.191   4.397   6.454
   54SGML    C5 2761   5.237   4.534   6.489
   54SGML    C6 2762   5.209   4.653   6.395
   54SGML   OS7 2763   5.071   4.683   6.376
   54SGML    P8 2764   5.045   4.811   6.288
   54SGML   OM9 2765   4.902   4.845   6.302
   54SGML  OM10 2766   5.147   4.912   6.323
   54SGML  OS11 2767   5.076   4.755   6.143
   54SGML   C12 2768   4.984   4.656   6.095
   54SGML   C13 2769   4.938   4.681   5.951
   54SGML   N14 2770   4.839   4.575   5.918
   54SGML   H15 2771   4.864   4.476   5.935
   54SGML   C16 2772   4.711   4.602   5.886
   54SGML   O17 2773   4.657   4.704   5.931
   54SGML   C18 2774   4.632   4.483   5.834
   54SGML   C19 2775   4.585   4.503   5.690
   54SGML   C20 2776   4.468   4.602   5.680
   54SGML   C21 2777   4.417   4.610   5.536
   54SGML   C22 2778   4.520   4.677   5.444
   54SGML   C23 2779   4.473   4.670   5.299
   54SGML   C24 2780   4.567   4.748   5.207
   54SGML   C25 2781   4.526   4.731   5.061
   54SGML   C26 2782   4.612   4.819   4.970
   54SGML   C27 2783   4.582   4.794   4.823
   54SGML   C28 2784   4.437   4.829   4.789
   54SGML   C29 2785   4.410   4.808   4.640
   54SGML   C30 2786   4.427   4.660   4.602
   54SGML   C31 2787   4.407   4.640   4.452
   54SGML   C32 2788   4.519   4.710   4.373
   54SGML   C33 2789   4.498   4.693   4.222
   54SGML   C34 2790   4.605   4.767   4.143
   54SGML   C35 2791   5.059   4.689   5.855
   54SGML  OA36 2792   5.156   4.783   5.904
   54SGML   H37 2793   5.137   4.781   6.006
   54SGML   C38 2794   5.015   4.726   5.716
   54SGML   C39 2795   5.014   4.645   5.609
   54SGML   C40 2796   4.965   4.680   5.471
   54SGML   C41 2797   5.066   4.654   5.360
   54SGML   C42 2798   4.999   4.674   5.224
   54SGML   C43 2799   5.094   4.646   5.108
   54SGML   C44 2800   5.018   4.650   4.975
   54SGML   C45 2801   5.110   4.621   4.856
   54SGML   C46 2802   5.028   4.607   4.728
   54SGML   C47 2803   5.117   4.572   4.608
   54SGML   C48 2804   5.034   4.533   4.486
   54SGML   C49 2805   5.124   4.492   4.370
   54SGML   C50 2806   5.043   4.434   4.254
   54SGML   C51 2807   4.953   4.540   4.189
   54SGML   C52 2808   4.874   4.480   4.074
   55SGML    C1 2809   1.862   3.728   1.977
   55SGML    C2 2810   2.038   3.611   2.087
   55SGML    C3 2811   1.982   3.837   2.148
   55SGML    N4 2812   1.996   3.743   2.036
   55SGML    C5 2813   2.088   3.794   1.931
   55SGML    C6 2814   2.230   3.841   1.972
   55SGML   OS7 2815   2.317   3.740   2.023
   55SGML    P8 2816   2.410   3.795   2.136
   55SGML   OM9 2817   2.523   3.701   2.149
   55SGML  OM10 2818   2.431   3.939   2.119
   55SGML  OS11 2819   2.307   3.768   2.252
   55SGML   C12 2820   2.332   3.838   2.375
   55SGML   C13 2821   2.248   3.783   2.491
   55SGML   N14 2822   2.266   3.874   2.607
   55SGML   H15 2823   2.351   3.931   2.613
   55SGML   C16 2824   2.160   3.916   2.681
   55SGML   O17 2825   2.047   3.919   2.630
   55SGML   C18 2826   2.194   3.993   2.807
   55SGML   C19 2827   2.095   3.964   2.920
   55SGML   C20 2828   2.122   3.831   2.991
   55SGML   C21 2829   2.027   3.816   3.110
   55SGML   C22 2830   2.063   3.697   3.200
   55SGML   C23 2831   1.963   3.691   3.316
   55SGML   C24 2832   1.990   3.578   3.416
   55SGML   C25 2833   2.118   3.602   3.496
   55SGML   C26 2834   2.125   3.506   3.615
   55SGML   C27 2835   2.259   3.518   3.687
   55SGML   C28 2836   2.266   3.434   3.814
   55SGML   C29 2837   2.181   3.497   3.925
   55SGML   C30 2838   2.199   3.425   4.059
   55SGML   C31 2839   2.133   3.287   4.060
   55SGML   C32 2840   2.146   3.223   4.198
   55SGML   C33 2841   2.068   3.092   4.206
   55SGML   C34 2842   2.084   3.026   4.344
   55SGML   C35 2843   2.285   3.634   2.512
   55SGML  OA36 2844   2.262   3.561   2.390
   55SGML   H37 2845   2.275   3.635   2.319
   55SGML   C38 2846   2.214   3.564   2.624
   55SGML   C39 2847   2.274   3.483   2.712
   55SGML   C40 2848   2.209   3.409   2.824
   55SGML   C41 2849   2.285   3.419   2.956
   55SGML   C42 2850   2.221   3.326   3.059
   55SGML   C43 2851   2.302   3.321   3.189
   55SGML   C44 2852   2.243   3.214   3.281
   55SGML   C45 2853   2.324   3.198   3.409
   55SGML   C46 2854   2.270   3.082   3.493
   55SGML   C47 2855   2.129   3.110   3.544
   55SGML   C48 2856   2.076   2.990   3.623
   55SGML   C49 2857   2.160   2.966   3.749
   55SGML   C50 2858   2.106   2.849   3.831
   55SGML   C51 2859   2.194   2.823   3.953
   55SGML   C52 2860   2.137   2.713   4.041
   56SGML    C1 2861   5.241   3.910   1.457
   56SGML    C2 2862   5.189   3.712   1.579
   56SGML    C3 2863   0.043   3.885   1.678
   56SGML    N4 2864   0.013   3.813   1.554
   56SGML    C5 2865   0.135   3.757   1.492
   56SGML    C6 2866   0.223   3.656   1.568
   56SGML   OS7 2867   0.354   3.658   1.514
   56SGML    P8 2868   0.453   3.562   1.589
   56SGML   OM9 2869   0.401   3.426   1.584
   56SGML  OM10 2870   0.584   3.596   1.533
   56SGML  OS11 2871   0.441   3.615   1.738
   56SGML   C12 2872   0.567   3.620   1.806
   56SGML   C13 2873   0.561   3.711   1.927
   56SGML   N14 2874   0.700   3.741   1.967
   56SGML   H15 2875   0.768   3.665   1.967
   56SGML   C16 2876   0.744   3.870   1.970
   56SGML   O17 2877   0.679   3.958   1.911
   56SGML   C18 2878   0.878   3.893   2.036
   56SGML   C19 2879   0.881   4.020   2.121
   56SGML   C20 2880   0.985   4.008   2.233
   56SGML   C21 2881   1.004   4.141   2.305
   56SGML   C22 2882   1.092   4.129   2.430
   56SGML   C23 2883   1.020   4.052   2.541
   56SGML   C24 2884   1.102   4.047   2.670
   56SGML   C25 2885   1.021   3.978   2.780
   56SGML   C26 2886   1.097   3.971   2.913
   56SGML   C27 2887   1.010   3.906   3.020
   56SGML   C28 2888   1.083   3.894   3.154
   56SGML   C29 2889   0.992   3.831   3.259
   56SGML   C30 2890   1.062   3.814   3.394
   56SGML   C31 2891   0.966   3.757   3.498
   56SGML   C32 2892   1.033   3.738   3.634
   56SGML   C33 2893   0.933   3.686   3.738
   56SGML   C34 2894   0.885   3.546   3.703
   56SGML   C35 2895   0.468   3.650   2.033
   56SGML  OA36 2896   0.337   3.634   1.976
   56SGML   H37 2897   0.359   3.625   1.875
   56SGML   C38 2898   0.460   3.734   2.158
   56SGML   C39 2899   0.508   3.700   2.278
   56SGML   C40 2900   0.503   3.784   2.402
   56SGML   C41 2901   0.644   3.817   2.451
   56SGML   C42 2902   0.641   3.901   2.578
   56SGML   C43 2903   0.577   3.824   2.694
   56SGML   C44 2904   0.604   3.894   2.827
   56SGML   C45 2905   0.535   3.822   2.943
   56SGML   C46 2906   0.592   3.872   3.076
   56SGML   C47 2907   0.517   3.814   3.196
   56SGML   C48 2908   0.593   3.847   3.324
   56SGML   C49 2909   0.511   3.815   3.450
   56SGML   C50 2910   0.394   3.912   3.462
   56SGML   C51 2911   0.324   3.896   3.597
   56SGML   C52 2912   0.415   3.944   3.711
   57SGML    C1 2913   0.334   3.671   6.660
   57SGML    C2 2914   0.544   3.612   6.565
   57SGML    C3 2915   0.488   3.842   6.611
   57SGML    N4 2916   0.436   3.712   6.564
   57SGML    C5 2917   0.371   3.718   6.431
   57SGML    C6 2918   0.441   3.789   6.313
   57SGML   OS7 2919   0.438   3.932   6.323
   57SGML    P8 2920   0.561   4.000   6.252
   57SGML   OM9 2921   0.561   4.141   6.292
   57SGML  OM10 2922   0.678   3.913   6.272
   57SGML  OS11 2923   0.515   3.985   6.101
   57SGML   C12 2924   0.450   4.100   6.045
   57SGML   C13 2925   0.474   4.110   5.894
   57SGML   N14 2926   0.434   4.245   5.848
   57SGML   H15 2927   0.358   4.293   5.897
   57SGML   C16 2928   0.516   4.323   5.773
   57SGML   O17 2929   0.639   4.311   5.782
   57SGML   C18 2930   0.451   4.446   5.711
   57SGML   C19 2931   0.512   4.478   5.575
   57SGML   C20 2932   0.471   4.373   5.471
   57SGML   C21 2933   0.525   4.407   5.331
   57SGML   C22 2934   0.485   4.297   5.232
   57SGML   C23 2935   0.533   4.326   5.090
   57SGML   C24 2936   0.497   4.210   4.997
   57SGML   C25 2937   0.542   4.237   4.853
   57SGML   C26 2938   0.508   4.117   4.764
   57SGML   C27 2939   0.549   4.142   4.618
   57SGML   C28 2940   0.516   4.021   4.531
   57SGML   C29 2941   0.556   4.044   4.385
   57SGML   C30 2942   0.524   3.921   4.301
   57SGML   C31 2943   0.563   3.941   4.155
   57SGML   C32 2944   0.533   3.815   4.073
   57SGML   C33 2945   0.625   3.700   4.114
   57SGML   C34 2946   0.595   3.574   4.032
   57SGML   C35 2947   0.412   3.985   5.826
   57SGML  OA36 2948   0.467   3.866   5.884
   57SGML   H37 2949   0.489   3.900   5.981
   57SGML   C38 2950   0.432   3.983   5.677
   57SGML   C39 2951   0.336   3.980   5.584
   57SGML   C40 2952   0.360   3.982   5.436
   57SGML   C41 2953   0.292   3.871   5.356
   57SGML   C42 2954   0.318   3.897   5.208
   57SGML   C43 2955   0.249   3.798   5.115
   57SGML   C44 2956   0.271   3.841   4.970
   57SGML   C45 2957   0.204   3.746   4.870
   57SGML   C46 2958   0.221   3.796   4.727
   57SGML   C47 2959   0.159   3.700   4.626
   57SGML   C48 2960   0.172   3.755   4.484
   57SGML   C49 2961   0.117   3.657   4.381
   57SGML   C50 2962   0.205   3.532   4.374
   57SGML   C51 2963   0.156   3.433   4.268
   57SGML   C52 2964   0.246   3.310   4.262
   58SGML    C1 2965   0.056   3.068   6.052
   58SGML    C2 2966   5.251   3.188   6.239
   58SGML    C3 2967   0.025   3.306   6.042
   58SGML    N4 2968   0.066   3.194   6.127
   58SGML    C5 2969   0.203   3.213   6.181
   58SGML    C6 2970   0.320   3.231   6.080
   58SGML   OS7 2971   0.446   3.268   6.136
   58SGML    P8 2972   0.469   3.423   6.149
   58SGML   OM9 2973   0.351   3.500   6.105
   58SGML  OM10 2974   0.536   3.448   6.277
   58SGML  OS11 2975   0.576   3.435   6.033
   58SGML   C12 2976   0.612   3.572   6.009
   58SGML   C13 2977   0.700   3.594   5.886
   58SGML   N14 2978   0.722   3.740   5.875
   58SGML   H15 2979   0.641   3.801   5.869
   58SGML   C16 2980   0.847   3.794   5.881
   58SGML   O17 2981   0.945   3.723   5.905
   58SGML   C18 2982   0.854   3.945   5.871
   58SGML   C19 2983   0.919   3.990   5.739
   58SGML   C20 2984   0.817   3.986   5.625
   58SGML   C21 2985   0.881   4.018   5.490
   58SGML   C22 2986   0.774   4.021   5.381
   58SGML   C23 2987   0.836   4.016   5.241
   58SGML   C24 2988   0.911   4.144   5.204
   58SGML   C25 2989   0.974   4.127   5.065
   58SGML   C26 2990   1.044   4.254   5.016
   58SGML   C27 2991   1.110   4.226   4.880
   58SGML   C28 2992   1.005   4.194   4.774
   58SGML   C29 2993   1.070   4.145   4.644
   58SGML   C30 2994   1.137   4.009   4.667
   58SGML   C31 2995   1.205   3.957   4.540
   58SGML   C32 2996   1.102   3.916   4.434
   58SGML   C33 2997   1.172   3.864   4.308
   58SGML   C34 2998   1.071   3.821   4.202
   58SGML   C35 2999   0.632   3.529   5.763
   58SGML  OA36 3000   0.616   3.389   5.786
   58SGML   H37 3001   0.594   3.388   5.888
   58SGML   C38 3002   0.706   3.553   5.635
   58SGML   C39 3003   0.652   3.597   5.520
   58SGML   C40 3004   0.727   3.623   5.393
   58SGML   C41 3005   0.700   3.520   5.284
   58SGML   C42 3006   0.554   3.519   5.239
   58SGML   C43 3007   0.536   3.419   5.125
   58SGML   C44 3008   0.562   3.276   5.174
   58SGML   C45 3009   0.568   3.178   5.057
   58SGML   C46 3010   0.688   3.213   4.969
   58SGML   C47 3011   0.711   3.109   4.858
   58SGML   C48 3012   0.831   3.149   4.773
   58SGML   C49 3013   0.869   3.039   4.674
   58SGML   C50 3014   0.931   2.920   4.748
   58SGML   C51 3015   1.067   2.956   4.806
   58SGML   C52 3016   1.125   2.840   4.887
   59SGML    C1 3017   2.628   3.407   2.032
   59SGML    C2 3018   2.490   3.492   1.853
   59SGML    C3 3019   2.391   3.402   2.047
   59SGML    N4 3020   2.504   3.387   1.955
   59SGML    C5 3021   2.497   3.252   1.895
   59SGML    C6 3022   2.614   3.196   1.811
   59SGML   OS7 3023   2.595   3.060   1.770
   59SGML    P8 3024   2.729   2.982   1.753
   59SGML   OM9 3025   2.706   2.850   1.690
   59SGML  OM10 3026   2.833   3.071   1.699
   59SGML  OS11 3027   2.758   2.958   1.906
   59SGML   C12 3028   2.898   2.950   1.938
   59SGML   C13 3029   2.933   2.963   2.086
   59SGML   N14 3030   3.080   2.950   2.094
   59SGML   H15 3031   3.124   2.868   2.049
   59SGML   C16 3032   3.162   3.050   2.134
   59SGML   O17 3033   3.128   3.169   2.122
   59SGML   C18 3034   3.307   3.008   2.152
   59SGML   C19 3035   3.370   3.067   2.278
   59SGML   C20 3036   3.318   2.998   2.403
   59SGML   C21 3037   3.387   3.053   2.528
   59SGML   C22 3038   3.350   3.199   2.550
   59SGML   C23 3039   3.423   3.258   2.670
   59SGML   C24 3040   3.381   3.404   2.691
   59SGML   C25 3041   3.456   3.469   2.808
   59SGML   C26 3042   3.406   3.612   2.829
   59SGML   C27 3043   3.263   3.612   2.882
   59SGML   C28 3044   3.205   3.753   2.883
   59SGML   C29 3045   3.064   3.755   2.943
   59SGML   C30 3046   2.999   3.892   2.924
   59SGML   C31 3047   3.078   4.002   2.996
   59SGML   C32 3048   3.015   4.139   2.971
   59SGML   C33 3049   3.102   4.249   3.033
   59SGML   C34 3050   3.237   4.256   2.963
   59SGML   C35 3051   2.853   2.857   2.165
   59SGML  OA36 3052   2.712   2.879   2.147
   59SGML   H37 3053   2.709   2.913   2.049
   59SGML   C38 3054   2.891   2.851   2.310
   59SGML   C39 3055   2.945   2.742   2.366
   59SGML   C40 3056   2.992   2.720   2.507
   59SGML   C41 3057   2.992   2.845   2.595
   59SGML   C42 3058   3.055   2.809   2.730
   59SGML   C43 3059   3.067   2.928   2.825
   59SGML   C44 3060   3.139   2.884   2.952
   59SGML   C45 3061   3.160   2.999   3.050
   59SGML   C46 3062   3.239   2.951   3.172
   59SGML   C47 3063   3.260   3.066   3.271
   59SGML   C48 3064   3.339   3.021   3.394
   59SGML   C49 3065   3.485   2.992   3.361
   59SGML   C50 3066   3.562   2.957   3.488
   59SGML   C51 3067   3.710   2.930   3.459
   59SGML   C52 3068   3.785   2.897   3.588
   60SGML    C1 3069   3.489   3.702   2.079
   60SGML    C2 3070   3.623   3.589   1.919
   60SGML    C3 3071   3.709   3.780   2.029
   60SGML    N4 3072   3.587   3.721   1.972
   60SGML    C5 3073   3.531   3.801   1.861
   60SGML    C6 3074   3.485   3.947   1.886
   60SGML   OS7 3075   3.591   4.041   1.902
   60SGML    P8 3076   3.539   4.185   1.940
   60SGML   OM9 3077   3.619   4.279   1.861
   60SGML  OM10 3078   3.392   4.191   1.935
   60SGML  OS11 3079   3.588   4.177   2.089
   60SGML   C12 3080   3.610   4.305   2.150
   60SGML   C13 3081   3.656   4.294   2.296
   60SGML   N14 3082   3.666   4.432   2.347
   60SGML   H15 3083   3.747   4.490   2.319
   60SGML   C16 3084   3.568   4.491   2.418
   60SGML   O17 3085   3.461   4.433   2.439
   60SGML   C18 3086   3.597   4.634   2.461
   60SGML   C19 3087   3.552   4.660   2.605
   60SGML   C20 3088   3.640   4.584   2.704
   60SGML   C21 3089   3.597   4.615   2.848
   60SGML   C22 3090   3.676   4.528   2.946
   60SGML   C23 3091   3.636   4.557   3.091
   60SGML   C24 3092   3.488   4.526   3.113
   60SGML   C25 3093   3.450   4.534   3.261
   60SGML   C26 3094   3.301   4.508   3.278
   60SGML   C27 3095   3.264   4.483   3.425
   60SGML   C28 3096   3.115   4.453   3.435
   60SGML   C29 3097   3.078   4.395   3.572
   60SGML   C30 3098   2.928   4.364   3.578
   60SGML   C31 3099   2.891   4.258   3.475
   60SGML   C32 3100   2.940   4.118   3.515
   60SGML   C33 3101   2.917   4.019   3.401
   60SGML   C34 3102   2.768   4.003   3.371
   60SGML   C35 3103   3.789   4.216   2.303
   60SGML  OA36 3104   3.782   4.093   2.229
   60SGML   H37 3105   3.701   4.110   2.166
   60SGML   C38 3106   3.835   4.194   2.444
   60SGML   C39 3107   3.955   4.234   2.489
   60SGML   C40 3108   4.016   4.224   2.626
   60SGML   C41 3109   3.921   4.175   2.735
   60SGML   C42 3110   3.989   4.194   2.871
   60SGML   C43 3111   4.009   4.344   2.896
   60SGML   C44 3112   4.077   4.376   3.029
   60SGML   C45 3113   3.993   4.331   3.149
   60SGML   C46 3114   4.042   4.399   3.277
   60SGML   C47 3115   3.979   4.338   3.402
   60SGML   C48 3116   3.826   4.352   3.404
   60SGML   C49 3117   3.770   4.291   3.532
   60SGML   C50 3118   3.617   4.294   3.533
   60SGML   C51 3119   3.561   4.233   3.662
   60SGML   C52 3120   3.591   4.322   3.783
   61SGML    C1 3121   1.588   0.400   6.004
   61SGML    C2 3122   1.718   0.382   6.202
   61SGML    C3 3123   1.509   0.492   6.212
   61SGML    N4 3124   1.627   0.470   6.127
   61SGML    C5 3125   1.700   0.595   6.098
   61SGML    C6 3126   1.624   0.716   6.037
   61SGML   OS7 3127   1.581   0.699   5.902
   61SGML    P8 3128   1.484   0.817   5.864
   61SGML   OM9 3129   1.379   0.820   5.966
   61SGML  OM10 3130   1.576   0.931   5.847
   61SGML  OS11 3131   1.435   0.779   5.718
   61SGML   C12 3132   1.419   0.640   5.684
   61SGML   C13 3133   1.383   0.614   5.537
   61SGML   N14 3134   1.381   0.466   5.524
   61SGML   H15 3135   1.305   0.417   5.575
   61SGML   C16 3136   1.482   0.386   5.480
   61SGML   O17 3137   1.600   0.422   5.477
   61SGML   C18 3138   1.443   0.242   5.451
   61SGML   C19 3139   1.497   0.200   5.314
   61SGML   C20 3140   1.419   0.269   5.203
   61SGML   C21 3141   1.489   0.258   5.067
   61SGML   C22 3142   1.484   0.117   5.008
   61SGML   C23 3143   1.553   0.117   4.872
   61SGML   C24 3144   1.536   5.065   4.798
   61SGML   C25 3145   1.603   5.073   4.660
   61SGML   C26 3146   1.570   4.951   4.574
   61SGML   C27 3147   1.633   4.963   4.436
   61SGML   C28 3148   1.584   4.854   4.341
   61SGML   C29 3149   1.650   4.868   4.204
   61SGML   C30 3150   1.593   4.766   4.104
   61SGML   C31 3151   1.449   4.801   4.065
   61SGML   C32 3152   1.396   4.706   3.958
   61SGML   C33 3153   1.371   4.566   4.014
   61SGML   C34 3154   1.250   4.566   4.108
   61SGML   C35 3155   1.472   0.694   5.437
   61SGML  OA36 3156   1.491   0.829   5.480
   61SGML   H37 3157   1.462   0.826   5.580
   61SGML   C38 3158   1.421   0.698   5.296
   61SGML   C39 3159   1.303   0.655   5.248
   61SGML   C40 3160   1.263   0.666   5.104
   61SGML   C41 3161   1.373   0.733   5.021
   61SGML   C42 3162   1.329   0.755   4.876
   61SGML   C43 3163   1.312   0.624   4.800
   61SGML   C44 3164   1.279   0.653   4.654
   61SGML   C45 3165   1.139   0.713   4.639
   61SGML   C46 3166   1.118   0.772   4.500
   61SGML   C47 3167   1.199   0.901   4.484
   61SGML   C48 3168   1.179   0.964   4.346
   61SGML   C49 3169   1.255   1.097   4.335
   61SGML   C50 3170   1.406   1.074   4.341
   61SGML   C51 3171   1.483   1.206   4.329
   61SGML   C52 3172   1.469   1.266   4.189
   62SGML    C1 3173   1.212   4.746   6.002
   62SGML    C2 3174   1.362   4.563   5.987
   62SGML    C3 3175   1.354   4.689   6.187
   62SGML    N4 3176   1.345   4.698   6.041
   62SGML    C5 3177   1.456   4.781   5.988
   62SGML    C6 3178   1.475   4.927   6.037
   62SGML   OS7 3179   1.386   5.021   5.978
   62SGML    P8 3180   1.308   0.027   6.083
   62SGML   OM9 3181   1.313   5.046   6.217
   62SGML  OM10 3182   1.328   0.171   6.060
   62SGML  OS11 3183   1.172   5.060   6.020
   62SGML   C12 3184   1.101   0.064   5.929
   62SGML   C13 3185   1.149   0.091   5.786
   62SGML   N14 3186   1.049   0.187   5.734
   62SGML   H15 3187   0.950   0.174   5.762
   62SGML   C16 3188   1.080   0.305   5.676
   62SGML   O17 3189   1.196   0.348   5.678
   62SGML   C18 3190   0.960   0.391   5.637
   62SGML   C19 3191   0.978   0.454   5.499
   62SGML   C20 3192   0.960   0.350   5.388
   62SGML   C21 3193   0.979   0.416   5.252
   62SGML   C22 3194   0.964   0.315   5.138
   62SGML   C23 3195   0.999   0.381   5.005
   62SGML   C24 3196   0.990   0.281   4.891
   62SGML   C25 3197   1.087   0.165   4.914
   62SGML   C26 3198   1.090   0.071   4.794
   62SGML   C27 3199   1.162   0.138   4.677
   62SGML   C28 3200   1.167   0.043   4.557
   62SGML   C29 3201   1.252   0.101   4.443
   62SGML   C30 3202   1.189   0.226   4.383
   62SGML   C31 3203   1.274   0.274   4.265
   62SGML   C32 3204   1.271   0.170   4.153
   62SGML   C33 3205   1.368   0.208   4.041
   62SGML   C34 3206   1.512   0.201   4.091
   62SGML   C35 3207   1.163   5.038   5.707
   62SGML  OA36 3208   1.268   4.954   5.758
   62SGML   H37 3209   1.303   4.996   5.847
   62SGML   C38 3210   1.191   5.057   5.561
   62SGML   C39 3211   1.126   4.996   5.462
   62SGML   C40 3212   1.149   5.006   5.314
   62SGML   C41 3213   1.194   4.872   5.257
   62SGML   C42 3214   1.189   4.865   5.104
   62SGML   C43 3215   1.226   4.724   5.058
   62SGML   C44 3216   1.183   4.696   4.914
   62SGML   C45 3217   1.270   4.767   4.810
   62SGML   C46 3218   1.204   4.756   4.672
   62SGML   C47 3219   1.203   4.613   4.617
   62SGML   C48 3220   1.339   4.573   4.559
   62SGML   C49 3221   1.328   4.436   4.491
   62SGML   C50 3222   1.457   4.398   4.419
   62SGML   C51 3223   1.440   4.265   4.345
   62SGML   C52 3224   1.566   4.228   4.267
   63SGML    C1 3225   2.442   4.821   1.854
   63SGML    C2 3226   2.491   4.798   2.085
   63SGML    C3 3227   2.485   5.014   1.984
   63SGML    N4 3228   2.524   4.874   1.964
   63SGML    C5 3229   2.667   4.859   1.926
   63SGML    C6 3230   2.778   4.917   2.017
   63SGML   OS7 3231   2.912   4.900   1.968
   63SGML    P8 3232   3.019   4.970   2.060
   63SGML   OM9 3233   3.146   4.948   1.990
   63SGML  OM10 3234   2.967   0.025   2.086
   63SGML  OS11 3235   3.016   4.875   2.187
   63SGML   C12 3236   2.996   4.946   2.311
   63SGML   C13 3237   2.979   4.852   2.431
   63SGML   N14 3238   2.936   4.934   2.546
   63SGML   H15 3239   2.998   5.008   2.581
   63SGML   C16 3240   2.809   4.931   2.590
   63SGML   O17 3241   2.720   4.879   2.522
   63SGML   C18 3242   2.783   5.007   2.719
   63SGML   C19 3243   2.749   0.073   2.692
   63SGML   C20 3244   2.742   0.148   2.825
   63SGML   C21 3245   2.620   0.103   2.905
   63SGML   C22 3246   2.496   0.183   2.866
   63SGML   C23 3247   2.509   0.325   2.922
   63SGML   C24 3248   2.388   0.413   2.892
   63SGML   C25 3249   2.407   0.548   2.960
   63SGML   C26 3250   2.401   0.532   3.112
   63SGML   C27 3251   2.456   0.654   3.184
   63SGML   C28 3252   2.439   0.642   3.335
   63SGML   C29 3253   2.519   0.751   3.406
   63SGML   C30 3254   2.483   0.761   3.554
   63SGML   C31 3255   2.517   0.634   3.632
   63SGML   C32 3256   2.492   0.656   3.781
   63SGML   C33 3257   2.345   0.689   3.806
   63SGML   C34 3258   2.323   0.727   3.952
   63SGML   C35 3259   3.109   4.772   2.450
   63SGML  OA36 3260   3.135   4.695   2.331
   63SGML   H37 3261   3.095   4.758   2.260
   63SGML   C38 3262   3.103   4.683   2.571
   63SGML   C39 3263   3.174   4.704   2.683
   63SGML   C40 3264   3.168   4.622   2.809
   63SGML   C41 3265   3.110   4.705   2.923
   63SGML   C42 3266   3.202   4.822   2.958
   63SGML   C43 3267   3.129   4.926   3.044
   63SGML   C44 3268   3.081   4.866   3.176
   63SGML   C45 3269   3.003   4.970   3.257
   63SGML   C46 3270   2.940   4.906   3.381
   63SGML   C47 3271   2.832   4.806   3.340
   63SGML   C48 3272   2.761   4.748   3.462
   63SGML   C49 3273   2.656   4.645   3.420
   63SGML   C50 3274   2.579   4.592   3.541
   63SGML   C51 3275   2.477   4.485   3.498
   63SGML   C52 3276   2.368   4.546   3.409
   64SGML    C1 3277   4.202   0.132   1.452
   64SGML    C2 3278   4.162   4.977   1.454
   64SGML    C3 3279   4.271   0.004   1.637
   64SGML    N4 3280   4.257   0.002   1.491
   64SGML    C5 3281   4.388   5.066   1.424
   64SGML    C6 3282   4.476   4.943   1.455
   64SGML   OS7 3283   4.605   4.949   1.395
   64SGML    P8 3284   4.714   4.868   1.474
   64SGML   OM9 3285   4.663   4.732   1.498
   64SGML  OM10 3286   4.844   4.887   1.409
   64SGML  OS11 3287   4.714   4.955   1.605
   64SGML   C12 3288   4.725   4.879   1.725
   64SGML   C13 3289   4.800   4.955   1.833
   64SGML   N14 3290   4.838   4.862   1.941
   64SGML   H15 3291   4.787   4.773   1.952
   64SGML   C16 3292   4.944   4.886   2.023
   64SGML   O17 3293   4.983   5.003   2.033
   64SGML   C18 3294   4.982   4.771   2.115
   64SGML   C19 3295   5.054   4.817   2.242
   64SGML   C20 3296   5.203   4.843   2.219
   64SGML   C21 3297   5.267   4.892   2.348
   64SGML   C22 3298   5.273   4.782   2.454
   64SGML   C23 3299   0.029   4.843   2.590
   64SGML   C24 3300   0.042   4.737   2.700
   64SGML   C25 3301   0.050   4.806   2.836
   64SGML   C26 3302   0.072   4.707   2.950
   64SGML   C27 3303   0.057   4.777   3.085
   64SGML   C28 3304   0.096   4.685   3.200
   64SGML   C29 3305   0.065   4.749   3.335
   64SGML   C30 3306   0.123   4.665   3.448
   64SGML   C31 3307   0.083   4.717   3.586
   64SGML   C32 3308   5.214   4.687   3.615
   64SGML   C33 3309   5.177   4.730   3.757
   64SGML   C34 3310   5.032   4.695   3.789
   64SGML   C35 3311   4.719   5.080   1.871
   64SGML  OA36 3312   4.804   0.089   1.945
   64SGML   H37 3313   4.872   0.023   1.989
   64SGML   C38 3314   4.590   5.045   1.940
   64SGML   C39 3315   4.543   0.008   2.058
   64SGML   C40 3316   4.412   5.047   2.117
   64SGML   C41 3317   4.425   4.996   2.261
   64SGML   C42 3318   4.468   0.028   2.355
   64SGML   C43 3319   4.480   5.059   2.499
   64SGML   C44 3320   4.527   0.091   2.591
   64SGML   C45 3321   4.552   0.041   2.733
   64SGML   C46 3322   4.613   0.152   2.819
   64SGML   C47 3323   4.652   0.101   2.957
   64SGML   C48 3324   4.720   0.211   3.039
   64SGML   C49 3325   4.754   0.161   3.180
   64SGML   C50 3326   4.807   0.275   3.267
   64SGML   C51 3327   4.825   0.229   3.412
   64SGML   C52 3328   4.865   0.346   3.502
   65SGML    C1 3329   2.480   0.567   5.938
   65SGML    C2 3330   2.614   0.375   5.908
   65SGML    C3 3331   2.495   0.464   5.722
   65SGML    N4 3332   2.489   0.439   5.867
   65SGML    C5 3333   2.376   0.350   5.904
   65SGML    C6 3334   2.231   0.391   5.871
   65SGML   OS7 3335   2.136   0.293   5.912
   65SGML    P8 3336   1.990   0.331   5.869
   65SGML   OM9 3337   1.899   0.254   5.954
   65SGML  OM10 3338   1.972   0.477   5.854
   65SGML  OS11 3339   1.991   0.261   5.727
   65SGML   C12 3340   1.898   0.322   5.637
   65SGML   C13 3341   1.937   0.306   5.490
   65SGML   N14 3342   1.854   0.398   5.410
   65SGML   H15 3343   1.752   0.405   5.430
   65SGML   C16 3344   1.912   0.499   5.341
   65SGML   O17 3345   2.022   0.543   5.378
   65SGML   C18 3346   1.820   0.574   5.247
   65SGML   C19 3347   1.797   0.494   5.119
   65SGML   C20 3348   1.927   0.482   5.039
   65SGML   C21 3349   1.903   0.407   4.908
   65SGML   C22 3350   1.806   0.486   4.820
   65SGML   C23 3351   1.784   0.416   4.686
   65SGML   C24 3352   1.682   0.493   4.602
   65SGML   C25 3353   1.733   0.634   4.570
   65SGML   C26 3354   1.633   0.707   4.480
   65SGML   C27 3355   1.622   0.635   4.346
   65SGML   C28 3356   1.517   0.700   4.256
   65SGML   C29 3357   1.505   0.624   4.124
   65SGML   C30 3358   1.396   0.687   4.036
   65SGML   C31 3359   1.385   0.610   3.904
   65SGML   C32 3360   1.279   0.673   3.813
   65SGML   C33 3361   1.139   0.656   3.872
   65SGML   C34 3362   1.033   0.714   3.777
   65SGML   C35 3363   1.932   0.156   5.453
   65SGML  OA36 3364   2.028   0.087   5.535
   65SGML   H37 3365   2.032   0.149   5.618
   65SGML   C38 3366   1.961   0.128   5.309
   65SGML   C39 3367   1.879   0.066   5.222
   65SGML   C40 3368   1.909   0.039   5.078
   65SGML   C41 3369   1.902   4.970   5.045
   65SGML   C42 3370   1.923   4.945   4.896
   65SGML   C43 3371   1.907   4.796   4.864
   65SGML   C44 3372   1.921   4.767   4.715
   65SGML   C45 3373   1.907   4.616   4.691
   65SGML   C46 3374   1.922   4.578   4.544
   65SGML   C47 3375   1.920   4.426   4.529
   65SGML   C48 3376   1.943   4.382   4.385
   65SGML   C49 3377   1.955   4.230   4.377
   65SGML   C50 3378   1.981   4.183   4.233
   65SGML   C51 3379   2.002   4.032   4.228
   65SGML   C52 3380   2.028   3.984   4.085
   66SGML    C1 3381   2.451   3.809   6.565
   66SGML    C2 3382   2.421   3.577   6.609
   66SGML    C3 3383   2.634   3.674   6.644
   66SGML    N4 3384   2.515   3.677   6.557
   66SGML    C5 3385   2.548   3.639   6.418
   66SGML    C6 3386   2.659   3.718   6.343
   66SGML   OS7 3387   2.697   3.658   6.220
   66SGML    P8 3388   2.840   3.707   6.181
   66SGML   OM9 3389   2.843   3.854   6.178
   66SGML  OM10 3390   2.929   3.633   6.270
   66SGML  OS11 3391   2.858   3.647   6.036
   66SGML   C12 3392   2.772   3.705   5.937
   66SGML   C13 3393   2.839   3.709   5.798
   66SGML   N14 3394   2.745   3.779   5.708
   66SGML   H15 3395   2.645   3.754   5.710
   66SGML   C16 3396   2.784   3.890   5.641
   66SGML   O17 3397   2.889   3.948   5.672
   66SGML   C18 3398   2.684   3.945   5.540
   66SGML   C19 3399   2.738   3.939   5.397
   66SGML   C20 3400   2.737   3.797   5.342
   66SGML   C21 3401   2.781   3.792   5.195
   66SGML   C22 3402   2.932   3.816   5.180
   66SGML   C23 3403   2.975   3.816   5.033
   66SGML   C24 3404   2.946   3.681   4.968
   66SGML   C25 3405   2.994   3.672   4.823
   66SGML   C26 3406   2.944   3.541   4.762
   66SGML   C27 3407   2.999   3.515   4.622
   66SGML   C28 3408   2.933   3.389   4.564
   66SGML   C29 3409   3.000   3.343   4.434
   66SGML   C30 3410   2.985   3.444   4.320
   66SGML   C31 3411   3.047   3.388   4.192
   66SGML   C32 3412   3.037   3.487   4.077
   66SGML   C33 3413   3.097   3.429   3.949
   66SGML   C34 3414   3.014   3.312   3.897
   66SGML   C35 3415   2.881   3.567   5.754
   66SGML  OA36 3416   2.955   3.502   5.858
   66SGML   H37 3417   2.922   3.555   5.941
   66SGML   C38 3418   2.962   3.570   5.627
   66SGML   C39 3419   2.943   3.497   5.517
   66SGML   C40 3420   3.023   3.507   5.391
   66SGML   C41 3421   3.097   3.380   5.349
   66SGML   C42 3422   3.154   3.401   5.208
   66SGML   C43 3423   3.238   3.281   5.162
   66SGML   C44 3424   3.284   3.300   5.017
   66SGML   C45 3425   3.386   3.194   4.978
   66SGML   C46 3426   3.433   3.208   4.834
   66SGML   C47 3427   3.328   3.155   4.736
   66SGML   C48 3428   3.380   3.158   4.592
   66SGML   C49 3429   3.284   3.085   4.498
   66SGML   C50 3430   3.334   3.088   4.354
   66SGML   C51 3431   3.238   3.013   4.261
   66SGML   C52 3432   3.288   3.018   4.116
   67SGML    C1 3433   3.949   0.397   1.931
   67SGML    C2 3434   3.939   0.627   1.866
   67SGML    C3 3435   3.817   0.461   1.748
   67SGML    N4 3436   3.943   0.489   1.817
   67SGML    C5 3437   4.053   0.466   1.720
   67SGML    C6 3438   4.199   0.463   1.770
   67SGML   OS7 3439   4.294   0.419   1.673
   67SGML    P8 3440   4.400   0.322   1.738
   67SGML   OM9 3441   4.330   0.240   1.838
   67SGML  OM10 3442   4.473   0.259   1.627
   67SGML  OS11 3443   4.495   0.424   1.810
   67SGML   C12 3444   4.581   0.354   1.899
   67SGML   C13 3445   4.684   0.440   1.972
   67SGML   N14 3446   4.783   0.348   2.034
   67SGML   H15 3447   4.778   0.248   2.010
   67SGML   C16 3448   4.889   0.387   2.109
   67SGML   O17 3449   4.915   0.508   2.118
   67SGML   C18 3450   4.979   0.277   2.162
   67SGML   C19 3451   4.998   0.288   2.313
   67SGML   C20 3452   4.878   0.232   2.389
   67SGML   C21 3453   4.894   0.254   2.539
   67SGML   C22 3454   5.017   0.181   2.596
   67SGML   C23 3455   5.020   0.198   2.748
   67SGML   C24 3456   5.146   0.137   2.811
   67SGML   C25 3457   5.134   0.144   2.964
   67SGML   C26 3458   5.264   0.105   3.034
   67SGML   C27 3459   5.244   0.107   3.186
   67SGML   C28 3460   0.097   0.088   3.261
   67SGML   C29 3461   0.071   0.078   3.411
   67SGML   C30 3462   0.012   0.208   3.466
   67SGML   C31 3463   5.258   0.194   3.615
   67SGML   C32 3464   5.148   0.090   3.637
   67SGML   C33 3465   5.112   0.077   3.785
   67SGML   C34 3466   5.046   0.204   3.838
   67SGML   C35 3467   4.607   0.546   2.054
   67SGML  OA36 3468   4.698   0.644   2.107
   67SGML   H37 3469   4.787   0.591   2.122
   67SGML   C38 3470   4.520   0.483   2.159
   67SGML   C39 3471   4.520   0.501   2.292
   67SGML   C40 3472   4.426   0.433   2.387
   67SGML   C41 3473   4.351   0.532   2.476
   67SGML   C42 3474   4.449   0.602   2.571
   67SGML   C43 3475   4.376   0.677   2.683
   67SGML   C44 3476   4.477   0.726   2.786
   67SGML   C45 3477   4.562   0.608   2.834
   67SGML   C46 3478   4.662   0.645   2.943
   67SGML   C47 3479   4.595   0.650   3.081
   67SGML   C48 3480   4.702   0.665   3.189
   67SGML   C49 3481   4.645   0.640   3.329
   67SGML   C50 3482   4.557   0.755   3.378
   67SGML   C51 3483   4.505   0.725   3.518
   67SGML   C52 3484   4.620   0.712   3.618
   68SGML    C1 3485   4.524   0.750   1.431
   68SGML    C2 3486   4.755   0.736   1.482
   68SGML    C3 3487   4.608   0.561   1.548
   68SGML    N4 3488   4.620   0.707   1.533
   68SGML    C5 3489   4.605   0.778   1.662
   68SGML    C6 3490   4.473   0.773   1.742
   68SGML   OS7 3491   4.362   0.837   1.679
   68SGML    P8 3492   4.241   0.864   1.776
   68SGML   OM9 3493   4.129   0.884   1.682
   68SGML  OM10 3494   4.238   0.759   1.879
   68SGML  OS11 3495   4.293   1.005   1.824
   68SGML   C12 3496   4.297   1.021   1.966
   68SGML   C13 3497   4.372   1.146   2.011
   68SGML   N14 3498   4.364   1.150   2.158
   68SGML   H15 3499   4.270   1.154   2.201
   68SGML   C16 3500   4.472   1.124   2.236
   68SGML   O17 3501   4.579   1.087   2.185
   68SGML   C18 3502   4.451   1.144   2.385
   68SGML   C19 3503   4.571   1.099   2.468
   68SGML   C20 3504   4.547   1.128   2.617
   68SGML   C21 3505   4.666   1.085   2.703
   68SGML   C22 3506   4.637   1.113   2.851
   68SGML   C23 3507   4.751   1.068   2.941
   68SGML   C24 3508   4.719   1.098   3.088
   68SGML   C25 3509   4.829   1.049   3.181
   68SGML   C26 3510   4.794   1.080   3.327
   68SGML   C27 3511   4.896   1.020   3.424
   68SGML   C28 3512   4.859   1.052   3.568
   68SGML   C29 3513   4.957   0.987   3.666
   68SGML   C30 3514   4.925   1.024   3.811
   68SGML   C31 3515   4.790   0.965   3.855
   68SGML   C32 3516   4.762   0.996   4.002
   68SGML   C33 3517   4.628   0.935   4.045
   68SGML   C34 3518   4.634   0.782   4.040
   68SGML   C35 3519   4.310   1.270   1.942
   68SGML  OA36 3520   4.323   1.260   1.799
   68SGML   H37 3521   4.319   1.157   1.787
   68SGML   C38 3522   4.369   1.400   1.989
   68SGML   C39 3523   4.300   1.494   2.054
   68SGML   C40 3524   4.350   1.626   2.104
   68SGML   C41 3525   4.321   1.650   2.253
   68SGML   C42 3526   4.405   1.562   2.345
   68SGML   C43 3527   4.380   1.600   2.491
   68SGML   C44 3528   4.474   1.527   2.587
   68SGML   C45 3529   4.448   1.569   2.731
   68SGML   C46 3530   4.549   1.504   2.827
   68SGML   C47 3531   4.523   1.548   2.971
   68SGML   C48 3532   4.626   1.488   3.067
   68SGML   C49 3533   4.598   1.533   3.210
   68SGML   C50 3534   4.695   1.472   3.311
   68SGML   C51 3535   4.660   1.517   3.453
   68SGML   C52 3536   4.753   1.453   3.557
   69SGML    C1 3537   2.667   4.689   5.923
   69SGML    C2 3538   2.890   4.707   5.994
   69SGML    C3 3539   2.712   4.794   6.131
   69SGML    N4 3540   2.761   4.776   5.994
   69SGML    C5 3541   2.765   4.905   5.919
   69SGML    C6 3542   2.846   5.028   5.967
   69SGML   OS7 3543   2.988   5.017   5.956
   69SGML    P8 3544   3.056   0.075   5.921
   69SGML   OM9 3545   2.988   0.177   6.002
   69SGML  OM10 3546   3.199   0.049   5.935
   69SGML  OS11 3547   3.013   0.087   5.769
   69SGML   C12 3548   3.085   0.003   5.679
   69SGML   C13 3549   2.999   5.037   5.561
   69SGML   N14 3550   3.074   4.929   5.493
   69SGML   H15 3551   3.173   4.941   5.470
   69SGML   C16 3552   3.022   4.805   5.483
   69SGML   O17 3553   2.932   4.768   5.560
   69SGML   C18 3554   3.097   4.708   5.393
   69SGML   C19 3555   2.999   4.615   5.322
   69SGML   C20 3556   2.932   4.680   5.202
   69SGML   C21 3557   3.035   4.703   5.091
   69SGML   C22 3558   2.969   4.755   4.963
   69SGML   C23 3559   2.887   4.646   4.894
   69SGML   C24 3560   2.835   4.698   4.760
   69SGML   C25 3561   2.768   4.587   4.678
   69SGML   C26 3562   2.868   4.474   4.652
   69SGML   C27 3563   2.824   4.383   4.537
   69SGML   C28 3564   2.855   4.448   4.402
   69SGML   C29 3565   3.006   4.464   4.386
   69SGML   C30 3566   3.043   4.534   4.255
   69SGML   C31 3567   3.017   4.445   4.134
   69SGML   C32 3568   3.057   4.515   4.004
   69SGML   C33 3569   2.966   4.635   3.975
   69SGML   C34 3570   3.008   4.706   3.846
   69SGML   C35 3571   2.958   0.078   5.475
   69SGML  OA36 3572   2.902   0.181   5.558
   69SGML   H37 3573   2.944   0.161   5.651
   69SGML   C38 3574   2.858   0.041   5.369
   69SGML   C39 3575   2.876   0.031   5.237
   69SGML   C40 3576   2.767   5.075   5.140
   69SGML   C41 3577   2.760   0.086   5.019
   69SGML   C42 3578   2.871   0.054   4.918
   69SGML   C43 3579   2.866   0.151   4.800
   69SGML   C44 3580   2.958   0.107   4.686
   69SGML   C45 3581   2.897   5.068   4.611
   69SGML   C46 3582   2.983   5.028   4.491
   69SGML   C47 3583   2.922   4.909   4.418
   69SGML   C48 3584   2.790   4.947   4.350
   69SGML   C49 3585   2.726   4.825   4.283
   69SGML   C50 3586   2.596   4.864   4.212
   69SGML   C51 3587   2.491   4.913   4.312
   69SGML   C52 3588   2.358   4.943   4.242
   70SGML    C1 3589   1.987   5.003   5.947
   70SGML    C2 3590   2.178   5.068   6.072
   70SGML    C3 3591   2.189   5.064   5.836
   70SGML    N4 3592   2.134   4.995   5.953
   70SGML    C5 3593   2.179   4.854   5.964
   70SGML    C6 3594   2.143   4.753   5.852
   70SGML   OS7 3595   2.208   4.776   5.727
   70SGML    P8 3596   2.151   4.682   5.614
   70SGML   OM9 3597   2.186   4.547   5.663
   70SGML  OM10 3598   2.012   4.727   5.598
   70SGML  OS11 3599   2.244   4.734   5.499
   70SGML   C12 3600   2.211   4.862   5.443
   70SGML   C13 3601   2.331   4.957   5.447
   70SGML   N14 3602   2.288   0.017   5.419
   70SGML   H15 3603   2.190   0.039   5.437
   70SGML   C16 3604   2.372   0.122   5.396
   70SGML   O17 3605   2.493   0.111   5.418
   70SGML   C18 3606   2.307   0.253   5.357
   70SGML   C19 3607   2.357   0.302   5.221
   70SGML   C20 3608   2.307   0.210   5.110
   70SGML   C21 3609   2.341   0.263   4.971
   70SGML   C22 3610   2.296   0.163   4.865
   70SGML   C23 3611   2.317   0.215   4.723
   70SGML   C24 3612   2.286   0.105   4.621
   70SGML   C25 3613   2.138   0.065   4.625
   70SGML   C26 3614   2.053   0.146   4.527
   70SGML   C27 3615   2.085   0.104   4.384
   70SGML   C28 3616   1.981   0.157   4.284
   70SGML   C29 3617   2.013   0.106   4.143
   70SGML   C30 3618   1.898   0.135   4.047
   70SGML   C31 3619   1.928   0.080   3.907
   70SGML   C32 3620   1.805   0.091   3.817
   70SGML   C33 3621   1.769   0.237   3.789
   70SGML   C34 3622   1.639   0.247   3.708
   70SGML   C35 3623   2.446   4.889   5.369
   70SGML  OA36 3624   2.570   4.953   5.399
   70SGML   H37 3625   2.546   5.055   5.402
   70SGML   C38 3626   2.424   4.877   5.221
   70SGML   C39 3627   2.472   4.775   5.148
   70SGML   C40 3628   2.458   4.752   5.000
   70SGML   C41 3629   2.342   4.830   4.938
   70SGML   C42 3630   2.348   4.822   4.786
   70SGML   C43 3631   2.343   4.677   4.736
   70SGML   C44 3632   2.344   4.675   4.583
   70SGML   C45 3633   2.355   4.533   4.527
   70SGML   C46 3634   2.349   4.536   4.374
   70SGML   C47 3635   2.366   4.397   4.314
   70SGML   C48 3636   2.347   4.402   4.162
   70SGML   C49 3637   2.362   4.263   4.099
   70SGML   C50 3638   2.509   4.220   4.092
   70SGML   C51 3639   2.584   4.298   3.984
   70SGML   C52 3640   2.727   4.248   3.969
   71SGML    C1 3641   0.969   0.247   1.456
   71SGML    C2 3642   0.943   0.476   1.398
   71SGML    C3 3643   0.992   0.415   1.623
   71SGML    N4 3644   0.916   0.376   1.503
   71SGML    C5 3645   0.771   0.361   1.528
   71SGML    C6 3646   0.690   0.483   1.578
   71SGML   OS7 3647   0.550   0.458   1.592
   71SGML    P8 3648   0.474   0.579   1.657
   71SGML   OM9 3649   0.554   0.701   1.648
   71SGML  OM10 3650   0.337   0.575   1.603
   71SGML  OS11 3651   0.484   0.532   1.808
   71SGML   C12 3652   0.359   0.523   1.878
   71SGML   C13 3653   0.376   0.506   2.030
   71SGML   N14 3654   0.246   0.480   2.094
   71SGML   H15 3655   0.178   0.556   2.107
   71SGML   C16 3656   0.214   0.356   2.140
   71SGML   O17 3657   0.272   0.256   2.095
   71SGML   C18 3658   0.091   0.351   2.228
   71SGML   C19 3659   0.125   0.306   2.371
   71SGML   C20 3660   0.158   0.157   2.375
   71SGML   C21 3661   0.175   0.105   2.518
   71SGML   C22 3662   0.303   0.154   2.586
   71SGML   C23 3663   0.315   0.086   2.722
   71SGML   C24 3664   0.429   0.146   2.805
   71SGML   C25 3665   0.430   0.086   2.945
   71SGML   C26 3666   0.515   0.172   3.038
   71SGML   C27 3667   0.454   0.313   3.041
   71SGML   C28 3668   0.521   0.406   3.141
   71SGML   C29 3669   0.463   0.547   3.125
   71SGML   C30 3670   0.514   0.641   3.234
   71SGML   C31 3671   0.457   0.600   3.369
   71SGML   C32 3672   0.495   0.701   3.478
   71SGML   C33 3673   0.439   0.656   3.613
   71SGML   C34 3674   0.286   0.653   3.610
   71SGML   C35 3675   0.453   0.628   2.085
   71SGML  OA36 3676   0.585   0.632   2.030
   71SGML   H37 3677   0.568   0.596   1.934
   71SGML   C38 3678   0.459   0.632   2.235
   71SGML   C39 3679   0.424   0.736   2.312
   71SGML   C40 3680   0.428   0.743   2.461
   71SGML   C41 3681   0.297   0.797   2.518
   71SGML   C42 3682   0.300   0.804   2.671
   71SGML   C43 3683   0.285   0.665   2.734
   71SGML   C44 3684   0.144   0.610   2.710
   71SGML   C45 3685   0.125   0.473   2.775
   71SGML   C46 3686   0.115   0.483   2.927
   71SGML   C47 3687   5.262   0.546   2.970
   71SGML   C48 3688   5.248   0.545   3.123
   71SGML   C49 3689   5.115   0.608   3.165
   71SGML   C50 3690   5.095   0.599   3.316
   71SGML   C51 3691   5.197   0.683   3.392
   71SGML   C52 3692   5.176   0.672   3.543
   72SGML    C1 3693   0.003   0.643   1.691
   72SGML    C2 3694   0.065   0.827   1.825
   72SGML    C3 3695   5.183   0.855   1.651
   72SGML    N4 3696   0.028   0.787   1.689
   72SGML    C5 3697   0.138   0.816   1.592
   72SGML    C6 3698   0.196   0.959   1.576
   72SGML   OS7 3699   0.268   1.007   1.689
   72SGML    P8 3700   0.312   1.157   1.672
   72SGML   OM9 3701   0.445   1.158   1.612
   72SGML  OM10 3702   0.198   1.225   1.608
   72SGML  OS11 3703   0.312   1.196   1.825
   72SGML   C12 3704   0.425   1.151   1.901
   72SGML   C13 3705   0.413   1.183   2.051
   72SGML   N14 3706   0.538   1.135   2.114
   72SGML   H15 3707   0.574   1.042   2.090
   72SGML   C16 3708   0.617   1.213   2.192
   72SGML   O17 3709   0.600   1.335   2.195
   72SGML   C18 3710   0.742   1.146   2.246
   72SGML   C19 3711   0.712   1.052   2.364
   72SGML   C20 3712   0.679   1.129   2.491
   72SGML   C21 3713   0.671   1.035   2.611
   72SGML   C22 3714   0.647   1.111   2.742
   72SGML   C23 3715   0.656   1.016   2.861
   72SGML   C24 3716   0.643   1.089   2.995
   72SGML   C25 3717   0.665   0.991   3.109
   72SGML   C26 3718   0.656   1.056   3.247
   72SGML   C27 3719   0.768   1.157   3.270
   72SGML   C28 3720   0.774   1.198   3.417
   72SGML   C29 3721   0.646   1.268   3.461
   72SGML   C30 3722   0.649   1.301   3.610
   72SGML   C31 3723   0.750   1.411   3.642
   72SGML   C32 3724   0.754   1.440   3.792
   72SGML   C33 3725   0.856   1.550   3.822
   72SGML   C34 3726   0.870   1.574   3.973
   72SGML   C35 3727   0.286   1.116   2.110
   72SGML  OA36 3728   0.173   1.130   2.021
   72SGML   H37 3729   0.220   1.154   1.931
   72SGML   C38 3730   0.250   1.167   2.247
   72SGML   C39 3731   0.128   1.209   2.284
   72SGML   C40 3732   0.077   1.263   2.414
   72SGML   C41 3733   0.184   1.285   2.520
   72SGML   C42 3734   0.119   1.352   2.641
   72SGML   C43 3735   0.220   1.389   2.749
   72SGML   C44 3736   0.149   1.469   2.859
   72SGML   C45 3737   0.246   1.509   2.970
   72SGML   C46 3738   0.295   1.385   3.046
   72SGML   C47 3739   0.384   1.426   3.163
   72SGML   C48 3740   0.303   1.502   3.268
   72SGML   C49 3741   0.393   1.547   3.382
   72SGML   C50 3742   0.315   1.623   3.489
   72SGML   C51 3743   0.408   1.665   3.603
   72SGML   C52 3744   0.333   1.746   3.708
   73SGML    C1 3745   2.820   1.244   6.192
   73SGML    C2 3746   3.034   1.156   6.151
   73SGML    C3 3747   2.851   1.008   6.186
   73SGML    N4 3748   2.911   1.135   6.228
   73SGML    C5 3749   2.937   1.140   6.374
   73SGML    C6 3750   3.047   1.049   6.434
   73SGML   OS7 3751   3.023   0.909   6.429
   73SGML    P8 3752   3.156   0.828   6.402
   73SGML   OM9 3753   3.271   0.905   6.453
   73SGML  OM10 3754   3.127   0.692   6.451
   73SGML  OS11 3755   3.145   0.832   6.246
   73SGML   C12 3756   3.263   0.797   6.173
   73SGML   C13 3757   3.247   0.826   6.023
   73SGML   N14 3758   3.208   0.700   5.953
   73SGML   H15 3759   3.277   0.624   5.943
   73SGML   C16 3760   3.081   0.673   5.915
   73SGML   O17 3761   2.987   0.731   5.971
   73SGML   C18 3762   3.064   0.549   5.828
   73SGML   C19 3763   2.936   0.552   5.744
   73SGML   C20 3764   2.940   0.660   5.636
   73SGML   C21 3765   2.813   0.657   5.551
   73SGML   C22 3766   2.821   0.556   5.436
   73SGML   C23 3767   2.914   0.609   5.326
   73SGML   C24 3768   2.905   0.528   5.197
   73SGML   C25 3769   2.765   0.536   5.136
   73SGML   C26 3770   2.763   0.488   4.990
   73SGML   C27 3771   2.813   0.599   4.897
   73SGML   C28 3772   2.834   0.547   4.754
   73SGML   C29 3773   2.703   0.500   4.689
   73SGML   C30 3774   2.733   0.438   4.552
   73SGML   C31 3775   2.608   0.376   4.489
   73SGML   C32 3776   2.643   0.305   4.357
   73SGML   C33 3777   2.520   0.241   4.294
   73SGML   C34 3778   2.421   0.346   4.245
   73SGML   C35 3779   3.380   0.882   5.968
   73SGML  OA36 3780   3.454   0.966   6.058
   73SGML   H37 3781   3.389   1.028   6.110
   73SGML   C38 3782   3.353   0.954   5.838
   73SGML   C39 3783   3.422   0.941   5.724
   73SGML   C40 3784   3.393   1.011   5.595
   73SGML   C41 3785   3.413   0.920   5.474
   73SGML   C42 3786   3.318   0.800   5.475
   73SGML   C43 3787   3.354   0.699   5.367
   73SGML   C44 3788   3.332   0.754   5.226
   73SGML   C45 3789   3.354   0.645   5.120
   73SGML   C46 3790   3.315   0.694   4.981
   73SGML   C47 3791   3.315   0.579   4.880
   73SGML   C48 3792   3.260   0.626   4.745
   73SGML   C49 3793   3.248   0.509   4.647
   73SGML   C50 3794   3.180   0.554   4.517
   73SGML   C51 3795   3.162   0.438   4.420
   73SGML   C52 3796   3.296   0.389   4.366
   74SGML    C1 3797   4.374   1.042   6.358
   74SGML    C2 3798   4.301   1.116   6.573
   74SGML    C3 3799   4.529   1.141   6.505
   74SGML    N4 3800   4.412   1.053   6.500
   74SGML    C5 3801   4.451   0.921   6.556
   74SGML    C6 3802   4.345   0.812   6.580
   74SGML   OS7 3803   4.286   0.756   6.463
   74SGML    P8 3804   4.172   0.656   6.502
   74SGML   OM9 3805   4.233   0.565   6.600
   74SGML  OM10 3806   4.057   0.740   6.534
   74SGML  OS11 3807   4.164   0.580   6.365
   74SGML   C12 3808   4.081   0.647   6.270
   74SGML   C13 3809   4.132   0.628   6.127
   74SGML   N14 3810   4.056   0.724   6.044
   74SGML   H15 3811   3.957   0.708   6.028
   74SGML   C16 3812   4.101   0.851   6.026
   74SGML   O17 3813   4.170   0.907   6.112
   74SGML   C18 3814   4.021   0.928   5.922
   74SGML   C19 3815   4.111   0.988   5.814
   74SGML   C20 3816   4.175   0.877   5.729
   74SGML   C21 3817   4.254   0.938   5.613
   74SGML   C22 3818   4.324   0.828   5.532
   74SGML   C23 3819   4.393   0.886   5.409
   74SGML   C24 3820   4.466   0.776   5.333
   74SGML   C25 3821   4.526   0.826   5.201
   74SGML   C26 3822   4.599   0.711   5.131
   74SGML   C27 3823   4.652   0.751   4.994
   74SGML   C28 3824   4.537   0.777   4.896
   74SGML   C29 3825   4.591   0.801   4.755
   74SGML   C30 3826   4.652   0.672   4.700
   74SGML   C31 3827   4.704   0.692   4.557
   74SGML   C32 3828   4.761   0.561   4.502
   74SGML   C33 3829   4.811   0.579   4.359
   74SGML   C34 3830   4.863   0.446   4.302
   74SGML   C35 3831   4.123   0.479   6.090
   74SGML  OA36 3832   4.198   0.400   6.184
   74SGML   H37 3833   4.193   0.459   6.269
   74SGML   C38 3834   4.175   0.449   5.953
   74SGML   C39 3835   4.104   0.395   5.852
   74SGML   C40 3836   4.159   0.364   5.716
   74SGML   C41 3837   4.097   0.450   5.606
   74SGML   C42 3838   4.157   0.412   5.471
   74SGML   C43 3839   4.098   0.495   5.358
   74SGML   C44 3840   4.165   0.458   5.226
   74SGML   C45 3841   4.111   0.540   5.109
   74SGML   C46 3842   4.186   0.505   4.981
   74SGML   C47 3843   4.135   0.586   4.862
   74SGML   C48 3844   4.220   0.555   4.739
   74SGML   C49 3845   4.173   0.635   4.617
   74SGML   C50 3846   4.270   0.614   4.501
   74SGML   C51 3847   4.224   0.690   4.376
   74SGML   C52 3848   4.329   0.681   4.266
   75SGML    C1 3849   2.860   4.044   1.867
   75SGML    C2 3850   2.735   3.853   1.937
   75SGML    C3 3851   2.622   4.055   1.884
   75SGML    N4 3852   2.744   4.000   1.946
   75SGML    C5 3853   2.755   4.038   2.088
   75SGML    C6 3854   2.779   4.187   2.125
   75SGML   OS7 3855   2.671   4.275   2.096
   75SGML    P8 3856   2.716   4.425   2.083
   75SGML   OM9 3857   2.832   4.422   1.993
   75SGML  OM10 3858   2.597   4.502   2.045
   75SGML  OS11 3859   2.763   4.449   2.232
   75SGML   C12 3860   2.706   4.563   2.298
   75SGML   C13 3861   2.655   4.531   2.439
   75SGML   N14 3862   2.586   4.652   2.490
   75SGML   H15 3863   2.638   4.740   2.500
   75SGML   C16 3864   2.454   4.653   2.519
   75SGML   O17 3865   2.385   4.552   2.499
   75SGML   C18 3866   2.400   4.785   2.571
   75SGML   C19 3867   2.280   4.765   2.664
   75SGML   C20 3868   2.321   4.708   2.801
   75SGML   C21 3869   2.383   4.813   2.893
   75SGML   C22 3870   2.398   4.754   3.034
   75SGML   C23 3871   2.450   4.855   3.136
   75SGML   C24 3872   2.354   4.973   3.150
   75SGML   C25 3873   2.383   5.055   3.277
   75SGML   C26 3874   2.527   0.026   3.282
   75SGML   C27 3875   2.541   0.128   3.395
   75SGML   C28 3876   2.687   0.168   3.420
   75SGML   C29 3877   2.693   0.288   3.514
   75SGML   C30 3878   2.837   0.325   3.551
   75SGML   C31 3879   2.884   0.252   3.677
   75SGML   C32 3880   2.814   0.307   3.801
   75SGML   C33 3881   2.873   0.252   3.931
   75SGML   C34 3882   2.847   0.102   3.945
   75SGML   C35 3883   2.770   4.478   2.527
   75SGML  OA36 3884   2.830   4.363   2.464
   75SGML   H37 3885   2.818   4.386   2.364
   75SGML   C38 3886   2.726   4.443   2.666
   75SGML   C39 3887   2.767   4.505   2.778
   75SGML   C40 3888   2.725   4.473   2.919
   75SGML   C41 3889   2.626   4.357   2.925
   75SGML   C42 3890   2.584   4.329   3.070
   75SGML   C43 3891   2.486   4.212   3.077
   75SGML   C44 3892   2.440   4.188   3.221
   75SGML   C45 3893   2.341   4.072   3.227
   75SGML   C46 3894   2.284   4.053   3.368
   75SGML   C47 3895   2.388   3.998   3.465
   75SGML   C48 3896   2.326   3.978   3.604
   75SGML   C49 3897   2.428   3.919   3.702
   75SGML   C50 3898   2.363   3.898   3.839
   75SGML   C51 3899   2.463   3.836   3.938
   75SGML   C52 3900   2.399   3.818   4.076
   76SGML    C1 3901   2.430   4.243   2.298
   76SGML    C2 3902   2.332   4.228   2.083
   76SGML    C3 3903   2.317   4.432   2.206
   76SGML    N4 3904   2.315   4.285   2.217
   76SGML    C5 3905   2.193   4.237   2.284
   76SGML    C6 3906   2.055   4.258   2.218
   76SGML   OS7 3907   2.018   4.160   2.120
   76SGML    P8 3908   1.882   4.194   2.049
   76SGML   OM9 3909   1.890   4.334   2.004
   76SGML  OM10 3910   1.851   4.087   1.952
   76SGML  OS11 3911   1.780   4.180   2.169
   76SGML   C12 3912   1.697   4.294   2.195
   76SGML   C13 3913   1.598   4.278   2.311
   76SGML   N14 3914   1.538   4.412   2.332
   76SGML   H15 3915   1.601   4.494   2.342
   76SGML   C16 3916   1.406   4.438   2.315
   76SGML   O17 3917   1.342   4.374   2.231
   76SGML   C18 3918   1.363   4.574   2.366
   76SGML   C19 3919   1.242   4.565   2.460
   76SGML   C20 3920   1.280   4.511   2.598
   76SGML   C21 3921   1.160   4.525   2.693
   76SGML   C22 3922   1.196   4.489   2.837
   76SGML   C23 3923   1.085   4.538   2.931
   76SGML   C24 3924   1.121   4.519   3.078
   76SGML   C25 3925   1.024   4.600   3.165
   76SGML   C26 3926   1.059   4.591   3.314
   76SGML   C27 3927   1.022   4.453   3.371
   76SGML   C28 3928   1.050   4.445   3.521
   76SGML   C29 3929   0.962   4.542   3.600
   76SGML   C30 3930   0.988   4.529   3.750
   76SGML   C31 3931   0.924   4.403   3.809
   76SGML   C32 3932   0.772   4.419   3.817
   76SGML   C33 3933   0.706   4.297   3.881
   76SGML   C34 3934   0.554   4.315   3.890
   76SGML   C35 3935   1.671   4.227   2.438
   76SGML  OA36 3936   1.755   4.114   2.409
   76SGML   H37 3937   1.769   4.124   2.306
   76SGML   C38 3938   1.579   4.194   2.551
   76SGML   C39 3939   1.597   4.231   2.679
   76SGML   C40 3940   1.509   4.199   2.795
   76SGML   C41 3941   1.575   4.091   2.881
   76SGML   C42 3942   1.494   4.056   3.006
   76SGML   C43 3943   1.557   3.935   3.075
   76SGML   C44 3944   1.491   3.905   3.210
   76SGML   C45 3945   1.555   3.780   3.270
   76SGML   C46 3946   1.513   3.758   3.416
   76SGML   C47 3947   1.581   3.634   3.471
   76SGML   C48 3948   1.561   3.620   3.622
   76SGML   C49 3949   1.633   3.732   3.697
   76SGML   C50 3950   1.624   3.714   3.848
   76SGML   C51 3951   1.479   3.722   3.896
   76SGML   C52 3952   1.470   3.708   4.048
   77SGML    C1 3953   0.453   4.903   6.544
   77SGML    C2 3954   0.435   4.842   6.313
   77SGML    C3 3955   0.349   4.699   6.481
   77SGML    N4 3956   0.459   4.791   6.449
   77SGML    C5 3957   0.586   4.715   6.463
   77SGML    C6 3958   0.720   4.772   6.412
   77SGML   OS7 3959   0.733   4.772   6.270
   77SGML    P8 3960   0.870   4.832   6.224
   77SGML   OM9 3961   0.881   4.965   6.286
   77SGML  OM10 3962   0.970   4.726   6.247
   77SGML  OS11 3963   0.847   4.842   6.069
   77SGML   C12 3964   0.748   4.937   6.026
   77SGML   C13 3965   0.763   4.978   5.879
   77SGML   N14 3966   0.656   5.077   5.852
   77SGML   H15 3967   0.558   5.055   5.873
   77SGML   C16 3968   0.684   0.125   5.820
   77SGML   O17 3969   0.800   0.167   5.821
   77SGML   C18 3970   0.563   0.215   5.798
   77SGML   C19 3971   0.563   0.273   5.657
   77SGML   C20 3972   0.532   0.163   5.556
   77SGML   C21 3973   0.542   0.216   5.413
   77SGML   C22 3974   0.522   0.103   5.312
   77SGML   C23 3975   0.549   0.153   5.171
   77SGML   C24 3976   0.549   0.038   5.071
   77SGML   C25 3977   0.592   0.089   4.933
   77SGML   C26 3978   0.612   5.055   4.835
   77SGML   C27 3979   0.670   0.030   4.705
   77SGML   C28 3980   0.708   4.998   4.608
   77SGML   C29 3981   0.774   5.057   4.484
   77SGML   C30 3982   0.820   4.947   4.388
   77SGML   C31 3983   0.886   5.010   4.265
   77SGML   C32 3984   0.931   4.902   4.166
   77SGML   C33 3985   0.991   4.967   4.041
   77SGML   C34 3986   1.029   4.860   3.939
   77SGML   C35 3987   0.767   4.853   5.787
   77SGML  OA36 3988   0.868   4.762   5.833
   77SGML   H37 3989   0.873   4.789   5.934
   77SGML   C38 3990   0.793   4.885   5.643
   77SGML   C39 3991   0.718   4.846   5.540
   77SGML   C40 3992   0.744   4.876   5.395
   77SGML   C41 3993   0.754   4.748   5.311
   77SGML   C42 3994   0.779   4.781   5.164
   77SGML   C43 3995   0.778   4.655   5.078
   77SGML   C44 3996   0.798   4.691   4.930
   77SGML   C45 3997   0.781   4.569   4.840
   77SGML   C46 3998   0.792   4.610   4.693
   77SGML   C47 3999   0.732   4.503   4.602
   77SGML   C48 4000   0.725   4.553   4.457
   77SGML   C49 4001   0.851   4.519   4.377
   77SGML   C50 4002   0.849   4.372   4.337
   77SGML   C51 4003   0.968   4.337   4.248
   77SGML   C52 4004   0.957   4.194   4.197
   78SGML    C1 4005   0.777   4.281   6.071
   78SGML    C2 4006   0.829   4.511   6.029
   78SGML    C3 4007   0.898   4.406   6.230
   78SGML    N4 4008   0.790   4.414   6.131
   78SGML    C5 4009   0.666   4.452   6.202
   78SGML    C6 4010   0.536   4.480   6.124
   78SGML   OS7 4011   0.425   4.509   6.209
   78SGML    P8 4012   0.290   4.526   6.129
   78SGML   OM9 4013   0.289   4.425   6.023
   78SGML  OM10 4014   0.190   4.533   6.237
   78SGML  OS11 4015   0.314   4.671   6.074
   78SGML   C12 4016   0.200   4.732   6.012
   78SGML   C13 4017   0.220   4.883   5.990
   78SGML   N14 4018   0.099   4.941   5.925
   78SGML   H15 4019   0.019   4.878   5.906
   78SGML   C16 4020   0.080   5.073   5.900
   78SGML   O17 4021   0.168   0.076   5.926
   78SGML   C18 4022   5.226   0.030   5.834
   78SGML   C19 4023   5.232   0.020   5.681
   78SGML   C20 4024   0.039   0.131   5.619
   78SGML   C21 4025   0.026   0.134   5.466
   78SGML   C22 4026   0.118   0.242   5.408
   78SGML   C23 4027   0.092   0.270   5.260
   78SGML   C24 4028   0.131   0.153   5.170
   78SGML   C25 4029   0.125   0.192   5.022
   78SGML   C26 4030   0.155   0.070   4.935
   78SGML   C27 4031   0.153   0.101   4.785
   78SGML   C28 4032   0.159   5.050   4.707
   78SGML   C29 4033   0.158   5.069   4.555
   78SGML   C30 4034   0.293   0.038   4.504
   78SGML   C31 4035   0.294   0.041   4.351
   78SGML   C32 4036   0.431   0.081   4.297
   78SGML   C33 4037   0.432   0.076   4.144
   78SGML   C34 4038   0.571   0.109   4.089
   78SGML   C35 4039   0.355   4.901   5.918
   78SGML  OA36 4040   0.395   5.040   5.921
   78SGML   H37 4041   0.303   0.010   5.918
   78SGML   C38 4042   0.353   4.841   5.780
   78SGML   C39 4043   0.331   4.902   5.663
   78SGML   C40 4044   0.331   4.836   5.529
   78SGML   C41 4045   0.193   4.779   5.495
   78SGML   C42 4046   0.190   4.728   5.351
   78SGML   C43 4047   0.202   4.847   5.256
   78SGML   C44 4048   0.178   4.809   5.110
   78SGML   C45 4049   0.293   4.729   5.049
   78SGML   C46 4050   0.271   4.719   4.898
   78SGML   C47 4051   0.386   4.649   4.826
   78SGML   C48 4052   0.371   4.668   4.675
   78SGML   C49 4053   0.247   4.595   4.621
   78SGML   C50 4054   0.225   4.627   4.473
   78SGML   C51 4055   0.333   4.567   4.384
   78SGML   C52 4056   0.324   4.415   4.379
   79SGML    C1 4057   3.450   3.938   2.593
   79SGML    C2 4058   3.217   3.969   2.549
   79SGML    C3 4059   3.334   3.783   2.453
   79SGML    N4 4060   3.345   3.925   2.491
   79SGML    C5 4061   3.384   4.011   2.376
   79SGML    C6 4062   3.290   4.029   2.255
   79SGML   OS7 4063   3.272   3.910   2.178
   79SGML    P8 4064   3.132   3.906   2.108
   79SGML   OM9 4065   3.092   4.041   2.065
   79SGML  OM10 4066   3.130   3.791   2.015
   79SGML  OS11 4067   3.044   3.876   2.237
   79SGML   C12 4068   2.998   3.741   2.253
   79SGML   C13 4069   2.959   3.706   2.396
   79SGML   N14 4070   2.918   3.565   2.398
   79SGML   H15 4071   2.821   3.539   2.374
   79SGML   C16 4072   3.005   3.467   2.432
   79SGML   O17 4073   3.126   3.491   2.440
   79SGML   C18 4074   2.946   3.326   2.440
   79SGML   C19 4075   2.957   3.272   2.582
   79SGML   C20 4076   2.857   3.342   2.675
   79SGML   C21 4077   2.879   3.301   2.821
   79SGML   C22 4078   2.779   3.371   2.913
   79SGML   C23 4079   2.813   3.345   3.060
   79SGML   C24 4080   2.946   3.412   3.096
   79SGML   C25 4081   2.983   3.388   3.242
   79SGML   C26 4082   3.119   3.450   3.274
   79SGML   C27 4083   3.162   3.417   3.417
   79SGML   C28 4084   3.309   3.451   3.439
   79SGML   C29 4085   3.358   3.395   3.573
   79SGML   C30 4086   3.510   3.405   3.584
   79SGML   C31 4087   3.561   3.332   3.709
   79SGML   C32 4088   3.714   3.332   3.715
   79SGML   C33 4089   3.763   3.256   3.838
   79SGML   C34 4090   3.916   3.256   3.844
   79SGML   C35 4091   2.851   3.805   2.448
   79SGML  OA36 4092   2.897   3.940   2.435
   79SGML   H37 4093   2.961   3.934   2.354
   79SGML   C38 4094   2.813   3.774   2.590
   79SGML   C39 4095   2.689   3.751   2.634
   79SGML   C40 4096   2.649   3.715   2.774
   79SGML   C41 4097   2.570   3.826   2.844
   79SGML   C42 4098   2.506   3.773   2.973
   79SGML   C43 4099   2.608   3.737   3.081
   79SGML   C44 4100   2.536   3.676   3.201
   79SGML   C45 4101   2.631   3.646   3.317
   79SGML   C46 4102   2.554   3.585   3.434
   79SGML   C47 4103   2.642   3.573   3.559
   79SGML   C48 4104   2.750   3.465   3.545
   79SGML   C49 4105   2.692   3.324   3.557
   79SGML   C50 4106   2.648   3.295   3.701
   79SGML   C51 4107   2.597   3.151   3.715
   79SGML   C52 4108   2.550   3.124   3.858
   80SGML    C1 4109   3.089   4.598   2.031
   80SGML    C2 4110   3.199   4.525   1.831
   80SGML    C3 4111   3.144   4.370   2.003
   80SGML    N4 4112   3.190   4.507   1.976
   80SGML    C5 4113   3.323   4.523   2.040
   80SGML    C6 4114   3.394   4.661   2.038
   80SGML   OS7 4115   3.532   4.653   2.070
   80SGML    P8 4116   3.601   4.794   2.070
   80SGML   OM9 4117   3.742   4.770   2.106
   80SGML  OM10 4118   3.569   4.848   1.937
   80SGML  OS11 4119   3.520   4.868   2.183
   80SGML   C12 4120   3.578   4.990   2.228
   80SGML   C13 4121   3.473   0.011   2.275
   80SGML   N14 4122   3.538   0.143   2.287
   80SGML   H15 4123   3.642   0.147   2.284
   80SGML   C16 4124   3.472   0.261   2.287
   80SGML   O17 4125   3.347   0.260   2.285
   80SGML   C18 4126   3.556   0.387   2.297
   80SGML   C19 4127   3.491   0.487   2.392
   80SGML   C20 4128   3.496   0.438   2.537
   80SGML   C21 4129   3.440   0.544   2.631
   80SGML   C22 4130   3.435   0.493   2.775
   80SGML   C23 4131   3.575   0.458   2.825
   80SGML   C24 4132   3.572   0.418   2.972
   80SGML   C25 4133   3.710   0.373   3.018
   80SGML   C26 4134   3.711   0.345   3.169
   80SGML   C27 4135   3.847   0.291   3.214
   80SGML   C28 4136   3.853   0.281   3.366
   80SGML   C29 4137   3.850   0.421   3.427
   80SGML   C30 4138   3.856   0.417   3.580
   80SGML   C31 4139   3.728   0.359   3.639
   80SGML   C32 4140   3.732   0.363   3.792
   80SGML   C33 4141   3.602   0.309   3.851
   80SGML   C34 4142   3.604   0.318   4.004
   80SGML   C35 4143   3.400   5.041   2.401
   80SGML  OA36 4144   3.288   0.047   2.425
   80SGML   H37 4145   3.313   0.131   2.370
   80SGML   C38 4146   3.495   5.036   2.518
   80SGML   C39 4147   3.491   0.025   2.632
   80SGML   C40 4148   3.593   0.014   2.742
   80SGML   C41 4149   3.534   5.050   2.876
   80SGML   C42 4150   3.647   5.033   2.978
   80SGML   C43 4151   3.595   4.982   3.112
   80SGML   C44 4152   3.714   4.948   3.202
   80SGML   C45 4153   3.670   4.879   3.332
   80SGML   C46 4154   3.791   4.822   3.404
   80SGML   C47 4155   3.750   4.737   3.525
   80SGML   C48 4156   3.700   4.824   3.641
   80SGML   C49 4157   3.661   4.736   3.759
   80SGML   C50 4158   3.625   4.820   3.881
   80SGML   C51 4159   3.583   4.731   3.998
   80SGML   C52 4160   3.451   4.661   3.968
   81SGML    C1 4161   0.933   2.359   6.159
   81SGML    C2 4162   0.880   2.318   6.389
   81SGML    C3 4163   1.097   2.390   6.327
   81SGML    N4 4164   0.984   2.305   6.286
   81SGML    C5 4165   1.032   2.166   6.270
   81SGML    C6 4166   0.934   2.053   6.229
   81SGML   OS7 4167   0.994   1.925   6.204
   81SGML    P8 4168   0.964   1.822   6.319
   81SGML   OM9 4169   1.050   1.866   6.430
   81SGML  OM10 4170   0.818   1.820   6.338
   81SGML  OS11 4171   1.014   1.684   6.260
   81SGML   C12 4172   0.951   1.646   6.137
   81SGML   C13 4173   1.023   1.528   6.071
   81SGML   N14 4174   0.989   1.526   5.927
   81SGML   H15 4175   0.907   1.473   5.893
   81SGML   C16 4176   1.063   1.594   5.837
   81SGML   O17 4177   1.152   1.672   5.876
   81SGML   C18 4178   1.023   1.580   5.692
   81SGML   C19 4179   1.145   1.600   5.601
   81SGML   C20 4180   1.100   1.649   5.463
   81SGML   C21 4181   1.221   1.673   5.372
   81SGML   C22 4182   1.178   1.741   5.243
   81SGML   C23 4183   1.297   1.763   5.150
   81SGML   C24 4184   1.257   1.848   5.030
   81SGML   C25 4185   1.375   1.874   4.937
   81SGML   C26 4186   1.412   1.750   4.856
   81SGML   C27 4187   1.526   1.782   4.759
   81SGML   C28 4188   1.555   1.664   4.667
   81SGML   C29 4189   1.667   1.699   4.568
   81SGML   C30 4190   1.692   1.584   4.471
   81SGML   C31 4191   1.802   1.620   4.372
   81SGML   C32 4192   1.824   1.509   4.269
   81SGML   C33 4193   1.935   1.545   4.172
   81SGML   C34 4194   1.897   1.667   4.086
   81SGML   C35 4195   0.998   1.401   6.153
   81SGML  OA36 4196   1.047   1.420   6.287
   81SGML   H37 4197   1.032   1.520   6.302
   81SGML   C38 4198   1.061   1.279   6.093
   81SGML   C39 4199   0.995   1.170   6.051
   81SGML   C40 4200   1.056   1.046   5.992
   81SGML   C41 4201   0.994   1.006   5.858
   81SGML   C42 4202   1.055   0.874   5.810
   81SGML   C43 4203   0.987   0.824   5.683
   81SGML   C44 4204   1.024   0.909   5.561
   81SGML   C45 4205   0.950   0.857   5.437
   81SGML   C46 4206   0.988   0.934   5.311
   81SGML   C47 4207   0.906   0.884   5.192
   81SGML   C48 4208   0.940   0.959   5.064
   81SGML   C49 4209   0.848   0.916   4.950
   81SGML   C50 4210   0.877   0.993   4.821
   81SGML   C51 4211   0.778   0.954   4.711
   81SGML   C52 4212   0.807   1.030   4.581
   82SGML    C1 4213   0.935   0.389   6.367
   82SGML    C2 4214   0.935   0.196   6.227
   82SGML    C3 4215   1.133   0.329   6.254
   82SGML    N4 4216   0.987   0.333   6.241
   82SGML    C5 4217   0.955   0.418   6.124
   82SGML    C6 4218   0.808   0.439   6.082
   82SGML   OS7 4219   0.729   0.503   6.182
   82SGML    P8 4220   0.576   0.494   6.152
   82SGML   OM9 4221   0.550   0.359   6.098
   82SGML  OM10 4222   0.506   0.539   6.273
   82SGML  OS11 4223   0.567   0.606   6.043
   82SGML   C12 4224   0.452   0.592   5.960
   82SGML   C13 4225   0.398   0.723   5.904
   82SGML   N14 4226   0.261   0.692   5.855
   82SGML   H15 4227   0.230   0.595   5.860
   82SGML   C16 4228   0.171   0.787   5.820
   82SGML   O17 4229   0.208   0.905   5.808
   82SGML   C18 4230   0.032   0.740   5.781
   82SGML   C19 4231   0.011   0.748   5.630
   82SGML   C20 4232   0.088   0.636   5.561
   82SGML   C21 4233   0.055   0.626   5.412
   82SGML   C22 4234   0.123   0.731   5.325
   82SGML   C23 4235   0.099   0.693   5.179
   82SGML   C24 4236   0.186   0.772   5.081
   82SGML   C25 4237   0.172   0.710   4.942
   82SGML   C26 4238   0.266   0.775   4.842
   82SGML   C27 4239   0.255   0.706   4.705
   82SGML   C28 4240   0.351   0.769   4.604
   82SGML   C29 4241   0.342   0.697   4.470
   82SGML   C30 4242   0.443   0.755   4.371
   82SGML   C31 4243   0.441   0.679   4.239
   82SGML   C32 4244   0.548   0.732   4.144
   82SGML   C33 4245   0.551   0.652   4.013
   82SGML   C34 4246   0.663   0.702   3.922
   82SGML   C35 4247   0.500   0.786   5.806
   82SGML  OA36 4248   0.458   0.920   5.773
   82SGML   H37 4249   0.354   0.914   5.783
   82SGML   C38 4250   0.516   0.698   5.685
   82SGML   C39 4251   0.479   0.720   5.558
   82SGML   C40 4252   0.495   0.622   5.446
   82SGML   C41 4253   0.556   0.680   5.318
   82SGML   C42 4254   0.553   0.574   5.208
   82SGML   C43 4255   0.608   0.628   5.075
   82SGML   C44 4256   0.602   0.521   4.966
   82SGML   C45 4257   0.664   0.574   4.836
   82SGML   C46 4258   0.664   0.469   4.726
   82SGML   C47 4259   0.736   0.522   4.601
   82SGML   C48 4260   0.741   0.417   4.490
   82SGML   C49 4261   0.816   0.472   4.368
   82SGML   C50 4262   0.822   0.369   4.255
   82SGML   C51 4263   0.897   0.425   4.135
   82SGML   C52 4264   0.903   0.323   4.021
   83SGML    C1 4265   3.412   0.044   1.897
   83SGML    C2 4266   3.483   0.235   1.773
   83SGML    C3 4267   3.298   0.107   1.699
   83SGML    N4 4268   3.430   0.099   1.762
   83SGML    C5 4269   3.516   0.010   1.679
   83SGML    C6 4270   3.664   5.062   1.716
   83SGML   OS7 4271   3.755   0.087   1.688
   83SGML    P8 4272   3.903   0.050   1.729
   83SGML   OM9 4273   3.928   4.992   1.688
   83SGML  OM10 4274   3.986   0.160   1.679
   83SGML  OS11 4275   3.889   0.061   1.885
   83SGML   C12 4276   3.993   5.078   1.959
   83SGML   C13 4277   3.962   5.065   2.109
   83SGML   N14 4278   4.003   0.110   2.177
   83SGML   H15 4279   4.088   0.159   2.145
   83SGML   C16 4280   3.923   0.176   2.263
   83SGML   O17 4281   3.800   0.161   2.258
   83SGML   C18 4282   3.990   0.291   2.336
   83SGML   C19 4283   4.029   0.252   2.478
   83SGML   C20 4284   3.908   0.243   2.571
   83SGML   C21 4285   3.956   0.217   2.714
   83SGML   C22 4286   4.049   0.331   2.756
   83SGML   C23 4287   4.099   0.315   2.900
   83SGML   C24 4288   4.199   0.426   2.931
   83SGML   C25 4289   4.246   0.423   3.076
   83SGML   C26 4290   4.322   0.294   3.106
   83SGML   C27 4291   4.389   0.303   3.243
   83SGML   C28 4292   4.286   0.319   3.355
   83SGML   C29 4293   4.358   0.333   3.489
   83SGML   C30 4294   4.258   0.360   3.602
   83SGML   C31 4295   4.332   0.381   3.734
   83SGML   C32 4296   4.233   0.411   3.847
   83SGML   C33 4297   4.307   0.431   3.979
   83SGML   C34 4298   4.374   0.301   4.025
   83SGML   C35 4299   4.030   4.937   2.164
   83SGML  OA36 4300   4.001   4.822   2.083
   83SGML   H37 4301   3.898   4.811   2.088
   83SGML   C38 4302   3.982   4.904   2.302
   83SGML   C39 4303   4.052   4.855   2.405
   83SGML   C40 4304   3.994   4.818   2.538
   83SGML   C41 4305   4.076   4.862   2.659
   83SGML   C42 4306   4.013   4.805   2.787
   83SGML   C43 4307   4.099   4.834   2.911
   83SGML   C44 4308   4.096   4.983   2.946
   83SGML   C45 4309   4.188   5.013   3.064
   83SGML   C46 4310   4.136   4.950   3.194
   83SGML   C47 4311   4.227   4.990   3.311
   83SGML   C48 4312   4.178   4.928   3.443
   83SGML   C49 4313   4.265   4.974   3.560
   83SGML   C50 4314   4.219   4.910   3.691
   83SGML   C51 4315   4.082   4.962   3.734
   83SGML   C52 4316   4.089   0.028   3.779
   84SGML    C1 4317   3.818   0.910   1.571
   84SGML    C2 4318   3.637   0.927   1.419
   84SGML    C3 4319   3.779   1.113   1.450
   84SGML    N4 4320   3.715   1.001   1.520
   84SGML    C5 4321   3.622   1.045   1.627
   84SGML    C6 4322   3.672   1.140   1.740
   84SGML   OS7 4323   3.767   1.087   1.833
   84SGML    P8 4324   3.805   1.200   1.936
   84SGML   OM9 4325   3.873   1.307   1.862
   84SGML  OM10 4326   3.680   1.228   2.008
   84SGML  OS11 4327   3.910   1.126   2.030
   84SGML   C12 4328   3.849   1.034   2.122
   84SGML   C13 4329   3.946   0.969   2.221
   84SGML   N14 4330   3.871   0.864   2.296
   84SGML   H15 4331   3.771   0.879   2.316
   84SGML   C16 4332   3.920   0.738   2.309
   84SGML   O17 4333   4.011   0.697   2.237
   84SGML   C18 4334   3.838   0.645   2.396
   84SGML   C19 4335   3.798   0.707   2.531
   84SGML   C20 4336   3.913   0.707   2.631
   84SGML   C21 4337   3.863   0.751   2.769
   84SGML   C22 4338   3.978   0.750   2.869
   84SGML   C23 4339   3.932   0.779   3.012
   84SGML   C24 4340   4.053   0.771   3.105
   84SGML   C25 4341   4.016   0.775   3.253
   84SGML   C26 4342   4.142   0.748   3.335
   84SGML   C27 4343   4.113   0.733   3.485
   84SGML   C28 4344   4.079   0.867   3.550
   84SGML   C29 4345   4.077   0.850   3.702
   84SGML   C30 4346   4.047   0.983   3.772
   84SGML   C31 4347   4.057   0.969   3.924
   84SGML   C32 4348   3.950   0.874   3.977
   84SGML   C33 4349   3.956   0.865   4.130
   84SGML   C34 4350   3.915   0.998   4.194
   84SGML   C35 4351   4.011   1.083   2.302
   84SGML  OA36 4352   4.093   1.161   2.214
   84SGML   H37 4353   4.036   1.162   2.128
   84SGML   C38 4354   4.093   1.040   2.420
   84SGML   C39 4355   4.065   1.077   2.546
   84SGML   C40 4356   4.140   1.042   2.671
   84SGML   C41 4357   4.163   1.164   2.760
   84SGML   C42 4358   4.214   1.120   2.897
   84SGML   C43 4359   4.223   1.238   2.994
   84SGML   C44 4360   4.251   1.189   3.136
   84SGML   C45 4361   4.252   1.304   3.235
   84SGML   C46 4362   4.265   1.252   3.379
   84SGML   C47 4363   4.400   1.185   3.401
   84SGML   C48 4364   4.409   1.127   3.542
   84SGML   C49 4365   4.406   1.237   3.648
   84SGML   C50 4366   4.415   1.177   3.789
   84SGML   C51 4367   4.413   1.285   3.896
   84SGML   C52 4368   4.540   1.370   3.890
   85SGML    C1 4369   1.557   1.556   6.238
   85SGML    C2 4370   1.330   1.575   6.296
   85SGML    C3 4371   1.488   1.542   6.468
   85SGML    N4 4372   1.454   1.505   6.330
   85SGML    C5 4373   1.435   1.359   6.312
   85SGML    C6 4374   1.553   1.266   6.348
   85SGML   OS7 4375   1.552   1.138   6.284
   85SGML    P8 4376   1.694   1.069   6.292
   85SGML   OM9 4377   1.751   1.098   6.424
   85SGML  OM10 4378   1.686   0.930   6.248
   85SGML  OS11 4379   1.773   1.155   6.186
   85SGML   C12 4380   1.736   1.130   6.050
   85SGML   C13 4381   1.679   1.253   5.979
   85SGML   N14 4382   1.585   1.207   5.875
   85SGML   H15 4383   1.579   1.106   5.858
   85SGML   C16 4384   1.489   1.287   5.822
   85SGML   O17 4385   1.498   1.409   5.839
   85SGML   C18 4386   1.390   1.221   5.728
   85SGML   C19 4387   1.458   1.159   5.606
   85SGML   C20 4388   1.517   1.267   5.515
   85SGML   C21 4389   1.573   1.207   5.386
   85SGML   C22 4390   1.459   1.160   5.294
   85SGML   C23 4391   1.378   1.280   5.245
   85SGML   C24 4392   1.259   1.238   5.159
   85SGML   C25 4393   1.178   1.362   5.120
   85SGML   C26 4394   1.060   1.327   5.030
   85SGML   C27 4395   0.982   1.453   4.993
   85SGML   C28 4396   0.872   1.423   4.890
   85SGML   C29 4397   0.934   1.385   4.755
   85SGML   C30 4398   1.010   1.504   4.695
   85SGML   C31 4399   1.079   1.465   4.564
   85SGML   C32 4400   1.156   1.585   4.508
   85SGML   C33 4401   1.225   1.550   4.377
   85SGML   C34 4402   1.302   1.672   4.324
   85SGML   C35 4403   1.795   1.348   5.942
   85SGML  OA36 4404   1.743   1.469   5.885
   85SGML   H37 4405   1.644   1.445   5.864
   85SGML   C38 4406   1.889   1.279   5.847
   85SGML   C39 4407   1.936   1.324   5.730
   85SGML   C40 4408   2.028   1.249   5.638
   85SGML   C41 4409   1.963   1.235   5.500
   85SGML   C42 4410   2.045   1.145   5.408
   85SGML   C43 4411   1.969   1.126   5.276
   85SGML   C44 4412   2.036   1.021   5.188
   85SGML   C45 4413   1.955   1.003   5.059
   85SGML   C46 4414   1.817   0.946   5.090
   85SGML   C47 4415   1.734   0.932   4.962
   85SGML   C48 4416   1.703   1.070   4.903
   85SGML   C49 4417   1.626   1.058   4.772
   85SGML   C50 4418   1.604   1.197   4.710
   85SGML   C51 4419   1.502   1.278   4.789
   85SGML   C52 4420   1.361   1.223   4.767
   86SGML    C1 4421   2.093   1.083   6.362
   86SGML    C2 4422   2.217   1.283   6.413
   86SGML    C3 4423   1.984   1.290   6.382
   86SGML    N4 4424   2.107   1.226   6.335
   86SGML    C5 4425   2.116   1.249   6.188
   86SGML    C6 4426   2.250   1.233   6.114
   86SGML   OS7 4427   2.338   1.343   6.135
   86SGML    P8 4428   2.484   1.322   6.084
   86SGML   OM9 4429   2.560   1.434   6.140
   86SGML  OM10 4430   2.523   1.184   6.115
   86SGML  OS11 4431   2.464   1.338   5.928
   86SGML   C12 4432   2.446   1.473   5.884
   86SGML   C13 4433   2.477   1.499   5.736
   86SGML   N14 4434   2.444   1.641   5.714
   86SGML   H15 4435   2.351   1.675   5.744
   86SGML   C16 4436   2.539   1.736   5.692
   86SGML   O17 4437   2.651   1.726   5.744
   86SGML   C18 4438   2.484   1.870   5.647
   86SGML   C19 4439   2.556   1.917   5.520
   86SGML   C20 4440   2.502   1.848   5.396
   86SGML   C21 4441   2.586   1.881   5.273
   86SGML   C22 4442   2.514   1.840   5.144
   86SGML   C23 4443   2.480   1.690   5.144
   86SGML   C24 4444   2.405   1.652   5.016
   86SGML   C25 4445   2.498   1.654   4.895
   86SGML   C26 4446   2.419   1.634   4.766
   86SGML   C27 4447   2.333   1.758   4.740
   86SGML   C28 4448   2.255   1.747   4.610
   86SGML   C29 4449   2.177   1.876   4.586
   86SGML   C30 4450   2.103   1.874   4.453
   86SGML   C31 4451   2.034   2.009   4.431
   86SGML   C32 4452   2.140   2.119   4.420
   86SGML   C33 4453   2.077   2.257   4.406
   86SGML   C34 4454   2.185   2.365   4.400
   86SGML   C35 4455   2.395   1.401   5.648
   86SGML  OA36 4456   2.406   1.267   5.698
   86SGML   H37 4457   2.426   1.285   5.799
   86SGML   C38 4458   2.429   1.408   5.501
   86SGML   C39 4459   2.463   1.305   5.422
   86SGML   C40 4460   2.492   1.310   5.275
   86SGML   C41 4461   2.378   1.242   5.199
   86SGML   C42 4462   2.386   1.257   5.047
   86SGML   C43 4463   2.477   1.153   4.980
   86SGML   C44 4464   2.461   1.166   4.828
   86SGML   C45 4465   2.528   1.053   4.750
   86SGML   C46 4466   2.501   1.071   4.601
   86SGML   C47 4467   2.574   0.968   4.514
   86SGML   C48 4468   2.546   0.997   4.366
   86SGML   C49 4469   2.627   0.906   4.273
   86SGML   C50 4470   2.580   0.761   4.280
   86SGML   C51 4471   2.654   0.675   4.179
   86SGML   C52 4472   2.802   0.662   4.214
   87SGML    C1 4473   0.463   2.023   1.836
   87SGML    C2 4474   0.638   1.992   1.677
   87SGML    C3 4475   0.499   2.182   1.661
   87SGML    N4 4476   0.500   2.039   1.694
   87SGML    C5 4477   0.405   1.969   1.603
   87SGML    C6 4478   0.373   1.820   1.627
   87SGML   OS7 4479   0.487   1.733   1.620
   87SGML    P8 4480   0.462   1.599   1.700
   87SGML   OM9 4481   0.327   1.553   1.665
   87SGML  OM10 4482   0.585   1.521   1.680
   87SGML  OS11 4483   0.456   1.663   1.846
   87SGML   C12 4484   0.540   1.599   1.944
   87SGML   C13 4485   0.536   1.664   2.083
   87SGML   N14 4486   0.629   1.592   2.172
   87SGML   H15 4487   0.619   1.489   2.182
   87SGML   C16 4488   0.724   1.654   2.246
   87SGML   O17 4489   0.744   1.775   2.232
   87SGML   C18 4490   0.810   1.565   2.334
   87SGML   C19 4491   0.777   1.587   2.482
   87SGML   C20 4492   0.652   1.510   2.523
   87SGML   C21 4493   0.614   1.541   2.668
   87SGML   C22 4494   0.727   1.504   2.764
   87SGML   C23 4495   0.691   1.545   2.906
   87SGML   C24 4496   0.813   1.540   2.998
   87SGML   C25 4497   0.781   1.603   3.133
   87SGML   C26 4498   0.909   1.625   3.214
   87SGML   C27 4499   0.879   1.699   3.344
   87SGML   C28 4500   1.008   1.729   3.421
   87SGML   C29 4501   0.975   1.805   3.550
   87SGML   C30 4502   1.099   1.831   3.635
   87SGML   C31 4503   1.060   1.895   3.768
   87SGML   C32 4504   1.180   1.912   3.860
   87SGML   C33 4505   1.137   1.966   3.997
   87SGML   C34 4506   1.258   1.982   4.090
   87SGML   C35 4507   0.389   1.668   2.130
   87SGML  OA36 4508   0.313   1.749   2.039
   87SGML   H37 4509   0.358   1.724   1.949
   87SGML   C38 4510   0.370   1.720   2.270
   87SGML   C39 4511   0.291   1.667   2.364
   87SGML   C40 4512   0.272   1.717   2.504
   87SGML   C41 4513   0.370   1.828   2.542
   87SGML   C42 4514   0.352   1.866   2.689
   87SGML   C43 4515   0.460   1.963   2.737
   87SGML   C44 4516   0.444   1.990   2.886
   87SGML   C45 4517   0.463   1.859   2.963
   87SGML   C46 4518   0.439   1.874   3.113
   87SGML   C47 4519   0.551   1.951   3.183
   87SGML   C48 4520   0.526   1.953   3.334
   87SGML   C49 4521   0.637   2.027   3.410
   87SGML   C50 4522   0.608   2.027   3.560
   87SGML   C51 4523   0.715   2.105   3.636
   87SGML   C52 4524   0.687   2.105   3.786
   88SGML    C1 4525   4.614   2.664   1.407
   88SGML    C2 4526   4.785   2.524   1.320
   88SGML    C3 4527   4.581   2.428   1.403
   88SGML    N4 4528   4.681   2.535   1.423
   88SGML    C5 4529   4.739   2.531   1.559
   88SGML    C6 4530   4.803   2.400   1.611
   88SGML   OS7 4531   4.921   2.356   1.545
   88SGML    P8 4532   4.937   2.199   1.551
   88SGML   OM9 4533   4.803   2.144   1.531
   88SGML  OM10 4534   5.048   2.165   1.460
   88SGML  OS11 4535   4.985   2.193   1.702
   88SGML   C12 4536   4.915   2.094   1.779
   88SGML   C13 4537   4.957   2.089   1.927
   88SGML   N14 4538   4.886   1.976   1.992
   88SGML   H15 4539   4.942   1.896   2.022
   88SGML   C16 4540   4.751   1.971   2.012
   88SGML   O17 4541   4.675   2.062   1.978
   88SGML   C18 4542   4.703   1.845   2.079
   88SGML   C19 4543   4.625   1.878   2.207
   88SGML   C20 4544   4.719   1.917   2.321
   88SGML   C21 4545   4.639   1.925   2.452
   88SGML   C22 4546   4.730   1.941   2.573
   88SGML   C23 4547   4.649   1.931   2.702
   88SGML   C24 4548   4.737   1.939   2.826
   88SGML   C25 4549   4.650   1.928   2.952
   88SGML   C26 4550   4.731   1.948   3.080
   88SGML   C27 4551   4.637   1.947   3.200
   88SGML   C28 4552   4.707   1.992   3.329
   88SGML   C29 4553   4.810   1.890   3.377
   88SGML   C30 4554   4.866   1.935   3.512
   88SGML   C31 4555   4.963   1.834   3.573
   88SGML   C32 4556   5.006   1.881   3.712
   88SGML   C33 4557   5.098   1.779   3.780
   88SGML   C34 4558   5.235   1.775   3.713
   88SGML   C35 4559   4.947   2.228   1.994
   88SGML  OA36 4560   5.028   2.321   1.920
   88SGML   H37 4561   5.019   2.281   1.824
   88SGML   C38 4562   4.992   2.226   2.137
   88SGML   C39 4563   4.927   2.281   2.240
   88SGML   C40 4564   4.971   2.280   2.383
   88SGML   C41 4565   5.008   2.420   2.432
   88SGML   C42 4566   5.041   2.418   2.581
   88SGML   C43 4567   4.915   2.387   2.661
   88SGML   C44 4568   4.945   2.376   2.811
   88SGML   C45 4569   4.816   2.340   2.886
   88SGML   C46 4570   4.843   2.313   3.034
   88SGML   C47 4571   4.882   2.440   3.110
   88SGML   C48 4572   4.902   2.409   3.258
   88SGML   C49 4573   5.026   2.322   3.279
   88SGML   C50 4574   5.042   2.284   3.427
   88SGML   C51 4575   5.062   2.409   3.513
   88SGML   C52 4576   5.084   2.371   3.659
   89SGML    C1 4577   3.689   0.845   6.628
   89SGML    C2 4578   3.573   0.804   6.426
   89SGML    C3 4579   3.792   0.901   6.422
   89SGML    N4 4580   3.664   0.898   6.493
   89SGML    C5 4581   3.602   1.032   6.507
   89SGML    C6 4582   3.550   1.107   6.382
   89SGML   OS7 4583   3.474   1.224   6.415
   89SGML    P8 4584   3.359   1.252   6.311
   89SGML   OM9 4585   3.333   1.134   6.226
   89SGML  OM10 4586   3.249   1.322   6.378
   89SGML  OS11 4587   3.434   1.358   6.221
   89SGML   C12 4588   3.376   1.373   6.091
   89SGML   C13 4589   3.474   1.420   5.984
   89SGML   N14 4590   3.399   1.429   5.857
   89SGML   H15 4591   3.325   1.361   5.840
   89SGML   C16 4592   3.404   1.540   5.779
   89SGML   O17 4593   3.447   1.648   5.822
   89SGML   C18 4594   3.340   1.525   5.642
   89SGML   C19 4595   3.412   1.611   5.538
   89SGML   C20 4596   3.350   1.587   5.401
   89SGML   C21 4597   3.421   1.669   5.293
   89SGML   C22 4598   3.364   1.633   5.156
   89SGML   C23 4599   3.436   1.706   5.044
   89SGML   C24 4600   3.386   1.655   4.909
   89SGML   C25 4601   3.459   1.720   4.792
   89SGML   C26 4602   3.420   1.651   4.662
   89SGML   C27 4603   3.493   1.709   4.542
   89SGML   C28 4604   3.460   1.628   4.417
   89SGML   C29 4605   3.523   1.689   4.292
   89SGML   C30 4606   3.487   1.605   4.170
   89SGML   C31 4607   3.534   1.670   4.041
   89SGML   C32 4608   3.492   1.586   3.920
   89SGML   C33 4609   3.528   1.658   3.791
   89SGML   C34 4610   3.446   1.787   3.778
   89SGML   C35 4611   3.594   1.323   5.983
   89SGML  OA36 4612   3.662   1.330   6.109
   89SGML   H37 4613   3.584   1.348   6.175
   89SGML   C38 4614   3.697   1.350   5.877
   89SGML   C39 4615   3.729   1.269   5.775
   89SGML   C40 4616   3.836   1.299   5.675
   89SGML   C41 4617   3.780   1.346   5.541
   89SGML   C42 4618   3.699   1.238   5.470
   89SGML   C43 4619   3.648   1.293   5.337
   89SGML   C44 4620   3.766   1.323   5.244
   89SGML   C45 4621   3.719   1.392   5.116
   89SGML   C46 4622   3.835   1.408   5.018
   89SGML   C47 4623   3.787   1.475   4.889
   89SGML   C48 4624   3.892   1.461   4.779
   89SGML   C49 4625   3.838   1.519   4.648
   89SGML   C50 4626   3.929   1.486   4.530
   89SGML   C51 4627   3.921   1.337   4.496
   89SGML   C52 4628   3.783   1.300   4.442
   90SGML    C1 4629   1.978   0.791   5.565
   90SGML    C2 4630   1.797   0.678   5.673
   90SGML    C3 4631   1.767   0.898   5.589
   90SGML    N4 4632   1.863   0.808   5.654
   90SGML    C5 4633   1.902   0.869   5.783
   90SGML    C6 4634   2.001   0.796   5.876
   90SGML   OS7 4635   2.067   0.886   5.965
   90SGML    P8 4636   2.189   0.819   6.037
   90SGML   OM9 4637   2.241   0.913   6.137
   90SGML  OM10 4638   2.156   0.681   6.074
   90SGML  OS11 4639   2.286   0.812   5.910
   90SGML   C12 4640   2.362   0.930   5.879
   90SGML   C13 4641   2.445   0.912   5.751
   90SGML   N14 4642   2.527   1.033   5.729
   90SGML   H15 4643   2.480   1.123   5.708
   90SGML   C16 4644   2.661   1.033   5.743
   90SGML   O17 4645   2.719   0.946   5.808
   90SGML   C18 4646   2.731   1.157   5.692
   90SGML   C19 4647   2.850   1.119   5.603
   90SGML   C20 4648   2.806   1.072   5.465
   90SGML   C21 4649   2.931   1.044   5.380
   90SGML   C22 4650   2.895   1.004   5.237
   90SGML   C23 4651   3.024   0.978   5.158
   90SGML   C24 4652   2.994   0.934   5.015
   90SGML   C25 4653   2.932   1.049   4.935
   90SGML   C26 4654   2.901   1.006   4.791
   90SGML   C27 4655   3.027   0.986   4.707
   90SGML   C28 4656   2.987   0.959   4.562
   90SGML   C29 4657   3.108   0.947   4.470
   90SGML   C30 4658   3.062   0.931   4.325
   90SGML   C31 4659   3.180   0.911   4.230
   90SGML   C32 4660   3.132   0.900   4.085
   90SGML   C33 4661   3.075   1.034   4.037
   90SGML   C34 4662   3.029   1.024   3.891
   90SGML   C35 4663   2.350   0.882   5.633
   90SGML  OA36 4664   2.274   0.763   5.662
   90SGML   H37 4665   2.271   0.767   5.766
   90SGML   C38 4666   2.424   0.872   5.502
   90SGML   C39 4667   2.416   0.779   5.405
   90SGML   C40 4668   2.497   0.780   5.279
   90SGML   C41 4669   2.414   0.802   5.153
   90SGML   C42 4670   2.311   0.691   5.135
   90SGML   C43 4671   2.233   0.707   5.005
   90SGML   C44 4672   2.317   0.671   4.883
   90SGML   C45 4673   2.230   0.664   4.757
   90SGML   C46 4674   2.308   0.610   4.638
   90SGML   C47 4675   2.214   0.579   4.521
   90SGML   C48 4676   2.165   0.707   4.453
   90SGML   C49 4677   2.054   0.676   4.353
   90SGML   C50 4678   2.104   0.590   4.237
   90SGML   C51 4679   1.989   0.559   4.139
   90SGML   C52 4680   1.940   0.686   4.070
   91SGML    C1 4681   0.231   4.934   1.082
   91SGML    C2 4682   0.105   5.042   1.252
   91SGML    C3 4683   0.289   0.074   1.146
   91SGML    N4 4684   0.240   5.025   1.197
   91SGML    C5 4685   0.332   4.964   1.297
   91SGML    C6 4686   0.378   5.047   1.420
   91SGML   OS7 4687   0.457   4.974   1.513
   91SGML    P8 4688   0.570   5.066   1.572
   91SGML   OM9 4689   0.667   0.005   1.464
   91SGML  OM10 4690   0.504   0.099   1.639
   91SGML  OS11 4691   0.631   4.964   1.677
   91SGML   C12 4692   0.598   4.998   1.812
   91SGML   C13 4693   0.628   4.891   1.917
   91SGML   N14 4694   0.568   4.941   2.042
   91SGML   H15 4695   0.554   5.042   2.054
   91SGML   C16 4696   0.495   4.860   2.124
   91SGML   O17 4697   0.478   4.741   2.094
   91SGML   C18 4698   0.426   4.929   2.241
   91SGML   C19 4699   0.511   4.926   2.369
   91SGML   C20 4700   0.525   4.782   2.420
   91SGML   C21 4701   0.609   4.775   2.547
   91SGML   C22 4702   0.527   4.799   2.674
   91SGML   C23 4703   0.614   4.769   2.796
   91SGML   C24 4704   0.534   4.773   2.926
   91SGML   C25 4705   0.625   4.735   3.043
   91SGML   C26 4706   0.549   4.734   3.176
   91SGML   C27 4707   0.642   4.691   3.289
   91SGML   C28 4708   0.571   4.692   3.425
   91SGML   C29 4709   0.536   4.835   3.466
   91SGML   C30 4710   0.472   4.837   3.605
   91SGML   C31 4711   0.573   4.798   3.713
   91SGML   C32 4712   0.508   4.798   3.851
   91SGML   C33 4713   0.610   4.759   3.959
   91SGML   C34 4714   0.545   4.757   4.098
   91SGML   C35 4715   0.778   4.853   1.910
   91SGML  OA36 4716   0.807   4.795   1.781
   91SGML   H37 4717   0.755   4.855   1.717
   91SGML   C38 4718   0.820   4.760   2.019
   91SGML   C39 4719   0.922   4.778   2.104
   91SGML   C40 4720   0.958   4.687   2.217
   91SGML   C41 4721   0.853   4.577   2.231
   91SGML   C42 4722   0.851   4.514   2.370
   91SGML   C43 4723   0.743   4.406   2.375
   91SGML   C44 4724   0.677   4.399   2.512
   91SGML   C45 4725   0.770   4.350   2.623
   91SGML   C46 4726   0.692   4.352   2.755
   91SGML   C47 4727   0.771   4.297   2.873
   91SGML   C48 4728   0.684   4.308   2.999
   91SGML   C49 4729   0.754   4.251   3.122
   91SGML   C50 4730   0.662   4.267   3.244
   91SGML   C51 4731   0.726   4.210   3.370
   91SGML   C52 4732   0.634   4.231   3.491
   92SGML    C1 4733   1.615   4.620   2.008
   92SGML    C2 4734   1.686   4.846   1.979
   92SGML    C3 4735   1.576   4.733   1.801
   92SGML    N4 4736   1.671   4.716   1.912
   92SGML    C5 4737   1.799   4.666   1.854
   92SGML    C6 4738   1.925   4.646   1.942
   92SGML   OS7 4739   1.980   4.767   1.992
   92SGML    P8 4740   2.120   4.749   2.059
   92SGML   OM9 4741   2.194   4.645   1.986
   92SGML  OM10 4742   2.175   4.885   2.065
   92SGML  OS11 4743   2.085   4.693   2.203
   92SGML   C12 4744   2.035   4.786   2.298
   92SGML   C13 4745   1.882   4.784   2.307
   92SGML   N14 4746   1.832   4.907   2.374
   92SGML   H15 4747   1.900   4.978   2.402
   92SGML   C16 4748   1.701   4.943   2.374
   92SGML   O17 4749   1.616   4.868   2.322
   92SGML   C18 4750   1.666   5.071   2.447
   92SGML   C19 4751   1.555   5.048   2.550
   92SGML   C20 4752   1.609   4.965   2.667
   92SGML   C21 4753   1.500   4.938   2.772
   92SGML   C22 4754   1.557   4.851   2.884
   92SGML   C23 4755   1.449   4.818   2.988
   92SGML   C24 4756   1.506   4.725   3.095
   92SGML   C25 4757   1.546   4.590   3.034
   92SGML   C26 4758   1.594   4.493   3.141
   92SGML   C27 4759   1.479   4.452   3.233
   92SGML   C28 4760   1.522   4.345   3.334
   92SGML   C29 4761   1.405   4.309   3.425
   92SGML   C30 4762   1.442   4.199   3.524
   92SGML   C31 4763   1.326   4.173   3.621
   92SGML   C32 4764   1.362   4.062   3.721
   92SGML   C33 4765   1.250   4.044   3.824
   92SGML   C34 4766   1.240   4.165   3.917
   92SGML   C35 4767   1.838   4.644   2.355
   92SGML  OA36 4768   1.697   4.628   2.332
   92SGML   H37 4769   1.661   4.726   2.333
   92SGML   C38 4770   1.878   4.613   2.496
   92SGML   C39 4771   1.797   4.597   2.602
   92SGML   C40 4772   1.838   4.563   2.742
   92SGML   C41 4773   1.979   4.503   2.748
   92SGML   C42 4774   2.020   4.472   2.892
   92SGML   C43 4775   1.936   4.359   2.952
   92SGML   C44 4776   1.973   4.335   3.098
   92SGML   C45 4777   1.890   4.221   3.157
   92SGML   C46 4778   1.922   4.198   3.305
   92SGML   C47 4779   1.846   4.076   3.357
   92SGML   C48 4780   1.879   4.044   3.503
   92SGML   C49 4781   1.819   4.147   3.598
   92SGML   C50 4782   1.844   4.108   3.744
   92SGML   C51 4783   1.773   4.205   3.839
   92SGML   C52 4784   1.833   4.346   3.828
   93SGML    C1 4785   4.927   1.848   6.471
   93SGML    C2 4786   4.885   1.829   6.238
   93SGML    C3 4787   4.718   1.920   6.384
   93SGML    N4 4788   4.823   1.818   6.371
   93SGML    C5 4789   4.774   1.681   6.395
   93SGML    C6 4790   4.668   1.615   6.303
   93SGML   OS7 4791   4.650   1.476   6.330
   93SGML    P8 4792   4.534   1.416   6.242
   93SGML   OM9 4793   4.419   1.404   6.333
   93SGML  OM10 4794   4.520   1.487   6.115
   93SGML  OS11 4795   4.584   1.268   6.221
   93SGML   C12 4796   4.676   1.243   6.114
   93SGML   C13 4797   4.664   1.099   6.063
   93SGML   N14 4798   4.774   1.069   5.967
   93SGML   H15 4799   4.835   1.147   5.937
   93SGML   C16 4800   4.807   0.945   5.925
   93SGML   O17 4801   4.749   0.846   5.972
   93SGML   C18 4802   4.916   0.938   5.819
   93SGML   C19 4803   4.856   0.920   5.679
   93SGML   C20 4804   4.962   0.943   5.571
   93SGML   C21 4805   4.900   0.934   5.431
   93SGML   C22 4806   5.003   0.964   5.322
   93SGML   C23 4807   4.933   0.970   5.185
   93SGML   C24 4808   5.028   1.002   5.070
   93SGML   C25 4809   4.949   1.017   4.940
   93SGML   C26 4810   5.039   1.045   4.819
   93SGML   C27 4811   5.126   0.924   4.787
   93SGML   C28 4812   5.206   0.945   4.658
   93SGML   C29 4813   5.114   0.941   4.535
   93SGML   C30 4814   5.195   0.958   4.406
   93SGML   C31 4815   5.104   0.951   4.284
   93SGML   C32 4816   5.184   0.970   4.155
   93SGML   C33 4817   0.001   0.852   4.131
   93SGML   C34 4818   0.080   0.871   4.002
   93SGML   C35 4819   4.520   1.077   6.012
   93SGML  OA36 4820   4.496   0.937   5.997
   93SGML   H37 4821   4.588   0.897   5.977
   93SGML   C38 4822   4.493   1.151   5.883
   93SGML   C39 4823   4.414   1.257   5.868
   93SGML   C40 4824   4.386   1.331   5.740
   93SGML   C41 4825   4.237   1.360   5.722
   93SGML   C42 4826   4.210   1.423   5.586
   93SGML   C43 4827   4.231   1.319   5.476
   93SGML   C44 4828   4.212   1.378   5.337
   93SGML   C45 4829   4.237   1.269   5.231
   93SGML   C46 4830   4.236   1.329   5.090
   93SGML   C47 4831   4.261   1.220   4.986
   93SGML   C48 4832   4.271   1.280   4.846
   93SGML   C49 4833   4.292   1.171   4.742
   93SGML   C50 4834   4.309   1.232   4.603
   93SGML   C51 4835   4.322   1.123   4.496
   93SGML   C52 4836   4.189   1.048   4.481
   94SGML    C1 4837   3.941   0.041   6.533
   94SGML    C2 4838   4.017   0.105   6.315
   94SGML    C3 4839   4.173   0.046   6.484
   94SGML    N4 4840   4.045   0.114   6.459
   94SGML    C5 4841   4.057   0.254   6.503
   94SGML    C6 4842   3.932   0.345   6.499
   94SGML   OS7 4843   3.887   0.381   6.369
   94SGML    P8 4844   3.752   0.459   6.382
   94SGML   OM9 4845   3.651   0.355   6.404
   94SGML  OM10 4846   3.773   0.565   6.482
   94SGML  OS11 4847   3.737   0.525   6.238
   94SGML   C12 4848   3.683   0.434   6.142
   94SGML   C13 4849   3.629   0.501   6.016
   94SGML   N14 4850   3.568   0.396   5.931
   94SGML   H15 4851   3.619   0.307   5.918
   94SGML   C16 4852   3.441   0.405   5.887
   94SGML   O17 4853   3.365   0.489   5.937
   94SGML   C18 4854   3.397   0.300   5.787
   94SGML   C19 4855   3.372   0.362   5.650
   94SGML   C20 4856   3.344   0.253   5.546
   94SGML   C21 4857   3.322   0.311   5.406
   94SGML   C22 4858   3.295   0.197   5.308
   94SGML   C23 4859   3.277   0.246   5.164
   94SGML   C24 4860   3.250   0.125   5.074
   94SGML   C25 4861   3.370   0.030   5.079
   94SGML   C26 4862   3.340   4.977   5.011
   94SGML   C27 4863   3.459   4.882   5.026
   94SGML   C28 4864   3.425   4.743   4.972
   94SGML   C29 4865   3.403   4.746   4.821
   94SGML   C30 4866   3.371   4.606   4.768
   94SGML   C31 4867   3.350   4.610   4.617
   94SGML   C32 4868   3.481   4.645   4.546
   94SGML   C33 4869   3.461   4.652   4.394
   94SGML   C34 4870   3.427   4.514   4.338
   94SGML   C35 4871   3.743   0.581   5.949
   94SGML  OA36 4872   3.792   0.678   6.043
   94SGML   H37 4873   3.777   0.628   6.133
   94SGML   C38 4874   3.702   0.646   5.820
   94SGML   C39 4875   3.758   0.620   5.702
   94SGML   C40 4876   3.719   0.678   5.569
   94SGML   C41 4877   3.829   0.758   5.500
   94SGML   C42 4878   3.783   0.790   5.358
   94SGML   C43 4879   3.884   0.872   5.278
   94SGML   C44 4880   3.833   0.882   5.134
   94SGML   C45 4881   3.921   0.970   5.045
   94SGML   C46 4882   3.864   0.969   4.902
   94SGML   C47 4883   3.721   1.023   4.903
   94SGML   C48 4884   3.654   1.011   4.766
   94SGML   C49 4885   3.509   1.058   4.774
   94SGML   C50 4886   3.501   1.209   4.794
   94SGML   C51 4887   3.357   1.255   4.819
   94SGML   C52 4888   3.308   1.210   4.957
   95SGML    C1 4889   2.391   0.757   2.284
   95SGML    C2 4890   2.275   0.695   2.087
   95SGML    C3 4891   2.247   0.566   2.281
   95SGML    N4 4892   2.345   0.643   2.204
   95SGML    C5 4893   2.458   0.561   2.153
   95SGML    C6 4894   2.536   0.466   2.247
   95SGML   OS7 4895   2.462   0.350   2.284
   95SGML    P8 4896   2.527   0.269   2.402
   95SGML   OM9 4897   2.631   0.191   2.333
   95SGML  OM10 4898   2.564   0.372   2.502
   95SGML  OS11 4899   2.399   0.185   2.440
   95SGML   C12 4900   2.298   0.256   2.511
   95SGML   C13 4901   2.157   0.225   2.461
   95SGML   N14 4902   2.065   0.332   2.510
   95SGML   H15 4903   2.105   0.411   2.560
   95SGML   C16 4904   1.933   0.340   2.480
   95SGML   O17 4905   1.881   0.262   2.399
   95SGML   C18 4906   1.855   0.444   2.558
   95SGML   C19 4907   1.747   0.375   2.642
   95SGML   C20 4908   1.736   0.439   2.780
   95SGML   C21 4909   1.860   0.411   2.865
   95SGML   C22 4910   1.842   0.472   3.004
   95SGML   C23 4911   1.967   0.455   3.092
   95SGML   C24 4912   1.990   0.309   3.132
   95SGML   C25 4913   2.093   0.302   3.245
   95SGML   C26 4914   2.036   0.370   3.370
   95SGML   C27 4915   2.136   0.379   3.485
   95SGML   C28 4916   2.166   0.241   3.545
   95SGML   C29 4917   2.261   0.256   3.664
   95SGML   C30 4918   2.301   0.119   3.719
   95SGML   C31 4919   2.401   0.134   3.834
   95SGML   C32 4920   2.451   5.078   3.880
   95SGML   C33 4921   2.533   5.010   3.770
   95SGML   C34 4922   2.588   4.876   3.818
   95SGML   C35 4923   2.123   0.078   2.494
   95SGML  OA36 4924   2.007   0.039   2.417
   95SGML   H37 4925   1.952   0.128   2.411
   95SGML   C38 4926   2.103   0.060   2.642
   95SGML   C39 4927   1.996   0.010   2.707
   95SGML   C40 4928   1.982   5.080   2.855
   95SGML   C41 4929   1.969   4.936   2.907
   95SGML   C42 4930   1.953   4.939   3.059
   95SGML   C43 4931   1.956   4.800   3.122
   95SGML   C44 4932   1.950   4.814   3.274
   95SGML   C45 4933   1.972   4.681   3.347
   95SGML   C46 4934   1.975   4.704   3.498
   95SGML   C47 4935   2.089   4.800   3.533
   95SGML   C48 4936   2.098   4.828   3.684
   95SGML   C49 4937   2.148   4.705   3.761
   95SGML   C50 4938   2.179   4.741   3.906
   95SGML   C51 4939   2.053   4.772   3.987
   95SGML   C52 4940   1.974   4.646   4.017
   96SGML    C1 4941   0.995   1.316   1.670
   96SGML    C2 4942   0.777   1.218   1.698
   96SGML    C3 4943   0.847   1.393   1.840
   96SGML    N4 4944   0.894   1.274   1.768
   96SGML    C5 4945   0.949   1.178   1.868
   96SGML    C6 4946   1.022   1.048   1.823
   96SGML   OS7 4947   0.944   0.946   1.759
   96SGML    P8 4948   1.026   0.814   1.733
   96SGML   OM9 4949   0.939   0.734   1.645
   96SGML  OM10 4950   1.159   0.860   1.691
   96SGML  OS11 4951   1.034   0.762   1.882
   96SGML   C12 4952   0.924   0.684   1.932
   96SGML   C13 4953   0.953   0.625   2.071
   96SGML   N14 4954   0.835   0.545   2.112
   96SGML   H15 4955   0.741   0.582   2.094
   96SGML   C16 4956   0.844   0.415   2.149
   96SGML   O17 4957   0.939   0.345   2.109
   96SGML   C18 4958   0.718   0.353   2.207
   96SGML   C19 4959   0.745   0.281   2.339
   96SGML   C20 4960   0.761   0.382   2.453
   96SGML   C21 4961   0.800   0.314   2.585
   96SGML   C22 4962   0.806   0.419   2.696
   96SGML   C23 4963   0.864   0.366   2.827
   96SGML   C24 4964   0.867   0.480   2.929
   96SGML   C25 4965   0.929   0.439   3.063
   96SGML   C26 4966   0.918   0.556   3.162
   96SGML   C27 4967   0.975   0.522   3.300
   96SGML   C28 4968   1.128   0.512   3.295
   96SGML   C29 4969   1.185   0.486   3.435
   96SGML   C30 4970   1.146   0.347   3.485
   96SGML   C31 4971   1.205   0.319   3.623
   96SGML   C32 4972   1.165   0.179   3.671
   96SGML   C33 4973   1.232   0.073   3.584
   96SGML   C34 4974   1.191   5.013   3.628
   96SGML   C35 4975   0.994   0.739   2.169
   96SGML  OA36 4976   1.103   0.815   2.115
   96SGML   H37 4977   1.088   0.799   2.013
   96SGML   C38 4978   1.035   0.690   2.305
   96SGML   C39 4979   0.993   0.739   2.422
   96SGML   C40 4980   1.037   0.690   2.556
   96SGML   C41 4981   1.112   0.796   2.637
   96SGML   C42 4982   1.156   0.738   2.771
   96SGML   C43 4983   1.232   0.841   2.855
   96SGML   C44 4984   1.274   0.781   2.989
   96SGML   C45 4985   1.340   0.887   3.078
   96SGML   C46 4986   1.375   0.831   3.215
   96SGML   C47 4987   1.424   0.942   3.308
   96SGML   C48 4988   1.455   0.888   3.448
   96SGML   C49 4989   1.580   0.800   3.445
   96SGML   C50 4990   1.609   0.741   3.583
   96SGML   C51 4991   1.737   0.658   3.579
   96SGML   C52 4992   1.720   0.541   3.482
   97SGML    C1 4993   0.158   1.304   6.041
   97SGML    C2 4994   0.247   1.085   6.060
   97SGML    C3 4995   0.022   1.110   5.993
   97SGML    N4 4996   0.127   1.166   6.080
   97SGML    C5 4997   0.092   1.156   6.223
   97SGML    C6 4998   5.236   1.214   6.272
   97SGML   OS7 4999   5.219   1.355   6.261
   97SGML    P8 5000   5.067   1.396   6.256
   97SGML   OM9 5001   4.990   1.291   6.324
   97SGML  OM10 5002   5.064   1.535   6.305
   97SGML  OS11 5003   5.050   1.384   6.098
   97SGML   C12 5004   5.049   1.506   6.021
   97SGML   C13 5005   5.047   1.484   5.868
   97SGML   N14 5006   5.031   1.616   5.802
   97SGML   H15 5007   4.955   1.679   5.833
   97SGML   C16 5008   5.114   1.664   5.706
   97SGML   O17 5009   5.229   1.620   5.690
   97SGML   C18 5010   5.065   1.792   5.639
   97SGML   C19 5011   5.011   1.768   5.497
   97SGML   C20 5012   5.123   1.769   5.392
   97SGML   C21 5013   5.180   1.911   5.380
   97SGML   C22 5014   0.008   1.920   5.271
   97SGML   C23 5015   5.225   1.908   5.132
   97SGML   C24 5016   0.053   1.931   5.024
   97SGML   C25 5017   5.272   1.921   4.884
   97SGML   C26 5018   0.102   1.946   4.779
   97SGML   C27 5019   0.051   1.923   4.637
   97SGML   C28 5020   0.165   1.943   4.538
   97SGML   C29 5021   0.125   1.903   4.396
   97SGML   C30 5022   0.245   1.919   4.302
   97SGML   C31 5023   0.213   1.874   4.160
   97SGML   C32 5024   0.335   1.892   4.070
   97SGML   C33 5025   0.448   1.798   4.113
   97SGML   C34 5026   0.571   1.817   4.025
   97SGML   C35 5027   4.932   1.386   5.831
   97SGML  OA36 5028   4.945   1.264   5.906
   97SGML   H37 5029   4.990   1.299   5.993
   97SGML   C38 5030   4.925   1.353   5.685
   97SGML   C39 5031   4.825   1.387   5.602
   97SGML   C40 5032   4.816   1.355   5.456
   97SGML   C41 5033   4.679   1.300   5.415
   97SGML   C42 5034   4.678   1.271   5.265
   97SGML   C43 5035   4.703   1.399   5.185
   97SGML   C44 5036   4.718   1.370   5.036
   97SGML   C45 5037   4.754   1.498   4.960
   97SGML   C46 5038   4.781   1.470   4.812
   97SGML   C47 5039   4.655   1.425   4.740
   97SGML   C48 5040   4.682   1.395   4.593
   97SGML   C49 5041   4.770   1.271   4.576
   97SGML   C50 5042   4.792   1.239   4.428
   97SGML   C51 5043   4.874   1.348   4.360
   97SGML   C52 5044   4.893   1.318   4.211
   98SGML    C1 5045   0.037   0.270   6.221
   98SGML    C2 5046   0.271   0.311   6.235
   98SGML    C3 5047   0.155   0.216   6.419
   98SGML    N4 5048   0.145   0.314   6.310
   98SGML    C5 5049   0.116   0.447   6.369
   98SGML    C6 5050   0.109   0.572   6.279
   98SGML   OS7 5051   0.025   0.675   6.331
   98SGML    P8 5052   5.268   0.783   6.222
   98SGML   OM9 5053   5.177   0.883   6.278
   98SGML  OM10 5054   0.118   0.825   6.166
   98SGML  OS11 5055   5.196   0.694   6.112
   98SGML   C12 5056   5.056   0.666   6.129
   98SGML   C13 5057   4.998   0.593   6.006
   98SGML   N14 5058   4.851   0.593   6.021
   98SGML   H15 5059   4.802   0.680   5.998
   98SGML   C16 5060   4.775   0.496   6.080
   98SGML   O17 5061   4.823   0.412   6.157
   98SGML   C18 5062   4.624   0.512   6.062
   98SGML   C19 5063   4.570   0.417   5.955
   98SGML   C20 5064   4.592   0.472   5.814
   98SGML   C21 5065   4.556   0.369   5.707
   98SGML   C22 5066   4.569   0.427   5.567
   98SGML   C23 5067   4.553   0.318   5.461
   98SGML   C24 5068   4.563   0.374   5.319
   98SGML   C25 5069   4.552   0.262   5.215
   98SGML   C26 5070   4.554   0.318   5.072
   98SGML   C27 5071   4.543   0.205   4.970
   98SGML   C28 5072   4.544   0.260   4.827
   98SGML   C29 5073   4.544   0.146   4.725
   98SGML   C30 5074   4.557   0.199   4.582
   98SGML   C31 5075   4.424   0.255   4.529
   98SGML   C32 5076   4.330   0.142   4.487
   98SGML   C33 5077   4.382   0.071   4.362
   98SGML   C34 5078   4.286   5.041   4.317
   98SGML   C35 5079   5.074   0.461   5.976
   98SGML  OA36 5080   5.215   0.477   5.990
   98SGML   H37 5081   5.220   0.571   6.037
   98SGML   C38 5082   5.046   0.406   5.839
   98SGML   C39 5083   4.976   0.463   5.740
   98SGML   C40 5084   4.954   0.402   5.605
   98SGML   C41 5085   4.980   0.498   5.489
   98SGML   C42 5086   4.962   0.425   5.356
   98SGML   C43 5087   4.994   0.515   5.236
   98SGML   C44 5088   4.990   0.433   5.107
   98SGML   C45 5089   5.043   0.513   4.988
   98SGML   C46 5090   5.055   0.423   4.865
   98SGML   C47 5091   5.125   0.494   4.750
   98SGML   C48 5092   5.149   0.398   4.633
   98SGML   C49 5093   5.225   0.466   4.520
   98SGML   C50 5094   5.252   0.368   4.405
   98SGML   C51 5095   0.048   0.436   4.291
   98SGML   C52 5096   0.074   0.339   4.176
   99SGML    C1 5097   3.014   0.271   2.312
   99SGML    C2 5098   3.117   0.372   2.504
   99SGML    C3 5099   2.883   0.379   2.478
   99SGML    N4 5100   3.010   0.385   2.404
   99SGML    C5 5101   3.016   0.515   2.333
   99SGML    C6 5102   3.143   0.549   2.251
   99SGML   OS7 5103   3.143   0.679   2.193
   99SGML    P8 5104   3.277   0.713   2.118
   99SGML   OM9 5105   3.341   0.590   2.069
   99SGML  OM10 5106   3.246   0.823   2.026
   99SGML  OS11 5107   3.364   0.772   2.237
   99SGML   C12 5108   3.307   0.894   2.288
   99SGML   C13 5109   3.376   0.957   2.408
   99SGML   N14 5110   3.280   1.060   2.459
   99SGML   H15 5111   3.209   1.025   2.523
   99SGML   C16 5112   3.264   1.183   2.404
   99SGML   O17 5113   3.305   1.209   2.290
   99SGML   C18 5114   3.168   1.277   2.476
   99SGML   C19 5115   3.152   1.245   2.625
   99SGML   C20 5116   3.260   1.305   2.715
   99SGML   C21 5117   3.229   1.267   2.860
   99SGML   C22 5118   3.323   1.332   2.962
   99SGML   C23 5119   3.287   1.280   3.102
   99SGML   C24 5120   3.362   1.354   3.213
   99SGML   C25 5121   3.325   1.295   3.349
   99SGML   C26 5122   3.385   1.376   3.464
   99SGML   C27 5123   3.357   1.310   3.599
   99SGML   C28 5124   3.209   1.314   3.637
   99SGML   C29 5125   3.165   1.455   3.678
   99SGML   C30 5126   3.018   1.456   3.722
   99SGML   C31 5127   2.974   1.596   3.764
   99SGML   C32 5128   2.969   1.691   3.644
   99SGML   C33 5129   2.921   1.830   3.685
   99SGML   C34 5130   2.915   1.924   3.563
   99SGML   C35 5131   3.522   0.995   2.376
   99SGML  OA36 5132   3.593   0.883   2.322
   99SGML   H37 5133   3.517   0.823   2.286
   99SGML   C38 5134   3.592   1.050   2.497
   99SGML   C39 5135   3.647   1.172   2.505
   99SGML   C40 5136   3.715   1.236   2.623
   99SGML   C41 5137   3.699   1.159   2.754
   99SGML   C42 5138   3.766   1.236   2.867
   99SGML   C43 5139   3.747   1.170   3.004
   99SGML   C44 5140   3.812   1.255   3.113
   99SGML   C45 5141   3.788   1.199   3.253
   99SGML   C46 5142   3.848   1.292   3.358
   99SGML   C47 5143   3.814   1.248   3.500
   99SGML   C48 5144   3.867   1.348   3.603
   99SGML   C49 5145   3.828   1.307   3.745
   99SGML   C50 5146   3.883   1.405   3.848
   99SGML   C51 5147   3.850   1.360   3.991
   99SGML   C52 5148   3.906   1.459   4.093
  100SGML    C1 5149   3.080   1.094   2.069
  100SGML    C2 5150   2.942   0.914   1.992
  100SGML    C3 5151   2.883   1.142   1.947
  100SGML    N4 5152   2.941   1.051   2.047
  100SGML    C5 5153   2.860   1.062   2.171
  100SGML    C6 5154   2.887   0.967   2.290
  100SGML   OS7 5155   2.780   0.958   2.384
  100SGML    P8 5156   2.747   0.809   2.420
  100SGML   OM9 5157   2.631   0.811   2.511
  100SGML  OM10 5158   2.735   0.742   2.290
  100SGML  OS11 5159   2.881   0.772   2.497
  100SGML   C12 5160   2.862   0.739   2.635
  100SGML   C13 5161   2.993   0.715   2.712
  100SGML   N14 5162   2.952   0.656   2.842
  100SGML   H15 5163   2.873   0.700   2.892
  100SGML   C16 5164   2.993   0.535   2.885
  100SGML   O17 5165   3.062   0.461   2.813
  100SGML   C18 5166   2.932   0.489   3.017
  100SGML   C19 5167   3.015   0.383   3.088
  100SGML   C20 5168   3.130   0.442   3.170
  100SGML   C21 5169   3.207   0.331   3.242
  100SGML   C22 5170   3.307   0.386   3.343
  100SGML   C23 5171   3.384   0.272   3.410
  100SGML   C24 5172   3.291   0.180   3.490
  100SGML   C25 5173   3.368   0.062   3.549
  100SGML   C26 5174   3.273   5.039   3.612
  100SGML   C27 5175   3.217   0.003   3.747
  100SGML   C28 5176   3.324   5.073   3.856
  100SGML   C29 5177   3.265   0.016   3.996
  100SGML   C30 5178   3.373   5.078   4.103
  100SGML   C31 5179   3.316   0.012   4.244
  100SGML   C32 5180   3.426   5.075   4.349
  100SGML   C33 5181   3.371   0.013   4.491
  100SGML   C34 5182   3.483   5.080   4.595
  100SGML   C35 5183   3.073   0.847   2.719
  100SGML  OA36 5184   3.085   0.907   2.590
  100SGML   H37 5185   3.007   0.864   2.538
  100SGML   C38 5186   3.209   0.828   2.779
  100SGML   C39 5187   3.259   0.890   2.886
  100SGML   C40 5188   3.396   0.871   2.944
  100SGML   C41 5189   3.392   0.837   3.093
  100SGML   C42 5190   3.534   0.820   3.148
  100SGML   C43 5191   3.532   0.798   3.300
  100SGML   C44 5192   3.480   0.923   3.371
  100SGML   C45 5193   3.479   0.905   3.523
  100SGML   C46 5194   3.621   0.901   3.579
  100SGML   C47 5195   3.620   0.887   3.731
  100SGML   C48 5196   3.558   1.012   3.797
  100SGML   C49 5197   3.565   1.002   3.949
  100SGML   C50 5198   3.502   1.124   4.016
  100SGML   C51 5199   3.514   1.114   4.169
  100SGML   C52 5200   3.442   1.229   4.238
  101SOL     OW 5201   2.193   2.401   1.629
  101SOL    HW1 5202   2.220   2.424   1.723
  101SOL    HW2 5203   2.172   2.303   1.623
  102SOL     OW 5204   3.515   1.104   0.226
  102SOL    HW1 5205   3.558   1.131   0.140
  102SOL    HW2 5206   3.573   1.132   0.303
  103SOL     OW 5207   2.720   2.886   7.311
  103SOL    HW1 5208   2.812   2.915   7.285
  103SOL    HW2 5209   2.669   2.859   7.229
  104SOL     OW 5210   4.450   3.321   6.233
  104SOL    HW1 5211   4.457   3.318   6.133
  104SOL    HW2 5212   4.492   3.239   6.272
  105SOL     OW 5213   2.738   0.817   7.976
  105SOL    HW1 5214   2.674   0.741   7.970
  105SOL    HW2 5215   2.781   0.832   7.887
  106SOL     OW 5216   3.750   2.608   8.129
  106SOL    HW1 5217   3.715   2.534   8.072
  106SOL    HW2 5218   3.726   2.696   8.089
  107SOL     OW 5219   2.642   4.615   0.263
  107SOL    HW1 5220   2.728   4.605   0.313
  107SOL    HW2 5221   2.644   4.700   0.210
  108SOL     OW 5222   3.641   3.521   7.353
  108SOL    HW1 5223   3.553   3.527   7.305
  108SOL    HW2 5224   3.631   3.460   7.433
  109SOL     OW 5225   1.909   3.320   7.174
  109SOL    HW1 5226   1.910   3.366   7.085
  109SOL    HW2 5227   1.845   3.367   7.235
  110SOL     OW 5228   2.120   1.440   2.022
  110SOL    HW1 5229   2.062   1.369   2.063
  110SOL    HW2 5230   2.128   1.517   2.085
  111SOL     OW 5231   1.287   0.220   0.563
  111SOL    HW1 5232   1.249   0.154   0.628
  111SOL    HW2 5233   1.319   0.172   0.481
  112SOL     OW 5234   2.777   2.005   7.911
  112SOL    HW1 5235   2.692   2.050   7.937
  112SOL    HW2 5236   2.828   2.064   7.848
  113SOL     OW 5237   5.099   4.486   0.602
  113SOL    HW1 5238   5.009   4.520   0.572
  113SOL    HW2 5239   5.155   4.564   0.629
  114SOL     OW 5240   2.497   4.898   7.636
  114SOL    HW1 5241   2.508   4.810   7.681
  114SOL    HW2 5242   2.406   4.934   7.654
  115SOL     OW 5243   0.284   3.996   0.156
  115SOL    HW1 5244   0.189   3.995   0.184
  115SOL    HW2 5245   0.337   3.931   0.210
  116SOL     OW 5246   0.898   1.062   0.821
  116SOL    HW1 5247   0.929   1.112   0.902
  116SOL    HW2 5248   0.828   1.116   0.774
  117SOL     OW 5249   3.504   0.625   7.612
  117SOL    HW1 5250   3.442   0.635   7.534
  117SOL    HW2 5251   3.598   0.643   7.583
  118SOL     OW 5252   1.011   1.031   7.844
  118SOL    HW1 5253   0.972   0.984   7.924
  118SOL    HW2 5254   1.088   0.978   7.808
  119SOL     OW 5255   3.159   1.289   1.065
  119SOL    HW1 5256   3.161   1.209   1.124
  119SOL    HW2 5257   3.078   1.284   1.006
  120SOL     OW 5258   1.032   4.579   5.735
  120SOL    HW1 5259   1.117   4.621   5.703
  120SOL    HW2 5260   0.967   4.650   5.761
  121SOL     OW 5261   3.935   0.781   7.266
  121SOL    HW1 5262   3.873   0.810   7.194
  121SOL    HW2 5263   3.914   0.830   7.351
  122SOL     OW 5264   0.720   2.936   1.079
  122SOL    HW1 5265   0.681   2.926   1.170
  122SOL    HW2 5266   0.707   2.851   1.028
  123SOL     OW 5267   4.372   3.772   7.254
  123SOL    HW1 5268   4.315   3.690   7.257
  123SOL    HW2 5269   4.350   3.831   7.331
  124SOL     OW 5270   1.279   1.529   0.287
  124SOL    HW1 5271   1.300   1.584   0.207
  124SOL    HW2 5272   1.272   1.433   0.261
  125SOL     OW 5273   0.022   3.945   0.222
  125SOL    HW1 5274   5.235   3.885   0.176
  125SOL    HW2 5275   0.013   3.935   0.321
  126SOL     OW 5276   3.761   1.899   6.656
  126SOL    HW1 5277   3.839   1.941   6.610
  126SOL    HW2 5278   3.686   1.965   6.660
  127SOL     OW 5279   2.368   3.386   1.425
  127SOL    HW1 5280   2.399   3.440   1.346
  127SOL    HW2 5281   2.318   3.445   1.489
  128SOL     OW 5282   3.182   3.827   0.270
  128SOL    HW1 5283   3.126   3.808   0.350
  128SOL    HW2 5284   3.245   3.752   0.253
  129SOL     OW 5285   3.536   1.187   1.121
  129SOL    HW1 5286   3.481   1.174   1.203
  129SOL    HW2 5287   3.510   1.118   1.053
  130SOL     OW 5288   3.883   2.382   7.597
  130SOL    HW1 5289   3.791   2.343   7.588
  130SOL    HW2 5290   3.888   2.467   7.544
  131SOL     OW 5291   3.842   2.445   7.252
  131SOL    HW1 5292   3.850   2.517   7.321
  131SOL    HW2 5293   3.775   2.472   7.183
  132SOL     OW 5294   1.403   1.630   5.945
  132SOL    HW1 5295   1.309   1.647   5.918
  132SOL    HW2 5296   1.436   1.547   5.900
  133SOL     OW 5297   2.006   2.895   0.842
  133SOL    HW1 5298   2.088   2.905   0.899
  133SOL    HW2 5299   2.005   2.803   0.802
  134SOL     OW 5300   0.064   0.694   2.120
  134SOL    HW1 5301   0.060   0.792   2.140
  134SOL    HW2 5302   5.253   0.663   2.086
  135SOL     OW 5303   1.554   4.291   6.633
  135SOL    HW1 5304   1.563   4.219   6.564
  135SOL    HW2 5305   1.585   4.378   6.594
  136SOL     OW 5306   2.170   3.296   8.021
  136SOL    HW1 5307   2.232   3.250   8.086
  136SOL    HW2 5308   2.214   3.299   7.931
  137SOL     OW 5309   1.398   2.491   1.194
  137SOL    HW1 5310   1.400   2.584   1.230
  137SOL    HW2 5311   1.308   2.450   1.210
  138SOL     OW 5312   5.046   2.006   6.026
  138SOL    HW1 5313   5.002   2.066   6.093
  138SOL    HW2 5314   4.996   2.012   5.939
  139SOL     OW 5315   1.922   3.591   0.302
  139SOL    HW1 5316   1.839   3.607   0.249
  139SOL    HW2 5317   1.992   3.550   0.243
  140SOL     OW 5318   0.612   3.516   7.175
  140SOL    HW1 5319   0.550   3.504   7.097
  140SOL    HW2 5320   0.671   3.595   7.159
  141SOL     OW 5321   2.359   5.009   1.439
  141SOL    HW1 5322   2.385   5.044   1.349
  141SOL    HW2 5323   2.390   5.072   1.510
  142SOL     OW 5324   4.156   2.915   1.556
  142SOL    HW1 5325   4.125   2.832   1.603
  142SOL    HW2 5326   4.250   2.936   1.583
  143SOL     OW 5327   3.409   2.094   0.485
  143SOL    HW1 5328   3.455   2.177   0.452
  143SOL    HW2 5329   3.364   2.048   0.408
  144SOL     OW 5330   0.938   1.328   0.541
  144SOL    HW1 5331   1.012   1.391   0.516
  144SOL    HW2 5332   0.939   1.251   0.477
  145SOL     OW 5333   0.850   0.571   0.518
  145SOL    HW1 5334   0.945   0.585   0.549
  145SOL    HW2 5335   0.795   0.650   0.545
  146SOL     OW 5336   0.938   2.640   0.873
  146SOL    HW1 5337   0.963   2.657   0.969
  146SOL    HW2 5338   0.943   2.541   0.855
  147SOL     OW 5339   5.240   0.242   0.631
  147SOL    HW1 5340   0.050   0.202   0.607
  147SOL    HW2 5341   5.178   0.169   0.661
  148SOL     OW 5342   5.048   3.236   0.995
  148SOL    HW1 5343   5.070   3.291   1.076
  148SOL    HW2 5344   5.045   3.139   1.021
  149SOL     OW 5345   4.795   3.214   0.859
  149SOL    HW1 5346   4.797   3.131   0.803
  149SOL    HW2 5347   4.885   3.227   0.902
  150SOL     OW 5348   1.451   4.343   7.294
  150SOL    HW1 5349   1.535   4.318   7.343
  150SOL    HW2 5350   1.379   4.363   7.359
  151SOL     OW 5351   2.737   0.280   7.513
  151SOL    HW1 5352   2.742   0.361   7.455
  151SOL    HW2 5353   2.648   0.276   7.558
  152SOL     OW 5354   4.979   4.223   0.018
  152SOL    HW1 5355   4.941   4.256   0.105
  152SOL    HW2 5356   4.927   4.143   8.132
  153SOL     OW 5357   3.650   0.580   0.954
  153SOL    HW1 5358   3.748   0.559   0.957
  153SOL    HW2 5359   3.637   0.672   0.919
  154SOL     OW 5360   1.505   3.296   7.243
  154SOL    HW1 5361   1.498   3.197   7.255
  154SOL    HW2 5362   1.425   3.340   7.285
  155SOL     OW 5363   5.014   2.517   0.139
  155SOL    HW1 5364   4.928   2.520   0.190
  155SOL    HW2 5365   5.080   2.460   0.188
  156SOL     OW 5366   1.270   2.187   7.457
  156SOL    HW1 5367   1.211   2.251   7.506
  156SOL    HW2 5368   1.357   2.180   7.505
  157SOL     OW 5369   3.628   3.781   1.211
  157SOL    HW1 5370   3.720   3.794   1.248
  157SOL    HW2 5371   3.624   3.817   1.118
  158SOL     OW 5372   3.242   3.559   1.376
  158SOL    HW1 5373   3.246   3.500   1.295
  158SOL    HW2 5374   3.148   3.588   1.391
  159SOL     OW 5375   1.024   1.181   1.040
  159SOL    HW1 5376   1.119   1.174   1.009
  159SOL    HW2 5377   1.018   1.151   1.135
  160SOL     OW 5378   2.918   5.076   1.113
  160SOL    HW1 5379   2.906   0.014   1.016
  160SOL    HW2 5380   2.841   5.022   1.147
  161SOL     OW 5381   4.930   2.545   8.019
  161SOL    HW1 5382   4.959   2.522   8.112
  161SOL    HW2 5383   4.990   2.499   7.953
  162SOL     OW 5384   0.030   2.001   5.957
  162SOL    HW1 5385   5.220   1.993   6.004
  162SOL    HW2 5386   0.015   2.040   5.866
  163SOL     OW 5387   3.962   3.620   7.198
  163SOL    HW1 5388   3.986   3.710   7.163
  163SOL    HW2 5389   3.863   3.612   7.207
  164SOL     OW 5390   1.515   3.209   0.098
  164SOL    HW1 5391   1.551   3.259   0.178
  164SOL    HW2 5392   1.520   3.111   0.115
  165SOL     OW 5393   0.163   0.065   6.780
  165SOL    HW1 5394   0.117   0.151   6.758
  165SOL    HW2 5395   0.117   5.070   6.733
  166SOL     OW 5396   4.903   3.715   2.188
  166SOL    HW1 5397   4.805   3.698   2.197
  166SOL    HW2 5398   4.951   3.628   2.178
  167SOL     OW 5399   1.480   1.760   6.962
  167SOL    HW1 5400   1.428   1.832   7.008
  167SOL    HW2 5401   1.577   1.786   6.960
  168SOL     OW 5402   3.449   0.304   0.043
  168SOL    HW1 5403   3.440   0.306   0.142
  168SOL    HW2 5404   3.452   0.209   0.012
  169SOL     OW 5405   0.598   4.814   7.600
  169SOL    HW1 5406   0.571   4.731   7.553
  169SOL    HW2 5407   0.673   4.794   7.663
  170SOL     OW 5408   4.443   2.586   0.384
  170SOL    HW1 5409   4.355   2.559   0.343
  170SOL    HW2 5410   4.491   2.647   0.321
  171SOL     OW 5411   1.632   2.702   0.461
  171SOL    HW1 5412   1.630   2.677   0.364
  171SOL    HW2 5413   1.720   2.744   0.482
  172SOL     OW 5414   4.335   4.275   1.089
  172SOL    HW1 5415   4.300   4.199   1.035
  172SOL    HW2 5416   4.369   4.240   1.177
  173SOL     OW 5417   2.369   4.056   0.447
  173SOL    HW1 5418   2.406   4.140   0.487
  173SOL    HW2 5419   2.348   3.991   0.520
  174SOL     OW 5420   1.358   0.681   6.482
  174SOL    HW1 5421   1.449   0.646   6.503
  174SOL    HW2 5422   1.344   0.767   6.531
  175SOL     OW 5423   1.234   0.522   0.845
  175SOL    HW1 5424   1.244   0.621   0.833
  175SOL    HW2 5425   1.312   0.475   0.806
  176SOL     OW 5426   0.500   0.087   6.138
  176SOL    HW1 5427   0.519   0.183   6.115
  176SOL    HW2 5428   0.459   0.041   6.060
  177SOL     OW 5429   0.170   1.116   6.828
  177SOL    HW1 5430   0.126   1.037   6.871
  177SOL    HW2 5431   0.269   1.101   6.824
  178SOL     OW 5432   1.316   0.415   7.949
  178SOL    HW1 5433   1.228   0.369   7.959
  178SOL    HW2 5434   1.365   0.412   8.035
  179SOL     OW 5435   2.712   0.242   0.227
  179SOL    HW1 5436   2.628   0.191   0.248
  179SOL    HW2 5437   2.742   0.220   0.135
  180SOL     OW 5438   2.843   3.123   6.627
  180SOL    HW1 5439   2.899   3.080   6.556
  180SOL    HW2 5440   2.840   3.064   6.708
  181SOL     OW 5441   5.093   4.483   0.241
  181SOL    HW1 5442   5.092   4.548   0.164
  181SOL    HW2 5443   5.187   4.452   0.256
  182SOL     OW 5444   3.283   4.049   1.314
  182SOL    HW1 5445   3.189   4.076   1.293
  182SOL    HW2 5446   3.299   3.956   1.278
  183SOL     OW 5447   2.267   0.492   7.506
  183SOL    HW1 5448   2.315   0.580   7.510
  183SOL    HW2 5449   2.207   0.483   7.585
  184SOL     OW 5450   3.407   0.995   7.791
  184SOL    HW1 5451   3.397   0.896   7.803
  184SOL    HW2 5452   3.387   1.019   7.696
  185SOL     OW 5453   2.001   0.945   7.695
  185SOL    HW1 5454   1.904   0.960   7.717
  185SOL    HW2 5455   2.047   1.034   7.691
  186SOL     OW 5456   3.022   0.883   6.900
  186SOL    HW1 5457   2.939   0.851   6.854
  186SOL    HW2 5458   3.036   0.980   6.880
  187SOL     OW 5459   4.597   4.386   8.126
  187SOL    HW1 5460   4.610   4.290   0.004
  187SOL    HW2 5461   4.543   4.394   8.042
  188SOL     OW 5462   0.164   3.177   7.660
  188SOL    HW1 5463   0.127   3.225   7.580
  188SOL    HW2 5464   0.127   3.218   7.743
  189SOL     OW 5465   1.785   4.064   1.057
  189SOL    HW1 5466   1.810   4.116   1.139
  189SOL    HW2 5467   1.751   4.127   0.987
  190SOL     OW 5468   2.379   0.711   7.220
  190SOL    HW1 5469   2.383   0.718   7.319
  190SOL    HW2 5470   2.307   0.771   7.186
  191SOL     OW 5471   1.331   1.760   1.614
  191SOL    HW1 5472   1.275   1.704   1.676
  191SOL    HW2 5473   1.293   1.755   1.522
  192SOL     OW 5474   3.889   3.862   2.306
  192SOL    HW1 5475   3.850   3.951   2.287
  192SOL    HW2 5476   3.986   3.861   2.279
  193SOL     OW 5477   2.658   4.676   6.885
  193SOL    HW1 5478   2.705   4.666   6.972
  193SOL    HW2 5479   2.704   4.746   6.830
  194SOL     OW 5480   2.087   0.123   1.226
  194SOL    HW1 5481   2.034   0.101   1.309
  194SOL    HW2 5482   2.116   0.038   1.182
  195SOL     OW 5483   3.534   2.332   0.419
  195SOL    HW1 5484   3.633   2.324   0.407
  195SOL    HW2 5485   3.496   2.391   0.348
  196SOL     OW 5486   3.169   3.834   7.407
  196SOL    HW1 5487   3.258   3.834   7.452
  196SOL    HW2 5488   3.179   3.800   7.314
  197SOL     OW 5489   3.933   1.286   6.432
  197SOL    HW1 5490   3.914   1.260   6.527
  197SOL    HW2 5491   3.979   1.211   6.385
  198SOL     OW 5492   4.008   3.370   6.699
  198SOL    HW1 5493   3.981   3.352   6.604
  198SOL    HW2 5494   4.106   3.390   6.702
  199SOL     OW 5495   4.082   1.421   0.424
  199SOL    HW1 5496   3.983   1.432   0.427
  199SOL    HW2 5497   4.108   1.340   0.476
  200SOL     OW 5498   1.097   2.714   6.689
  200SOL    HW1 5499   1.009   2.679   6.657
  200SOL    HW2 5500   1.116   2.678   6.780
  201SOL     OW 5501   4.882   0.722   1.017
  201SOL    HW1 5502   4.921   0.657   0.952
  201SOL    HW2 5503   4.954   0.751   1.081
  202SOL     OW 5504   2.017   1.880   7.674
  202SOL    HW1 5505   2.031   1.970   7.716
  202SOL    HW2 5506   2.103   1.831   7.670
  203SOL     OW 5507   3.985   2.287   6.507
  203SOL    HW1 5508   3.926   2.341   6.447
  203SOL    HW2 5509   4.061   2.345   6.539
  204SOL     OW 5510   5.261   4.399   7.855
  204SOL    HW1 5511   0.017   4.458   7.927
  204SOL    HW2 5512   0.051   4.390   7.783
  205SOL     OW 5513   3.833   0.246   1.040
  205SOL    HW1 5514   3.840   0.320   0.973
  205SOL    HW2 5515   3.922   0.229   1.082
  206SOL     OW 5516   4.185   0.569   2.087
  206SOL    HW1 5517   4.125   0.613   2.154
  206SOL    HW2 5518   4.223   0.637   2.025
  207SOL     OW 5519   0.596   4.689   7.234
  207SOL    HW1 5520   0.565   4.664   7.326
  207SOL    HW2 5521   0.543   4.639   7.166
  208SOL     OW 5522   3.168   1.098   0.533
  208SOL    HW1 5523   3.159   1.009   0.487
  208SOL    HW2 5524   3.252   1.099   0.587
  209SOL     OW 5525   4.929   1.325   7.931
  209SOL    HW1 5526   4.836   1.314   7.965
  209SOL    HW2 5527   4.948   1.255   7.862
  210SOL     OW 5528   0.348   4.045   7.140
  210SOL    HW1 5529   0.330   4.137   7.174
  210SOL    HW2 5530   0.444   4.038   7.112
  211SOL     OW 5531   4.734   4.781   6.518
  211SOL    HW1 5532   4.794   4.806   6.442
  211SOL    HW2 5533   4.655   4.842   6.520
  212SOL     OW 5534   4.514   1.380   1.631
  212SOL    HW1 5535   4.453   1.342   1.700
  212SOL    HW2 5536   4.567   1.455   1.671
  213SOL     OW 5537   0.860   3.525   1.221
  213SOL    HW1 5538   0.879   3.439   1.173
  213SOL    HW2 5539   0.904   3.524   1.311
  214SOL     OW 5540   4.879   4.318   0.259
  214SOL    HW1 5541   4.904   4.247   0.324
  214SOL    HW2 5542   4.948   4.391   0.260
  215SOL     OW 5543   4.282   1.445   7.790
  215SOL    HW1 5544   4.250   1.520   7.848
  215SOL    HW2 5545   4.224   1.439   7.708
  216SOL     OW 5546   4.636   3.708   7.195
  216SOL    HW1 5547   4.540   3.729   7.213
  216SOL    HW2 5548   4.687   3.712   7.281
  217SOL     OW 5549   2.634   4.994   2.297
  217SOL    HW1 5550   2.665   4.948   2.380
  217SOL    HW2 5551   2.628   0.012   2.313
  218SOL     OW 5552   0.124   4.900   8.100
  218SOL    HW1 5553   0.027   4.875   8.104
  218SOL    HW2 5554   0.169   4.870   0.040
  219SOL     OW 5555   0.752   2.648   5.965
  219SOL    HW1 5556   0.653   2.654   5.979
  219SOL    HW2 5557   0.770   2.599   5.879
  220SOL     OW 5558   1.558   4.202   0.417
  220SOL    HW1 5559   1.531   4.187   0.322
  220SOL    HW2 5560   1.525   4.291   0.447
  221SOL     OW 5561   1.477   2.237   0.102
  221SOL    HW1 5562   1.427   2.316   0.066
  221SOL    HW2 5563   1.482   2.244   0.202
  222SOL     OW 5564   3.919   1.824   7.605
  222SOL    HW1 5565   3.879   1.892   7.543
  222SOL    HW2 5566   3.947   1.868   7.690
  223SOL     OW 5567   2.112   4.230   0.576
  223SOL    HW1 5568   2.117   4.147   0.633
  223SOL    HW2 5569   2.016   4.252   0.559
  224SOL     OW 5570   0.004   3.652   7.191
  224SOL    HW1 5571   0.036   3.558   7.185
  224SOL    HW2 5572   0.080   3.712   7.214
  225SOL     OW 5573   5.208   3.722   7.620
  225SOL    HW1 5574   5.220   3.731   7.719
  225SOL    HW2 5575   5.223   3.811   7.577
  226SOL     OW 5576   3.708   4.753   7.334
  226SOL    HW1 5577   3.677   4.831   7.279
  226SOL    HW2 5578   3.637   4.682   7.333
  227SOL     OW 5579   4.160   3.548   7.553
  227SOL    HW1 5580   4.113   3.627   7.594
  227SOL    HW2 5581   4.244   3.529   7.605
  228SOL     OW 5582   1.568   2.949   0.151
  228SOL    HW1 5583   1.627   2.971   0.228
  228SOL    HW2 5584   1.502   2.879   0.179
  229SOL     OW 5585   1.272   4.470   1.991
  229SOL    HW1 5586   1.292   4.431   2.081
  229SOL    HW2 5587   1.180   4.442   1.962
  230SOL     OW 5588   1.062   3.886   1.265
  230SOL    HW1 5589   1.003   3.939   1.205
  230SOL    HW2 5590   1.091   3.803   1.218
  231SOL     OW 5591   3.558   0.652   8.030
  231SOL    HW1 5592   3.483   0.692   7.977
  231SOL    HW2 5593   3.582   0.563   7.991
  232SOL     OW 5594   4.975   0.285   1.117
  232SOL    HW1 5595   4.900   0.294   1.182
  232SOL    HW2 5596   5.005   0.376   1.089
  233SOL     OW 5597   3.941   0.794   6.892
  233SOL    HW1 5598   3.872   0.818   6.960
  233SOL    HW2 5599   4.030   0.785   6.936
  234SOL     OW 5600   3.641   2.849   8.033
  234SOL    HW1 5601   3.625   2.900   8.118
  234SOL    HW2 5602   3.673   2.911   7.962
  235SOL     OW 5603   4.898   0.369   7.467
  235SOL    HW1 5604   4.854   0.301   7.409
  235SOL    HW2 5605   4.995   0.347   7.477
  236SOL     OW 5606   4.663   2.871   7.282
  236SOL    HW1 5607   4.744   2.917   7.246
  236SOL    HW2 5608   4.682   2.774   7.293
  237SOL     OW 5609   5.130   3.781   0.084
  237SOL    HW1 5610   5.059   3.798   0.016
  237SOL    HW2 5611   5.153   3.684   0.084
  238SOL     OW 5612   3.375   5.033   1.099
  238SOL    HW1 5613   3.420   4.971   1.034
  238SOL    HW2 5614   3.374   4.990   1.189
  239SOL     OW 5615   0.561   2.137   0.842
  239SOL    HW1 5616   0.468   2.105   0.824
  239SOL    HW2 5617   0.587   2.203   0.772
  240SOL     OW 5618   1.475   1.111   0.212
  240SOL    HW1 5619   1.507   1.053   0.287
  240SOL    HW2 5620   1.524   1.198   0.214
  241SOL     OW 5621   3.408   3.523   5.705
  241SOL    HW1 5622   3.412   3.620   5.682
  241SOL    HW2 5623   3.333   3.506   5.769
  242SOL     OW 5624   4.963   4.201   6.741
  242SOL    HW1 5625   5.019   4.122   6.763
  242SOL    HW2 5626   4.894   4.175   6.674
  243SOL     OW 5627   3.096   1.783   0.020
  243SOL    HW1 5628   3.131   1.704   8.116
  243SOL    HW2 5629   3.103   1.769   0.118
  244SOL     OW 5630   0.257   0.784   0.492
  244SOL    HW1 5631   0.333   0.722   0.475
  244SOL    HW2 5632   0.287   0.858   0.553
  245SOL     OW 5633   4.933   1.085   0.265
  245SOL    HW1 5634   4.834   1.076   0.268
  245SOL    HW2 5635   4.957   1.182   0.252
  246SOL     OW 5636   1.710   1.970   6.752
  246SOL    HW1 5637   1.792   2.026   6.738
  246SOL    HW2 5638   1.712   1.930   6.843
  247SOL     OW 5639   1.057   0.719   6.288
  247SOL    HW1 5640   1.078   0.677   6.376
  247SOL    HW2 5641   1.122   0.689   6.219
  248SOL     OW 5642   1.952   1.227   2.095
  248SOL    HW1 5643   1.854   1.243   2.105
  248SOL    HW2 5644   1.981   1.156   2.160
  249SOL     OW 5645   3.389   2.642   7.449
  249SOL    HW1 5646   3.393   2.584   7.369
  249SOL    HW2 5647   3.355   2.589   7.527
  250SOL     OW 5648   1.387   0.463   6.897
  250SOL    HW1 5649   1.415   0.535   6.834
  250SOL    HW2 5650   1.438   0.471   6.982
  251SOL     OW 5651   2.455   1.023   1.442
  251SOL    HW1 5652   2.373   0.990   1.489
  251SOL    HW2 5653   2.534   1.014   1.503
  252SOL     OW 5654   5.101   0.957   7.278
  252SOL    HW1 5655   5.097   0.868   7.323
  252SOL    HW2 5656   5.033   1.018   7.320
  253SOL     OW 5657   4.875   3.629   1.738
  253SOL    HW1 5658   4.826   3.561   1.682
  253SOL    HW2 5659   4.826   3.716   1.735
  254SOL     OW 5660   3.032   3.727   0.487
  254SOL    HW1 5661   3.072   3.727   0.579
  254SOL    HW2 5662   3.036   3.635   0.449
  255SOL     OW 5663   2.163   4.953   8.013
  255SOL    HW1 5664   2.131   4.922   7.923
  255SOL    HW2 5665   2.263   4.955   8.013
  256SOL     OW 5666   0.629   0.413   0.080
  256SOL    HW1 5667   0.580   0.408   8.138
  256SOL    HW2 5668   0.578   0.470   0.144
  257SOL     OW 5669   3.203   2.912   7.111
  257SOL    HW1 5670   3.220   2.999   7.066
  257SOL    HW2 5671   3.263   2.903   7.191
  258SOL     OW 5672   2.266   2.319   7.831
  258SOL    HW1 5673   2.183   2.370   7.807
  258SOL    HW2 5674   2.260   2.291   7.927
  259SOL     OW 5675   1.642   0.133   0.378
  259SOL    HW1 5676   1.542   0.129   0.373
  259SOL    HW2 5677   1.672   0.229   0.370
  260SOL     OW 5678   2.022   0.174   6.826
  260SOL    HW1 5679   2.073   0.255   6.796
  260SOL    HW2 5680   2.030   0.103   6.756
  261SOL     OW 5681   0.578   1.007   0.505
  261SOL    HW1 5682   0.500   0.997   0.567
  261SOL    HW2 5683   0.545   1.008   0.411
  262SOL     OW 5684   4.076   2.561   8.010
  262SOL    HW1 5685   3.995   2.532   7.959
  262SOL    HW2 5686   4.070   2.659   8.031
  263SOL     OW 5687   1.838   0.542   7.697
  263SOL    HW1 5688   1.919   0.485   7.710
  263SOL    HW2 5689   1.761   0.485   7.667
  264SOL     OW 5690   3.713   1.452   0.030
  264SOL    HW1 5691   3.625   1.472   0.073
  264SOL    HW2 5692   3.786   1.498   0.080
  265SOL     OW 5693   0.016   3.127   8.102
  265SOL    HW1 5694   0.069   3.044   8.122
  265SOL    HW2 5695   5.230   3.145   0.031
  266SOL     OW 5696   1.095   0.501   1.086
  266SOL    HW1 5697   1.052   0.591   1.097
  266SOL    HW2 5698   1.150   0.500   1.003
  267SOL     OW 5699   0.253   4.621   2.041
  267SOL    HW1 5700   0.338   4.667   2.067
  267SOL    HW2 5701   0.258   4.524   2.067
  268SOL     OW 5702   2.193   2.451   1.268
  268SOL    HW1 5703   2.235   2.515   1.332
  268SOL    HW2 5704   2.097   2.437   1.292
  269SOL     OW 5705   4.701   0.960   7.750
  269SOL    HW1 5706   4.735   0.944   7.657
  269SOL    HW2 5707   4.604   0.982   7.746
  270SOL     OW 5708   0.356   2.483   7.741
  270SOL    HW1 5709   0.353   2.487   7.841
  270SOL    HW2 5710   0.287   2.544   7.703
  271SOL     OW 5711   3.214   3.483   5.894
  271SOL    HW1 5712   3.222   3.425   5.975
  271SOL    HW2 5713   3.118   3.489   5.866
  272SOL     OW 5714   2.294   2.372   6.890
  272SOL    HW1 5715   2.195   2.359   6.896
  272SOL    HW2 5716   2.338   2.333   6.971
  273SOL     OW 5717   3.426   3.833   7.506
  273SOL    HW1 5718   3.501   3.823   7.441
  273SOL    HW2 5719   3.429   3.925   7.546
  274SOL     OW 5720   1.980   4.377   6.856
  274SOL    HW1 5721   1.900   4.392   6.914
  274SOL    HW2 5722   2.027   4.464   6.841
  275SOL     OW 5723   2.373   2.614   6.766
  275SOL    HW1 5724   2.361   2.525   6.810
  275SOL    HW2 5725   2.284   2.653   6.746
  276SOL     OW 5726   1.147   1.080   2.129
  276SOL    HW1 5727   1.189   1.118   2.211
  276SOL    HW2 5728   1.128   0.983   2.142
  277SOL     OW 5729   3.070   1.524   6.820
  277SOL    HW1 5730   3.078   1.458   6.745
  277SOL    HW2 5731   3.144   1.590   6.814
  278SOL     OW 5732   0.523   1.304   0.286
  278SOL    HW1 5733   0.606   1.340   0.327
  278SOL    HW2 5734   0.536   1.294   0.187
  279SOL     OW 5735   2.379   4.673   6.914
  279SOL    HW1 5736   2.477   4.659   6.902
  279SOL    HW2 5737   2.358   4.685   7.011
  280SOL     OW 5738   2.214   2.404   2.145
  280SOL    HW1 5739   2.119   2.375   2.158
  280SOL    HW2 5740   2.275   2.329   2.167
  281SOL     OW 5741   1.591   4.051   0.652
  281SOL    HW1 5742   1.586   4.105   0.568
  281SOL    HW2 5743   1.587   4.111   0.731
  282SOL     OW 5744   4.985   3.885   0.299
  282SOL    HW1 5745   4.893   3.847   0.306
  282SOL    HW2 5746   5.035   3.839   0.226
  283SOL     OW 5747   0.802   1.646   1.561
  283SOL    HW1 5748   0.725   1.599   1.604
  283SOL    HW2 5749   0.838   1.590   1.486
  284SOL     OW 5750   4.004   1.116   7.340
  284SOL    HW1 5751   4.016   1.097   7.242
  284SOL    HW2 5752   4.093   1.128   7.383
  285SOL     OW 5753   1.363   3.711   6.611
  285SOL    HW1 5754   1.320   3.623   6.628
  285SOL    HW2 5755   1.383   3.756   6.698
  286SOL     OW 5756   3.936   0.516   0.073
  286SOL    HW1 5757   3.857   0.455   0.061
  286SOL    HW2 5758   3.906   0.611   0.070
  287SOL     OW 5759   1.291   1.850   6.567
  287SOL    HW1 5760   1.291   1.781   6.639
  287SOL    HW2 5761   1.202   1.849   6.520
  288SOL     OW 5762   4.069   3.110   0.848
  288SOL    HW1 5763   4.096   3.116   0.752
  288SOL    HW2 5764   4.139   3.154   0.905
  289SOL     OW 5765   0.139   4.125   0.635
  289SOL    HW1 5766   0.129   4.084   0.726
  289SOL    HW2 5767   0.232   4.163   0.627
  290SOL     OW 5768   1.250   3.880   6.200
  290SOL    HW1 5769   1.217   3.973   6.186
  290SOL    HW2 5770   1.176   3.815   6.185
  291SOL     OW 5771   1.621   4.609   6.877
  291SOL    HW1 5772   1.670   4.540   6.930
  291SOL    HW2 5773   1.528   4.617   6.912
  292SOL     OW 5774   4.113   4.416   1.171
  292SOL    HW1 5775   4.195   4.375   1.132
  292SOL    HW2 5776   4.126   4.433   1.268
  293SOL     OW 5777   1.884   2.212   0.995
  293SOL    HW1 5778   1.895   2.308   0.968
  293SOL    HW2 5779   1.949   2.156   0.945
  294SOL     OW 5780   2.999   2.416   6.655
  294SOL    HW1 5781   3.053   2.477   6.713
  294SOL    HW2 5782   3.014   2.439   6.559
  295SOL     OW 5783   2.986   3.339   7.986
  295SOL    HW1 5784   2.957   3.415   7.927
  295SOL    HW2 5785   2.970   3.253   7.938
  296SOL     OW 5786   2.394   0.318   7.344
  296SOL    HW1 5787   2.340   0.377   7.404
  296SOL    HW2 5788   2.448   0.374   7.281
  297SOL     OW 5789   4.581   4.031   0.904
  297SOL    HW1 5790   4.554   4.006   0.998
  297SOL    HW2 5791   4.565   4.129   0.891
  298SOL     OW 5792   4.232   1.674   7.093
  298SOL    HW1 5793   4.143   1.709   7.065
  298SOL    HW2 5794   4.295   1.678   7.016
  299SOL     OW 5795   1.452   2.048   6.675
  299SOL    HW1 5796   1.399   1.970   6.642
  299SOL    HW2 5797   1.541   2.016   6.708
  300SOL     OW 5798   1.258   1.141   7.556
  300SOL    HW1 5799   1.298   1.145   7.648
  300SOL    HW2 5800   1.159   1.148   7.562
  301SOL     OW 5801   5.124   2.896   7.712
  301SOL    HW1 5802   5.106   2.941   7.799
  301SOL    HW2 5803   5.223   2.888   7.698
  302SOL     OW 5804   1.968   3.059   7.211
  302SOL    HW1 5805   1.950   3.158   7.206
  302SOL    HW2 5806   1.955   3.018   7.121
  303SOL     OW 5807   4.648   3.426   7.515
  303SOL    HW1 5808   4.649   3.502   7.451
  303SOL    HW2 5809   4.740   3.388   7.523
  304SOL     OW 5810   1.986   4.164   2.539
  304SOL    HW1 5811   2.015   4.078   2.580
  304SOL    HW2 5812   1.895   4.154   2.499
  305SOL     OW 5813   0.305   0.556   7.453
  305SOL    HW1 5814   0.271   0.462   7.457
  305SOL    HW2 5815   0.309   0.586   7.357
  306SOL     OW 5816   2.307   4.870   0.897
  306SOL    HW1 5817   2.341   4.776   0.895
  306SOL    HW2 5818   2.252   4.887   0.815
  307SOL     OW 5819   1.261   2.898   8.143
  307SOL    HW1 5820   1.315   2.869   0.078
  307SOL    HW2 5821   1.201   2.823   8.114
  308SOL     OW 5822   0.867   3.135   7.209
  308SOL    HW1 5823   0.934   3.176   7.270
  308SOL    HW2 5824   0.871   3.035   7.218
  309SOL     OW 5825   0.466   3.052   7.372
  309SOL    HW1 5826   0.453   3.098   7.459
  309SOL    HW2 5827   0.517   3.112   7.310
  310SOL     OW 5828   3.984   4.829   6.851
  310SOL    HW1 5829   3.895   4.811   6.891
  310SOL    HW2 5830   3.986   4.796   6.756
  311SOL     OW 5831   1.976   0.537   7.206
  311SOL    HW1 5832   2.047   0.467   7.207
  311SOL    HW2 5833   1.965   0.574   7.299
  312SOL     OW 5834   2.486   2.439   0.294
  312SOL    HW1 5835   2.428   2.364   0.261
  312SOL    HW2 5836   2.545   2.405   0.367
  313SOL     OW 5837   3.494   2.909   0.994
  313SOL    HW1 5838   3.586   2.889   0.962
  313SOL    HW2 5839   3.496   2.931   1.091
  314SOL     OW 5840   2.258   0.909   6.577
  314SOL    HW1 5841   2.352   0.944   6.577
  314SOL    HW2 5842   2.201   0.966   6.637
  315SOL     OW 5843   5.005   1.440   0.671
  315SOL    HW1 5844   4.924   1.499   0.665
  315SOL    HW2 5845   4.977   1.344   0.664
  316SOL     OW 5846   2.474   1.968   7.050
  316SOL    HW1 5847   2.397   1.904   7.043
  316SOL    HW2 5848   2.534   1.939   7.125
  317SOL     OW 5849   3.887   1.188   6.678
  317SOL    HW1 5850   3.880   1.225   6.771
  317SOL    HW2 5851   3.941   1.104   6.679
  318SOL     OW 5852   0.525   0.687   7.561
  318SOL    HW1 5853   0.438   0.649   7.529
  318SOL    HW2 5854   0.538   0.665   7.657
  319SOL     OW 5855   1.819   3.725   0.522
  319SOL    HW1 5856   1.861   3.684   0.441
  319SOL    HW2 5857   1.726   3.689   0.534
  320SOL     OW 5858   0.945   4.693   6.656
  320SOL    HW1 5859   0.919   4.606   6.614
  320SOL    HW2 5860   1.035   4.721   6.621
  321SOL     OW 5861   3.940   4.089   1.361
  321SOL    HW1 5862   3.880   4.083   1.441
  321SOL    HW2 5863   4.031   4.118   1.390
  322SOL     OW 5864   0.551   3.745   6.937
  322SOL    HW1 5865   0.598   3.770   7.021
  322SOL    HW2 5866   0.456   3.723   6.957
  323SOL     OW 5867   4.573   3.647   0.472
  323SOL    HW1 5868   4.632   3.669   0.550
  323SOL    HW2 5869   4.563   3.548   0.464
  324SOL     OW 5870   2.006   1.533   0.509
  324SOL    HW1 5871   2.065   1.604   0.547
  324SOL    HW2 5872   2.057   1.447   0.502
  325SOL     OW 5873   4.434   3.176   6.749
  325SOL    HW1 5874   4.389   3.159   6.836
  325SOL    HW2 5875   4.382   3.242   6.696
  326SOL     OW 5876   4.557   3.186   7.613
  326SOL    HW1 5877   4.525   3.122   7.544
  326SOL    HW2 5878   4.586   3.271   7.569
  327SOL     OW 5879   1.132   3.517   6.881
  327SOL    HW1 5880   1.037   3.515   6.912
  327SOL    HW2 5881   1.187   3.458   6.940
  328SOL     OW 5882   4.107   4.477   6.639
  328SOL    HW1 5883   4.124   4.428   6.553
  328SOL    HW2 5884   4.081   4.571   6.618
  329SOL     OW 5885   2.056   1.822   1.149
  329SOL    HW1 5886   2.045   1.814   1.050
  329SOL    HW2 5887   1.973   1.864   1.189
  330SOL     OW 5888   4.025   4.289   7.609
  330SOL    HW1 5889   4.064   4.286   7.702
  330SOL    HW2 5890   4.099   4.303   7.543
  331SOL     OW 5891   0.609   3.232   7.213
  331SOL    HW1 5892   0.610   3.332   7.218
  331SOL    HW2 5893   0.702   3.197   7.221
  332SOL     OW 5894   5.167   0.246   0.355
  332SOL    HW1 5895   5.197   0.256   0.450
  332SOL    HW2 5896   5.173   0.335   0.309
  333SOL     OW 5897   0.142   4.337   7.635
  333SOL    HW1 5898   0.096   4.329   7.547
  333SOL    HW2 5899   0.151   4.246   7.676
  334SOL     OW 5900   1.904   3.465   6.933
  334SOL    HW1 5901   1.918   3.562   6.956
  334SOL    HW2 5902   1.824   3.457   6.874
  335SOL     OW 5903   3.283   4.986   7.465
  335SOL    HW1 5904   3.357   4.960   7.402
  335SOL    HW2 5905   3.218   5.045   7.416
  336SOL     OW 5906   5.064   4.914   1.089
  336SOL    HW1 5907   5.070   4.846   1.161
  336SOL    HW2 5908   5.053   4.869   1.001
  337SOL     OW 5909   4.360   2.614   1.635
  337SOL    HW1 5910   4.403   2.548   1.696
  337SOL    HW2 5911   4.264   2.627   1.660
  338SOL     OW 5912   1.443   1.576   7.163
  338SOL    HW1 5913   1.462   1.635   7.084
  338SOL    HW2 5914   1.373   1.509   7.139
  339SOL     OW 5915   2.396   2.228   7.106
  339SOL    HW1 5916   2.419   2.137   7.073
  339SOL    HW2 5917   2.455   2.252   7.183
  340SOL     OW 5918   4.803   2.988   0.699
  340SOL    HW1 5919   4.893   2.983   0.656
  340SOL    HW2 5920   4.755   2.901   0.688
  341SOL     OW 5921   2.443   0.056   7.259
  341SOL    HW1 5922   2.515   0.057   7.189
  341SOL    HW2 5923   2.426   0.149   7.291
  342SOL     OW 5924   5.185   3.842   7.018
  342SOL    HW1 5925   5.218   3.764   7.071
  342SOL    HW2 5926   5.228   3.925   7.052
  343SOL     OW 5927   0.901   0.306   1.117
  343SOL    HW1 5928   0.811   0.346   1.101
  343SOL    HW2 5929   0.972   0.374   1.097
  344SOL     OW 5930   2.901   3.793   7.370
  344SOL    HW1 5931   2.997   3.808   7.392
  344SOL    HW2 5932   2.876   3.848   7.290
  345SOL     OW 5933   4.323   3.921   7.016
  345SOL    HW1 5934   4.352   4.016   7.025
  345SOL    HW2 5935   4.353   3.869   7.097
  346SOL     OW 5936   3.355   3.041   0.808
  346SOL    HW1 5937   3.418   3.105   0.763
  346SOL    HW2 5938   3.403   2.993   0.882
  347SOL     OW 5939   0.244   4.468   6.878
  347SOL    HW1 5940   0.307   4.437   6.807
  347SOL    HW2 5941   0.183   4.393   6.904
  348SOL     OW 5942   0.090   4.148   1.183
  348SOL    HW1 5943   0.161   4.134   1.253
  348SOL    HW2 5944   0.126   4.207   1.111
  349SOL     OW 5945   2.353   1.705   1.821
  349SOL    HW1 5946   2.312   1.795   1.811
  349SOL    HW2 5947   2.288   1.635   1.790
  350SOL     OW 5948   1.084   2.982   1.121
  350SOL    HW1 5949   1.027   3.039   1.063
  350SOL    HW2 5950   1.151   3.039   1.169
  351SOL     OW 5951   5.236   2.438   7.193
  351SOL    HW1 5952   0.022   2.494   7.245
  351SOL    HW2 5953   5.162   2.496   7.158
  352SOL     OW 5954   2.980   1.580   0.695
  352SOL    HW1 5955   2.987   1.656   0.759
  352SOL    HW2 5956   3.069   1.534   0.688
  353SOL     OW 5957   4.624   3.403   0.731
  353SOL    HW1 5958   4.638   3.394   0.632
  353SOL    HW2 5959   4.690   3.346   0.779
  354SOL     OW 5960   2.119   4.004   0.729
  354SOL    HW1 5961   2.186   3.942   0.688
  354SOL    HW2 5962   2.027   3.977   0.700
  355SOL     OW 5963   2.496   0.676   0.573
  355SOL    HW1 5964   2.413   0.653   0.521
  355SOL    HW2 5965   2.546   0.592   0.594
  356SOL     OW 5966   0.076   0.787   1.177
  356SOL    HW1 5967   0.141   0.729   1.225
  356SOL    HW2 5968   0.089   0.882   1.205
  357SOL     OW 5969   2.441   0.608   2.572
  357SOL    HW1 5970   2.490   0.521   2.562
  357SOL    HW2 5971   2.506   0.684   2.570
  358SOL     OW 5972   1.045   1.776   0.615
  358SOL    HW1 5973   1.098   1.831   0.680
  358SOL    HW2 5974   0.948   1.786   0.634
  359SOL     OW 5975   3.580   2.334   6.830
  359SOL    HW1 5976   3.669   2.341   6.786
  359SOL    HW2 5977   3.509   2.369   6.768
  360SOL     OW 5978   3.073   3.747   1.637
  360SOL    HW1 5979   3.111   3.684   1.704
  360SOL    HW2 5980   3.034   3.696   1.560
  361SOL     OW 5981   1.878   1.253   6.787
  361SOL    HW1 5982   1.897   1.333   6.730
  361SOL    HW2 5983   1.815   1.278   6.860
  362SOL     OW 5984   1.661   2.871   1.239
  362SOL    HW1 5985   1.741   2.859   1.180
  362SOL    HW2 5986   1.608   2.949   1.208
  363SOL     OW 5987   4.267   2.842   0.719
  363SOL    HW1 5988   4.168   2.828   0.718
  363SOL    HW2 5989   4.314   2.755   0.705
  364SOL     OW 5990   4.623   4.138   7.235
  364SOL    HW1 5991   4.676   4.069   7.187
  364SOL    HW2 5992   4.675   4.224   7.238
  365SOL     OW 5993   0.807   0.649   7.222
  365SOL    HW1 5994   0.870   0.581   7.185
  365SOL    HW2 5995   0.755   0.690   7.147
  366SOL     OW 5996   3.968   4.671   7.314
  366SOL    HW1 5997   3.871   4.692   7.307
  366SOL    HW2 5998   3.993   4.603   7.245
  367SOL     OW 5999   1.608   2.081   7.193
  367SOL    HW1 6000   1.605   2.179   7.208
  367SOL    HW2 6001   1.625   2.034   7.279
  368SOL     OW 6002   0.655   0.994   0.004
  368SOL    HW1 6003   0.616   0.963   8.062
  368SOL    HW2 6004   0.638   0.926   0.075
  369SOL     OW 6005   1.777   4.848   0.384
  369SOL    HW1 6006   1.717   4.880   0.310
  369SOL    HW2 6007   1.734   4.771   0.431
  370SOL     OW 6008   4.761   2.457   6.002
  370SOL    HW1 6009   4.686   2.396   6.027
  370SOL    HW2 6010   4.746   2.547   6.043
  371SOL     OW 6011   2.876   3.006   0.775
  371SOL    HW1 6012   2.832   2.995   0.863
  371SOL    HW2 6013   2.845   2.935   0.712
  372SOL     OW 6014   3.293   1.015   7.137
  372SOL    HW1 6015   3.249   1.097   7.101
  372SOL    HW2 6016   3.264   0.936   7.084
  373SOL     OW 6017   0.391   2.453   7.320
  373SOL    HW1 6018   0.443   2.496   7.394
  373SOL    HW2 6019   0.452   2.441   7.241
  374SOL     OW 6020   3.898   0.813   0.961
  374SOL    HW1 6021   3.807   0.829   0.921
  374SOL    HW2 6022   3.949   0.899   0.962
  375SOL     OW 6023   1.254   4.383   6.884
  375SOL    HW1 6024   1.176   4.336   6.926
  375SOL    HW2 6025   1.257   4.363   6.786
  376SOL     OW 6026   2.013   1.388   0.934
  376SOL    HW1 6027   2.079   1.420   0.866
  376SOL    HW2 6028   2.026   1.290   0.949
  377SOL     OW 6029   1.485   2.887   6.504
  377SOL    HW1 6030   1.423   2.810   6.490
  377SOL    HW2 6031   1.434   2.973   6.497
  378SOL     OW 6032   4.256   2.112   0.340
  378SOL    HW1 6033   4.278   2.077   0.431
  378SOL    HW2 6034   4.246   2.211   0.344
  379SOL     OW 6035   0.386   2.179   7.044
  379SOL    HW1 6036   0.375   2.138   7.134
  379SOL    HW2 6037   0.301   2.170   6.992
  380SOL     OW 6038   1.302   2.423   7.767
  380SOL    HW1 6039   1.362   2.490   7.724
  380SOL    HW2 6040   1.224   2.405   7.707
  381SOL     OW 6041   5.222   2.402   0.283
  381SOL    HW1 6042   5.264   2.339   0.218
  381SOL    HW2 6043   0.013   2.441   0.343
  382SOL     OW 6044   3.863   2.995   6.922
  382SOL    HW1 6045   3.791   3.065   6.924
  382SOL    HW2 6046   3.945   3.034   6.880
  383SOL     OW 6047   2.099   4.140   6.812
  383SOL    HW1 6048   2.054   4.227   6.828
  383SOL    HW2 6049   2.198   4.153   6.805
  384SOL     OW 6050   0.846   4.874   1.462
  384SOL    HW1 6051   0.927   4.903   1.512
  384SOL    HW2 6052   0.783   4.951   1.453
  385SOL     OW 6053   3.871   3.889   7.453
  385SOL    HW1 6054   3.840   3.973   7.497
  385SOL    HW2 6055   3.915   3.830   7.522
  386SOL     OW 6056   2.677   2.259   6.765
  386SOL    HW1 6057   2.723   2.211   6.691
  386SOL    HW2 6058   2.580   2.233   6.766
  387SOL     OW 6059   3.544   3.715   0.468
  387SOL    HW1 6060   3.575   3.628   0.508
  387SOL    HW2 6061   3.608   3.788   0.494
  388SOL     OW 6062   3.675   0.840   1.930
  388SOL    HW1 6063   3.653   0.855   2.026
  388SOL    HW2 6064   3.711   0.924   1.890
  389SOL     OW 6065   2.644   0.200   5.612
  389SOL    HW1 6066   2.590   0.170   5.533
  389SOL    HW2 6067   2.741   0.200   5.587
  390SOL     OW 6068   0.810   0.808   0.884
  390SOL    HW1 6069   0.843   0.898   0.857
  390SOL    HW2 6070   0.853   0.780   0.970
  391SOL     OW 6071   2.001   0.191   0.521
  391SOL    HW1 6072   1.935   0.119   0.538
  391SOL    HW2 6073   2.033   0.186   0.426
  392SOL     OW 6074   2.716   2.959   8.109
  392SOL    HW1 6075   2.697   3.052   8.076
  392SOL    HW2 6076   2.808   2.956   0.002
  393SOL     OW 6077   4.331   4.432   0.299
  393SOL    HW1 6078   4.429   4.416   0.300
  393SOL    HW2 6079   4.310   4.517   0.347
  394SOL     OW 6080   2.466   0.239   7.603
  394SOL    HW1 6081   2.378   0.206   7.637
  394SOL    HW2 6082   2.457   0.264   7.506
  395SOL     OW 6083   4.145   0.613   7.845
  395SOL    HW1 6084   4.244   0.609   7.860
  395SOL    HW2 6085   4.110   0.521   7.829
  396SOL     OW 6086   4.796   3.496   7.107
  396SOL    HW1 6087   4.780   3.467   7.013
  396SOL    HW2 6088   4.736   3.573   7.129
  397SOL     OW 6089   1.754   2.244   1.267
  397SOL    HW1 6090   1.810   2.202   1.195
  397SOL    HW2 6091   1.684   2.179   1.297
  398SOL     OW 6092   0.631   1.208   7.619
  398SOL    HW1 6093   0.645   1.119   7.662
  398SOL    HW2 6094   0.684   1.277   7.668
  399SOL     OW 6095   3.423   0.678   1.412
  399SOL    HW1 6096   3.451   0.628   1.331
  399SOL    HW2 6097   3.333   0.646   1.441
  400SOL     OW 6098   2.746   3.872   7.586
  400SOL    HW1 6099   2.794   3.827   7.510
  400SOL    HW2 6100   2.707   3.803   7.646
  401SOL     OW 6101   2.996   2.793   8.028
  401SOL    HW1 6102   3.062   2.842   7.970
  401SOL    HW2 6103   2.934   2.741   7.970
  402SOL     OW 6104   2.153   3.183   6.623
  402SOL    HW1 6105   2.246   3.204   6.591
  402SOL    HW2 6106   2.133   3.238   6.704
  403SOL     OW 6107   4.425   4.178   7.052
  403SOL    HW1 6108   4.407   4.276   7.063
  403SOL    HW2 6109   4.495   4.149   7.118
  404SOL     OW 6110   3.998   1.822   7.059
  404SOL    HW1 6111   3.909   1.836   7.016
  404SOL    HW2 6112   4.007   1.882   7.139
  405SOL     OW 6113   3.735   1.627   6.692
  405SOL    HW1 6114   3.745   1.725   6.675
  405SOL    HW2 6115   3.743   1.577   6.606
  406SOL     OW 6116   2.227   1.274   6.946
  406SOL    HW1 6117   2.306   1.284   7.006
  406SOL    HW2 6118   2.254   1.225   6.863
  407SOL     OW 6119   1.689   2.032   1.041
  407SOL    HW1 6120   1.759   2.096   1.010
  407SOL    HW2 6121   1.723   1.979   1.119
  408SOL     OW 6122   4.140   1.960   6.868
  408SOL    HW1 6123   4.101   1.912   6.946
  408SOL    HW2 6124   4.133   1.902   6.787
  409SOL     OW 6125   4.683   0.405   6.581
  409SOL    HW1 6126   4.766   0.419   6.526
  409SOL    HW2 6127   4.603   0.420   6.523
  410SOL     OW 6128   0.285   4.366   7.288
  410SOL    HW1 6129   0.200   4.336   7.330
  410SOL    HW2 6130   0.361   4.344   7.350
  411SOL     OW 6131   3.062   2.667   7.727
  411SOL    HW1 6132   3.066   2.602   7.651
  411SOL    HW2 6133   2.992   2.638   7.792
  412SOL     OW 6134   0.550   2.507   1.086
  412SOL    HW1 6135   0.503   2.525   1.173
  412SOL    HW2 6136   0.591   2.591   1.052
  413SOL     OW 6137   3.741   3.330   2.126
  413SOL    HW1 6138   3.810   3.393   2.090
  413SOL    HW2 6139   3.786   3.253   2.172
  414SOL     OW 6140   0.214   4.279   0.969
  414SOL    HW1 6141   0.175   4.358   0.922
  414SOL    HW2 6142   0.314   4.286   0.970
  415SOL     OW 6143   3.507   1.622   6.857
  415SOL    HW1 6144   3.591   1.604   6.806
  415SOL    HW2 6145   3.481   1.539   6.908
  416SOL     OW 6146   3.623   2.578   7.836
  416SOL    HW1 6147   3.626   2.608   7.741
  416SOL    HW2 6148   3.537   2.609   7.878
  417SOL     OW 6149   2.174   0.571   2.614
  417SOL    HW1 6150   2.273   0.584   2.609
  417SOL    HW2 6151   2.131   0.654   2.651
  418SOL     OW 6152   4.474   4.224   7.463
  418SOL    HW1 6153   4.519   4.207   7.375
  418SOL    HW2 6154   4.503   4.154   7.529
  419SOL     OW 6155   1.304   4.154   1.600
  419SOL    HW1 6156   1.266   4.166   1.691
  419SOL    HW2 6157   1.274   4.066   1.563
  420SOL     OW 6158   2.580   4.483   7.227
  420SOL    HW1 6159   2.548   4.402   7.179
  420SOL    HW2 6160   2.664   4.516   7.184
  421SOL     OW 6161   2.607   2.780   0.846
  421SOL    HW1 6162   2.640   2.721   0.772
  421SOL    HW2 6163   2.533   2.838   0.811
  422SOL     OW 6164   2.460   4.879   5.753
  422SOL    HW1 6165   2.375   4.833   5.725
  422SOL    HW2 6166   2.534   4.853   5.691
  423SOL     OW 6167   4.078   4.012   7.318
  423SOL    HW1 6168   4.166   3.991   7.362
  423SOL    HW2 6169   4.005   3.964   7.366
  424SOL     OW 6170   2.650   5.066   7.070
  424SOL    HW1 6171   2.709   0.021   6.998
  424SOL    HW2 6172   2.702   5.009   7.132
  425SOL     OW 6173   4.951   0.475   6.856
  425SOL    HW1 6174   4.987   0.519   6.938
  425SOL    HW2 6175   4.934   0.543   6.785
  426SOL     OW 6176   1.704   2.663   0.802
  426SOL    HW1 6177   1.759   2.679   0.720
  426SOL    HW2 6178   1.762   2.622   0.873
  427SOL     OW 6179   1.913   3.741   6.988
  427SOL    HW1 6180   1.853   3.713   7.063
  427SOL    HW2 6181   1.943   3.836   7.003
  428SOL     OW 6182   0.455   2.693   0.485
  428SOL    HW1 6183   0.390   2.653   0.549
  428SOL    HW2 6184   0.427   2.672   0.391
  429SOL     OW 6185   2.850   0.348   6.163
  429SOL    HW1 6186   2.899   0.435   6.174
  429SOL    HW2 6187   2.901   0.289   6.100
  430SOL     OW 6188   1.729   4.369   1.032
  430SOL    HW1 6189   1.674   4.404   1.108
  430SOL    HW2 6190   1.822   4.406   1.038
  431SOL     OW 6191   3.532   2.564   6.566
  431SOL    HW1 6192   3.519   2.484   6.507
  431SOL    HW2 6193   3.446   2.615   6.573
  432SOL     OW 6194   0.319   1.111   7.868
  432SOL    HW1 6195   0.267   1.089   7.785
  432SOL    HW2 6196   0.315   1.033   7.931
  433SOL     OW 6197   0.309   1.222   0.730
  433SOL    HW1 6198   0.229   1.279   0.713
  433SOL    HW2 6199   0.388   1.279   0.750
  434SOL     OW 6200   2.574   1.196   1.065
  434SOL    HW1 6201   2.599   1.290   1.042
  434SOL    HW2 6202   2.496   1.197   1.128
  435SOL     OW 6203   2.853   1.679   0.370
  435SOL    HW1 6204   2.840   1.597   0.425
  435SOL    HW2 6205   2.842   1.760   0.428
  436SOL     OW 6206   0.112   1.458   1.500
  436SOL    HW1 6207   0.167   1.518   1.558
  436SOL    HW2 6208   0.129   1.362   1.526
  437SOL     OW 6209   3.871   3.763   7.890
  437SOL    HW1 6210   3.939   3.773   7.963
  437SOL    HW2 6211   3.791   3.716   7.926
  438SOL     OW 6212   3.468   4.851   0.137
  438SOL    HW1 6213   3.455   4.932   0.080
  438SOL    HW2 6214   3.551   4.863   0.192
  439SOL     OW 6215   4.517   2.347   6.071
  439SOL    HW1 6216   4.481   2.330   5.980
  439SOL    HW2 6217   4.468   2.423   6.113
  440SOL     OW 6218   4.381   3.057   1.320
  440SOL    HW1 6219   4.354   3.088   1.229
  440SOL    HW2 6220   4.336   3.114   1.389
  441SOL     OW 6221   1.690   3.455   0.776
  441SOL    HW1 6222   1.766   3.405   0.736
  441SOL    HW2 6223   1.648   3.401   0.848
  442SOL     OW 6224   4.510   2.372   0.870
  442SOL    HW1 6225   4.495   2.308   0.945
  442SOL    HW2 6226   4.565   2.449   0.903
  443SOL     OW 6227   1.956   2.636   7.934
  443SOL    HW1 6228   2.039   2.648   7.989
  443SOL    HW2 6229   1.890   2.581   7.986
  444SOL     OW 6230   0.471   2.545   6.499
  444SOL    HW1 6231   0.513   2.565   6.410
  444SOL    HW2 6232   0.463   2.630   6.551
  445SOL     OW 6233   5.042   2.378   0.489
  445SOL    HW1 6234   5.103   2.390   0.411
  445SOL    HW2 6235   5.097   2.360   0.571
  446SOL     OW 6236   4.738   0.596   0.351
  446SOL    HW1 6237   4.706   0.509   0.314
  446SOL    HW2 6238   4.819   0.626   0.300
  447SOL     OW 6239   1.274   4.700   5.678
  447SOL    HW1 6240   1.268   4.798   5.698
  447SOL    HW2 6241   1.364   4.679   5.640
  448SOL     OW 6242   3.836   3.243   0.198
  448SOL    HW1 6243   3.881   3.254   0.286
  448SOL    HW2 6244   3.738   3.230   0.212
  449SOL     OW 6245   0.640   0.777   0.164
  449SOL    HW1 6246   0.567   0.711   0.183
  449SOL    HW2 6247   0.728   0.731   0.170
  450SOL     OW 6248   1.098   0.260   6.975
  450SOL    HW1 6249   1.090   0.207   6.891
  450SOL    HW2 6250   1.164   0.215   7.036
  451SOL     OW 6251   1.018   2.924   7.924
  451SOL    HW1 6252   1.043   2.839   7.971
  451SOL    HW2 6253   1.075   2.999   7.959
  452SOL     OW 6254   3.148   2.782   1.085
  452SOL    HW1 6255   3.174   2.871   1.124
  452SOL    HW2 6256   3.068   2.748   1.133
  453SOL     OW 6257   3.845   4.019   1.824
  453SOL    HW1 6258   3.908   4.030   1.900
  453SOL    HW2 6259   3.751   4.033   1.856
  454SOL     OW 6260   2.847   4.151   7.359
  454SOL    HW1 6261   2.758   4.131   7.400
  454SOL    HW2 6262   2.919   4.134   7.426
  455SOL     OW 6263   0.224   3.716   0.041
  455SOL    HW1 6264   0.187   3.624   0.050
  455SOL    HW2 6265   0.166   3.781   0.090
  456SOL     OW 6266   4.969   3.044   7.541
  456SOL    HW1 6267   4.990   3.008   7.450
  456SOL    HW2 6268   5.028   2.999   7.609
  457SOL     OW 6269   4.069   3.492   1.079
  457SOL    HW1 6270   4.128   3.480   0.999
  457SOL    HW2 6271   4.037   3.586   1.084
  458SOL     OW 6272   0.985   3.815   0.885
  458SOL    HW1 6273   0.919   3.776   0.821
  458SOL    HW2 6274   1.053   3.868   0.835
  459SOL     OW 6275   0.036   0.152   7.748
  459SOL    HW1 6276   0.090   0.096   7.810
  459SOL    HW2 6277   0.013   0.099   7.667
  460SOL     OW 6278   3.203   3.030   8.136
  460SOL    HW1 6279   3.202   3.002   8.040
  460SOL    HW2 6280   3.207   3.130   8.142
  461SOL     OW 6281   3.873   0.637   0.566
  461SOL    HW1 6282   3.924   0.562   0.608
  461SOL    HW2 6283   3.795   0.601   0.515
  462SOL     OW 6284   3.665   1.111   7.163
  462SOL    HW1 6285   3.629   1.153   7.080
  462SOL    HW2 6286   3.710   1.180   7.219
  463SOL     OW 6287   0.443   0.266   7.603
  463SOL    HW1 6288   0.507   0.318   7.546
  463SOL    HW2 6289   0.355   0.259   7.556
  464SOL     OW 6290   1.816   4.880   6.282
  464SOL    HW1 6291   1.841   4.831   6.199
  464SOL    HW2 6292   1.843   4.976   6.273
  465SOL     OW 6293   2.536   0.480   6.239
  465SOL    HW1 6294   2.461   0.476   6.305
  465SOL    HW2 6295   2.586   0.566   6.251
  466SOL     OW 6296   4.762   3.698   7.679
  466SOL    HW1 6297   4.829   3.765   7.711
  466SOL    HW2 6298   4.771   3.688   7.580
  467SOL     OW 6299   0.681   2.481   1.416
  467SOL    HW1 6300   0.586   2.487   1.388
  467SOL    HW2 6301   0.708   2.385   1.423
  468SOL     OW 6302   5.204   1.697   6.766
  468SOL    HW1 6303   0.015   1.651   6.770
  468SOL    HW2 6304   5.140   1.641   6.715
  469SOL     OW 6305   3.669   3.653   8.057
  469SOL    HW1 6306   3.724   3.621   8.133
  469SOL    HW2 6307   3.626   3.575   8.011
  470SOL     OW 6308   1.369   0.800   1.307
  470SOL    HW1 6309   1.394   0.868   1.376
  470SOL    HW2 6310   1.451   0.772   1.256
  471SOL     OW 6311   0.934   1.885   1.557
  471SOL    HW1 6312   0.888   1.798   1.569
  471SOL    HW2 6313   0.960   1.896   1.461
  472SOL     OW 6314   4.453   2.532   7.201
  472SOL    HW1 6315   4.448   2.433   7.216
  472SOL    HW2 6316   4.471   2.551   7.105
  473SOL     OW 6317   2.301   3.776   0.064
  473SOL    HW1 6318   2.211   3.752   0.028
  473SOL    HW2 6319   2.296   3.862   0.114
  474SOL     OW 6320   0.542   0.096   7.799
  474SOL    HW1 6321   0.517   0.125   7.892
  474SOL    HW2 6322   0.514   0.166   7.733
  475SOL     OW 6323   3.989   3.016   7.775
  475SOL    HW1 6324   4.036   3.077   7.711
  475SOL    HW2 6325   4.006   2.921   7.749
  476SOL     OW 6326   4.338   1.003   0.625
  476SOL    HW1 6327   4.437   0.990   0.628
  476SOL    HW2 6328   4.301   0.997   0.718
  477SOL     OW 6329   0.551   2.776   7.348
  477SOL    HW1 6330   0.532   2.718   7.427
  477SOL    HW2 6331   0.518   2.869   7.365
  478SOL     OW 6332   2.413   2.188   0.492
  478SOL    HW1 6333   2.380   2.271   0.537
  478SOL    HW2 6334   2.338   2.144   0.444
  479SOL     OW 6335   1.838   3.275   0.116
  479SOL    HW1 6336   1.774   3.298   0.189
  479SOL    HW2 6337   1.788   3.263   0.030
  480SOL     OW 6338   2.545   0.166   6.485
  480SOL    HW1 6339   2.491   0.239   6.443
  480SOL    HW2 6340   2.485   0.090   6.510
  481SOL     OW 6341   2.820   2.948   6.838
  481SOL    HW1 6342   2.900   2.892   6.859
  481SOL    HW2 6343   2.738   2.891   6.834
  482SOL     OW 6344   4.872   0.757   6.429
  482SOL    HW1 6345   4.799   0.766   6.361
  482SOL    HW2 6346   4.925   0.842   6.433
  483SOL     OW 6347   0.443   3.494   7.606
  483SOL    HW1 6348   0.502   3.537   7.538
  483SOL    HW2 6349   0.371   3.558   7.633
  484SOL     OW 6350   0.061   5.023   1.573
  484SOL    HW1 6351   0.127   5.066   1.634
  484SOL    HW2 6352   5.260   0.002   1.562
  485SOL     OW 6353   2.217   3.540   1.604
  485SOL    HW1 6354   2.277   3.615   1.631
  485SOL    HW2 6355   2.179   3.497   1.686
  486SOL     OW 6356   1.508   3.581   0.318
  486SOL    HW1 6357   1.410   3.596   0.305
  486SOL    HW2 6358   1.532   3.603   0.412
  487SOL     OW 6359   3.003   1.128   7.982
  487SOL    HW1 6360   2.975   1.216   8.022
  487SOL    HW2 6361   2.987   1.129   7.883
  488SOL     OW 6362   0.871   0.798   1.379
  488SOL    HW1 6363   0.835   0.891   1.378
  488SOL    HW2 6364   0.897   0.773   1.473
  489SOL     OW 6365   3.894   4.096   5.971
  489SOL    HW1 6366   3.956   4.025   5.936
  489SOL    HW2 6367   3.816   4.104   5.910
  490SOL     OW 6368   5.184   3.913   7.862
  490SOL    HW1 6369   5.170   4.008   7.888
  490SOL    HW2 6370   5.258   3.873   7.917
  491SOL     OW 6371   3.834   4.329   0.463
  491SOL    HW1 6372   3.788   4.267   0.399
  491SOL    HW2 6373   3.867   4.409   0.414
  492SOL     OW 6374   1.134   1.526   0.513
  492SOL    HW1 6375   1.102   1.618   0.537
  492SOL    HW2 6376   1.185   1.530   0.427
  493SOL     OW 6377   2.814   0.780   6.747
  493SOL    HW1 6378   2.802   0.799   6.650
  493SOL    HW2 6379   2.726   0.756   6.788
  494SOL     OW 6380   4.473   2.983   7.456
  494SOL    HW1 6381   4.452   2.933   7.540
  494SOL    HW2 6382   4.540   2.931   7.402
  495SOL     OW 6383   4.632   4.613   1.170
  495SOL    HW1 6384   4.632   4.712   1.153
  495SOL    HW2 6385   4.569   4.592   1.244
  496SOL     OW 6386   0.211   3.632   1.029
  496SOL    HW1 6387   0.274   3.650   1.105
  496SOL    HW2 6388   0.135   3.697   1.033
  497SOL     OW 6389   2.411   2.980   0.811
  497SOL    HW1 6390   2.376   3.024   0.728
  497SOL    HW2 6391   2.444   3.050   0.874
  498SOL     OW 6392   5.056   0.598   7.071
  498SOL    HW1 6393   4.998   0.596   7.152
  498SOL    HW2 6394   5.081   0.693   7.050
  499SOL     OW 6395   4.229   4.112   0.888
  499SOL    HW1 6396   4.270   4.113   0.797
  499SOL    HW2 6397   4.137   4.153   0.883
  500SOL     OW 6398   2.126   0.799   0.720
  500SOL    HW1 6399   2.030   0.825   0.719
  500SOL    HW2 6400   2.135   0.702   0.698
  501SOL     OW 6401   4.852   2.770   6.974
  501SOL    HW1 6402   4.864   2.852   7.030
  501SOL    HW2 6403   4.770   2.779   6.918
  502SOL     OW 6404   4.351   0.136   0.578
  502SOL    HW1 6405   4.261   0.097   0.563
  502SOL    HW2 6406   4.396   0.151   0.489
  503SOL     OW 6407   4.806   0.176   7.298
  503SOL    HW1 6408   4.886   0.177   7.239
  503SOL    HW2 6409   4.728   0.138   7.248
  504SOL     OW 6410   5.263   3.331   0.418
  504SOL    HW1 6411   5.263   3.360   0.514
  504SOL    HW2 6412   5.254   3.232   0.413
  505SOL     OW 6413   2.548   4.148   0.054
  505SOL    HW1 6414   2.453   4.150   0.023
  505SOL    HW2 6415   2.604   4.098   8.133
  506SOL     OW 6416   1.159   3.784   6.948
  506SOL    HW1 6417   1.148   3.690   6.916
  506SOL    HW2 6418   1.241   3.823   6.907
  507SOL     OW 6419   4.259   1.472   0.047
  507SOL    HW1 6420   4.215   1.385   0.069
  507SOL    HW2 6421   4.221   1.544   0.105
  508SOL     OW 6422   2.705   0.609   1.874
  508SOL    HW1 6423   2.622   0.665   1.864
  508SOL    HW2 6424   2.768   0.629   1.800
  509SOL     OW 6425   3.861   0.789   0.112
  509SOL    HW1 6426   3.766   0.764   0.132
  509SOL    HW2 6427   3.916   0.778   0.194
  510SOL     OW 6428   4.284   3.361   6.617
  510SOL    HW1 6429   4.270   3.390   6.523
  510SOL    HW2 6430   4.311   3.439   6.673
  511SOL     OW 6431   4.332   4.558   7.322
  511SOL    HW1 6432   4.290   4.640   7.361
  511SOL    HW2 6433   4.426   4.550   7.356
  512SOL     OW 6434   3.361   4.905   1.348
  512SOL    HW1 6435   3.376   4.806   1.343
  512SOL    HW2 6436   3.263   4.924   1.343
  513SOL     OW 6437   2.289   3.750   6.916
  513SOL    HW1 6438   2.301   3.653   6.935
  513SOL    HW2 6439   2.210   3.764   6.857
  514SOL     OW 6440   3.150   1.191   7.508
  514SOL    HW1 6441   3.175   1.286   7.526
  514SOL    HW2 6442   3.233   1.134   7.510
  515SOL     OW 6443   2.048   3.499   0.535
  515SOL    HW1 6444   1.986   3.440   0.586
  515SOL    HW2 6445   2.000   3.540   0.458
  516SOL     OW 6446   4.611   4.113   0.003
  516SOL    HW1 6447   4.699   4.074   8.121
  516SOL    HW2 6448   4.542   4.087   8.081
  517SOL     OW 6449   1.964   2.093   6.748
  517SOL    HW1 6450   2.036   2.032   6.715
  517SOL    HW2 6451   2.002   2.157   6.814
  518SOL     OW 6452   1.129   2.239   0.011
  518SOL    HW1 6453   1.036   2.222   8.122
  518SOL    HW2 6454   1.180   2.153   0.011
  519SOL     OW 6455   3.175   4.472   6.331
  519SOL    HW1 6456   3.233   4.542   6.372
  519SOL    HW2 6457   3.225   4.425   6.259
  520SOL     OW 6458   3.539   4.885   0.932
  520SOL    HW1 6459   3.554   4.806   0.991
  520SOL    HW2 6460   3.612   4.952   0.948
  521SOL     OW 6461   2.608   2.471   6.979
  521SOL    HW1 6462   2.684   2.482   7.043
  521SOL    HW2 6463   2.636   2.409   6.906
  522SOL     OW 6464   3.093   4.451   1.413
  522SOL    HW1 6465   3.051   4.542   1.421
  522SOL    HW2 6466   3.173   4.458   1.353
  523SOL     OW 6467   2.054   2.011   0.148
  523SOL    HW1 6468   1.956   2.008   0.166
  523SOL    HW2 6469   2.072   1.981   0.055
  524SOL     OW 6470   0.763   3.023   7.962
  524SOL    HW1 6471   0.854   2.989   7.941
  524SOL    HW2 6472   0.712   2.954   8.013
  525SOL     OW 6473   1.612   0.361   1.189
  525SOL    HW1 6474   1.549   0.286   1.207
  525SOL    HW2 6475   1.702   0.323   1.166
  526SOL     OW 6476   3.411   2.724   7.950
  526SOL    HW1 6477   3.343   2.790   7.916
  526SOL    HW2 6478   3.493   2.773   7.980
  527SOL     OW 6479   1.309   0.285   6.508
  527SOL    HW1 6480   1.220   0.253   6.541
  527SOL    HW2 6481   1.382   0.239   6.558
  528SOL     OW 6482   1.488   1.733   7.382
  528SOL    HW1 6483   1.454   1.681   7.304
  528SOL    HW2 6484   1.484   1.677   7.464
  529SOL     OW 6485   4.645   1.804   6.692
  529SOL    HW1 6486   4.624   1.869   6.766
  529SOL    HW2 6487   4.716   1.741   6.723
  530SOL     OW 6488   0.164   4.626   7.319
  530SOL    HW1 6489   0.089   4.609   7.383
  530SOL    HW2 6490   0.213   4.541   7.301
  531SOL     OW 6491   3.439   2.343   6.417
  531SOL    HW1 6492   3.506   2.279   6.379
  531SOL    HW2 6493   3.400   2.398   6.344
  532SOL     OW 6494   4.023   0.432   0.700
  532SOL    HW1 6495   4.120   0.435   0.673
  532SOL    HW2 6496   3.996   0.337   0.714
  533SOL     OW 6497   3.955   1.985   1.720
  533SOL    HW1 6498   4.054   2.002   1.721
  533SOL    HW2 6499   3.928   1.943   1.806
  534SOL     OW 6500   4.635   0.771   7.021
  534SOL    HW1 6501   4.608   0.676   7.013
  534SOL    HW2 6502   4.635   0.814   6.930
  535SOL     OW 6503   4.103   0.728   7.595
  535SOL    HW1 6504   4.110   0.827   7.611
  535SOL    HW2 6505   4.104   0.680   7.682
  536SOL     OW 6506   4.301   0.751   0.949
  536SOL    HW1 6507   4.300   0.847   0.921
  536SOL    HW2 6508   4.208   0.714   0.945
  537SOL     OW 6509   4.063   3.830   0.659
  537SOL    HW1 6510   4.160   3.846   0.640
  537SOL    HW2 6511   4.007   3.871   0.587
  538SOL     OW 6512   2.623   3.734   1.317
  538SOL    HW1 6513   2.568   3.817   1.327
  538SOL    HW2 6514   2.647   3.698   1.407
  539SOL     OW 6515   1.363   4.360   0.747
  539SOL    HW1 6516   1.283   4.310   0.778
  539SOL    HW2 6517   1.445   4.318   0.785
  540SOL     OW 6518   5.096   0.089   6.424
  540SOL    HW1 6519   5.121   5.077   6.400
  540SOL    HW2 6520   5.052   0.134   6.346
  541SOL     OW 6521   3.793   3.148   0.881
  541SOL    HW1 6522   3.765   3.052   0.891
  541SOL    HW2 6523   3.893   3.152   0.869
  542SOL     OW 6524   1.619   2.190   7.563
  542SOL    HW1 6525   1.627   2.097   7.526
  542SOL    HW2 6526   1.611   2.255   7.488
  543SOL     OW 6527   5.230   1.938   6.899
  543SOL    HW1 6528   5.212   1.849   6.857
  543SOL    HW2 6529   5.229   1.929   6.999
  544SOL     OW 6530   2.632   0.464   6.923
  544SOL    HW1 6531   2.640   0.393   6.853
  544SOL    HW2 6532   2.605   0.550   6.880
  545SOL     OW 6533   2.085   4.762   7.122
  545SOL    HW1 6534   2.150   4.838   7.127
  545SOL    HW2 6535   2.000   4.794   7.078
  546SOL     OW 6536   1.169   0.010   7.361
  546SOL    HW1 6537   1.168   0.088   7.424
  546SOL    HW2 6538   1.085   5.038   7.372
  547SOL     OW 6539   3.922   4.818   0.884
  547SOL    HW1 6540   3.947   4.756   0.958
  547SOL    HW2 6541   3.842   4.782   0.837
  548SOL     OW 6542   2.338   3.163   0.050
  548SOL    HW1 6543   2.298   3.136   0.138
  548SOL    HW2 6544   2.432   3.193   0.064
  549SOL     OW 6545   4.838   1.769   7.421
  549SOL    HW1 6546   4.856   1.765   7.519
  549SOL    HW2 6547   4.743   1.793   7.405
  550SOL     OW 6548   3.050   3.474   0.393
  550SOL    HW1 6549   3.142   3.439   0.414
  550SOL    HW2 6550   3.004   3.411   0.330
  551SOL     OW 6551   0.873   4.749   6.911
  551SOL    HW1 6552   0.903   4.731   6.817
  551SOL    HW2 6553   0.939   4.808   6.956
  552SOL     OW 6554   3.240   1.329   1.861
  552SOL    HW1 6555   3.309   1.288   1.922
  552SOL    HW2 6556   3.168   1.371   1.917
  553SOL     OW 6557   0.912   3.296   1.086
  553SOL    HW1 6558   1.002   3.307   1.043
  553SOL    HW2 6559   0.853   3.243   1.025
  554SOL     OW 6560   1.374   0.110   1.676
  554SOL    HW1 6561   1.278   0.107   1.703
  554SOL    HW2 6562   1.406   0.204   1.675
  555SOL     OW 6563   2.749   0.500   6.592
  555SOL    HW1 6564   2.669   0.557   6.568
  555SOL    HW2 6565   2.827   0.560   6.612
  556SOL     OW 6566   0.241   3.117   0.795
  556SOL    HW1 6567   0.163   3.140   0.852
  556SOL    HW2 6568   0.276   3.027   0.821
  557SOL     OW 6569   1.255   3.158   1.259
  557SOL    HW1 6570   1.252   3.139   1.357
  557SOL    HW2 6571   1.248   3.256   1.244
  558SOL     OW 6572   3.963   2.758   6.801
  558SOL    HW1 6573   3.919   2.843   6.830
  558SOL    HW2 6574   3.894   2.698   6.761
  559SOL     OW 6575   2.704   2.817   1.404
  559SOL    HW1 6576   2.687   2.725   1.369
  559SOL    HW2 6577   2.696   2.816   1.504
  560SOL     OW 6578   4.519   0.215   1.197
  560SOL    HW1 6579   4.505   0.131   1.145
  560SOL    HW2 6580   4.437   0.272   1.191
  561SOL     OW 6581   0.121   4.838   1.925
  561SOL    HW1 6582   0.145   4.930   1.956
  561SOL    HW2 6583   0.166   4.770   1.982
  562SOL     OW 6584   1.686   1.664   1.234
  562SOL    HW1 6585   1.762   1.610   1.196
  562SOL    HW2 6586   1.616   1.602   1.269
  563SOL     OW 6587   0.050   3.313   7.448
  563SOL    HW1 6588   0.088   3.353   7.365
  563SOL    HW2 6589   5.254   3.369   7.483
  564SOL     OW 6590   2.932   4.607   6.348
  564SOL    HW1 6591   2.874   4.554   6.410
  564SOL    HW2 6592   3.018   4.558   6.334
  565SOL     OW 6593   4.522   2.633   6.385
  565SOL    HW1 6594   4.569   2.716   6.355
  565SOL    HW2 6595   4.468   2.596   6.309
  566SOL     OW 6596   1.587   4.781   6.390
  566SOL    HW1 6597   1.673   4.811   6.348
  566SOL    HW2 6598   1.533   4.861   6.415
  567SOL     OW 6599   2.226   2.044   0.355
  567SOL    HW1 6600   2.157   2.024   0.285
  567SOL    HW2 6601   2.282   1.963   0.371
  568SOL     OW 6602   2.430   3.424   0.290
  568SOL    HW1 6603   2.451   3.521   0.274
  568SOL    HW2 6604   2.476   3.368   0.221
  569SOL     OW 6605   4.335   1.575   0.787
  569SOL    HW1 6606   4.270   1.605   0.717
  569SOL    HW2 6607   4.286   1.554   0.872
  570SOL     OW 6608   4.746   0.360   7.864
  570SOL    HW1 6609   4.729   0.271   7.822
  570SOL    HW2 6610   4.764   0.428   7.792
  571SOL     OW 6611   0.456   0.575   0.228
  571SOL    HW1 6612   0.359   0.585   0.208
  571SOL    HW2 6613   0.472   0.587   0.326
  572SOL     OW 6614   3.193   1.367   0.461
  572SOL    HW1 6615   3.148   1.378   0.372
  572SOL    HW2 6616   3.185   1.272   0.491
  573SOL     OW 6617   0.202   3.471   0.342
  573SOL    HW1 6618   0.206   3.558   0.392
  573SOL    HW2 6619   0.122   3.419   0.372
  574SOL     OW 6620   1.936   1.429   0.010
  574SOL    HW1 6621   2.007   1.361   8.136
  574SOL    HW2 6622   1.971   1.520   8.133
  575SOL     OW 6623   1.628   1.646   0.539
  575SOL    HW1 6624   1.549   1.703   0.515
  575SOL    HW2 6625   1.695   1.650   0.465
  576SOL     OW 6626   2.048   0.273   6.334
  576SOL    HW1 6627   2.126   0.248   6.392
  576SOL    HW2 6628   2.055   0.369   6.308
  577SOL     OW 6629   5.201   3.380   1.583
  577SOL    HW1 6630   5.242   3.420   1.665
  577SOL    HW2 6631   5.103   3.370   1.595
  578SOL     OW 6632   1.501   2.963   6.944
  578SOL    HW1 6633   1.529   3.059   6.945
  578SOL    HW2 6634   1.405   2.956   6.974
  579SOL     OW 6635   1.408   4.112   5.861
  579SOL    HW1 6636   1.337   4.171   5.823
  579SOL    HW2 6637   1.498   4.149   5.839
  580SOL     OW 6638   2.540   2.672   2.103
  580SOL    HW1 6639   2.598   2.745   2.138
  580SOL    HW2 6640   2.448   2.680   2.140
  581SOL     OW 6641   4.247   3.238   1.469
  581SOL    HW1 6642   4.232   3.316   1.407
  581SOL    HW2 6643   4.210   3.259   1.559
  582SOL     OW 6644   0.074   1.365   6.905
  582SOL    HW1 6645   0.091   1.372   7.004
  582SOL    HW2 6646   0.103   1.276   6.872
  583SOL     OW 6647   4.195   0.808   6.996
  583SOL    HW1 6648   4.215   0.787   7.091
  583SOL    HW2 6649   4.268   0.863   6.957
  584SOL     OW 6650   4.416   0.158   7.370
  584SOL    HW1 6651   4.474   0.094   7.319
  584SOL    HW2 6652   4.361   0.107   7.436
  585SOL     OW 6653   1.070   0.164   6.570
  585SOL    HW1 6654   0.988   0.161   6.628
  585SOL    HW2 6655   1.089   0.072   6.535
  586SOL     OW 6656   3.371   0.728   7.829
  586SOL    HW1 6657   3.418   0.685   7.752
  586SOL    HW2 6658   3.273   0.710   7.823
  587SOL     OW 6659   4.504   4.215   6.524
  587SOL    HW1 6660   4.480   4.229   6.620
  587SOL    HW2 6661   4.432   4.161   6.480
  588SOL     OW 6662   0.960   0.560   7.560
  588SOL    HW1 6663   0.911   0.643   7.534
  588SOL    HW2 6664   1.004   0.575   7.649
  589SOL     OW 6665   1.582   2.788   6.742
  589SOL    HW1 6666   1.554   2.825   6.654
  589SOL    HW2 6667   1.559   2.853   6.814
  590SOL     OW 6668   1.482   3.883   1.815
  590SOL    HW1 6669   1.528   3.802   1.779
  590SOL    HW2 6670   1.398   3.856   1.861
  591SOL     OW 6671   5.256   2.514   6.724
  591SOL    HW1 6672   0.045   2.572   6.678
  591SOL    HW2 6673   0.013   2.488   6.814
  592SOL     OW 6674   4.171   1.900   0.048
  592SOL    HW1 6675   4.257   1.874   0.004
  592SOL    HW2 6676   4.162   1.999   0.049
  593SOL     OW 6677   4.877   3.295   0.096
  593SOL    HW1 6678   4.859   3.391   0.117
  593SOL    HW2 6679   4.884   3.283   8.142
  594SOL     OW 6680   4.560   1.923   6.929
  594SOL    HW1 6681   4.631   1.939   6.997
  594SOL    HW2 6682   4.519   1.832   6.944
  595SOL     OW 6683   4.572   3.875   1.894
  595SOL    HW1 6684   4.649   3.879   1.830
  595SOL    HW2 6685   4.535   3.967   1.906
  596SOL     OW 6686   2.360   3.855   5.949
  596SOL    HW1 6687   2.409   3.807   5.876
  596SOL    HW2 6688   2.363   3.954   5.931
  597SOL     OW 6689   3.973   4.914   0.279
  597SOL    HW1 6690   3.999   5.010   0.288
  597SOL    HW2 6691   4.052   4.862   0.245
  598SOL     OW 6692   1.419   2.746   1.283
  598SOL    HW1 6693   1.509   2.785   1.263
  598SOL    HW2 6694   1.401   2.753   1.381
  599SOL     OW 6695   2.651   1.930   7.511
  599SOL    HW1 6696   2.737   1.965   7.550
  599SOL    HW2 6697   2.578   1.997   7.527
  600SOL     OW 6698   4.412   4.756   6.711
  600SOL    HW1 6699   4.438   4.836   6.656
  600SOL    HW2 6700   4.350   4.784   6.784
  601SOL     OW 6701   3.586   3.403   7.977
  601SOL    HW1 6702   3.528   3.399   8.059
  601SOL    HW2 6703   3.553   3.336   7.910
  602SOL     OW 6704   3.244   0.991   8.023
  602SOL    HW1 6705   3.306   1.003   7.945
  602SOL    HW2 6706   3.157   1.036   8.004
  603SOL     OW 6707   1.333   2.853   2.125
  603SOL    HW1 6708   1.297   2.821   2.213
  603SOL    HW2 6709   1.331   2.778   2.059
  604SOL     OW 6710   3.416   4.098   7.582
  604SOL    HW1 6711   3.405   4.103   7.483
  604SOL    HW2 6712   3.420   4.190   7.620
  605SOL     OW 6713   1.570   4.127   1.896
  605SOL    HW1 6714   1.666   4.109   1.915
  605SOL    HW2 6715   1.527   4.044   1.859
  606SOL     OW 6716   4.100   3.542   0.431
  606SOL    HW1 6717   4.067   3.543   0.526
  606SOL    HW2 6718   4.178   3.603   0.421
  607SOL     OW 6719   3.304   2.664   7.029
  607SOL    HW1 6720   3.261   2.743   7.072
  607SOL    HW2 6721   3.339   2.603   7.099
  608SOL     OW 6722   2.003   1.906   6.961
  608SOL    HW1 6723   1.988   1.968   6.884
  608SOL    HW2 6724   1.915   1.880   7.000
  609SOL     OW 6725   4.296   0.409   0.626
  609SOL    HW1 6726   4.365   0.438   0.692
  609SOL    HW2 6727   4.311   0.313   0.602
  610SOL     OW 6728   1.099   4.280   5.950
  610SOL    HW1 6729   1.181   4.300   5.897
  610SOL    HW2 6730   1.019   4.286   5.891
  611SOL     OW 6731   2.933   4.038   6.354
  611SOL    HW1 6732   2.870   4.037   6.432
  611SOL    HW2 6733   2.902   3.973   6.285
  612SOL     OW 6734   3.220   0.752   7.023
  612SOL    HW1 6735   3.233   0.664   6.977
  612SOL    HW2 6736   3.146   0.802   6.978
  613SOL     OW 6737   3.625   4.515   7.651
  613SOL    HW1 6738   3.719   4.525   7.618
  613SOL    HW2 6739   3.616   4.557   7.741
  614SOL     OW 6740   1.718   3.444   7.327
  614SOL    HW1 6741   1.640   3.389   7.296
  614SOL    HW2 6742   1.715   3.453   7.426
  615SOL     OW 6743   0.379   4.559   1.182
  615SOL    HW1 6744   0.459   4.588   1.130
  615SOL    HW2 6745   0.388   4.462   1.205
  616SOL     OW 6746   2.433   2.464   0.876
  616SOL    HW1 6747   2.436   2.530   0.952
  616SOL    HW2 6748   2.525   2.428   0.860
  617SOL     OW 6749   4.000   5.047   7.495
  617SOL    HW1 6750   3.928   4.989   7.531
  617SOL    HW2 6751   4.029   5.015   7.405
  618SOL     OW 6752   1.155   1.046   0.713
  618SOL    HW1 6753   1.058   1.056   0.737
  618SOL    HW2 6754   1.169   1.071   0.618
  619SOL     OW 6755   3.998   1.597   6.800
  619SOL    HW1 6756   4.045   1.668   6.747
  619SOL    HW2 6757   3.902   1.592   6.771
  620SOL     OW 6758   4.798   0.822   0.529
  620SOL    HW1 6759   4.769   0.740   0.478
  620SOL    HW2 6760   4.887   0.852   0.496
  621SOL     OW 6761   3.492   0.026   8.128
  621SOL    HW1 6762   3.585   0.041   0.015
  621SOL    HW2 6763   3.492   0.009   8.029
  622SOL     OW 6764   3.650   2.504   7.061
  622SOL    HW1 6765   3.675   2.596   7.033
  622SOL    HW2 6766   3.631   2.449   6.979
  623SOL     OW 6767   0.577   2.548   6.244
  623SOL    HW1 6768   0.539   2.455   6.240
  623SOL    HW2 6769   0.550   2.598   6.162
  624SOL     OW 6770   0.698   1.665   7.133
  624SOL    HW1 6771   0.701   1.662   7.033
  624SOL    HW2 6772   0.732   1.753   7.165
  625SOL     OW 6773   0.763   3.968   7.903
  625SOL    HW1 6774   0.712   3.883   7.891
  625SOL    HW2 6775   0.699   4.044   7.913
  626SOL     OW 6776   0.533   3.573   0.922
  626SOL    HW1 6777   0.575   3.660   0.897
  626SOL    HW2 6778   0.440   3.569   0.885
  627SOL     OW 6779   0.744   4.181   1.791
  627SOL    HW1 6780   0.751   4.247   1.866
  627SOL    HW2 6781   0.712   4.094   1.826
  628SOL     OW 6782   1.221   2.983   6.165
  628SOL    HW1 6783   1.198   3.070   6.209
  628SOL    HW2 6784   1.316   2.985   6.134
  629SOL     OW 6785   1.627   0.249   0.816
  629SOL    HW1 6786   1.637   0.155   0.848
  629SOL    HW2 6787   1.706   0.303   0.846
  630SOL     OW 6788   3.363   1.569   0.394
  630SOL    HW1 6789   3.315   1.491   0.433
  630SOL    HW2 6790   3.297   1.643   0.375
  631SOL     OW 6791   0.788   3.671   6.822
  631SOL    HW1 6792   0.701   3.708   6.853
  631SOL    HW2 6793   0.840   3.742   6.775
  632SOL     OW 6794   3.440   1.012   0.927
  632SOL    HW1 6795   3.353   0.970   0.955
  632SOL    HW2 6796   3.430   1.051   0.836
  633SOL     OW 6797   4.362   2.059   5.735
  633SOL    HW1 6798   4.314   2.102   5.659
  633SOL    HW2 6799   4.317   1.972   5.758
  634SOL     OW 6800   3.041   2.800   6.896
  634SOL    HW1 6801   3.095   2.842   6.968
  634SOL    HW2 6802   3.084   2.714   6.867
  635SOL     OW 6803   4.685   2.158   7.191
  635SOL    HW1 6804   4.750   2.210   7.248
  635SOL    HW2 6805   4.593   2.192   7.206
  636SOL     OW 6806   4.464   1.211   0.924
  636SOL    HW1 6807   4.548   1.158   0.919
  636SOL    HW2 6808   4.469   1.289   0.862
  637SOL     OW 6809   0.171   2.522   0.054
  637SOL    HW1 6810   0.086   2.574   0.061
  637SOL    HW2 6811   0.154   2.427   0.079
  638SOL     OW 6812   2.794   0.789   6.476
  638SOL    HW1 6813   2.883   0.831   6.456
  638SOL    HW2 6814   2.749   0.763   6.390
  639SOL     OW 6815   2.291   4.128   8.108
  639SOL    HW1 6816   2.285   4.080   0.051
  639SOL    HW2 6817   2.202   4.125   8.062
  640SOL     OW 6818   1.138   3.801   0.088
  640SOL    HW1 6819   1.180   3.723   0.041
  640SOL    HW2 6820   1.047   3.817   0.051
  641SOL     OW 6821   3.992   3.157   8.015
  641SOL    HW1 6822   3.977   3.096   8.093
  641SOL    HW2 6823   4.000   3.102   7.931
  642SOL     OW 6824   2.675   1.918   7.238
  642SOL    HW1 6825   2.722   2.006   7.224
  642SOL    HW2 6826   2.657   1.905   7.335
  643SOL     OW 6827   3.165   4.344   1.024
  643SOL    HW1 6828   3.145   4.250   0.996
  643SOL    HW2 6829   3.081   4.398   1.023
  644SOL     OW 6830   4.899   0.209   0.392
  644SOL    HW1 6831   4.995   0.209   0.364
  644SOL    HW2 6832   4.883   0.282   0.459
  645SOL     OW 6833   2.748   0.497   7.331
  645SOL    HW1 6834   2.663   0.477   7.282
  645SOL    HW2 6835   2.760   0.597   7.335
  646SOL     OW 6836   5.261   1.377   1.249
  646SOL    HW1 6837   0.015   1.406   1.339
  646SOL    HW2 6838   0.043   1.413   1.178
  647SOL     OW 6839   1.021   2.961   7.651
  647SOL    HW1 6840   0.989   3.055   7.635
  647SOL    HW2 6841   1.015   2.941   7.749
  648SOL     OW 6842   2.182   2.974   6.827
  648SOL    HW1 6843   2.184   3.052   6.765
  648SOL    HW2 6844   2.253   2.985   6.896
  649SOL     OW 6845   2.432   0.925   6.896
  649SOL    HW1 6846   2.354   0.924   6.958
  649SOL    HW2 6847   2.431   1.009   6.843
  650SOL     OW 6848   3.407   4.354   7.666
  650SOL    HW1 6849   3.372   4.373   7.758
  650SOL    HW2 6850   3.488   4.409   7.649
  651SOL     OW 6851   0.604   4.586   1.023
  651SOL    HW1 6852   0.598   4.661   0.956
  651SOL    HW2 6853   0.698   4.551   1.025
  652SOL     OW 6854   2.469   3.952   1.393
  652SOL    HW1 6855   2.494   4.009   1.472
  652SOL    HW2 6856   2.481   4.004   1.309
  653SOL     OW 6857   1.006   2.963   5.725
  653SOL    HW1 6858   1.082   2.954   5.660
  653SOL    HW2 6859   1.006   3.055   5.763
  654SOL     OW 6860   5.158   2.089   0.056
  654SOL    HW1 6861   5.167   2.064   0.152
  654SOL    HW2 6862   5.248   2.114   0.020
  655SOL     OW 6863   2.022   1.123   7.062
  655SOL    HW1 6864   2.084   1.181   7.008
  655SOL    HW2 6865   2.011   1.163   7.153
  656SOL     OW 6866   1.414   2.852   0.544
  656SOL    HW1 6867   1.443   2.876   0.637
  656SOL    HW2 6868   1.489   2.807   0.496
  657SOL     OW 6869   1.958   1.434   7.664
  657SOL    HW1 6870   1.879   1.494   7.651
  657SOL    HW2 6871   1.932   1.355   7.719
  658SOL     OW 6872   4.818   3.708   7.404
  658SOL    HW1 6873   4.889   3.646   7.369
  658SOL    HW2 6874   4.846   3.802   7.388
  659SOL     OW 6875   2.269   1.820   7.419
  659SOL    HW1 6876   2.248   1.751   7.350
  659SOL    HW2 6877   2.234   1.909   7.389
  660SOL     OW 6878   3.354   4.946   5.445
  660SOL    HW1 6879   3.432   4.885   5.460
  660SOL    HW2 6880   3.379   5.015   5.377
  661SOL     OW 6881   4.040   3.218   1.175
  661SOL    HW1 6882   4.133   3.197   1.145
  661SOL    HW2 6883   4.014   3.309   1.143
  662SOL     OW 6884   1.489   1.556   7.592
  662SOL    HW1 6885   1.425   1.574   7.667
  662SOL    HW2 6886   1.459   1.475   7.541
  663SOL     OW 6887   0.545   2.984   6.500
  663SOL    HW1 6888   0.548   2.969   6.599
  663SOL    HW2 6889   0.550   3.082   6.481
  664SOL     OW 6890   3.756   0.060   0.074
  664SOL    HW1 6891   3.852   0.053   0.047
  664SOL    HW2 6892   3.736   5.075   0.146
  665SOL     OW 6893   2.354   5.066   6.567
  665SOL    HW1 6894   2.394   5.002   6.632
  665SOL    HW2 6895   2.290   5.018   6.508
  666SOL     OW 6896   3.808   0.901   0.619
  666SOL    HW1 6897   3.862   0.953   0.553
  666SOL    HW2 6898   3.829   0.804   0.610
  667SOL     OW 6899   4.221   1.836   5.827
  667SOL    HW1 6900   4.249   1.834   5.923
  667SOL    HW2 6901   4.132   1.791   5.818
  668SOL     OW 6902   3.401   1.394   0.985
  668SOL    HW1 6903   3.309   1.359   1.002
  668SOL    HW2 6904   3.468   1.334   1.029
  669SOL     OW 6905   1.962   1.048   8.025
  669SOL    HW1 6906   1.906   1.029   8.106
  669SOL    HW2 6907   1.989   0.961   7.983
  670SOL     OW 6908   4.454   3.275   5.968
  670SOL    HW1 6909   4.359   3.289   5.940
  670SOL    HW2 6910   4.498   3.210   5.907
  671SOL     OW 6911   1.685   3.495   6.771
  671SOL    HW1 6912   1.598   3.507   6.818
  671SOL    HW2 6913   1.700   3.573   6.710
  672SOL     OW 6914   3.043   4.008   1.568
  672SOL    HW1 6915   3.107   4.064   1.621
  672SOL    HW2 6916   3.059   3.911   1.587
  673SOL     OW 6917   2.118   1.639   6.730
  673SOL    HW1 6918   2.118   1.619   6.828
  673SOL    HW2 6919   2.200   1.600   6.688
  674SOL     OW 6920   4.449   2.708   5.952
  674SOL    HW1 6921   4.397   2.784   5.914
  674SOL    HW2 6922   4.512   2.673   5.883
  675SOL     OW 6923   5.047   2.205   6.432
  675SOL    HW1 6924   5.128   2.242   6.478
  675SOL    HW2 6925   4.978   2.181   6.500
  676SOL     OW 6926   1.820   1.653   0.347
  676SOL    HW1 6927   1.869   1.739   0.357
  676SOL    HW2 6928   1.872   1.580   0.391
  677SOL     OW 6929   0.372   0.312   1.423
  677SOL    HW1 6930   0.433   0.352   1.492
  677SOL    HW2 6931   0.281   0.301   1.463
  678SOL     OW 6932   3.776   1.930   6.930
  678SOL    HW1 6933   3.767   1.904   6.834
  678SOL    HW2 6934   3.818   2.020   6.937
  679SOL     OW 6935   0.643   0.894   2.037
  679SOL    HW1 6936   0.624   0.797   2.053
  679SOL    HW2 6937   0.658   0.910   1.940
  680SOL     OW 6938   4.362   3.357   1.853
  680SOL    HW1 6939   4.393   3.269   1.816
  680SOL    HW2 6940   4.430   3.392   1.917
  681SOL     OW 6941   0.752   2.885   2.044
  681SOL    HW1 6942   0.823   2.944   2.006
  681SOL    HW2 6943   0.789   2.834   2.121
  682SOL     OW 6944   2.212   3.026   7.770
  682SOL    HW1 6945   2.126   3.060   7.808
  682SOL    HW2 6946   2.200   2.932   7.739
  683SOL     OW 6947   0.335   3.345   6.595
  683SOL    HW1 6948   0.265   3.364   6.526
  683SOL    HW2 6949   0.412   3.298   6.552
  684SOL     OW 6950   0.531   4.321   7.417
  684SOL    HW1 6951   0.592   4.289   7.345
  684SOL    HW2 6952   0.561   4.284   7.505
  685SOL     OW 6953   4.246   3.976   1.630
  685SOL    HW1 6954   4.178   3.902   1.620
  685SOL    HW2 6955   4.239   4.014   1.722
  686SOL     OW 6956   0.584   0.560   7.822
  686SOL    HW1 6957   0.641   0.502   7.764
  686SOL    HW2 6958   0.538   0.504   7.891
  687SOL     OW 6959   1.059   2.180   7.023
  687SOL    HW1 6960   0.990   2.113   6.995
  687SOL    HW2 6961   1.140   2.171   6.966
  688SOL     OW 6962   2.780   0.766   7.303
  688SOL    HW1 6963   2.725   0.806   7.229
  688SOL    HW2 6964   2.877   0.776   7.281
  689SOL     OW 6965   4.510   1.370   0.430
  689SOL    HW1 6966   4.474   1.296   0.373
  689SOL    HW2 6967   4.518   1.337   0.525
  690SOL     OW 6968   5.011   3.059   6.462
  690SOL    HW1 6969   4.916   3.079   6.485
  690SOL    HW2 6970   5.015   2.996   6.384
  691SOL     OW 6971   1.849   1.178   1.392
  691SOL    HW1 6972   1.797   1.164   1.477
  691SOL    HW2 6973   1.943   1.147   1.405
  692SOL     OW 6974   2.513   1.500   0.230
  692SOL    HW1 6975   2.542   1.595   0.243
  692SOL    HW2 6976   2.548   1.466   0.142
  693SOL     OW 6977   3.390   3.159   6.541
  693SOL    HW1 6978   3.361   3.170   6.446
  693SOL    HW2 6979   3.423   3.065   6.554
  694SOL     OW 6980   3.977   1.612   7.833
  694SOL    HW1 6981   3.950   1.686   7.771
  694SOL    HW2 6982   4.057   1.640   7.886
  695SOL     OW 6983   0.505   2.372   0.241
  695SOL    HW1 6984   0.537   2.313   0.315
  695SOL    HW2 6985   0.503   2.320   0.155
  696SOL     OW 6986   2.828   0.446   1.508
  696SOL    HW1 6987   2.893   0.392   1.563
  696SOL    HW2 6988   2.867   0.462   1.417
  697SOL     OW 6989   1.275   0.072   7.977
  697SOL    HW1 6990   1.193   0.126   7.998
  697SOL    HW2 6991   1.278   0.055   7.879
  698SOL     OW 6992   2.760   3.740   1.076
  698SOL    HW1 6993   2.716   3.737   1.165
  698SOL    HW2 6994   2.843   3.795   1.082
  699SOL     OW 6995   4.366   0.401   7.666
  699SOL    HW1 6996   4.447   0.368   7.619
  699SOL    HW2 6997   4.321   0.325   7.714
  700SOL     OW 6998   0.083   1.738   6.033
  700SOL    HW1 6999   0.108   1.671   5.963
  700SOL    HW2 7000   0.076   1.829   5.992
  701SOL     OW 7001   1.480   1.885   6.379
  701SOL    HW1 7002   1.408   1.874   6.448
  701SOL    HW2 7003   1.440   1.920   6.295
  702SOL     OW 7004   2.091   3.894   7.743
  702SOL    HW1 7005   2.078   3.870   7.647
  702SOL    HW2 7006   2.014   3.862   7.797
  703SOL     OW 7007   2.689   5.076   7.711
  703SOL    HW1 7008   2.617   5.009   7.692
  703SOL    HW2 7009   2.655   0.087   7.689
  704SOL     OW 7010   5.161   2.712   7.996
  704SOL    HW1 7011   5.062   2.699   8.001
  704SOL    HW2 7012   5.197   2.728   8.088
  705SOL     OW 7013   3.203   2.895   7.854
  705SOL    HW1 7014   3.218   2.978   7.800
  705SOL    HW2 7015   3.169   2.823   7.795
  706SOL     OW 7016   2.698   2.849   7.854
  706SOL    HW1 7017   2.709   2.877   7.949
  706SOL    HW2 7018   2.614   2.888   7.817
  707SOL     OW 7019   4.142   2.244   0.649
  707SOL    HW1 7020   4.177   2.324   0.696
  707SOL    HW2 7021   4.217   2.178   0.636
  708SOL     OW 7022   4.842   2.896   1.250
  708SOL    HW1 7023   4.896   2.844   1.317
  708SOL    HW2 7024   4.770   2.946   1.297
  709SOL     OW 7025   4.769   4.142   6.558
  709SOL    HW1 7026   4.677   4.181   6.552
  709SOL    HW2 7027   4.780   4.072   6.488
  710SOL     OW 7028   0.364   1.539   0.625
  710SOL    HW1 7029   0.299   1.584   0.686
  710SOL    HW2 7030   0.432   1.490   0.679
  711SOL     OW 7031   2.557   2.136   7.996
  711SOL    HW1 7032   2.575   2.234   8.002
  711SOL    HW2 7033   2.548   2.098   8.088
  712SOL     OW 7034   4.675   2.690   6.112
  712SOL    HW1 7035   4.595   2.703   6.053
  712SOL    HW2 7036   4.677   2.763   6.181
  713SOL     OW 7037   1.560   2.541   1.511
  713SOL    HW1 7038   1.510   2.624   1.535
  713SOL    HW2 7039   1.495   2.466   1.497
  714SOL     OW 7040   0.996   0.443   0.249
  714SOL    HW1 7041   1.006   0.427   0.347
  714SOL    HW2 7042   0.963   0.536   0.233
  715SOL     OW 7043   2.530   4.817   7.983
  715SOL    HW1 7044   2.624   4.807   8.018
  715SOL    HW2 7045   2.516   4.751   7.909
  716SOL     OW 7046   3.554   3.370   7.573
  716SOL    HW1 7047   3.516   3.459   7.600
  716SOL    HW2 7048   3.556   3.309   7.652
  717SOL     OW 7049   2.885   1.394   7.648
  717SOL    HW1 7050   2.977   1.426   7.627
  717SOL    HW2 7051   2.824   1.416   7.572
  718SOL     OW 7052   4.903   3.254   7.973
  718SOL    HW1 7053   4.898   3.336   7.915
  718SOL    HW2 7054   4.975   3.194   7.939
  719SOL     OW 7055   2.819   2.497   7.157
  719SOL    HW1 7056   2.913   2.468   7.142
  719SOL    HW2 7057   2.810   2.536   7.249
  720SOL     OW 7058   5.095   0.665   2.014
  720SOL    HW1 7059   5.047   0.750   1.991
  720SOL    HW2 7060   5.033   0.604   2.062
  721SOL     OW 7061   0.306   2.210   7.416
  721SOL    HW1 7062   0.284   2.215   7.513
  721SOL    HW2 7063   0.326   2.302   7.382
  722SOL     OW 7064   3.514   3.270   1.975
  722SOL    HW1 7065   3.597   3.282   2.030
  722SOL    HW2 7066   3.513   3.178   1.936
  723SOL     OW 7067   1.470   4.256   1.407
  723SOL    HW1 7068   1.552   4.199   1.417
  723SOL    HW2 7069   1.404   4.232   1.479
  724SOL     OW 7070   4.795   1.126   7.139
  724SOL    HW1 7071   4.699   1.149   7.122
  724SOL    HW2 7072   4.848   1.140   7.056
  725SOL     OW 7073   2.329   4.316   2.602
  725SOL    HW1 7074   2.355   4.407   2.568
  725SOL    HW2 7075   2.235   4.319   2.636
  726SOL     OW 7076   3.452   0.845   0.555
  726SOL    HW1 7077   3.450   0.843   0.455
  726SOL    HW2 7078   3.460   0.751   0.590
  727SOL     OW 7079   2.600   1.110   7.205
  727SOL    HW1 7080   2.574   1.108   7.301
  727SOL    HW2 7081   2.603   1.016   7.170
  728SOL     OW 7082   3.364   0.673   7.386
  728SOL    HW1 7083   3.360   0.591   7.329
  728SOL    HW2 7084   3.414   0.745   7.338
  729SOL     OW 7085   1.245   3.463   6.645
  729SOL    HW1 7086   1.316   3.393   6.656
  729SOL    HW2 7087   1.203   3.482   6.733
  730SOL     OW 7088   3.884   4.339   6.730
  730SOL    HW1 7089   3.894   4.291   6.817
  730SOL    HW2 7090   3.971   4.382   6.706
  731SOL     OW 7091   4.033   0.107   0.289
  731SOL    HW1 7092   4.030   0.205   0.306
  731SOL    HW2 7093   4.043   0.091   0.190
  732SOL     OW 7094   0.014   3.087   7.285
  732SOL    HW1 7095   0.100   3.050   7.250
  732SOL    HW2 7096   0.032   3.152   7.358
  733SOL     OW 7097   3.205   4.850   1.744
  733SOL    HW1 7098   3.122   4.868   1.690
  733SOL    HW2 7099   3.192   4.886   1.837
  734SOL     OW 7100   2.556   2.582   7.554
  734SOL    HW1 7101   2.547   2.532   7.640
  734SOL    HW2 7102   2.489   2.549   7.488
  735SOL     OW 7103   2.137   1.250   1.655
  735SOL    HW1 7104   2.074   1.213   1.722
  735SOL    HW2 7105   2.125   1.204   1.568
  736SOL     OW 7106   1.939   1.555   1.150
  736SOL    HW1 7107   1.961   1.495   1.073
  736SOL    HW2 7108   1.985   1.643   1.138
  737SOL     OW 7109   2.233   1.419   0.747
  737SOL    HW1 7110   2.197   1.393   0.657
  737SOL    HW2 7111   2.323   1.377   0.759
  738SOL     OW 7112   0.258   3.864   7.465
  738SOL    HW1 7113   0.257   3.827   7.372
  738SOL    HW2 7114   0.256   3.788   7.531
  739SOL     OW 7115   4.242   0.247   7.176
  739SOL    HW1 7116   4.252   0.183   7.100
  739SOL    HW2 7117   4.300   0.219   7.252
  740SOL     OW 7118   0.229   4.549   0.124
  740SOL    HW1 7119   0.312   4.507   0.088
  740SOL    HW2 7120   0.178   4.483   0.178
  741SOL     OW 7121   5.210   4.530   1.263
  741SOL    HW1 7122   5.221   4.480   1.349
  741SOL    HW2 7123   5.158   4.614   1.280
  742SOL     OW 7124   4.026   3.560   0.703
  742SOL    HW1 7125   4.101   3.529   0.762
  742SOL    HW2 7126   4.029   3.659   0.696
  743SOL     OW 7127   0.811   4.485   6.960
  743SOL    HW1 7128   0.848   4.444   7.043
  743SOL    HW2 7129   0.840   4.581   6.955
  744SOL     OW 7130   1.451   4.656   1.400
  744SOL    HW1 7131   1.375   4.680   1.340
  744SOL    HW2 7132   1.418   4.598   1.475
  745SOL     OW 7133   1.927   0.078   1.448
  745SOL    HW1 7134   1.831   0.070   1.421
  745SOL    HW2 7135   1.942   0.029   1.534
  746SOL     OW 7136   1.556   5.000   7.727
  746SOL    HW1 7137   1.628   5.055   7.684
  746SOL    HW2 7138   1.467   5.040   7.705
  747SOL     OW 7139   3.589   4.570   0.338
  747SOL    HW1 7140   3.521   4.522   0.393
  747SOL    HW2 7141   3.606   4.518   0.254
  748SOL     OW 7142   1.997   3.979   6.617
  748SOL    HW1 7143   2.031   4.039   6.689
  748SOL    HW2 7144   1.897   3.979   6.618
  749SOL     OW 7145   0.407   3.091   7.962
  749SOL    HW1 7146   0.331   3.026   7.961
  749SOL    HW2 7147   0.475   3.063   7.894
  750SOL     OW 7148   2.394   0.814   0.797
  750SOL    HW1 7149   2.295   0.809   0.783
  750SOL    HW2 7150   2.441   0.768   0.721
  751SOL     OW 7151   0.203   1.992   7.295
  751SOL    HW1 7152   0.234   2.077   7.337
  751SOL    HW2 7153   0.276   1.924   7.299
  752SOL     OW 7154   2.288   2.160   0.969
  752SOL    HW1 7155   2.349   2.130   0.895
  752SOL    HW2 7156   2.303   2.257   0.987
  753SOL     OW 7157   2.362   0.959   7.657
  753SOL    HW1 7158   2.368   0.916   7.747
  753SOL    HW2 7159   2.290   1.028   7.658
  754SOL     OW 7160   4.618   4.410   0.260
  754SOL    HW1 7161   4.599   4.420   0.162
  754SOL    HW2 7162   4.709   4.371   0.272
  755SOL     OW 7163   3.786   2.553   1.061
  755SOL    HW1 7164   3.868   2.518   1.106
  755SOL    HW2 7165   3.742   2.620   1.120
  756SOL     OW 7166   1.313   1.076   6.986
  756SOL    HW1 7167   1.372   1.069   6.905
  756SOL    HW2 7168   1.224   1.114   6.959
  757SOL     OW 7169   2.842   2.284   0.302
  757SOL    HW1 7170   2.916   2.225   0.335
  757SOL    HW2 7171   2.835   2.275   0.202
  758SOL     OW 7172   2.824   4.812   6.674
  758SOL    HW1 7173   2.878   4.731   6.693
  758SOL    HW2 7174   2.885   4.888   6.651
  759SOL     OW 7175   4.495   1.420   6.872
  759SOL    HW1 7176   4.411   1.389   6.826
  759SOL    HW2 7177   4.573   1.371   6.834
  760SOL     OW 7178   4.153   2.149   7.866
  760SOL    HW1 7179   4.240   2.149   7.915
  760SOL    HW2 7180   4.082   2.191   7.923
  761SOL     OW 7181   2.899   1.178   0.518
  761SOL    HW1 7182   2.865   1.134   0.435
  761SOL    HW2 7183   2.995   1.153   0.533
  762SOL     OW 7184   1.236   4.587   0.374
  762SOL    HW1 7185   1.234   4.646   0.454
  762SOL    HW2 7186   1.202   4.637   0.295
  763SOL     OW 7187   4.518   4.305   0.886
  763SOL    HW1 7188   4.575   4.388   0.892
  763SOL    HW2 7189   4.451   4.306   0.960
  764SOL     OW 7190   2.251   1.328   7.872
  764SOL    HW1 7191   2.351   1.327   7.859
  764SOL    HW2 7192   2.217   1.421   7.855
  765SOL     OW 7193   2.440   3.364   2.370
  765SOL    HW1 7194   2.404   3.273   2.349
  765SOL    HW2 7195   2.365   3.427   2.386
  766SOL     OW 7196   1.803   0.715   7.925
  766SOL    HW1 7197   1.875   0.701   7.993
  766SOL    HW2 7198   1.819   0.654   7.847
  767SOL     OW 7199   1.573   0.609   2.380
  767SOL    HW1 7200   1.652   0.620   2.320
  767SOL    HW2 7201   1.510   0.542   2.341
  768SOL     OW 7202   1.189   2.623   6.936
  768SOL    HW1 7203   1.276   2.600   6.892
  768SOL    HW2 7204   1.166   2.554   7.005
  769SOL     OW 7205   0.313   4.485   0.667
  769SOL    HW1 7206   0.236   4.501   0.730
  769SOL    HW2 7207   0.336   4.571   0.621
  770SOL     OW 7208   0.838   0.180   6.721
  770SOL    HW1 7209   0.784   0.114   6.772
  770SOL    HW2 7210   0.841   0.267   6.772
  771SOL     OW 7211   2.479   1.288   0.716
  771SOL    HW1 7212   2.491   1.318   0.622
  771SOL    HW2 7213   2.569   1.266   0.755
  772SOL     OW 7214   1.811   5.072   0.536
  772SOL    HW1 7215   1.744   0.053   0.495
  772SOL    HW2 7216   1.808   4.984   0.490
  773SOL     OW 7217   1.116   2.187   5.930
  773SOL    HW1 7218   1.042   2.212   5.867
  773SOL    HW2 7219   1.128   2.088   5.929
  774SOL     OW 7220   1.445   2.222   6.238
  774SOL    HW1 7221   1.492   2.209   6.326
  774SOL    HW2 7222   1.414   2.134   6.203
  775SOL     OW 7223   3.543   0.608   1.871
  775SOL    HW1 7224   3.589   0.694   1.894
  775SOL    HW2 7225   3.470   0.590   1.937
  776SOL     OW 7226   0.926   1.803   0.232
  776SOL    HW1 7227   0.991   1.852   0.290
  776SOL    HW2 7228   0.976   1.742   0.171
  777SOL     OW 7229   4.923   0.453   1.586
  777SOL    HW1 7230   4.934   0.360   1.623
  777SOL    HW2 7231   4.914   0.518   1.661
  778SOL     OW 7232   2.960   1.133   7.704
  778SOL    HW1 7233   2.912   1.220   7.696
  778SOL    HW2 7234   3.032   1.128   7.635
  779SOL     OW 7235   1.612   0.595   6.551
  779SOL    HW1 7236   1.678   0.643   6.492
  779SOL    HW2 7237   1.655   0.514   6.590
  780SOL     OW 7238   3.209   4.428   6.695
  780SOL    HW1 7239   3.194   4.392   6.787
  780SOL    HW2 7240   3.284   4.494   6.697
  781SOL     OW 7241   5.108   0.710   8.022
  781SOL    HW1 7242   5.077   0.629   7.973
  781SOL    HW2 7243   5.032   0.748   8.074
  782SOL     OW 7244   1.281   2.889   7.587
  782SOL    HW1 7245   1.182   2.904   7.599
  782SOL    HW2 7246   1.296   2.819   7.518
  783SOL     OW 7247   0.113   4.927   0.640
  783SOL    HW1 7248   0.212   4.939   0.625
  783SOL    HW2 7249   0.085   4.983   0.718
  784SOL     OW 7250   5.278   2.280   7.741
  784SOL    HW1 7251   5.219   2.357   7.769
  784SOL    HW2 7252   5.225   2.218   7.683
  785SOL     OW 7253   4.599   3.578   6.688
  785SOL    HW1 7254   4.507   3.558   6.723
  785SOL    HW2 7255   4.605   3.675   6.663
  786SOL     OW 7256   2.310   4.337   0.737
  786SOL    HW1 7257   2.238   4.302   0.677
  786SOL    HW2 7258   2.359   4.411   0.691
  787SOL     OW 7259   4.224   0.557   0.404
  787SOL    HW1 7260   4.265   0.647   0.404
  787SOL    HW2 7261   4.254   0.506   0.485
  788SOL     OW 7262   3.987   4.037   6.789
  788SOL    HW1 7263   4.072   4.080   6.760
  788SOL    HW2 7264   3.944   4.091   6.861
  789SOL     OW 7265   4.430   4.448   7.085
  789SOL    HW1 7266   4.396   4.495   7.167
  789SOL    HW2 7267   4.516   4.490   7.057
  790SOL     OW 7268   3.927   2.603   0.614
  790SOL    HW1 7269   3.903   2.526   0.672
  790SOL    HW2 7270   3.859   2.676   0.626
  791SOL     OW 7271   0.944   4.939   7.415
  791SOL    HW1 7272   0.935   4.855   7.362
  791SOL    HW2 7273   0.855   4.982   7.426
  792SOL     OW 7274   1.471   1.094   6.762
  792SOL    HW1 7275   1.566   1.072   6.739
  792SOL    HW2 7276   1.460   1.192   6.774
  793SOL     OW 7277   0.648   3.727   7.878
  793SOL    HW1 7278   0.562   3.713   7.927
  793SOL    HW2 7279   0.675   3.642   7.833
  794SOL     OW 7280   2.235   3.663   7.825
  794SOL    HW1 7281   2.214   3.759   7.808
  794SOL    HW2 7282   2.318   3.655   7.881
  795SOL     OW 7283   5.049   3.479   0.324
  795SOL    HW1 7284   4.996   3.504   0.405
  795SOL    HW2 7285   5.127   3.423   0.351
  796SOL     OW 7286   1.637   2.198   8.006
  796SOL    HW1 7287   1.594   2.221   8.093
  796SOL    HW2 7288   1.569   2.203   7.933
  797SOL     OW 7289   1.320   2.150   6.905
  797SOL    HW1 7290   1.358   2.122   6.818
  797SOL    HW2 7291   1.337   2.080   6.974
  798SOL     OW 7292   1.244   3.423   1.160
  798SOL    HW1 7293   1.204   3.515   1.163
  798SOL    HW2 7294   1.218   3.378   1.075
  799SOL     OW 7295   0.134   0.428   0.429
  799SOL    HW1 7296   0.106   0.492   0.500
  799SOL    HW2 7297   0.159   0.341   0.470
  800SOL     OW 7298   1.120   5.014   6.419
  800SOL    HW1 7299   1.191   5.026   6.349
  800SOL    HW2 7300   1.032   4.999   6.375
  801SOL     OW 7301   2.388   0.804   1.276
  801SOL    HW1 7302   2.429   0.886   1.314
  801SOL    HW2 7303   2.435   0.779   1.191
  802SOL     OW 7304   0.220   3.887   1.949
  802SOL    HW1 7305   0.143   3.918   2.004
  802SOL    HW2 7306   0.247   3.795   1.977
  803SOL     OW 7307   3.567   2.954   0.133
  803SOL    HW1 7308   3.576   3.050   0.159
  803SOL    HW2 7309   3.474   2.922   0.153
  804SOL     OW 7310   3.071   2.116   6.026
  804SOL    HW1 7311   3.077   2.035   5.968
  804SOL    HW2 7312   2.978   2.153   6.023
  805SOL     OW 7313   0.047   2.520   0.914
  805SOL    HW1 7314   0.114   2.453   0.884
  805SOL    HW2 7315   0.072   2.610   0.879
  806SOL     OW 7316   2.383   2.245   1.277
  806SOL    HW1 7317   2.313   2.317   1.272
  806SOL    HW2 7318   2.341   2.156   1.258
  807SOL     OW 7319   0.236   0.102   1.716
  807SOL    HW1 7320   0.219   0.080   1.812
  807SOL    HW2 7321   0.334   0.106   1.699
  808SOL     OW 7322   0.062   1.006   7.396
  808SOL    HW1 7323   5.258   0.988   7.343
  808SOL    HW2 7324   0.096   0.921   7.436
  809SOL     OW 7325   1.055   4.931   7.018
  809SOL    HW1 7326   1.106   4.985   6.952
  809SOL    HW2 7327   0.979   4.985   7.053
  810SOL     OW 7328   0.556   3.187   6.942
  810SOL    HW1 7329   0.551   3.187   7.042
  810SOL    HW2 7330   0.495   3.258   6.905
  811SOL     OW 7331   2.492   0.676   0.070
  811SOL    HW1 7332   2.476   0.762   0.118
  811SOL    HW2 7333   2.509   0.604   0.137
  812SOL     OW 7334   2.855   0.453   2.041
  812SOL    HW1 7335   2.795   0.512   1.988
  812SOL    HW2 7336   2.816   0.361   2.047
  813SOL     OW 7337   1.313   3.272   0.591
  813SOL    HW1 7338   1.275   3.223   0.669
  813SOL    HW2 7339   1.290   3.370   0.598
  814SOL     OW 7340   4.329   2.789   1.315
  814SOL    HW1 7341   4.352   2.885   1.329
  814SOL    HW2 7342   4.235   2.772   1.347
  815SOL     OW 7343   3.241   3.396   7.601
  815SOL    HW1 7344   3.232   3.375   7.504
  815SOL    HW2 7345   3.313   3.463   7.615
  816SOL     OW 7346   1.574   1.367   0.193
  816SOL    HW1 7347   1.592   1.371   0.095
  816SOL    HW2 7348   1.546   1.458   0.225
  817SOL     OW 7349   0.450   0.339   7.013
  817SOL    HW1 7350   0.444   0.434   6.982
  817SOL    HW2 7351   0.527   0.329   7.075
  818SOL     OW 7352   1.798   3.396   5.985
  818SOL    HW1 7353   1.742   3.317   6.011
  818SOL    HW2 7354   1.746   3.453   5.921
  819SOL     OW 7355   0.592   2.009   7.725
  819SOL    HW1 7356   0.672   1.959   7.690
  819SOL    HW2 7357   0.510   1.980   7.675
  820SOL     OW 7358   2.789   4.641   7.126
  820SOL    HW1 7359   2.878   4.595   7.131
  820SOL    HW2 7360   2.792   4.724   7.183
  821SOL     OW 7361   3.602   0.370   7.156
  821SOL    HW1 7362   3.578   0.359   7.060
  821SOL    HW2 7363   3.671   0.442   7.166
  822SOL     OW 7364   0.347   2.471   1.894
  822SOL    HW1 7365   0.437   2.431   1.914
  822SOL    HW2 7366   0.330   2.547   1.956
  823SOL     OW 7367   0.997   2.721   1.129
  823SOL    HW1 7368   1.038   2.813   1.125
  823SOL    HW2 7369   0.923   2.720   1.196
  824SOL     OW 7370   1.309   1.675   6.767
  824SOL    HW1 7371   1.379   1.698   6.835
  824SOL    HW2 7372   1.233   1.629   6.812
  825SOL     OW 7373   0.077   1.925   6.604
  825SOL    HW1 7374   0.007   1.921   6.676
  825SOL    HW2 7375   0.037   1.964   6.521
  826SOL     OW 7376   2.796   3.527   1.737
  826SOL    HW1 7377   2.844   3.559   1.819
  826SOL    HW2 7378   2.845   3.450   1.698
  827SOL     OW 7379   1.464   3.599   1.510
  827SOL    HW1 7380   1.366   3.612   1.531
  827SOL    HW2 7381   1.474   3.530   1.439
  828SOL     OW 7382   4.565   4.007   7.602
  828SOL    HW1 7383   4.662   4.027   7.587
  828SOL    HW2 7384   4.556   3.938   7.674
  829SOL     OW 7385   3.951   3.380   7.476
  829SOL    HW1 7386   4.023   3.444   7.502
  829SOL    HW2 7387   3.877   3.429   7.430
  830SOL     OW 7388   3.160   3.706   7.922
  830SOL    HW1 7389   3.132   3.664   7.835
  830SOL    HW2 7390   3.259   3.713   7.925
  831SOL     OW 7391   0.829   5.070   7.094
  831SOL    HW1 7392   0.842   0.063   7.160
  831SOL    HW2 7393   0.781   0.025   7.014
  832SOL     OW 7394   2.730   0.771   2.962
  832SOL    HW1 7395   2.670   0.810   2.892
  832SOL    HW2 7396   2.691   0.787   3.052
  833SOL     OW 7397   0.101   1.557   0.042
  833SOL    HW1 7398   0.195   1.539   0.073
  833SOL    HW2 7399   0.079   1.495   8.111
  834SOL     OW 7400   3.631   2.298   7.562
  834SOL    HW1 7401   3.626   2.258   7.470
  834SOL    HW2 7402   3.545   2.280   7.610
  835SOL     OW 7403   1.279   2.706   6.492
  835SOL    HW1 7404   1.230   2.721   6.407
  835SOL    HW2 7405   1.216   2.711   6.569
  836SOL     OW 7406   4.497   2.066   7.980
  836SOL    HW1 7407   4.542   2.028   7.899
  836SOL    HW2 7408   4.555   2.137   8.020
  837SOL     OW 7409   3.531   5.008   6.557
  837SOL    HW1 7410   3.578   5.006   6.645
  837SOL    HW2 7411   3.597   5.026   6.484
  838SOL     OW 7412   4.451   2.205   1.070
  838SOL    HW1 7413   4.474   2.186   1.166
  838SOL    HW2 7414   4.352   2.197   1.058
  839SOL     OW 7415   4.129   3.537   7.988
  839SOL    HW1 7416   4.050   3.491   7.948
  839SOL    HW2 7417   4.101   3.625   8.026
  840SOL     OW 7418   0.671   3.480   7.759
  840SOL    HW1 7419   0.585   3.488   7.709
  840SOL    HW2 7420   0.693   3.383   7.773
  841SOL     OW 7421   3.272   0.323   2.037
  841SOL    HW1 7422   3.299   0.288   2.127
  841SOL    HW2 7423   3.298   0.419   2.030
  842SOL     OW 7424   4.097   1.112   1.529
  842SOL    HW1 7425   4.089   1.197   1.582
  842SOL    HW2 7426   4.097   1.034   1.592
  843SOL     OW 7427   2.947   4.945   1.697
  843SOL    HW1 7428   2.869   4.899   1.655
  843SOL    HW2 7429   2.943   4.935   1.796
  844SOL     OW 7430   1.723   0.397   0.373
  844SOL    HW1 7431   1.766   0.426   0.458
  844SOL    HW2 7432   1.655   0.464   0.345
  845SOL     OW 7433   4.271   1.224   6.981
  845SOL    HW1 7434   4.234   1.272   6.902
  845SOL    HW2 7435   4.276   1.287   7.059
  846SOL     OW 7436   1.223   1.557   1.191
  846SOL    HW1 7437   1.203   1.550   1.093
  846SOL    HW2 7438   1.184   1.479   1.239
  847SOL     OW 7439   0.949   2.991   6.400
  847SOL    HW1 7440   1.005   2.992   6.483
  847SOL    HW2 7441   0.966   3.074   6.348
  848SOL     OW 7442   4.601   3.854   6.640
  848SOL    HW1 7443   4.673   3.868   6.708
  848SOL    HW2 7444   4.625   3.903   6.556
  849SOL     OW 7445   5.049   2.977   1.087
  849SOL    HW1 7446   4.974   2.965   1.152
  849SOL    HW2 7447   5.121   2.910   1.106
  850SOL     OW 7448   4.787   3.305   1.261
  850SOL    HW1 7449   4.857   3.248   1.304
  850SOL    HW2 7450   4.727   3.248   1.204
  851SOL     OW 7451   1.453   4.446   0.501
  851SOL    HW1 7452   1.384   4.497   0.449
  851SOL    HW2 7453   1.414   4.419   0.589
  852SOL     OW 7454   1.517   3.994   7.198
  852SOL    HW1 7455   1.602   4.036   7.164
  852SOL    HW2 7456   1.439   4.048   7.168
  853SOL     OW 7457   2.655   0.990   1.630
  853SOL    HW1 7458   2.660   1.089   1.646
  853SOL    HW2 7459   2.739   0.959   1.587
  854SOL     OW 7460   0.638   5.073   1.188
  854SOL    HW1 7461   0.688   4.994   1.151
  854SOL    HW2 7462   0.660   0.003   1.285
  855SOL     OW 7463   1.491   4.539   7.881
  855SOL    HW1 7464   1.407   4.490   7.905
  855SOL    HW2 7465   1.553   4.539   7.960
  856SOL     OW 7466   3.177   3.277   1.774
  856SOL    HW1 7467   3.242   3.322   1.713
  856SOL    HW2 7468   3.203   3.293   1.869
  857SOL     OW 7469   3.359   0.409   7.281
  857SOL    HW1 7470   3.363   0.354   7.364
  857SOL    HW2 7471   3.442   0.395   7.228
  858SOL     OW 7472   0.419   4.389   6.690
  858SOL    HW1 7473   0.417   4.369   6.591
  858SOL    HW2 7474   0.503   4.438   6.712
  859SOL     OW 7475   0.048   2.977   0.634
  859SOL    HW1 7476   0.113   3.041   0.674
  859SOL    HW2 7477   0.029   3.003   0.540
  860SOL     OW 7478   2.484   4.527   0.623
  860SOL    HW1 7479   2.477   4.609   0.567
  860SOL    HW2 7480   2.508   4.449   0.565
  861SOL     OW 7481   3.475   2.499   0.209
  861SOL    HW1 7482   3.543   2.571   0.225
  861SOL    HW2 7483   3.399   2.536   0.155
  862SOL     OW 7484   1.292   4.723   8.073
  862SOL    HW1 7485   1.243   4.681   7.997
  862SOL    HW2 7486   1.353   4.794   8.039
  863SOL     OW 7487   4.397   1.751   6.594
  863SOL    HW1 7488   4.489   1.773   6.626
  863SOL    HW2 7489   4.392   1.766   6.495
  864SOL     OW 7490   2.238   0.916   1.569
  864SOL    HW1 7491   2.232   0.823   1.535
  864SOL    HW2 7492   2.242   0.914   1.669
  865SOL     OW 7493   1.298   2.615   0.661
  865SOL    HW1 7494   1.331   2.685   0.598
  865SOL    HW2 7495   1.375   2.570   0.706
  866SOL     OW 7496   0.881   0.232   1.869
  866SOL    HW1 7497   0.909   0.272   1.956
  866SOL    HW2 7498   0.782   0.238   1.860
  867SOL     OW 7499   0.188   0.809   7.787
  867SOL    HW1 7500   0.100   0.844   7.820
  867SOL    HW2 7501   0.197   0.713   7.814
  868SOL     OW 7502   4.017   0.381   0.312
  868SOL    HW1 7503   4.087   0.440   0.354
  868SOL    HW2 7504   3.977   0.428   0.233
  869SOL     OW 7505   4.707   0.116   7.741
  869SOL    HW1 7506   4.631   0.068   7.784
  869SOL    HW2 7507   4.729   0.073   7.653
  870SOL     OW 7508   5.249   2.013   6.373
  870SOL    HW1 7509   5.233   1.930   6.320
  870SOL    HW2 7510   5.167   2.071   6.368
  871SOL     OW 7511   0.429   4.937   0.030
  871SOL    HW1 7512   0.370   4.895   0.099
  871SOL    HW2 7513   0.525   4.914   0.048
  872SOL     OW 7514   0.987   1.572   6.636
  872SOL    HW1 7515   0.899   1.537   6.605
  872SOL    HW2 7516   0.978   1.670   6.656
  873SOL     OW 7517   4.896   0.592   7.306
  873SOL    HW1 7518   4.905   0.507   7.359
  873SOL    HW2 7519   4.799   0.616   7.299
  874SOL     OW 7520   3.994   4.735   6.591
  874SOL    HW1 7521   3.908   4.687   6.575
  874SOL    HW2 7522   4.016   4.792   6.512
  875SOL     OW 7523   3.780   2.598   6.674
  875SOL    HW1 7524   3.689   2.592   6.634
  875SOL    HW2 7525   3.814   2.507   6.695
  876SOL     OW 7526   4.103   4.220   7.870
  876SOL    HW1 7527   4.011   4.210   7.906
  876SOL    HW2 7528   4.158   4.275   7.933
  877SOL     OW 7529   0.469   3.976   7.606
  877SOL    HW1 7530   0.394   3.950   7.545
  877SOL    HW2 7531   0.445   3.954   7.701
  878SOL     OW 7532   2.009   0.689   8.121
  878SOL    HW1 7533   2.088   0.737   8.085
  878SOL    HW2 7534   2.033   0.594   8.141
  879SOL     OW 7535   2.189   3.179   1.394
  879SOL    HW1 7536   2.256   3.252   1.413
  879SOL    HW2 7537   2.117   3.215   1.335
  880SOL     OW 7538   5.119   4.838   7.477
  880SOL    HW1 7539   5.174   4.864   7.556
  880SOL    HW2 7540   5.120   4.913   7.410
  881SOL     OW 7541   2.249   2.541   0.684
  881SOL    HW1 7542   2.295   2.580   0.604
  881SOL    HW2 7543   2.317   2.517   0.753
  882SOL     OW 7544   2.861   1.512   7.003
  882SOL    HW1 7545   2.942   1.510   6.945
  882SOL    HW2 7546   2.839   1.419   7.034
  883SOL     OW 7547   0.921   0.025   8.124
  883SOL    HW1 7548   0.831   0.051   0.014
  883SOL    HW2 7549   0.959   5.031   0.034
  884SOL     OW 7550   1.359   1.980   6.147
  884SOL    HW1 7551   1.277   1.967   6.091
  884SOL    HW2 7552   1.434   1.927   6.110
  885SOL     OW 7553   4.265   2.640   7.372
  885SOL    HW1 7554   4.327   2.605   7.302
  885SOL    HW2 7555   4.191   2.691   7.328
  886SOL     OW 7556   3.131   2.182   1.018
  886SOL    HW1 7557   3.110   2.132   0.935
  886SOL    HW2 7558   3.174   2.120   1.084
  887SOL     OW 7559   0.313   1.306   6.452
  887SOL    HW1 7560   0.374   1.272   6.381
  887SOL    HW2 7561   0.255   1.378   6.414
  888SOL     OW 7562   2.518   0.645   6.534
  888SOL    HW1 7563   2.546   0.711   6.464
  888SOL    HW2 7564   2.443   0.589   6.500
  889SOL     OW 7565   1.892   0.670   0.478
  889SOL    HW1 7566   1.898   0.581   0.521
  889SOL    HW2 7567   1.871   0.740   0.547
  890SOL     OW 7568   2.524   0.824   1.803
  890SOL    HW1 7569   2.558   0.843   1.895
  890SOL    HW2 7570   2.570   0.884   1.738
  891SOL     OW 7571   2.744   2.576   1.737
  891SOL    HW1 7572   2.734   2.674   1.720
  891SOL    HW2 7573   2.802   2.536   1.666
  892SOL     OW 7574   0.542   1.377   0.757
  892SOL    HW1 7575   0.596   1.431   0.821
  892SOL    HW2 7576   0.599   1.305   0.717
  893SOL     OW 7577   4.905   3.957   7.318
  893SOL    HW1 7578   4.863   3.955   7.228
  893SOL    HW2 7579   4.994   4.002   7.313
  894SOL     OW 7580   1.650   0.233   8.109
  894SOL    HW1 7581   1.691   0.200   8.023
  894SOL    HW2 7582   1.723   0.268   0.024
  895SOL     OW 7583   1.632   0.576   1.013
  895SOL    HW1 7584   1.627   0.659   1.068
  895SOL    HW2 7585   1.611   0.497   1.070
  896SOL     OW 7586   2.897   3.281   7.494
  896SOL    HW1 7587   2.917   3.366   7.445
  896SOL    HW2 7588   2.843   3.301   7.575
  897SOL     OW 7589   5.225   0.011   6.951
  897SOL    HW1 7590   0.035   0.032   6.910
  897SOL    HW2 7591   5.160   0.084   6.930
  898SOL     OW 7592   4.752   0.331   1.285
  898SOL    HW1 7593   4.670   0.288   1.247
  898SOL    HW2 7594   4.772   0.292   1.375
  899SOL     OW 7595   4.758   3.018   7.981
  899SOL    HW1 7596   4.748   3.001   7.883
  899SOL    HW2 7597   4.791   3.112   7.995
  900SOL     OW 7598   2.995   3.326   1.021
  900SOL    HW1 7599   3.030   3.270   0.946
  900SOL    HW2 7600   2.924   3.387   0.987
  901SOL     OW 7601   3.093   1.107   1.545
  901SOL    HW1 7602   3.043   1.157   1.474
  901SOL    HW2 7603   3.172   1.161   1.574
  902SOL     OW 7604   5.266   2.309   6.551
  902SOL    HW1 7605   5.251   2.387   6.612
  902SOL    HW2 7606   0.072   2.262   6.576
  903SOL     OW 7607   0.715   0.350   0.431
  903SOL    HW1 7608   0.763   0.428   0.471
  903SOL    HW2 7609   0.714   0.360   0.332
  904SOL     OW 7610   3.716   4.185   0.261
  904SOL    HW1 7611   3.754   4.103   0.217
  904SOL    HW2 7612   3.701   4.256   0.192
  905SOL     OW 7613   2.446   2.098   0.761
  905SOL    HW1 7614   2.530   2.153   0.763
  905SOL    HW2 7615   2.418   2.084   0.667
  906SOL     OW 7616   1.886   2.790   0.525
  906SOL    HW1 7617   1.942   2.730   0.582
  906SOL    HW2 7618   1.885   2.882   0.565
  907SOL     OW 7619   4.771   1.943   1.213
  907SOL    HW1 7620   4.711   1.948   1.134
  907SOL    HW2 7621   4.716   1.935   1.296
  908SOL     OW 7622   3.732   2.201   1.049
  908SOL    HW1 7623   3.822   2.183   1.010
  908SOL    HW2 7624   3.738   2.199   1.149
  909SOL     OW 7625   2.805   1.556   1.248
  909SOL    HW1 7626   2.793   1.496   1.328
  909SOL    HW2 7627   2.798   1.651   1.277
  910SOL     OW 7628   3.882   4.254   1.151
  910SOL    HW1 7629   3.891   4.187   1.225
  910SOL    HW2 7630   3.953   4.323   1.160
  911SOL     OW 7631   0.036   4.899   0.364
  911SOL    HW1 7632   0.053   4.922   0.460
  911SOL    HW2 7633   0.002   4.980   0.316
  912SOL     OW 7634   2.643   3.163   7.913
  912SOL    HW1 7635   2.585   3.102   7.861
  912SOL    HW2 7636   2.591   3.244   7.941
  913SOL     OW 7637   3.183   0.920   0.963
  913SOL    HW1 7638   3.171   0.821   0.972
  913SOL    HW2 7639   3.120   0.955   0.893
  914SOL     OW 7640   2.294   0.903   2.804
  914SOL    HW1 7641   2.216   0.860   2.759
  914SOL    HW2 7642   2.264   0.943   2.891
  915SOL     OW 7643   1.862   3.958   0.646
  915SOL    HW1 7644   1.772   3.998   0.660
  915SOL    HW2 7645   1.855   3.876   0.589
  916SOL     OW 7646   4.157   0.736   1.444
  916SOL    HW1 7647   4.191   0.792   1.368
  916SOL    HW2 7648   4.147   0.793   1.525
  917SOL     OW 7649   0.518   1.652   0.324
  917SOL    HW1 7650   0.567   1.684   0.404
  917SOL    HW2 7651   0.419   1.659   0.340
  918SOL     OW 7652   0.698   4.875   0.049
  918SOL    HW1 7653   0.698   4.913   8.101
  918SOL    HW2 7654   0.758   4.795   0.052
  919SOL     OW 7655   2.779   1.801   1.358
  919SOL    HW1 7656   2.700   1.846   1.316
  919SOL    HW2 7657   2.813   1.856   1.435
  920SOL     OW 7658   2.033   2.952   6.501
  920SOL    HW1 7659   1.933   2.944   6.501
  920SOL    HW2 7660   2.060   3.030   6.557
  921SOL     OW 7661   2.219   0.795   0.367
  921SOL    HW1 7662   2.130   0.801   0.321
  921SOL    HW2 7663   2.236   0.700   0.393
  922SOL     OW 7664   5.061   4.511   7.704
  922SOL    HW1 7665   5.003   4.574   7.755
  922SOL    HW2 7666   5.128   4.469   7.766
  923SOL     OW 7667   0.976   1.921   7.963
  923SOL    HW1 7668   1.017   1.917   7.872
  923SOL    HW2 7669   0.905   1.852   7.972
  924SOL     OW 7670   0.170   0.659   0.215
  924SOL    HW1 7671   0.128   0.721   0.149
  924SOL    HW2 7672   0.184   0.708   0.302
  925SOL     OW 7673   5.113   1.592   0.143
  925SOL    HW1 7674   5.205   1.585   0.103
  925SOL    HW2 7675   5.052   1.636   0.078
  926SOL     OW 7676   2.419   1.160   6.751
  926SOL    HW1 7677   2.446   1.141   6.657
  926SOL    HW2 7678   2.452   1.251   6.777
  927SOL     OW 7679   3.664   3.916   0.033
  927SOL    HW1 7680   3.661   3.828   8.131
  927SOL    HW2 7681   3.736   3.916   0.102
  928SOL     OW 7682   0.497   0.457   6.536
  928SOL    HW1 7683   0.495   0.496   6.444
  928SOL    HW2 7684   0.553   0.374   6.535
  929SOL     OW 7685   4.400   4.656   0.038
  929SOL    HW1 7686   4.455   4.687   0.115
  929SOL    HW2 7687   4.410   4.557   0.028
  930SOL     OW 7688   4.528   1.176   7.114
  930SOL    HW1 7689   4.462   1.217   7.051
  930SOL    HW2 7690   4.484   1.102   7.165
  931SOL     OW 7691   4.956   1.999   0.641
  931SOL    HW1 7692   4.948   2.044   0.552
  931SOL    HW2 7693   4.970   2.068   0.712
  932SOL     OW 7694   3.939   2.252   8.011
  932SOL    HW1 7695   3.851   2.211   8.034
  932SOL    HW2 7696   3.925   2.335   7.958
  933SOL     OW 7697   2.587   4.010   0.286
  933SOL    HW1 7698   2.575   4.067   0.206
  933SOL    HW2 7699   2.509   4.021   0.348
  934SOL     OW 7700   3.970   4.628   1.082
  934SOL    HW1 7701   3.934   4.670   1.166
  934SOL    HW2 7702   4.034   4.555   1.106
  935SOL     OW 7703   2.717   0.150   1.396
  935SOL    HW1 7704   2.657   0.122   1.321
  935SOL    HW2 7705   2.722   0.249   1.400
  936SOL     OW 7706   4.355   3.178   8.044
  936SOL    HW1 7707   4.286   3.234   8.090
  936SOL    HW2 7708   4.360   3.202   7.947
  937SOL     OW 7709   4.940   3.883   7.744
  937SOL    HW1 7710   5.032   3.887   7.784
  937SOL    HW2 7711   4.932   3.952   7.672
  938SOL     OW 7712   2.384   2.976   5.751
  938SOL    HW1 7713   2.442   3.055   5.771
  938SOL    HW2 7714   2.432   2.892   5.779
  939SOL     OW 7715   4.902   4.548   0.891
  939SOL    HW1 7716   4.802   4.550   0.883
  939SOL    HW2 7717   4.929   4.463   0.936
  940SOL     OW 7718   1.882   4.799   1.555
  940SOL    HW1 7719   1.980   4.808   1.538
  940SOL    HW2 7720   1.853   4.705   1.535
  941SOL     OW 7721   4.233   3.965   8.109
  941SOL    HW1 7722   4.167   4.034   8.137
  941SOL    HW2 7723   4.300   4.005   8.047
  942SOL     OW 7724   1.592   1.394   0.635
  942SOL    HW1 7725   1.601   1.485   0.594
  942SOL    HW2 7726   1.641   1.391   0.722
  943SOL     OW 7727   4.999   1.951   8.030
  943SOL    HW1 7728   5.051   2.007   8.094
  943SOL    HW2 7729   4.941   2.010   7.974
  944SOL     OW 7730   2.890   4.475   8.139
  944SOL    HW1 7731   2.793   4.469   8.118
  944SOL    HW2 7732   2.943   4.436   8.064
  945SOL     OW 7733   1.742   4.110   7.058
  945SOL    HW1 7734   1.829   4.059   7.058
  945SOL    HW2 7735   1.761   4.208   7.057
  946SOL     OW 7736   4.133   1.957   0.791
  946SOL    HW1 7737   4.211   1.977   0.733
  946SOL    HW2 7738   4.066   1.903   0.740
  947SOL     OW 7739   3.516   1.647   7.207
  947SOL    HW1 7740   3.486   1.567   7.154
  947SOL    HW2 7741   3.519   1.727   7.148
  948SOL     OW 7742   0.610   0.930   1.158
  948SOL    HW1 7743   0.662   0.978   1.229
  948SOL    HW2 7744   0.541   0.992   1.120
  949SOL     OW 7745   1.283   4.739   1.954
  949SOL    HW1 7746   1.271   4.641   1.968
  949SOL    HW2 7747   1.323   4.780   2.036
  950SOL     OW 7748   5.086   3.038   7.945
  950SOL    HW1 7749   5.041   2.979   8.011
  950SOL    HW2 7750   5.172   3.072   7.983
  951SOL     OW 7751   2.262   0.898   1.837
  951SOL    HW1 7752   2.358   0.874   1.826
  951SOL    HW2 7753   2.250   0.950   1.922
  952SOL     OW 7754   2.980   0.156   7.523
  952SOL    HW1 7755   2.888   0.196   7.520
  952SOL    HW2 7756   3.044   0.224   7.559
  953SOL     OW 7757   2.578   3.454   6.884
  953SOL    HW1 7758   2.481   3.450   6.907
  953SOL    HW2 7759   2.600   3.382   6.818
  954SOL     OW 7760   0.130   4.618   1.096
  954SOL    HW1 7761   0.060   4.585   1.159
  954SOL    HW2 7762   0.220   4.597   1.132
  955SOL     OW 7763   2.868   4.984   7.520
  955SOL    HW1 7764   2.800   5.000   7.591
  955SOL    HW2 7765   2.927   5.065   7.512
  956SOL     OW 7766   4.477   1.735   0.978
  956SOL    HW1 7767   4.540   1.812   0.963
  956SOL    HW2 7768   4.451   1.696   0.890
  957SOL     OW 7769   1.556   3.444   1.928
  957SOL    HW1 7770   1.618   3.459   2.005
  957SOL    HW2 7771   1.469   3.408   1.961
  958SOL     OW 7772   0.260   1.690   7.046
  958SOL    HW1 7773   0.331   1.641   7.097
  958SOL    HW2 7774   0.177   1.695   7.100
  959SOL     OW 7775   0.397   1.809   7.334
  959SOL    HW1 7776   0.420   1.729   7.279
  959SOL    HW2 7777   0.431   1.796   7.427
  960SOL     OW 7778   2.228   2.775   6.415
  960SOL    HW1 7779   2.157   2.830   6.459
  960SOL    HW2 7780   2.186   2.693   6.375
  961SOL     OW 7781   2.627   4.445   6.744
  961SOL    HW1 7782   2.644   4.373   6.810
  961SOL    HW2 7783   2.634   4.534   6.788
  962SOL     OW 7784   2.714   1.477   7.449
  962SOL    HW1 7785   2.682   1.554   7.505
  962SOL    HW2 7786   2.648   1.460   7.376
  963SOL     OW 7787   2.976   3.937   0.110
  963SOL    HW1 7788   2.956   4.033   0.132
  963SOL    HW2 7789   3.052   3.905   0.166
  964SOL     OW 7790   3.016   0.607   0.713
  964SOL    HW1 7791   3.095   0.595   0.653
  964SOL    HW2 7792   2.970   0.693   0.690
  965SOL     OW 7793   3.660   4.997   6.801
  965SOL    HW1 7794   3.729   5.067   6.819
  965SOL    HW2 7795   3.683   4.914   6.852
  966SOL     OW 7796   0.745   1.789   6.603
  966SOL    HW1 7797   0.823   1.823   6.656
  966SOL    HW2 7798   0.764   1.802   6.505
  967SOL     OW 7799   1.003   3.576   7.828
  967SOL    HW1 7800   0.950   3.581   7.912
  967SOL    HW2 7801   1.048   3.486   7.823
  968SOL     OW 7802   0.934   3.228   7.642
  968SOL    HW1 7803   0.996   3.270   7.709
  968SOL    HW2 7804   0.842   3.224   7.680
  969SOL     OW 7805   3.533   0.134   0.896
  969SOL    HW1 7806   3.441   0.104   0.923
  969SOL    HW2 7807   3.601   0.087   0.952
  970SOL     OW 7808   3.729   0.339   0.058
  970SOL    HW1 7809   3.631   0.356   0.047
  970SOL    HW2 7810   3.745   0.240   0.062
  971SOL     OW 7811   1.668   1.336   6.957
  971SOL    HW1 7812   1.591   1.367   6.902
  971SOL    HW2 7813   1.637   1.269   7.024
  972SOL     OW 7814   0.672   2.815   8.131
  972SOL    HW1 7815   0.660   2.868   0.070
  972SOL    HW2 7816   0.741   2.744   0.001
  973SOL     OW 7817   1.844   1.956   1.521
  973SOL    HW1 7818   1.791   1.961   1.606
  973SOL    HW2 7819   1.939   1.933   1.542
  974SOL     OW 7820   4.301   4.928   0.831
  974SOL    HW1 7821   4.235   4.902   0.761
  974SOL    HW2 7822   4.385   4.961   0.787
  975SOL     OW 7823   5.054   4.074   0.877
  975SOL    HW1 7824   5.080   4.053   0.971
  975SOL    HW2 7825   5.081   4.168   0.856
  976SOL     OW 7826   5.071   1.393   6.904
  976SOL    HW1 7827   5.037   1.470   6.958
  976SOL    HW2 7828   5.171   1.396   6.902
  977SOL     OW 7829   4.073   2.826   8.051
  977SOL    HW1 7830   4.164   2.859   8.026
  977SOL    HW2 7831   4.034   2.887   8.120
  978SOL     OW 7832   0.926   2.365   0.801
  978SOL    HW1 7833   0.837   2.354   0.756
  978SOL    HW2 7834   0.945   2.284   0.856
  979SOL     OW 7835   0.397   3.817   0.342
  979SOL    HW1 7836   0.320   3.775   0.391
  979SOL    HW2 7837   0.450   3.873   0.405
  980SOL     OW 7838   2.147   0.124   8.130
  980SOL    HW1 7839   2.238   0.160   0.008
  980SOL    HW2 7840   2.157   0.032   8.093
  981SOL     OW 7841   4.901   4.618   6.660
  981SOL    HW1 7842   4.979   4.676   6.685
  981SOL    HW2 7843   4.836   4.671   6.606
  982SOL     OW 7844   1.671   4.628   0.522
  982SOL    HW1 7845   1.696   4.647   0.617
  982SOL    HW2 7846   1.590   4.569   0.520
  983SOL     OW 7847   5.088   3.114   0.148
  983SOL    HW1 7848   5.045   3.035   0.104
  983SOL    HW2 7849   5.024   3.191   0.149
  984SOL     OW 7850   3.288   0.064   7.696
  984SOL    HW1 7851   3.212   0.053   7.760
  984SOL    HW2 7852   3.279   5.079   7.621
  985SOL     OW 7853   1.527   2.243   0.951
  985SOL    HW1 7854   1.562   2.316   1.010
  985SOL    HW2 7855   1.571   2.156   0.975
  986SOL     OW 7856   0.246   3.590   0.752
  986SOL    HW1 7857   0.289   3.501   0.735
  986SOL    HW2 7858   0.221   3.597   0.849
  987SOL     OW 7859   0.337   5.063   7.268
  987SOL    HW1 7860   0.309   0.069   7.226
  987SOL    HW2 7861   0.432   5.043   7.244
  988SOL     OW 7862   0.222   0.283   7.433
  988SOL    HW1 7863   0.236   0.272   7.335
  988SOL    HW2 7864   0.142   0.230   7.461
  989SOL     OW 7865   4.042   5.030   7.024
  989SOL    HW1 7866   4.025   4.957   6.958
  989SOL    HW2 7867   4.128   5.075   7.002
  990SOL     OW 7868   3.561   3.220   0.208
  990SOL    HW1 7869   3.500   3.199   0.285
  990SOL    HW2 7870   3.520   3.292   0.152
  991SOL     OW 7871   1.440   0.085   0.062
  991SOL    HW1 7872   1.518   0.140   0.031
  991SOL    HW2 7873   1.373   0.079   8.133
  992SOL     OW 7874   4.641   1.673   8.070
  992SOL    HW1 7875   4.611   1.591   8.118
  992SOL    HW2 7876   4.643   1.656   7.971
  993SOL     OW 7877   3.282   1.081   6.668
  993SOL    HW1 7878   3.281   1.021   6.588
  993SOL    HW2 7879   3.345   1.044   6.736
  994SOL     OW 7880   0.909   4.196   6.535
  994SOL    HW1 7881   0.895   4.159   6.443
  994SOL    HW2 7882   0.991   4.155   6.575
  995SOL     OW 7883   2.719   4.491   7.712
  995SOL    HW1 7884   2.817   4.511   7.722
  995SOL    HW2 7885   2.699   4.400   7.749
  996SOL     OW 7886   4.317   1.569   0.405
  996SOL    HW1 7887   4.233   1.515   0.407
  996SOL    HW2 7888   4.396   1.509   0.410
  997SOL     OW 7889   5.150   4.341   0.835
  997SOL    HW1 7890   5.103   4.380   0.756
  997SOL    HW2 7891   5.241   4.383   0.844
  998SOL     OW 7892   4.918   1.708   8.130
  998SOL    HW1 7893   4.947   1.797   8.094
  998SOL    HW2 7894   4.821   1.694   8.109
  999SOL     OW 7895   2.586   3.117   2.174
  999SOL    HW1 7896   2.632   3.030   2.191
  999SOL    HW2 7897   2.502   3.121   2.228
 1000SOL     OW 7898   0.188   0.326   0.162
 1000SOL    HW1 7899   0.167   0.372   0.249
 1000SOL    HW2 7900   0.206   0.394   0.092
 1001SOL     OW 7901   1.856   1.782   7.465
 1001SOL    HW1 7902   1.817   1.709   7.521
 1001SOL    HW2 7903   1.930   1.827   7.515
 1002SOL     OW 7904   2.516   0.462   0.248
 1002SOL    HW1 7905   2.600   0.408   0.249
 1002SOL    HW2 7906   2.489   0.484   0.342
 1003SOL     OW 7907   4.540   2.959   7.049
 1003SOL    HW1 7908   4.554   3.058   7.042
 1003SOL    HW2 7909   4.579   2.926   7.135
 1004SOL     OW 7910   5.259   1.279   7.372
 1004SOL    HW1 7911   0.005   1.184   7.386
 1004SOL    HW2 7912   5.184   1.304   7.433
 1005SOL     OW 7913   4.108   0.606   1.134
 1005SOL    HW1 7914   4.034   0.576   1.074
 1005SOL    HW2 7915   4.161   0.527   1.164
 1006SOL     OW 7916   4.382   0.981   6.892
 1006SOL    HW1 7917   4.481   0.984   6.882
 1006SOL    HW2 7918   4.349   1.069   6.926
 1007SOL     OW 7919   4.718   3.958   6.355
 1007SOL    HW1 7920   4.669   3.878   6.320
 1007SOL    HW2 7921   4.749   4.015   6.279
 1008SOL     OW 7922   3.479   2.521   5.980
 1008SOL    HW1 7923   3.494   2.592   5.911
 1008SOL    HW2 7924   3.532   2.440   5.957
 1009SOL     OW 7925   4.978   3.891   6.591
 1009SOL    HW1 7926   5.001   3.942   6.508
 1009SOL    HW2 7927   5.043   3.914   6.664
 1010SOL     OW 7928   2.656   3.704   1.589
 1010SOL    HW1 7929   2.712   3.638   1.639
 1010SOL    HW2 7930   2.704   3.792   1.585
 1011SOL     OW 7931   4.659   0.694   7.817
 1011SOL    HW1 7932   4.678   0.790   7.793
 1011SOL    HW2 7933   4.722   0.634   7.767
 1012SOL     OW 7934   0.916   1.514   1.349
 1012SOL    HW1 7935   1.004   1.473   1.372
 1012SOL    HW2 7936   0.876   1.466   1.271
 1013SOL     OW 7937   1.047   1.123   6.871
 1013SOL    HW1 7938   0.991   1.175   6.807
 1013SOL    HW2 7939   1.053   1.028   6.842
 1014SOL     OW 7940   4.388   0.481   7.221
 1014SOL    HW1 7941   4.347   0.518   7.304
 1014SOL    HW2 7942   4.332   0.405   7.187
 1015SOL     OW 7943   4.141   3.340   1.697
 1015SOL    HW1 7944   4.085   3.423   1.691
 1015SOL    HW2 7945   4.212   3.353   1.766
 1016SOL     OW 7946   1.266   0.686   7.926
 1016SOL    HW1 7947   1.288   0.739   8.008
 1016SOL    HW2 7948   1.306   0.595   7.933
 1017SOL     OW 7949   5.010   0.531   0.856
 1017SOL    HW1 7950   5.093   0.479   0.875
 1017SOL    HW2 7951   5.018   0.575   0.766
 1018SOL     OW 7952   4.548   4.833   7.329
 1018SOL    HW1 7953   4.509   4.873   7.412
 1018SOL    HW2 7954   4.574   4.738   7.347
 1019SOL     OW 7955   3.164   1.249   5.854
 1019SOL    HW1 7956   3.098   1.314   5.891
 1019SOL    HW2 7957   3.119   1.160   5.842
 1020SOL     OW 7958   4.087   1.332   1.687
 1020SOL    HW1 7959   4.011   1.329   1.753
 1020SOL    HW2 7960   4.173   1.317   1.735
 1021SOL     OW 7961   3.250   3.127   7.690
 1021SOL    HW1 7962   3.191   3.088   7.619
 1021SOL    HW2 7963   3.249   3.227   7.683
 1022SOL     OW 7964   1.118   4.240   7.583
 1022SOL    HW1 7965   1.185   4.311   7.559
 1022SOL    HW2 7966   1.162   4.150   7.579
 1023SOL     OW 7967   2.656   4.892   0.614
 1023SOL    HW1 7968   2.642   4.975   0.668
 1023SOL    HW2 7969   2.679   4.816   0.674
 1024SOL     OW 7970   2.977   3.627   1.406
 1024SOL    HW1 7971   2.936   3.692   1.343
 1024SOL    HW2 7972   2.928   3.540   1.400
 1025SOL     OW 7973   0.311   2.554   6.881
 1025SOL    HW1 7974   0.227   2.507   6.910
 1025SOL    HW2 7975   0.370   2.490   6.831
 1026SOL     OW 7976   3.494   5.060   7.863
 1026SOL    HW1 7977   3.425   0.012   7.798
 1026SOL    HW2 7978   3.545   4.985   7.822
 1027SOL     OW 7979   4.272   2.916   7.101
 1027SOL    HW1 7980   4.228   2.833   7.069
 1027SOL    HW2 7981   4.370   2.912   7.081
 1028SOL     OW 7982   4.377   2.087   6.817
 1028SOL    HW1 7983   4.450   2.033   6.859
 1028SOL    HW2 7984   4.289   2.043   6.832
 1029SOL     OW 7985   2.613   0.856   2.056
 1029SOL    HW1 7986   2.660   0.810   2.131
 1029SOL    HW2 7987   2.583   0.946   2.086
 1030SOL     OW 7988   2.930   3.722   7.053
 1030SOL    HW1 7989   2.844   3.672   7.063
 1030SOL    HW2 7990   2.916   3.817   7.081
 1031SOL     OW 7991   3.402   2.229   7.727
 1031SOL    HW1 7992   3.464   2.166   7.774
 1031SOL    HW2 7993   3.353   2.180   7.655
 1032SOL     OW 7994   5.074   2.926   7.310
 1032SOL    HW1 7995   5.156   2.981   7.298
 1032SOL    HW2 7996   5.101   2.833   7.337
 1033SOL     OW 7997   0.915   4.365   7.186
 1033SOL    HW1 7998   0.953   4.409   7.267
 1033SOL    HW2 7999   0.836   4.309   7.212
 1034SOL     OW 8000   3.482   2.911   6.579
 1034SOL    HW1 8001   3.577   2.881   6.575
 1034SOL    HW2 8002   3.423   2.832   6.597
 1035SOL     OW 8003   0.898   4.877   0.467
 1035SOL    HW1 8004   0.912   4.778   0.470
 1035SOL    HW2 8005   0.814   4.898   0.417
 1036SOL     OW 8006   3.234   0.339   0.729
 1036SOL    HW1 8007   3.330   0.362   0.750
 1036SOL    HW2 8008   3.180   0.343   0.813
 1037SOL     OW 8009   2.359   0.212   6.933
 1037SOL    HW1 8010   2.435   0.256   6.884
 1037SOL    HW2 8011   2.369   0.113   6.928
 1038SOL     OW 8012   3.893   4.505   0.249
 1038SOL    HW1 8013   3.809   4.480   0.200
 1038SOL    HW2 8014   3.899   4.605   0.255
 1039SOL     OW 8015   3.638   4.969   7.180
 1039SOL    HW1 8016   3.540   4.988   7.182
 1039SOL    HW2 8017   3.689   5.053   7.193
 1040SOL     OW 8018   2.459   4.229   7.633
 1040SOL    HW1 8019   2.384   4.188   7.686
 1040SOL    HW2 8020   2.421   4.293   7.567
 1041SOL     OW 8021   2.242   4.989   7.664
 1041SOL    HW1 8022   2.159   4.956   7.709
 1041SOL    HW2 8023   2.238   0.008   7.656
 1042SOL     OW 8024   1.229   1.772   1.359
 1042SOL    HW1 8025   1.218   1.692   1.301
 1042SOL    HW2 8026   1.153   1.835   1.343
 1043SOL     OW 8027   3.133   4.141   0.575
 1043SOL    HW1 8028   3.162   4.223   0.526
 1043SOL    HW2 8029   3.208   4.108   0.632
 1044SOL     OW 8030   4.699   1.055   1.331
 1044SOL    HW1 8031   4.743   1.044   1.421
 1044SOL    HW2 8032   4.625   1.121   1.339
 1045SOL     OW 8033   3.018   1.520   7.338
 1045SOL    HW1 8034   2.996   1.426   7.312
 1045SOL    HW2 8035   2.940   1.579   7.318
 1046SOL     OW 8036   0.376   3.382   6.864
 1046SOL    HW1 8037   0.357   3.369   6.767
 1046SOL    HW2 8038   0.313   3.326   6.918
 1047SOL     OW 8039   2.989   0.297   1.671
 1047SOL    HW1 8040   3.009   0.260   1.762
 1047SOL    HW2 8041   2.988   0.222   1.605
 1048SOL     OW 8042   1.188   1.039   1.490
 1048SOL    HW1 8043   1.284   1.038   1.463
 1048SOL    HW2 8044   1.172   0.973   1.563
 1049SOL     OW 8045   3.417   0.855   0.281
 1049SOL    HW1 8046   3.456   0.944   0.259
 1049SOL    HW2 8047   3.317   0.863   0.286
 1050SOL     OW 8048   4.809   1.693   0.398
 1050SOL    HW1 8049   4.787   1.608   0.350
 1050SOL    HW2 8050   4.752   1.767   0.363
 1051SOL     OW 8051   2.989   4.706   1.428
 1051SOL    HW1 8052   2.890   4.710   1.419
 1051SOL    HW2 8053   3.030   4.788   1.388
 1052SOL     OW 8054   3.755   2.879   0.915
 1052SOL    HW1 8055   3.733   2.817   0.840
 1052SOL    HW2 8056   3.839   2.849   0.960
 1053SOL     OW 8057   3.323   2.497   7.670
 1053SOL    HW1 8058   3.266   2.530   7.745
 1053SOL    HW2 8059   3.357   2.405   7.693
 1054SOL     OW 8060   2.554   3.825   6.931
 1054SOL    HW1 8061   2.456   3.802   6.932
 1054SOL    HW2 8062   2.605   3.757   6.982
 1055SOL     OW 8063   4.326   2.922   5.842
 1055SOL    HW1 8064   4.254   2.929   5.774
 1055SOL    HW2 8065   4.397   2.991   5.822
 1056SOL     OW 8066   2.117   3.307   6.861
 1056SOL    HW1 8067   2.032   3.356   6.883
 1056SOL    HW2 8068   2.152   3.263   6.944
 1057SOL     OW 8069   4.265   1.099   7.447
 1057SOL    HW1 8070   4.321   1.049   7.381
 1057SOL    HW2 8071   4.244   1.040   7.525
 1058SOL     OW 8072   0.255   3.686   5.926
 1058SOL    HW1 8073   0.291   3.615   5.987
 1058SOL    HW2 8074   0.330   3.746   5.897
 1059SOL     OW 8075   2.564   0.876   2.775
 1059SOL    HW1 8076   2.586   0.861   2.679
 1059SOL    HW2 8077   2.465   0.886   2.786
 1060SOL     OW 8078   2.216   1.594   7.263
 1060SOL    HW1 8079   2.177   1.572   7.173
 1060SOL    HW2 8080   2.180   1.529   7.331
 1061SOL     OW 8081   5.228   2.692   0.130
 1061SOL    HW1 8082   5.245   2.709   0.227
 1061SOL    HW2 8083   5.145   2.637   0.120
 1062SOL     OW 8084   4.160   0.985   7.702
 1062SOL    HW1 8085   4.121   0.939   7.782
 1062SOL    HW2 8086   4.108   1.070   7.685
 1063SOL     OW 8087   2.691   0.755   7.564
 1063SOL    HW1 8088   2.752   0.802   7.627
 1063SOL    HW2 8089   2.724   0.768   7.470
 1064SOL     OW 8090   4.233   4.750   6.934
 1064SOL    HW1 8091   4.229   4.651   6.925
 1064SOL    HW2 8092   4.144   4.789   6.910
 1065SOL     OW 8093   3.701   0.198   2.009
 1065SOL    HW1 8094   3.724   0.192   2.106
 1065SOL    HW2 8095   3.767   0.146   1.955
 1066SOL     OW 8096   1.757   3.508   8.008
 1066SOL    HW1 8097   1.729   3.412   8.010
 1066SOL    HW2 8098   1.851   3.515   7.974
 1067SOL     OW 8099   4.972   0.703   0.246
 1067SOL    HW1 8100   5.006   0.764   0.318
 1067SOL    HW2 8101   4.956   0.756   0.163
 1068SOL     OW 8102   4.958   4.324   7.524
 1068SOL    HW1 8103   4.988   4.390   7.593
 1068SOL    HW2 8104   4.977   4.360   7.433
 1069SOL     OW 8105   4.896   0.624   1.791
 1069SOL    HW1 8106   4.908   0.718   1.823
 1069SOL    HW2 8107   4.898   0.562   1.869
 1070SOL     OW 8108   5.162   2.106   7.564
 1070SOL    HW1 8109   5.217   2.022   7.560
 1070SOL    HW2 8110   5.149   2.141   7.471
 1071SOL     OW 8111   3.956   2.143   0.892
 1071SOL    HW1 8112   3.933   2.204   0.816
 1071SOL    HW2 8113   4.014   2.069   0.858
 1072SOL     OW 8114   0.871   3.999   6.933
 1072SOL    HW1 8115   0.910   3.954   7.014
 1072SOL    HW2 8116   0.901   3.950   6.851
 1073SOL     OW 8117   5.269   2.377   2.040
 1073SOL    HW1 8118   0.048   2.300   2.068
 1073SOL    HW2 8119   5.181   2.343   2.007
 1074SOL     OW 8120   0.393   0.957   7.466
 1074SOL    HW1 8121   0.314   0.897   7.481
 1074SOL    HW2 8122   0.476   0.909   7.494
 1075SOL     OW 8123   3.987   2.010   6.529
 1075SOL    HW1 8124   3.994   2.110   6.533
 1075SOL    HW2 8125   3.972   1.981   6.434
 1076SOL     OW 8126   4.727   2.398   6.892
 1076SOL    HW1 8127   4.693   2.326   6.831
 1076SOL    HW2 8128   4.802   2.361   6.948
 1077SOL     OW 8129   4.047   3.768   8.102
 1077SOL    HW1 8130   4.026   3.742   0.051
 1077SOL    HW2 8131   4.114   3.842   8.101
 1078SOL     OW 8132   1.710   0.084   6.028
 1078SOL    HW1 8133   1.777   0.151   5.997
 1078SOL    HW2 8134   1.677   0.031   5.950
 1079SOL     OW 8135   1.980   3.116   7.889
 1079SOL    HW1 8136   1.932   3.037   7.926
 1079SOL    HW2 8137   2.024   3.167   7.963
 1080SOL     OW 8138   4.576   3.231   7.050
 1080SOL    HW1 8139   4.619   3.301   6.992
 1080SOL    HW2 8140   4.503   3.273   7.104
 1081SOL     OW 8141   3.578   4.792   5.484
 1081SOL    HW1 8142   3.580   4.692   5.483
 1081SOL    HW2 8143   3.657   4.826   5.536
 1082SOL     OW 8144   4.559   2.916   1.021
 1082SOL    HW1 8145   4.650   2.879   1.004
 1082SOL    HW2 8146   4.497   2.842   1.045
 1083SOL     OW 8147   1.815   3.880   0.094
 1083SOL    HW1 8148   1.746   3.942   0.058
 1083SOL    HW2 8149   1.773   3.792   0.116
 1084SOL     OW 8150   0.426   4.024   1.824
 1084SOL    HW1 8151   0.513   4.000   1.867
 1084SOL    HW2 8152   0.352   3.979   1.873
 1085SOL     OW 8153   2.669   3.155   7.391
 1085SOL    HW1 8154   2.681   3.061   7.358
 1085SOL    HW2 8155   2.759   3.194   7.412
 1086SOL     OW 8156   1.461   1.002   1.469
 1086SOL    HW1 8157   1.510   1.052   1.397
 1086SOL    HW2 8158   1.478   1.045   1.557
 1087SOL     OW 8159   1.889   3.420   6.251
 1087SOL    HW1 8160   1.891   3.516   6.278
 1087SOL    HW2 8161   1.871   3.413   6.153
 1088SOL     OW 8162   1.283   2.359   6.054
 1088SOL    HW1 8163   1.228   2.294   6.002
 1088SOL    HW2 8164   1.347   2.309   6.112
 1089SOL     OW 8165   0.591   3.526   1.183
 1089SOL    HW1 8166   0.689   3.529   1.203
 1089SOL    HW2 8167   0.577   3.540   1.085
 1090SOL     OW 8168   4.989   4.128   0.419
 1090SOL    HW1 8169   5.000   4.039   0.375
 1090SOL    HW2 8170   5.078   4.167   0.441
 1091SOL     OW 8171   0.907   4.082   6.290
 1091SOL    HW1 8172   0.851   4.001   6.274
 1091SOL    HW2 8173   0.996   4.072   6.245
 1092SOL     OW 8174   1.443   4.763   0.177
 1092SOL    HW1 8175   1.524   4.821   0.166
 1092SOL    HW2 8176   1.411   4.733   0.087
 1093SOL     OW 8177   4.436   4.260   6.785
 1093SOL    HW1 8178   4.446   4.220   6.877
 1093SOL    HW2 8179   4.469   4.354   6.786
 1094SOL     OW 8180   4.995   1.012   6.438
 1094SOL    HW1 8181   4.977   1.103   6.399
 1094SOL    HW2 8182   5.065   0.966   6.384
 1095SOL     OW 8183   0.554   0.929   1.493
 1095SOL    HW1 8184   0.548   0.844   1.546
 1095SOL    HW2 8185   0.511   1.003   1.545
 1096SOL     OW 8186   3.496   4.324   7.163
 1096SOL    HW1 8187   3.489   4.352   7.067
 1096SOL    HW2 8188   3.497   4.405   7.222
 1097SOL     OW 8189   2.735   2.953   1.013
 1097SOL    HW1 8190   2.689   2.883   0.959
 1097SOL    HW2 8191   2.675   2.983   1.087
 1098SOL     OW 8192   3.409   5.044   6.908
 1098SOL    HW1 8193   3.502   5.045   6.872
 1098SOL    HW2 8194   3.368   4.954   6.894
 1099SOL     OW 8195   3.222   1.566   8.047
 1099SOL    HW1 8196   3.219   1.586   7.949
 1099SOL    HW2 8197   3.267   1.478   8.061
 1100SOL     OW 8198   3.037   1.787   0.875
 1100SOL    HW1 8199   3.119   1.743   0.910
 1100SOL    HW2 8200   3.059   1.879   0.843
 1101SOL     OW 8201   1.400   1.297   1.442
 1101SOL    HW1 8202   1.448   1.248   1.369
 1101SOL    HW2 8203   1.413   1.249   1.529
 1102SOL     OW 8204   4.928   3.723   1.351
 1102SOL    HW1 8205   5.018   3.698   1.317
 1102SOL    HW2 8206   4.936   3.801   1.413
 1103SOL     OW 8207   4.290   3.177   1.076
 1103SOL    HW1 8208   4.330   3.127   0.999
 1103SOL    HW2 8209   4.346   3.258   1.095
 1104SOL     OW 8210   2.098   4.171   6.032
 1104SOL    HW1 8211   2.183   4.128   6.001
 1104SOL    HW2 8212   2.078   4.249   5.973
 1105SOL     OW 8213   3.069   2.386   7.027
 1105SOL    HW1 8214   3.094   2.444   6.950
 1105SOL    HW2 8215   2.992   2.327   7.000
 1106SOL     OW 8216   2.079   0.131   0.264
 1106SOL    HW1 8217   2.086   0.148   0.165
 1106SOL    HW2 8218   2.057   0.035   0.280
 1107SOL     OW 8219   4.699   0.939   0.937
 1107SOL    HW1 8220   4.767   0.868   0.957
 1107SOL    HW2 8221   4.745   1.025   0.916
 1108SOL     OW 8222   3.663   3.878   0.953
 1108SOL    HW1 8223   3.759   3.886   0.930
 1108SOL    HW2 8224   3.615   3.961   0.927
 1109SOL     OW 8225   4.873   3.003   7.146
 1109SOL    HW1 8226   4.856   3.097   7.174
 1109SOL    HW2 8227   4.951   2.967   7.197
 1110SOL     OW 8228   1.812   2.230   7.765
 1110SOL    HW1 8229   1.770   2.230   7.855
 1110SOL    HW2 8230   1.742   2.219   7.695
 1111SOL     OW 8231   2.510   2.449   7.792
 1111SOL    HW1 8232   2.577   2.419   7.860
 1111SOL    HW2 8233   2.429   2.391   7.796
 1112SOL     OW 8234   3.545   2.060   6.248
 1112SOL    HW1 8235   3.463   2.040   6.195
 1112SOL    HW2 8236   3.598   1.976   6.260
 1113SOL     OW 8237   3.257   1.106   0.126
 1113SOL    HW1 8238   3.259   1.049   0.044
 1113SOL    HW2 8239   3.348   1.105   0.169
 1114SOL     OW 8240   2.623   2.934   6.279
 1114SOL    HW1 8241   2.601   2.954   6.183
 1114SOL    HW2 8242   2.713   2.892   6.284
 1115SOL     OW 8243   1.725   3.473   2.139
 1115SOL    HW1 8244   1.773   3.388   2.160
 1115SOL    HW2 8245   1.737   3.538   2.215
 1116SOL     OW 8246   4.372   3.281   0.734
 1116SOL    HW1 8247   4.460   3.327   0.721
 1116SOL    HW2 8248   4.388   3.192   0.778
 1117SOL     OW 8249   2.023   4.944   0.301
 1117SOL    HW1 8250   2.100   4.901   0.347
 1117SOL    HW2 8251   1.937   4.905   0.336
 1118SOL     OW 8252   2.243   1.426   0.235
 1118SOL    HW1 8253   2.218   1.385   0.148
 1118SOL    HW2 8254   2.339   1.455   0.233
 1119SOL     OW 8255   3.683   2.173   8.056
 1119SOL    HW1 8256   3.654   2.133   7.969
 1119SOL    HW2 8257   3.607   2.226   8.095
 1120SOL     OW 8258   2.025   4.658   7.364
 1120SOL    HW1 8259   2.039   4.690   7.270
 1120SOL    HW2 8260   2.107   4.678   7.418
 1121SOL     OW 8261   1.009   1.673   1.988
 1121SOL    HW1 8262   1.061   1.694   2.071
 1121SOL    HW2 8263   0.932   1.737   1.981
 1122SOL     OW 8264   4.917   3.120   6.886
 1122SOL    HW1 8265   4.839   3.131   6.825
 1122SOL    HW2 8266   4.887   3.087   6.975
 1123SOL     OW 8267   3.466   4.333   6.887
 1123SOL    HW1 8268   3.479   4.244   6.844
 1123SOL    HW2 8269   3.369   4.348   6.904
 1124SOL     OW 8270   3.807   3.466   6.858
 1124SOL    HW1 8271   3.880   3.426   6.801
 1124SOL    HW2 8272   3.834   3.558   6.886
 1125SOL     OW 8273   1.862   3.871   2.449
 1125SOL    HW1 8274   1.931   3.880   2.520
 1125SOL    HW2 8275   1.810   3.956   2.442
 1126SOL     OW 8276   2.098   0.432   7.741
 1126SOL    HW1 8277   2.107   0.529   7.764
 1126SOL    HW2 8278   2.073   0.381   7.823
 1127SOL     OW 8279   0.356   2.885   0.881
 1127SOL    HW1 8280   0.379   2.885   0.979
 1127SOL    HW2 8281   0.438   2.865   0.828
 1128SOL     OW 8282   2.395   1.636   2.083
 1128SOL    HW1 8283   2.307   1.648   2.129
 1128SOL    HW2 8284   2.386   1.663   1.987
 1129SOL     OW 8285   1.782   2.037   0.462
 1129SOL    HW1 8286   1.806   2.134   0.466
 1129SOL    HW2 8287   1.693   2.022   0.505
 1130SOL     OW 8288   4.140   1.203   0.581
 1130SOL    HW1 8289   4.122   1.252   0.666
 1130SOL    HW2 8290   4.215   1.138   0.596
 1131SOL     OW 8291   2.654   0.155   6.220
 1131SOL    HW1 8292   2.714   0.232   6.199
 1131SOL    HW2 8293   2.637   0.152   6.319
 1132SOL     OW 8294   3.303   2.612   0.031
 1132SOL    HW1 8295   3.209   2.580   0.019
 1132SOL    HW2 8296   3.342   2.636   8.087
 1133SOL     OW 8297   4.693   0.593   1.183
 1133SOL    HW1 8298   4.727   0.504   1.213
 1133SOL    HW2 8299   4.761   0.636   1.123
 1134SOL     OW 8300   0.128   1.432   1.012
 1134SOL    HW1 8301   0.155   1.336   1.008
 1134SOL    HW2 8302   0.040   1.445   0.966
 1135SOL     OW 8303   1.731   0.377   6.660
 1135SOL    HW1 8304   1.790   0.314   6.610
 1135SOL    HW2 8305   1.736   0.358   6.757
 1136SOL     OW 8306   0.448   0.623   6.967
 1136SOL    HW1 8307   0.531   0.676   6.985
 1136SOL    HW2 8308   0.395   0.666   6.894
 1137SOL     OW 8309   2.592   0.851   7.114
 1137SOL    HW1 8310   2.521   0.798   7.160
 1137SOL    HW2 8311   2.561   0.878   7.023
 1138SOL     OW 8312   4.559   1.408   7.263
 1138SOL    HW1 8313   4.646   1.455   7.270
 1138SOL    HW2 8314   4.569   1.327   7.204
 1139SOL     OW 8315   4.221   0.294   6.800
 1139SOL    HW1 8316   4.296   0.271   6.738
 1139SOL    HW2 8317   4.233   0.387   6.834
 1140SOL     OW 8318   1.270   4.371   7.918
 1140SOL    HW1 8319   1.303   4.298   7.859
 1140SOL    HW2 8320   1.220   4.332   7.995
 1141SOL     OW 8321   0.696   1.611   7.559
 1141SOL    HW1 8322   0.603   1.640   7.581
 1141SOL    HW2 8323   0.724   1.539   7.622
 1142SOL     OW 8324   2.511   0.057   1.218
 1142SOL    HW1 8325   2.495   0.038   1.122
 1142SOL    HW2 8326   2.452   0.132   1.247
 1143SOL     OW 8327   2.069   2.374   0.558
 1143SOL    HW1 8328   2.126   2.427   0.622
 1143SOL    HW2 8329   2.088   2.404   0.465
 1144SOL     OW 8330   4.677   1.247   8.029
 1144SOL    HW1 8331   4.597   1.249   7.969
 1144SOL    HW2 8332   4.704   1.152   8.046
 1145SOL     OW 8333   0.449   1.565   7.210
 1145SOL    HW1 8334   0.438   1.466   7.202
 1145SOL    HW2 8335   0.541   1.591   7.181
 1146SOL     OW 8336   0.670   4.925   0.318
 1146SOL    HW1 8337   0.629   5.015   0.331
 1146SOL    HW2 8338   0.685   4.909   0.220
 1147SOL     OW 8339   2.039   3.461   0.081
 1147SOL    HW1 8340   1.967   3.394   0.099
 1147SOL    HW2 8341   2.108   3.421   0.021
 1148SOL     OW 8342   0.830   1.760   1.247
 1148SOL    HW1 8343   0.899   1.833   1.250
 1148SOL    HW2 8344   0.871   1.673   1.274
 1149SOL     OW 8345   0.743   2.091   1.040
 1149SOL    HW1 8346   0.673   2.101   0.970
 1149SOL    HW2 8347   0.833   2.089   0.997
 1150SOL     OW 8348   3.053   1.539   1.132
 1150SOL    HW1 8349   2.958   1.544   1.165
 1150SOL    HW2 8350   3.077   1.444   1.114
 1151SOL     OW 8351   1.193   0.220   7.531
 1151SOL    HW1 8352   1.263   0.276   7.574
 1151SOL    HW2 8353   1.131   0.278   7.478
 1152SOL     OW 8354   5.118   4.178   7.922
 1152SOL    HW1 8355   5.173   4.256   7.892
 1152SOL    HW2 8356   5.078   4.197   8.012
 1153SOL     OW 8357   3.393   4.344   0.053
 1153SOL    HW1 8358   3.416   4.258   0.008
 1153SOL    HW2 8359   3.324   4.327   0.124
 1154SOL     OW 8360   3.806   2.319   0.352
 1154SOL    HW1 8361   3.863   2.241   0.324
 1154SOL    HW2 8362   3.835   2.400   0.301
 1155SOL     OW 8363   1.876   2.513   0.964
 1155SOL    HW1 8364   1.950   2.554   1.018
 1155SOL    HW2 8365   1.799   2.492   1.023
 1156SOL     OW 8366   3.162   4.489   5.725
 1156SOL    HW1 8367   3.066   4.508   5.705
 1156SOL    HW2 8368   3.189   4.405   5.678
 1157SOL     OW 8369   2.335   1.033   8.131
 1157SOL    HW1 8370   2.361   0.992   0.074
 1157SOL    HW2 8371   2.271   1.108   0.001
 1158SOL     OW 8372   3.606   4.835   7.745
 1158SOL    HW1 8373   3.617   4.765   7.816
 1158SOL    HW2 8374   3.526   4.813   7.689
 1159SOL     OW 8375   4.721   3.402   6.860
 1159SOL    HW1 8376   4.683   3.475   6.803
 1159SOL    HW2 8377   4.722   3.316   6.809
 1160SOL     OW 8378   5.063   0.043   0.716
 1160SOL    HW1 8379   5.014   0.055   0.802
 1160SOL    HW2 8380   5.004   5.076   0.650
 1161SOL     OW 8381   2.798   0.083   6.855
 1161SOL    HW1 8382   2.850   0.030   6.788
 1161SOL    HW2 8383   2.752   0.159   6.810
 1162SOL     OW 8384   3.361   3.749   6.931
 1162SOL    HW1 8385   3.309   3.790   6.856
 1162SOL    HW2 8386   3.426   3.682   6.894
 1163SOL     OW 8387   2.131   1.938   8.037
 1163SOL    HW1 8388   2.088   1.985   7.960
 1163SOL    HW2 8389   2.107   1.841   8.035
 1164SOL     OW 8390   0.980   4.249   1.065
 1164SOL    HW1 8391   0.947   4.156   1.079
 1164SOL    HW2 8392   1.007   4.288   1.153
 1165SOL     OW 8393   1.869   3.034   0.651
 1165SOL    HW1 8394   1.932   2.999   0.720
 1165SOL    HW2 8395   1.782   3.060   0.694
 1166SOL     OW 8396   0.348   3.919   7.855
 1166SOL    HW1 8397   0.380   3.837   7.903
 1166SOL    HW2 8398   0.298   3.977   7.919
 1167SOL     OW 8399   2.183   2.934   8.137
 1167SOL    HW1 8400   2.251   3.007   8.132
 1167SOL    HW2 8401   2.101   2.969   0.039
 1168SOL     OW 8402   3.436   3.748   7.894
 1168SOL    HW1 8403   3.511   3.738   7.959
 1168SOL    HW2 8404   3.419   3.845   7.878
 1169SOL     OW 8405   0.051   4.574   8.054
 1169SOL    HW1 8406   5.240   4.595   8.093
 1169SOL    HW2 8407   0.119   4.570   8.127
 1170SOL     OW 8408   3.982   3.281   0.432
 1170SOL    HW1 8409   4.050   3.236   0.491
 1170SOL    HW2 8410   4.005   3.378   0.423
 1171SOL     OW 8411   5.073   0.632   0.598
 1171SOL    HW1 8412   5.171   0.619   0.606
 1171SOL    HW2 8413   5.054   0.724   0.564
 1172SOL     OW 8414   0.529   1.375   1.076
 1172SOL    HW1 8415   0.615   1.405   1.036
 1172SOL    HW2 8416   0.519   1.416   1.167
 1173SOL     OW 8417   0.731   4.391   1.608
 1173SOL    HW1 8418   0.728   4.310   1.667
 1173SOL    HW2 8419   0.800   4.455   1.642
 1174SOL     OW 8420   4.268   3.538   6.038
 1174SOL    HW1 8421   4.244   3.456   5.986
 1174SOL    HW2 8422   4.364   3.561   6.021
 1175SOL     OW 8423   1.635   3.038   7.821
 1175SOL    HW1 8424   1.560   2.973   7.809
 1175SOL    HW2 8425   1.716   2.990   7.856
 1176SOL     OW 8426   0.428   4.348   6.425
 1176SOL    HW1 8427   0.411   4.411   6.349
 1176SOL    HW2 8428   0.473   4.266   6.390
 1177SOL     OW 8429   3.404   4.633   8.126
 1177SOL    HW1 8430   3.399   4.545   0.030
 1177SOL    HW2 8431   3.437   4.703   0.044
 1178SOL     OW 8432   4.845   4.011   8.052
 1178SOL    HW1 8433   4.865   3.913   8.054
 1178SOL    HW2 8434   4.845   4.043   7.957
 1179SOL     OW 8435   2.721   3.677   8.090
 1179SOL    HW1 8436   2.790   3.719   8.032
 1179SOL    HW2 8437   2.718   3.724   0.033
 1180SOL     OW 8438   3.022   4.992   6.601
 1180SOL    HW1 8439   3.116   4.959   6.610
 1180SOL    HW2 8440   3.021   0.011   6.610
 1181SOL     OW 8441   3.814   1.998   7.411
 1181SOL    HW1 8442   3.756   1.918   7.396
 1181SOL    HW2 8443   3.766   2.080   7.382
 1182SOL     OW 8444   2.590   0.383   1.637
 1182SOL    HW1 8445   2.532   0.464   1.650
 1182SOL    HW2 8446   2.675   0.410   1.591
 1183SOL     OW 8447   0.880   2.681   6.203
 1183SOL    HW1 8448   0.830   2.663   6.118
 1183SOL    HW2 8449   0.815   2.706   6.275
 1184SOL     OW 8450   1.582   2.807   8.053
 1184SOL    HW1 8451   1.570   2.864   8.134
 1184SOL    HW2 8452   1.513   2.833   7.984
 1185SOL     OW 8453   3.094   4.920   1.277
 1185SOL    HW1 8454   3.040   4.986   1.224
 1185SOL    HW2 8455   3.122   4.845   1.218
 1186SOL     OW 8456   1.443   4.926   7.970
 1186SOL    HW1 8457   1.495   4.946   7.888
 1186SOL    HW2 8458   1.384   5.004   7.992
 1187SOL     OW 8459   3.109   4.087   7.910
 1187SOL    HW1 8460   3.101   4.034   7.995
 1187SOL    HW2 8461   3.029   4.070   7.852
 1188SOL     OW 8462   4.314   0.331   0.169
 1188SOL    HW1 8463   4.356   0.275   0.240
 1188SOL    HW2 8464   4.291   0.421   0.206
 1189SOL     OW 8465   3.549   2.723   0.480
 1189SOL    HW1 8466   3.454   2.698   0.464
 1189SOL    HW2 8467   3.602   2.710   0.396
 1190SOL     OW 8468   4.463   4.840   7.057
 1190SOL    HW1 8469   4.376   4.803   7.026
 1190SOL    HW2 8470   4.475   4.820   7.154
 1191SOL     OW 8471   3.389   3.144   0.408
 1191SOL    HW1 8472   3.298   3.105   0.422
 1191SOL    HW2 8473   3.457   3.084   0.450
 1192SOL     OW 8474   3.439   0.295   0.310
 1192SOL    HW1 8475   3.520   0.285   0.368
 1192SOL    HW2 8476   3.358   0.308   0.368
 1193SOL     OW 8477   4.600   0.948   0.672
 1193SOL    HW1 8478   4.623   0.936   0.769
 1193SOL    HW2 8479   4.670   0.904   0.615
 1194SOL     OW 8480   3.697   3.505   1.217
 1194SOL    HW1 8481   3.665   3.598   1.198
 1194SOL    HW2 8482   3.686   3.449   1.135
 1195SOL     OW 8483   0.903   4.332   5.772
 1195SOL    HW1 8484   0.804   4.324   5.759
 1195SOL    HW2 8485   0.934   4.420   5.735
 1196SOL     OW 8486   2.184   2.093   7.396
 1196SOL    HW1 8487   2.110   2.128   7.453
 1196SOL    HW2 8488   2.179   2.136   7.306
 1197SOL     OW 8489   3.403   3.235   1.253
 1197SOL    HW1 8490   3.343   3.303   1.211
 1197SOL    HW2 8491   3.489   3.230   1.202
 1198SOL     OW 8492   0.874   3.560   8.087
 1198SOL    HW1 8493   0.779   3.531   8.102
 1198SOL    HW2 8494   0.936   3.485   8.110
 1199SOL     OW 8495   3.544   4.526   7.354
 1199SOL    HW1 8496   3.614   4.456   7.370
 1199SOL    HW2 8497   3.501   4.551   7.440
 1200SOL     OW 8498   0.656   0.441   1.079
 1200SOL    HW1 8499   0.662   0.520   1.140
 1200SOL    HW2 8500   0.683   0.469   0.987
 1201SOL     OW 8501   2.973   0.362   6.828
 1201SOL    HW1 8502   2.977   0.445   6.772
 1201SOL    HW2 8503   2.943   0.385   6.920
 1202SOL     OW 8504   0.728   2.031   2.301
 1202SOL    HW1 8505   0.712   2.073   2.212
 1202SOL    HW2 8506   0.733   1.932   2.291
 1203SOL     OW 8507   2.274   1.782   7.684
 1203SOL    HW1 8508   2.336   1.846   7.729
 1203SOL    HW2 8509   2.285   1.789   7.585
 1204SOL     OW 8510   2.183   2.676   8.071
 1204SOL    HW1 8511   2.186   2.773   8.095
 1204SOL    HW2 8512   2.262   2.655   8.012
 1205SOL     OW 8513   4.036   2.006   7.257
 1205SOL    HW1 8514   4.040   2.099   7.220
 1205SOL    HW2 8515   3.961   2.000   7.323
 1206SOL     OW 8516   2.550   4.472   1.154
 1206SOL    HW1 8517   2.538   4.410   1.076
 1206SOL    HW2 8518   2.589   4.559   1.121
 1207SOL     OW 8519   2.187   1.741   0.593
 1207SOL    HW1 8520   2.220   1.730   0.687
 1207SOL    HW2 8521   2.264   1.768   0.535
 1208SOL     OW 8522   1.802   1.985   8.049
 1208SOL    HW1 8523   1.809   1.973   0.003
 1208SOL    HW2 8524   1.744   2.064   8.028
 1209SOL     OW 8525   4.436   2.263   7.237
 1209SOL    HW1 8526   4.401   2.234   7.326
 1209SOL    HW2 8527   4.365   2.247   7.168
 1210SOL     OW 8528   1.919   0.897   0.978
 1210SOL    HW1 8529   1.974   0.827   1.024
 1210SOL    HW2 8530   1.880   0.859   0.895
 1211SOL     OW 8531   4.424   2.880   1.646
 1211SOL    HW1 8532   4.396   2.784   1.636
 1211SOL    HW2 8533   4.521   2.883   1.672
 1212SOL     OW 8534   4.585   4.555   0.490
 1212SOL    HW1 8535   4.604   4.501   0.408
 1212SOL    HW2 8536   4.528   4.503   0.552
 1213SOL     OW 8537   1.959   4.739   6.462
 1213SOL    HW1 8538   1.906   4.792   6.396
 1213SOL    HW2 8539   1.901   4.714   6.540
 1214SOL     OW 8540   3.913   2.128   0.567
 1214SOL    HW1 8541   3.847   2.198   0.540
 1214SOL    HW2 8542   3.998   2.173   0.596
 1215SOL     OW 8543   0.289   4.563   7.647
 1215SOL    HW1 8544   0.236   4.479   7.633
 1215SOL    HW2 8545   0.235   4.629   7.699
 1216SOL     OW 8546   5.092   0.250   7.991
 1216SOL    HW1 8547   5.181   0.211   8.016
 1216SOL    HW2 8548   5.051   0.295   8.070
 1217SOL     OW 8549   2.501   5.068   6.071
 1217SOL    HW1 8550   2.510   0.018   5.976
 1217SOL    HW2 8551   2.554   0.049   6.131
 1218SOL     OW 8552   2.526   2.773   5.886
 1218SOL    HW1 8553   2.443   2.719   5.897
 1218SOL    HW2 8554   2.607   2.715   5.901
 1219SOL     OW 8555   4.430   1.819   0.463
 1219SOL    HW1 8556   4.502   1.826   0.394
 1219SOL    HW2 8557   4.385   1.730   0.454
 1220SOL     OW 8558   4.834   2.854   0.265
 1220SOL    HW1 8559   4.790   2.942   0.247
 1220SOL    HW2 8560   4.861   2.849   0.362
 1221SOL     OW 8561   3.351   3.785   1.250
 1221SOL    HW1 8562   3.320   3.708   1.307
 1221SOL    HW2 8563   3.451   3.780   1.239
 1222SOL     OW 8564   1.109   4.987   0.197
 1222SOL    HW1 8565   1.100   0.006   0.191
 1222SOL    HW2 8566   1.181   4.963   0.262
 1223SOL     OW 8567   2.863   3.526   7.824
 1223SOL    HW1 8568   2.939   3.560   7.768
 1223SOL    HW2 8569   2.813   3.457   7.773
 1224SOL     OW 8570   0.893   4.699   7.288
 1224SOL    HW1 8571   0.799   4.690   7.256
 1224SOL    HW2 8572   0.918   4.618   7.342
 1225SOL     OW 8573   2.202   4.401   7.819
 1225SOL    HW1 8574   2.236   4.455   7.742
 1225SOL    HW2 8575   2.267   4.407   7.895
 1226SOL     OW 8576   2.062   2.051   0.857
 1226SOL    HW1 8577   2.069   2.065   0.758
 1226SOL    HW2 8578   2.144   2.085   0.901
 1227SOL     OW 8579   4.011   2.756   7.266
 1227SOL    HW1 8580   3.971   2.846   7.249
 1227SOL    HW2 8581   3.962   2.711   7.341
 1228SOL     OW 8582   0.523   3.953   0.549
 1228SOL    HW1 8583   0.454   3.930   0.617
 1228SOL    HW2 8584   0.572   4.035   0.578
 1229SOL     OW 8585   2.918   1.997   7.605
 1229SOL    HW1 8586   2.962   1.936   7.671
 1229SOL    HW2 8587   2.970   1.996   7.519
 1230SOL     OW 8588   3.661   0.548   0.415
 1230SOL    HW1 8589   3.645   0.587   0.324
 1230SOL    HW2 8590   3.668   0.448   0.407
 1231SOL     OW 8591   0.113   1.864   1.354
 1231SOL    HW1 8592   0.036   1.808   1.324
 1231SOL    HW2 8593   0.102   1.888   1.450
 1232SOL     OW 8594   4.578   2.840   8.090
 1232SOL    HW1 8595   4.613   2.761   8.040
 1232SOL    HW2 8596   4.631   2.921   8.067
 1233SOL     OW 8597   4.627   3.183   1.074
 1233SOL    HW1 8598   4.683   3.201   0.993
 1233SOL    HW2 8599   4.599   3.087   1.074
 1234SOL     OW 8600   4.462   2.531   0.051
 1234SOL    HW1 8601   4.507   2.524   8.106
 1234SOL    HW2 8602   4.513   2.596   0.108
 1235SOL     OW 8603   2.997   4.522   7.703
 1235SOL    HW1 8604   3.050   4.453   7.652
 1235SOL    HW2 8605   2.972   4.597   7.642
 1236SOL     OW 8606   2.539   4.509   1.753
 1236SOL    HW1 8607   2.629   4.479   1.719
 1236SOL    HW2 8608   2.539   4.508   1.853
 1237SOL     OW 8609   2.601   1.006   0.861
 1237SOL    HW1 8610   2.540   0.927   0.860
 1237SOL    HW2 8611   2.583   1.061   0.942
 1238SOL     OW 8612   2.401   4.614   0.875
 1238SOL    HW1 8613   2.414   4.534   0.934
 1238SOL    HW2 8614   2.432   4.591   0.782
 1239SOL     OW 8615   0.660   2.037   1.299
 1239SOL    HW1 8616   0.624   1.944   1.307
 1239SOL    HW2 8617   0.686   2.054   1.204
 1240SOL     OW 8618   4.082   3.807   6.688
 1240SOL    HW1 8619   4.041   3.891   6.722
 1240SOL    HW2 8620   4.181   3.809   6.703
 1241SOL     OW 8621   2.525   0.483   7.176
 1241SOL    HW1 8622   2.556   0.473   7.081
 1241SOL    HW2 8623   2.469   0.565   7.184
 1242SOL     OW 8624   0.045   1.647   7.220
 1242SOL    HW1 8625   0.039   1.645   7.320
 1242SOL    HW2 8626   0.061   1.554   7.186
 1243SOL     OW 8627   5.261   2.284   0.678
 1243SOL    HW1 8628   0.073   2.301   0.715
 1243SOL    HW2 8629   5.192   2.327   0.737
 1244SOL     OW 8630   0.136   2.872   1.266
 1244SOL    HW1 8631   0.140   2.881   1.366
 1244SOL    HW2 8632   0.051   2.825   1.240
 1245SOL     OW 8633   4.545   2.216   0.644
 1245SOL    HW1 8634   4.571   2.270   0.564
 1245SOL    HW2 8635   4.534   2.277   0.723
 1246SOL     OW 8636   2.612   0.008   1.608
 1246SOL    HW1 8637   2.618   0.064   1.691
 1246SOL    HW2 8638   2.646   0.060   1.530
 1247SOL     OW 8639   0.142   1.655   0.753
 1247SOL    HW1 8640   0.110   1.705   0.673
 1247SOL    HW2 8641   0.139   1.715   0.833
 1248SOL     OW 8642   1.413   4.977   7.407
 1248SOL    HW1 8643   1.396   4.879   7.407
 1248SOL    HW2 8644   1.328   5.026   7.387
 1249SOL     OW 8645   1.758   2.391   6.885
 1249SOL    HW1 8646   1.751   2.399   6.786
 1249SOL    HW2 8647   1.668   2.371   6.924
 1250SOL     OW 8648   3.398   4.112   7.313
 1250SOL    HW1 8649   3.426   4.194   7.264
 1250SOL    HW2 8650   3.409   4.032   7.255
 1251SOL     OW 8651   3.267   3.154   7.004
 1251SOL    HW1 8652   3.220   3.240   6.985
 1251SOL    HW2 8653   3.343   3.142   6.939
 1252SOL     OW 8654   4.367   3.801   0.135
 1252SOL    HW1 8655   4.314   3.863   0.076
 1252SOL    HW2 8656   4.396   3.721   0.082
 1253SOL     OW 8657   1.497   1.601   8.106
 1253SOL    HW1 8658   1.512   1.669   8.034
 1253SOL    HW2 8659   1.534   1.635   0.048
 1254SOL     OW 8660   0.207   1.574   6.792
 1254SOL    HW1 8661   0.160   1.492   6.826
 1254SOL    HW2 8662   0.240   1.628   6.869
 1255SOL     OW 8663   2.980   1.940   6.629
 1255SOL    HW1 8664   2.958   1.843   6.632
 1255SOL    HW2 8665   2.909   1.989   6.577
 1256SOL     OW 8666   0.206   1.765   7.879
 1256SOL    HW1 8667   0.227   1.834   7.810
 1256SOL    HW2 8668   0.107   1.759   7.892
 1257SOL     OW 8669   2.153   2.752   7.752
 1257SOL    HW1 8670   2.080   2.716   7.811
 1257SOL    HW2 8671   2.242   2.726   7.788
 1258SOL     OW 8672   3.687   0.273   0.440
 1258SOL    HW1 8673   3.769   0.254   0.385
 1258SOL    HW2 8674   3.689   0.217   0.523
 1259SOL     OW 8675   2.750   1.202   0.749
 1259SOL    HW1 8676   2.799   1.186   0.664
 1259SOL    HW2 8677   2.706   1.116   0.778
 1260SOL     OW 8678   4.148   2.172   0.027
 1260SOL    HW1 8679   4.062   2.190   8.124
 1260SOL    HW2 8680   4.190   2.258   0.055
 1261SOL     OW 8681   4.617   1.607   7.799
 1261SOL    HW1 8682   4.537   1.661   7.775
 1261SOL    HW2 8683   4.613   1.518   7.753
 1262SOL     OW 8684   3.747   2.847   6.539
 1262SOL    HW1 8685   3.818   2.916   6.550
 1262SOL    HW2 8686   3.777   2.761   6.579
 1263SOL     OW 8687   0.216   0.537   7.827
 1263SOL    HW1 8688   0.134   0.497   7.786
 1263SOL    HW2 8689   0.298   0.497   7.785
 1264SOL     OW 8690   2.717   4.839   1.607
 1264SOL    HW1 8691   2.667   4.925   1.599
 1264SOL    HW2 8692   2.705   4.785   1.524
 1265SOL     OW 8693   1.684   4.907   7.394
 1265SOL    HW1 8694   1.593   4.935   7.426
 1265SOL    HW2 8695   1.680   4.887   7.296
 1266SOL     OW 8696   0.873   4.349   7.631
 1266SOL    HW1 8697   0.793   4.289   7.626
 1266SOL    HW2 8698   0.956   4.294   7.623
 1267SOL     OW 8699   3.363   1.008   1.866
 1267SOL    HW1 8700   3.387   1.084   1.926
 1267SOL    HW2 8701   3.325   0.933   1.920
 1268SOL     OW 8702   1.249   1.261   0.229
 1268SOL    HW1 8703   1.335   1.211   0.217
 1268SOL    HW2 8704   1.183   1.230   0.161
 1269SOL     OW 8705   2.932   1.966   6.896
 1269SOL    HW1 8706   2.837   1.933   6.898
 1269SOL    HW2 8707   2.967   1.957   6.803
 1270SOL     OW 8708   4.854   4.729   7.133
 1270SOL    HW1 8709   4.862   4.722   7.232
 1270SOL    HW2 8710   4.853   4.825   7.107
 1271SOL     OW 8711   2.522   4.331   0.924
 1271SOL    HW1 8712   2.597   4.267   0.912
 1271SOL    HW2 8713   2.451   4.313   0.856
 1272SOL     OW 8714   4.058   3.858   7.089
 1272SOL    HW1 8715   4.145   3.872   7.041
 1272SOL    HW2 8716   4.052   3.923   7.165
 1273SOL     OW 8717   0.427   1.047   0.278
 1273SOL    HW1 8718   0.455   1.143   0.286
 1273SOL    HW2 8719   0.343   1.041   0.224
 1274SOL     OW 8720   1.783   4.013   7.775
 1274SOL    HW1 8721   1.823   3.938   7.828
 1274SOL    HW2 8722   1.780   4.095   7.831
 1275SOL     OW 8723   5.147   1.101   1.427
 1275SOL    HW1 8724   5.103   1.163   1.493
 1275SOL    HW2 8725   5.080   1.074   1.358
 1276SOL     OW 8726   0.195   2.655   7.602
 1276SOL    HW1 8727   0.181   2.646   7.504
 1276SOL    HW2 8728   0.166   2.746   7.632
 1277SOL     OW 8729   3.160   0.801   7.516
 1277SOL    HW1 8730   3.239   0.752   7.480
 1277SOL    HW2 8731   3.140   0.768   7.609
 1278SOL     OW 8732   3.607   0.686   0.164
 1278SOL    HW1 8733   3.583   0.666   0.069
 1278SOL    HW2 8734   3.534   0.742   0.205
 1279SOL     OW 8735   1.704   3.476   7.600
 1279SOL    HW1 8736   1.733   3.391   7.645
 1279SOL    HW2 8737   1.616   3.506   7.638
 1280SOL     OW 8738   5.170   3.638   1.252
 1280SOL    HW1 8739   5.206   3.682   1.170
 1280SOL    HW2 8740   5.155   3.541   1.234
 1281SOL     OW 8741   2.187   4.367   0.981
 1281SOL    HW1 8742   2.226   4.356   0.890
 1281SOL    HW2 8743   2.207   4.286   1.036
 1282SOL     OW 8744   1.161   2.033   7.262
 1282SOL    HW1 8745   1.106   2.090   7.201
 1282SOL    HW2 8746   1.199   2.091   7.335
 1283SOL     OW 8747   4.449   3.158   0.165
 1283SOL    HW1 8748   4.431   3.151   0.067
 1283SOL    HW2 8749   4.404   3.240   0.202
 1284SOL     OW 8750   1.306   1.809   0.983
 1284SOL    HW1 8751   1.264   1.720   0.967
 1284SOL    HW2 8752   1.358   1.807   1.068
 1285SOL     OW 8753   4.912   1.131   7.385
 1285SOL    HW1 8754   4.895   1.215   7.437
 1285SOL    HW2 8755   4.873   1.141   7.293
 1286SOL     OW 8756   2.308   3.286   1.022
 1286SOL    HW1 8757   2.316   3.207   1.083
 1286SOL    HW2 8758   2.256   3.358   1.069
 1287SOL     OW 8759   1.113   0.985   6.338
 1287SOL    HW1 8760   1.086   0.890   6.326
 1287SOL    HW2 8761   1.195   1.003   6.284
 1288SOL     OW 8762   3.569   4.124   0.864
 1288SOL    HW1 8763   3.618   4.182   0.799
 1288SOL    HW2 8764   3.567   4.169   0.954
 1289SOL     OW 8765   2.529   0.207   8.039
 1289SOL    HW1 8766   2.626   0.207   8.062
 1289SOL    HW2 8767   2.492   0.114   8.047
 1290SOL     OW 8768   2.188   4.532   1.194
 1290SOL    HW1 8769   2.187   4.479   1.109
 1290SOL    HW2 8770   2.283   4.556   1.217
 1291SOL     OW 8771   4.500   4.102   1.576
 1291SOL    HW1 8772   4.415   4.053   1.596
 1291SOL    HW2 8773   4.546   4.126   1.662
 1292SOL     OW 8774   1.780   2.011   0.190
 1292SOL    HW1 8775   1.793   2.014   0.289
 1292SOL    HW2 8776   1.684   1.991   0.170
 1293SOL     OW 8777   0.787   0.757   7.471
 1293SOL    HW1 8778   0.693   0.748   7.503
 1293SOL    HW2 8779   0.793   0.723   7.377
 1294SOL     OW 8780   0.876   4.489   0.984
 1294SOL    HW1 8781   0.952   4.555   0.986
 1294SOL    HW2 8782   0.909   4.399   1.013
 1295SOL     OW 8783   4.425   0.749   6.231
 1295SOL    HW1 8784   4.387   0.797   6.152
 1295SOL    HW2 8785   4.358   0.749   6.306
 1296SOL     OW 8786   4.637   2.580   1.003
 1296SOL    HW1 8787   4.548   2.616   1.029
 1296SOL    HW2 8788   4.701   2.656   0.990
 1297SOL     OW 8789   3.621   4.281   1.576
 1297SOL    HW1 8790   3.606   4.291   1.675
 1297SOL    HW2 8791   3.676   4.199   1.559
 1298SOL     OW 8792   0.547   4.488   2.051
 1298SOL    HW1 8793   0.465   4.437   2.074
 1298SOL    HW2 8794   0.534   4.584   2.071
 1299SOL     OW 8795   3.747   0.143   7.219
 1299SOL    HW1 8796   3.681   0.210   7.185
 1299SOL    HW2 8797   3.840   0.175   7.201
 1300SOL     OW 8798   2.420   0.728   7.498
 1300SOL    HW1 8799   2.517   0.731   7.522
 1300SOL    HW2 8800   2.372   0.804   7.542
 1301SOL     OW 8801   0.534   0.843   7.942
 1301SOL    HW1 8802   0.536   0.747   7.913
 1301SOL    HW2 8803   0.446   0.863   7.985
 1302SOL     OW 8804   1.020   4.662   1.415
 1302SOL    HW1 8805   0.954   4.737   1.414
 1302SOL    HW2 8806   1.015   4.615   1.503
 1303SOL     OW 8807   4.704   1.273   6.763
 1303SOL    HW1 8808   4.737   1.309   6.676
 1303SOL    HW2 8809   4.782   1.255   6.823
 1304SOL     OW 8810   1.477   2.834   1.804
 1304SOL    HW1 8811   1.568   2.801   1.830
 1304SOL    HW2 8812   1.408   2.779   1.850
 1305SOL     OW 8813   3.115   0.318   7.165
 1305SOL    HW1 8814   3.044   0.386   7.146
 1305SOL    HW2 8815   3.197   0.364   7.199
 1306SOL     OW 8816   2.922   4.353   6.834
 1306SOL    HW1 8817   2.839   4.311   6.871
 1306SOL    HW2 8818   3.002   4.315   6.881
 1307SOL     OW 8819   2.287   1.989   1.184
 1307SOL    HW1 8820   2.290   2.046   1.102
 1307SOL    HW2 8821   2.206   1.931   1.181
 1308SOL     OW 8822   2.283   2.271   0.203
 1308SOL    HW1 8823   2.222   2.342   0.238
 1308SOL    HW2 8824   2.262   2.184   0.247
 1309SOL     OW 8825   1.374   0.088   0.335
 1309SOL    HW1 8826   1.354   5.073   0.354
 1309SOL    HW2 8827   1.384   0.102   0.237
 1310SOL     OW 8828   1.783   0.995   7.001
 1310SOL    HW1 8829   1.871   1.038   7.016
 1310SOL    HW2 8830   1.710   1.055   7.034
 1311SOL     OW 8831   2.400   1.222   1.770
 1311SOL    HW1 8832   2.484   1.239   1.718
 1311SOL    HW2 8833   2.322   1.229   1.708
 1312SOL     OW 8834   1.642   4.512   8.105
 1312SOL    HW1 8835   1.662   4.419   8.136
 1312SOL    HW2 8836   1.700   4.577   0.009
 1313SOL     OW 8837   0.998   2.118   0.926
 1313SOL    HW1 8838   1.034   2.057   0.856
 1313SOL    HW2 8839   1.062   2.121   1.003
 1314SOL     OW 8840   4.386   3.042   0.860
 1314SOL    HW1 8841   4.460   2.999   0.910
 1314SOL    HW2 8842   4.335   2.973   0.808
 1315SOL     OW 8843   1.129   4.134   0.326
 1315SOL    HW1 8844   1.199   4.070   0.359
 1315SOL    HW2 8845   1.173   4.210   0.279
 1316SOL     OW 8846   5.215   1.148   0.652
 1316SOL    HW1 8847   5.265   1.234   0.653
 1316SOL    HW2 8848   5.255   1.086   0.585
 1317SOL     OW 8849   3.466   4.260   1.337
 1317SOL    HW1 8850   3.404   4.182   1.332
 1317SOL    HW2 8851   3.511   4.262   1.426
 1318SOL     OW 8852   3.294   4.069   6.971
 1318SOL    HW1 8853   3.347   4.069   6.886
 1318SOL    HW2 8854   3.341   4.013   7.039
 1319SOL     OW 8855   3.093   1.961   7.394
 1319SOL    HW1 8856   3.061   1.964   7.299
 1319SOL    HW2 8857   3.156   1.884   7.405
 1320SOL     OW 8858   2.640   1.351   6.459
 1320SOL    HW1 8859   2.731   1.392   6.455
 1320SOL    HW2 8860   2.571   1.419   6.436
 1321SOL     OW 8861   0.966   0.065   0.434
 1321SOL    HW1 8862   0.992   0.098   0.343
 1321SOL    HW2 8863   0.959   5.046   0.433
 1322SOL     OW 8864   0.098   4.513   0.850
 1322SOL    HW1 8865   0.047   4.577   0.792
 1322SOL    HW2 8866   0.112   4.554   0.940
 1323SOL     OW 8867   2.096   2.560   6.299
 1323SOL    HW1 8868   2.111   2.465   6.326
 1323SOL    HW2 8869   2.016   2.566   6.240
 1324SOL     OW 8870   2.810   4.944   0.390
 1324SOL    HW1 8871   2.753   4.936   0.472
 1324SOL    HW2 8872   2.903   4.913   0.411
 1325SOL     OW 8873   0.788   1.795   0.689
 1325SOL    HW1 8874   0.759   1.792   0.785
 1325SOL    HW2 8875   0.708   1.812   0.631
 1326SOL     OW 8876   5.266   1.046   8.090
 1326SOL    HW1 8877   5.201   1.119   8.111
 1326SOL    HW2 8878   5.252   1.015   7.996
 1327SOL     OW 8879   0.049   3.199   0.958
 1327SOL    HW1 8880   0.088   3.263   1.025
 1327SOL    HW2 8881   5.228   3.205   0.962
 1328SOL     OW 8882   1.341   3.990   0.417
 1328SOL    HW1 8883   1.423   4.048   0.418
 1328SOL    HW2 8884   1.350   3.921   0.489
 1329SOL     OW 8885   2.878   3.973   7.152
 1329SOL    HW1 8886   2.865   4.043   7.222
 1329SOL    HW2 8887   2.925   4.013   7.073
 1330SOL     OW 8888   0.598   4.968   7.216
 1330SOL    HW1 8889   0.679   4.996   7.165
 1330SOL    HW2 8890   0.591   4.868   7.217
 1331SOL     OW 8891   0.278   0.090   0.272
 1331SOL    HW1 8892   0.249   0.174   0.225
 1331SOL    HW2 8893   0.244   0.010   0.223
 1332SOL     OW 8894   2.681   2.398   8.012
 1332SOL    HW1 8895   2.649   2.462   8.082
 1332SOL    HW2 8896   2.748   2.336   8.052
 1333SOL     OW 8897   3.576   3.191   0.703
 1333SOL    HW1 8898   3.652   3.184   0.768
 1333SOL    HW2 8899   3.586   3.122   0.631
 1334SOL     OW 8900   0.527   2.557   7.535
 1334SOL    HW1 8901   0.463   2.534   7.609
 1334SOL    HW2 8902   0.611   2.503   7.547
 1335SOL     OW 8903   4.016   4.190   0.614
 1335SOL    HW1 8904   3.990   4.198   0.711
 1335SOL    HW2 8905   3.961   4.253   0.560
 1336SOL     OW 8906   1.870   1.228   7.828
 1336SOL    HW1 8907   1.771   1.214   7.831
 1336SOL    HW2 8908   1.913   1.170   7.897
 1337SOL     OW 8909   4.010   2.490   1.207
 1337SOL    HW1 8910   4.013   2.408   1.265
 1337SOL    HW2 8911   4.020   2.571   1.263
 1338SOL     OW 8912   2.250   3.371   7.484
 1338SOL    HW1 8913   2.194   3.451   7.505
 1338SOL    HW2 8914   2.190   3.292   7.470
 1339SOL     OW 8915   3.014   2.109   1.324
 1339SOL    HW1 8916   3.038   2.149   1.412
 1339SOL    HW2 8917   3.097   2.082   1.275
 1340SOL     OW 8918   3.815   0.559   7.761
 1340SOL    HW1 8919   3.806   0.591   7.667
 1340SOL    HW2 8920   3.734   0.506   7.786
 1341SOL     OW 8921   5.028   5.076   1.317
 1341SOL    HW1 8922   5.050   5.039   1.227
 1341SOL    HW2 8923   4.954   5.023   1.358
 1342SOL     OW 8924   1.341   1.984   7.879
 1342SOL    HW1 8925   1.386   2.068   7.847
 1342SOL    HW2 8926   1.262   1.964   7.821
 1343SOL     OW 8927   1.078   0.126   0.791
 1343SOL    HW1 8928   1.077   0.103   0.888
 1343SOL    HW2 8929   1.035   0.216   0.778
 1344SOL     OW 8930   2.896   3.144   7.044
 1344SOL    HW1 8931   2.913   3.085   7.122
 1344SOL    HW2 8932   2.861   3.089   6.968
 1345SOL     OW 8933   1.107   5.062   1.320
 1345SOL    HW1 8934   1.085   5.026   1.411
 1345SOL    HW2 8935   1.198   5.031   1.293
 1346SOL     OW 8936   4.294   4.157   0.609
 1346SOL    HW1 8937   4.337   4.248   0.606
 1346SOL    HW2 8938   4.196   4.167   0.592
 1347SOL     OW 8939   4.675   0.890   2.017
 1347SOL    HW1 8940   4.678   0.799   2.059
 1347SOL    HW2 8941   4.630   0.954   2.080
 1348SOL     OW 8942   0.153   2.670   6.586
 1348SOL    HW1 8943   0.242   2.681   6.542
 1348SOL    HW2 8944   0.134   2.750   6.643
 1349SOL     OW 8945   4.646   1.930   7.779
 1349SOL    HW1 8946   4.722   1.874   7.746
 1349SOL    HW2 8947   4.560   1.883   7.762
 1350SOL     OW 8948   1.615   4.934   6.672
 1350SOL    HW1 8949   1.668   4.852   6.650
 1350SOL    HW2 8950   1.569   4.967   6.589
 1351SOL     OW 8951   2.249   2.618   1.481
 1351SOL    HW1 8952   2.228   2.536   1.534
 1351SOL    HW2 8953   2.169   2.677   1.477
 1352SOL     OW 8954   1.529   1.163   1.239
 1352SOL    HW1 8955   1.494   1.202   1.155
 1352SOL    HW2 8956   1.615   1.115   1.220
 1353SOL     OW 8957   1.710   3.632   0.130
 1353SOL    HW1 8958   1.711   3.578   0.046
 1353SOL    HW2 8959   1.627   3.612   0.182
 1354SOL     OW 8960   0.691   5.034   7.467
 1354SOL    HW1 8961   0.655   4.960   7.523
 1354SOL    HW2 8962   0.649   5.032   7.377
 1355SOL     OW 8963   1.671   5.028   5.792
 1355SOL    HW1 8964   1.749   5.005   5.734
 1355SOL    HW2 8965   1.588   5.028   5.737
 1356SOL     OW 8966   1.747   3.796   1.086
 1356SOL    HW1 8967   1.767   3.894   1.077
 1356SOL    HW2 8968   1.771   3.750   1.001
 1357SOL     OW 8969   0.374   3.667   1.250
 1357SOL    HW1 8970   0.452   3.610   1.226
 1357SOL    HW2 8971   0.361   3.666   1.349
 1358SOL     OW 8972   1.039   0.174   0.190
 1358SOL    HW1 8973   1.039   0.271   0.211
 1358SOL    HW2 8974   0.994   0.158   0.102
 1359SOL     OW 8975   4.251   3.925   1.087
 1359SOL    HW1 8976   4.346   3.923   1.116
 1359SOL    HW2 8977   4.241   3.984   1.007
 1360SOL     OW 8978   0.237   0.242   7.160
 1360SOL    HW1 8979   0.151   0.275   7.120
 1360SOL    HW2 8980   0.314   0.278   7.108
 1361SOL     OW 8981   0.567   2.398   7.095
 1361SOL    HW1 8982   0.652   2.372   7.050
 1361SOL    HW2 8983   0.496   2.330   7.073
 1362SOL     OW 8984   5.080   2.154   6.800
 1362SOL    HW1 8985   5.123   2.072   6.839
 1362SOL    HW2 8986   5.120   2.235   6.842
 1363SOL     OW 8987   2.305   4.537   7.604
 1363SOL    HW1 8988   2.281   4.626   7.565
 1363SOL    HW2 8989   2.292   4.466   7.535
 1364SOL     OW 8990   0.881   2.151   8.078
 1364SOL    HW1 8991   0.914   2.073   8.025
 1364SOL    HW2 8992   0.812   2.120   8.143
 1365SOL     OW 8993   4.826   3.900   0.894
 1365SOL    HW1 8994   4.738   3.948   0.892
 1365SOL    HW2 8995   4.900   3.967   0.885
 1366SOL     OW 8996   2.342   1.521   6.631
 1366SOL    HW1 8997   2.388   1.528   6.542
 1366SOL    HW2 8998   2.403   1.479   6.697
 1367SOL     OW 8999   2.846   4.315   7.144
 1367SOL    HW1 9000   2.848   4.263   7.229
 1367SOL    HW2 9001   2.926   4.375   7.139
 1368SOL     OW 9002   1.560   1.134   7.111
 1368SOL    HW1 9003   1.579   1.064   7.180
 1368SOL    HW2 9004   1.467   1.122   7.076
 1369SOL     OW 9005   2.776   0.684   1.112
 1369SOL    HW1 9006   2.809   0.630   1.035
 1369SOL    HW2 9007   2.680   0.707   1.097
 1370SOL     OW 9008   1.089   3.246   0.273
 1370SOL    HW1 9009   1.101   3.331   0.323
 1370SOL    HW2 9010   1.150   3.176   0.311
 1371SOL     OW 9011   3.733   4.660   0.736
 1371SOL    HW1 9012   3.757   4.679   0.641
 1371SOL    HW2 9013   3.637   4.632   0.741
 1372SOL     OW 9014   4.415   2.623   0.653
 1372SOL    HW1 9015   4.359   2.551   0.694
 1372SOL    HW2 9016   4.424   2.607   0.554
 1373SOL     OW 9017   5.094   4.036   6.391
 1373SOL    HW1 9018   5.176   3.984   6.366
 1373SOL    HW2 9019   5.064   4.091   6.312
 1374SOL     OW 9020   4.867   2.038   7.034
 1374SOL    HW1 9021   4.794   2.077   7.090
 1374SOL    HW2 9022   4.906   1.959   7.080
 1375SOL     OW 9023   2.184   0.474   0.952
 1375SOL    HW1 9024   2.272   0.485   1.000
 1375SOL    HW2 9025   2.162   0.376   0.948
 1376SOL     OW 9026   1.546   0.068   2.056
 1376SOL    HW1 9027   1.453   0.056   2.090
 1376SOL    HW2 9028   1.597   0.129   2.116
 1377SOL     OW 9029   0.541   1.272   0.017
 1377SOL    HW1 9030   0.491   1.299   8.079
 1377SOL    HW2 9031   0.577   1.180   0.006
 1378SOL     OW 9032   1.065   1.222   6.464
 1378SOL    HW1 9033   1.055   1.292   6.394
 1378SOL    HW2 9034   1.084   1.134   6.421
 1379SOL     OW 9035   1.848   4.101   7.520
 1379SOL    HW1 9036   1.830   4.074   7.614
 1379SOL    HW2 9037   1.946   4.118   7.509
 1380SOL     OW 9038   0.486   4.182   0.109
 1380SOL    HW1 9039   0.451   4.265   0.067
 1380SOL    HW2 9040   0.410   4.119   0.128
 1381SOL     OW 9041   2.792   4.829   8.083
 1381SOL    HW1 9042   2.819   4.910   8.031
 1381SOL    HW2 9043   2.867   4.763   8.084
 1382SOL     OW 9044   2.541   1.088   2.407
 1382SOL    HW1 9045   2.633   1.048   2.411
 1382SOL    HW2 9046   2.500   1.086   2.498
 1383SOL     OW 9047   4.810   1.787   1.587
 1383SOL    HW1 9048   4.902   1.826   1.593
 1383SOL    HW2 9049   4.749   1.852   1.542
 1384SOL     OW 9050   1.100   2.868   7.035
 1384SOL    HW1 9051   1.136   2.782   7.002
 1384SOL    HW2 9052   1.048   2.914   6.963
 1385SOL     OW 9053   1.792   4.223   7.945
 1385SOL    HW1 9054   1.746   4.233   8.033
 1385SOL    HW2 9055   1.839   4.309   7.922
 1386SOL     OW 9056   3.018   2.429   0.988
 1386SOL    HW1 9057   3.073   2.470   0.915
 1386SOL    HW2 9058   3.049   2.336   1.005
 1387SOL     OW 9059   4.340   3.231   7.775
 1387SOL    HW1 9060   4.421   3.195   7.727
 1387SOL    HW2 9061   4.258   3.208   7.723
 1388SOL     OW 9062   1.231   0.884   7.460
 1388SOL    HW1 9063   1.261   0.977   7.482
 1388SOL    HW2 9064   1.233   0.871   7.361
 1389SOL     OW 9065   3.588   1.249   7.489
 1389SOL    HW1 9066   3.660   1.265   7.422
 1389SOL    HW2 9067   3.624   1.265   7.581
 1390SOL     OW 9068   3.678   1.778   0.186
 1390SOL    HW1 9069   3.714   1.870   0.174
 1390SOL    HW2 9070   3.599   1.765   0.125
 1391SOL     OW 9071   0.344   2.832   6.377
 1391SOL    HW1 9072   0.348   2.851   6.279
 1391SOL    HW2 9073   0.417   2.881   6.424
 1392SOL     OW 9074   0.222   2.338   1.292
 1392SOL    HW1 9075   0.144   2.370   1.238
 1392SOL    HW2 9076   0.239   2.242   1.271
 1393SOL     OW 9077   2.680   4.605   7.459
 1393SOL    HW1 9078   2.634   4.553   7.387
 1393SOL    HW2 9079   2.674   4.554   7.545
 1394SOL     OW 9080   3.507   1.708   7.754
 1394SOL    HW1 9081   3.564   1.642   7.706
 1394SOL    HW2 9082   3.557   1.745   7.832
 1395SOL     OW 9083   3.483   0.917   7.299
 1395SOL    HW1 9084   3.410   0.948   7.238
 1395SOL    HW2 9085   3.569   0.959   7.272
 1396SOL     OW 9086   2.241   3.896   7.152
 1396SOL    HW1 9087   2.331   3.925   7.186
 1396SOL    HW2 9088   2.253   3.840   7.070
 1397SOL     OW 9089   4.615   1.840   0.247
 1397SOL    HW1 9090   4.642   1.790   0.165
 1397SOL    HW2 9091   4.565   1.922   0.221
 1398SOL     OW 9092   4.554   0.511   6.993
 1398SOL    HW1 9093   4.490   0.498   7.069
 1398SOL    HW2 9094   4.598   0.424   6.971
 1399SOL     OW 9095   1.890   4.966   5.643
 1399SOL    HW1 9096   1.941   5.037   5.595
 1399SOL    HW2 9097   1.931   4.877   5.624
 1400SOL     OW 9098   1.004   2.465   1.229
 1400SOL    HW1 9099   1.017   2.554   1.185
 1400SOL    HW2 9100   0.921   2.422   1.193
 1401SOL     OW 9101   3.313   1.258   1.607
 1401SOL    HW1 9102   3.401   1.302   1.587
 1401SOL    HW2 9103   3.288   1.277   1.702
 1402SOL     OW 9104   4.232   2.215   5.552
 1402SOL    HW1 9105   4.221   2.221   5.453
 1402SOL    HW2 9106   4.236   2.308   5.590
 1403SOL     OW 9107   1.239   1.413   7.065
 1403SOL    HW1 9108   1.178   1.378   7.137
 1403SOL    HW2 9109   1.186   1.464   6.998
 1404SOL     OW 9110   0.439   2.034   7.964
 1404SOL    HW1 9111   0.494   2.036   7.880
 1404SOL    HW2 9112   0.438   1.942   8.002
 1405SOL     OW 9113   0.218   4.839   7.157
 1405SOL    HW1 9114   0.253   4.915   7.211
 1405SOL    HW2 9115   0.206   4.759   7.217
 1406SOL     OW 9116   2.422   4.314   7.029
 1406SOL    HW1 9117   2.350   4.364   7.078
 1406SOL    HW2 9118   2.383   4.272   6.947
 1407SOL     OW 9119   4.166   3.510   6.990
 1407SOL    HW1 9120   4.206   3.501   7.082
 1407SOL    HW2 9121   4.068   3.526   6.998
 1408SOL     OW 9122   4.492   4.932   6.503
 1408SOL    HW1 9123   4.423   4.880   6.453
 1408SOL    HW2 9124   4.497   5.025   6.466
 1409SOL     OW 9125   0.489   3.560   0.266
 1409SOL    HW1 9126   0.409   3.507   0.292
 1409SOL    HW2 9127   0.473   3.657   0.284
 1410SOL     OW 9128   2.536   1.100   2.138
 1410SOL    HW1 9129   2.475   1.168   2.098
 1410SOL    HW2 9130   2.531   1.106   2.238
 1411SOL     OW 9131   0.094   1.383   0.662
 1411SOL    HW1 9132   0.096   1.469   0.714
 1411SOL    HW2 9133   0.114   1.402   0.566
 1412SOL     OW 9134   0.993   0.403   0.762
 1412SOL    HW1 9135   1.077   0.447   0.793
 1412SOL    HW2 9136   0.997   0.388   0.663
 1413SOL     OW 9137   1.909   0.825   6.735
 1413SOL    HW1 9138   1.830   0.886   6.733
 1413SOL    HW2 9139   1.909   0.772   6.819
 1414SOL     OW 9140   4.360   1.034   1.498
 1414SOL    HW1 9141   4.368   0.960   1.565
 1414SOL    HW2 9142   4.266   1.068   1.497
 1415SOL     OW 9143   0.989   3.862   7.145
 1415SOL    HW1 9144   1.050   3.824   7.075
 1415SOL    HW2 9145   1.040   3.927   7.201
 1416SOL     OW 9146   1.049   4.393   1.293
 1416SOL    HW1 9147   1.022   4.488   1.281
 1416SOL    HW2 9148   1.060   4.374   1.391
 1417SOL     OW 9149   5.175   2.688   7.399
 1417SOL    HW1 9150   5.269   2.659   7.379
 1417SOL    HW2 9151   5.145   2.646   7.485
 1418SOL     OW 9152   1.526   1.783   7.906
 1418SOL    HW1 9153   1.469   1.866   7.901
 1418SOL    HW2 9154   1.619   1.805   7.875
 1419SOL     OW 9155   4.887   4.952   6.847
 1419SOL    HW1 9156   4.808   4.912   6.802
 1419SOL    HW2 9157   4.927   5.022   6.787
 1420SOL     OW 9158   0.170   1.153   1.024
 1420SOL    HW1 9159   0.144   1.123   1.116
 1420SOL    HW2 9160   0.112   1.107   0.957
 1421SOL     OW 9161   3.218   0.623   1.651
 1421SOL    HW1 9162   3.169   0.592   1.733
 1421SOL    HW2 9163   3.224   0.723   1.652
 1422SOL     OW 9164   4.930   3.527   0.566
 1422SOL    HW1 9165   4.868   3.601   0.590
 1422SOL    HW2 9166   4.969   3.488   0.650
 1423SOL     OW 9167   1.337   1.010   6.186
 1423SOL    HW1 9168   1.422   1.051   6.217
 1423SOL    HW2 9169   1.356   0.948   6.110
 1424SOL     OW 9170   0.157   2.602   7.318
 1424SOL    HW1 9171   0.234   2.538   7.326
 1424SOL    HW2 9172   0.174   2.665   7.242
 1425SOL     OW 9173   1.396   1.346   7.443
 1425SOL    HW1 9174   1.362   1.258   7.475
 1425SOL    HW2 9175   1.443   1.335   7.356
 1426SOL     OW 9176   1.759   1.691   0.784
 1426SOL    HW1 9177   1.691   1.751   0.825
 1426SOL    HW2 9178   1.734   1.672   0.689
 1427SOL     OW 9179   1.011   2.947   0.521
 1427SOL    HW1 9180   1.094   2.968   0.469
 1427SOL    HW2 9181   0.980   3.029   0.569
 1428SOL     OW 9182   4.087   1.626   0.631
 1428SOL    HW1 9183   4.085   1.585   0.540
 1428SOL    HW2 9184   4.031   1.709   0.632
 1429SOL     OW 9185   0.568   2.818   0.710
 1429SOL    HW1 9186   0.520   2.788   0.628
 1429SOL    HW2 9187   0.664   2.834   0.688
 1430SOL     OW 9188   2.573   2.806   6.806
 1430SOL    HW1 9189   2.514   2.726   6.800
 1430SOL    HW2 9190   2.524   2.886   6.770
 1431SOL     OW 9191   2.030   4.119   8.040
 1431SOL    HW1 9192   1.948   4.158   7.997
 1431SOL    HW2 9193   2.015   4.111   8.138
 1432SOL     OW 9194   3.027   0.106   7.013
 1432SOL    HW1 9195   3.045   0.186   7.071
 1432SOL    HW2 9196   2.945   0.121   6.958
 1433SOL     OW 9197   2.941   0.227   0.397
 1433SOL    HW1 9198   2.922   0.312   0.445
 1433SOL    HW2 9199   2.868   0.209   0.330
 1434SOL     OW 9200   2.198   3.086   0.274
 1434SOL    HW1 9201   2.193   3.171   0.327
 1434SOL    HW2 9202   2.109   3.068   0.232
 1435SOL     OW 9203   5.233   4.854   7.080
 1435SOL    HW1 9204   0.050   4.839   7.104
 1435SOL    HW2 9205   5.225   4.935   7.022
 1436SOL     OW 9206   0.945   4.042   0.524
 1436SOL    HW1 9207   1.002   4.078   0.450
 1436SOL    HW2 9208   0.884   3.972   0.488
 1437SOL     OW 9209   4.580   0.312   7.527
 1437SOL    HW1 9210   4.526   0.261   7.459
 1437SOL    HW2 9211   4.648   0.251   7.568
 1438SOL     OW 9212   2.079   4.591   0.463
 1438SOL    HW1 9213   2.058   4.587   0.561
 1438SOL    HW2 9214   1.997   4.570   0.410
 1439SOL     OW 9215   1.447   3.037   7.308
 1439SOL    HW1 9216   1.431   3.065   7.402
 1439SOL    HW2 9217   1.511   2.961   7.306
 1440SOL     OW 9218   1.566   4.668   0.987
 1440SOL    HW1 9219   1.575   4.757   1.032
 1440SOL    HW2 9220   1.567   4.595   1.056
 1441SOL     OW 9221   0.989   1.205   7.627
 1441SOL    HW1 9222   0.959   1.135   7.563
 1441SOL    HW2 9223   0.993   1.167   7.719
 1442SOL     OW 9224   1.232   2.966   5.567
 1442SOL    HW1 9225   1.316   2.912   5.576
 1442SOL    HW2 9226   1.249   3.044   5.507
 1443SOL     OW 9227   4.178   2.706   6.627
 1443SOL    HW1 9228   4.175   2.607   6.613
 1443SOL    HW2 9229   4.103   2.733   6.688
 1444SOL     OW 9230   3.591   2.043   7.823
 1444SOL    HW1 9231   3.602   2.019   7.726
 1444SOL    HW2 9232   3.609   1.962   7.879
 1445SOL     OW 9233   3.053   4.541   0.208
 1445SOL    HW1 9234   2.986   4.573   0.275
 1445SOL    HW2 9235   3.006   4.522   0.122
 1446SOL     OW 9236   1.010   0.479   7.115
 1446SOL    HW1 9237   1.038   0.397   7.065
 1446SOL    HW2 9238   1.069   0.555   7.089
 1447SOL     OW 9239   3.025   4.313   6.528
 1447SOL    HW1 9240   3.079   4.357   6.600
 1447SOL    HW2 9241   3.072   4.323   6.440
 1448SOL     OW 9242   1.139   3.823   7.762
 1448SOL    HW1 9243   1.057   3.873   7.735
 1448SOL    HW2 9244   1.114   3.730   7.789
 1449SOL     OW 9245   4.984   2.162   0.852
 1449SOL    HW1 9246   4.938   2.154   0.941
 1449SOL    HW2 9247   5.021   2.254   0.842
 1450SOL     OW 9248   5.060   0.867   7.616
 1450SOL    HW1 9249   5.114   0.808   7.555
 1450SOL    HW2 9250   4.968   0.878   7.580
 1451SOL     OW 9251   4.772   5.070   6.399
 1451SOL    HW1 9252   4.752   0.060   6.332
 1451SOL    HW2 9253   4.818   4.993   6.355
 1452SOL     OW 9254   3.180   4.793   8.052
 1452SOL    HW1 9255   3.257   4.737   8.084
 1452SOL    HW2 9256   3.186   4.884   8.091
 1453SOL     OW 9257   3.013   0.597   6.690
 1453SOL    HW1 9258   3.053   0.624   6.602
 1453SOL    HW2 9259   2.958   0.673   6.726
 1454SOL     OW 9260   2.980   0.462   7.783
 1454SOL    HW1 9261   3.024   0.424   7.702
 1454SOL    HW2 9262   2.884   0.483   7.762
 1455SOL     OW 9263   2.786   2.626   7.410
 1455SOL    HW1 9264   2.706   2.601   7.465
 1455SOL    HW2 9265   2.776   2.720   7.378
 1456SOL     OW 9266   4.070   2.613   0.384
 1456SOL    HW1 9267   4.021   2.609   0.472
 1456SOL    HW2 9268   4.009   2.582   0.311
 1457SOL     OW 9269   4.489   0.203   8.137
 1457SOL    HW1 9270   4.567   0.262   8.119
 1457SOL    HW2 9271   4.423   0.251   0.050
 1458SOL     OW 9272   4.597   4.563   7.403
 1458SOL    HW1 9273   4.651   4.579   7.486
 1458SOL    HW2 9274   4.642   4.493   7.347
 1459SOL     OW 9275   1.181   1.562   0.919
 1459SOL    HW1 9276   1.246   1.522   0.855
 1459SOL    HW2 9277   1.088   1.545   0.886
 1460SOL     OW 9278   3.156   2.442   0.417
 1460SOL    HW1 9279   3.215   2.523   0.412
 1460SOL    HW2 9280   3.150   2.399   0.327
 1461SOL     OW 9281   0.386   2.015   0.386
 1461SOL    HW1 9282   0.385   1.964   0.301
 1461SOL    HW2 9283   0.298   2.062   0.398
 1462SOL     OW 9284   4.723   0.318   6.844
 1462SOL    HW1 9285   4.699   0.331   6.747
 1462SOL    HW2 9286   4.805   0.371   6.865
 1463SOL     OW 9287   1.569   3.632   0.583
 1463SOL    HW1 9288   1.507   3.701   0.620
 1463SOL    HW2 9289   1.594   3.567   0.654
 1464SOL     OW 9290   3.639   3.794   7.331
 1464SOL    HW1 9291   3.643   3.695   7.339
 1464SOL    HW2 9292   3.724   3.835   7.365
 1465SOL     OW 9293   5.088   3.582   1.906
 1465SOL    HW1 9294   5.061   3.553   1.998
 1465SOL    HW2 9295   5.006   3.596   1.851
 1466SOL     OW 9296   1.106   0.600   6.532
 1466SOL    HW1 9297   1.093   0.572   6.627
 1466SOL    HW2 9298   1.202   0.620   6.515
 1467SOL     OW 9299   4.293   1.899   1.093
 1467SOL    HW1 9300   4.327   1.916   1.186
 1467SOL    HW2 9301   4.358   1.840   1.045
 1468SOL     OW 9302   5.253   4.172   0.071
 1468SOL    HW1 9303   5.156   4.194   0.059
 1468SOL    HW2 9304   5.262   4.091   0.129
 1469SOL     OW 9305   3.017   0.518   7.402
 1469SOL    HW1 9306   2.920   0.497   7.389
 1469SOL    HW2 9307   3.040   0.603   7.355
 1470SOL     OW 9308   0.807   4.786   7.771
 1470SOL    HW1 9309   0.835   4.694   7.798
 1470SOL    HW2 9310   0.887   4.838   7.741
 1471SOL     OW 9311   1.131   1.422   7.509
 1471SOL    HW1 9312   1.084   1.350   7.561
 1471SOL    HW2 9313   1.226   1.397   7.495
 1472SOL     OW 9314   0.390   3.293   8.140
 1472SOL    HW1 9315   0.382   3.260   0.090
 1472SOL    HW2 9316   0.401   3.216   8.078
 1473SOL     OW 9317   0.707   0.583   6.678
 1473SOL    HW1 9318   0.625   0.543   6.637
 1473SOL    HW2 9319   0.749   0.517   6.739
 1474SOL     OW 9320   1.930   3.318   6.503
 1474SOL    HW1 9321   1.925   3.344   6.407
 1474SOL    HW2 9322   2.013   3.263   6.519
 1475SOL     OW 9323   2.172   1.503   1.764
 1475SOL    HW1 9324   2.159   1.487   1.862
 1475SOL    HW2 9325   2.170   1.416   1.716
 1476SOL     OW 9326   1.683   4.340   1.638
 1476SOL    HW1 9327   1.604   4.355   1.697
 1476SOL    HW2 9328   1.671   4.255   1.587
 1477SOL     OW 9329   4.878   4.430   1.958
 1477SOL    HW1 9330   4.976   4.446   1.961
 1477SOL    HW2 9331   4.860   4.332   1.961
 1478SOL     OW 9332   0.216   2.313   0.829
 1478SOL    HW1 9333   0.304   2.361   0.831
 1478SOL    HW2 9334   0.232   2.215   0.843
 1479SOL     OW 9335   1.296   3.341   7.430
 1479SOL    HW1 9336   1.342   3.271   7.485
 1479SOL    HW2 9337   1.204   3.309   7.406
 1480SOL     OW 9338   1.630   0.821   0.191
 1480SOL    HW1 9339   1.699   0.879   0.147
 1480SOL    HW2 9340   1.606   0.859   0.280
 1481SOL     OW 9341   2.033   3.484   5.870
 1481SOL    HW1 9342   1.949   3.449   5.912
 1481SOL    HW2 9343   2.066   3.562   5.922
 1482SOL     OW 9344   1.975   0.794   0.241
 1482SOL    HW1 9345   1.971   0.743   0.155
 1482SOL    HW2 9346   1.932   0.740   0.314
 1483SOL     OW 9347   3.489   4.153   0.408
 1483SOL    HW1 9348   3.417   4.120   0.348
 1483SOL    HW2 9349   3.573   4.166   0.356
 1484SOL     OW 9350   0.959   0.064   7.850
 1484SOL    HW1 9351   0.986   5.063   7.799
 1484SOL    HW2 9352   0.936   0.038   7.944
 1485SOL     OW 9353   2.531   1.080   7.476
 1485SOL    HW1 9354   2.481   1.031   7.547
 1485SOL    HW2 9355   2.607   1.130   7.517
 1486SOL     OW 9356   2.503   3.942   7.239
 1486SOL    HW1 9357   2.530   3.992   7.321
 1486SOL    HW2 9358   2.569   3.961   7.166
 1487SOL     OW 9359   4.024   2.256   7.152
 1487SOL    HW1 9360   4.113   2.288   7.118
 1487SOL    HW2 9361   3.975   2.334   7.191
 1488SOL     OW 9362   3.219   5.050   0.009
 1488SOL    HW1 9363   3.181   5.069   0.100
 1488SOL    HW2 9364   3.315   5.079   0.007
 1489SOL     OW 9365   2.375   1.817   0.399
 1489SOL    HW1 9366   2.468   1.805   0.364
 1489SOL    HW2 9367   2.311   1.765   0.342
 1490SOL     OW 9368   5.142   3.355   1.229
 1490SOL    HW1 9369   5.233   3.348   1.269
 1490SOL    HW2 9370   5.078   3.299   1.281
 1491SOL     OW 9371   3.242   3.594   1.853
 1491SOL    HW1 9372   3.245   3.514   1.913
 1491SOL    HW2 9373   3.204   3.671   1.904
 1492SOL     OW 9374   1.586   0.117   7.376
 1492SOL    HW1 9375   1.544   0.194   7.328
 1492SOL    HW2 9376   1.524   0.039   7.377
 1493SOL     OW 9377   1.896   0.428   0.618
 1493SOL    HW1 9378   1.865   0.418   0.712
 1493SOL    HW2 9379   1.928   0.339   0.585
 1494SOL     OW 9380   2.146   0.529   0.685
 1494SOL    HW1 9381   2.056   0.491   0.663
 1494SOL    HW2 9382   2.167   0.510   0.781
 1495SOL     OW 9383   3.395   1.060   7.523
 1495SOL    HW1 9384   3.465   1.131   7.516
 1495SOL    HW2 9385   3.413   0.990   7.453
 1496SOL     OW 9386   1.045   0.327   0.501
 1496SOL    HW1 9387   0.995   0.242   0.484
 1496SOL    HW2 9388   1.141   0.306   0.516
 1497SOL     OW 9389   3.695   2.417   1.659
 1497SOL    HW1 9390   3.746   2.340   1.621
 1497SOL    HW2 9391   3.616   2.383   1.710
 1498SOL     OW 9392   1.327   3.930   6.459
 1498SOL    HW1 9393   1.297   3.907   6.366
 1498SOL    HW2 9394   1.340   3.847   6.512
 1499SOL     OW 9395   4.259   0.864   1.220
 1499SOL    HW1 9396   4.230   0.789   1.160
 1499SOL    HW2 9397   4.351   0.893   1.195
 1500SOL     OW 9398   3.456   4.086   8.109
 1500SOL    HW1 9399   3.431   4.068   8.014
 1500SOL    HW2 9400   3.535   4.031   8.134
 1501SOL     OW 9401   1.717   1.834   6.501
 1501SOL    HW1 9402   1.717   1.876   6.592
 1501SOL    HW2 9403   1.633   1.857   6.453
 1502SOL     OW 9404   3.322   4.038   0.765
 1502SOL    HW1 9405   3.342   3.943   0.741
 1502SOL    HW2 9406   3.405   4.081   0.802
 1503SOL     OW 9407   1.595   2.441   0.531
 1503SOL    HW1 9408   1.557   2.438   0.624
 1503SOL    HW2 9409   1.605   2.536   0.502
 1504SOL     OW 9410   4.690   0.402   8.130
 1504SOL    HW1 9411   4.613   0.465   8.130
 1504SOL    HW2 9412   4.722   0.389   8.036
 1505SOL     OW 9413   1.899   0.666   7.453
 1505SOL    HW1 9414   1.898   0.618   7.541
 1505SOL    HW2 9415   1.838   0.745   7.457
 1506SOL     OW 9416   1.223   2.789   2.375
 1506SOL    HW1 9417   1.218   2.874   2.426
 1506SOL    HW2 9418   1.140   2.735   2.391
 1507SOL     OW 9419   1.255   3.998   7.572
 1507SOL    HW1 9420   1.213   3.933   7.634
 1507SOL    HW2 9421   1.333   3.955   7.526
 1508SOL     OW 9422   3.313   2.847   0.166
 1508SOL    HW1 9423   3.269   2.917   0.109
 1508SOL    HW2 9424   3.310   2.759   0.118
 1509SOL     OW 9425   1.476   3.405   1.321
 1509SOL    HW1 9426   1.400   3.414   1.256
 1509SOL    HW2 9427   1.556   3.368   1.273
 1510SOL     OW 9428   3.001   4.057   6.663
 1510SOL    HW1 9429   3.023   4.143   6.618
 1510SOL    HW2 9430   2.910   4.026   6.633
 1511SOL     OW 9431   1.552   3.234   6.972
 1511SOL    HW1 9432   1.539   3.266   7.066
 1511SOL    HW2 9433   1.514   3.302   6.909
 1512SOL     OW 9434   2.230   0.812   8.003
 1512SOL    HW1 9435   2.306   0.750   7.985
 1512SOL    HW2 9436   2.265   0.896   8.045
 1513SOL     OW 9437   1.460   4.167   0.162
 1513SOL    HW1 9438   1.416   4.094   0.110
 1513SOL    HW2 9439   1.393   4.240   0.179
 1514SOL     OW 9440   0.807   0.817   6.776
 1514SOL    HW1 9441   0.907   0.822   6.780
 1514SOL    HW2 9442   0.779   0.731   6.735
 1515SOL     OW 9443   4.110   4.484   7.156
 1515SOL    HW1 9444   4.135   4.480   7.059
 1515SOL    HW2 9445   4.190   4.515   7.209
 1516SOL     OW 9446   3.969   0.310   7.154
 1516SOL    HW1 9447   4.065   0.290   7.176
 1516SOL    HW2 9448   3.960   0.325   7.056
 1517SOL     OW 9449   2.436   0.644   7.951
 1517SOL    HW1 9450   2.456   0.555   7.911
 1517SOL    HW2 9451   2.463   0.645   8.047
 1518SOL     OW 9452   0.802   2.702   1.316
 1518SOL    HW1 9453   0.766   2.615   1.349
 1518SOL    HW2 9454   0.729   2.770   1.314
 1519SOL     OW 9455   1.602   3.637   1.738
 1519SOL    HW1 9456   1.579   3.569   1.809
 1519SOL    HW2 9457   1.546   3.620   1.657
 1520SOL     OW 9458   3.672   0.273   7.454
 1520SOL    HW1 9459   3.694   0.365   7.423
 1520SOL    HW2 9460   3.692   0.207   7.382
 1521SOL     OW 9461   4.086   4.867   0.668
 1521SOL    HW1 9462   4.025   4.858   0.747
 1521SOL    HW2 9463   4.081   4.784   0.612
 1522SOL     OW 9464   1.269   1.868   0.222
 1522SOL    HW1 9465   1.242   1.893   0.129
 1522SOL    HW2 9466   1.201   1.902   0.287
 1523SOL     OW 9467   1.142   1.357   1.361
 1523SOL    HW1 9468   1.095   1.273   1.336
 1523SOL    HW2 9469   1.232   1.335   1.399
 1524SOL     OW 9470   0.589   2.876   1.313
 1524SOL    HW1 9471   0.508   2.889   1.256
 1524SOL    HW2 9472   0.560   2.853   1.406
 1525SOL     OW 9473   5.088   4.623   7.025
 1525SOL    HW1 9474   5.153   4.694   7.053
 1525SOL    HW2 9475   4.996   4.649   7.054
 1526SOL     OW 9476   2.405   4.965   0.218
 1526SOL    HW1 9477   2.349   4.911   0.281
 1526SOL    HW2 9478   2.495   4.923   0.210
 1527SOL     OW 9479   3.207   0.322   0.459
 1527SOL    HW1 9480   3.210   0.318   0.559
 1527SOL    HW2 9481   3.122   0.280   0.427
 1528SOL     OW 9482   3.319   4.066   0.212
 1528SOL    HW1 9483   3.360   4.060   0.121
 1528SOL    HW2 9484   3.269   3.982   0.232
 1529SOL     OW 9485   0.679   1.221   7.346
 1529SOL    HW1 9486   0.716   1.313   7.332
 1529SOL    HW2 9487   0.665   1.206   7.444
 1530SOL     OW 9488   3.881   4.580   2.258
 1530SOL    HW1 9489   3.979   4.600   2.257
 1530SOL    HW2 9490   3.831   4.653   2.211
 1531SOL     OW 9491   5.160   2.989   6.894
 1531SOL    HW1 9492   5.066   3.022   6.888
 1531SOL    HW2 9493   5.223   3.065   6.880
 1532SOL     OW 9494   2.915   2.244   7.733
 1532SOL    HW1 9495   2.927   2.328   7.679
 1532SOL    HW2 9496   2.916   2.165   7.672
 1533SOL     OW 9497   4.864   4.485   8.071
 1533SOL    HW1 9498   4.768   4.471   8.094
 1533SOL    HW2 9499   4.915   4.402   8.090
 1534SOL     OW 9500   1.337   4.624   0.826
 1534SOL    HW1 9501   1.418   4.648   0.880
 1534SOL    HW2 9502   1.343   4.528   0.799
 1535SOL     OW 9503   3.947   4.643   1.377
 1535SOL    HW1 9504   3.864   4.590   1.396
 1535SOL    HW2 9505   4.028   4.590   1.401
 1536SOL     OW 9506   2.969   4.600   0.817
 1536SOL    HW1 9507   2.972   4.587   0.916
 1536SOL    HW2 9508   3.035   4.670   0.790
 1537SOL     OW 9509   1.570   4.085   6.837
 1537SOL    HW1 9510   1.624   4.099   6.920
 1537SOL    HW2 9511   1.559   4.172   6.790
 1538SOL     OW 9512   0.177   0.794   7.518
 1538SOL    HW1 9513   0.181   0.804   7.618
 1538SOL    HW2 9514   0.202   0.701   7.493
 1539SOL     OW 9515   4.339   3.561   6.786
 1539SOL    HW1 9516   4.338   3.661   6.774
 1539SOL    HW2 9517   4.280   3.537   6.864
 1540SOL     OW 9518   1.467   1.532   1.319
 1540SOL    HW1 9519   1.386   1.547   1.263
 1540SOL    HW2 9520   1.452   1.451   1.377
 1541SOL     OW 9521   3.203   2.803   0.816
 1541SOL    HW1 9522   3.179   2.792   0.913
 1541SOL    HW2 9523   3.267   2.879   0.806
 1542SOL     OW 9524   0.834   2.111   0.345
 1542SOL    HW1 9525   0.894   2.186   0.318
 1542SOL    HW2 9526   0.888   2.032   0.372
 1543SOL     OW 9527   4.020   0.377   7.768
 1543SOL    HW1 9528   3.949   0.446   7.781
 1543SOL    HW2 9529   3.988   0.310   7.700
 1544SOL     OW 9530   2.325   3.061   1.184
 1544SOL    HW1 9531   2.278   3.086   1.269
 1544SOL    HW2 9532   2.420   3.036   1.204
 1545SOL     OW 9533   1.748   2.604   6.412
 1545SOL    HW1 9534   1.810   2.613   6.334
 1545SOL    HW2 9535   1.660   2.571   6.381
 1546SOL     OW 9536   1.719   2.828   7.054
 1546SOL    HW1 9537   1.638   2.869   7.013
 1546SOL    HW2 9538   1.801   2.873   7.019
 1547SOL     OW 9539   4.325   0.167   6.192
 1547SOL    HW1 9540   4.282   0.256   6.176
 1547SOL    HW2 9541   4.389   0.147   6.117
 1548SOL     OW 9542   4.260   3.087   7.327
 1548SOL    HW1 9543   4.337   3.052   7.380
 1548SOL    HW2 9544   4.240   3.024   7.252
 1549SOL     OW 9545   2.535   2.855   7.524
 1549SOL    HW1 9546   2.541   2.758   7.545
 1549SOL    HW2 9547   2.601   2.878   7.453
 1550SOL     OW 9548   3.916   3.723   6.897
 1550SOL    HW1 9549   3.963   3.774   6.969
 1550SOL    HW2 9550   3.967   3.732   6.811
 1551SOL     OW 9551   1.355   2.159   0.750
 1551SOL    HW1 9552   1.296   2.235   0.724
 1551SOL    HW2 9553   1.416   2.187   0.823
 1552SOL     OW 9554   5.010   4.791   0.842
 1552SOL    HW1 9555   4.975   4.700   0.865
 1552SOL    HW2 9556   4.944   4.838   0.783
 1553SOL     OW 9557   1.180   3.129   8.023
 1553SOL    HW1 9558   1.252   3.198   8.028
 1553SOL    HW2 9559   1.209   3.048   8.074
 1554SOL     OW 9560   3.112   0.077   7.920
 1554SOL    HW1 9561   3.151   0.029   7.998
 1554SOL    HW2 9562   3.082   0.168   7.948
 1555SOL     OW 9563   3.192   1.630   7.156
 1555SOL    HW1 9564   3.127   1.585   7.216
 1555SOL    HW2 9565   3.147   1.708   7.112
 1556SOL     OW 9566   1.401   2.761   1.558
 1556SOL    HW1 9567   1.442   2.791   1.644
 1556SOL    HW2 9568   1.303   2.777   1.561
 1557SOL     OW 9569   2.582   3.903   0.941
 1557SOL    HW1 9570   2.646   3.836   0.981
 1557SOL    HW2 9571   2.523   3.857   0.875
 1558SOL     OW 9572   4.215   4.380   8.069
 1558SOL    HW1 9573   4.158   4.459   8.045
 1558SOL    HW2 9574   4.193   4.351   0.018
 1559SOL     OW 9575   0.898   0.388   8.143
 1559SOL    HW1 9576   0.801   0.408   0.010
 1559SOL    HW2 9577   0.947   0.414   0.082
 1560SOL     OW 9578   1.849   2.715   6.653
 1560SOL    HW1 9579   1.766   2.743   6.700
 1560SOL    HW2 9580   1.826   2.684   6.561
 1561SOL     OW 9581   1.127   3.322   7.817
 1561SOL    HW1 9582   1.135   3.250   7.886
 1561SOL    HW2 9583   1.218   3.344   7.781
 1562SOL     OW 9584   2.448   4.749   1.391
 1562SOL    HW1 9585   2.404   4.690   1.458
 1562SOL    HW2 9586   2.414   4.842   1.400
 1563SOL     OW 9587   1.339   4.707   7.391
 1563SOL    HW1 9588   1.424   4.676   7.348
 1563SOL    HW2 9589   1.269   4.722   7.320
 1564SOL     OW 9590   2.173   3.848   7.421
 1564SOL    HW1 9591   2.153   3.754   7.446
 1564SOL    HW2 9592   2.183   3.856   7.322
 1565SOL     OW 9593   4.224   0.198   7.820
 1565SOL    HW1 9594   4.149   0.262   7.809
 1565SOL    HW2 9595   4.233   0.172   7.917
 1566SOL     OW 9596   1.390   3.844   0.657
 1566SOL    HW1 9597   1.304   3.882   0.689
 1566SOL    HW2 9598   1.464   3.910   0.671
 1567SOL     OW 9599   0.098   0.878   6.953
 1567SOL    HW1 9600   0.146   0.892   7.040
 1567SOL    HW2 9601   0.001   0.865   6.971
 1568SOL     OW 9602   1.444   0.404   0.687
 1568SOL    HW1 9603   1.384   0.342   0.636
 1568SOL    HW2 9604   1.512   0.351   0.738
 1569SOL     OW 9605   0.944   4.090   0.114
 1569SOL    HW1 9606   1.005   4.085   0.193
 1569SOL    HW2 9607   0.927   3.998   0.079
 1570SOL     OW 9608   4.073   1.660   7.458
 1570SOL    HW1 9609   4.141   1.716   7.410
 1570SOL    HW2 9610   4.020   1.718   7.519
 1571SOL     OW 9611   3.328   3.456   1.620
 1571SOL    HW1 9612   3.305   3.518   1.695
 1571SOL    HW2 9613   3.303   3.499   1.533
 1572SOL     OW 9614   0.700   2.650   7.161
 1572SOL    HW1 9615   0.648   2.572   7.127
 1572SOL    HW2 9616   0.645   2.699   7.228
 1573SOL     OW 9617   4.404   1.334   1.167
 1573SOL    HW1 9618   4.435   1.282   1.247
 1573SOL    HW2 9619   4.415   1.278   1.085
 1574SOL     OW 9620   1.856   3.746   1.347
 1574SOL    HW1 9621   1.915   3.826   1.331
 1574SOL    HW2 9622   1.794   3.735   1.269
 1575SOL     OW 9623   1.111   4.654   0.996
 1575SOL    HW1 9624   1.187   4.640   0.931
 1575SOL    HW2 9625   1.073   4.745   0.981
 1576SOL     OW 9626   3.055   4.492   7.124
 1576SOL    HW1 9627   3.077   4.510   7.220
 1576SOL    HW2 9628   3.077   4.573   7.069
 1577SOL     OW 9629   0.839   2.782   0.651
 1577SOL    HW1 9630   0.903   2.838   0.598
 1577SOL    HW2 9631   0.889   2.737   0.726
 1578SOL     OW 9632   3.448   4.094   6.741
 1578SOL    HW1 9633   3.493   4.011   6.709
 1578SOL    HW2 9634   3.409   4.144   6.663
 1579SOL     OW 9635   1.195   1.088   0.441
 1579SOL    HW1 9636   1.222   1.162   0.378
 1579SOL    HW2 9637   1.238   1.003   0.411
 1580SOL     OW 9638   2.659   4.336   0.220
 1580SOL    HW1 9639   2.617   4.287   0.144
 1580SOL    HW2 9640   2.652   4.434   0.206
 1581SOL     OW 9641   1.750   3.348   1.248
 1581SOL    HW1 9642   1.763   3.442   1.282
 1581SOL    HW2 9643   1.839   3.303   1.241
 1582SOL     OW 9644   3.240   2.257   7.197
 1582SOL    HW1 9645   3.182   2.307   7.134
 1582SOL    HW2 9646   3.269   2.171   7.155
 1583SOL     OW 9647   2.394   3.738   1.662
 1583SOL    HW1 9648   2.487   3.723   1.628
 1583SOL    HW2 9649   2.378   3.835   1.675
 1584SOL     OW 9650   3.839   0.934   7.485
 1584SOL    HW1 9651   3.786   0.970   7.562
 1584SOL    HW2 9652   3.890   1.009   7.442
 1585SOL     OW 9653   1.088   1.559   6.892
 1585SOL    HW1 9654   1.025   1.615   6.944
 1585SOL    HW2 9655   1.049   1.539   6.802
 1586SOL     OW 9656   3.060   1.883   7.118
 1586SOL    HW1 9657   3.023   1.921   7.034
 1586SOL    HW2 9658   2.993   1.822   7.160
 1587SOL     OW 9659   3.462   1.299   6.678
 1587SOL    HW1 9660   3.487   1.290   6.581
 1587SOL    HW2 9661   3.382   1.242   6.696
 1588SOL     OW 9662   1.591   4.908   1.123
 1588SOL    HW1 9663   1.500   4.940   1.150
 1588SOL    HW2 9664   1.645   4.890   1.205
 1589SOL     OW 9665   2.332   1.861   0.075
 1589SOL    HW1 9666   2.276   1.808   0.139
 1589SOL    HW2 9667   2.275   1.897   0.002
 1590SOL     OW 9668   0.635   2.281   7.654
 1590SOL    HW1 9669   0.626   2.194   7.703
 1590SOL    HW2 9670   0.661   2.353   7.719
 1591SOL     OW 9671   3.064   0.212   1.911
 1591SOL    HW1 9672   3.023   0.147   1.975
 1591SOL    HW2 9673   3.141   0.259   1.956
 1592SOL     OW 9674   2.749   2.886   0.494
 1592SOL    HW1 9675   2.698   2.961   0.452
 1592SOL    HW2 9676   2.816   2.850   0.429
 1593SOL     OW 9677   3.282   2.116   0.073
 1593SOL    HW1 9678   3.272   2.055   0.151
 1593SOL    HW2 9679   3.259   2.067   8.134
 1594SOL     OW 9680   1.891   3.682   6.353
 1594SOL    HW1 9681   1.988   3.674   6.377
 1594SOL    HW2 9682   1.882   3.736   6.269
 1595SOL     OW 9683   4.904   4.686   7.406
 1595SOL    HW1 9684   4.852   4.654   7.485
 1595SOL    HW2 9685   4.978   4.746   7.437
 1596SOL     OW 9686   0.455   1.803   6.886
 1596SOL    HW1 9687   0.490   1.896   6.900
 1596SOL    HW2 9688   0.378   1.787   6.947
 1597SOL     OW 9689   0.459   1.073   7.082
 1597SOL    HW1 9690   0.447   1.055   6.985
 1597SOL    HW2 9691   0.554   1.057   7.109
 1598SOL     OW 9692   0.798   2.334   6.950
 1598SOL    HW1 9693   0.802   2.282   6.864
 1598SOL    HW2 9694   0.877   2.310   7.007
 1599SOL     OW 9695   1.899   3.796   6.109
 1599SOL    HW1 9696   1.983   3.761   6.067
 1599SOL    HW2 9697   1.820   3.766   6.056
 1600SOL     OW 9698   5.155   4.081   7.322
 1600SOL    HW1 9699   5.200   4.041   7.402
 1600SOL    HW2 9700   5.215   4.071   7.242
 1601SOL     OW 9701   1.239   3.591   8.101
 1601SOL    HW1 9702   1.194   3.502   8.112
 1601SOL    HW2 9703   1.324   3.578   8.050
 1602SOL     OW 9704   1.618   4.848   7.132
 1602SOL    HW1 9705   1.582   4.757   7.155
 1602SOL    HW2 9706   1.544   4.905   7.096
 1603SOL     OW 9707   4.836   4.424   6.836
 1603SOL    HW1 9708   4.857   4.493   6.767
 1603SOL    HW2 9709   4.865   4.334   6.804
 1604SOL     OW 9710   3.584   3.527   6.708
 1604SOL    HW1 9711   3.625   3.574   6.630
 1604SOL    HW2 9712   3.656   3.499   6.772
 1605SOL     OW 9713   4.193   1.387   6.781
 1605SOL    HW1 9714   4.240   1.420   6.699
 1605SOL    HW2 9715   4.115   1.446   6.801
 1606SOL     OW 9716   1.822   2.308   0.453
 1606SOL    HW1 9717   1.743   2.359   0.487
 1606SOL    HW2 9718   1.904   2.338   0.501
 1607SOL     OW 9719   3.124   1.703   0.289
 1607SOL    HW1 9720   3.136   1.612   0.251
 1607SOL    HW2 9721   3.033   1.710   0.331
 1608SOL     OW 9722   3.795   1.297   7.323
 1608SOL    HW1 9723   3.817   1.395   7.313
 1608SOL    HW2 9724   3.879   1.245   7.332
 1609SOL     OW 9725   1.996   2.699   7.530
 1609SOL    HW1 9726   1.956   2.780   7.488
 1609SOL    HW2 9727   2.064   2.726   7.599
 1610SOL     OW 9728   4.408   4.408   0.652
 1610SOL    HW1 9729   4.455   4.367   0.731
 1610SOL    HW2 9730   4.324   4.453   0.682
 1611SOL     OW 9731   4.997   3.179   1.386
 1611SOL    HW1 9732   5.029   3.088   1.410
 1611SOL    HW2 9733   4.978   3.232   1.469
 1612SOL     OW 9734   2.363   2.972   7.044
 1612SOL    HW1 9735   2.296   2.929   7.105
 1612SOL    HW2 9736   2.453   2.929   7.058
 1613SOL     OW 9737   4.059   2.310   1.428
 1613SOL    HW1 9738   4.136   2.373   1.435
 1613SOL    HW2 9739   4.091   2.223   1.390
 1614SOL     OW 9740   4.944   0.890   0.047
 1614SOL    HW1 9741   4.963   0.963   0.112
 1614SOL    HW2 9742   4.876   0.921   8.125
 1615SOL     OW 9743   3.860   1.395   7.948
 1615SOL    HW1 9744   3.902   1.476   7.907
 1615SOL    HW2 9745   3.805   1.422   8.027
 1616SOL     OW 9746   5.274   3.804   1.043
 1616SOL    HW1 9747   5.238   3.774   0.954
 1616SOL    HW2 9748   5.217   3.878   1.079
 1617SOL     OW 9749   1.055   4.222   7.000
 1617SOL    HW1 9750   1.008   4.280   7.066
 1617SOL    HW2 9751   0.990   4.160   6.957
 1618SOL     OW 9752   0.935   3.881   6.697
 1618SOL    HW1 9753   1.016   3.935   6.673
 1618SOL    HW2 9754   0.892   3.847   6.613
 1619SOL     OW 9755   0.424   1.768   8.042
 1619SOL    HW1 9756   0.489   1.696   8.015
 1619SOL    HW2 9757   0.340   1.758   7.990
 1620SOL     OW 9758   0.206   0.176   0.524
 1620SOL    HW1 9759   0.293   0.195   0.569
 1620SOL    HW2 9760   0.224   0.138   0.433
 1621SOL     OW 9761   1.398   0.306   7.709
 1621SOL    HW1 9762   1.392   0.208   7.728
 1621SOL    HW2 9763   1.373   0.357   7.792
 1622SOL     OW 9764   3.770   4.053   1.567
 1622SOL    HW1 9765   3.713   3.974   1.542
 1622SOL    HW2 9766   3.809   4.038   1.658
 1623SOL     OW 9767   4.907   4.181   1.224
 1623SOL    HW1 9768   4.976   4.240   1.180
 1623SOL    HW2 9769   4.817   4.223   1.216
 1624SOL     OW 9770   5.276   3.429   0.670
 1624SOL    HW1 9771   0.062   3.498   0.702
 1624SOL    HW2 9772   5.192   3.435   0.723
 1625SOL     OW 9773   3.005   4.187   1.343
 1625SOL    HW1 9774   3.007   4.128   1.424
 1625SOL    HW2 9775   3.035   4.279   1.368
 1626SOL     OW 9776   2.735   3.815   0.179
 1626SOL    HW1 9777   2.827   3.847   0.159
 1626SOL    HW2 9778   2.684   3.888   0.225
 1627SOL     OW 9779   3.191   1.469   7.543
 1627SOL    HW1 9780   3.128   1.497   7.470
 1627SOL    HW2 9781   3.285   1.488   7.515
 1628SOL     OW 9782   4.149   4.910   7.846
 1628SOL    HW1 9783   4.117   4.855   7.769
 1628SOL    HW2 9784   4.152   5.007   7.820
 1629SOL     OW 9785   1.389   2.474   7.213
 1629SOL    HW1 9786   1.434   2.446   7.129
 1629SOL    HW2 9787   1.290   2.460   7.205
 1630SOL     OW 9788   0.655   2.355   0.655
 1630SOL    HW1 9789   0.683   2.442   0.612
 1630SOL    HW2 9790   0.629   2.291   0.583
 1631SOL     OW 9791   2.097   1.655   8.056
 1631SOL    HW1 9792   2.098   1.627   7.960
 1631SOL    HW2 9793   2.185   1.631   8.099
 1632SOL     OW 9794   1.074   3.657   1.104
 1632SOL    HW1 9795   1.053   3.706   1.019
 1632SOL    HW2 9796   0.991   3.616   1.140
 1633SOL     OW 9797   0.510   4.763   0.475
 1633SOL    HW1 9798   0.569   4.810   0.409
 1633SOL    HW2 9799   0.449   4.829   0.519
 1634SOL     OW 9800   3.717   4.293   0.712
 1634SOL    HW1 9801   3.745   4.310   0.617
 1634SOL    HW2 9802   3.753   4.365   0.771
 1635SOL     OW 9803   0.439   1.488   6.625
 1635SOL    HW1 9804   0.374   1.511   6.698
 1635SOL    HW2 9805   0.400   1.415   6.568
 1636SOL     OW 9806   0.984   3.500   6.524
 1636SOL    HW1 9807   0.999   3.483   6.427
 1636SOL    HW2 9808   1.071   3.493   6.573
 1637SOL     OW 9809   5.093   1.844   0.825
 1637SOL    HW1 9810   5.120   1.752   0.796
 1637SOL    HW2 9811   5.044   1.889   0.751
 1638SOL     OW 9812   1.513   1.960   1.588
 1638SOL    HW1 9813   1.585   1.953   1.658
 1638SOL    HW2 9814   1.449   1.884   1.599
 1639SOL     OW 9815   0.903   3.928   7.668
 1639SOL    HW1 9816   0.877   3.835   7.642
 1639SOL    HW2 9817   0.853   3.954   7.751
 1640SOL     OW 9818   5.042   0.185   7.160
 1640SOL    HW1 9819   5.035   0.190   7.060
 1640SOL    HW2 9820   5.108   0.253   7.192
 1641SOL     OW 9821   3.952   1.904   1.278
 1641SOL    HW1 9822   4.014   1.981   1.289
 1641SOL    HW2 9823   3.903   1.888   1.364
 1642SOL     OW 9824   2.162   3.651   6.387
 1642SOL    HW1 9825   2.207   3.600   6.313
 1642SOL    HW2 9826   2.146   3.591   6.465
 1643SOL     OW 9827   3.287   2.691   0.398
 1643SOL    HW1 9828   3.297   2.747   0.316
 1643SOL    HW2 9829   3.225   2.736   0.462
 1644SOL     OW 9830   1.183   0.684   7.023
 1644SOL    HW1 9831   1.274   0.643   7.020
 1644SOL    HW2 9832   1.182   0.759   7.088
 1645SOL     OW 9833   3.873   2.639   7.481
 1645SOL    HW1 9834   3.777   2.649   7.506
 1645SOL    HW2 9835   3.931   2.680   7.551
 1646SOL     OW 9836   2.674   4.262   6.948
 1646SOL    HW1 9837   2.581   4.278   6.981
 1646SOL    HW2 9838   2.739   4.275   7.023
 1647SOL     OW 9839   2.562   3.742   0.518
 1647SOL    HW1 9840   2.540   3.722   0.422
 1647SOL    HW2 9841   2.649   3.791   0.522
 1648SOL     OW 9842   1.871   1.510   7.051
 1648SOL    HW1 9843   1.800   1.448   7.015
 1648SOL    HW2 9844   1.829   1.575   7.114
 1649SOL     OW 9845   1.991   0.046   7.068
 1649SOL    HW1 9846   2.006   0.098   6.984
 1649SOL    HW2 9847   2.077   0.005   7.098
 1650SOL     OW 9848   0.818   1.425   0.078
 1650SOL    HW1 9849   0.824   1.330   0.109
 1650SOL    HW2 9850   0.722   1.448   0.060
 1651SOL     OW 9851   3.468   0.578   0.612
 1651SOL    HW1 9852   3.540   0.563   0.543
 1651SOL    HW2 9853   3.481   0.514   0.688
 1652SOL     OW 9854   3.975   3.677   0.209
 1652SOL    HW1 9855   4.019   3.639   0.290
 1652SOL    HW2 9856   3.922   3.606   0.162
 1653SOL     OW 9857   1.304   3.099   6.496
 1653SOL    HW1 9858   1.268   3.148   6.417
 1653SOL    HW2 9859   1.229   3.058   6.547
 1654SOL     OW 9860   4.187   4.175   1.447
 1654SOL    HW1 9861   4.273   4.197   1.402
 1654SOL    HW2 9862   4.203   4.104   1.517
 1655SOL     OW 9863   1.912   3.313   0.685
 1655SOL    HW1 9864   1.997   3.307   0.736
 1655SOL    HW2 9865   1.888   3.223   0.649
 1656SOL     OW 9866   4.221   4.322   7.428
 1656SOL    HW1 9867   4.244   4.411   7.388
 1656SOL    HW2 9868   4.304   4.266   7.434
 1657SOL     OW 9869   2.936   3.842   7.998
 1657SOL    HW1 9870   3.017   3.787   7.974
 1657SOL    HW2 9871   2.945   3.874   8.092
 1658SOL     OW 9872   4.295   0.023   8.065
 1658SOL    HW1 9873   4.366   0.084   8.099
 1658SOL    HW2 9874   4.333   5.011   8.054
 1659SOL     OW 9875   2.821   1.446   0.520
 1659SOL    HW1 9876   2.869   1.495   0.594
 1659SOL    HW2 9877   2.855   1.352   0.516
 1660SOL     OW 9878   1.634   3.241   1.018
 1660SOL    HW1 9879   1.572   3.173   1.057
 1660SOL    HW2 9880   1.685   3.286   1.092
 1661SOL     OW 9881   1.664   3.718   5.996
 1661SOL    HW1 9882   1.642   3.653   5.923
 1661SOL    HW2 9883   1.595   3.790   5.999
 1662SOL     OW 9884   3.998   1.924   7.837
 1662SOL    HW1 9885   3.961   1.902   7.928
 1662SOL    HW2 9886   4.058   2.004   7.844
 1663SOL     OW 9887   3.815   4.856   7.567
 1663SOL    HW1 9888   3.745   4.858   7.638
 1663SOL    HW2 9889   3.776   4.819   7.483
 1664SOL     OW 9890   2.090   2.643   1.085
 1664SOL    HW1 9891   2.153   2.715   1.056
 1664SOL    HW2 9892   2.138   2.577   1.142
 1665SOL     OW 9893   1.472   0.856   0.667
 1665SOL    HW1 9894   1.381   0.849   0.707
 1665SOL    HW2 9895   1.524   0.773   0.688
 1666SOL     OW 9896   4.418   1.681   6.891
 1666SOL    HW1 9897   4.399   1.703   6.795
 1666SOL    HW2 9898   4.456   1.589   6.897
 1667SOL     OW 9899   0.850   0.168   7.306
 1667SOL    HW1 9900   0.919   0.237   7.328
 1667SOL    HW2 9901   0.812   0.132   7.391
 1668SOL     OW 9902   3.468   1.727   0.010
 1668SOL    HW1 9903   3.468   1.639   0.057
 1668SOL    HW2 9904   3.380   1.741   8.110
 1669SOL     OW 9905   0.604   0.274   1.832
 1669SOL    HW1 9906   0.563   0.364   1.825
 1669SOL    HW2 9907   0.566   0.214   1.762
 1670SOL     OW 9908   0.406   4.961   7.721
 1670SOL    HW1 9909   0.454   5.045   7.745
 1670SOL    HW2 9910   0.468   4.901   7.671
 1671SOL     OW 9911   1.157   4.135   6.176
 1671SOL    HW1 9912   1.198   4.199   6.241
 1671SOL    HW2 9913   1.139   4.181   6.089
 1672SOL     OW 9914   0.682   0.913   1.776
 1672SOL    HW1 9915   0.780   0.919   1.757
 1672SOL    HW2 9916   0.642   0.838   1.724
 1673SOL     OW 9917   1.651   0.056   1.412
 1673SOL    HW1 9918   1.644   5.037   1.410
 1673SOL    HW2 9919   1.574   0.096   1.362
 1674SOL     OW 9920   3.226   2.072   6.376
 1674SOL    HW1 9921   3.263   2.053   6.285
 1674SOL    HW2 9922   3.270   2.153   6.414
 1675SOL     OW 9923   0.835   2.176   7.317
 1675SOL    HW1 9924   0.739   2.172   7.346
 1675SOL    HW2 9925   0.859   2.270   7.293
 1676SOL     OW 9926   3.144   0.257   1.380
 1676SOL    HW1 9927   3.203   0.230   1.303
 1676SOL    HW2 9928   3.087   0.179   1.406
 1677SOL     OW 9929   0.546   1.837   0.555
 1677SOL    HW1 9930   0.488   1.898   0.501
 1677SOL    HW2 9931   0.501   1.816   0.642
 1678SOL     OW 9932   0.017   3.916   0.499
 1678SOL    HW1 9933   0.066   3.993   0.539
 1678SOL    HW2 9934   5.207   3.904   0.544
 1679SOL     OW 9935   2.218   3.840   1.399
 1679SOL    HW1 9936   2.214   3.742   1.381
 1679SOL    HW2 9937   2.314   3.870   1.400
 1680SOL     OW 9938   2.268   1.666   0.865
 1680SOL    HW1 9939   2.178   1.703   0.883
 1680SOL    HW2 9940   2.259   1.574   0.826
 1681SOL     OW 9941   1.730   0.938   7.778
 1681SOL    HW1 9942   1.681   1.008   7.830
 1681SOL    HW2 9943   1.748   0.859   7.837
 1682SOL     OW 9944   4.143   3.664   6.246
 1682SOL    HW1 9945   4.091   3.744   6.217
 1682SOL    HW2 9946   4.189   3.624   6.167
 1683SOL     OW 9947   2.516   4.069   1.153
 1683SOL    HW1 9948   2.530   4.008   1.075
 1683SOL    HW2 9949   2.601   4.117   1.173
 1684SOL     OW 9950   0.024   0.487   1.401
 1684SOL    HW1 9951   0.102   0.535   1.362
 1684SOL    HW2 9952   0.054   0.402   1.444
 1685SOL     OW 9953   1.473   3.919   6.042
 1685SOL    HW1 9954   1.394   3.896   6.099
 1685SOL    HW2 9955   1.445   3.982   5.970
 1686SOL     OW 9956   3.652   4.417   0.113
 1686SOL    HW1 9957   3.559   4.390   0.089
 1686SOL    HW2 9958   3.703   4.438   0.029
 1687SOL     OW 9959   4.003   0.727   0.336
 1687SOL    HW1 9960   4.088   0.675   0.335
 1687SOL    HW2 9961   3.953   0.708   0.420
 1688SOL     OW 9962   0.382   1.297   7.225
 1688SOL    HW1 9963   0.397   1.270   7.320
 1688SOL    HW2 9964   0.413   1.223   7.164
 1689SOL     OW 9965   4.241   3.484   0.861
 1689SOL    HW1 9966   4.315   3.549   0.874
 1689SOL    HW2 9967   4.276   3.403   0.814
 1690SOL     OW 9968   3.315   0.398   1.536
 1690SOL    HW1 9969   3.245   0.353   1.480
 1690SOL    HW2 9970   3.276   0.478   1.581
 1691SOL     OW 9971   3.661   2.964   7.540
 1691SOL    HW1 9972   3.585   3.020   7.507
 1691SOL    HW2 9973   3.747   3.011   7.519
 1692SOL     OW 9974   3.078   3.603   7.676
 1692SOL    HW1 9975   3.075   3.661   7.595
 1692SOL    HW2 9976   3.127   3.518   7.655
 1693SOL     OW 9977   1.826   3.688   0.840
 1693SOL    HW1 9978   1.834   3.743   0.757
 1693SOL    HW2 9979   1.776   3.604   0.820
 1694SOL     OW 9980   0.675   1.044   6.706
 1694SOL    HW1 9981   0.741   1.119   6.702
 1694SOL    HW2 9982   0.722   0.961   6.736
 1695SOL     OW 9983   1.393   4.107   1.033
 1695SOL    HW1 9984   1.429   4.026   1.080
 1695SOL    HW2 9985   1.355   4.170   1.101
 1696SOL     OW 9986   0.620   4.804   6.816
 1696SOL    HW1 9987   0.704   4.786   6.869
 1696SOL    HW2 9988   0.544   4.821   6.879
 1697SOL     OW 9989   3.695   3.215   6.938
 1697SOL    HW1 9990   3.728   3.307   6.914
 1697SOL    HW2 9991   3.612   3.195   6.886
 1698SOL     OW 9992   1.867   4.013   1.681
 1698SOL    HW1 9993   1.860   4.040   1.778
 1698SOL    HW2 9994   1.850   3.915   1.673
 1699SOL     OW 9995   4.937   2.309   7.042
 1699SOL    HW1 9996   4.933   2.214   7.011
 1699SOL    HW2 9997   4.920   2.314   7.140
 1700SOL     OW 9998   2.068   1.055   6.716
 1700SOL    HW1 9999   2.014   1.133   6.748
 1700SOL    HW210000   2.016   0.971   6.729
 1701SOL     OW10001   4.470   3.136   1.742
 1701SOL    HW110002   4.430   3.047   1.717
 1701SOL    HW210003   4.560   3.145   1.701
 1702SOL     OW10004   4.473   2.643   7.566
 1702SOL    HW110005   4.403   2.652   7.496
 1702SOL    HW210006   4.493   2.546   7.581
 1703SOL     OW10007   2.334   0.248   1.292
 1703SOL    HW110008   2.341   0.251   1.392
 1703SOL    HW210009   2.242   0.218   1.266
 1704SOL     OW10010   5.078   4.349   1.101
 1704SOL    HW110011   5.111   4.346   1.007
 1704SOL    HW210012   5.132   4.414   1.154
 1705SOL     OW10013   4.221   2.382   0.332
 1705SOL    HW110014   4.165   2.449   0.381
 1705SOL    HW210015   4.216   2.399   0.234
 1706SOL     OW10016   2.611   3.246   1.383
 1706SOL    HW110017   2.691   3.306   1.386
 1706SOL    HW210018   2.529   3.298   1.404
 1707SOL     OW10019   3.344   4.237   6.536
 1707SOL    HW110020   3.298   4.314   6.581
 1707SOL    HW210021   3.288   4.205   6.459
 1708SOL     OW10022   0.582   1.770   1.358
 1708SOL    HW110023   0.678   1.759   1.333
 1708SOL    HW210024   0.571   1.752   1.456
 1709SOL     OW10025   4.082   4.919   7.270
 1709SOL    HW110026   4.035   4.831   7.273
 1709SOL    HW210027   4.065   4.963   7.182
 1710SOL     OW10028   2.364   4.382   8.039
 1710SOL    HW110029   2.335   4.432   8.120
 1710SOL    HW210030   2.344   4.285   8.052
 1711SOL     OW10031   1.200   2.070   1.116
 1711SOL    HW110032   1.268   2.015   1.068
 1711SOL    HW210033   1.246   2.128   1.183
 1712SOL     OW10034   3.812   2.425   6.350
 1712SOL    HW110035   3.836   2.510   6.302
 1712SOL    HW210036   3.747   2.373   6.294
 1713SOL     OW10037   2.217   0.524   5.561
 1713SOL    HW110038   2.148   0.524   5.488
 1713SOL    HW210039   2.239   0.618   5.587
 1714SOL     OW10040   2.103   0.701   7.787
 1714SOL    HW110041   2.153   0.735   7.866
 1714SOL    HW210042   2.058   0.777   7.740
 1715SOL     OW10043   1.618   0.025   1.795
 1715SOL    HW110044   1.596   0.040   1.891
 1715SOL    HW210045   1.538   0.046   1.739
 1716SOL     OW10046   0.260   2.225   7.688
 1716SOL    HW110047   0.164   2.239   7.713
 1716SOL    HW210048   0.312   2.308   7.709
 1717SOL     OW10049   4.228   0.552   6.874
 1717SOL    HW110050   4.234   0.566   6.776
 1717SOL    HW210051   4.220   0.641   6.920
 1718SOL     OW10052   4.154   1.675   0.201
 1718SOL    HW110053   4.219   1.669   0.277
 1718SOL    HW210054   4.161   1.765   0.158
 1719SOL     OW10055   0.771   4.340   2.008
 1719SOL    HW110056   0.692   4.402   2.016
 1719SOL    HW210057   0.784   4.293   2.095
 1720SOL     OW10058   0.568   2.125   6.612
 1720SOL    HW110059   0.489   2.064   6.617
 1720SOL    HW210060   0.601   2.129   6.517
 1721SOL     OW10061   0.311   1.860   5.822
 1721SOL    HW110062   0.265   1.791   5.764
 1721SOL    HW210063   0.283   1.951   5.793
 1722SOL     OW10064   3.644   1.189   0.003
 1722SOL    HW110065   3.727   1.134   0.005
 1722SOL    HW210066   3.668   1.286   0.007
 1723SOL     OW10067   0.726   3.126   0.490
 1723SOL    HW110068   0.763   3.150   0.401
 1723SOL    HW210069   0.796   3.137   0.561
 1724SOL     OW10070   1.044   3.711   6.158
 1724SOL    HW110071   1.030   3.620   6.197
 1724SOL    HW210072   1.003   3.714   6.066
 1725SOL     OW10073   4.411   1.179   0.248
 1725SOL    HW110074   4.342   1.115   0.281
 1725SOL    HW210075   4.390   1.204   0.154
 1726SOL     OW10076   1.139   2.584   1.456
 1726SOL    HW110077   1.127   2.680   1.481
 1726SOL    HW210078   1.081   2.563   1.377
 1727SOL     OW10079   0.406   3.925   1.162
 1727SOL    HW110080   0.361   3.989   1.224
 1727SOL    HW210081   0.385   3.831   1.190
 1728SOL     OW10082   1.218   5.056   6.836
 1728SOL    HW110083   1.262   0.061   6.809
 1728SOL    HW210084   1.259   4.980   6.786
 1729SOL     OW10085   1.883   3.782   7.901
 1729SOL    HW110086   1.804   3.726   7.927
 1729SOL    HW210087   1.953   3.774   7.972
 1730SOL     OW10088   1.699   1.184   0.493
 1730SOL    HW110089   1.657   1.265   0.535
 1730SOL    HW210090   1.763   1.212   0.422
 1731SOL     OW10091   2.179   4.902   6.435
 1731SOL    HW110092   2.101   4.841   6.448
 1731SOL    HW210093   2.258   4.850   6.404
 1732SOL     OW10094   1.759   2.548   7.564
 1732SOL    HW110095   1.760   2.515   7.469
 1732SOL    HW210096   1.839   2.605   7.581
 1733SOL     OW10097   0.390   1.226   7.497
 1733SOL    HW110098   0.474   1.240   7.549
 1733SOL    HW210099   0.381   1.129   7.473
 1734SOL     OW10100   0.239   1.614   1.317
 1734SOL    HW110101   0.206   1.708   1.319
 1734SOL    HW210102   0.180   1.557   1.374
 1735SOL     OW10103   1.948   4.440   1.305
 1735SOL    HW110104   2.028   4.463   1.250
 1735SOL    HW210105   1.924   4.344   1.291
 1736SOL     OW10106   1.168   2.800   0.822
 1736SOL    HW110107   1.079   2.760   0.844
 1736SOL    HW210108   1.217   2.739   0.758
 1737SOL     OW10109   4.274   0.571   7.457
 1737SOL    HW110110   4.203   0.627   7.500
 1737SOL    HW210111   4.311   0.506   7.523
 1738SOL     OW10112   2.314   3.484   6.951
 1738SOL    HW110113   2.244   3.426   6.908
 1738SOL    HW210114   2.316   3.467   7.049
 1739SOL     OW10115   2.968   2.467   7.549
 1739SOL    HW110116   2.995   2.396   7.485
 1739SOL    HW210117   2.904   2.529   7.505
 1740SOL     OW10118   3.831   0.517   7.280
 1740SOL    HW110119   3.879   0.603   7.262
 1740SOL    HW210120   3.884   0.441   7.245
 1741SOL     OW10121   0.454   2.449   0.830
 1741SOL    HW110122   0.531   2.420   0.774
 1741SOL    HW210123   0.485   2.464   0.924
 1742SOL     OW10124   4.876   0.444   0.538
 1742SOL    HW110125   4.957   0.498   0.560
 1742SOL    HW210126   4.814   0.498   0.480
 1743SOL     OW10127   2.496   1.115   6.496
 1743SOL    HW110128   2.496   1.057   6.414
 1743SOL    HW210129   2.554   1.195   6.480
 1744SOL     OW10130   3.064   1.835   7.782
 1744SOL    HW110131   3.127   1.757   7.769
 1744SOL    HW210132   3.103   1.898   7.849
 1745SOL     OW10133   0.778   1.482   7.320
 1745SOL    HW110134   0.759   1.528   7.407
 1745SOL    HW210135   0.755   1.542   7.244
 1746SOL     OW10136   1.706   3.188   6.588
 1746SOL    HW110137   1.784   3.248   6.567
 1746SOL    HW210138   1.716   3.103   6.537
 1747SOL     OW10139   0.693   1.777   0.953
 1747SOL    HW110140   0.603   1.812   0.928
 1747SOL    HW210141   0.719   1.812   1.043
 1748SOL     OW10142   3.911   0.208   7.590
 1748SOL    HW110143   3.820   0.229   7.556
 1748SOL    HW210144   3.942   0.121   7.550
 1749SOL     OW10145   3.184   4.142   6.338
 1749SOL    HW110146   3.219   4.107   6.251
 1749SOL    HW210147   3.091   4.109   6.351
 1750SOL     OW10148   4.417   0.584   7.858
 1750SOL    HW110149   4.505   0.631   7.844
 1750SOL    HW210150   4.402   0.519   7.785
 1751SOL     OW10151   1.316   2.394   1.535
 1751SOL    HW110152   1.332   2.402   1.633
 1751SOL    HW210153   1.253   2.466   1.505
 1752SOL     OW10154   1.679   0.254   2.212
 1752SOL    HW110155   1.746   0.256   2.286
 1752SOL    HW210156   1.614   0.330   2.224
 1753SOL     OW10157   2.259   1.808   6.977
 1753SOL    HW110158   2.169   1.851   6.976
 1753SOL    HW210159   2.249   1.710   6.992
 1754SOL     OW10160   0.342   0.675   0.845
 1754SOL    HW110161   0.413   0.745   0.860
 1754SOL    HW210162   0.252   0.717   0.853
 1755SOL     OW10163   1.071   4.964   1.580
 1755SOL    HW110164   1.077   5.042   1.642
 1755SOL    HW210165   1.128   4.890   1.616
 1756SOL     OW10166   0.265   3.147   1.480
 1756SOL    HW110167   0.255   3.048   1.490
 1756SOL    HW210168   0.325   3.182   1.551
 1757SOL     OW10169   2.571   1.153   8.048
 1757SOL    HW110170   2.652   1.100   8.075
 1757SOL    HW210171   2.488   1.102   8.071
 1758SOL     OW10172   3.206   4.669   7.812
 1758SOL    HW110173   3.187   4.723   7.894
 1758SOL    HW210174   3.121   4.623   7.783
 1759SOL     OW10175   1.144   1.916   5.985
 1759SOL    HW110176   1.150   1.827   5.938
 1759SOL    HW210177   1.082   1.909   6.062
 1760SOL     OW10178   2.784   2.154   6.283
 1760SOL    HW110179   2.855   2.085   6.297
 1760SOL    HW210180   2.797   2.198   6.194
 1761SOL     OW10181   1.483   3.544   7.955
 1761SOL    HW110182   1.470   3.568   7.859
 1761SOL    HW210183   1.581   3.544   7.976
 1762SOL     OW10184   4.491   5.056   7.831
 1762SOL    HW110185   4.420   0.044   7.849
 1762SOL    HW210186   4.475   4.976   7.888
 1763SOL     OW10187   4.039   2.972   1.305
 1763SOL    HW110188   4.034   3.064   1.267
 1763SOL    HW210189   4.084   2.975   1.395
 1764SOL     OW10190   5.087   4.639   0.017
 1764SOL    HW110191   4.999   4.606   8.128
 1764SOL    HW210192   5.085   4.739   0.024
 1765SOL     OW10193   2.268   0.191   1.827
 1765SOL    HW110194   2.215   0.107   1.821
 1765SOL    HW210195   2.298   0.205   1.921
 1766SOL     OW10196   1.467   2.209   7.791
 1766SOL    HW110197   1.521   2.204   7.707
 1766SOL    HW210198   1.407   2.289   7.788
 1767SOL     OW10199   4.338   2.037   0.602
 1767SOL    HW110200   4.416   2.097   0.621
 1767SOL    HW210201   4.371   1.952   0.561
 1768SOL     OW10202   1.262   4.349   0.209
 1768SOL    HW110203   1.266   4.443   0.243
 1768SOL    HW210204   1.221   4.348   0.118
 1769SOL     OW10205   1.939   2.962   6.961
 1769SOL    HW110206   1.881   3.030   6.917
 1769SOL    HW210207   2.026   2.955   6.912
 1770SOL     OW10208   1.225   0.804   0.812
 1770SOL    HW110209   1.228   0.814   0.911
 1770SOL    HW210210   1.195   0.889   0.770
 1771SOL     OW10211   3.942   2.152   6.914
 1771SOL    HW110212   3.964   2.193   7.003
 1771SOL    HW210213   4.019   2.096   6.884
 1772SOL     OW10214   3.370   4.016   7.850
 1772SOL    HW110215   3.397   4.042   7.758
 1772SOL    HW210216   3.276   4.046   7.867
 1773SOL     OW10217   0.056   0.156   8.112
 1773SOL    HW110218   0.110   0.222   0.020
 1773SOL    HW210219   0.114   0.113   8.043
 1774SOL     OW10220   1.286   4.279   1.207
 1774SOL    HW110221   1.203   4.327   1.234
 1774SOL    HW210222   1.349   4.274   1.285
 1775SOL     OW10223   3.371   5.042   7.184
 1775SOL    HW110224   3.375   5.050   7.084
 1775SOL    HW210225   3.288   0.005   7.218
 1776SOL     OW10226   0.299   0.660   7.199
 1776SOL    HW110227   0.355   0.634   7.121
 1776SOL    HW210228   0.283   0.759   7.197
 1777SOL     OW10229   3.039   2.553   0.009
 1777SOL    HW110230   3.026   2.638   8.103
 1777SOL    HW210231   2.971   2.547   0.082
 1778SOL     OW10232   2.938   4.436   0.600
 1778SOL    HW110233   2.864   4.369   0.608
 1778SOL    HW210234   2.951   4.482   0.687
 1779SOL     OW10235   1.024   1.959   1.294
 1779SOL    HW110236   0.992   2.044   1.335
 1779SOL    HW210237   1.082   1.979   1.215
 1780SOL     OW10238   2.222   4.239   1.412
 1780SOL    HW110239   2.186   4.324   1.452
 1780SOL    HW210240   2.189   4.161   1.465
 1781SOL     OW10241   3.219   4.444   2.338
 1781SOL    HW110242   3.186   4.539   2.342
 1781SOL    HW210243   3.312   4.440   2.374
 1782SOL     OW10244   0.885   4.599   0.464
 1782SOL    HW110245   0.823   4.572   0.391
 1782SOL    HW210246   0.952   4.526   0.480
 1783SOL     OW10247   1.327   0.870   6.691
 1783SOL    HW110248   1.387   0.800   6.732
 1783SOL    HW210249   1.370   0.960   6.701
 1784SOL     OW10250   4.603   1.360   7.674
 1784SOL    HW110251   4.563   1.315   7.754
 1784SOL    HW210252   4.538   1.358   7.599
 1785SOL     OW10253   1.101   0.520   6.804
 1785SOL    HW110254   1.168   0.446   6.814
 1785SOL    HW210255   1.122   0.592   6.869
 1786SOL     OW10256   1.749   1.612   7.651
 1786SOL    HW110257   1.752   1.678   7.725
 1786SOL    HW210258   1.655   1.587   7.631
 1787SOL     OW10259   3.018   1.254   7.265
 1787SOL    HW110260   3.056   1.214   7.348
 1787SOL    HW210261   3.085   1.248   7.191
 1788SOL     OW10262   2.099   3.518   6.608
 1788SOL    HW110263   2.022   3.454   6.601
 1788SOL    HW210264   2.077   3.589   6.675
 1789SOL     OW10265   3.481   2.850   6.916
 1789SOL    HW110266   3.412   2.783   6.943
 1789SOL    HW210267   3.572   2.818   6.941
 1790SOL     OW10268   2.445   0.018   0.956
 1790SOL    HW110269   2.398   5.012   0.939
 1790SOL    HW210270   2.516   0.032   0.886
 1791SOL     OW10271   2.518   2.765   8.102
 1791SOL    HW110272   2.552   2.686   0.009
 1791SOL    HW210273   2.580   2.843   8.117
 1792SOL     OW10274   3.813   1.429   0.451
 1792SOL    HW110275   3.752   1.505   0.432
 1792SOL    HW210276   3.767   1.343   0.429
 1793SOL     OW10277   3.053   0.757   7.264
 1793SOL    HW110278   3.094   0.799   7.345
 1793SOL    HW210279   3.117   0.763   7.188
 1794SOL     OW10280   2.444   1.537   6.371
 1794SOL    HW110281   2.366   1.593   6.342
 1794SOL    HW210282   2.493   1.505   6.290
 1795SOL     OW10283   4.232   3.446   1.293
 1795SOL    HW110284   4.317   3.423   1.246
 1795SOL    HW210285   4.162   3.469   1.224
 1796SOL     OW10286   3.754   0.867   7.079
 1796SOL    HW110287   3.737   0.962   7.108
 1796SOL    HW210288   3.667   0.824   7.056
 1797SOL     OW10289   3.579   4.726   1.470
 1797SOL    HW110290   3.528   4.737   1.555
 1797SOL    HW210291   3.579   4.812   1.419
 1798SOL     OW10292   1.045   0.558   7.822
 1798SOL    HW110293   1.048   0.465   7.857
 1798SOL    HW210294   1.123   0.610   7.857
 1799SOL     OW10295   0.712   4.513   0.271
 1799SOL    HW110296   0.724   4.420   0.235
 1799SOL    HW210297   0.618   4.524   0.303
 1800SOL     OW10298   3.712   3.006   7.811
 1800SOL    HW110299   3.686   2.978   7.719
 1800SOL    HW210300   3.811   3.019   7.815
 1801SOL     OW10301   1.362   2.834   1.018
 1801SOL    HW110302   1.277   2.821   0.966
 1801SOL    HW210303   1.354   2.788   1.106
 1802SOL     OW10304   2.561   4.082   6.361
 1802SOL    HW110305   2.532   4.176   6.350
 1802SOL    HW210306   2.501   4.021   6.309
 1803SOL     OW10307   5.243   4.771   1.549
 1803SOL    HW110308   5.225   4.732   1.640
 1803SOL    HW210309   0.002   4.863   1.559
 1804SOL     OW10310   4.664   1.057   0.274
 1804SOL    HW110311   4.583   1.115   0.262
 1804SOL    HW210312   4.635   0.962   0.289
 1805SOL     OW10313   4.693   2.247   8.057
 1805SOL    HW110314   4.763   2.203   8.001
 1805SOL    HW210315   4.644   2.315   8.002
 1806SOL     OW10316   0.878   1.234   6.664
 1806SOL    HW110317   0.950   1.225   6.595
 1806SOL    HW210318   0.825   1.317   6.646
 1807SOL     OW10319   4.999   4.458   7.280
 1807SOL    HW110320   4.977   4.545   7.325
 1807SOL    HW210321   5.058   4.476   7.201
 1808SOL     OW10322   4.250   4.788   7.439
 1808SOL    HW110323   4.319   4.843   7.485
 1808SOL    HW210324   4.200   4.845   7.373
 1809SOL     OW10325   4.557   2.382   7.614
 1809SOL    HW110326   4.560   2.376   7.714
 1809SOL    HW210327   4.649   2.400   7.580
 1810SOL     OW10328   3.308   2.013   6.123
 1810SOL    HW110329   3.231   2.067   6.087
 1810SOL    HW210330   3.310   1.924   6.077
 1811SOL     OW10331   3.911   1.861   8.088
 1811SOL    HW110332   3.858   1.915   0.008
 1811SOL    HW210333   4.004   1.849   8.123
 1812SOL     OW10334   5.078   4.759   1.333
 1812SOL    HW110335   5.140   4.766   1.410
 1812SOL    HW210336   4.991   4.804   1.355
 1813SOL     OW10337   1.643   3.111   0.778
 1813SOL    HW110338   1.645   3.160   0.865
 1813SOL    HW210339   1.592   3.026   0.789
 1814SOL     OW10340   5.031   2.572   7.045
 1814SOL    HW110341   4.962   2.639   7.019
 1814SOL    HW210342   4.996   2.480   7.030
 1815SOL     OW10343   2.421   5.023   6.924
 1815SOL    HW110344   2.507   5.031   6.975
 1815SOL    HW210345   2.435   4.962   6.846
 1816SOL     OW10346   4.717   0.158   1.541
 1816SOL    HW110347   4.628   0.197   1.564
 1816SOL    HW210348   4.711   0.058   1.542
 1817SOL     OW10349   4.800   1.354   6.515
 1817SOL    HW110350   4.733   1.400   6.458
 1817SOL    HW210351   4.870   1.311   6.458
 1818SOL     OW10352   0.170   0.809   6.537
 1818SOL    HW110353   0.108   0.765   6.472
 1818SOL    HW210354   0.162   0.908   6.529
 1819SOL     OW10355   3.469   3.108   6.823
 1819SOL    HW110356   3.444   3.122   6.727
 1819SOL    HW210357   3.474   3.011   6.843
 1820SOL     OW10358   2.524   3.438   0.947
 1820SOL    HW110359   2.450   3.375   0.968
 1820SOL    HW210360   2.510   3.477   0.855
 1821SOL     OW10361   0.126   2.889   0.045
 1821SOL    HW110362   0.172   2.921   0.128
 1821SOL    HW210363   0.062   2.816   0.069
 1822SOL     OW10364   4.946   2.914   0.013
 1822SOL    HW110365   4.869   2.942   8.100
 1822SOL    HW210366   4.911   2.872   0.097
 1823SOL     OW10367   4.931   1.595   7.052
 1823SOL    HW110368   4.956   1.686   7.084
 1823SOL    HW210369   4.884   1.545   7.125
 1824SOL     OW10370   0.798   1.404   7.715
 1824SOL    HW110371   0.861   1.354   7.657
 1824SOL    HW210372   0.831   1.404   7.810
 1825SOL     OW10373   3.805   4.128   7.567
 1825SOL    HW110374   3.878   4.193   7.586
 1825SOL    HW210375   3.731   4.175   7.518
 1826SOL     OW10376   4.841   2.108   7.864
 1826SOL    HW110377   4.768   2.049   7.830
 1826SOL    HW210378   4.900   2.134   7.788
 1827SOL     OW10379   3.788   3.457   0.833
 1827SOL    HW110380   3.794   3.359   0.847
 1827SOL    HW210381   3.869   3.488   0.781
 1828SOL     OW10382   3.872   3.931   0.228
 1828SOL    HW110383   3.875   3.955   0.325
 1828SOL    HW210384   3.907   3.838   0.215
 1829SOL     OW10385   1.522   2.868   0.801
 1829SOL    HW110386   1.461   2.858   0.880
 1829SOL    HW210387   1.590   2.795   0.803
 1830SOL     OW10388   2.251   4.008   0.203
 1830SOL    HW110389   2.290   4.025   0.294
 1830SOL    HW210390   2.154   4.034   0.203
 1831SOL     OW10391   0.709   2.508   7.799
 1831SOL    HW110392   0.641   2.581   7.811
 1831SOL    HW210393   0.732   2.470   7.889
 1832SOL     OW10394   0.176   4.063   8.045
 1832SOL    HW110395   0.233   4.031   8.120
 1832SOL    HW210396   0.099   4.116   8.082
 1833SOL     OW10397   1.454   2.832   7.794
 1833SOL    HW110398   1.379   2.861   7.734
 1833SOL    HW210399   1.485   2.741   7.767
 1834SOL     OW10400   0.761   4.854   1.075
 1834SOL    HW110401   0.704   4.833   0.996
 1834SOL    HW210402   0.856   4.866   1.046
 1835SOL     OW10403   2.258   4.159   1.148
 1835SOL    HW110404   2.234   4.187   1.241
 1835SOL    HW210405   2.354   4.131   1.145
 1836SOL     OW10406   4.146   2.618   0.996
 1836SOL    HW110407   4.100   2.559   1.062
 1836SOL    HW210408   4.100   2.707   0.994
 1837SOL     OW10409   3.000   0.572   6.215
 1837SOL    HW110410   3.032   0.604   6.304
 1837SOL    HW210411   3.003   0.648   6.150
 1838SOL     OW10412   3.122   0.847   0.409
 1838SOL    HW110413   3.155   0.759   0.443
 1838SOL    HW210414   3.075   0.834   0.321
 1839SOL     OW10415   4.021   0.957   6.689
 1839SOL    HW110416   4.036   0.887   6.618
 1839SOL    HW210417   3.993   0.912   6.774
 1840SOL     OW10418   0.592   3.187   5.620
 1840SOL    HW110419   0.673   3.178   5.561
 1840SOL    HW210420   0.603   3.268   5.678
 1841SOL     OW10421   2.905   4.108   0.420
 1841SOL    HW110422   2.995   4.116   0.463
 1841SOL    HW210423   2.909   4.144   0.327
 1842SOL     OW10424   4.124   1.799   6.649
 1842SOL    HW110425   4.082   1.872   6.596
 1842SOL    HW210426   4.219   1.787   6.619
 1843SOL     OW10427   0.768   3.240   8.130
 1843SOL    HW110428   0.759   3.170   8.060
 1843SOL    HW210429   0.705   3.315   8.110
 1844SOL     OW10430   1.083   1.955   0.405
 1844SOL    HW110431   1.125   2.042   0.431
 1844SOL    HW210432   1.073   1.897   0.486
 1845SOL     OW10433   0.903   0.693   0.161
 1845SOL    HW110434   0.917   0.743   0.075
 1845SOL    HW210435   0.940   0.745   0.237
 1846SOL     OW10436   2.898   4.542   5.692
 1846SOL    HW110437   2.902   4.627   5.639
 1846SOL    HW210438   2.808   4.499   5.678
 1847SOL     OW10439   4.302   3.022   0.364
 1847SOL    HW110440   4.348   3.064   0.286
 1847SOL    HW210441   4.369   2.977   0.422
 1848SOL     OW10442   3.116   2.830   0.554
 1848SOL    HW110443   3.126   2.927   0.533
 1848SOL    HW210444   3.134   2.816   0.651
 1849SOL     OW10445   0.988   3.532   0.277
 1849SOL    HW110446   0.900   3.511   0.319
 1849SOL    HW210447   0.974   3.568   0.185
 1850SOL     OW10448   4.868   3.523   7.872
 1850SOL    HW110449   4.789   3.518   7.933
 1850SOL    HW210450   4.841   3.568   7.787
 1851SOL     OW10451   3.137   0.655   0.960
 1851SOL    HW110452   3.093   0.639   0.871
 1851SOL    HW210453   3.180   0.570   0.991
 1852SOL     OW10454   4.967   1.095   7.763
 1852SOL    HW110455   5.015   1.023   7.713
 1852SOL    HW210456   4.872   1.069   7.775
 1853SOL     OW10457   3.158   1.988   7.995
 1853SOL    HW110458   3.099   2.069   7.996
 1853SOL    HW210459   3.124   1.921   8.062
 1854SOL     OW10460   3.292   2.703   6.578
 1854SOL    HW110461   3.225   2.726   6.507
 1854SOL    HW210462   3.244   2.665   6.657
 1855SOL     OW10463   0.046   3.565   6.871
 1855SOL    HW110464   5.246   3.510   6.900
 1855SOL    HW210465   0.046   3.574   6.772
 1856SOL     OW10466   0.651   0.322   7.194
 1856SOL    HW110467   0.727   0.261   7.218
 1856SOL    HW210468   0.623   0.374   7.274
 1857SOL     OW10469   1.529   3.749   7.070
 1857SOL    HW110470   1.509   3.835   7.117
 1857SOL    HW210471   1.614   3.711   7.105
 1858SOL     OW10472   4.928   0.868   1.904
 1858SOL    HW110473   4.966   0.955   1.873
 1858SOL    HW210474   4.842   0.884   1.951
 1859SOL     OW10475   2.796   0.185   8.109
 1859SOL    HW110476   2.873   0.247   8.089
 1859SOL    HW210477   2.811   0.098   8.061
 1860SOL     OW10478   0.311   1.503   7.472
 1860SOL    HW110479   0.348   1.526   7.382
 1860SOL    HW210480   0.329   1.406   7.490
 1861SOL     OW10481   3.855   3.031   0.445
 1861SOL    HW110482   3.923   2.970   0.406
 1861SOL    HW210483   3.892   3.124   0.451
 1862SOL     OW10484   3.153   1.042   1.204
 1862SOL    HW110485   3.072   1.001   1.244
 1862SOL    HW210486   3.176   0.995   1.119
 1863SOL     OW10487   0.675   0.667   1.232
 1863SOL    HW110488   0.747   0.700   1.293
 1863SOL    HW210489   0.625   0.744   1.194
 1864SOL     OW10490   1.085   1.155   0.042
 1864SOL    HW110491   1.100   1.201   8.099
 1864SOL    HW210492   0.988   1.160   0.066
 1865SOL     OW10493   0.485   1.748   6.547
 1865SOL    HW110494   0.459   1.655   6.572
 1865SOL    HW210495   0.579   1.766   6.575
 1866SOL     OW10496   3.641   3.194   1.122
 1866SOL    HW110497   3.627   3.104   1.163
 1866SOL    HW210498   3.697   3.184   1.039
 1867SOL     OW10499   0.692   2.069   0.116
 1867SOL    HW110500   0.667   1.972   0.110
 1867SOL    HW210501   0.739   2.086   0.202
 1868SOL     OW10502   2.503   3.666   7.276
 1868SOL    HW110503   2.523   3.645   7.372
 1868SOL    HW210504   2.496   3.765   7.264
 1869SOL     OW10505   4.508   1.234   1.403
 1869SOL    HW110506   4.453   1.155   1.431
 1869SOL    HW210507   4.518   1.296   1.480
 1870SOL     OW10508   3.168   4.691   1.151
 1870SOL    HW110509   3.081   4.648   1.129
 1870SOL    HW210510   3.235   4.621   1.175
 1871SOL     OW10511   4.522   4.738   0.264
 1871SOL    HW110512   4.537   4.835   0.282
 1871SOL    HW210513   4.549   4.685   0.345
 1872SOL     OW10514   2.801   2.019   0.748
 1872SOL    HW110515   2.781   1.971   0.833
 1872SOL    HW210516   2.749   2.105   0.744
 1873SOL     OW10517   2.647   2.460   1.967
 1873SOL    HW110518   2.612   2.533   2.026
 1873SOL    HW210519   2.691   2.501   1.887
 1874SOL     OW10520   3.254   0.414   1.010
 1874SOL    HW110521   3.342   0.427   0.964
 1874SOL    HW210522   3.264   0.344   1.081
 1875SOL     OW10523   4.887   2.183   1.115
 1875SOL    HW110524   4.840   2.107   1.160
 1875SOL    HW210525   4.979   2.192   1.154
 1876SOL     OW10526   2.799   1.748   7.810
 1876SOL    HW110527   2.897   1.755   7.791
 1876SOL    HW210528   2.766   1.835   7.847
 1877SOL     OW10529   2.930   0.503   1.257
 1877SOL    HW110530   3.025   0.533   1.249
 1877SOL    HW210531   2.870   0.569   1.213
 1878SOL     OW10532   2.484   0.187   0.557
 1878SOL    HW110533   2.480   0.166   0.459
 1878SOL    HW210534   2.396   0.168   0.600
 1879SOL     OW10535   4.888   4.674   7.865
 1879SOL    HW110536   4.872   4.602   7.933
 1879SOL    HW210537   4.879   4.763   7.908
 1880SOL     OW10538   2.103   1.097   1.428
 1880SOL    HW110539   2.146   1.027   1.485
 1880SOL    HW210540   2.122   1.078   1.331
 1881SOL     OW10541   1.162   4.612   7.846
 1881SOL    HW110542   1.063   4.600   7.840
 1881SOL    HW210543   1.205   4.524   7.865
 1882SOL     OW10544   2.441   3.941   7.827
 1882SOL    HW110545   2.370   4.010   7.839
 1882SOL    HW210546   2.435   3.902   7.735
 1883SOL     OW10547   3.125   4.868   6.130
 1883SOL    HW110548   3.070   4.869   6.213
 1883SOL    HW210549   3.084   4.928   6.062
 1884SOL     OW10550   0.902   0.862   8.068
 1884SOL    HW110551   0.873   0.804   7.992
 1884SOL    HW210552   0.825   0.917   8.100
 1885SOL     OW10553   1.339   1.141   7.817
 1885SOL    HW110554   1.308   1.046   7.812
 1885SOL    HW210555   1.432   1.145   7.853
 1886SOL     OW10556   4.367   2.558   6.166
 1886SOL    HW110557   4.268   2.546   6.172
 1886SOL    HW210558   4.389   2.613   6.085
 1887SOL     OW10559   1.966   2.233   7.506
 1887SOL    HW110560   1.922   2.230   7.596
 1887SOL    HW210561   1.895   2.245   7.436
 1888SOL     OW10562   2.995   0.807   0.162
 1888SOL    HW110563   3.053   0.764   0.092
 1888SOL    HW210564   2.936   0.875   0.119
 1889SOL     OW10565   0.239   4.728   6.786
 1889SOL    HW110566   0.230   4.636   6.823
 1889SOL    HW210567   0.297   4.783   6.846
 1890SOL     OW10568   0.595   3.830   0.849
 1890SOL    HW110569   0.615   3.904   0.913
 1890SOL    HW210570   0.505   3.844   0.808
 1891SOL     OW10571   4.616   2.808   6.831
 1891SOL    HW110572   4.581   2.875   6.897
 1891SOL    HW210573   4.554   2.802   6.753
 1892SOL     OW10574   3.607   3.501   2.306
 1892SOL    HW110575   3.508   3.484   2.308
 1892SOL    HW210576   3.652   3.431   2.250
 1893SOL     OW10577   2.784   3.411   0.013
 1893SOL    HW110578   2.753   3.504   8.135
 1893SOL    HW210579   2.851   3.381   8.090
 1894SOL     OW10580   0.936   3.159   0.677
 1894SOL    HW110581   0.968   3.254   0.678
 1894SOL    HW210582   0.879   3.143   0.758
 1895SOL     OW10583   2.386   3.925   6.229
 1895SOL    HW110584   2.372   3.890   6.136
 1895SOL    HW210585   2.299   3.925   6.278
 1896SOL     OW10586   1.515   2.028   0.549
 1896SOL    HW110587   1.476   1.939   0.527
 1896SOL    HW210588   1.468   2.066   0.629
 1897SOL     OW10589   2.955   3.319   1.988
 1897SOL    HW110590   2.968   3.280   1.897
 1897SOL    HW210591   3.003   3.263   2.055
 1898SOL     OW10592   3.957   1.050   0.439
 1898SOL    HW110593   4.009   1.004   0.367
 1898SOL    HW210594   4.019   1.109   0.492
 1899SOL     OW10595   0.643   4.435   1.353
 1899SOL    HW110596   0.679   4.416   1.444
 1899SOL    HW210597   0.665   4.530   1.328
 1900SOL     OW10598   0.168   0.038   1.975
 1900SOL    HW110599   0.069   0.051   1.968
 1900SOL    HW210600   0.208   0.113   2.027
 1901SOL     OW10601   2.610   1.761   0.254
 1901SOL    HW110602   2.625   1.824   0.177
 1901SOL    HW210603   2.698   1.737   0.295
 1902SOL     OW10604   1.374   4.158   7.773
 1902SOL    HW110605   1.390   4.089   7.843
 1902SOL    HW210606   1.331   4.116   7.693
 1903SOL     OW10607   2.656   0.277   6.714
 1903SOL    HW110608   2.617   0.222   6.641
 1903SOL    HW210609   2.703   0.356   6.675
 1904SOL     OW10610   2.241   4.386   0.386
 1904SOL    HW110611   2.190   4.469   0.409
 1904SOL    HW210612   2.200   4.308   0.434
 1905SOL     OW10613   2.163   4.981   1.103
 1905SOL    HW110614   2.216   4.941   1.027
 1905SOL    HW210615   2.121   4.907   1.156
 1906SOL     OW10616   4.061   1.202   7.981
 1906SOL    HW110617   3.992   1.274   7.990
 1906SOL    HW210618   4.078   1.183   7.884
 1907SOL     OW10619   4.562   1.419   0.743
 1907SOL    HW110620   4.637   1.475   0.707
 1907SOL    HW210621   4.480   1.475   0.754
 1908SOL     OW10622   5.044   0.494   7.864
 1908SOL    HW110623   4.967   0.500   7.801
 1908SOL    HW210624   5.045   0.404   7.907
 1909SOL     OW10625   2.641   0.175   1.821
 1909SOL    HW110626   2.678   0.197   1.911
 1909SOL    HW210627   2.625   0.259   1.770
 1910SOL     OW10628   0.678   4.631   0.640
 1910SOL    HW110629   0.764   4.622   0.590
 1910SOL    HW210630   0.609   4.671   0.580
 1911SOL     OW10631   4.531   3.381   0.441
 1911SOL    HW110632   4.565   3.291   0.468
 1911SOL    HW210633   4.454   3.371   0.378
 1912SOL     OW10634   2.500   4.318   0.441
 1912SOL    HW110635   2.562   4.319   0.363
 1912SOL    HW210636   2.408   4.343   0.412
 1913SOL     OW10637   3.211   0.599   0.512
 1913SOL    HW110638   3.303   0.604   0.551
 1913SOL    HW210639   3.198   0.510   0.469
 1914SOL     OW10640   4.021   1.216   7.683
 1914SOL    HW110641   3.924   1.238   7.688
 1914SOL    HW210642   4.069   1.287   7.632
 1915SOL     OW10643   3.876   3.827   1.296
 1915SOL    HW110644   3.937   3.794   1.224
 1915SOL    HW210645   3.904   3.919   1.324
 1916SOL     OW10646   2.341   3.446   7.225
 1916SOL    HW110647   2.401   3.524   7.239
 1916SOL    HW210648   2.302   3.418   7.313
 1917SOL     OW10649   1.647   2.626   0.202
 1917SOL    HW110650   1.658   2.552   0.136
 1917SOL    HW210651   1.724   2.690   0.194
 1918SOL     OW10652   5.085   2.416   0.839
 1918SOL    HW110653   5.163   2.470   0.871
 1918SOL    HW210654   5.004   2.438   0.894
 1919SOL     OW10655   0.155   1.553   5.840
 1919SOL    HW110656   0.075   1.568   5.783
 1919SOL    HW210657   0.212   1.481   5.800
 1920SOL     OW10658   0.721   4.105   6.714
 1920SOL    HW110659   0.778   4.140   6.640
 1920SOL    HW210660   0.779   4.072   6.788
 1921SOL     OW10661   3.630   3.980   0.576
 1921SOL    HW110662   3.572   4.038   0.518
 1921SOL    HW210663   3.608   3.995   0.672
 1922SOL     OW10664   1.081   0.852   6.814
 1922SOL    HW110665   1.159   0.860   6.752
 1922SOL    HW210666   1.109   0.802   6.896
 1923SOL     OW10667   3.566   0.452   7.815
 1923SOL    HW110668   3.539   0.508   7.737
 1923SOL    HW210669   3.495   0.385   7.835
 1924SOL     OW10670   4.035   0.850   7.912
 1924SOL    HW110671   4.073   0.760   7.893
 1924SOL    HW210672   3.935   0.845   7.912
 1925SOL     OW10673   2.886   3.434   6.697
 1925SOL    HW110674   2.792   3.400   6.690
 1925SOL    HW210675   2.948   3.357   6.709
 1926SOL     OW10676   2.964   1.263   1.364
 1926SOL    HW110677   2.893   1.318   1.408
 1926SOL    HW210678   2.926   1.220   1.282
 1927SOL     OW10679   3.486   0.400   0.835
 1927SOL    HW110680   3.547   0.464   0.881
 1927SOL    HW210681   3.512   0.306   0.856
 1928SOL     OW10682   3.414   1.281   7.262
 1928SOL    HW110683   3.468   1.279   7.346
 1928SOL    HW210684   3.389   1.188   7.236
 1929SOL     OW10685   0.757   3.859   0.443
 1929SOL    HW110686   0.748   3.831   0.348
 1929SOL    HW210687   0.668   3.891   0.477
 1930SOL     OW10688   4.164   4.513   0.750
 1930SOL    HW110689   4.119   4.551   0.669
 1930SOL    HW210690   4.095   4.485   0.816
 1931SOL     OW10691   3.936   3.047   6.567
 1931SOL    HW110692   3.940   3.135   6.519
 1931SOL    HW210693   3.987   3.054   6.653
 1932SOL     OW10694   4.171   1.015   0.241
 1932SOL    HW110695   4.163   0.956   0.160
 1932SOL    HW210696   4.141   1.107   0.219
 1933SOL     OW10697   1.779   0.134   7.882
 1933SOL    HW110698   1.787   0.039   7.912
 1933SOL    HW210699   1.754   0.136   7.785
 1934SOL     OW10700   1.415   2.686   7.406
 1934SOL    HW110701   1.493   2.740   7.375
 1934SOL    HW210702   1.395   2.615   7.339
 1935SOL     OW10703   0.720   1.197   0.654
 1935SOL    HW110704   0.677   1.132   0.591
 1935SOL    HW210705   0.793   1.246   0.605
 1936SOL     OW10706   3.889   1.065   0.029
 1936SOL    HW110707   3.887   0.967   0.050
 1936SOL    HW210708   3.957   1.082   8.102
 1937SOL     OW10709   4.693   0.338   0.256
 1937SOL    HW110710   4.696   0.345   0.156
 1937SOL    HW210711   4.767   0.280   0.287
 1938SOL     OW10712   3.733   0.199   1.447
 1938SOL    HW110713   3.684   0.284   1.462
 1938SOL    HW210714   3.752   0.154   1.534
 1939SOL     OW10715   0.278   1.945   7.679
 1939SOL    HW110716   0.199   1.926   7.621
 1939SOL    HW210717   0.283   2.043   7.698
 1940SOL     OW10718   2.147   1.571   7.804
 1940SOL    HW110719   2.077   1.533   7.744
 1940SOL    HW210720   2.199   1.641   7.755
 1941SOL     OW10721   4.721   0.072   6.975
 1941SOL    HW110722   4.726   0.161   6.930
 1941SOL    HW210723   4.795   0.014   6.941
 1942SOL     OW10724   0.810   1.863   7.585
 1942SOL    HW110725   0.762   1.775   7.585
 1942SOL    HW210726   0.885   1.860   7.520
 1943SOL     OW10727   1.282   4.296   6.622
 1943SOL    HW110728   1.261   4.310   6.525
 1943SOL    HW210729   1.381   4.296   6.635
 1944SOL     OW10730   2.491   4.743   0.456
 1944SOL    HW110731   2.550   4.806   0.506
 1944SOL    HW210732   2.544   4.698   0.384
 1945SOL     OW10733   1.135   2.747   6.272
 1945SOL    HW110734   1.038   2.729   6.254
 1945SOL    HW210735   1.159   2.837   6.238
 1946SOL     OW10736   3.421   4.420   0.923
 1946SOL    HW110737   3.329   4.393   0.951
 1946SOL    HW210738   3.488   4.377   0.984
 1947SOL     OW10739   2.762   4.896   7.276
 1947SOL    HW110740   2.668   4.873   7.299
 1947SOL    HW210741   2.810   4.927   7.358
 1948SOL     OW10742   1.748   1.695   7.220
 1948SOL    HW110743   1.657   1.663   7.249
 1948SOL    HW210744   1.799   1.724   7.301
 1949SOL     OW10745   3.471   4.572   0.701
 1949SOL    HW110746   3.452   4.514   0.621
 1949SOL    HW210747   3.450   4.520   0.784
 1950SOL     OW10748   4.607   4.887   1.136
 1950SOL    HW110749   4.619   4.918   1.230
 1950SOL    HW210750   4.563   4.959   1.082
 1951SOL     OW10751   4.369   0.188   0.852
 1951SOL    HW110752   4.356   0.158   0.758
 1951SOL    HW210753   4.416   0.276   0.853
 1952SOL     OW10754   3.418   1.085   0.663
 1952SOL    HW110755   3.425   0.994   0.623
 1952SOL    HW210756   3.509   1.126   0.669
 1953SOL     OW10757   2.538   3.610   7.540
 1953SOL    HW110758   2.582   3.633   7.627
 1953SOL    HW210759   2.533   3.510   7.531
 1954SOL     OW10760   1.826   2.884   7.948
 1954SOL    HW110761   1.883   2.804   7.929
 1954SOL    HW210762   1.744   2.857   7.998
 1955SOL     OW10763   4.332   2.910   7.985
 1955SOL    HW110764   4.412   2.868   8.027
 1955SOL    HW210765   4.332   3.009   8.003
 1956SOL     OW10766   2.606   4.071   7.463
 1956SOL    HW110767   2.642   3.993   7.514
 1956SOL    HW210768   2.546   4.125   7.522
 1957SOL     OW10769   4.526   5.028   0.698
 1957SOL    HW110770   4.595   5.081   0.747
 1957SOL    HW210771   4.473   0.009   0.640
 1958SOL     OW10772   2.783   4.365   1.727
 1958SOL    HW110773   2.798   4.388   1.824
 1958SOL    HW210774   2.871   4.352   1.682
 1959SOL     OW10775   1.257   2.460   8.037
 1959SOL    HW110776   1.268   2.443   7.939
 1959SOL    HW210777   1.210   2.383   8.080
 1960SOL     OW10778   3.924   0.544   0.931
 1960SOL    HW110779   3.922   0.644   0.931
 1960SOL    HW210780   3.963   0.511   0.845
 1961SOL     OW10781   4.607   2.392   6.497
 1961SOL    HW110782   4.590   2.321   6.428
 1961SOL    HW210783   4.571   2.479   6.465
 1962SOL     OW10784   4.689   2.640   7.943
 1962SOL    HW110785   4.779   2.608   7.975
 1962SOL    HW210786   4.699   2.679   7.852
 1963SOL     OW10787   0.086   0.778   0.890
 1963SOL    HW110788   0.041   0.866   0.875
 1963SOL    HW210789   0.083   0.756   0.987
 1964SOL     OW10790   3.861   0.087   6.865
 1964SOL    HW110791   3.915   0.040   6.934
 1964SOL    HW210792   3.880   0.186   6.868
 1965SOL     OW10793   2.149   3.361   5.658
 1965SOL    HW110794   2.137   3.262   5.665
 1965SOL    HW210795   2.094   3.406   5.729
 1966SOL     OW10796   0.096   3.339   1.380
 1966SOL    HW110797   0.164   3.271   1.410
 1966SOL    HW210798   0.033   3.359   1.454
 1967SOL     OW10799   2.025   2.288   6.933
 1967SOL    HW110800   1.935   2.330   6.922
 1967SOL    HW210801   2.049   2.285   7.030
 1968SOL     OW10802   5.131   4.021   1.138
 1968SOL    HW110803   5.050   4.058   1.182
 1968SOL    HW210804   5.211   4.077   1.162
 1969SOL     OW10805   0.454   4.440   8.144
 1969SOL    HW110806   0.429   4.460   8.049
 1969SOL    HW210807   0.551   4.457   0.012
 1970SOL     OW10808   1.484   2.369   6.972
 1970SOL    HW110809   1.426   2.291   6.953
 1970SOL    HW210810   1.465   2.442   6.906
 1971SOL     OW10811   3.137   1.459   0.175
 1971SOL    HW110812   3.088   1.373   0.184
 1971SOL    HW210813   3.143   1.484   0.078
 1972SOL     OW10814   0.433   4.522   7.880
 1972SOL    HW110815   0.436   4.617   7.912
 1972SOL    HW210816   0.389   4.519   7.791
 1973SOL     OW10817   1.802   2.297   0.172
 1973SOL    HW110818   1.814   2.316   0.269
 1973SOL    HW210819   1.796   2.198   0.158
 1974SOL     OW10820   3.703   4.949   0.267
 1974SOL    HW110821   3.667   4.963   0.359
 1974SOL    HW210822   3.799   4.921   0.272
 1975SOL     OW10823   4.227   3.420   6.356
 1975SOL    HW110824   4.308   3.390   6.307
 1975SOL    HW210825   4.198   3.509   6.322
 1976SOL     OW10826   1.732   0.109   7.605
 1976SOL    HW110827   1.828   0.093   7.584
 1976SOL    HW210828   1.678   0.107   7.520
 1977SOL     OW10829   4.406   1.829   8.067
 1977SOL    HW110830   4.432   1.918   8.030
 1977SOL    HW210831   4.487   1.771   8.077
 1978SOL     OW10832   4.248   0.055   7.578
 1978SOL    HW110833   4.157   0.030   7.546
 1978SOL    HW210834   4.240   0.113   7.659
 1979SOL     OW10835   4.106   1.091   1.256
 1979SOL    HW110836   4.095   1.102   1.355
 1979SOL    HW210837   4.161   1.010   1.238
 1980SOL     OW10838   4.420   0.964   7.265
 1980SOL    HW110839   4.512   0.926   7.270
 1980SOL    HW210840   4.354   0.889   7.258
 1981SOL     OW10841   1.843   2.468   7.300
 1981SOL    HW110842   1.937   2.469   7.336
 1981SOL    HW210843   1.841   2.512   7.210
 1982SOL     OW10844   4.110   0.315   8.120
 1982SOL    HW110845   4.048   0.393   8.131
 1982SOL    HW210846   4.188   0.325   0.038
 1983SOL     OW10847   2.566   1.354   0.458
 1983SOL    HW110848   2.536   1.403   0.377
 1983SOL    HW210849   2.655   1.388   0.488
 1984SOL     OW10850   0.276   0.755   6.780
 1984SOL    HW110851   0.209   0.791   6.846
 1984SOL    HW210852   0.243   0.772   6.687
 1985SOL     OW10853   4.101   0.037   0.548
 1985SOL    HW110854   4.091   5.021   0.573
 1985SOL    HW210855   4.073   0.049   0.453
 1986SOL     OW10856   0.172   0.410   5.898
 1986SOL    HW110857   0.079   0.430   5.926
 1986SOL    HW210858   0.182   0.312   5.881
 1987SOL     OW10859   3.633   4.958   0.534
 1987SOL    HW110860   3.662   5.042   0.581
 1987SOL    HW210861   3.557   4.917   0.584
 1988SOL     OW10862   0.067   0.638   0.631
 1988SOL    HW110863   0.068   0.666   0.727
 1988SOL    HW210864   0.137   0.688   0.581
 1989SOL     OW10865   3.419   4.843   0.689
 1989SOL    HW110866   3.431   4.745   0.674
 1989SOL    HW210867   3.458   4.869   0.777
 1990SOL     OW10868   0.384   1.361   7.952
 1990SOL    HW110869   0.368   1.270   7.913
 1990SOL    HW210870   0.296   1.408   7.962
 1991SOL     OW10871   4.022   4.625   0.545
 1991SOL    HW110872   3.935   4.654   0.506
 1991SOL    HW210873   4.094   4.634   0.476
 1992SOL     OW10874   4.440   4.261   1.355
 1992SOL    HW110875   4.458   4.358   1.374
 1992SOL    HW210876   4.472   4.205   1.431
 1993SOL     OW10877   5.075   0.787   1.205
 1993SOL    HW110878   5.172   0.789   1.180
 1993SOL    HW210879   5.060   0.718   1.276
 1994SOL     OW10880   4.812   2.539   0.519
 1994SOL    HW110881   4.739   2.478   0.489
 1994SOL    HW210882   4.899   2.490   0.519
 1995SOL     OW10883   3.330   2.351   6.673
 1995SOL    HW110884   3.260   2.280   6.680
 1995SOL    HW210885   3.369   2.352   6.581
 1996SOL     OW10886   3.410   2.489   7.215
 1996SOL    HW110887   3.364   2.400   7.215
 1996SOL    HW210888   3.500   2.479   7.173
 1997SOL     OW10889   4.583   3.737   6.255
 1997SOL    HW110890   4.494   3.770   6.288
 1997SOL    HW210891   4.576   3.715   6.158
 1998SOL     OW10892   2.979   4.599   6.735
 1998SOL    HW110893   3.062   4.579   6.683
 1998SOL    HW210894   2.941   4.514   6.772
 1999SOL     OW10895   4.020   3.768   7.657
 1999SOL    HW110896   3.964   3.751   7.739
 1999SOL    HW210897   4.069   3.854   7.667
 2000SOL     OW10898   1.660   4.858   1.389
 2000SOL    HW110899   1.589   4.790   1.404
 2000SOL    HW210900   1.742   4.833   1.440
 2001SOL     OW10901   2.865   2.557   0.216
 2001SOL    HW110902   2.896   2.637   0.268
 2001SOL    HW210903   2.880   2.474   0.271
 2002SOL     OW10904   1.396   2.748   0.198
 2002SOL    HW110905   1.310   2.702   0.222
 2002SOL    HW210906   1.471   2.683   0.199
 2003SOL     OW10907   2.550   1.698   0.998
 2003SOL    HW110908   2.591   1.607   0.994
 2003SOL    HW210909   2.468   1.701   0.942
 2004SOL     OW10910   4.465   0.483   6.439
 2004SOL    HW110911   4.451   0.540   6.358
 2004SOL    HW210912   4.388   0.495   6.502
 2005SOL     OW10913   1.886   4.064   6.167
 2005SOL    HW110914   1.961   4.109   6.118
 2005SOL    HW210915   1.892   3.965   6.152
 2006SOL     OW10916   0.379   3.345   0.729
 2006SOL    HW110917   0.319   3.266   0.740
 2006SOL    HW210918   0.464   3.331   0.779
 2007SOL     OW10919   4.408   3.479   7.676
 2007SOL    HW110920   4.493   3.469   7.624
 2007SOL    HW210921   4.383   3.390   7.715
 2008SOL     OW10922   0.570   3.258   6.474
 2008SOL    HW110923   0.646   3.286   6.533
 2008SOL    HW210924   0.559   3.325   6.400
 2009SOL     OW10925   2.277   4.489   0.129
 2009SOL    HW110926   2.263   4.439   0.214
 2009SOL    HW210927   2.326   4.574   0.148
 2010SOL     OW10928   2.180   1.708   0.250
 2010SOL    HW110929   2.177   1.608   0.245
 2010SOL    HW210930   2.096   1.742   0.291
 2011SOL     OW10931   4.860   4.169   7.818
 2011SOL    HW110932   4.851   4.133   7.726
 2011SOL    HW210933   4.957   4.178   7.841
 2012SOL     OW10934   1.737   1.140   1.640
 2012SOL    HW110935   1.805   1.151   1.713
 2012SOL    HW210936   1.650   1.178   1.670
 2013SOL     OW10937   3.467   1.494   0.145
 2013SOL    HW110938   3.413   1.427   0.095
 2013SOL    HW210939   3.429   1.507   0.237
 2014SOL     OW10940   0.110   0.254   1.525
 2014SOL    HW110941   0.017   0.218   1.517
 2014SOL    HW210942   0.157   0.210   1.601
 2015SOL     OW10943   3.010   2.279   7.360
 2015SOL    HW110944   3.092   2.263   7.306
 2015SOL    HW210945   2.932   2.233   7.316
 2016SOL     OW10946   3.655   2.293   6.174
 2016SOL    HW110947   3.653   2.306   6.075
 2016SOL    HW210948   3.615   2.204   6.197
 2017SOL     OW10949   2.145   3.690   6.027
 2017SOL    HW110950   2.192   3.627   6.088
 2017SOL    HW210951   2.211   3.755   5.989
 2018SOL     OW10952   3.662   3.472   6.300
 2018SOL    HW110953   3.578   3.442   6.255
 2018SOL    HW210954   3.734   3.404   6.284
 2019SOL     OW10955   1.537   2.478   6.288
 2019SOL    HW110956   1.506   2.388   6.257
 2019SOL    HW210957   1.568   2.532   6.210
 2020SOL     OW10958   1.807   4.950   7.956
 2020SOL    HW110959   1.731   4.885   7.948
 2020SOL    HW210960   1.851   4.939   8.045
 2021SOL     OW10961   1.038   2.077   6.605
 2021SOL    HW110962   1.118   2.136   6.602
 2021SOL    HW210963   1.047   2.003   6.538
 2022SOL     OW10964   1.808   3.845   7.411
 2022SOL    HW110965   1.816   3.942   7.434
 2022SOL    HW210966   1.834   3.790   7.490
 2023SOL     OW10967   0.148   1.664   6.537
 2023SOL    HW110968   0.180   1.627   6.625
 2023SOL    HW210969   0.117   1.758   6.551
 2024SOL     OW10970   5.156   1.365   0.432
 2024SOL    HW110971   5.087   1.371   0.360
 2024SOL    HW210972   5.120   1.407   0.516
 2025SOL     OW10973   0.773   4.444   8.074
 2025SOL    HW110974   0.770   4.373   8.144
 2025SOL    HW210975   0.805   4.529   8.114
 2026SOL     OW10976   5.237   2.758   7.022
 2026SOL    HW110977   5.163   2.691   7.030
 2026SOL    HW210978   5.200   2.843   6.984
 2027SOL     OW10979   1.423   3.363   5.552
 2027SOL    HW110980   1.396   3.399   5.463
 2027SOL    HW210981   1.394   3.427   5.624
 2028SOL     OW10982   5.145   4.394   6.863
 2028SOL    HW110983   5.118   4.473   6.919
 2028SOL    HW210984   5.063   4.345   6.834
 2029SOL     OW10985   2.207   3.317   0.409
 2029SOL    HW110986   2.282   3.363   0.361
 2029SOL    HW210987   2.152   3.385   0.457
 2030SOL     OW10988   1.623   0.849   2.510
 2030SOL    HW110989   1.558   0.910   2.467
 2030SOL    HW210990   1.605   0.755   2.482
 2031SOL     OW10991   2.552   0.698   6.801
 2031SOL    HW110992   2.503   0.779   6.833
 2031SOL    HW210993   2.529   0.680   6.705
 2032SOL     OW10994   0.998   4.483   7.423
 2032SOL    HW110995   0.943   4.443   7.497
 2032SOL    HW210996   1.095   4.474   7.445
 2033SOL     OW10997   0.870   3.664   7.595
 2033SOL    HW110998   0.907   3.620   7.677
 2033SOL    HW210999   0.783   3.621   7.571
 2034SOL     OW11000   0.347   2.588   0.255
 2034SOL    HW111001   0.414   2.513   0.251
 2034SOL    HW211002   0.289   2.584   0.173
 2035SOL     OW11003   4.812   0.910   7.505
 2035SOL    HW111004   4.757   0.866   7.434
 2035SOL    HW211005   4.848   0.997   7.470
 2036SOL     OW11006   2.457   1.470   7.321
 2036SOL    HW111007   2.446   1.448   7.418
 2036SOL    HW211008   2.383   1.531   7.293
 2037SOL     OW11009   0.726   1.511   0.917
 2037SOL    HW111010   0.706   1.607   0.935
 2037SOL    HW211011   0.804   1.504   0.855
 2038SOL     OW11012   2.431   2.099   7.543
 2038SOL    HW111013   2.346   2.090   7.492
 2038SOL    HW211014   2.415   2.081   7.640
 2039SOL     OW11015   0.892   2.537   0.293
 2039SOL    HW111016   0.828   2.548   0.369
 2039SOL    HW211017   0.931   2.445   0.294
 2040SOL     OW11018   1.065   3.366   0.015
 2040SOL    HW111019   1.071   3.338   0.110
 2040SOL    HW211020   1.073   3.286   8.100
 2041SOL     OW11021   1.812   1.903   1.254
 2041SOL    HW111022   1.765   1.815   1.252
 2041SOL    HW211023   1.820   1.933   1.349
 2042SOL     OW11024   2.090   0.432   0.023
 2042SOL    HW111025   2.055   0.383   8.088
 2042SOL    HW211026   2.181   0.396   0.047
 2043SOL     OW11027   3.879   3.400   7.959
 2043SOL    HW111028   3.780   3.395   7.943
 2043SOL    HW211029   3.915   3.307   7.970
 2044SOL     OW11030   2.738   2.408   0.941
 2044SOL    HW111031   2.836   2.424   0.953
 2044SOL    HW211032   2.697   2.383   1.029
 2045SOL     OW11033   3.537   2.195   7.069
 2045SOL    HW111034   3.461   2.131   7.059
 2045SOL    HW211035   3.553   2.241   6.981
 2046SOL     OW11036   1.460   1.833   1.212
 2046SOL    HW111037   1.393   1.806   1.281
 2046SOL    HW211038   1.538   1.771   1.216
 2047SOL     OW11039   2.135   1.906   6.658
 2047SOL    HW111040   2.233   1.915   6.673
 2047SOL    HW211041   2.106   1.812   6.677
 2048SOL     OW11042   2.519   3.340   7.518
 2048SOL    HW111043   2.420   3.339   7.501
 2048SOL    HW211044   2.563   3.269   7.463
 2049SOL     OW11045   0.019   3.979   7.533
 2049SOL    HW111046   0.105   3.942   7.500
 2049SOL    HW211047   0.034   4.026   7.620
 2050SOL     OW11048   0.581   3.301   0.915
 2050SOL    HW111049   0.516   3.265   0.982
 2050SOL    HW211050   0.585   3.401   0.923
 2051SOL     OW11051   2.728   3.199   0.390
 2051SOL    HW111052   2.802   3.187   0.456
 2051SOL    HW211053   2.649   3.241   0.434
 2052SOL     OW11054   1.928   2.446   1.336
 2052SOL    HW111055   1.878   2.532   1.352
 2052SOL    HW211056   1.863   2.373   1.315
 2053SOL     OW11057   3.552   2.069   6.704
 2053SOL    HW111058   3.462   2.035   6.731
 2053SOL    HW211059   3.567   2.159   6.743
 2054SOL     OW11060   3.012   4.354   7.934
 2054SOL    HW111061   3.016   4.410   7.851
 2054SOL    HW211062   3.067   4.271   7.921
 2055SOL     OW11063   2.018   3.951   1.258
 2055SOL    HW111064   2.034   3.953   1.160
 2055SOL    HW211065   2.100   3.917   1.304
 2056SOL     OW11066   2.537   2.268   7.341
 2056SOL    HW111067   2.493   2.357   7.356
 2056SOL    HW211068   2.513   2.207   7.416
 2057SOL     OW11069   3.090   2.356   6.171
 2057SOL    HW111070   3.036   2.405   6.102
 2057SOL    HW211071   3.099   2.260   6.145
 2058SOL     OW11072   3.467   3.902   7.139
 2058SOL    HW111073   3.439   3.838   7.067
 2058SOL    HW211074   3.525   3.856   7.205
 2059SOL     OW11075   1.023   2.294   0.267
 2059SOL    HW111076   1.063   2.288   0.176
 2059SOL    HW211077   1.092   2.268   0.335
 2060SOL     OW11078   1.604   4.725   7.709
 2060SOL    HW111079   1.549   4.671   7.773
 2060SOL    HW211080   1.574   4.820   7.711
 2061SOL     OW11081   4.542   3.819   7.805
 2061SOL    HW111082   4.621   3.771   7.767
 2061SOL    HW211083   4.484   3.755   7.855
 2062SOL     OW11084   3.650   1.815   7.967
 2062SOL    HW111085   3.745   1.813   7.999
 2062SOL    HW211086   3.590   1.784   8.040
 2063SOL     OW11087   4.205   0.608   0.086
 2063SOL    HW111088   4.113   0.567   0.083
 2063SOL    HW211089   4.199   0.706   0.066
 2064SOL     OW11090   0.585   2.053   6.896
 2064SOL    HW111091   0.522   2.109   6.950
 2064SOL    HW211092   0.583   2.084   6.800
 2065SOL     OW11093   2.632   2.317   1.181
 2065SOL    HW111094   2.686   2.234   1.169
 2065SOL    HW211095   2.539   2.292   1.209
 2066SOL     OW11096   3.519   0.534   1.198
 2066SOL    HW111097   3.546   0.440   1.218
 2066SOL    HW211098   3.562   0.564   1.113
 2067SOL     OW11099   5.141   0.128   1.528
 2067SOL    HW111100   5.069   0.157   1.592
 2067SOL    HW211101   5.098   0.088   1.446
 2068SOL     OW11102   2.302   1.001   7.326
 2068SOL    HW111103   2.378   1.036   7.381
 2068SOL    HW211104   2.238   0.952   7.385
 2069SOL     OW11105   3.484   3.135   7.417
 2069SOL    HW111106   3.531   3.137   7.328
 2069SOL    HW211107   3.497   3.223   7.463
 2070SOL     OW11108   5.114   1.211   1.081
 2070SOL    HW111109   5.171   1.263   1.145
 2070SOL    HW211110   5.056   1.147   1.132
 2071SOL     OW11111   2.966   0.078   1.509
 2071SOL    HW111112   2.878   0.087   1.462
 2071SOL    HW211113   2.964   5.078   1.569
 2072SOL     OW11114   1.581   2.206   6.478
 2072SOL    HW111115   1.632   2.278   6.524
 2072SOL    HW211116   1.540   2.145   6.546
 2073SOL     OW11117   2.872   0.464   0.516
 2073SOL    HW111118   2.921   0.504   0.593
 2073SOL    HW211119   2.858   0.534   0.446
 2074SOL     OW11120   3.334   3.481   2.281
 2074SOL    HW111121   3.300   3.444   2.195
 2074SOL    HW211122   3.260   3.483   2.348
 2075SOL     OW11123   2.750   0.200   2.081
 2075SOL    HW111124   2.699   0.194   2.167
 2075SOL    HW211125   2.826   0.135   2.082
 2076SOL     OW11126   0.219   0.456   0.962
 2076SOL    HW111127   0.264   0.530   0.912
 2076SOL    HW211128   0.271   0.434   1.044
 2077SOL     OW11129   0.536   2.928   7.771
 2077SOL    HW111130   0.558   2.901   7.677
 2077SOL    HW211131   0.519   2.847   7.826
 2078SOL     OW11132   2.667   2.255   0.732
 2078SOL    HW111133   2.665   2.305   0.646
 2078SOL    HW211134   2.701   2.314   0.805
 2079SOL     OW11135   1.260   4.813   7.670
 2079SOL    HW111136   1.242   4.741   7.737
 2079SOL    HW211137   1.301   4.773   7.588
 2080SOL     OW11138   3.397   0.261   7.516
 2080SOL    HW111139   3.496   0.263   7.505
 2080SOL    HW211140   3.372   0.185   7.576
 2081SOL     OW11141   0.606   3.471   0.018
 2081SOL    HW111142   0.586   3.523   0.101
 2081SOL    HW211143   0.528   3.413   8.140
 2082SOL     OW11144   3.337   3.510   0.912
 2082SOL    HW111145   3.296   3.466   0.832
 2082SOL    HW211146   3.429   3.543   0.889
 2083SOL     OW11147   2.237   2.214   8.080
 2083SOL    HW111148   2.261   2.244   0.027
 2083SOL    HW211149   2.196   2.123   8.084
 2084SOL     OW11150   2.852   5.053   7.935
 2084SOL    HW111151   2.945   5.080   7.913
 2084SOL    HW211152   2.795   5.059   7.853
 2085SOL     OW11153   2.458   3.652   8.011
 2085SOL    HW111154   2.401   3.701   8.077
 2085SOL    HW211155   2.554   3.658   8.040
 2086SOL     OW11156   2.347   1.265   2.028
 2086SOL    HW111157   2.372   1.253   1.933
 2086SOL    HW211158   2.286   1.344   2.037
 2087SOL     OW11159   5.120   2.504   7.812
 2087SOL    HW111160   5.064   2.551   7.744
 2087SOL    HW211161   5.170   2.571   7.867
 2088SOL     OW11162   0.651   3.886   7.409
 2088SOL    HW111163   0.735   3.939   7.413
 2088SOL    HW211164   0.586   3.919   7.478
 2089SOL     OW11165   0.685   4.171   0.623
 2089SOL    HW111166   0.698   4.250   0.682
 2089SOL    HW211167   0.774   4.138   0.591
 2090SOL     OW11168   1.010   1.122   1.306
 2090SOL    HW111169   1.072   1.078   1.371
 2090SOL    HW211170   0.916   1.096   1.328
 2091SOL     OW11171   1.232   0.892   7.750
 2091SOL    HW111172   1.249   0.811   7.806
 2091SOL    HW211173   1.233   0.866   7.653
 2092SOL     OW11174   0.675   1.792   0.136
 2092SOL    HW111175   0.611   1.743   0.195
 2092SOL    HW211176   0.765   1.794   0.179
 2093SOL     OW11177   3.655   2.708   0.225
 2093SOL    HW111178   3.635   2.804   0.203
 2093SOL    HW211179   3.705   2.666   0.150
 2094SOL     OW11180   1.686   0.282   1.570
 2094SOL    HW111181   1.669   0.195   1.522
 2094SOL    HW211182   1.603   0.312   1.616
 2095SOL     OW11183   2.102   2.469   7.416
 2095SOL    HW111184   2.074   2.555   7.458
 2095SOL    HW211185   2.077   2.393   7.476
 2096SOL     OW11186   3.285   1.783   5.989
 2096SOL    HW111187   3.204   1.814   5.939
 2096SOL    HW211188   3.343   1.729   5.928
 2097SOL     OW11189   1.803   4.500   7.287
 2097SOL    HW111190   1.771   4.432   7.354
 2097SOL    HW211191   1.880   4.550   7.324
 2098SOL     OW11192   2.298   1.082   0.777
 2098SOL    HW111193   2.364   1.156   0.761
 2098SOL    HW211194   2.346   0.997   0.793
 2099SOL     OW11195   3.510   1.922   7.570
 2099SOL    HW111196   3.483   1.851   7.636
 2099SOL    HW211197   3.429   1.973   7.541
 2100SOL     OW11198   5.115   1.444   7.625
 2100SOL    HW111199   5.160   1.369   7.673
 2100SOL    HW211200   5.087   1.514   7.690
 2101SOL     OW11201   0.492   2.718   7.949
 2101SOL    HW111202   0.457   2.629   7.979
 2101SOL    HW211203   0.554   2.754   8.018
 2102SOL     OW11204   1.530   2.534   8.078
 2102SOL    HW111205   1.547   2.632   8.069
 2102SOL    HW211206   1.433   2.515   8.062
 2103SOL     OW11207   2.863   2.222   6.961
 2103SOL    HW111208   2.795   2.246   6.891
 2103SOL    HW211209   2.897   2.130   6.943
 2104SOL     OW11210   2.893   0.906   1.528
 2104SOL    HW111211   2.903   0.822   1.582
 2104SOL    HW211212   2.972   0.966   1.544
 2105SOL     OW11213   4.366   2.213   7.498
 2105SOL    HW111214   4.277   2.233   7.539
 2105SOL    HW211215   4.436   2.270   7.541
 2106SOL     OW11216   2.784   1.871   0.981
 2106SOL    HW111217   2.708   1.806   0.983
 2106SOL    HW211218   2.868   1.823   0.955
 2107SOL     OW11219   4.810   1.519   7.302
 2107SOL    HW111220   4.822   1.612   7.336
 2107SOL    HW211221   4.833   1.453   7.374
 2108SOL     OW11222   2.383   2.676   7.883
 2108SOL    HW111223   2.435   2.599   7.843
 2108SOL    HW211224   2.439   2.719   7.954
 2109SOL     OW11225   5.042   1.602   7.836
 2109SOL    HW111226   5.108   1.659   7.885
 2109SOL    HW211227   5.008   1.530   7.897
 2110SOL     OW11228   2.793   3.500   0.938
 2110SOL    HW111229   2.795   3.588   0.984
 2110SOL    HW211230   2.701   3.462   0.942
 2111SOL     OW11231   1.460   0.305   7.233
 2111SOL    HW111232   1.383   0.258   7.190
 2111SOL    HW211233   1.475   0.392   7.186
 2112SOL     OW11234   0.926   1.088   0.395
 2112SOL    HW111235   0.894   0.994   0.399
 2112SOL    HW211236   1.025   1.091   0.407
 2113SOL     OW11237   0.847   0.421   6.852
 2113SOL    HW111238   0.830   0.423   6.950
 2113SOL    HW211239   0.938   0.456   6.832
 2114SOL     OW11240   3.302   2.111   7.497
 2114SOL    HW111241   3.219   2.060   7.477
 2114SOL    HW211242   3.317   2.180   7.427
 2115SOL     OW11243   1.942   1.149   1.828
 2115SOL    HW111244   1.962   1.052   1.821
 2115SOL    HW211245   1.953   1.178   1.924
 2116SOL     OW11246   4.129   2.268   7.620
 2116SOL    HW111247   4.139   2.217   7.705
 2116SOL    HW211248   4.033   2.289   7.604
 2117SOL     OW11249   1.029   1.360   7.258
 2117SOL    HW111250   1.074   1.383   7.344
 2117SOL    HW211251   0.936   1.397   7.259
 2118SOL     OW11252   0.820   1.886   2.008
 2118SOL    HW111253   0.779   1.977   2.011
 2118SOL    HW211254   0.794   1.835   2.090
 2119SOL     OW11255   4.751   4.594   7.630
 2119SOL    HW111256   4.795   4.650   7.700
 2119SOL    HW211257   4.730   4.504   7.667
 2120SOL     OW11258   2.863   1.712   7.196
 2120SOL    HW111259   2.845   1.644   7.125
 2120SOL    HW211260   2.783   1.771   7.206
 2121SOL     OW11261   0.400   4.790   7.940
 2121SOL    HW111262   0.419   4.852   7.864
 2121SOL    HW211263   0.408   4.840   8.026
 2122SOL     OW11264   2.826   2.215   0.030
 2122SOL    HW111265   2.906   2.215   8.115
 2122SOL    HW211266   2.787   2.123   0.034
 2123SOL     OW11267   3.567   2.001   0.691
 2123SOL    HW111268   3.603   1.910   0.670
 2123SOL    HW211269   3.506   2.030   0.617
 2124SOL     OW11270   0.642   4.530   6.753
 2124SOL    HW111271   0.626   4.628   6.766
 2124SOL    HW211272   0.697   4.495   6.828
 2125SOL     OW11273   4.406   4.443   7.645
 2125SOL    HW111274   4.483   4.507   7.638
 2125SOL    HW211275   4.419   4.369   7.579
 2126SOL     OW11276   3.756   0.662   7.512
 2126SOL    HW111277   3.782   0.610   7.431
 2126SOL    HW211278   3.788   0.757   7.503
 2127SOL     OW11279   2.722   3.332   7.700
 2127SOL    HW111280   2.698   3.273   7.777
 2127SOL    HW211281   2.644   3.338   7.637
 2128SOL     OW11282   0.893   4.535   7.834
 2128SOL    HW111283   0.884   4.469   7.759
 2128SOL    HW211284   0.852   4.497   7.917
 2129SOL     OW11285   2.175   2.856   7.202
 2129SOL    HW111286   2.152   2.778   7.143
 2129SOL    HW211287   2.097   2.918   7.207
 2130SOL     OW11288   0.634   4.198   7.639
 2130SOL    HW111289   0.579   4.115   7.630
 2130SOL    HW211290   0.624   4.235   7.732
 2131SOL     OW11291   2.612   4.045   6.791
 2131SOL    HW111292   2.596   3.964   6.846
 2131SOL    HW211293   2.648   4.118   6.849
 2132SOL     OW11294   2.879   1.917   1.591
 2132SOL    HW111295   2.968   1.954   1.619
 2132SOL    HW211296   2.845   1.855   1.662
 2133SOL     OW11297   0.227   5.004   7.515
 2133SOL    HW111298   0.296   4.991   7.586
 2133SOL    HW211299   0.273   5.020   7.427
 2134SOL     OW11300   1.426   2.562   6.789
 2134SOL    HW111301   1.415   2.518   6.700
 2134SOL    HW211302   1.487   2.641   6.780
 2135SOL     OW11303   0.620   3.612   7.438
 2135SOL    HW111304   0.630   3.711   7.427
 2135SOL    HW211305   0.615   3.569   7.348
 2136SOL     OW11306   5.049   0.896   0.428
 2136SOL    HW111307   5.011   0.968   0.370
 2136SOL    HW211308   5.146   0.915   0.445
 2137SOL     OW11309   2.967   4.876   6.349
 2137SOL    HW111310   2.970   4.918   6.440
 2137SOL    HW211311   2.949   4.778   6.357
 2138SOL     OW11312   1.554   4.085   6.451
 2138SOL    HW111313   1.578   4.098   6.354
 2138SOL    HW211314   1.468   4.035   6.457
 2139SOL     OW11315   2.554   2.024   0.102
 2139SOL    HW111316   2.473   1.966   0.100
 2139SOL    HW211317   2.576   2.048   0.196
 2140SOL     OW11318   2.354   0.318   0.074
 2140SOL    HW111319   2.414   0.288   0.000
 2140SOL    HW211320   2.402   0.385   0.131
 2141SOL     OW11321   1.776   3.141   6.849
 2141SOL    HW111322   1.705   3.183   6.906
 2141SOL    HW211323   1.756   3.158   6.753
 2142SOL     OW11324   0.826   1.903   7.225
 2142SOL    HW111325   0.893   1.860   7.285
 2142SOL    HW211326   0.810   1.997   7.254
 2143SOL     OW11327   1.367   4.836   6.760
 2143SOL    HW111328   1.461   4.863   6.743
 2143SOL    HW211329   1.364   4.764   6.829
 2144SOL     OW11330   5.159   4.970   7.904
 2144SOL    HW111331   5.084   5.031   7.880
 2144SOL    HW211332   5.212   4.947   7.823
 2145SOL     OW11333   4.471   2.919   0.547
 2145SOL    HW111334   4.396   2.897   0.609
 2145SOL    HW211335   4.548   2.856   0.564
 2146SOL     OW11336   1.988   4.079   0.171
 2146SOL    HW111337   1.929   4.000   0.155
 2146SOL    HW211338   1.938   4.147   0.225
 2147SOL     OW11339   5.127   0.710   7.392
 2147SOL    HW111340   5.205   0.661   7.354
 2147SOL    HW211341   5.043   0.665   7.364
 2148SOL     OW11342   1.391   4.957   1.534
 2148SOL    HW111343   1.343   4.887   1.586
 2148SOL    HW211344   1.390   5.043   1.584
 2149SOL     OW11345   4.573   1.808   7.387
 2149SOL    HW111346   4.516   1.757   7.323
 2149SOL    HW211347   4.515   1.864   7.446
 2150SOL     OW11348   0.504   0.479   0.720
 2150SOL    HW111349   0.441   0.541   0.767
 2150SOL    HW211350   0.596   0.490   0.758
 2151SOL     OW11351   4.704   2.740   7.690
 2151SOL    HW111352   4.707   2.840   7.694
 2151SOL    HW211353   4.623   2.711   7.639
 2152SOL     OW11354   4.270   2.268   7.014
 2152SOL    HW111355   4.310   2.200   6.953
 2152SOL    HW211356   4.266   2.357   6.968
 2153SOL     OW11357   1.022   1.838   7.405
 2153SOL    HW111358   1.078   1.778   7.462
 2153SOL    HW211359   1.082   1.902   7.356
 2154SOL     OW11360   0.345   2.233   5.752
 2154SOL    HW111361   0.320   2.207   5.845
 2154SOL    HW211362   0.291   2.181   5.687
 2155SOL     OW11363   3.762   2.458   0.805
 2155SOL    HW111364   3.699   2.381   0.804
 2155SOL    HW211365   3.776   2.489   0.899
 2156SOL     OW11366   2.178   1.321   0.485
 2156SOL    HW111367   2.191   1.222   0.488
 2156SOL    HW211368   2.204   1.356   0.395
 2157SOL     OW11369   0.252   0.618   1.328
 2157SOL    HW111370   0.288   0.606   1.421
 2157SOL    HW211371   0.306   0.564   1.264
 2158SOL     OW11372   0.126   1.387   7.172
 2158SOL    HW111373   0.067   1.348   7.242
 2158SOL    HW211374   0.220   1.356   7.187
 2159SOL     OW11375   2.865   3.376   1.401
 2159SOL    HW111376   2.890   3.355   1.495
 2159SOL    HW211377   2.908   3.310   1.339
 2160SOL     OW11378   1.868   4.175   1.301
 2160SOL    HW111379   1.797   4.152   1.367
 2160SOL    HW211380   1.931   4.098   1.292
 2161SOL     OW11381   0.703   3.806   0.182
 2161SOL    HW111382   0.609   3.817   0.149
 2161SOL    HW211383   0.766   3.817   0.105
 2162SOL     OW11384   1.753   0.701   1.404
 2162SOL    HW111385   1.681   0.634   1.423
 2162SOL    HW211386   1.762   0.762   1.483
 2163SOL     OW11387   1.017   4.932   7.678
 2163SOL    HW111388   1.106   4.886   7.684
 2163SOL    HW211389   0.990   4.942   7.583
 2164SOL     OW11390   1.481   0.440   0.024
 2164SOL    HW111391   1.520   0.526   8.134
 2164SOL    HW211392   1.543   0.365   0.004
 2165SOL     OW11393   2.246   0.241   6.532
 2165SOL    HW111394   2.211   0.289   6.612
 2165SOL    HW211395   2.281   0.151   6.559
 2166SOL     OW11396   1.909   0.355   1.426
 2166SOL    HW111397   1.945   0.262   1.429
 2166SOL    HW211398   1.820   0.357   1.472
 2167SOL     OW11399   2.067   2.107   7.817
 2167SOL    HW111400   1.978   2.152   7.813
 2167SOL    HW211401   2.139   2.175   7.806
 2168SOL     OW11402   2.688   1.453   1.024
 2168SOL    HW111403   2.761   1.417   0.966
 2168SOL    HW211404   2.727   1.490   1.108
 2169SOL     OW11405   2.874   4.613   0.404
 2169SOL    HW111406   2.923   4.696   0.429
 2169SOL    HW211407   2.888   4.544   0.475
 2170SOL     OW11408   0.215   4.032   6.452
 2170SOL    HW111409   0.302   4.019   6.405
 2170SOL    HW211410   0.142   3.989   6.400
 2171SOL     OW11411   1.309   2.203   1.343
 2171SOL    HW111412   1.398   2.157   1.335
 2171SOL    HW211413   1.316   2.278   1.409
 2172SOL     OW11414   5.120   3.487   7.506
 2172SOL    HW111415   5.085   3.517   7.417
 2172SOL    HW211416   5.153   3.567   7.557
 2173SOL     OW11417   4.868   0.696   6.696
 2173SOL    HW111418   4.873   0.708   6.597
 2173SOL    HW211419   4.774   0.675   6.722
 2174SOL     OW11420   5.029   4.841   0.402
 2174SOL    HW111421   4.992   4.751   0.427
 2174SOL    HW211422   5.126   4.831   0.380
 2175SOL     OW11423   1.477   5.025   6.443
 2175SOL    HW111424   1.514   0.035   6.465
 2175SOL    HW211425   1.412   5.033   6.368
 2176SOL     OW11426   0.785   1.732   8.034
 2176SOL    HW111427   0.725   1.669   7.984
 2176SOL    HW211428   0.740   1.762   8.118
 2177SOL     OW11429   0.090   1.047   1.272
 2177SOL    HW111430   0.170   1.104   1.296
 2177SOL    HW211431   0.012   1.075   1.328
 2178SOL     OW11432   4.962   1.037   1.233
 2178SOL    HW111433   4.864   1.033   1.252
 2178SOL    HW211434   4.997   0.944   1.217
 2179SOL     OW11435   5.159   0.317   7.490
 2179SOL    HW111436   5.203   0.228   7.481
 2179SOL    HW211437   5.208   0.372   7.558
 2180SOL     OW11438   4.408   1.333   7.480
 2180SOL    HW111439   4.360   1.248   7.461
 2180SOL    HW211440   4.459   1.362   7.399
 2181SOL     OW11441   4.030   3.767   1.079
 2181SOL    HW111442   3.979   3.812   1.005
 2181SOL    HW211443   4.117   3.814   1.092
 2182SOL     OW11444   1.664   1.042   0.734
 2182SOL    HW111445   1.584   0.986   0.713
 2182SOL    HW211446   1.684   1.101   0.656
 2183SOL     OW11447   4.051   1.760   1.074
 2183SOL    HW111448   4.133   1.811   1.047
 2183SOL    HW211449   4.004   1.809   1.148
 2184SOL     OW11450   1.837   0.344   0.123
 2184SOL    HW111451   1.809   0.360   0.217
 2184SOL    HW211452   1.930   0.378   0.109
 2185SOL     OW11453   1.550   1.216   0.937
 2185SOL    HW111454   1.594   1.145   0.882
 2185SOL    HW211455   1.603   1.300   0.931
 2186SOL     OW11456   0.444   1.114   1.029
 2186SOL    HW111457   0.345   1.122   1.018
 2186SOL    HW211458   0.484   1.206   1.034
 2187SOL     OW11459   2.368   4.186   6.780
 2187SOL    HW111460   2.380   4.251   6.705
 2187SOL    HW211461   2.446   4.124   6.782
 2188SOL     OW11462   4.048   1.347   1.176
 2188SOL    HW111463   4.085   1.259   1.206
 2188SOL    HW211464   3.949   1.339   1.161
 2189SOL     OW11465   4.401   2.696   1.076
 2189SOL    HW111466   4.379   2.727   1.168
 2189SOL    HW211467   4.317   2.664   1.031
 2190SOL     OW11468   4.452   0.552   1.056
 2190SOL    HW111469   4.535   0.578   1.104
 2190SOL    HW211470   4.407   0.634   1.020
 2191SOL     OW11471   4.545   3.985   0.238
 2191SOL    HW111472   4.570   4.047   0.163
 2191SOL    HW211473   4.476   3.921   0.206
 2192SOL     OW11474   4.818   3.855   6.813
 2192SOL    HW111475   4.866   3.779   6.855
 2192SOL    HW211476   4.866   3.883   6.730
 2193SOL     OW11477   2.120   0.850   7.464
 2193SOL    HW111478   2.063   0.774   7.436
 2193SOL    HW211479   2.082   0.891   7.548
 2194SOL     OW11480   0.320   4.116   1.336
 2194SOL    HW111481   0.372   4.185   1.287
 2194SOL    HW211482   0.331   4.129   1.435
 2195SOL     OW11483   4.685   2.220   0.199
 2195SOL    HW111484   4.608   2.157   0.201
 2195SOL    HW211485   4.707   2.244   0.105
 2196SOL     OW11486   4.713   1.464   0.268
 2196SOL    HW111487   4.665   1.466   0.180
 2196SOL    HW211488   4.650   1.432   0.339
 2197SOL     OW11489   4.962   0.066   6.669
 2197SOL    HW111490   5.008   0.068   6.581
 2197SOL    HW211491   4.863   0.067   6.655
 2198SOL     OW11492   2.174   1.163   7.662
 2198SOL    HW111493   2.193   1.220   7.742
 2198SOL    HW211494   2.166   1.221   7.581
 2199SOL     OW11495   3.036   4.325   1.643
 2199SOL    HW111496   3.110   4.262   1.666
 2199SOL    HW211497   3.059   4.375   1.560
 2200SOL     OW11498   2.478   0.965   6.264
 2200SOL    HW111499   2.507   1.042   6.207
 2200SOL    HW211500   2.387   0.934   6.234
 2201SOL     OW11501   3.763   4.539   7.093
 2201SOL    HW111502   3.721   4.500   7.174
 2201SOL    HW211503   3.820   4.470   7.049
 2202SOL     OW11504   3.766   1.513   6.446
 2202SOL    HW111505   3.805   1.576   6.379
 2202SOL    HW211506   3.814   1.425   6.440
 2203SOL     OW11507   1.682   3.244   8.032
 2203SOL    HW111508   1.611   3.225   8.100
 2203SOL    HW211509   1.669   3.184   7.952
 2204SOL     OW11510   3.907   0.808   1.246
 2204SOL    HW111511   3.894   0.809   1.147
 2204SOL    HW211512   3.981   0.745   1.269
 2205SOL     OW11513   1.622   0.789   1.184
 2205SOL    HW111514   1.657   0.880   1.163
 2205SOL    HW211515   1.672   0.751   1.261
 2206SOL     OW11516   3.618   4.717   1.133
 2206SOL    HW111517   3.688   4.767   1.183
 2206SOL    HW211518   3.611   4.624   1.168
 2207SOL     OW11519   4.375   4.657   0.861
 2207SOL    HW111520   4.297   4.605   0.825
 2207SOL    HW211521   4.353   4.754   0.860
 2208SOL     OW11522   1.444   3.270   6.656
 2208SOL    HW111523   1.393   3.200   6.608
 2208SOL    HW211524   1.542   3.248   6.653
 2209SOL     OW11525   2.579   2.803   7.091
 2209SOL    HW111526   2.518   2.727   7.116
 2209SOL    HW211527   2.603   2.795   6.994
 2210SOL     OW11528   1.036   2.233   1.375
 2210SOL    HW111529   1.133   2.211   1.369
 2210SOL    HW211530   1.017   2.318   1.326
 2211SOL     OW11531   3.249   1.635   0.976
 2211SOL    HW111532   3.311   1.557   0.963
 2211SOL    HW211533   3.174   1.608   1.035
 2212SOL     OW11534   2.063   3.748   6.759
 2212SOL    HW111535   1.998   3.739   6.834
 2212SOL    HW211536   2.036   3.825   6.700
 2213SOL     OW11537   0.885   3.836   8.118
 2213SOL    HW111538   0.853   3.889   8.039
 2213SOL    HW211539   0.881   3.738   8.097
 2214SOL     OW11540   0.879   3.989   1.080
 2214SOL    HW111541   0.783   4.008   1.060
 2214SOL    HW211542   0.916   3.928   1.009
 2215SOL     OW11543   2.663   0.873   0.467
 2215SOL    HW111544   2.607   0.955   0.459
 2215SOL    HW211545   2.609   0.799   0.508
 2216SOL     OW11546   4.718   0.101   0.814
 2216SOL    HW111547   4.792   0.072   0.875
 2216SOL    HW211548   4.724   0.200   0.799
 2217SOL     OW11549   0.718   3.776   7.162
 2217SOL    HW111550   0.816   3.797   7.149
 2217SOL    HW211551   0.685   3.821   7.245
 2218SOL     OW11552   1.791   0.870   1.611
 2218SOL    HW111553   1.762   0.966   1.606
 2218SOL    HW211554   1.871   0.864   1.670
 2219SOL     OW11555   2.422   1.464   7.602
 2219SOL    HW111556   2.473   1.549   7.609
 2219SOL    HW211557   2.453   1.400   7.672
 2220SOL     OW11558   4.857   1.360   7.525
 2220SOL    HW111559   4.779   1.364   7.588
 2220SOL    HW211560   4.938   1.395   7.572
 2221SOL     OW11561   0.257   3.000   7.186
 2221SOL    HW111562   0.331   3.009   7.252
 2221SOL    HW211563   0.254   2.907   7.150
 2222SOL     OW11564   4.061   1.068   7.071
 2222SOL    HW111565   4.082   0.973   7.048
 2222SOL    HW211566   4.137   1.127   7.042
 2223SOL     OW11567   3.848   2.203   1.566
 2223SOL    HW111568   3.925   2.247   1.521
 2223SOL    HW211569   3.881   2.130   1.626
 2224SOL     OW11570   0.820   3.202   0.243
 2224SOL    HW111571   0.919   3.208   0.257
 2224SOL    HW211572   0.799   3.217   0.146
 2225SOL     OW11573   3.771   1.324   1.137
 2225SOL    HW111574   3.770   1.363   1.229
 2225SOL    HW211575   3.690   1.268   1.123
 2226SOL     OW11576   2.286   3.291   7.768
 2226SOL    HW111577   2.282   3.333   7.677
 2226SOL    HW211578   2.269   3.193   7.760
 2227SOL     OW11579   2.972   1.971   6.326
 2227SOL    HW111580   2.974   1.872   6.336
 2227SOL    HW211581   3.062   2.008   6.351
 2228SOL     OW11582   2.349   4.005   1.696
 2228SOL    HW111583   2.261   4.013   1.648
 2228SOL    HW211584   2.381   4.097   1.721
 2229SOL     OW11585   1.969   3.031   0.137
 2229SOL    HW111586   1.913   2.954   0.168
 2229SOL    HW211587   1.913   3.113   0.132
 2230SOL     OW11588   2.324   4.612   1.592
 2230SOL    HW111589   2.250   4.546   1.577
 2230SOL    HW211590   2.395   4.570   1.648
 2231SOL     OW11591   2.231   4.466   7.165
 2231SOL    HW111592   2.280   4.552   7.181
 2231SOL    HW211593   2.141   4.486   7.127
 2232SOL     OW11594   3.908   1.490   7.059
 2232SOL    HW111595   3.947   1.556   6.995
 2232SOL    HW211596   3.890   1.535   7.146
 2233SOL     OW11597   2.476   2.263   1.895
 2233SOL    HW111598   2.435   2.202   1.963
 2233SOL    HW211599   2.542   2.323   1.940
 2234SOL     OW11600   4.348   3.829   6.755
 2234SOL    HW111601   4.434   3.851   6.711
 2234SOL    HW211602   4.345   3.872   6.846
 2235SOL     OW11603   2.238   1.047   0.506
 2235SOL    HW111604   2.237   1.045   0.606
 2235SOL    HW211605   2.216   0.956   0.471
 2236SOL     OW11606   2.805   3.873   0.527
 2236SOL    HW111607   2.884   3.814   0.510
 2236SOL    HW211608   2.816   3.958   0.475
 2237SOL     OW11609   5.259   3.104   6.571
 2237SOL    HW111610   5.163   3.100   6.545
 2237SOL    HW211611   0.035   3.048   6.508
 2238SOL     OW11612   4.209   2.441   0.067
 2238SOL    HW111613   4.304   2.471   0.065
 2238SOL    HW211614   4.160   2.482   8.135
 2239SOL     OW11615   4.106   4.338   0.181
 2239SOL    HW111616   4.032   4.400   0.206
 2239SOL    HW211617   4.189   4.364   0.231
 2240SOL     OW11618   0.051   1.613   7.495
 2240SOL    HW111619   5.259   1.554   7.535
 2240SOL    HW211620   0.139   1.567   7.498
 2241SOL     OW11621   3.414   4.411   0.480
 2241SOL    HW111622   3.315   4.414   0.464
 2241SOL    HW211623   3.447   4.318   0.469
 2242SOL     OW11624   0.019   2.010   0.688
 2242SOL    HW111625   5.273   2.105   0.673
 2242SOL    HW211626   5.234   1.969   0.752
 2243SOL     OW11627   1.095   2.688   8.080
 2243SOL    HW111628   1.151   2.609   8.057
 2243SOL    HW211629   1.003   2.658   8.103
 2244SOL     OW11630   1.652   0.549   7.364
 2244SOL    HW111631   1.748   0.579   7.373
 2244SOL    HW211632   1.632   0.481   7.434
 2245SOL     OW11633   4.588   4.166   1.837
 2245SOL    HW111634   4.679   4.169   1.877
 2245SOL    HW211635   4.521   4.192   1.907
 2246SOL     OW11636   0.245   1.678   0.344
 2246SOL    HW111637   0.232   1.579   0.345
 2246SOL    HW211638   0.181   1.721   0.408
 2247SOL     OW11639   0.885   2.457   7.287
 2247SOL    HW111640   0.884   2.473   7.385
 2247SOL    HW211641   0.824   2.522   7.242
 2248SOL     OW11642   2.964   4.924   7.077
 2248SOL    HW111643   2.906   4.925   7.158
 2248SOL    HW211644   2.998   5.017   7.059
 2249SOL     OW11645   1.789   1.827   7.827
 2249SOL    HW111646   1.868   1.842   7.768
 2249SOL    HW211647   1.800   1.878   7.912
 2250SOL     OW11648   1.182   0.905   8.127
 2250SOL    HW111649   1.099   0.858   8.097
 2250SOL    HW211650   1.158   0.997   0.013
 2251SOL     OW11651   1.819   4.255   0.303
 2251SOL    HW111652   1.839   4.353   0.315
 2251SOL    HW211653   1.742   4.230   0.361
 2252SOL     OW11654   4.140   4.448   1.444
 2252SOL    HW111655   4.141   4.349   1.454
 2252SOL    HW211656   4.201   4.490   1.511
 2253SOL     OW11657   2.229   2.879   0.999
 2253SOL    HW111658   2.297   2.887   0.927
 2253SOL    HW211659   2.255   2.934   1.078
 2254SOL     OW11660   2.703   4.925   1.198
 2254SOL    HW111661   2.629   4.989   1.217
 2254SOL    HW211662   2.706   4.855   1.269
 2255SOL     OW11663   2.730   0.763   5.995
 2255SOL    HW111664   2.828   0.739   5.991
 2255SOL    HW211665   2.709   0.831   5.925
 2256SOL     OW11666   0.881   4.034   7.414
 2256SOL    HW111667   0.892   4.014   7.511
 2256SOL    HW211668   0.971   4.047   7.372
 2257SOL     OW11669   3.236   4.754   0.290
 2257SOL    HW111670   3.189   4.682   0.240
 2257SOL    HW211671   3.315   4.786   0.237
 2258SOL     OW11672   2.972   2.524   0.605
 2258SOL    HW111673   3.030   2.525   0.686
 2258SOL    HW211674   3.025   2.494   0.526
 2259SOL     OW11675   3.966   4.213   0.893
 2259SOL    HW111676   3.940   4.305   0.864
 2259SOL    HW211677   3.939   4.199   0.988
 2260SOL     OW11678   3.518   0.374   6.639
 2260SOL    HW111679   3.462   0.456   6.625
 2260SOL    HW211680   3.569   0.354   6.556
 2261SOL     OW11681   4.669   2.744   0.639
 2261SOL    HW111682   4.732   2.678   0.597
 2261SOL    HW211683   4.587   2.696   0.669
 2262SOL     OW11684   0.461   2.374   6.702
 2262SOL    HW111685   0.513   2.292   6.678
 2262SOL    HW211686   0.461   2.437   6.624
 2263SOL     OW11687   2.817   1.042   0.290
 2263SOL    HW111688   2.804   1.028   0.192
 2263SOL    HW211689   2.759   0.979   0.341
 2264SOL     OW11690   1.223   0.626   6.087
 2264SOL    HW111691   1.237   0.548   6.025
 2264SOL    HW211692   1.269   0.706   6.049
 2265SOL     OW11693   1.284   4.343   5.760
 2265SOL    HW111694   1.221   4.395   5.702
 2265SOL    HW211695   1.378   4.371   5.739
 2266SOL     OW11696   4.268   1.016   0.887
 2266SOL    HW111697   4.331   1.089   0.913
 2266SOL    HW211698   4.177   1.036   0.926
 2267SOL     OW11699   2.671   1.894   6.869
 2267SOL    HW111700   2.645   1.907   6.773
 2267SOL    HW211701   2.599   1.931   6.928
 2268SOL     OW11702   2.920   4.711   7.524
 2268SOL    HW111703   2.918   4.811   7.528
 2268SOL    HW211704   2.831   4.677   7.494
 2269SOL     OW11705   1.831   0.417   0.894
 2269SOL    HW111706   1.770   0.490   0.925
 2269SOL    HW211707   1.872   0.373   0.974
 2270SOL     OW11708   1.153   4.227   8.124
 2270SOL    HW111709   1.062   4.199   0.008
 2270SOL    HW211710   1.215   4.148   8.127
 2271SOL     OW11711   2.833   0.990   0.015
 2271SOL    HW111712   2.792   0.919   8.102
 2271SOL    HW211713   2.897   1.044   8.105
 2272SOL     OW11714   5.186   1.939   1.081
 2272SOL    HW111715   5.143   1.911   0.995
 2272SOL    HW211716   5.127   1.915   1.158
 2273SOL     OW11717   1.147   2.637   0.216
 2273SOL    HW111718   1.063   2.612   0.264
 2273SOL    HW211719   1.125   2.663   0.122
 2274SOL     OW11720   1.988   0.056   7.513
 2274SOL    HW111721   1.978   5.038   7.509
 2274SOL    HW211722   1.954   0.097   7.429
 2275SOL     OW11723   1.601   1.142   7.935
 2275SOL    HW111724   1.625   1.226   7.983
 2275SOL    HW211725   1.550   1.082   7.998
 2276SOL     OW11726   3.311   2.010   7.071
 2276SOL    HW111727   3.228   1.962   7.099
 2276SOL    HW211728   3.387   1.944   7.066
 2277SOL     OW11729   1.515   1.965   0.156
 2277SOL    HW111730   1.500   2.059   0.124
 2277SOL    HW211731   1.428   1.926   0.184
 2278SOL     OW11732   1.146   4.573   6.389
 2278SOL    HW111733   1.076   4.620   6.336
 2278SOL    HW211734   1.176   4.631   6.465
 2279SOL     OW11735   4.177   4.774   0.149
 2279SOL    HW111736   4.260   4.730   0.115
 2279SOL    HW211737   4.118   4.798   0.073
 2280SOL     OW11738   1.892   0.055   6.234
 2280SOL    HW111739   1.821   0.076   6.167
 2280SOL    HW211740   1.946   0.137   6.254
 2281SOL     OW11741   2.074   4.776   1.255
 2281SOL    HW111742   2.095   4.792   1.351
 2281SOL    HW211743   2.104   4.685   1.228
 2282SOL     OW11744   2.074   1.121   0.936
 2282SOL    HW111745   2.012   1.042   0.932
 2282SOL    HW211746   2.148   1.108   0.871
 2283SOL     OW11747   2.139   1.241   8.105
 2283SOL    HW111748   2.074   1.170   8.079
 2283SOL    HW211749   2.185   1.276   8.024
 2284SOL     OW11750   1.233   3.641   0.322
 2284SOL    HW111751   1.146   3.594   0.311
 2284SOL    HW211752   1.232   3.726   0.268
 2285SOL     OW11753   0.608   1.285   1.420
 2285SOL    HW111754   0.550   1.247   1.493
 2285SOL    HW211755   0.570   1.372   1.389
 2286SOL     OW11756   5.065   3.911   0.656
 2286SOL    HW111757   5.065   3.974   0.734
 2286SOL    HW211758   4.977   3.915   0.610
 2287SOL     OW11759   2.164   4.948   0.674
 2287SOL    HW111760   2.193   5.044   0.668
 2287SOL    HW211761   2.183   4.903   0.586
 2288SOL     OW11762   1.373   1.968   7.100
 2288SOL    HW111763   1.297   1.975   7.164
 2288SOL    HW211764   1.455   2.009   7.141
 2289SOL     OW11765   2.270   4.341   7.419
 2289SOL    HW111766   2.211   4.262   7.434
 2289SOL    HW211767   2.256   4.377   7.327
 2290SOL     OW11768   5.174   1.690   1.368
 2290SOL    HW111769   5.112   1.768   1.365
 2290SOL    HW211770   5.197   1.669   1.463
 2291SOL     OW11771   2.676   1.621   6.838
 2291SOL    HW111772   2.741   1.580   6.901
 2291SOL    HW211773   2.667   1.719   6.857
 2292SOL     OW11774   3.233   0.527   6.856
 2292SOL    HW111775   3.245   0.430   6.874
 2292SOL    HW211776   3.148   0.542   6.806
 2293SOL     OW11777   3.865   4.204   8.010
 2293SOL    HW111778   3.822   4.135   7.951
 2293SOL    HW211779   3.913   4.158   8.085
 2294SOL     OW11780   2.006   4.904   7.772
 2294SOL    HW111781   1.933   4.932   7.835
 2294SOL    HW211782   1.968   4.896   7.680
 2295SOL     OW11783   3.560   3.457   0.571
 2295SOL    HW111784   3.587   3.380   0.628
 2295SOL    HW211785   3.471   3.438   0.530
 2296SOL     OW11786   0.028   4.893   7.675
 2296SOL    HW111787   0.068   4.824   7.734
 2296SOL    HW211788   0.098   4.930   7.614
 2297SOL     OW11789   2.683   4.833   5.603
 2297SOL    HW111790   2.646   4.878   5.522
 2297SOL    HW211791   2.779   4.810   5.587
 2298SOL     OW11792   3.704   2.947   5.812
 2298SOL    HW111793   3.701   3.009   5.734
 2298SOL    HW211794   3.725   2.998   5.895
 2299SOL     OW11795   0.281   2.582   0.660
 2299SOL    HW111796   0.342   2.536   0.725
 2299SOL    HW211797   0.221   2.645   0.709
 2300SOL     OW11798   2.133   3.608   7.567
 2300SOL    HW111799   2.035   3.623   7.583
 2300SOL    HW211800   2.182   3.616   7.654
 2301SOL     OW11801   2.141   2.291   7.188
 2301SOL    HW111802   2.236   2.276   7.159
 2301SOL    HW211803   2.138   2.364   7.257
 2302SOL     OW11804   2.956   2.590   1.204
 2302SOL    HW111805   2.974   2.537   1.122
 2302SOL    HW211806   3.001   2.546   1.283
 2303SOL     OW11807   3.470   2.303   0.017
 2303SOL    HW111808   3.479   2.371   0.090
 2303SOL    HW211809   3.406   2.232   0.046
 2304SOL     OW11810   0.754   0.528   0.840
 2304SOL    HW111811   0.776   0.626   0.844
 2304SOL    HW211812   0.833   0.477   0.807
 2305SOL     OW11813   1.991   0.884   1.797
 2305SOL    HW111814   1.945   0.834   1.871
 2305SOL    HW211815   2.090   0.876   1.809
 2306SOL     OW11816   3.188   3.382   0.713
 2306SOL    HW111817   3.101   3.431   0.705
 2306SOL    HW211818   3.171   3.293   0.756
 2307SOL     OW11819   0.035   3.482   1.804
 2307SOL    HW111820   0.102   3.454   1.873
 2307SOL    HW211821   5.235   3.524   1.850
 2308SOL     OW11822   2.228   1.023   2.073
 2308SOL    HW111823   2.273   1.112   2.064
 2308SOL    HW211824   2.159   1.028   2.145
 2309SOL     OW11825   0.747   0.127   0.589
 2309SOL    HW111826   0.829   0.090   0.546
 2309SOL    HW211827   0.726   0.216   0.548
 2310SOL     OW11828   4.348   3.839   6.340
 2310SOL    HW111829   4.268   3.783   6.320
 2310SOL    HW211830   4.319   3.929   6.372
 2311SOL     OW11831   2.156   3.266   0.794
 2311SOL    HW111832   2.207   3.279   0.879
 2311SOL    HW211833   2.216   3.224   0.726
 2312SOL     OW11834   3.076   1.383   6.585
 2312SOL    HW111835   3.148   1.354   6.521
 2312SOL    HW211836   2.998   1.419   6.533
 2313SOL     OW11837   0.283   3.446   7.934
 2313SOL    HW111838   0.338   3.392   7.997
 2313SOL    HW211839   0.209   3.390   7.897
 2314SOL     OW11840   2.930   3.592   1.960
 2314SOL    HW111841   2.947   3.497   1.988
 2314SOL    HW211842   3.007   3.649   1.987
 2315SOL     OW11843   3.186   2.526   0.790
 2315SOL    HW111844   3.264   2.482   0.747
 2315SOL    HW211845   3.201   2.625   0.794
 2316SOL     OW11846   1.556   0.517   1.420
 2316SOL    HW111847   1.505   0.462   1.486
 2316SOL    HW211848   1.569   0.464   1.336
 2317SOL     OW11849   3.559   1.504   0.779
 2317SOL    HW111850   3.497   1.463   0.845
 2317SOL    HW211851   3.578   1.439   0.706
 2318SOL     OW11852   0.044   0.570   7.252
 2318SOL    HW111853   0.023   0.497   7.187
 2318SOL    HW211854   0.136   0.606   7.234
 2319SOL     OW11855   0.966   0.971   7.489
 2319SOL    HW111856   0.892   0.904   7.481
 2319SOL    HW211857   1.054   0.925   7.476
 2320SOL     OW11858   0.912   2.773   7.486
 2320SOL    HW111859   0.948   2.843   7.547
 2320SOL    HW211860   0.903   2.811   7.394
 2321SOL     OW11861   0.800   2.211   2.496
 2321SOL    HW111862   0.776   2.173   2.586
 2321SOL    HW211863   0.776   2.145   2.425
 2322SOL     OW11864   4.063   1.394   0.782
 2322SOL    HW111865   4.106   1.425   0.866
 2322SOL    HW211866   4.058   1.470   0.717
 2323SOL     OW11867   4.838   1.738   7.704
 2323SOL    HW111868   4.760   1.683   7.735
 2323SOL    HW211869   4.922   1.705   7.746
 2324SOL     OW11870   4.215   4.135   6.689
 2324SOL    HW111871   4.243   4.106   6.598
 2324SOL    HW211872   4.290   4.184   6.733
 2325SOL     OW11873   2.034   3.731   8.134
 2325SOL    HW111874   2.028   3.635   0.019
 2325SOL    HW211875   1.967   3.785   0.040
 2326SOL     OW11876   2.902   4.210   0.164
 2326SOL    HW111877   2.812   4.245   0.190
 2326SOL    HW211878   2.944   4.273   0.099
 2327SOL     OW11879   3.218   3.031   1.190
 2327SOL    HW111880   3.300   3.087   1.202
 2327SOL    HW211881   3.137   3.088   1.203
 2328SOL     OW11882   2.011   1.779   0.885
 2328SOL    HW111883   2.021   1.875   0.860
 2328SOL    HW211884   1.927   1.742   0.844
 2329SOL     OW11885   4.745   3.009   7.704
 2329SOL    HW111886   4.673   3.075   7.682
 2329SOL    HW211887   4.824   3.025   7.644
 2330SOL     OW11888   1.153   1.684   7.594
 2330SOL    HW111889   1.218   1.671   7.669
 2330SOL    HW211890   1.129   1.595   7.555
 2331SOL     OW11891   1.216   1.400   6.614
 2331SOL    HW111892   1.148   1.473   6.620
 2331SOL    HW211893   1.176   1.321   6.569
 2332SOL     OW11894   5.239   0.180   1.055
 2332SOL    HW111895   5.155   0.192   1.107
 2332SOL    HW211896   5.251   0.257   0.992
 2333SOL     OW11897   0.948   2.105   7.566
 2333SOL    HW111898   0.885   2.033   7.597
 2333SOL    HW211899   0.922   2.134   7.474
 2334SOL     OW11900   3.065   1.143   6.828
 2334SOL    HW111901   3.129   1.138   6.751
 2334SOL    HW211902   2.978   1.179   6.796
 2335SOL     OW11903   0.081   4.239   6.906
 2335SOL    HW111904   0.092   4.178   6.828
 2335SOL    HW211905   0.000   4.296   6.893
 2336SOL     OW11906   3.502   0.780   7.002
 2336SOL    HW111907   3.544   0.698   6.962
 2336SOL    HW211908   3.405   0.762   7.019
 2337SOL     OW11909   3.157   0.726   8.097
 2337SOL    HW111910   3.210   0.642   8.091
 2337SOL    HW211911   3.217   0.804   8.078
 2338SOL     OW11912   1.284   1.125   0.951
 2338SOL    HW111913   1.250   1.107   0.858
 2338SOL    HW211914   1.375   1.166   0.946
 2339SOL     OW11915   1.032   3.265   7.387
 2339SOL    HW111916   0.988   3.264   7.476
 2339SOL    HW211917   1.020   3.355   7.345
 2340SOL     OW11918   0.979   0.754   1.117
 2340SOL    HW111919   0.942   0.773   1.208
 2340SOL    HW211920   1.063   0.807   1.103
 2341SOL     OW11921   0.894   2.858   7.221
 2341SOL    HW111922   0.831   2.784   7.196
 2341SOL    HW211923   0.974   2.855   7.161
 2342SOL     OW11924   0.064   1.891   7.516
 2342SOL    HW111925   0.050   1.792   7.512
 2342SOL    HW211926   0.105   1.921   7.429
 2343SOL     OW11927   0.305   1.203   1.315
 2343SOL    HW111928   0.315   1.261   1.395
 2343SOL    HW211929   0.387   1.208   1.258
 2344SOL     OW11930   2.497   2.651   1.066
 2344SOL    HW111931   2.545   2.700   0.993
 2344SOL    HW211932   2.560   2.636   1.142
 2345SOL     OW11933   0.895   1.391   7.961
 2345SOL    HW111934   0.986   1.350   7.956
 2345SOL    HW211935   0.870   1.406   8.057
 2346SOL     OW11936   3.635   0.573   6.899
 2346SOL    HW111937   3.586   0.486   6.895
 2346SOL    HW211938   3.719   0.566   6.845
 2347SOL     OW11939   0.252   3.790   7.200
 2347SOL    HW111940   0.297   3.877   7.180
 2347SOL    HW211941   0.274   3.724   7.128
 2348SOL     OW11942   0.022   4.324   7.391
 2348SOL    HW111943   5.234   4.255   7.363
 2348SOL    HW211944   5.254   4.412   7.403
 2349SOL     OW11945   0.504   4.589   7.477
 2349SOL    HW111946   0.524   4.495   7.450
 2349SOL    HW211947   0.420   4.591   7.532
 2350SOL     OW11948   4.065   3.122   6.799
 2350SOL    HW111949   4.147   3.128   6.857
 2350SOL    HW211950   4.039   3.214   6.770
 2351SOL     OW11951   2.857   0.497   0.921
 2351SOL    HW111952   2.899   0.420   0.969
 2351SOL    HW211953   2.917   0.528   0.847
 2352SOL     OW11954   3.131   0.026   0.267
 2352SOL    HW111955   3.059   0.088   0.296
 2352SOL    HW211956   3.165   5.056   0.347
 2353SOL     OW11957   3.338   4.673   6.439
 2353SOL    HW111958   3.429   4.680   6.399
 2353SOL    HW211959   3.312   4.761   6.480
 2354SOL     OW11960   3.706   1.173   0.419
 2354SOL    HW111961   3.792   1.126   0.402
 2354SOL    HW211962   3.684   1.168   0.516
 2355SOL     OW11963   1.604   3.515   5.817
 2355SOL    HW111964   1.639   3.440   5.761
 2355SOL    HW211965   1.510   3.535   5.792
 2356SOL     OW11966   3.870   2.470   7.855
 2356SOL    HW111967   3.779   2.510   7.858
 2356SOL    HW211968   3.887   2.432   7.765
 2357SOL     OW11969   1.007   1.625   0.031
 2357SOL    HW111970   0.950   1.672   8.109
 2357SOL    HW211971   0.957   1.546   0.067
 2358SOL     OW11972   0.305   0.916   8.075
 2358SOL    HW111973   0.295   0.980   0.006
 2358SOL    HW211974   0.229   0.850   8.076
 2359SOL     OW11975   4.797   3.981   0.557
 2359SOL    HW111976   4.853   4.049   0.510
 2359SOL    HW211977   4.700   4.005   0.547
 2360SOL     OW11978   0.925   4.564   1.710
 2360SOL    HW111979   0.964   4.519   1.791
 2360SOL    HW211980   0.887   4.653   1.735
 2361SOL     OW11981   4.808   4.887   0.671
 2361SOL    HW111982   4.727   4.914   0.722
 2361SOL    HW211983   4.812   4.936   0.584
 2362SOL     OW11984   4.691   0.184   6.228
 2362SOL    HW111985   4.728   0.274   6.205
 2362SOL    HW211986   4.630   0.153   6.155
 2363SOL     OW11987   4.499   5.031   6.869
 2363SOL    HW111988   4.579   0.002   6.897
 2363SOL    HW211989   4.486   4.953   6.929
 2364SOL     OW11990   4.873   3.264   7.236
 2364SOL    HW111991   4.833   3.342   7.189
 2364SOL    HW211992   4.874   3.281   7.335
 2365SOL     OW11993   0.889   3.497   7.000
 2365SOL    HW111994   0.845   3.560   6.936
 2365SOL    HW211995   0.859   3.404   6.980
 2366SOL     OW11996   1.248   3.557   0.587
 2366SOL    HW111997   1.243   3.584   0.491
 2366SOL    HW211998   1.285   3.632   0.642
 2367SOL     OW11999   0.088   3.394   7.183
 2367SOL    HW112000   0.155   3.346   7.127
 2367SOL    HW212001   5.277   3.352   7.171
 2368SOL     OW12002   1.639   0.380   7.594
 2368SOL    HW112003   1.547   0.371   7.630
 2368SOL    HW212004   1.681   0.289   7.586
 2369SOL     OW12005   2.397   2.593   7.110
 2369SOL    HW112006   2.309   2.603   7.064
 2369SOL    HW212007   2.459   2.541   7.052
 2370SOL     OW12008   3.227   3.328   7.330
 2370SOL    HW112009   3.150   3.343   7.268
 2370SOL    HW212010   3.259   3.233   7.320
 2371SOL     OW12011   4.165   1.521   1.001
 2371SOL    HW112012   4.143   1.454   1.072
 2371SOL    HW212013   4.122   1.609   1.024
 2372SOL     OW12014   1.013   0.817   0.373
 2372SOL    HW112015   1.013   0.760   0.456
 2372SOL    HW212016   1.108   0.837   0.348
 2373SOL     OW12017   1.326   1.631   7.798
 2373SOL    HW112018   1.400   1.689   7.832
 2373SOL    HW212019   1.279   1.588   7.875
 2374SOL     OW12020   1.141   3.300   0.936
 2374SOL    HW112021   1.105   3.357   0.862
 2374SOL    HW212022   1.175   3.214   0.899
 2375SOL     OW12023   1.177   2.362   0.673
 2375SOL    HW112024   1.214   2.454   0.663
 2375SOL    HW212025   1.087   2.366   0.717
 2376SOL     OW12026   4.689   0.803   6.238
 2376SOL    HW112027   4.592   0.780   6.237
 2376SOL    HW212028   4.717   0.832   6.146
 2377SOL     OW12029   4.464   2.056   0.167
 2377SOL    HW112030   4.385   2.071   0.228
 2377SOL    HW212031   4.434   2.064   0.072
 2378SOL     OW12032   1.251   3.060   0.425
 2378SOL    HW112033   1.308   2.980   0.446
 2378SOL    HW212034   1.280   3.138   0.481
 2379SOL     OW12035   2.074   0.706   1.098
 2379SOL    HW112036   2.110   0.632   1.040
 2379SOL    HW212037   2.052   0.670   1.188
 2380SOL     OW12038   4.945   0.056   0.964
 2380SOL    HW112039   4.952   0.138   1.021
 2380SOL    HW212040   4.980   5.058   1.014
 2381SOL     OW12041   1.873   0.183   6.525
 2381SOL    HW112042   1.931   0.218   6.452
 2381SOL    HW212043   1.915   0.102   6.566
 2382SOL     OW12044   4.844   1.645   6.786
 2382SOL    HW112045   4.916   1.608   6.727
 2382SOL    HW212046   4.867   1.626   6.882
 2383SOL     OW12047   3.871   4.208   6.975
 2383SOL    HW112048   3.781   4.169   6.994
 2383SOL    HW212049   3.920   4.224   7.061
 2384SOL     OW12050   2.609   0.428   0.597
 2384SOL    HW112051   2.567   0.339   0.578
 2384SOL    HW212052   2.703   0.427   0.564
 2385SOL     OW12053   4.020   4.106   0.069
 2385SOL    HW112054   3.974   4.044   0.133
 2385SOL    HW212055   4.051   4.187   0.118
 2386SOL     OW12056   0.749   1.056   1.372
 2386SOL    HW112057   0.681   1.000   1.419
 2386SOL    HW212058   0.718   1.152   1.370
 2387SOL     OW12059   3.424   3.601   7.653
 2387SOL    HW112060   3.429   3.635   7.747
 2387SOL    HW212061   3.422   3.678   7.590
 2388SOL     OW12062   2.401   3.845   7.578
 2388SOL    HW112063   2.446   3.758   7.559
 2388SOL    HW212064   2.321   3.854   7.518
 2389SOL     OW12065   3.626   2.695   7.581
 2389SOL    HW112066   3.541   2.668   7.535
 2389SOL    HW212067   3.634   2.794   7.580
 2390SOL     OW12068   2.042   0.747   6.506
 2390SOL    HW112069   2.131   0.792   6.515
 2390SOL    HW212070   1.988   0.765   6.588
 2391SOL     OW12071   3.788   4.022   7.829
 2391SOL    HW112072   3.780   4.047   7.732
 2391SOL    HW212073   3.811   3.925   7.836
 2392SOL     OW12074   2.710   4.699   1.371
 2392SOL    HW112075   2.611   4.706   1.370
 2392SOL    HW212076   2.738   4.606   1.350
 2393SOL     OW12077   3.205   3.722   1.023
 2393SOL    HW112078   3.259   3.753   1.102
 2393SOL    HW212079   3.249   3.643   0.981
 2394SOL     OW12080   1.006   4.902   0.953
 2394SOL    HW112081   1.022   4.911   0.855
 2394SOL    HW212082   1.017   4.991   0.997
 2395SOL     OW12083   4.431   4.343   7.901
 2395SOL    HW112084   4.354   4.356   7.964
 2395SOL    HW212085   4.408   4.381   7.811
 2396SOL     OW12086   3.048   3.056   7.508
 2396SOL    HW112087   3.002   3.145   7.502
 2396SOL    HW212088   2.995   2.996   7.567
 2397SOL     OW12089   2.281   0.534   0.448
 2397SOL    HW112090   2.255   0.456   0.392
 2397SOL    HW212091   2.238   0.527   0.537
 2398SOL     OW12092   0.470   4.296   1.201
 2398SOL    HW112093   0.496   4.293   1.104
 2398SOL    HW212094   0.541   4.344   1.253
 2399SOL     OW12095   1.142   3.973   0.716
 2399SOL    HW112096   1.159   4.054   0.771
 2399SOL    HW212097   1.073   3.993   0.646
 2400SOL     OW12098   0.220   3.218   7.014
 2400SOL    HW112099   0.236   3.136   7.068
 2400SOL    HW212100   0.152   3.200   6.944
 2401SOL     OW12101   2.287   2.826   0.260
 2401SOL    HW112102   2.260   2.920   0.281
 2401SOL    HW212103   2.295   2.816   0.161
 2402SOL     OW12104   3.891   3.977   0.496
 2402SOL    HW112105   3.796   3.976   0.528
 2402SOL    HW212106   3.939   4.056   0.534
 2403SOL     OW12107   3.142   0.088   7.315
 2403SOL    HW112108   3.141   0.164   7.251
 2403SOL    HW212109   3.077   0.105   7.389
 2404SOL     OW12110   4.737   4.387   7.238
 2404SOL    HW112111   4.834   4.398   7.256
 2404SOL    HW212112   4.713   4.434   7.153
 2405SOL     OW12113   0.697   4.702   1.309
 2405SOL    HW112114   0.707   4.736   1.215
 2405SOL    HW212115   0.749   4.761   1.371
 2406SOL     OW12116   1.506   3.875   1.450
 2406SOL    HW112117   1.512   3.777   1.470
 2406SOL    HW212118   1.412   3.906   1.466
 2407SOL     OW12119   3.798   4.464   8.035
 2407SOL    HW112120   3.884   4.514   8.026
 2407SOL    HW212121   3.814   4.367   8.017
 2408SOL     OW12122   3.102   4.091   0.929
 2408SOL    HW112123   3.187   4.068   0.882
 2408SOL    HW212124   3.025   4.076   0.867
 2409SOL     OW12125   1.702   3.029   0.375
 2409SOL    HW112126   1.790   3.016   0.421
 2409SOL    HW212127   1.645   3.091   0.429
 2410SOL     OW12128   3.603   3.098   7.168
 2410SOL    HW112129   3.532   3.038   7.130
 2410SOL    HW212130   3.639   3.157   7.096
 2411SOL     OW12131   0.128   2.760   0.798
 2411SOL    HW112132   0.205   2.804   0.842
 2411SOL    HW212133   0.079   2.826   0.740
 2412SOL     OW12134   0.945   1.511   0.760
 2412SOL    HW112135   0.946   1.436   0.694
 2412SOL    HW212136   0.956   1.598   0.712
 2413SOL     OW12137   3.720   2.770   7.023
 2413SOL    HW112138   3.780   2.843   6.991
 2413SOL    HW212139   3.700   2.782   7.120
 2414SOL     OW12140   1.371   0.201   6.795
 2414SOL    HW112141   1.370   0.295   6.830
 2414SOL    HW212142   1.458   0.158   6.816
 2415SOL     OW12143   2.430   4.355   6.575
 2415SOL    HW112144   2.458   4.358   6.479
 2415SOL    HW212145   2.500   4.400   6.631
 2416SOL     OW12146   2.414   2.188   6.730
 2416SOL    HW112147   2.413   2.215   6.634
 2416SOL    HW212148   2.366   2.257   6.784
 2417SOL     OW12149   4.846   4.079   7.556
 2417SOL    HW112150   4.858   4.028   7.471
 2417SOL    HW212151   4.882   4.172   7.544
 2418SOL     OW12152   3.106   0.056   2.613
 2418SOL    HW112153   3.136   0.114   2.689
 2418SOL    HW212154   3.180   0.048   2.547
 2419SOL     OW12155   1.530   4.373   6.241
 2419SOL    HW112156   1.560   4.280   6.217
 2419SOL    HW212157   1.582   4.440   6.188
 2420SOL     OW12158   2.650   4.189   1.556
 2420SOL    HW112159   2.695   4.256   1.615
 2420SOL    HW212160   2.592   4.237   1.490
 2421SOL     OW12161   4.295   3.369   0.264
 2421SOL    HW112162   4.240   3.421   0.329
 2421SOL    HW212163   4.243   3.355   0.179
 2422SOL     OW12164   5.139   3.987   6.787
 2422SOL    HW112165   5.230   4.006   6.751
 2422SOL    HW212166   5.147   3.930   6.869
 2423SOL     OW12167   3.688   1.137   0.693
 2423SOL    HW112168   3.729   1.048   0.672
 2423SOL    HW212169   3.742   1.183   0.763
 2424SOL     OW12170   0.151   4.096   7.758
 2424SOL    HW112171   0.128   4.107   7.854
 2424SOL    HW212172   0.227   4.032   7.749
 2425SOL     OW12173   4.404   2.878   7.704
 2425SOL    HW112174   4.370   2.887   7.797
 2425SOL    HW212175   4.413   2.781   7.681
 2426SOL     OW12176   2.830   0.673   0.347
 2426SOL    HW112177   2.886   0.709   0.272
 2426SOL    HW212178   2.768   0.745   0.379
 2427SOL     OW12179   3.349   3.388   6.687
 2427SOL    HW112180   3.437   3.436   6.697
 2427SOL    HW212181   3.364   3.304   6.634
 2428SOL     OW12182   2.769   4.169   1.182
 2428SOL    HW112183   2.779   4.165   1.082
 2428SOL    HW212184   2.859   4.158   1.225
 2429SOL     OW12185   4.508   4.519   6.792
 2429SOL    HW112186   4.472   4.605   6.756
 2429SOL    HW212187   4.579   4.538   6.860
 2430SOL     OW12188   1.117   1.933   7.720
 2430SOL    HW112189   1.124   1.846   7.671
 2430SOL    HW212190   1.073   2.001   7.661
 2431SOL     OW12191   4.660   2.626   5.800
 2431SOL    HW112192   4.738   2.688   5.796
 2431SOL    HW212193   4.688   2.540   5.843
 2432SOL     OW12194   3.892   2.163   5.731
 2432SOL    HW112195   3.800   2.127   5.748
 2432SOL    HW212196   3.912   2.159   5.633
 2433SOL     OW12197   4.476   0.178   0.338
 2433SOL    HW112198   4.551   0.240   0.316
 2433SOL    HW212199   4.505   0.083   0.322
 2434SOL     OW12200   2.588   3.013   1.246
 2434SOL    HW112201   2.621   2.939   1.304
 2434SOL    HW212202   2.601   3.101   1.293
 2435SOL     OW12203   2.017   2.421   7.772
 2435SOL    HW112204   1.995   2.507   7.817
 2435SOL    HW212205   1.934   2.366   7.762
 2436SOL     OW12206   2.135   1.535   6.995
 2436SOL    HW112207   2.169   1.444   6.971
 2436SOL    HW212208   2.037   1.530   7.013
 2437SOL     OW12209   3.969   3.696   6.468
 2437SOL    HW112210   4.035   3.677   6.396
 2437SOL    HW212211   4.016   3.732   6.549
 2438SOL     OW12212   3.374   1.145   1.341
 2438SOL    HW112213   3.294   1.101   1.300
 2438SOL    HW212214   3.351   1.178   1.432
 2439SOL     OW12215   0.049   1.785   0.525
 2439SOL    HW112216   5.245   1.767   0.471
 2439SOL    HW212217   0.043   1.876   0.565
 2440SOL     OW12218   1.596   1.692   0.194
 2440SOL    HW112219   1.579   1.790   0.189
 2440SOL    HW212220   1.681   1.675   0.243
 2441SOL     OW12221   0.818   3.775   6.476
 2441SOL    HW112222   0.778   3.816   6.394
 2441SOL    HW212223   0.866   3.691   6.452
 2442SOL     OW12224   3.140   2.339   0.165
 2442SOL    HW112225   3.187   2.260   0.126
 2442SOL    HW212226   3.109   2.399   0.091
 2443SOL     OW12227   4.923   1.168   6.900
 2443SOL    HW112228   4.986   1.245   6.899
 2443SOL    HW212229   4.946   1.104   6.827
 2444SOL     OW12230   2.821   2.245   6.023
 2444SOL    HW112231   2.867   2.326   5.985
 2444SOL    HW212232   2.722   2.257   6.019
 2445SOL     OW12233   4.621   3.147   0.548
 2445SOL    HW112234   4.701   3.114   0.598
 2445SOL    HW212235   4.556   3.073   0.537
 2446SOL     OW12236   0.075   3.636   7.876
 2446SOL    HW112237   5.268   3.587   7.896
 2446SOL    HW212238   0.152   3.585   7.914
 2447SOL     OW12239   1.724   1.885   7.025
 2447SOL    HW112240   1.739   1.812   7.091
 2447SOL    HW212241   1.690   1.966   7.073
 2448SOL     OW12242   3.136   4.813   0.737
 2448SOL    HW112243   3.236   4.813   0.728
 2448SOL    HW212244   3.106   4.898   0.779
 2449SOL     OW12245   0.504   0.135   2.051
 2449SOL    HW112246   0.417   0.176   2.077
 2449SOL    HW212247   0.546   0.189   1.978
 2450SOL     OW12248   1.732   1.041   6.689
 2450SOL    HW112249   1.786   1.112   6.736
 2450SOL    HW212250   1.737   1.055   6.590
 2451SOL     OW12251   2.804   1.921   0.493
 2451SOL    HW112252   2.800   1.944   0.590
 2451SOL    HW212253   2.734   1.971   0.443
 2452SOL     OW12254   1.758   4.692   0.779
 2452SOL    HW112255   1.691   4.681   0.852
 2452SOL    HW212256   1.796   4.784   0.782
 2453SOL     OW12257   5.047   2.979   0.578
 2453SOL    HW112258   5.128   2.962   0.634
 2453SOL    HW212259   5.074   3.018   0.490
 2454SOL     OW12260   2.219   3.617   0.717
 2454SOL    HW112261   2.171   3.633   0.803
 2454SOL    HW212262   2.157   3.573   0.652
 2455SOL     OW12263   2.465   4.074   2.594
 2455SOL    HW112264   2.421   4.163   2.607
 2455SOL    HW212265   2.558   4.087   2.560
 2456SOL     OW12266   2.650   3.694   7.772
 2456SOL    HW112267   2.586   3.721   7.844
 2456SOL    HW212268   2.723   3.639   7.812
 2457SOL     OW12269   1.103   3.907   1.779
 2457SOL    HW112270   1.066   3.842   1.713
 2457SOL    HW212271   1.164   3.859   1.843
 2458SOL     OW12272   3.173   2.206   0.582
 2458SOL    HW112273   3.168   2.300   0.547
 2458SOL    HW212274   3.264   2.169   0.566
 2459SOL     OW12275   3.139   3.722   0.737
 2459SOL    HW112276   3.236   3.740   0.719
 2459SOL    HW212277   3.122   3.729   0.836
 2460SOL     OW12278   1.120   2.429   7.134
 2460SOL    HW112279   1.106   2.339   7.093
 2460SOL    HW212280   1.044   2.450   7.195
 2461SOL     OW12281   3.973   4.254   7.224
 2461SOL    HW112282   4.036   4.331   7.212
 2461SOL    HW212283   4.023   4.176   7.261
 2462SOL     OW12284   0.689   1.674   6.858
 2462SOL    HW112285   0.722   1.690   6.765
 2462SOL    HW212286   0.597   1.713   6.868
 2463SOL     OW12287   2.124   2.651   7.020
 2463SOL    HW112288   2.129   2.672   6.922
 2463SOL    HW212289   2.032   2.619   7.042
 2464SOL     OW12290   3.379   1.457   7.058
 2464SOL    HW112291   3.395   1.389   7.129
 2464SOL    HW212292   3.306   1.519   7.088
 2465SOL     OW12293   0.774   3.352   6.629
 2465SOL    HW112294   0.847   3.411   6.593
 2465SOL    HW212295   0.798   3.322   6.721
 2466SOL     OW12296   2.903   0.897   1.250
 2466SOL    HW112297   2.863   0.819   1.203
 2466SOL    HW212298   2.890   0.888   1.349
 2467SOL     OW12299   1.077   4.381   1.566
 2467SOL    HW112300   1.054   4.287   1.589
 2467SOL    HW212301   1.022   4.444   1.622
 2468SOL     OW12302   2.929   4.562   1.094
 2468SOL    HW112303   2.848   4.614   1.069
 2468SOL    HW212304   2.909   4.507   1.176
 2469SOL     OW12305   1.180   1.947   0.781
 2469SOL    HW112306   1.242   2.023   0.758
 2469SOL    HW212307   1.221   1.893   0.855
 2470SOL     OW12308   3.023   2.228   7.983
 2470SOL    HW112309   2.979   2.240   7.894
 2470SOL    HW212310   3.110   2.277   7.984
 2471SOL     OW12311   2.827   1.843   8.137
 2471SOL    HW112312   2.805   1.896   8.055
 2471SOL    HW212313   2.926   1.829   8.142
 2472SOL     OW12314   0.961   1.852   6.754
 2472SOL    HW112315   0.923   1.884   6.840
 2472SOL    HW212316   1.008   1.928   6.708
 2473SOL     OW12317   3.893   1.592   0.171
 2473SOL    HW112318   3.831   1.670   0.182
 2473SOL    HW212319   3.987   1.622   0.186
 2474SOL     OW12320   2.614   1.676   7.610
 2474SOL    HW112321   2.674   1.686   7.689
 2474SOL    HW212322   2.609   1.762   7.560
 2475SOL     OW12323   3.344   1.322   8.113
 2475SOL    HW112324   3.422   1.279   8.068
 2475SOL    HW212325   3.293   1.253   0.020
 2476SOL     OW12326   4.019   1.056   0.992
 2476SOL    HW112327   4.034   1.075   1.089
 2476SOL    HW212328   3.956   1.125   0.955
 2477SOL     OW12329   2.115   4.035   1.564
 2477SOL    HW112330   2.022   4.033   1.600
 2477SOL    HW212331   2.130   3.954   1.506
 2478SOL     OW12332   1.548   4.602   7.245
 2478SOL    HW112333   1.502   4.514   7.236
 2478SOL    HW212334   1.645   4.587   7.265
 2479SOL     OW12335   0.596   1.546   7.930
 2479SOL    HW112336   0.661   1.506   7.866
 2479SOL    HW212337   0.516   1.486   7.937
 2480SOL     OW12338   1.442   1.004   8.105
 2480SOL    HW112339   1.459   1.038   0.053
 2480SOL    HW212340   1.352   0.960   8.102
 2481SOL     OW12341   4.549   2.416   7.894
 2481SOL    HW112342   4.452   2.438   7.883
 2481SOL    HW212343   4.601   2.500   7.907
 2482SOL     OW12344   3.092   0.706   7.824
 2482SOL    HW112345   3.050   0.617   7.808
 2482SOL    HW212346   3.095   0.725   7.922
 2483SOL     OW12347   1.790   0.715   6.388
 2483SOL    HW112348   1.882   0.736   6.423
 2483SOL    HW212349   1.754   0.794   6.339
 2484SOL     OW12350   4.223   4.078   1.880
 2484SOL    HW112351   4.142   4.072   1.937
 2484SOL    HW212352   4.295   4.128   1.929
 2485SOL     OW12353   2.008   2.588   0.113
 2485SOL    HW112354   1.936   2.541   0.062
 2485SOL    HW212355   2.082   2.614   0.050
 2486SOL     OW12356   1.324   1.457   0.713
 2486SOL    HW112357   1.262   1.463   0.635
 2486SOL    HW212358   1.412   1.421   0.682
 2487SOL     OW12359   2.506   0.396   7.836
 2487SOL    HW112360   2.514   0.330   7.910
 2487SOL    HW212361   2.485   0.349   7.751
 2488SOL     OW12362   4.066   2.700   1.369
 2488SOL    HW112363   4.034   2.792   1.345
 2488SOL    HW212364   4.062   2.688   1.468
 2489SOL     OW12365   1.877   3.685   7.631
 2489SOL    HW112366   1.816   3.608   7.613
 2489SOL    HW212367   1.876   3.707   7.728
 2490SOL     OW12368   4.766   3.728   0.654
 2490SOL    HW112369   4.775   3.819   0.613
 2490SOL    HW212370   4.774   3.735   0.753
 2491SOL     OW12371   2.659   4.874   0.175
 2491SOL    HW112372   2.708   4.867   0.088
 2491SOL    HW212373   2.720   4.909   0.246
 2492SOL     OW12374   4.009   3.886   6.177
 2492SOL    HW112375   4.016   3.974   6.224
 2492SOL    HW212376   4.024   3.899   6.080
 2493SOL     OW12377   0.494   0.634   0.491
 2493SOL    HW112378   0.571   0.695   0.512
 2493SOL    HW212379   0.490   0.561   0.559
 2494SOL     OW12380   2.526   0.057   5.810
 2494SOL    HW112381   2.502   5.045   5.779
 2494SOL    HW212382   2.570   0.106   5.736
 2495SOL     OW12383   0.581   0.159   0.983
 2495SOL    HW112384   0.603   0.254   1.004
 2495SOL    HW212385   0.607   0.101   1.060
 2496SOL     OW12386   2.805   1.254   7.089
 2496SOL    HW112387   2.727   1.205   7.128
 2496SOL    HW212388   2.883   1.249   7.152
 2497SOL     OW12389   2.916   1.342   8.131
 2497SOL    HW112390   2.940   1.292   0.070
 2497SOL    HW212391   2.881   1.432   0.011
 2498SOL     OW12392   3.369   3.601   0.285
 2498SOL    HW112393   3.337   3.527   0.343
 2498SOL    HW212394   3.438   3.655   0.334
 2499SOL     OW12395   4.428   1.711   1.737
 2499SOL    HW112396   4.437   1.793   1.793
 2499SOL    HW212397   4.517   1.666   1.730
 2500SOL     OW12398   3.106   3.151   0.838
 2500SOL    HW112399   3.033   3.086   0.819
 2500SOL    HW212400   3.194   3.104   0.836
 2501SOL     OW12401   2.332   3.847   0.627
 2501SOL    HW112402   2.420   3.820   0.587
 2501SOL    HW212403   2.284   3.766   0.660
 2502SOL     OW12404   1.783   3.244   7.719
 2502SOL    HW112405   1.873   3.227   7.760
 2502SOL    HW212406   1.720   3.170   7.743
 2503SOL     OW12407   0.237   4.817   0.192
 2503SOL    HW112408   0.240   4.718   0.177
 2503SOL    HW212409   0.168   4.838   0.262
 2504SOL     OW12410   0.746   2.814   6.410
 2504SOL    HW112411   0.665   2.864   6.442
 2504SOL    HW212412   0.824   2.876   6.408
 2505SOL     OW12413   4.923   2.178   6.193
 2505SOL    HW112414   4.964   2.200   6.281
 2505SOL    HW212415   4.949   2.247   6.126
 2506SOL     OW12416   1.272   0.127   7.138
 2506SOL    HW112417   1.226   0.086   7.216
 2506SOL    HW212418   1.336   0.061   7.099
 2507SOL     OW12419   2.651   3.532   2.330
 2507SOL    HW112420   2.584   3.462   2.356
 2507SOL    HW212421   2.609   3.597   2.268
 2508SOL     OW12422   0.094   2.885   6.737
 2508SOL    HW112423   0.022   2.895   6.805
 2508SOL    HW212424   0.100   2.969   6.683
 2509SOL     OW12425   3.025   0.075   0.622
 2509SOL    HW112426   3.112   0.034   0.594
 2509SOL    HW212427   2.982   0.117   0.542
 2510SOL     OW12428   4.783   3.565   1.190
 2510SOL    HW112429   4.834   3.623   1.254
 2510SOL    HW212430   4.789   3.470   1.220
 2511SOL     OW12431   2.000   0.601   1.347
 2511SOL    HW112432   1.916   0.653   1.361
 2511SOL    HW212433   1.985   0.506   1.374
 2512SOL     OW12434   0.426   1.008   6.817
 2512SOL    HW112435   0.512   1.027   6.771
 2512SOL    HW212436   0.395   0.916   6.792
 2513SOL     OW12437   1.694   4.251   0.053
 2513SOL    HW112438   1.757   4.259   0.130
 2513SOL    HW212439   1.605   4.220   0.085
 2514SOL     OW12440   0.673   0.008   6.856
 2514SOL    HW112441   0.580   0.042   6.871
 2514SOL    HW212442   0.669   4.992   6.830
 2515SOL     OW12443   1.837   1.003   0.125
 2515SOL    HW112444   1.896   0.941   0.177
 2515SOL    HW212445   1.833   1.092   0.170
 2516SOL     OW12446   2.195   0.182   7.643
 2516SOL    HW112447   2.167   0.272   7.677
 2516SOL    HW212448   2.120   0.142   7.591
 2517SOL     OW12449   1.265   3.085   7.103
 2517SOL    HW112450   1.325   3.063   7.181
 2517SOL    HW212451   1.200   3.010   7.090
 2518SOL     OW12452   4.698   2.008   0.741
 2518SOL    HW112453   4.785   2.003   0.692
 2518SOL    HW212454   4.641   2.080   0.701
 2519SOL     OW12455   1.951   4.439   7.912
 2519SOL    HW112456   2.041   4.425   7.870
 2519SOL    HW212457   1.908   4.520   7.873
 2520SOL     OW12458   0.048   0.315   6.742
 2520SOL    HW112459   5.249   0.334   6.682
 2520SOL    HW212460   0.122   0.379   6.722
 2521SOL     OW12461   2.636   0.744   6.251
 2521SOL    HW112462   2.575   0.823   6.259
 2521SOL    HW212463   2.674   0.740   6.159
 2522SOL     OW12464   3.606   1.220   6.909
 2522SOL    HW112465   3.705   1.239   6.912
 2522SOL    HW212466   3.566   1.267   6.831
 2523SOL     OW12467   2.642   3.301   6.660
 2523SOL    HW112468   2.712   3.231   6.649
 2523SOL    HW212469   2.556   3.270   6.619
 2524SOL     OW12470   3.577   3.632   0.862
 2524SOL    HW112471   3.651   3.567   0.844
 2524SOL    HW212472   3.615   3.716   0.899
 2525SOL     OW12473   0.332   3.238   0.265
 2525SOL    HW112474   0.276   3.318   0.288
 2525SOL    HW212475   0.394   3.218   0.340
 2526SOL     OW12476   3.992   3.294   6.436
 2526SOL    HW112477   3.930   3.291   6.357
 2526SOL    HW212478   4.077   3.340   6.411
 2527SOL     OW12479   2.447   4.848   6.710
 2527SOL    HW112480   2.503   4.799   6.643
 2527SOL    HW212481   2.406   4.782   6.773
 2528SOL     OW12482   0.520   2.237   8.132
 2528SOL    HW112483   0.473   2.179   8.066
 2528SOL    HW212484   0.583   2.181   0.041
 2529SOL     OW12485   2.330   3.154   0.609
 2529SOL    HW112486   2.265   3.172   0.535
 2529SOL    HW212487   2.415   3.204   0.591
 2530SOL     OW12488   4.623   0.544   7.365
 2530SOL    HW112489   4.620   0.470   7.433
 2530SOL    HW212490   4.546   0.534   7.302
 2531SOL     OW12491   1.602   0.069   6.854
 2531SOL    HW112492   1.676   0.134   6.871
 2531SOL    HW212493   1.632   5.080   6.789
 2532SOL     OW12494   2.156   4.824   1.515
 2532SOL    HW112495   2.214   4.903   1.494
 2532SOL    HW212496   2.211   4.750   1.554
 2533SOL     OW12497   1.095   2.983   6.633
 2533SOL    HW112498   1.109   2.884   6.643
 2533SOL    HW212499   1.040   3.017   6.710
 2534SOL     OW12500   3.262   0.460   6.184
 2534SOL    HW112501   3.304   0.474   6.094
 2534SOL    HW212502   3.171   0.501   6.185
 2535SOL     OW12503   4.244   4.680   0.403
 2535SOL    HW112504   4.232   4.725   0.314
 2535SOL    HW212505   4.314   4.728   0.456
 2536SOL     OW12506   0.156   4.713   7.839
 2536SOL    HW112507   0.103   4.668   7.910
 2536SOL    HW212508   0.240   4.750   7.878
 2537SOL     OW12509   5.012   2.349   5.996
 2537SOL    HW112510   4.925   2.395   5.984
 2537SOL    HW212511   5.069   2.363   5.915
 2538SOL     OW12512   2.487   4.887   7.359
 2538SOL    HW112513   2.469   4.981   7.328
 2538SOL    HW212514   2.505   4.888   7.458
 2539SOL     OW12515   4.412   1.781   7.742
 2539SOL    HW112516   4.327   1.751   7.786
 2539SOL    HW212517   4.390   1.836   7.662
 2540SOL     OW12518   4.592   0.009   7.213
 2540SOL    HW112519   4.575   4.992   7.227
 2540SOL    HW212520   4.625   0.025   7.120
 2541SOL     OW12521   3.146   4.389   0.430
 2541SOL    HW112522   3.072   4.406   0.495
 2541SOL    HW212523   3.123   4.432   0.342
 2542SOL     OW12524   2.009   4.474   0.035
 2542SOL    HW112525   2.107   4.471   0.056
 2542SOL    HW212526   1.995   4.453   8.083
 2543SOL     OW12527   5.250   3.057   0.367
 2543SOL    HW112528   0.060   3.027   0.333
 2543SOL    HW212529   5.189   3.075   0.289
 2544SOL     OW12530   4.649   5.039   0.043
 2544SOL    HW112531   4.711   4.993   8.123
 2544SOL    HW212532   4.605   0.036   8.142
 2545SOL     OW12533   2.726   2.645   0.623
 2545SOL    HW112534   2.727   2.732   0.574
 2545SOL    HW212535   2.818   2.607   0.626
 2546SOL     OW12536   1.819   1.593   6.416
 2546SOL    HW112537   1.886   1.596   6.342
 2546SOL    HW212538   1.794   1.686   6.442
 2547SOL     OW12539   3.742   4.797   6.983
 2547SOL    HW112540   3.706   4.858   7.053
 2547SOL    HW212541   3.743   4.703   7.017
 2548SOL     OW12542   5.233   0.031   0.193
 2548SOL    HW112543   5.267   0.070   0.107
 2548SOL    HW212544   5.203   0.104   0.254
 2549SOL     OW12545   0.650   0.027   6.355
 2549SOL    HW112546   0.734   5.060   6.328
 2549SOL    HW212547   0.595   0.047   6.274
 2550SOL     OW12548   2.725   0.535   7.732
 2550SOL    HW112549   2.699   0.609   7.670
 2550SOL    HW212550   2.642   0.494   7.771
 2551SOL     OW12551   1.024   4.386   1.900
 2551SOL    HW112552   1.069   4.300   1.879
 2551SOL    HW212553   0.936   4.368   1.944
 2552SOL     OW12554   4.811   1.775   0.848
 2552SOL    HW112555   4.904   1.804   0.873
 2552SOL    HW212556   4.758   1.855   0.819
 2553SOL     OW12557   3.277   2.331   7.958
 2553SOL    HW112558   3.317   2.293   7.875
 2553SOL    HW212559   3.348   2.338   8.029
 2554SOL     OW12560   2.268   2.913   7.459
 2554SOL    HW112561   2.363   2.891   7.482
 2554SOL    HW212562   2.247   2.876   7.369
 2555SOL     OW12563   4.705   2.599   7.287
 2555SOL    HW112564   4.609   2.577   7.266
 2555SOL    HW212565   4.764   2.561   7.217
 2556SOL     OW12566   3.958   0.343   6.878
 2556SOL    HW112567   4.053   0.329   6.851
 2556SOL    HW212568   3.923   0.426   6.836
 2557SOL     OW12569   3.587   2.241   0.826
 2557SOL    HW112570   3.636   2.224   0.912
 2557SOL    HW212571   3.580   2.155   0.775
 2558SOL     OW12572   3.181   1.247   7.046
 2558SOL    HW112573   3.243   1.322   7.020
 2558SOL    HW212574   3.134   1.214   6.964
 2559SOL     OW12575   0.859   4.654   0.085
 2559SOL    HW112576   0.813   4.611   0.163
 2559SOL    HW212577   0.955   4.671   0.108
 2560SOL     OW12578   4.204   4.481   6.896
 2560SOL    HW112579   4.299   4.450   6.905
 2560SOL    HW212580   4.174   4.471   6.801
 2561SOL     OW12581   4.437   4.051   7.944
 2561SOL    HW112582   4.439   4.139   7.896
 2561SOL    HW212583   4.475   3.980   7.885
 2562SOL     OW12584   3.235   4.151   1.711
 2562SOL    HW112585   3.275   4.165   1.801
 2562SOL    HW212586   3.300   4.101   1.653
 2563SOL     OW12587   4.152   2.088   1.308
 2563SOL    HW112588   4.236   2.042   1.337
 2563SOL    HW212589   4.164   2.123   1.215
 2564SOL     OW12590   4.192   4.633   2.082
 2564SOL    HW112591   4.129   4.710   2.084
 2564SOL    HW212592   4.248   4.637   1.999
 2565SOL     OW12593   4.724   3.779   0.286
 2565SOL    HW112594   4.674   3.727   0.356
 2565SOL    HW212595   4.674   3.863   0.264
 2566SOL     OW12596   0.828   1.163   0.145
 2566SOL    HW112597   0.763   1.099   0.104
 2566SOL    HW212598   0.852   1.131   0.237
 2567SOL     OW12599   2.885   0.103   0.855
 2567SOL    HW112600   2.913   0.185   0.905
 2567SOL    HW212601   2.941   0.094   0.772
 2568SOL     OW12602   2.684   4.234   7.803
 2568SOL    HW112603   2.605   4.222   7.743
 2568SOL    HW212604   2.757   4.172   7.774
 2569SOL     OW12605   3.021   1.215   0.207
 2569SOL    HW112606   3.105   1.164   0.185
 2569SOL    HW212607   2.953   1.152   0.245
 2570SOL     OW12608   3.584   0.410   1.506
 2570SOL    HW112609   3.484   0.400   1.507
 2570SOL    HW212610   3.608   0.504   1.528
 2571SOL     OW12611   2.532   1.859   1.232
 2571SOL    HW112612   2.549   1.811   1.146
 2571SOL    HW212613   2.451   1.917   1.222
 2572SOL     OW12614   3.038   0.520   1.836
 2572SOL    HW112615   3.031   0.438   1.779
 2572SOL    HW212616   2.995   0.503   1.925
 2573SOL     OW12617   3.605   0.663   1.611
 2573SOL    HW112618   3.531   0.679   1.546
 2573SOL    HW212619   3.567   0.645   1.702
 2574SOL     OW12620   1.370   3.908   7.896
 2574SOL    HW112621   1.445   3.884   7.834
 2574SOL    HW212622   1.284   3.870   7.860
 2575SOL     OW12623   3.388   3.202   1.522
 2575SOL    HW112624   3.371   3.293   1.560
 2575SOL    HW212625   3.395   3.208   1.422
 2576SOL     OW12626   2.139   2.473   0.319
 2576SOL    HW112627   2.205   2.538   0.354
 2576SOL    HW212628   2.086   2.515   0.246
 2577SOL     OW12629   2.134   3.478   1.120
 2577SOL    HW112630   2.130   3.519   1.211
 2577SOL    HW212631   2.120   3.549   1.051
 2578SOL     OW12632   0.188   1.077   0.134
 2578SOL    HW112633   0.154   1.132   0.210
 2578SOL    HW212634   0.120   1.076   0.061
 2579SOL     OW12635   3.454   4.760   1.706
 2579SOL    HW112636   3.499   4.791   1.790
 2579SOL    HW212637   3.358   4.789   1.707
 2580SOL     OW12638   4.843   0.545   7.667
 2580SOL    HW112639   4.850   0.474   7.597
 2580SOL    HW212640   4.874   0.632   7.629
 2581SOL     OW12641   2.921   4.045   0.728
 2581SOL    HW112642   2.872   3.974   0.678
 2581SOL    HW212643   2.992   4.084   0.670
 2582SOL     OW12644   4.152   1.416   7.551
 2582SOL    HW112645   4.119   1.502   7.512
 2582SOL    HW212646   4.242   1.394   7.513
 2583SOL     OW12647   4.387   4.855   7.989
 2583SOL    HW112648   4.302   4.842   7.938
 2583SOL    HW212649   4.399   4.780   8.053
 2584SOL     OW12650   3.921   3.926   0.876
 2584SOL    HW112651   3.934   4.025   0.877
 2584SOL    HW212652   3.973   3.886   0.800
 2585SOL     OW12653   0.373   4.168   1.596
 2585SOL    HW112654   0.389   4.123   1.684
 2585SOL    HW212655   0.302   4.238   1.607
 2586SOL     OW12656   4.208   3.543   7.283
 2586SOL    HW112657   4.116   3.567   7.249
 2586SOL    HW212658   4.206   3.538   7.383
 2587SOL     OW12659   2.689   2.578   1.261
 2587SOL    HW112660   2.786   2.590   1.241
 2587SOL    HW212661   2.662   2.484   1.240
 2588SOL     OW12662   1.568   0.956   0.422
 2588SOL    HW112663   1.622   1.034   0.451
 2588SOL    HW212664   1.523   0.915   0.501
 2589SOL     OW12665   3.667   1.733   0.657
 2589SOL    HW112666   3.630   1.658   0.711
 2589SOL    HW212667   3.662   1.710   0.559
 2590SOL     OW12668   2.115   2.720   6.751
 2590SOL    HW112669   2.135   2.816   6.764
 2590SOL    HW212670   2.024   2.710   6.710
 2591SOL     OW12671   1.414   0.962   2.358
 2591SOL    HW112672   1.346   0.892   2.382
 2591SOL    HW212673   1.369   1.051   2.354
 2592SOL     OW12674   4.850   3.576   0.152
 2592SOL    HW112675   4.796   3.647   0.197
 2592SOL    HW212676   4.922   3.544   0.214
 2593SOL     OW12677   5.212   0.894   7.851
 2593SOL    HW112678   5.166   0.886   7.762
 2593SOL    HW212679   5.173   0.828   7.915
 2594SOL     OW12680   3.872   2.996   7.202
 2594SOL    HW112681   3.899   3.005   7.106
 2594SOL    HW212682   3.775   3.018   7.211
 2595SOL     OW12683   3.089   4.542   7.382
 2595SOL    HW112684   3.038   4.612   7.432
 2595SOL    HW212685   3.117   4.470   7.445
 2596SOL     OW12686   1.826   3.751   1.630
 2596SOL    HW112687   1.828   3.743   1.531
 2596SOL    HW212688   1.743   3.708   1.666
 2597SOL     OW12689   2.422   0.601   1.662
 2597SOL    HW112690   2.360   0.621   1.586
 2597SOL    HW212691   2.455   0.687   1.701
 2598SOL     OW12692   0.163   4.014   0.889
 2598SOL    HW112693   0.114   3.958   0.956
 2598SOL    HW212694   0.180   4.105   0.927
 2599SOL     OW12695   3.064   1.422   2.050
 2599SOL    HW112696   3.120   1.458   2.125
 2599SOL    HW212697   2.968   1.422   2.078
 2600SOL     OW12698   4.270   0.080   6.956
 2600SOL    HW112699   4.249   0.157   6.896
 2600SOL    HW212700   4.351   0.032   6.922
 2601SOL     OW12701   2.522   1.317   7.824
 2601SOL    HW112702   2.592   1.387   7.835
 2601SOL    HW212703   2.538   1.243   7.890
 2602SOL     OW12704   0.153   2.492   0.429
 2602SOL    HW112705   0.185   2.513   0.522
 2602SOL    HW212706   0.223   2.520   0.363
 2603SOL     OW12707   1.045   3.414   0.707
 2603SOL    HW112708   1.113   3.473   0.664
 2603SOL    HW212709   0.953   3.444   0.680
 2604SOL     OW12710   3.333   0.208   1.180
 2604SOL    HW112711   3.334   0.113   1.148
 2604SOL    HW212712   3.427   0.238   1.197
 2605SOL     OW12713   5.162   0.501   0.238
 2605SOL    HW112714   5.257   0.532   0.248
 2605SOL    HW212715   5.100   0.579   0.247
 2606SOL     OW12716   4.013   2.738   7.707
 2606SOL    HW112717   4.084   2.673   7.680
 2606SOL    HW212718   3.985   2.719   7.801
 2607SOL     OW12719   1.618   4.993   0.203
 2607SOL    HW112720   1.555   5.031   0.135
 2607SOL    HW212721   1.648   5.065   0.265
 2608SOL     OW12722   4.988   0.202   6.200
 2608SOL    HW112723   4.941   0.290   6.188
 2608SOL    HW212724   4.933   0.129   6.162
 2609SOL     OW12725   0.980   2.671   5.705
 2609SOL    HW112726   0.960   2.769   5.700
 2609SOL    HW212727   0.894   2.620   5.698
 2610SOL     OW12728   0.442   1.805   0.817
 2610SOL    HW112729   0.404   1.727   0.867
 2610SOL    HW212730   0.379   1.882   0.823
 2611SOL     OW12731   3.891   4.477   0.861
 2611SOL    HW112732   3.840   4.542   0.805
 2611SOL    HW212733   3.909   4.518   0.951
 2612SOL     OW12734   2.916   0.838   0.610
 2612SOL    HW112735   2.984   0.856   0.538
 2612SOL    HW212736   2.825   0.862   0.577
 2613SOL     OW12737   2.942   0.281   1.076
 2613SOL    HW112738   2.945   0.347   1.152
 2613SOL    HW212739   2.944   0.188   1.112
 2614SOL     OW12740   1.457   3.515   6.935
 2614SOL    HW112741   1.389   3.462   6.985
 2614SOL    HW212742   1.478   3.598   6.987
 2615SOL     OW12743   0.619   4.804   0.847
 2615SOL    HW112744   0.607   4.897   0.813
 2615SOL    HW212745   0.645   4.744   0.771
 2616SOL     OW12746   0.422   2.518   1.345
 2616SOL    HW112747   0.351   2.452   1.322
 2616SOL    HW212748   0.392   2.573   1.423
 2617SOL     OW12749   4.937   0.965   6.711
 2617SOL    HW112750   4.931   0.865   6.717
 2617SOL    HW212751   4.964   0.991   6.619
 2618SOL     OW12752   4.398   3.600   7.922
 2618SOL    HW112753   4.306   3.580   7.955
 2618SOL    HW212754   4.410   3.561   7.831
 2619SOL     OW12755   3.187   0.232   2.804
 2619SOL    HW112756   3.246   0.224   2.884
 2619SOL    HW212757   3.139   0.320   2.807
 2620SOL     OW12758   4.589   5.008   0.303
 2620SOL    HW112759   4.611   5.014   0.205
 2620SOL    HW212760   4.674   5.008   0.356
 2621SOL     OW12761   0.225   0.509   8.102
 2621SOL    HW112762   0.208   0.523   8.004
 2621SOL    HW212763   0.189   0.587   0.009
 2622SOL     OW12764   4.175   4.550   7.766
 2622SOL    HW112765   4.133   4.624   7.714
 2622SOL    HW212766   4.253   4.514   7.715
 2623SOL     OW12767   0.369   1.507   0.106
 2623SOL    HW112768   0.430   1.548   0.174
 2623SOL    HW212769   0.411   1.424   0.070
 2624SOL     OW12770   1.473   2.242   0.381
 2624SOL    HW112771   1.515   2.321   0.425
 2624SOL    HW212772   1.497   2.159   0.432
 2625SOL     OW12773   1.234   3.908   1.482
 2625SOL    HW112774   1.217   3.821   1.528
 2625SOL    HW212775   1.175   3.915   1.402
 2626SOL     OW12776   2.897   1.685   6.676
 2626SOL    HW112777   2.805   1.660   6.708
 2626SOL    HW212778   2.964   1.628   6.723
 2627SOL     OW12779   5.208   4.685   1.807
 2627SOL    HW112780   5.273   4.748   1.850
 2627SOL    HW212781   5.184   4.613   1.871
 2628SOL     OW12782   4.720   3.087   0.197
 2628SOL    HW112783   4.773   3.167   0.167
 2628SOL    HW212784   4.622   3.109   0.192
 2629SOL     OW12785   1.746   3.700   6.590
 2629SOL    HW112786   1.734   3.796   6.614
 2629SOL    HW212787   1.803   3.692   6.508
 2630SOL     OW12788   0.589   2.193   0.443
 2630SOL    HW112789   0.518   2.126   0.427
 2630SOL    HW212790   0.677   2.156   0.413
 2631SOL     OW12791   0.223   2.236   1.849
 2631SOL    HW112792   0.182   2.204   1.934
 2631SOL    HW212793   0.266   2.325   1.864
 2632SOL     OW12794   1.891   0.309   1.146
 2632SOL    HW112795   1.891   0.356   1.234
 2632SOL    HW212796   1.956   0.232   1.149
 2633SOL     OW12797   0.158   1.854   0.993
 2633SOL    HW112798   0.226   1.835   1.065
 2633SOL    HW212799   0.072   1.881   1.035
 2634SOL     OW12800   1.789   4.554   1.499
 2634SOL    HW112801   1.739   4.479   1.542
 2634SOL    HW212802   1.832   4.520   1.415
 2635SOL     OW12803   1.404   1.356   6.827
 2635SOL    HW112804   1.342   1.381   6.752
 2635SOL    HW212805   1.355   1.366   6.914
 2636SOL     OW12806   1.216   5.001   1.905
 2636SOL    HW112807   1.230   4.902   1.913
 2636SOL    HW212808   1.244   5.045   1.990
 2637SOL     OW12809   1.151   1.293   7.962
 2637SOL    HW112810   1.193   1.381   7.984
 2637SOL    HW212811   1.213   1.240   7.904
 2638SOL     OW12812   2.481   3.543   0.694
 2638SOL    HW112813   2.523   3.613   0.636
 2638SOL    HW212814   2.384   3.563   0.704
 2639SOL     OW12815   0.439   1.718   7.598
 2639SOL    HW112816   0.383   1.785   7.646
 2639SOL    HW212817   0.383   1.640   7.572
 2640SOL     OW12818   2.245   0.668   1.459
 2640SOL    HW112819   2.157   0.636   1.423
 2640SOL    HW212820   2.300   0.706   1.385
 2641SOL     OW12821   1.183   4.189   0.878
 2641SOL    HW112822   1.258   4.155   0.935
 2641SOL    HW212823   1.109   4.222   0.936
 2642SOL     OW12824   2.416   0.912   0.219
 2642SOL    HW112825   2.461   0.978   0.279
 2642SOL    HW212826   2.343   0.865   0.269
 2643SOL     OW12827   5.211   1.785   7.968
 2643SOL    HW112828   5.272   1.801   8.046
 2643SOL    HW212829   5.133   1.847   7.973
 2644SOL     OW12830   3.588   3.869   6.631
 2644SOL    HW112831   3.622   3.870   6.725
 2644SOL    HW212832   3.629   3.792   6.582
 2645SOL     OW12833   2.828   1.140   1.158
 2645SOL    HW112834   2.731   1.146   1.134
 2645SOL    HW212835   2.850   1.047   1.185
 2646SOL     OW12836   3.590   4.656   6.335
 2646SOL    HW112837   3.626   4.730   6.278
 2646SOL    HW212838   3.591   4.570   6.284
 2647SOL     OW12839   3.268   5.050   0.532
 2647SOL    HW112840   3.317   4.973   0.573
 2647SOL    HW212841   3.333   0.035   0.493
 2648SOL     OW12842   3.415   2.405   0.680
 2648SOL    HW112843   3.471   2.346   0.739
 2648SOL    HW212844   3.447   2.397   0.585
 2649SOL     OW12845   3.177   3.418   6.897
 2649SOL    HW112846   3.131   3.504   6.875
 2649SOL    HW212847   3.245   3.397   6.826
 2650SOL     OW12848   1.188   4.784   6.559
 2650SOL    HW112849   1.257   4.799   6.630
 2650SOL    HW212850   1.167   4.871   6.514
 2651SOL     OW12851   2.782   2.175   7.226
 2651SOL    HW112852   2.702   2.223   7.264
 2651SOL    HW212853   2.800   2.209   7.134
 2652SOL     OW12854   0.674   0.789   7.018
 2652SOL    HW112855   0.682   0.871   7.073
 2652SOL    HW212856   0.720   0.802   6.931
 2653SOL     OW12857   3.767   0.793   7.894
 2653SOL    HW112858   3.699   0.770   7.964
 2653SOL    HW212859   3.792   0.710   7.843
 2654SOL     OW12860   1.325   4.506   1.606
 2654SOL    HW112861   1.243   4.454   1.579
 2654SOL    HW212862   1.380   4.452   1.669
 2655SOL     OW12863   2.111   0.056   2.161
 2655SOL    HW112864   2.069   0.047   2.252
 2655SOL    HW212865   2.134   5.045   2.126
 2656SOL     OW12866   1.346   4.168   2.067
 2656SOL    HW112867   1.349   4.236   2.140
 2656SOL    HW212868   1.438   4.151   2.033
 2657SOL     OW12869   0.155   1.765   5.599
 2657SOL    HW112870   0.205   1.712   5.530
 2657SOL    HW212871   0.077   1.712   5.633
 2658SOL     OW12872   3.271   0.472   8.058
 2658SOL    HW112873   3.280   0.434   7.966
 2658SOL    HW212874   3.335   0.426   8.119
 2659SOL     OW12875   0.756   0.414   7.665
 2659SOL    HW112876   0.773   0.315   7.660
 2659SOL    HW212877   0.836   0.464   7.632
 2660SOL     OW12878   3.764   4.588   5.705
 2660SOL    HW112879   3.701   4.546   5.640
 2660SOL    HW212880   3.773   4.685   5.685
 2661SOL     OW12881   1.369   3.313   8.040
 2661SOL    HW112882   1.414   3.396   8.008
 2661SOL    HW212883   1.415   3.281   8.123
 2662SOL     OW12884   0.016   5.074   0.856
 2662SOL    HW112885   5.211   5.077   0.801
 2662SOL    HW212886   0.006   0.055   0.934
 2663SOL     OW12887   5.164   3.510   0.071
 2663SOL    HW112888   5.120   3.488   0.158
 2663SOL    HW212889   5.259   3.478   0.073
 2664SOL     OW12890   0.739   4.272   0.139
 2664SOL    HW112891   0.812   4.203   0.137
 2664SOL    HW212892   0.650   4.226   0.135
 2665SOL     OW12893   1.643   1.951   7.430
 2665SOL    HW112894   1.730   1.904   7.444
 2665SOL    HW212895   1.571   1.883   7.416
 2666SOL     OW12896   4.740   0.974   8.026
 2666SOL    HW112897   4.729   0.960   7.927
 2666SOL    HW212898   4.686   0.905   8.075
 2667SOL     OW12899   4.931   0.199   1.703
 2667SOL    HW112900   4.856   0.182   1.639
 2667SOL    HW212901   4.903   0.173   1.795
 2668SOL     OW12902   4.235   1.831   7.315
 2668SOL    HW112903   4.168   1.903   7.294
 2668SOL    HW212904   4.246   1.771   7.236
 2669SOL     OW12905   0.345   3.860   0.748
 2669SOL    HW112906   0.282   3.921   0.796
 2669SOL    HW212907   0.304   3.769   0.740
 2670SOL     OW12908   0.233   2.220   6.644
 2670SOL    HW112909   0.304   2.287   6.664
 2670SOL    HW212910   0.275   2.133   6.617
 2671SOL     OW12911   0.258   0.482   6.677
 2671SOL    HW112912   0.347   0.468   6.632
 2671SOL    HW212913   0.256   0.573   6.719
 2672SOL     OW12914   5.179   0.074   1.935
 2672SOL    HW112915   5.113   0.014   1.982
 2672SOL    HW212916   5.139   0.106   1.849
 2673SOL     OW12917   2.649   4.022   7.983
 2673SOL    HW112918   2.575   3.975   7.936
 2673SOL    HW212919   2.675   4.104   7.932
 2674SOL     OW12920   4.921   2.146   0.404
 2674SOL    HW112921   4.845   2.156   0.340
 2674SOL    HW212922   4.950   2.236   0.435
 2675SOL     OW12923   0.797   3.253   1.830
 2675SOL    HW112924   0.844   3.180   1.879
 2675SOL    HW212925   0.815   3.340   1.876
 2676SOL     OW12926   0.816   2.201   6.714
 2676SOL    HW112927   0.734   2.163   6.671
 2676SOL    HW212928   0.897   2.154   6.679
 2677SOL     OW12929   3.243   1.624   7.773
 2677SOL    HW112930   3.338   1.654   7.765
 2677SOL    HW212931   3.221   1.563   7.697
 2678SOL     OW12932   4.171   0.871   0.007
 2678SOL    HW112933   4.103   0.865   8.079
 2678SOL    HW212934   4.260   0.892   8.112
 2679SOL     OW12935   3.270   3.370   2.026
 2679SOL    HW112936   3.362   3.334   2.011
 2679SOL    HW212937   3.214   3.301   2.071
 2680SOL     OW12938   0.419   3.193   1.712
 2680SOL    HW112939   0.421   3.195   1.812
 2680SOL    HW212940   0.415   3.286   1.676
 2681SOL     OW12941   4.313   1.180   8.118
 2681SOL    HW112942   4.342   1.086   8.099
 2681SOL    HW212943   4.218   1.192   8.089
 2682SOL     OW12944   4.273   0.492   1.421
 2682SOL    HW112945   4.287   0.459   1.514
 2682SOL    HW212946   4.226   0.580   1.423
 2683SOL     OW12947   2.094   2.106   0.594
 2683SOL    HW112948   2.132   2.071   0.508
 2683SOL    HW212949   2.079   2.204   0.586
 2684SOL     OW12950   5.228   4.266   0.482
 2684SOL    HW112951   0.014   4.224   0.546
 2684SOL    HW212952   5.183   4.344   0.525
 2685SOL     OW12953   3.383   3.545   7.263
 2685SOL    HW112954   3.319   3.612   7.226
 2685SOL    HW212955   3.333   3.462   7.289
 2686SOL     OW12956   4.770   1.586   0.656
 2686SOL    HW112957   4.778   1.631   0.567
 2686SOL    HW212958   4.779   1.654   0.729
 2687SOL     OW12959   4.399   2.313   5.829
 2687SOL    HW112960   4.355   2.377   5.766
 2687SOL    HW212961   4.389   2.220   5.794
 2688SOL     OW12962   2.731   1.488   7.865
 2688SOL    HW112963   2.792   1.441   7.800
 2688SOL    HW212964   2.750   1.586   7.863
 2689SOL     OW12965   4.070   5.059   0.940
 2689SOL    HW112966   4.004   4.984   0.934
 2689SOL    HW212967   4.159   5.026   0.908
 2690SOL     OW12968   0.430   2.732   6.693
 2690SOL    HW112969   0.373   2.689   6.763
 2690SOL    HW212970   0.464   2.820   6.727
 2691SOL     OW12971   4.270   2.506   6.884
 2691SOL    HW112972   4.213   2.574   6.931
 2691SOL    HW212973   4.366   2.531   6.894
 2692SOL     OW12974   2.008   0.277   7.952
 2692SOL    HW112975   2.058   0.213   8.011
 2692SOL    HW212976   1.920   0.236   7.925
 2693SOL     OW12977   4.082   0.178   1.136
 2693SOL    HW112978   4.158   0.243   1.139
 2693SOL    HW212979   4.098   0.110   1.065
 2694SOL     OW12980   0.588   5.073   0.764
 2694SOL    HW112981   0.584   0.048   0.847
 2694SOL    HW212982   0.658   0.029   0.703
 2695SOL     OW12983   2.631   0.045   0.757
 2695SOL    HW112984   2.720   0.075   0.790
 2695SOL    HW212985   2.597   0.109   0.687
 2696SOL     OW12986   2.432   2.952   6.471
 2696SOL    HW112987   2.362   2.883   6.457
 2696SOL    HW212988   2.503   2.943   6.401
 2697SOL     OW12989   5.247   0.388   0.872
 2697SOL    HW112990   5.252   0.347   0.781
 2697SOL    HW212991   0.060   0.418   0.900
 2698SOL     OW12992   2.986   3.183   1.248
 2698SOL    HW112993   2.942   3.093   1.241
 2698SOL    HW212994   2.979   3.230   1.160
 2699SOL     OW12995   1.060   4.390   0.459
 2699SOL    HW112996   1.134   4.449   0.427
 2699SOL    HW212997   1.079   4.295   0.433
 2700SOL     OW12998   2.385   2.014   7.812
 2700SOL    HW112999   2.296   2.019   7.857
 2700SOL    HW213000   2.454   2.057   7.870
 2701SOL     OW13001   4.195   2.427   6.629
 2701SOL    HW113002   4.218   2.450   6.723
 2701SOL    HW213003   4.250   2.350   6.598
 2702SOL     OW13004   1.500   2.475   0.784
 2702SOL    HW113005   1.503   2.397   0.847
 2702SOL    HW213006   1.571   2.542   0.810
 2703SOL     OW13007   4.056   1.072   6.288
 2703SOL    HW113008   4.108   1.003   6.237
 2703SOL    HW213009   3.975   1.099   6.236
 2704SOL     OW13010   5.207   1.770   6.256
 2704SOL    HW113011   5.163   1.684   6.278
 2704SOL    HW213012   5.266   1.758   6.175
 2705SOL     OW13013   4.684   4.543   7.018
 2705SOL    HW113014   4.733   4.622   7.054
 2705SOL    HW213015   4.742   4.494   6.952
 2706SOL     OW13016   1.268   0.406   5.932
 2706SOL    HW113017   1.293   0.319   5.975
 2706SOL    HW213018   1.246   0.390   5.836
 2707SOL     OW13019   3.602   4.278   1.096
 2707SOL    HW113020   3.701   4.277   1.110
 2707SOL    HW213021   3.555   4.271   1.184
 2708SOL     OW13022   4.286   0.375   1.180
 2708SOL    HW113023   4.284   0.411   1.274
 2708SOL    HW213024   4.344   0.433   1.124
 2709SOL     OW13025   1.555   1.826   6.054
 2709SOL    HW113026   1.594   1.894   5.991
 2709SOL    HW213027   1.507   1.756   6.001
 2710SOL     OW13028   1.203   1.965   8.118
 2710SOL    HW113029   1.113   1.942   8.079
 2710SOL    HW213030   1.271   1.969   8.045
 2711SOL     OW13031   5.107   0.871   7.019
 2711SOL    HW113032   5.104   0.911   7.110
 2711SOL    HW213033   5.047   0.924   6.958
 2712SOL     OW13034   3.867   3.114   7.452
 2712SOL    HW113035   3.893   3.079   7.362
 2712SOL    HW213036   3.894   3.209   7.460
 2713SOL     OW13037   1.853   2.586   7.054
 2713SOL    HW113038   1.821   2.523   6.984
 2713SOL    HW213039   1.801   2.671   7.050
 2714SOL     OW13040   4.344   3.314   7.192
 2714SOL    HW113041   4.315   3.236   7.248
 2714SOL    HW213042   4.307   3.398   7.231
 2715SOL     OW13043   2.103   4.457   1.533
 2715SOL    HW113044   2.045   4.469   1.452
 2715SOL    HW213045   2.046   4.428   1.610
 2716SOL     OW13046   3.771   4.717   0.472
 2716SOL    HW113047   3.705   4.663   0.420
 2716SOL    HW213048   3.736   4.810   0.485
 2717SOL     OW13049   2.839   1.586   0.097
 2717SOL    HW113050   2.820   1.672   0.050
 2717SOL    HW213051   2.848   1.603   0.195
 2718SOL     OW13052   4.028   4.850   8.079
 2718SOL    HW113053   4.070   4.876   7.993
 2718SOL    HW213054   3.973   4.927   8.114
 2719SOL     OW13055   2.402   4.683   7.195
 2719SOL    HW113056   2.430   4.765   7.244
 2719SOL    HW213057   2.468   4.610   7.211
 2720SOL     OW13058   3.047   4.078   7.536
 2720SOL    HW113059   3.009   4.046   7.623
 2720SOL    HW213060   3.101   4.004   7.494
 2721SOL     OW13061   0.788   3.129   0.903
 2721SOL    HW113062   0.764   3.052   0.963
 2721SOL    HW213063   0.709   3.189   0.893
 2722SOL     OW13064   3.301   1.995   6.792
 2722SOL    HW113065   3.235   2.056   6.749
 2722SOL    HW213066   3.299   2.008   6.891
 2723SOL     OW13067   3.700   0.115   0.670
 2723SOL    HW113068   3.636   0.124   0.746
 2723SOL    HW213069   3.793   0.131   0.703
 2724SOL     OW13070   1.268   4.334   6.339
 2724SOL    HW113071   1.224   4.422   6.356
 2724SOL    HW213072   1.362   4.350   6.307
 2725SOL     OW13073   0.054   4.900   6.685
 2725SOL    HW113074   5.241   4.870   6.713
 2725SOL    HW213075   0.122   4.838   6.724
 2726SOL     OW13076   5.096   1.260   8.137
 2726SOL    HW113077   5.057   1.292   0.078
 2726SOL    HW213078   5.035   1.285   8.061
 2727SOL     OW13079   4.538   2.204   6.310
 2727SOL    HW113080   4.555   2.253   6.224
 2727SOL    HW213081   4.479   2.126   6.293
 2728SOL     OW13082   5.270   0.391   7.032
 2728SOL    HW113083   5.198   0.460   7.030
 2728SOL    HW213084   0.010   0.358   6.940
 2729SOL     OW13085   0.036   0.970   0.459
 2729SOL    HW113086   0.113   0.906   0.465
 2729SOL    HW213087   0.066   1.052   0.410
 2730SOL     OW13088   4.690   0.893   7.252
 2730SOL    HW113089   4.738   0.975   7.222
 2730SOL    HW213090   4.671   0.834   7.174
 2731SOL     OW13091   5.237   1.031   0.894
 2731SOL    HW113092   5.225   1.070   0.803
 2731SOL    HW213093   5.185   1.085   0.961
 2732SOL     OW13094   0.246   2.865   7.943
 2732SOL    HW113095   0.327   2.806   7.945
 2732SOL    HW213096   0.200   2.861   8.032
 2733SOL     OW13097   0.194   3.701   0.493
 2733SOL    HW113098   0.124   3.772   0.494
 2733SOL    HW213099   0.206   3.663   0.585
 2734SOL     OW13100   3.687   2.709   0.716
 2734SOL    HW113101   3.628   2.712   0.636
 2734SOL    HW213102   3.699   2.614   0.745
 2735SOL     OW13103   3.303   0.334   7.820
 2735SOL    HW113104   3.246   0.367   7.745
 2735SOL    HW213105   3.308   0.235   7.818
 2736SOL     OW13106   3.932   2.503   0.171
 2736SOL    HW113107   4.016   2.471   0.127
 2736SOL    HW213108   3.872   2.543   0.102
 2737SOL     OW13109   4.432   1.014   7.767
 2737SOL    HW113110   4.341   0.991   7.732
 2737SOL    HW213111   4.432   1.109   7.799
 2738SOL     OW13112   2.617   4.708   6.526
 2738SOL    HW113113   2.651   4.616   6.506
 2738SOL    HW213114   2.689   4.761   6.571
 2739SOL     OW13115   2.670   2.400   0.498
 2739SOL    HW113116   2.749   2.375   0.441
 2739SOL    HW213117   2.686   2.489   0.539
 2740SOL     OW13118   1.918   4.868   7.517
 2740SOL    HW113119   1.958   4.789   7.471
 2740SOL    HW213120   1.826   4.885   7.482
 2741SOL     OW13121   3.273   1.760   7.389
 2741SOL    HW113122   3.255   1.720   7.299
 2741SOL    HW213123   3.334   1.701   7.441
 2742SOL     OW13124   0.973   4.141   1.647
 2742SOL    HW113125   1.029   4.069   1.688
 2742SOL    HW213126   0.892   4.156   1.703
 2743SOL     OW13127   0.124   4.960   6.428
 2743SOL    HW113128   0.101   4.943   6.524
 2743SOL    HW213129   0.043   4.947   6.371
 2744SOL     OW13130   3.042   4.817   0.471
 2744SOL    HW113131   3.119   4.802   0.409
 2744SOL    HW213132   3.076   4.817   0.565
 2745SOL     OW13133   1.570   4.471   1.230
 2745SOL    HW113134   1.547   4.549   1.288
 2745SOL    HW213135   1.534   4.387   1.272
 2746SOL     OW13136   1.359   0.595   0.485
 2746SOL    HW113137   1.386   0.531   0.557
 2746SOL    HW213138   1.415   0.580   0.404
 2747SOL     OW13139   1.947   4.828   6.772
 2747SOL    HW113140   1.876   4.773   6.729
 2747SOL    HW213141   1.919   4.853   6.865
 2748SOL     OW13142   1.432   0.166   1.277
 2748SOL    HW113143   1.361   0.235   1.286
 2748SOL    HW213144   1.390   0.078   1.253
 2749SOL     OW13145   1.401   4.865   2.164
 2749SOL    HW113146   1.353   4.952   2.170
 2749SOL    HW213147   1.478   4.865   2.229
 2750SOL     OW13148   3.648   4.465   6.732
 2750SOL    HW113149   3.737   4.419   6.735
 2750SOL    HW213150   3.587   4.422   6.799
 2751SOL     OW13151   1.565   1.851   0.879
 2751SOL    HW113152   1.469   1.838   0.905
 2751SOL    HW213153   1.606   1.920   0.939
 2752SOL     OW13154   0.369   3.190   1.049
 2752SOL    HW113155   0.307   3.256   1.091
 2752SOL    HW213156   0.333   3.161   0.960
 2753SOL     OW13157   4.590   0.793   0.021
 2753SOL    HW113158   4.585   0.808   0.120
 2753SOL    HW213159   4.555   0.702   8.144
 2754SOL     OW13160   3.880   4.517   7.542
 2754SOL    HW113161   3.943   4.450   7.582
 2754SOL    HW213162   3.931   4.583   7.488
 2755SOL     OW13163   2.588   3.257   0.136
 2755SOL    HW113164   2.651   3.311   0.081
 2755SOL    HW213165   2.638   3.214   0.212
 2756SOL     OW13166   2.131   3.085   5.713
 2756SOL    HW113167   2.220   3.039   5.713
 2756SOL    HW213168   2.058   3.018   5.719
 2757SOL     OW13169   3.305   3.395   0.468
 2757SOL    HW113170   3.268   3.392   0.561
 2757SOL    HW213171   3.337   3.304   0.442
 2758SOL     OW13172   5.095   1.753   0.370
 2758SOL    HW113173   4.999   1.743   0.397
 2758SOL    HW213174   5.112   1.695   0.290
 2759SOL     OW13175   1.597   0.179   6.505
 2759SOL    HW113176   1.587   0.262   6.561
 2759SOL    HW213177   1.693   0.156   6.496
 2760SOL     OW13178   3.288   4.899   6.606
 2760SOL    HW113179   3.375   4.945   6.587
 2760SOL    HW213180   3.289   4.864   6.700
 2761SOL     OW13181   0.264   3.699   7.682
 2761SOL    HW113182   0.181   3.664   7.724
 2761SOL    HW213183   0.304   3.769   7.741
 2762SOL     OW13184   4.335   2.202   6.564
 2762SOL    HW113185   4.347   2.149   6.647
 2762SOL    HW213186   4.403   2.175   6.496
 2763SOL     OW13187   4.025   2.875   1.022
 2763SOL    HW113188   4.027   2.904   1.118
 2763SOL    HW213189   4.040   2.955   0.964
 2764SOL     OW13190   1.681   4.090   1.494
 2764SOL    HW113191   1.619   4.013   1.478
 2764SOL    HW213192   1.749   4.065   1.562
 2765SOL     OW13193   3.594   2.995   0.511
 2765SOL    HW113194   3.690   3.008   0.484
 2765SOL    HW213195   3.574   2.897   0.511
 2766SOL     OW13196   4.340   1.481   6.579
 2766SOL    HW113197   4.368   1.449   6.488
 2766SOL    HW213198   4.363   1.578   6.589
 2767SOL     OW13199   4.185   2.150   1.045
 2767SOL    HW113200   4.214   2.055   1.031
 2767SOL    HW213201   4.103   2.168   0.992
 2768SOL     OW13202   3.515   3.203   7.793
 2768SOL    HW113203   3.428   3.162   7.766
 2768SOL    HW213204   3.582   3.132   7.810
 2769SOL     OW13205   5.020   1.544   6.594
 2769SOL    HW113206   4.959   1.465   6.596
 2769SOL    HW213207   5.060   1.552   6.502
 2770SOL     OW13208   2.710   4.124   2.481
 2770SOL    HW113209   2.779   4.053   2.473
 2770SOL    HW213210   2.755   4.213   2.487
 2771SOL     OW13211   1.687   0.835   7.522
 2771SOL    HW113212   1.701   0.882   7.610
 2771SOL    HW213213   1.619   0.763   7.534
 2772SOL     OW13214   2.135   0.407   6.721
 2772SOL    HW113215   2.075   0.468   6.669
 2772SOL    HW213216   2.177   0.457   6.796
 2773SOL     OW13217   2.911   3.108   7.868
 2773SOL    HW113218   2.813   3.121   7.883
 2773SOL    HW213219   2.925   3.037   7.798
 2774SOL     OW13220   3.705   0.919   6.110
 2774SOL    HW113221   3.735   0.831   6.075
 2774SOL    HW213222   3.610   0.936   6.084
 2775SOL     OW13223   1.870   5.025   1.703
 2775SOL    HW113224   1.865   4.940   1.651
 2775SOL    HW213225   1.778   5.054   1.730
 2776SOL     OW13226   4.653   3.536   8.034
 2776SOL    HW113227   4.654   3.529   8.133
 2776SOL    HW213228   4.559   3.554   8.002
 2777SOL     OW13229   0.692   0.141   0.104
 2777SOL    HW113230   0.688   0.241   0.097
 2777SOL    HW213231   0.650   0.113   0.190
 2778SOL     OW13232   1.343   4.639   6.956
 2778SOL    HW113233   1.291   4.670   7.035
 2778SOL    HW213234   1.308   4.550   6.926
 2779SOL     OW13235   1.175   4.157   1.863
 2779SOL    HW113236   1.151   4.062   1.843
 2779SOL    HW213237   1.236   4.159   1.942
 2780SOL     OW13238   3.195   2.552   6.807
 2780SOL    HW113239   3.243   2.589   6.886
 2780SOL    HW213240   3.251   2.482   6.764
 2781SOL     OW13241   2.773   3.948   1.574
 2781SOL    HW113242   2.722   4.032   1.558
 2781SOL    HW213243   2.871   3.965   1.561
 2782SOL     OW13244   0.156   1.136   7.624
 2782SOL    HW113245   0.120   1.082   7.548
 2782SOL    HW213246   0.238   1.185   7.595
 2783SOL     OW13247   2.378   2.496   7.365
 2783SOL    HW113248   2.282   2.492   7.390
 2783SOL    HW213249   2.387   2.539   7.275
 2784SOL     OW13250   0.876   2.518   7.564
 2784SOL    HW113251   0.889   2.614   7.539
 2784SOL    HW213252   0.824   2.513   7.649
 2785SOL     OW13253   2.977   0.989   5.884
 2785SOL    HW113254   2.885   0.982   5.846
 2785SOL    HW213255   3.005   0.900   5.921
 2786SOL     OW13256   2.919   3.456   0.695
 2786SOL    HW113257   2.908   3.533   0.633
 2786SOL    HW213258   2.872   3.475   0.781
 2787SOL     OW13259   5.259   0.965   2.097
 2787SOL    HW113260   5.175   1.016   2.114
 2787SOL    HW213261   0.053   1.029   2.072
 2788SOL     OW13262   4.456   3.385   1.151
 2788SOL    HW113263   4.487   3.478   1.133
 2788SOL    HW213264   4.529   3.320   1.130
 2789SOL     OW13265   4.540   3.652   1.117
 2789SOL    HW113266   4.523   3.645   1.019
 2789SOL    HW213267   4.635   3.625   1.137
 2790SOL     OW13268   4.423   0.001   1.039
 2790SOL    HW113269   4.378   5.000   1.002
 2790SOL    HW213270   4.411   0.077   0.976
 2791SOL     OW13271   0.265   2.140   5.997
 2791SOL    HW113272   0.334   2.100   6.058
 2791SOL    HW213273   0.186   2.080   5.991
 2792SOL     OW13274   1.758   3.680   7.201
 2792SOL    HW113275   1.746   3.590   7.242
 2792SOL    HW213276   1.776   3.747   7.272
 2793SOL     OW13277   0.853   1.990   6.968
 2793SOL    HW113278   0.762   2.016   6.937
 2793SOL    HW213279   0.847   1.950   7.060
 2794SOL     OW13280   4.941   1.175   0.652
 2794SOL    HW113281   4.898   1.121   0.579
 2794SOL    HW213282   5.040   1.157   0.653
 2795SOL     OW13283   1.410   3.128   7.570
 2795SOL    HW113284   1.356   3.045   7.584
 2795SOL    HW213285   1.483   3.132   7.638
 2796SOL     OW13286   1.751   4.676   6.651
 2796SOL    HW113287   1.707   4.656   6.738
 2796SOL    HW213288   1.713   4.617   6.580
 2797SOL     OW13289   0.392   4.887   6.949
 2797SOL    HW113290   0.398   4.987   6.942
 2797SOL    HW213291   0.335   4.862   7.028
 2798SOL     OW13292   2.691   4.691   1.041
 2798SOL    HW113293   2.688   4.783   1.081
 2798SOL    HW213294   2.674   4.696   0.943
 2799SOL     OW13295   2.353   1.591   8.125
 2799SOL    HW113296   2.385   1.681   0.009
 2799SOL    HW213297   2.432   1.531   8.113
 2800SOL     OW13298   2.598   0.415   0.877
 2800SOL    HW113299   2.691   0.445   0.900
 2800SOL    HW213300   2.587   0.417   0.778
 2801SOL     OW13301   0.291   1.401   0.407
 2801SOL    HW113302   0.371   1.365   0.358
 2801SOL    HW213303   0.321   1.451   0.488
 2802SOL     OW13304   1.885   2.908   5.827
 2802SOL    HW113305   1.815   2.968   5.864
 2802SOL    HW213306   1.866   2.813   5.853
 2803SOL     OW13307   0.708   0.788   0.605
 2803SOL    HW113308   0.734   0.802   0.700
 2803SOL    HW213309   0.671   0.872   0.567
 2804SOL     OW13310   3.972   2.103   0.297
 2804SOL    HW113311   4.070   2.099   0.277
 2804SOL    HW213312   3.957   2.087   0.395
 2805SOL     OW13313   2.391   1.915   6.745
 2805SOL    HW113314   2.402   2.014   6.754
 2805SOL    HW213315   2.356   1.878   6.831
 2806SOL     OW13316   2.375   0.222   1.568
 2806SOL    HW113317   2.329   0.204   1.655
 2806SOL    HW213318   2.458   0.275   1.584
 2807SOL     OW13319   3.122   2.170   6.679
 2807SOL    HW113320   3.061   2.249   6.673
 2807SOL    HW213321   3.075   2.088   6.647
 2808SOL     OW13322   1.805   3.625   2.351
 2808SOL    HW113323   1.817   3.718   2.386
 2808SOL    HW213324   1.832   3.560   2.422
 2809SOL     OW13325   4.447   2.757   6.621
 2809SOL    HW113326   4.349   2.744   6.636
 2809SOL    HW213327   4.476   2.701   6.543
 2810SOL     OW13328   4.225   1.643   7.971
 2810SOL    HW113329   4.225   1.573   8.042
 2810SOL    HW213330   4.283   1.720   7.999
 2811SOL     OW13331   2.635   2.098   0.359
 2811SOL    HW113332   2.559   2.132   0.414
 2811SOL    HW213333   2.701   2.172   0.344
 2812SOL     OW13334   0.400   4.230   0.660
 2812SOL    HW113335   0.370   4.326   0.655
 2812SOL    HW213336   0.491   4.221   0.619
 2813SOL     OW13337   0.612   4.035   1.029
 2813SOL    HW113338   0.583   4.121   0.987
 2813SOL    HW213339   0.535   3.995   1.079
 2814SOL     OW13340   1.950   0.639   6.957
 2814SOL    HW113341   1.945   0.607   7.052
 2814SOL    HW213342   2.042   0.625   6.921
 2815SOL     OW13343   0.018   2.639   2.011
 2815SOL    HW113344   0.112   2.674   2.015
 2815SOL    HW213345   0.017   2.541   2.030
 2816SOL     OW13346   0.814   0.152   7.626
 2816SOL    HW113347   0.863   0.121   7.707
 2816SOL    HW213348   0.757   0.078   7.590
 2817SOL     OW13349   0.488   1.510   1.311
 2817SOL    HW113350   0.390   1.532   1.310
 2817SOL    HW213351   0.541   1.593   1.328
 2818SOL     OW13352   0.993   1.104   7.138
 2818SOL    HW113353   1.002   1.190   7.189
 2818SOL    HW213354   1.008   1.121   7.041
 2819SOL     OW13355   2.625   2.551   0.088
 2819SOL    HW113356   2.563   2.513   0.157
 2819SOL    HW213357   2.717   2.561   0.127
 2820SOL     OW13358   1.504   3.902   1.173
 2820SOL    HW113359   1.503   3.894   1.272
 2820SOL    HW213360   1.585   3.856   1.137
 2821SOL     OW13361   1.604   2.338   7.332
 2821SOL    HW113362   1.524   2.390   7.302
 2821SOL    HW213363   1.687   2.389   7.311
 2822SOL     OW13364   3.745   1.278   7.728
 2822SOL    HW113365   3.724   1.181   7.741
 2822SOL    HW213366   3.779   1.315   7.815
 2823SOL     OW13367   2.034   3.034   1.566
 2823SOL    HW113368   2.096   3.082   1.503
 2823SOL    HW213369   2.014   3.093   1.644
 2824SOL     OW13370   0.163   1.494   6.328
 2824SOL    HW113371   0.073   1.458   6.302
 2824SOL    HW213372   0.152   1.565   6.398
 2825SOL     OW13373   1.615   0.920   7.269
 2825SOL    HW113374   1.639   0.841   7.212
 2825SOL    HW213375   1.641   0.902   7.363
 2826SOL     OW13376   1.310   4.905   0.367
 2826SOL    HW113377   1.362   4.848   0.304
 2826SOL    HW213378   1.297   4.856   0.454
 2827SOL     OW13379   1.886   4.941   0.764
 2827SOL    HW113380   1.985   4.931   0.756
 2827SOL    HW213381   1.851   4.995   0.687
 2828SOL     OW13382   5.019   3.574   7.267
 2828SOL    HW113383   4.958   3.549   7.192
 2828SOL    HW213384   5.104   3.612   7.229
 2829SOL     OW13385   2.169   1.422   7.485
 2829SOL    HW113386   2.090   1.430   7.546
 2829SOL    HW213387   2.252   1.442   7.535
 2830SOL     OW13388   4.753   3.936   7.085
 2830SOL    HW113389   4.776   3.932   6.988
 2830SOL    HW213390   4.707   3.851   7.111
 2831SOL     OW13391   0.179   2.079   8.086
 2831SOL    HW113392   0.260   2.075   8.027
 2831SOL    HW213393   0.145   1.986   8.101
 2832SOL     OW13394   2.234   4.130   7.760
 2832SOL    HW113395   2.171   4.055   7.780
 2832SOL    HW213396   2.198   4.215   7.798
 2833SOL     OW13397   1.106   0.663   0.588
 2833SOL    HW113398   1.131   0.708   0.674
 2833SOL    HW213399   1.188   0.629   0.543
 2834SOL     OW13400   0.384   4.980   0.597
 2834SOL    HW113401   0.452   5.005   0.665
 2834SOL    HW213402   0.375   5.054   0.530
 2835SOL     OW13403   4.864   4.639   0.541
 2835SOL    HW113404   4.850   4.720   0.598
 2835SOL    HW213405   4.775   4.597   0.521
 2836SOL     OW13406   3.853   1.250   0.883
 2836SOL    HW113407   3.923   1.307   0.840
 2836SOL    HW213408   3.823   1.293   0.968
 2837SOL     OW13409   1.854   4.659   7.795
 2837SOL    HW113410   1.765   4.678   7.753
 2837SOL    HW213411   1.915   4.736   7.779
 2838SOL     OW13412   4.681   4.371   7.768
 2838SOL    HW113413   4.750   4.302   7.791
 2838SOL    HW213414   4.598   4.355   7.823
 2839SOL     OW13415   1.547   2.067   1.340
 2839SOL    HW113416   1.529   1.992   1.276
 2839SOL    HW213417   1.544   2.033   1.434
 2840SOL     OW13418   0.184   3.373   1.125
 2840SOL    HW113419   0.159   3.370   1.221
 2840SOL    HW213420   0.188   3.467   1.093
 2841SOL     OW13421   3.685   1.010   7.741
 2841SOL    HW113422   3.587   1.013   7.758
 2841SOL    HW213423   3.726   0.936   7.795
 2842SOL     OW13424   2.734   4.258   0.579
 2842SOL    HW113425   2.644   4.270   0.537
 2842SOL    HW213426   2.788   4.195   0.524
 2843SOL     OW13427   2.740   4.014   6.553
 2843SOL    HW113428   2.677   4.042   6.481
 2843SOL    HW213429   2.698   4.029   6.642
 2844SOL     OW13430   4.976   1.836   7.187
 2844SOL    HW113431   4.934   1.819   7.276
 2844SOL    HW213432   5.071   1.867   7.201
 2845SOL     OW13433   0.609   4.065   7.035
 2845SOL    HW113434   0.560   4.106   6.958
 2845SOL    HW213435   0.697   4.029   7.003
 2846SOL     OW13436   1.453   3.868   7.442
 2846SOL    HW113437   1.491   3.905   7.357
 2846SOL    HW213438   1.421   3.775   7.426
 2847SOL     OW13439   3.769   4.605   6.531
 2847SOL    HW113440   3.724   4.561   6.608
 2847SOL    HW213441   3.701   4.632   6.463
 2848SOL     OW13442   2.423   0.455   1.083
 2848SOL    HW113443   2.487   0.421   1.013
 2848SOL    HW213444   2.409   0.383   1.151
 2849SOL     OW13445   2.370   1.191   1.244
 2849SOL    HW113446   2.292   1.139   1.209
 2849SOL    HW213447   2.410   1.142   1.322
 2850SOL     OW13448   0.682   4.967   7.937
 2850SOL    HW113449   0.648   5.045   7.884
 2850SOL    HW213450   0.725   4.901   7.875
 2851SOL     OW13451   2.498   1.086   0.422
 2851SOL    HW113452   2.403   1.080   0.456
 2851SOL    HW213453   2.529   1.181   0.431
 2852SOL     OW13454   1.468   4.373   1.816
 2852SOL    HW113455   1.496   4.281   1.843
 2852SOL    HW213456   1.395   4.405   1.877
 2853SOL     OW13457   1.157   4.736   7.182
 2853SOL    HW113458   1.070   4.703   7.220
 2853SOL    HW213459   1.139   4.814   7.122
 2854SOL     OW13460   0.661   0.242   6.519
 2854SOL    HW113461   0.726   0.221   6.592
 2854SOL    HW213462   0.651   0.162   6.460
 2855SOL     OW13463   4.519   0.935   1.153
 2855SOL    HW113464   4.586   0.972   1.218
 2855SOL    HW213465   4.563   0.924   1.064
 2856SOL     OW13466   1.633   2.834   7.317
 2856SOL    HW113467   1.662   2.822   7.222
 2856SOL    HW213468   1.712   2.859   7.373
 2857SOL     OW13469   3.473   0.994   6.836
 2857SOL    HW113470   3.484   0.918   6.900
 2857SOL    HW213471   3.522   1.074   6.871
 2858SOL     OW13472   4.972   1.373   0.222
 2858SOL    HW113473   5.023   1.454   0.193
 2858SOL    HW213474   4.876   1.398   0.238
 2859SOL     OW13475   4.906   3.741   8.071
 2859SOL    HW113476   4.900   3.692   7.984
 2859SOL    HW213477   4.879   3.680   0.000
 2860SOL     OW13478   1.783   0.274   6.911
 2860SOL    HW113479   1.874   0.241   6.886
 2860SOL    HW213480   1.787   0.321   6.999
 2861SOL     OW13481   5.143   2.196   7.300
 2861SOL    HW113482   5.184   2.279   7.263
 2861SOL    HW213483   5.168   2.118   7.242
 2862SOL     OW13484   2.923   3.293   0.217
 2862SOL    HW113485   2.855   3.263   0.284
 2862SOL    HW213486   2.878   3.346   0.145
 2863SOL     OW13487   0.742   2.386   8.045
 2863SOL    HW113488   0.653   2.353   8.075
 2863SOL    HW213489   0.807   2.310   8.045
 2864SOL     OW13490   0.226   2.985   0.282
 2864SOL    HW113491   0.265   3.076   0.269
 2864SOL    HW213492   0.292   2.926   0.328
 2865SOL     OW13493   2.021   5.052   6.629
 2865SOL    HW113494   2.081   5.020   6.555
 2865SOL    HW213495   1.992   4.975   6.685
 2866SOL     OW13496   3.231   3.413   1.141
 2866SOL    HW113497   3.140   3.382   1.114
 2866SOL    HW213498   3.279   3.448   1.061
 2867SOL     OW13499   2.090   0.548   6.306
 2867SOL    HW113500   2.062   0.618   6.371
 2867SOL    HW213501   2.108   0.590   6.217
 2868SOL     OW13502   0.013   0.079   7.463
 2868SOL    HW113503   5.233   0.035   7.395
 2868SOL    HW213504   0.093   0.022   7.480
 2869SOL     OW13505   1.799   2.477   8.110
 2869SOL    HW113506   1.805   2.400   0.029
 2869SOL    HW213507   1.704   2.488   8.080
 2870SOL     OW13508   0.151   3.453   0.078
 2870SOL    HW113509   0.174   3.458   0.175
 2870SOL    HW213510   0.216   3.393   0.031
 2871SOL     OW13511   1.088   2.341   7.605
 2871SOL    HW113512   1.023   2.414   7.588
 2871SOL    HW213513   1.040   2.253   7.607
 2872SOL     OW13514   2.081   3.689   0.946
 2872SOL    HW113515   2.105   3.781   0.976
 2872SOL    HW213516   1.986   3.687   0.915
 2873SOL     OW13517   1.830   4.661   0.099
 2873SOL    HW113518   1.864   4.752   0.077
 2873SOL    HW213519   1.898   4.593   0.073
 2874SOL     OW13520   3.303   2.767   5.833
 2874SOL    HW113521   3.392   2.740   5.797
 2874SOL    HW213522   3.292   2.866   5.826
 2875SOL     OW13523   5.097   4.779   6.782
 2875SOL    HW113524   5.115   4.714   6.856
 2875SOL    HW213525   5.030   4.847   6.812
 2876SOL     OW13526   0.411   0.084   6.898
 2876SOL    HW113527   0.425   0.176   6.936
 2876SOL    HW213528   0.322   0.080   6.853
 2877SOL     OW13529   4.083   1.271   0.178
 2877SOL    HW113530   3.994   1.250   0.139
 2877SOL    HW213531   4.073   1.336   0.253
 2878SOL     OW13532   4.176   2.539   7.611
 2878SOL    HW113533   4.159   2.441   7.607
 2878SOL    HW213534   4.207   2.571   7.522
 2879SOL     OW13535   0.171   1.088   6.550
 2879SOL    HW113536   0.153   1.100   6.648
 2879SOL    HW213537   0.225   1.166   6.517
 2880SOL     OW13538   2.231   4.814   0.431
 2880SOL    HW113539   2.174   4.732   0.440
 2880SOL    HW213540   2.327   4.790   0.447
 2881SOL     OW13541   2.939   3.312   1.653
 2881SOL    HW113542   3.032   3.307   1.690
 2881SOL    HW213543   2.895   3.223   1.663
 2882SOL     OW13544   1.640   3.343   0.301
 2882SOL    HW113545   1.631   3.296   0.389
 2882SOL    HW213546   1.595   3.432   0.306
 2883SOL     OW13547   4.671   4.017   1.355
 2883SOL    HW113548   4.763   4.050   1.337
 2883SOL    HW213549   4.639   4.053   1.443
 2884SOL     OW13550   5.213   4.578   7.480
 2884SOL    HW113551   5.189   4.673   7.464
 2884SOL    HW213552   5.166   4.545   7.563
 2885SOL     OW13553   3.192   3.720   7.151
 2885SOL    HW113554   3.097   3.709   7.121
 2885SOL    HW213555   3.251   3.730   7.071
 2886SOL     OW13556   3.525   1.845   7.016
 2886SOL    HW113557   3.614   1.889   7.000
 2886SOL    HW213558   3.514   1.769   6.952
 2887SOL     OW13559   1.915   1.450   1.404
 2887SOL    HW113560   1.921   1.490   1.313
 2887SOL    HW213561   1.885   1.355   1.397
 2888SOL     OW13562   2.234   5.002   7.124
 2888SOL    HW113563   2.288   4.998   7.040
 2888SOL    HW213564   2.286   5.049   7.195
 2889SOL     OW13565   1.122   4.716   0.146
 2889SOL    HW113566   1.185   4.710   0.069
 2889SOL    HW213567   1.107   4.813   0.168
 2890SOL     OW13568   3.080   4.709   6.967
 2890SOL    HW113569   3.038   4.791   7.006
 2890SOL    HW213570   3.032   4.683   6.883
 2891SOL     OW13571   1.263   2.226   6.573
 2891SOL    HW113572   1.333   2.163   6.606
 2891SOL    HW213573   1.304   2.316   6.558
 2892SOL     OW13574   2.876   0.314   6.434
 2892SOL    HW113575   2.861   0.326   6.336
 2892SOL    HW213576   2.824   0.383   6.485
 2893SOL     OW13577   4.063   4.761   7.636
 2893SOL    HW113578   3.970   4.788   7.613
 2893SOL    HW213579   4.121   4.768   7.555
 2894SOL     OW13580   3.009   2.085   0.402
 2894SOL    HW113581   3.060   2.127   0.477
 2894SOL    HW213582   2.942   2.020   0.439
 2895SOL     OW13583   3.263   1.717   6.781
 2895SOL    HW113584   3.351   1.681   6.811
 2895SOL    HW213585   3.266   1.817   6.781
 2896SOL     OW13586   0.733   1.454   6.565
 2896SOL    HW113587   0.721   1.437   6.467
 2896SOL    HW213588   0.644   1.473   6.606
 2897SOL     OW13589   1.053   3.702   7.390
 2897SOL    HW113590   1.021   3.773   7.327
 2897SOL    HW213591   0.988   3.692   7.465
 2898SOL     OW13592   2.840   2.617   7.882
 2898SOL    HW113593   2.770   2.686   7.863
 2898SOL    HW213594   2.797   2.532   7.912
 2899SOL     OW13595   3.965   3.011   0.100
 2899SOL    HW113596   3.998   2.959   0.178
 2899SOL    HW213597   3.911   3.089   0.133
 2900SOL     OW13598   1.138   4.026   7.306
 2900SOL    HW113599   1.188   4.019   7.393
 2900SOL    HW213600   1.201   4.055   7.234
 2901SOL     OW13601   3.122   3.080   0.442
 2901SOL    HW113602   3.086   3.059   0.351
 2901SOL    HW213603   3.054   3.132   0.493
 2902SOL     OW13604   3.404   3.779   0.700
 2902SOL    HW113605   3.436   3.765   0.606
 2902SOL    HW213606   3.460   3.725   0.762
 2903SOL     OW13607   1.063   0.301   7.947
 2903SOL    HW113608   1.001   0.332   8.020
 2903SOL    HW213609   1.022   0.224   7.899
 2904SOL     OW13610   1.055   3.485   7.220
 2904SOL    HW113611   0.991   3.498   7.144
 2904SOL    HW213612   1.061   3.569   7.274
 2905SOL     OW13613   3.313   4.796   6.856
 2905SOL    HW113614   3.236   4.763   6.911
 2905SOL    HW213615   3.360   4.718   6.815
 2906SOL     OW13616   1.397   1.789   0.471
 2906SOL    HW113617   1.364   1.798   0.377
 2906SOL    HW213618   1.336   1.728   0.521
 2907SOL     OW13619   0.453   0.223   0.623
 2907SOL    HW113620   0.514   0.162   0.674
 2907SOL    HW213621   0.469   0.317   0.651
 2908SOL     OW13622   5.125   0.339   6.545
 2908SOL    HW113623   5.111   0.246   6.512
 2908SOL    HW213624   5.051   0.398   6.513
 2909SOL     OW13625   1.228   4.716   1.245
 2909SOL    HW113626   1.155   4.700   1.312
 2909SOL    HW213627   1.197   4.686   1.154
 2910SOL     OW13628   1.649   2.438   1.106
 2910SOL    HW113629   1.560   2.470   1.138
 2910SOL    HW213630   1.687   2.375   1.174
 2911SOL     OW13631   0.088   2.405   6.953
 2911SOL    HW113632   0.110   2.308   6.939
 2911SOL    HW213633   0.042   2.417   7.041
 2912SOL     OW13634   3.638   2.808   7.278
 2912SOL    HW113635   3.680   2.839   7.364
 2912SOL    HW213636   3.539   2.823   7.281
 2913SOL     OW13637   1.572   4.222   0.866
 2913SOL    HW113638   1.510   4.175   0.929
 2913SOL    HW213639   1.631   4.285   0.918
 2914SOL     OW13640   2.067   4.393   5.872
 2914SOL    HW113641   2.107   4.437   5.791
 2914SOL    HW213642   1.977   4.433   5.891
 2915SOL     OW13643   3.441   1.552   7.465
 2915SOL    HW113644   3.521   1.533   7.521
 2915SOL    HW213645   3.470   1.566   7.370
 2916SOL     OW13646   2.864   0.438   7.076
 2916SOL    HW113647   2.840   0.455   7.171
 2916SOL    HW213648   2.784   0.451   7.018
 2917SOL     OW13649   2.173   3.917   6.412
 2917SOL    HW113650   2.166   3.819   6.396
 2917SOL    HW213651   2.106   3.945   6.480
 2918SOL     OW13652   0.686   3.202   7.758
 2918SOL    HW113653   0.600   3.187   7.708
 2918SOL    HW213654   0.699   3.128   7.824
 2919SOL     OW13655   1.285   4.094   7.077
 2919SOL    HW113656   1.329   4.059   6.994
 2919SOL    HW213657   1.204   4.147   7.052
 2920SOL     OW13658   0.733   3.452   0.351
 2920SOL    HW113659   0.743   3.361   0.311
 2920SOL    HW213660   0.646   3.492   0.322
 2921SOL     OW13661   0.410   4.529   7.097
 2921SOL    HW113662   0.356   4.521   7.013
 2921SOL    HW213663   0.372   4.469   7.168
 2922SOL     OW13664   2.004   3.253   1.198
 2922SOL    HW113665   2.009   3.180   1.130
 2922SOL    HW213666   2.047   3.335   1.162
 2923SOL     OW13667   1.842   4.526   0.339
 2923SOL    HW113668   1.833   4.577   0.253
 2923SOL    HW213669   1.778   4.561   0.406
 2924SOL     OW13670   3.704   3.656   6.493
 2924SOL    HW113671   3.802   3.674   6.492
 2924SOL    HW213672   3.683   3.586   6.424
 2925SOL     OW13673   1.737   2.400   6.604
 2925SOL    HW113674   1.829   2.363   6.592
 2925SOL    HW213675   1.730   2.486   6.553
 2926SOL     OW13676   3.231   1.965   0.297
 2926SOL    HW113677   3.211   1.867   0.297
 2926SOL    HW213678   3.151   2.016   0.327
 2927SOL     OW13679   0.401   3.688   7.985
 2927SOL    HW113680   0.347   3.708   8.067
 2927SOL    HW213681   0.376   3.598   7.950
 2928SOL     OW13682   3.087   4.278   2.504
 2928SOL    HW113683   3.132   4.337   2.438
 2928SOL    HW213684   2.989   4.299   2.508
 2929SOL     OW13685   0.106   1.827   0.035
 2929SOL    HW113686   0.100   1.728   0.038
 2929SOL    HW213687   0.184   1.859   0.089
 2930SOL     OW13688   1.619   4.114   6.187
 2930SOL    HW113689   1.572   4.046   6.131
 2930SOL    HW213690   1.718   4.103   6.177
 2931SOL     OW13691   0.827   4.462   6.554
 2931SOL    HW113692   0.858   4.367   6.552
 2931SOL    HW213693   0.757   4.472   6.625
 2932SOL     OW13694   2.251   3.219   7.077
 2932SOL    HW113695   2.290   3.282   7.144
 2932SOL    HW213696   2.305   3.135   7.075
 2933SOL     OW13697   4.129   4.022   7.665
 2933SOL    HW113698   4.080   4.086   7.606
 2933SOL    HW213699   4.141   4.063   7.756
 2934SOL     OW13700   0.696   2.539   6.791
 2934SOL    HW113701   0.605   2.506   6.765
 2934SOL    HW213702   0.739   2.472   6.851
 2935SOL     OW13703   2.131   3.959   1.003
 2935SOL    HW113704   2.122   3.985   0.906
 2935SOL    HW213705   2.180   4.031   1.051
 2936SOL     OW13706   2.994   3.880   1.086
 2936SOL    HW113707   3.065   3.813   1.066
 2936SOL    HW213708   3.019   3.969   1.047
 2937SOL     OW13709   4.622   2.222   6.712
 2937SOL    HW113710   4.609   2.286   6.637
 2937SOL    HW213711   4.534   2.187   6.743
 2938SOL     OW13712   0.134   2.263   0.134
 2938SOL    HW113713   0.158   2.202   0.058
 2938SOL    HW213714   0.155   2.218   0.221
 2939SOL     OW13715   4.592   2.729   0.197
 2939SOL    HW113716   4.679   2.758   0.235
 2939SOL    HW213717   4.572   2.783   0.115
 2940SOL     OW13718   2.527   3.329   0.525
 2940SOL    HW113719   2.524   3.398   0.597
 2940SOL    HW213720   2.488   3.366   0.441
 2941SOL     OW13721   0.500   4.266   0.917
 2941SOL    HW113722   0.572   4.329   0.892
 2941SOL    HW213723   0.453   4.234   0.835
 2942SOL     OW13724   1.608   0.631   0.748
 2942SOL    HW113725   1.563   0.552   0.706
 2942SOL    HW213726   1.614   0.618   0.847
 2943SOL     OW13727   1.583   0.678   8.095
 2943SOL    HW113728   1.655   0.693   8.027
 2943SOL    HW213729   1.594   0.742   0.026
 2944SOL     OW13730   2.913   2.895   7.684
 2944SOL    HW113731   2.967   2.811   7.682
 2944SOL    HW213732   2.825   2.878   7.728
 2945SOL     OW13733   2.503   4.653   7.759
 2945SOL    HW113734   2.429   4.606   7.712
 2945SOL    HW213735   2.586   4.598   7.753
 2946SOL     OW13736   3.606   0.266   1.205
 2946SOL    HW113737   3.641   0.233   1.293
 2946SOL    HW213738   3.679   0.262   1.137
 2947SOL     OW13739   2.129   4.111   7.500
 2947SOL    HW113740   2.146   4.020   7.462
 2947SOL    HW213741   2.173   4.118   7.590
 2948SOL     OW13742   1.249   4.764   1.677
 2948SOL    HW113743   1.268   4.674   1.639
 2948SOL    HW213744   1.250   4.759   1.777
 2949SOL     OW13745   0.266   2.034   0.821
 2949SOL    HW113746   0.232   1.982   0.899
 2949SOL    HW213747   0.200   2.030   0.746
 2950SOL     OW13748   2.117   3.139   7.442
 2950SOL    HW113749   2.071   3.123   7.355
 2950SOL    HW213750   2.174   3.061   7.465
 2951SOL     OW13751   1.723   3.973   6.634
 2951SOL    HW113752   1.679   4.000   6.720
 2951SOL    HW213753   1.670   4.008   6.558
 2952SOL     OW13754   2.802   1.220   6.809
 2952SOL    HW113755   2.712   1.247   6.774
 2952SOL    HW213756   2.802   1.226   6.909
 2953SOL     OW13757   4.313   3.703   0.391
 2953SOL    HW113758   4.324   3.746   0.302
 2953SOL    HW213759   4.403   3.689   0.433
 2954SOL     OW13760   0.301   3.953   6.869
 2954SOL    HW113761   0.291   3.959   6.969
 2954SOL    HW213762   0.368   4.020   6.839
 2955SOL     OW13763   2.319   0.220   2.093
 2955SOL    HW113764   2.370   0.260   2.169
 2955SOL    HW213765   2.245   0.163   2.128
 2956SOL     OW13766   0.131   2.144   0.388
 2956SOL    HW113767   0.113   2.219   0.452
 2956SOL    HW213768   0.047   2.093   0.372
 2957SOL     OW13769   2.950   2.791   0.335
 2957SOL    HW113770   3.012   2.791   0.414
 2957SOL    HW213771   2.976   2.865   0.273
 2958SOL     OW13772   4.211   0.280   2.084
 2958SOL    HW113773   4.217   0.378   2.101
 2958SOL    HW213774   4.262   0.256   2.002
 2959SOL     OW13775   0.243   0.930   7.180
 2959SOL    HW113776   0.324   0.982   7.155
 2959SOL    HW213777   0.199   0.973   7.259
 2960SOL     OW13778   2.785   4.451   6.522
 2960SOL    HW113779   2.865   4.392   6.530
 2960SOL    HW213780   2.730   4.445   6.605
 2961SOL     OW13781   4.216   0.772   7.267
 2961SOL    HW113782   4.248   0.700   7.329
 2961SOL    HW213783   4.116   0.777   7.272
 2962SOL     OW13784   5.056   0.597   1.398
 2962SOL    HW113785   5.147   0.556   1.390
 2962SOL    HW213786   4.999   0.540   1.457
 2963SOL     OW13787   1.185   1.609   1.786
 2963SOL    HW113788   1.122   1.625   1.862
 2963SOL    HW213789   1.223   1.517   1.794
 2964SOL     OW13790   4.657   1.001   6.810
 2964SOL    HW113791   4.746   0.964   6.785
 2964SOL    HW213792   4.660   1.101   6.805
 2965SOL     OW13793   1.939   4.375   1.739
 2965SOL    HW113794   1.855   4.358   1.688
 2965SOL    HW213795   1.924   4.358   1.836
 2966SOL     OW13796   5.025   2.573   2.015
 2966SOL    HW113797   5.121   2.599   2.021
 2966SOL    HW213798   5.018   2.478   1.986
 2967SOL     OW13799   1.391   2.466   6.526
 2967SOL    HW113800   1.346   2.555   6.515
 2967SOL    HW213801   1.456   2.452   6.452
 2968SOL     OW13802   4.460   0.555   8.124
 2968SOL    HW113803   4.374   0.560   0.030
 2968SOL    HW213804   4.441   0.558   8.026
 2969SOL     OW13805   5.148   1.435   0.913
 2969SOL    HW113806   5.124   1.349   0.958
 2969SOL    HW213807   5.103   1.439   0.823
 2970SOL     OW13808   0.851   2.605   0.029
 2970SOL    HW113809   0.809   2.526   8.128
 2970SOL    HW213810   0.859   2.586   0.127
 2971SOL     OW13811   2.706   4.667   0.762
 2971SOL    HW113812   2.801   4.637   0.773
 2971SOL    HW213813   2.651   4.592   0.725
 2972SOL     OW13814   1.493   4.342   7.025
 2972SOL    HW113815   1.466   4.328   7.120
 2972SOL    HW213816   1.411   4.354   6.968
 2973SOL     OW13817   0.156   2.043   5.652
 2973SOL    HW113818   0.155   1.948   5.620
 2973SOL    HW213819   0.062   2.075   5.665
 2974SOL     OW13820   3.025   3.639   6.812
 2974SOL    HW113821   2.966   3.570   6.770
 2974SOL    HW213822   2.985   3.669   6.898
 2975SOL     OW13823   0.469   3.211   0.491
 2975SOL    HW113824   0.562   3.177   0.499
 2975SOL    HW213825   0.447   3.267   0.571
 2976SOL     OW13826   3.758   4.356   7.362
 2976SOL    HW113827   3.802   4.413   7.432
 2976SOL    HW213828   3.828   4.308   7.310
 2977SOL     OW13829   0.295   3.619   6.984
 2977SOL    HW113830   0.339   3.535   6.951
 2977SOL    HW213831   0.199   3.620   6.956
 2978SOL     OW13832   5.274   0.419   7.727
 2978SOL    HW113833   5.193   0.450   7.778
 2978SOL    HW213834   0.008   0.321   7.744
 2979SOL     OW13835   0.268   2.066   1.251
 2979SOL    HW113836   0.340   2.019   1.199
 2979SOL    HW213837   0.204   1.998   1.287
 2980SOL     OW13838   2.485   3.382   7.938
 2980SOL    HW113839   2.414   3.358   7.872
 2980SOL    HW213840   2.473   3.477   7.967
 2981SOL     OW13841   2.254   0.470   1.838
 2981SOL    HW113842   2.315   0.516   1.773
 2981SOL    HW213843   2.264   0.371   1.829
 2982SOL     OW13844   2.330   0.477   6.420
 2982SOL    HW113845   2.308   0.391   6.467
 2982SOL    HW213846   2.249   0.512   6.374
 2983SOL     OW13847   4.515   3.926   1.152
 2983SOL    HW113848   4.531   3.827   1.141
 2983SOL    HW213849   4.574   3.961   1.225
 2984SOL     OW13850   2.915   1.285   0.947
 2984SOL    HW113851   2.864   1.259   0.865
 2984SOL    HW213852   2.884   1.229   1.024
 2985SOL     OW13853   4.704   3.168   6.718
 2985SOL    HW113854   4.720   3.130   6.627
 2985SOL    HW213855   4.605   3.165   6.737
 2986SOL     OW13856   4.941   0.053   7.877
 2986SOL    HW113857   4.991   0.131   7.913
 2986SOL    HW213858   4.863   0.085   7.823
 2987SOL     OW13859   0.199   5.079   7.912
 2987SOL    HW113860   0.170   5.010   7.978
 2987SOL    HW213861   0.266   5.039   7.849
 2988SOL     OW13862   3.685   3.882   6.880
 2988SOL    HW113863   3.687   3.963   6.938
 2988SOL    HW213864   3.769   3.829   6.893
 2989SOL     OW13865   3.317   4.430   7.906
 2989SOL    HW113866   3.286   4.521   7.881
 2989SOL    HW213867   3.326   4.423   8.005
 2990SOL     OW13868   3.670   1.530   7.620
 2990SOL    HW113869   3.747   1.576   7.575
 2990SOL    HW213870   3.702   1.445   7.662
 2991SOL     OW13871   4.606   1.986   0.996
 2991SOL    HW113872   4.641   2.003   0.903
 2991SOL    HW213873   4.547   2.062   1.023
 2992SOL     OW13874   4.471   3.854   0.725
 2992SOL    HW113875   4.506   3.917   0.795
 2992SOL    HW213876   4.486   3.893   0.634
 2993SOL     OW13877   4.179   3.160   0.580
 2993SOL    HW113878   4.251   3.213   0.625
 2993SOL    HW213879   4.218   3.109   0.504
 2994SOL     OW13880   3.353   0.588   6.606
 2994SOL    HW113881   3.277   0.614   6.546
 2994SOL    HW213882   3.320   0.584   6.701
 2995SOL     OW13883   1.919   1.475   6.639
 2995SOL    HW113884   1.874   1.516   6.559
 2995SOL    HW213885   1.987   1.539   6.675
 2996SOL     OW13886   0.390   0.424   1.178
 2996SOL    HW113887   0.389   0.376   1.266
 2996SOL    HW213888   0.484   0.425   1.142
 2997SOL     OW13889   0.821   0.712   7.858
 2997SOL    HW113890   0.899   0.652   7.841
 2997SOL    HW213891   0.736   0.661   7.848
 2998SOL     OW13892   3.712   2.173   1.321
 2998SOL    HW113893   3.757   2.179   1.411
 2998SOL    HW213894   3.639   2.104   1.325
 2999SOL     OW13895   1.432   5.017   7.019
 2999SOL    HW113896   1.351   5.002   6.962
 2999SOL    HW213897   1.502   5.066   6.967
 3000SOL     OW13898   4.122   2.696   7.018
 3000SOL    HW113899   4.073   2.704   7.104
 3000SOL    HW213900   4.060   2.716   6.942
 3001SOL     OW13901   0.060   0.786   8.145
 3001SOL    HW113902   5.263   0.737   8.103
 3001SOL    HW213903   0.040   0.884   8.144
 3002SOL     OW13904   0.564   2.960   6.778
 3002SOL    HW113905   0.552   3.043   6.833
 3002SOL    HW213906   0.628   2.899   6.825
 3003SOL     OW13907   0.482   0.120   8.069
 3003SOL    HW113908   0.434   0.035   8.088
 3003SOL    HW213909   0.565   0.125   8.125
 3004SOL     OW13910   0.520   0.888   0.876
 3004SOL    HW113911   0.494   0.968   0.930
 3004SOL    HW213912   0.611   0.857   0.903
 3005SOL     OW13913   0.822   3.232   6.953
 3005SOL    HW113914   0.849   3.202   7.045
 3005SOL    HW213915   0.724   3.216   6.940
 3006SOL     OW13916   1.757   4.399   7.031
 3006SOL    HW113917   1.778   4.438   7.121
 3006SOL    HW213918   1.659   4.376   7.028
 3007SOL     OW13919   2.875   0.869   7.739
 3007SOL    HW113920   2.957   0.815   7.761
 3007SOL    HW213921   2.901   0.964   7.723
 3008SOL     OW13922   5.162   2.023   0.332
 3008SOL    HW113923   5.147   1.925   0.339
 3008SOL    HW213924   5.077   2.071   0.355
 3009SOL     OW13925   3.400   4.004   1.556
 3009SOL    HW113926   3.477   3.941   1.543
 3009SOL    HW213927   3.352   4.016   1.470
 3010SOL     OW13928   1.874   2.787   0.242
 3010SOL    HW113929   1.935   2.719   0.199
 3010SOL    HW213930   1.890   2.788   0.341
 3011SOL     OW13931   4.803   2.798   1.000
 3011SOL    HW113932   4.823   2.831   1.093
 3011SOL    HW213933   4.878   2.824   0.939
 3012SOL     OW13934   5.179   2.122   5.738
 3012SOL    HW113935   5.178   2.220   5.752
 3012SOL    HW213936   5.086   2.085   5.748
 3013SOL     OW13937   4.872   2.434   1.006
 3013SOL    HW113938   4.863   2.343   1.046
 3013SOL    HW213939   4.781   2.477   1.000
 3014SOL     OW13940   0.459   0.392   8.010
 3014SOL    HW113941   0.455   0.292   8.023
 3014SOL    HW213942   0.375   0.433   8.047
 3015SOL     OW13943   5.111   4.913   0.019
 3015SOL    HW113944   5.132   4.945   8.072
 3015SOL    HW213945   5.143   4.980   0.086
 3016SOL     OW13946   1.678   4.310   7.450
 3016SOL    HW113947   1.738   4.232   7.469
 3016SOL    HW213948   1.629   4.336   7.533
 3017SOL     OW13949   1.205   2.202   0.450
 3017SOL    HW113950   1.190   2.258   0.532
 3017SOL    HW213951   1.299   2.214   0.418
 3018SOL     OW13952   2.007   4.576   0.724
 3018SOL    HW113953   2.055   4.554   0.809
 3018SOL    HW213954   1.916   4.612   0.745
 3019SOL     OW13955   1.023   0.373   7.373
 3019SOL    HW113956   1.024   0.414   7.282
 3019SOL    HW213957   1.000   0.443   7.441
 3020SOL     OW13958   3.604   4.619   7.915
 3020SOL    HW113959   3.524   4.625   7.976
 3020SOL    HW213960   3.674   4.563   7.958
 3021SOL     OW13961   0.779   2.353   1.128
 3021SOL    HW113962   0.764   2.258   1.102
 3021SOL    HW213963   0.695   2.405   1.116
 3022SOL     OW13964   1.057   4.947   0.685
 3022SOL    HW113965   0.993   4.931   0.610
 3022SOL    HW213966   1.063   5.045   0.704
 3023SOL     OW13967   5.038   0.211   6.885
 3023SOL    HW113968   5.018   0.308   6.871
 3023SOL    HW213969   5.014   0.159   6.803
 3024SOL     OW13970   1.537   0.551   7.116
 3024SOL    HW113971   1.573   0.550   7.209
 3024SOL    HW213972   1.587   0.618   7.062
 3025SOL     OW13973   0.094   2.934   6.397
 3025SOL    HW113974   0.184   2.891   6.400
 3025SOL    HW213975   0.039   2.890   6.326
 3026SOL     OW13976   5.095   3.389   6.911
 3026SOL    HW113977   5.017   3.340   6.870
 3026SOL    HW213978   5.115   3.349   7.000
 3027SOL     OW13979   2.473   3.525   1.216
 3027SOL    HW113980   2.497   3.499   1.122
 3027SOL    HW213981   2.529   3.602   1.245
 3028SOL     OW13982   4.804   2.479   7.514
 3028SOL    HW113983   4.869   2.535   7.565
 3028SOL    HW213984   4.764   2.533   7.440
 3029SOL     OW13985   0.798   3.744   0.691
 3029SOL    HW113986   0.795   3.784   0.599
 3029SOL    HW213987   0.721   3.778   0.745
 3030SOL     OW13988   4.902   3.312   7.509
 3030SOL    HW113989   4.927   3.218   7.531
 3030SOL    HW213990   4.981   3.372   7.523
 3031SOL     OW13991   0.094   1.219   0.353
 3031SOL    HW113992   0.010   1.267   0.374
 3031SOL    HW213993   0.172   1.279   0.369
 3032SOL     OW13994   1.505   0.686   6.785
 3032SOL    HW113995   1.550   0.658   6.700
 3032SOL    HW213996   1.575   0.713   6.852
 3033SOL     OW13997   1.291   4.451   7.501
 3033SOL    HW113998   1.366   4.429   7.563
 3033SOL    HW213999   1.301   4.546   7.470
 3034SOL     OW14000   3.511   3.017   1.866
 3034SOL    HW114001   3.580   3.010   1.794
 3034SOL    HW214002   3.484   2.925   1.895
 3035SOL     OW14003   0.857   1.386   1.120
 3035SOL    HW114004   0.815   1.434   1.043
 3035SOL    HW214005   0.915   1.313   1.087
 3036SOL     OW14006   3.843   1.145   6.148
 3036SOL    HW114007   3.779   1.221   6.136
 3036SOL    HW214008   3.797   1.059   6.127
 3037SOL     OW14009   1.250   0.376   1.293
 3037SOL    HW114010   1.203   0.409   1.211
 3037SOL    HW214011   1.258   0.451   1.358
 3038SOL     OW14012   1.956   4.900   0.038
 3038SOL    HW114013   1.977   4.926   0.132
 3038SOL    HW214014   2.037   4.913   8.125
 3039SOL     OW14015   3.991   4.052   2.055
 3039SOL    HW114016   3.917   4.080   2.116
 3039SOL    HW214017   4.052   3.989   2.104
 3040SOL     OW14018   3.966   0.161   0.749
 3040SOL    HW114019   4.014   0.123   0.670
 3040SOL    HW214020   3.994   0.111   0.831
 3041SOL     OW14021   2.218   0.359   7.119
 3041SOL    HW114022   2.257   0.300   7.049
 3041SOL    HW214023   2.259   0.338   7.208
 3042SOL     OW14024   5.151   2.199   1.205
 3042SOL    HW114025   5.126   2.182   1.300
 3042SOL    HW214026   5.185   2.114   1.164
 3043SOL     OW14027   0.438   3.214   7.605
 3043SOL    HW114028   0.346   3.186   7.635
 3043SOL    HW214029   0.443   3.314   7.601
 3044SOL     OW14030   3.188   3.839   6.726
 3044SOL    HW114031   3.135   3.921   6.706
 3044SOL    HW214032   3.127   3.765   6.755
 3045SOL     OW14033   3.371   2.888   7.324
 3045SOL    HW114034   3.390   2.969   7.379
 3045SOL    HW214035   3.363   2.808   7.383
 3046SOL     OW14036   1.355   4.960   1.266
 3046SOL    HW114037   1.311   4.874   1.243
 3046SOL    HW214038   1.382   4.960   1.362
 3047SOL     OW14039   4.263   2.490   1.414
 3047SOL    HW114040   4.220   2.561   1.358
 3047SOL    HW214041   4.306   2.531   1.494
 3048SOL     OW14042   1.988   1.851   0.425
 3048SOL    HW114043   2.050   1.825   0.499
 3048SOL    HW214044   1.927   1.924   0.455
 3049SOL     OW14045   0.715   4.194   7.257
 3049SOL    HW114046   0.675   4.144   7.180
 3049SOL    HW214047   0.769   4.132   7.313
 3050SOL     OW14048   2.196   4.407   1.848
 3050SOL    HW114049   2.107   4.396   1.803
 3050SOL    HW214050   2.200   4.496   1.893
 3051SOL     OW14051   3.850   1.575   7.324
 3051SOL    HW114052   3.937   1.598   7.367
 3051SOL    HW214053   3.784   1.647   7.343
 3052SOL     OW14054   3.629   1.632   0.409
 3052SOL    HW114055   3.533   1.607   0.407
 3052SOL    HW214056   3.651   1.685   0.327
 3053SOL     OW14057   2.680   3.622   7.069
 3053SOL    HW114058   2.652   3.548   7.008
 3053SOL    HW214059   2.623   3.621   7.152
 3054SOL     OW14060   2.896   2.927   1.239
 3054SOL    HW114061   2.835   2.882   1.304
 3054SOL    HW214062   2.857   2.922   1.147
 3055SOL     OW14063   0.583   2.176   7.412
 3055SOL    HW114064   0.606   2.218   7.500
 3055SOL    HW214065   0.484   2.169   7.403
 3056SOL     OW14066   4.673   1.594   1.718
 3056SOL    HW114067   4.724   1.667   1.672
 3056SOL    HW214068   4.728   1.559   1.794
 3057SOL     OW14069   0.602   0.434   7.441
 3057SOL    HW114070   0.668   0.424   7.515
 3057SOL    HW214071   0.568   0.528   7.439
 3058SOL     OW14072   1.574   3.213   0.535
 3058SOL    HW114073   1.478   3.241   0.543
 3058SOL    HW214074   1.608   3.183   0.624
 3059SOL     OW14075   5.132   3.262   7.148
 3059SOL    HW114076   5.038   3.261   7.181
 3059SOL    HW214077   5.182   3.185   7.187
 3060SOL     OW14078   4.887   3.640   0.946
 3060SOL    HW114079   4.850   3.610   1.034
 3060SOL    HW214080   4.871   3.738   0.935
 3061SOL     OW14081   4.441   1.260   7.891
 3061SOL    HW114082   4.386   1.331   7.846
 3061SOL    HW214083   4.399   1.235   7.978
 3062SOL     OW14084   2.218   0.561   6.932
 3062SOL    HW114085   2.281   0.636   6.954
 3062SOL    HW214086   2.216   0.495   7.007
 3063SOL     OW14087   3.022   4.060   6.938
 3063SOL    HW114088   3.006   4.060   6.839
 3063SOL    HW214089   3.120   4.053   6.956
 3064SOL     OW14090   2.783   4.442   1.302
 3064SOL    HW114091   2.698   4.436   1.249
 3064SOL    HW214092   2.810   4.350   1.331
 3065SOL     OW14093   3.273   0.201   6.906
 3065SOL    HW114094   3.179   0.180   6.934
 3065SOL    HW214095   3.324   0.116   6.896
 3066SOL     OW14096   4.647   3.013   1.394
 3066SOL    HW114097   4.669   3.069   1.474
 3066SOL    HW214098   4.551   3.027   1.370
 3067SOL     OW14099   4.551   1.446   0.043
 3067SOL    HW114100   4.588   1.368   8.137
 3067SOL    HW214101   4.451   1.443   0.041
 3068SOL     OW14102   4.872   2.136   6.625
 3068SOL    HW114103   4.782   2.158   6.663
 3068SOL    HW214104   4.940   2.137   6.699
 3069SOL     OW14105   3.838   1.843   1.511
 3069SOL    HW114106   3.869   1.899   1.588
 3069SOL    HW214107   3.766   1.781   1.542
 3070SOL     OW14108   0.714   2.585   0.512
 3070SOL    HW114109   0.766   2.657   0.557
 3070SOL    HW214110   0.623   2.619   0.488
 3071SOL     OW14111   4.499   0.426   0.818
 3071SOL    HW114112   4.485   0.476   0.903
 3071SOL    HW214113   4.597   0.413   0.803
 3072SOL     OW14114   5.182   2.728   1.215
 3072SOL    HW114115   5.206   2.633   1.193
 3072SOL    HW214116   5.107   2.729   1.281
 3073SOL     OW14117   2.486   4.320   1.385
 3073SOL    HW114118   2.390   4.292   1.392
 3073SOL    HW214119   2.499   4.376   1.303
 3074SOL     OW14120   3.300   4.456   1.234
 3074SOL    HW114121   3.371   4.397   1.274
 3074SOL    HW214122   3.258   4.410   1.156
 3075SOL     OW14123   1.299   0.020   7.703
 3075SOL    HW114124   1.247   0.078   7.639
 3075SOL    HW214125   1.277   5.005   7.686
 3076SOL     OW14126   5.226   1.239   7.766
 3076SOL    HW114127   5.152   1.172   7.777
 3076SOL    HW214128   0.026   1.195   7.722
 3077SOL     OW14129   4.129   3.187   7.599
 3077SOL    HW114130   4.161   3.143   7.515
 3077SOL    HW214131   4.062   3.258   7.576
 3078SOL     OW14132   4.441   4.793   0.561
 3078SOL    HW114133   4.485   4.871   0.604
 3078SOL    HW214134   4.504   4.715   0.560
 3079SOL     OW14135   3.814   4.861   1.266
 3079SOL    HW114136   3.848   4.953   1.287
 3079SOL    HW214137   3.863   4.794   1.322
 3080SOL     OW14138   1.237   1.538   8.039
 3080SOL    HW114139   1.326   1.560   8.079
 3080SOL    HW214140   1.164   1.578   8.096
 3081SOL     OW14141   0.706   4.398   0.785
 3081SOL    HW114142   0.776   4.423   0.852
 3081SOL    HW214143   0.684   4.478   0.729
 3082SOL     OW14144   3.922   1.855   0.641
 3082SOL    HW114145   3.911   1.950   0.611
 3082SOL    HW214146   3.832   1.813   0.649
 3083SOL     OW14147   1.095   0.101   1.752
 3083SOL    HW114148   1.017   0.147   1.794
 3083SOL    HW214149   1.135   0.036   1.816
 3084SOL     OW14150   4.508   4.531   1.403
 3084SOL    HW114151   4.574   4.601   1.429
 3084SOL    HW214152   4.434   4.528   1.469
 3085SOL     OW14153   0.113   4.050   6.704
 3085SOL    HW114154   0.147   4.049   6.610
 3085SOL    HW214155   0.178   4.003   6.764
 3086SOL     OW14156   2.502   0.715   1.042
 3086SOL    HW114157   2.475   0.621   1.060
 3086SOL    HW214158   2.462   0.746   0.955
 3087SOL     OW14159   3.578   2.704   5.792
 3087SOL    HW114160   3.647   2.634   5.775
 3087SOL    HW214161   3.620   2.794   5.790
 3088SOL     OW14162   1.616   4.518   6.463
 3088SOL    HW114163   1.591   4.457   6.388
 3088SOL    HW214164   1.597   4.613   6.436
 3089SOL     OW14165   3.375   4.772   7.619
 3089SOL    HW114166   3.324   4.839   7.565
 3089SOL    HW214167   3.314   4.730   7.686
 3090SOL     OW14168   4.312   3.939   7.472
 3090SOL    HW114169   4.251   3.957   7.549
 3090SOL    HW214170   4.406   3.961   7.498
 3091SOL     OW14171   5.135   5.028   7.277
 3091SOL    HW114172   5.094   0.027   7.232
 3091SOL    HW214173   5.168   4.964   7.208
 3092SOL     OW14174   4.489   3.615   0.854
 3092SOL    HW114175   4.544   3.547   0.804
 3092SOL    HW214176   4.482   3.698   0.799
 3093SOL     OW14177   1.528   0.570   0.269
 3093SOL    HW114178   1.572   0.654   0.237
 3093SOL    HW214179   1.499   0.515   0.190
 3094SOL     OW14180   4.042   4.583   8.002
 3094SOL    HW114181   4.085   4.579   7.912
 3094SOL    HW214182   4.034   4.679   8.030
 3095SOL     OW14183   0.723   1.028   7.159
 3095SOL    HW114184   0.697   1.089   7.234
 3095SOL    HW214185   0.822   1.036   7.143
 3096SOL     OW14186   4.523   4.022   0.510
 3096SOL    HW114187   4.442   4.073   0.537
 3096SOL    HW214188   4.527   4.016   0.410
 3097SOL     OW14189   3.662   1.775   7.394
 3097SOL    HW114190   3.606   1.824   7.460
 3097SOL    HW214191   3.603   1.730   7.326
 3098SOL     OW14192   4.300   1.415   7.168
 3098SOL    HW114193   4.392   1.426   7.205
 3098SOL    HW214194   4.262   1.505   7.147
 3099SOL     OW14195   3.648   3.761   2.382
 3099SOL    HW114196   3.742   3.792   2.365
 3099SOL    HW214197   3.642   3.663   2.366
 3100SOL     OW14198   4.988   0.388   0.048
 3100SOL    HW114199   5.044   0.430   0.119
 3100SOL    HW214200   4.894   0.423   0.055
 3101SOL     OW14201   0.476   4.146   6.804
 3101SOL    HW114202   0.439   4.233   6.771
 3101SOL    HW214203   0.565   4.129   6.762
 3102SOL     OW14204   0.148   2.143   6.896
 3102SOL    HW114205   0.172   2.164   6.801
 3102SOL    HW214206   0.087   2.064   6.898
 3103SOL     OW14207   1.244   4.757   0.597
 3103SOL    HW114208   1.177   4.825   0.629
 3103SOL    HW214209   1.285   4.711   0.676
 3104SOL     OW14210   4.431   0.207   6.653
 3104SOL    HW114211   4.516   0.198   6.704
 3104SOL    HW214212   4.447   0.183   6.557
 3105SOL     OW14213   3.219   0.894   1.664
 3105SOL    HW114214   3.174   0.967   1.612
 3105SOL    HW214215   3.278   0.934   1.734
 3106SOL     OW14216   2.230   0.926   7.081
 3106SOL    HW114217   2.144   0.970   7.055
 3106SOL    HW214218   2.262   0.963   7.168
 3107SOL     OW14219   5.251   1.907   7.177
 3107SOL    HW114220   5.264   1.809   7.184
 3107SOL    HW214221   0.054   1.954   7.211
 3108SOL     OW14222   2.425   5.038   8.095
 3108SOL    HW114223   2.470   4.961   8.050
 3108SOL    HW214224   2.412   5.016   0.047
 3109SOL     OW14225   3.166   3.304   0.040
 3109SOL    HW114226   3.110   3.313   0.122
 3109SOL    HW214227   3.112   3.327   8.104
 3110SOL     OW14228   3.902   0.038   1.298
 3110SOL    HW114229   3.843   0.099   1.351
 3110SOL    HW214230   3.966   0.092   1.244
 3111SOL     OW14231   4.440   4.946   7.560
 3111SOL    HW114232   4.497   4.949   7.643
 3111SOL    HW214233   4.370   5.017   7.566
 3112SOL     OW14234   0.349   1.859   0.160
 3112SOL    HW114235   0.318   1.783   0.217
 3112SOL    HW214236   0.391   1.822   0.077
 3113SOL     OW14237   2.265   2.674   2.162
 3113SOL    HW114238   2.253   2.575   2.157
 3113SOL    HW214239   2.187   2.714   2.210
 3114SOL     OW14240   2.339   2.625   0.433
 3114SOL    HW114241   2.325   2.709   0.381
 3114SOL    HW214242   2.407   2.568   0.386
 3115SOL     OW14243   1.310   3.617   7.463
 3115SOL    HW114244   1.220   3.654   7.440
 3115SOL    HW214245   1.311   3.518   7.445
 3116SOL     OW14246   1.474   3.052   1.135
 3116SOL    HW114247   1.400   3.096   1.186
 3116SOL    HW214248   1.438   2.975   1.082
 3117SOL     OW14249   2.579   1.425   8.113
 3117SOL    HW114250   2.574   1.326   8.099
 3117SOL    HW214251   2.650   1.463   8.054
 3118SOL     OW14252   5.044   3.461   0.822
 3118SOL    HW114253   4.980   3.524   0.866
 3118SOL    HW214254   5.048   3.376   0.874
 3119SOL     OW14255   3.724   5.068   1.033
 3119SOL    HW114256   3.776   0.072   1.039
 3119SOL    HW214257   3.753   5.005   1.105
 3120SOL     OW14258   2.001   2.642   0.737
 3120SOL    HW114259   2.095   2.613   0.717
 3120SOL    HW214260   1.963   2.583   0.809
 3121SOL     OW14261   0.382   2.477   8.027
 3121SOL    HW114262   0.425   2.394   8.061
 3121SOL    HW214263   0.301   2.498   8.081
 3122SOL     OW14264   5.135   3.485   7.943
 3122SOL    HW114265   5.042   3.501   7.908
 3122SOL    HW214266   5.135   3.492   8.043
 3123SOL     OW14267   1.980   2.297   6.560
 3123SOL    HW114268   1.985   2.221   6.626
 3123SOL    HW214269   2.060   2.294   6.500
 3124SOL     OW14270   2.724   4.137   0.905
 3124SOL    HW114271   2.671   4.053   0.913
 3124SOL    HW214272   2.792   4.127   0.831
 3125SOL     OW14273   4.860   4.920   8.028
 3125SOL    HW114274   4.884   4.996   7.968
 3125SOL    HW214275   4.930   4.909   8.098
 3126SOL     OW14276   2.499   3.684   0.245
 3126SOL    HW114277   2.587   3.724   0.218
 3126SOL    HW214278   2.427   3.717   0.184
 3127SOL     OW14279   5.185   3.711   0.806
 3127SOL    HW114280   5.142   3.778   0.744
 3127SOL    HW214281   5.130   3.628   0.807
 3128SOL     OW14282   0.376   2.934   1.156
 3128SOL    HW114283   0.286   2.909   1.193
 3128SOL    HW214284   0.375   3.031   1.131
 3129SOL     OW14285   3.781   2.018   0.121
 3129SOL    HW114286   3.848   2.060   0.182
 3129SOL    HW214287   3.744   2.088   0.060
 3130SOL     OW14288   0.929   2.992   6.858
 3130SOL    HW114289   0.857   2.923   6.867
 3130SOL    HW214290   0.893   3.081   6.884
 3131SOL     OW14291   4.735   0.007   7.499
 3131SOL    HW114292   4.772   0.069   7.430
 3131SOL    HW214293   4.696   5.007   7.454
 3132SOL     OW14294   2.612   1.866   6.586
 3132SOL    HW114295   2.634   1.780   6.540
 3132SOL    HW214296   2.521   1.858   6.629
 3133SOL     OW14297   4.901   0.478   6.413
 3133SOL    HW114298   4.902   0.577   6.421
 3133SOL    HW214299   4.874   0.452   6.321
 3134SOL     OW14300   3.646   0.836   0.852
 3134SOL    HW114301   3.672   0.857   0.758
 3134SOL    HW214302   3.573   0.897   0.881
 3135SOL     OW14303   3.634   4.103   7.059
 3135SOL    HW114304   3.598   4.187   7.101
 3135SOL    HW214305   3.579   4.025   7.088
 3136SOL     OW14306   0.123   2.905   7.701
 3136SOL    HW114307   0.142   3.000   7.674
 3136SOL    HW214308   0.165   2.887   7.790
 3137SOL     OW14309   4.968   2.672   7.652
 3137SOL    HW114310   5.027   2.752   7.668
 3137SOL    HW214311   4.872   2.698   7.667
 3138SOL     OW14312   0.803   3.480   0.617
 3138SOL    HW114313   0.769   3.469   0.523
 3138SOL    HW214314   0.793   3.575   0.645
 3139SOL     OW14315   2.231   0.139   0.668
 3139SOL    HW114316   2.221   0.164   0.764
 3139SOL    HW214317   2.149   0.167   0.617
 3140SOL     OW14318   1.257   3.362   7.064
 3140SOL    HW114319   1.194   3.396   7.134
 3140SOL    HW214320   1.263   3.262   7.070
 3141SOL     OW14321   1.821   1.261   0.234
 3141SOL    HW114322   1.729   1.300   0.227
 3141SOL    HW214323   1.885   1.317   0.181
 3142SOL     OW14324   4.483   0.111   6.401
 3142SOL    HW114325   4.415   0.129   6.329
 3142SOL    HW214326   4.573   0.141   6.370
 3143SOL     OW14327   4.993   3.666   6.908
 3143SOL    HW114328   5.064   3.727   6.943
 3143SOL    HW214329   5.027   3.572   6.910
 3144SOL     OW14330   1.561   3.869   7.697
 3144SOL    HW114331   1.640   3.926   7.718
 3144SOL    HW214332   1.537   3.879   7.600
 3145SOL     OW14333   1.868   2.933   7.436
 3145SOL    HW114334   1.900   2.974   7.350
 3145SOL    HW214335   1.880   2.998   7.511
 3146SOL     OW14336   0.677   0.969   7.741
 3146SOL    HW114337   0.762   0.916   7.739
 3146SOL    HW214338   0.616   0.931   7.811
 3147SOL     OW14339   4.887   2.305   7.313
 3147SOL    HW114340   4.862   2.358   7.394
 3147SOL    HW214341   4.975   2.261   7.328
 3148SOL     OW14342   3.866   0.567   6.749
 3148SOL    HW114343   3.843   0.579   6.652
 3148SOL    HW214344   3.905   0.652   6.785
 3149SOL     OW14345   3.152   0.371   7.581
 3149SOL    HW114346   3.241   0.339   7.548
 3149SOL    HW214347   3.110   0.429   7.512
 3150SOL     OW14348   4.457   3.643   1.974
 3150SOL    HW114349   4.509   3.725   1.949
 3150SOL    HW214350   4.519   3.565   1.980
 3151SOL     OW14351   1.694   5.079   0.921
 3151SOL    HW114352   1.657   5.021   0.994
 3151SOL    HW214353   1.768   5.029   0.874
 3152SOL     OW14354   3.335   2.485   6.210
 3152SOL    HW114355   3.247   2.443   6.190
 3152SOL    HW214356   3.386   2.498   6.125
 3153SOL     OW14357   2.017   3.504   7.911
 3153SOL    HW114358   2.089   3.565   7.879
 3153SOL    HW214359   2.058   3.421   7.950
 3154SOL     OW14360   2.919   3.201   0.583
 3154SOL    HW114361   2.922   3.294   0.620
 3154SOL    HW214362   2.901   3.136   0.656
 3155SOL     OW14363   2.121   4.608   6.808
 3155SOL    HW114364   2.212   4.627   6.845
 3155SOL    HW214365   2.071   4.694   6.796
 3156SOL     OW14366   1.666   1.375   8.076
 3156SOL    HW114367   1.762   1.397   8.092
 3156SOL    HW214368   1.615   1.460   8.062
 3157SOL     OW14369   0.219   2.742   7.086
 3157SOL    HW114370   0.124   2.751   7.057
 3157SOL    HW214371   0.270   2.688   7.018
 3158SOL     OW14372   3.421   3.415   0.067
 3158SOL    HW114373   3.330   3.376   0.050
 3158SOL    HW214374   3.413   3.494   0.128
 3159SOL     OW14375   0.771   2.224   1.457
 3159SOL    HW114376   0.725   2.156   1.400
 3159SOL    HW214377   0.869   2.226   1.435
 3160SOL     OW14378   4.297   2.501   7.857
 3160SOL    HW114379   4.223   2.522   7.921
 3160SOL    HW214380   4.265   2.517   7.763
 3161SOL     OW14381   0.069   4.361   0.248
 3161SOL    HW114382   0.046   4.296   0.177
 3161SOL    HW214383   0.040   4.325   0.337
 3162SOL     OW14384   2.881   0.669   1.669
 3162SOL    HW114385   2.854   0.601   1.600
 3162SOL    HW214386   2.953   0.631   1.727
 3163SOL     OW14387   4.370   1.938   7.525
 3163SOL    HW114388   4.372   2.038   7.520
 3163SOL    HW214389   4.314   1.901   7.451
 3164SOL     OW14390   4.611   0.620   6.745
 3164SOL    HW114391   4.623   0.544   6.680
 3164SOL    HW214392   4.575   0.585   6.831
 3165SOL     OW14393   2.755   2.096   6.552
 3165SOL    HW114394   2.701   2.013   6.560
 3165SOL    HW214395   2.762   2.122   6.455
 3166SOL     OW14396   0.027   3.210   6.819
 3166SOL    HW114397   0.021   3.182   6.723
 3166SOL    HW214398   5.247   3.290   6.834
 3167SOL     OW14399   0.547   0.090   0.336
 3167SOL    HW114400   0.450   0.095   0.311
 3167SOL    HW214401   0.565   0.155   0.410
 3168SOL     OW14402   3.104   4.438   5.985
 3168SOL    HW114403   3.127   4.459   5.890
 3168SOL    HW214404   3.187   4.412   6.035
 3169SOL     OW14405   2.939   3.511   7.357
 3169SOL    HW114406   2.914   3.608   7.350
 3169SOL    HW214407   2.965   3.478   7.266
 3170SOL     OW14408   2.119   5.045   1.832
 3170SOL    HW114409   2.031   5.029   1.787
 3170SOL    HW214410   2.126   4.988   1.914
 3171SOL     OW14411   1.187   3.082   0.774
 3171SOL    HW114412   1.098   3.096   0.731
 3171SOL    HW214413   1.200   2.984   0.791
 3172SOL     OW14414   4.403   0.938   8.034
 3172SOL    HW114415   4.421   0.943   7.935
 3172SOL    HW214416   4.475   0.884   8.078
 3173SOL     OW14417   4.614   2.371   0.423
 3173SOL    HW114418   4.546   2.441   0.404
 3173SOL    HW214419   4.636   2.322   0.339
 3174SOL     OW14420   2.089   3.585   1.366
 3174SOL    HW114421   2.122   3.564   1.458
 3174SOL    HW214422   2.004   3.636   1.372
 3175SOL     OW14423   4.272   3.155   6.972
 3175SOL    HW114424   4.293   3.228   7.036
 3175SOL    HW214425   4.268   3.068   7.020
 3176SOL     OW14426   1.774   2.671   1.400
 3176SOL    HW114427   1.737   2.744   1.342
 3176SOL    HW214428   1.698   2.621   1.441
 3177SOL     OW14429   3.655   2.322   5.898
 3177SOL    HW114430   3.650   2.233   5.853
 3177SOL    HW214431   3.710   2.385   5.842
 3178SOL     OW14432   2.641   4.412   8.030
 3178SOL    HW114433   2.541   4.414   8.034
 3178SOL    HW214434   2.670   4.349   7.958
 3179SOL     OW14435   0.055   4.058   7.111
 3179SOL    HW114436   0.057   4.131   7.042
 3179SOL    HW214437   0.149   4.036   7.138
 3180SOL     OW14438   4.691   0.022   6.656
 3180SOL    HW114439   4.604   5.059   6.681
 3180SOL    HW214440   4.709   0.006   6.558
 3181SOL     OW14441   1.863   4.889   7.020
 3181SOL    HW114442   1.893   4.981   7.044
 3181SOL    HW214443   1.772   4.873   7.058
 3182SOL     OW14444   3.148   4.342   7.565
 3182SOL    HW114445   3.244   4.344   7.593
 3182SOL    HW214446   3.120   4.248   7.548
 3183SOL     OW14447   0.737   2.788   6.908
 3183SOL    HW114448   0.724   2.761   7.004
 3183SOL    HW214449   0.728   2.707   6.850
 3184SOL     OW14450   2.248   4.775   7.484
 3184SOL    HW114451   2.319   4.796   7.416
 3184SOL    HW214452   2.235   4.853   7.545
 3185SOL     OW14453   4.305   0.830   0.407
 3185SOL    HW114454   4.248   0.883   0.344
 3185SOL    HW214455   4.315   0.879   0.493
 3186SOL     OW14456   1.862   0.144   7.294
 3186SOL    HW114457   1.763   0.131   7.297
 3186SOL    HW214458   1.897   0.112   7.206
 3187SOL     OW14459   3.611   3.835   1.502
 3187SOL    HW114460   3.614   3.808   1.406
 3187SOL    HW214461   3.678   3.781   1.554
 3188SOL     OW14462   1.879   2.831   1.084
 3188SOL    HW114463   1.948   2.764   1.110
 3188SOL    HW214464   1.903   2.871   0.995
 3189SOL     OW14465   1.758   1.030   1.171
 3189SOL    HW114466   1.808   1.082   1.239
 3189SOL    HW214467   1.822   0.996   1.102
 3190SOL     OW14468   4.035   0.059   0.015
 3190SOL    HW114469   4.038   0.156   8.137
 3190SOL    HW214470   4.122   0.016   8.134
 3191SOL     OW14471   2.402   4.262   1.758
 3191SOL    HW114472   2.467   4.329   1.722
 3191SOL    HW214473   2.320   4.308   1.790
 3192SOL     OW14474   1.285   0.841   0.343
 3192SOL    HW114475   1.317   0.764   0.397
 3192SOL    HW214476   1.331   0.842   0.254
 3193SOL     OW14477   3.194   4.330   6.949
 3193SOL    HW114478   3.217   4.237   6.979
 3193SOL    HW214479   3.151   4.380   7.024
 3194SOL     OW14480   4.682   4.334   1.213
 3194SOL    HW114481   4.672   4.430   1.186
 3194SOL    HW214482   4.593   4.298   1.242
 3195SOL     OW14483   1.243   0.592   1.463
 3195SOL    HW114484   1.250   0.607   1.562
 3195SOL    HW214485   1.285   0.669   1.415
 3196SOL     OW14486   0.667   2.960   0.221
 3196SOL    HW114487   0.654   2.937   0.317
 3196SOL    HW214488   0.721   3.044   0.214
 3197SOL     OW14489   0.614   4.311   7.885
 3197SOL    HW114490   0.682   4.344   7.950
 3197SOL    HW214491   0.542   4.380   7.875
 3198SOL     OW14492   1.496   2.589   7.650
 3198SOL    HW114493   1.458   2.625   7.565
 3198SOL    HW214494   1.592   2.567   7.638
 3199SOL     OW14495   1.310   3.998   0.003
 3199SOL    HW114496   1.252   3.930   0.047
 3199SOL    HW214497   1.340   3.964   8.059
 3200SOL     OW14498   3.512   0.330   6.902
 3200SOL    HW114499   3.526   0.335   6.803
 3200SOL    HW214500   3.425   0.284   6.921
 3201SOL     OW14501   2.455   0.144   0.283
 3201SOL    HW114502   2.434   0.048   0.265
 3201SOL    HW214503   2.399   0.201   0.222
 3202SOL     OW14504   2.270   2.437   1.881
 3202SOL    HW114505   2.237   2.440   1.975
 3202SOL    HW214506   2.349   2.375   1.875
 3203SOL     OW14507   4.163   3.331   0.021
 3203SOL    HW114508   4.158   3.413   8.109
 3203SOL    HW214509   4.093   3.266   8.136
 3204SOL     OW14510   5.024   1.915   1.306
 3204SOL    HW114511   4.930   1.922   1.273
 3204SOL    HW214512   5.038   1.980   1.381
 3205SOL     OW14513   3.024   0.325   8.015
 3205SOL    HW114514   2.998   0.375   7.933
 3205SOL    HW214515   3.098   0.373   8.063
 3206SOL     OW14516   1.825   0.814   0.723
 3206SOL    HW114517   1.757   0.741   0.731
 3206SOL    HW214518   1.778   0.903   0.724
 3207SOL     OW14519   4.558   0.803   0.293
 3207SOL    HW114520   4.468   0.806   0.337
 3207SOL    HW214521   4.608   0.723   0.326
 3208SOL     OW14522   3.683   2.217   7.300
 3208SOL    HW114523   3.629   2.203   7.217
 3208SOL    HW214524   3.747   2.292   7.287
 3209SOL     OW14525   2.879   4.012   7.774
 3209SOL    HW114526   2.875   3.959   7.859
 3209SOL    HW214527   2.828   3.965   7.703
 3210SOL     OW14528   3.033   3.370   7.130
 3210SOL    HW114529   2.972   3.295   7.104
 3210SOL    HW214530   3.088   3.397   7.051
 3211SOL     OW14531   3.070   2.049   0.785
 3211SOL    HW114532   2.972   2.044   0.767
 3211SOL    HW214533   3.113   2.108   0.717
 3212SOL     OW14534   4.746   1.213   0.846
 3212SOL    HW114535   4.821   1.197   0.782
 3212SOL    HW214536   4.687   1.285   0.811
 3213SOL     OW14537   3.010   3.027   0.192
 3213SOL    HW114538   2.973   3.120   0.188
 3213SOL    HW214539   3.072   3.012   0.115
 3214SOL     OW14540   4.625   4.556   0.907
 3214SOL    HW114541   4.539   4.596   0.874
 3214SOL    HW214542   4.637   4.578   1.003
 3215SOL     OW14543   3.835   2.329   6.733
 3215SOL    HW114544   3.872   2.270   6.804
 3215SOL    HW214545   3.882   2.310   6.646
 3216SOL     OW14546   1.139   4.060   6.618
 3216SOL    HW114547   1.199   4.005   6.559
 3216SOL    HW214548   1.184   4.146   6.641
 3217SOL     OW14549   4.256   2.450   0.796
 3217SOL    HW114550   4.342   2.416   0.835
 3217SOL    HW214551   4.208   2.504   0.865
 3218SOL     OW14552   0.216   3.392   1.985
 3218SOL    HW114553   0.286   3.321   1.990
 3218SOL    HW214554   0.258   3.482   2.001
 3219SOL     OW14555   2.004   3.996   7.030
 3219SOL    HW114556   2.038   4.049   6.952
 3219SOL    HW214557   2.081   3.974   7.090
 3220SOL     OW14558   0.056   3.295   7.887
 3220SOL    HW114559   0.051   3.232   7.965
 3220SOL    HW214560   5.259   3.360   7.891
 3221SOL     OW14561   4.529   2.572   6.941
 3221SOL    HW114562   4.558   2.659   6.903
 3221SOL    HW214563   4.600   2.503   6.925
 3222SOL     OW14564   0.342   1.970   6.601
 3222SOL    HW114565   0.394   1.886   6.589
 3222SOL    HW214566   0.245   1.949   6.608
 3223SOL     OW14567   3.408   1.209   2.045
 3223SOL    HW114568   3.375   1.212   2.140
 3223SOL    HW214569   3.507   1.222   2.044
 3224SOL     OW14570   4.473   1.590   1.208
 3224SOL    HW114571   4.439   1.498   1.188
 3224SOL    HW214572   4.474   1.645   1.125
 3225SOL     OW14573   4.771   0.378   0.782
 3225SOL    HW114574   4.841   0.417   0.842
 3225SOL    HW214575   4.798   0.390   0.687
 3226SOL     OW14576   0.859   2.628   6.587
 3226SOL    HW114577   0.794   2.593   6.655
 3226SOL    HW214578   0.811   2.688   6.523
 3227SOL     OW14579   3.348   4.260   2.605
 3227SOL    HW114580   3.250   4.272   2.591
 3227SOL    HW214581   3.398   4.327   2.552
 3228SOL     OW14582   1.030   0.069   1.070
 3228SOL    HW114583   0.975   0.152   1.081
 3228SOL    HW214584   1.058   0.036   1.160
 3229SOL     OW14585   1.410   3.860   6.847
 3229SOL    HW114586   1.464   3.942   6.828
 3229SOL    HW214587   1.455   3.808   6.920
 3230SOL     OW14588   1.223   0.879   1.080
 3230SOL    HW114589   1.251   0.971   1.053
 3230SOL    HW214590   1.273   0.852   1.163
 3231SOL     OW14591   1.738   1.426   0.870
 3231SOL    HW114592   1.739   1.524   0.851
 3231SOL    HW214593   1.831   1.396   0.893
 3232SOL     OW14594   1.473   3.610   7.689
 3232SOL    HW114595   1.408   3.606   7.613
 3232SOL    HW214596   1.510   3.702   7.696
 3233SOL     OW14597   2.391   4.748   6.361
 3233SOL    HW114598   2.407   4.688   6.282
 3233SOL    HW214599   2.470   4.743   6.422
 3234SOL     OW14600   2.459   1.317   7.091
 3234SOL    HW114601   2.456   1.381   7.168
 3234SOL    HW214602   2.505   1.233   7.118
 3235SOL     OW14603   2.787   2.094   1.158
 3235SOL    HW114604   2.786   2.015   1.097
 3235SOL    HW214605   2.873   2.095   1.209
 3236SOL     OW14606   2.509   1.406   6.830
 3236SOL    HW114607   2.569   1.485   6.825
 3236SOL    HW214608   2.493   1.383   6.926
 3237SOL     OW14609   5.262   2.451   1.170
 3237SOL    HW114610   0.006   2.475   1.076
 3237SOL    HW214611   5.213   2.364   1.171
 3238SOL     OW14612   4.832   5.025   0.436
 3238SOL    HW114613   4.907   4.964   0.408
 3238SOL    HW214614   4.856   0.039   0.416
 3239SOL     OW14615   2.489   2.996   7.757
 3239SOL    HW114616   2.390   3.007   7.772
 3239SOL    HW214617   2.504   2.957   7.666
 3240SOL     OW14618   1.504   4.372   7.659
 3240SOL    HW114619   1.472   4.289   7.704
 3240SOL    HW214620   1.524   4.442   7.728
 3241SOL     OW14621   3.415   4.601   6.694
 3241SOL    HW114622   3.506   4.563   6.705
 3241SOL    HW214623   3.400   4.625   6.598
 3242SOL     OW14624   0.031   1.373   7.999
 3242SOL    HW114625   5.242   1.333   8.061
 3242SOL    HW214626   0.017   1.337   7.907
 3243SOL     OW14627   4.064   2.888   0.327
 3243SOL    HW114628   4.152   2.934   0.340
 3243SOL    HW214629   4.073   2.791   0.347
 3244SOL     OW14630   3.878   1.248   6.946
 3244SOL    HW114631   3.889   1.338   6.989
 3244SOL    HW214632   3.933   1.181   6.995
 3245SOL     OW14633   0.360   0.966   0.667
 3245SOL    HW114634   0.414   0.930   0.743
 3245SOL    HW214635   0.331   1.059   0.688
 3246SOL     OW14636   3.043   2.494   6.401
 3246SOL    HW114637   3.076   2.587   6.381
 3246SOL    HW214638   3.062   2.435   6.323
 3247SOL     OW14639   3.725   4.502   1.439
 3247SOL    HW114640   3.682   4.419   1.476
 3247SOL    HW214641   3.662   4.579   1.447
 3248SOL     OW14642   2.416   3.217   6.530
 3248SOL    HW114643   2.423   3.118   6.516
 3248SOL    HW214644   2.432   3.264   6.443
 3249SOL     OW14645   2.972   2.975   7.253
 3249SOL    HW114646   3.049   2.941   7.200
 3249SOL    HW214647   3.004   3.005   7.343
 3250SOL     OW14648   2.215   0.183   0.944
 3250SOL    HW114649   2.154   0.143   1.012
 3250SOL    HW214650   2.305   0.139   0.950
 3251SOL     OW14651   0.361   1.587   0.987
 3251SOL    HW114652   0.268   1.553   0.993
 3251SOL    HW214653   0.425   1.512   1.003
 3252SOL     OW14654   1.193   0.912   7.176
 3252SOL    HW114655   1.257   0.963   7.118
 3252SOL    HW214656   1.108   0.964   7.185
 3253SOL     OW14657   5.238   4.704   0.709
 3253SOL    HW114658   0.015   4.779   0.674
 3253SOL    HW214659   5.159   4.741   0.758
 3254SOL     OW14660   3.843   3.488   0.069
 3254SOL    HW114661   3.835   3.404   0.123
 3254SOL    HW214662   3.863   3.465   8.118
 3255SOL     OW14663   3.017   0.181   6.622
 3255SOL    HW114664   3.015   0.237   6.704
 3255SOL    HW214665   2.966   0.226   6.549
 3256SOL     OW14666   2.162   1.020   1.174
 3256SOL    HW114667   2.128   1.060   1.089
 3256SOL    HW214668   2.170   0.921   1.164
 3257SOL     OW14669   1.695   0.739   6.979
 3257SOL    HW114670   1.781   0.688   6.971
 3257SOL    HW214671   1.715   0.837   6.986
 3258SOL     OW14672   2.555   2.999   6.025
 3258SOL    HW114673   2.544   3.076   5.962
 3258SOL    HW214674   2.544   2.913   5.976
 3259SOL     OW14675   0.674   2.706   0.938
 3259SOL    HW114676   0.766   2.676   0.913
 3259SOL    HW214677   0.626   2.738   0.857
 3260SOL     OW14678   1.746   2.965   6.436
 3260SOL    HW114679   1.747   2.984   6.338
 3260SOL    HW214680   1.663   2.916   6.460
 3261SOL     OW14681   2.023   2.769   1.491
 3261SOL    HW114682   1.933   2.739   1.458
 3261SOL    HW214683   2.019   2.866   1.515
 3262SOL     OW14684   0.399   1.815   1.145
 3262SOL    HW114685   0.454   1.798   1.227
 3262SOL    HW214686   0.388   1.729   1.095
   5.27864   5.08054   8.14468
