;
;	File 'topology.top' was generated
;	By user: root (131270)
;	On host: csky004
;	At date: Thu Sep  3 09:08:23 2026
;
;	This is a standalone topology file
;
;	Created by:
;	              :-) GROMACS - gmx pdb2gmx, 2021.4-plumed-2.8.0 (-:
;	
;	Executable:   /home/apps/centos7/gromacs/2021.4/gcc9.1_ompi4.1.2/bin/gmx_mpi
;	Data prefix:  /home/apps/centos7/gromacs/2021.4/gcc9.1_ompi4.1.2
;	Working dir:  /scratch/civil/visitor/satya.visitor/dev_gromacs/98_2NO8_peptide
;	Command line:
;	  gmx_mpi pdb2gmx -f 2N08_clean.pdb -o 2N08.gro -p topology.top -ignh
;	Force field was read from the standard GROMACS share directory.
;

; Include forcefield parameters
#include "amber99sb-ildn.ff/forcefield.itp"

[ moleculetype ]
; Name            nrexcl
Protein_chain_A     3

[ atoms ]
;   nr       type  resnr residue  atom   cgnr     charge       mass  typeB    chargeB      massB
; residue   1 HIS rtp NHIE q +1.0
     1         N3      1    HIS      N      1     0.1472      14.01
     2          H      1    HIS     H1      2     0.2016      1.008
     3          H      1    HIS     H2      3     0.2016      1.008
     4          H      1    HIS     H3      4     0.2016      1.008
     5         CT      1    HIS     CA      5     0.0236      12.01
     6         HP      1    HIS     HA      6      0.138      1.008
     7         CT      1    HIS     CB      7     0.0489      12.01
     8         HC      1    HIS    HB1      8     0.0223      1.008
     9         HC      1    HIS    HB2      9     0.0223      1.008
    10         CC      1    HIS     CG     10      0.174      12.01
    11         NB      1    HIS    ND1     11    -0.5579      14.01
    12         CR      1    HIS    CE1     12     0.1804      12.01
    13         H5      1    HIS    HE1     13     0.1397      1.008
    14         NA      1    HIS    NE2     14    -0.2781      14.01
    15          H      1    HIS    HE2     15     0.3324      1.008
    16         CW      1    HIS    CD2     16    -0.2349      12.01
    17         H4      1    HIS    HD2     17     0.1963      1.008
    18          C      1    HIS      C     18     0.6123      12.01
    19          O      1    HIS      O     19    -0.5713         16   ; qtot 1
; residue   2 ALA rtp ALA  q  0.0
    20          N      2    ALA      N     20    -0.4157      14.01
    21          H      2    ALA      H     21     0.2719      1.008
    22         CT      2    ALA     CA     22     0.0337      12.01
    23         H1      2    ALA     HA     23     0.0823      1.008
    24         CT      2    ALA     CB     24    -0.1825      12.01
    25         HC      2    ALA    HB1     25     0.0603      1.008
    26         HC      2    ALA    HB2     26     0.0603      1.008
    27         HC      2    ALA    HB3     27     0.0603      1.008
    28          C      2    ALA      C     28     0.5973      12.01
    29          O      2    ALA      O     29    -0.5679         16   ; qtot 1
; residue   3 GLU rtp GLU  q -1.0
    30          N      3    GLU      N     30    -0.5163      14.01
    31          H      3    GLU      H     31     0.2936      1.008
    32         CT      3    GLU     CA     32     0.0397      12.01
    33         H1      3    GLU     HA     33     0.1105      1.008
    34         CT      3    GLU     CB     34      0.056      12.01
    35         HC      3    GLU    HB1     35    -0.0173      1.008
    36         HC      3    GLU    HB2     36    -0.0173      1.008
    37         CT      3    GLU     CG     37     0.0136      12.01
    38         HC      3    GLU    HG1     38    -0.0425      1.008
    39         HC      3    GLU    HG2     39    -0.0425      1.008
    40          C      3    GLU     CD     40     0.8054      12.01
    41         O2      3    GLU    OE1     41    -0.8188         16
    42         O2      3    GLU    OE2     42    -0.8188         16
    43          C      3    GLU      C     43     0.5366      12.01
    44          O      3    GLU      O     44    -0.5819         16   ; qtot 0
; residue   4 GLY rtp GLY  q  0.0
    45          N      4    GLY      N     45    -0.4157      14.01
    46          H      4    GLY      H     46     0.2719      1.008
    47         CT      4    GLY     CA     47    -0.0252      12.01
    48         H1      4    GLY    HA1     48     0.0698      1.008
    49         H1      4    GLY    HA2     49     0.0698      1.008
    50          C      4    GLY      C     50     0.5973      12.01
    51          O      4    GLY      O     51    -0.5679         16   ; qtot 0
; residue   5 THR rtp THR  q  0.0
    52          N      5    THR      N     52    -0.4157      14.01
    53          H      5    THR      H     53     0.2719      1.008
    54         CT      5    THR     CA     54    -0.0389      12.01
    55         H1      5    THR     HA     55     0.1007      1.008
    56         CT      5    THR     CB     56     0.3654      12.01
    57         H1      5    THR     HB     57     0.0043      1.008
    58         CT      5    THR    CG2     58    -0.2438      12.01
    59         HC      5    THR   HG21     59     0.0642      1.008
    60         HC      5    THR   HG22     60     0.0642      1.008
    61         HC      5    THR   HG23     61     0.0642      1.008
    62         OH      5    THR    OG1     62    -0.6761         16
    63         HO      5    THR    HG1     63     0.4102      1.008
    64          C      5    THR      C     64     0.5973      12.01
    65          O      5    THR      O     65    -0.5679         16   ; qtot 0
; residue   6 PHE rtp PHE  q  0.0
    66          N      6    PHE      N     66    -0.4157      14.01
    67          H      6    PHE      H     67     0.2719      1.008
    68         CT      6    PHE     CA     68    -0.0024      12.01
    69         H1      6    PHE     HA     69     0.0978      1.008
    70         CT      6    PHE     CB     70    -0.0343      12.01
    71         HC      6    PHE    HB1     71     0.0295      1.008
    72         HC      6    PHE    HB2     72     0.0295      1.008
    73         CA      6    PHE     CG     73     0.0118      12.01
    74         CA      6    PHE    CD1     74    -0.1256      12.01
    75         HA      6    PHE    HD1     75      0.133      1.008
    76         CA      6    PHE    CE1     76    -0.1704      12.01
    77         HA      6    PHE    HE1     77      0.143      1.008
    78         CA      6    PHE     CZ     78    -0.1072      12.01
    79         HA      6    PHE     HZ     79     0.1297      1.008
    80         CA      6    PHE    CE2     80    -0.1704      12.01
    81         HA      6    PHE    HE2     81      0.143      1.008
    82         CA      6    PHE    CD2     82    -0.1256      12.01
    83         HA      6    PHE    HD2     83      0.133      1.008
    84          C      6    PHE      C     84     0.5973      12.01
    85          O      6    PHE      O     85    -0.5679         16   ; qtot 0
; residue   7 THR rtp THR  q  0.0
    86          N      7    THR      N     86    -0.4157      14.01
    87          H      7    THR      H     87     0.2719      1.008
    88         CT      7    THR     CA     88    -0.0389      12.01
    89         H1      7    THR     HA     89     0.1007      1.008
    90         CT      7    THR     CB     90     0.3654      12.01
    91         H1      7    THR     HB     91     0.0043      1.008
    92         CT      7    THR    CG2     92    -0.2438      12.01
    93         HC      7    THR   HG21     93     0.0642      1.008
    94         HC      7    THR   HG22     94     0.0642      1.008
    95         HC      7    THR   HG23     95     0.0642      1.008
    96         OH      7    THR    OG1     96    -0.6761         16
    97         HO      7    THR    HG1     97     0.4102      1.008
    98          C      7    THR      C     98     0.5973      12.01
    99          O      7    THR      O     99    -0.5679         16   ; qtot 0
; residue   8 SER rtp SER  q  0.0
   100          N      8    SER      N    100    -0.4157      14.01
   101          H      8    SER      H    101     0.2719      1.008
   102         CT      8    SER     CA    102    -0.0249      12.01
   103         H1      8    SER     HA    103     0.0843      1.008
   104         CT      8    SER     CB    104     0.2117      12.01
   105         H1      8    SER    HB1    105     0.0352      1.008
   106         H1      8    SER    HB2    106     0.0352      1.008
   107         OH      8    SER     OG    107    -0.6546         16
   108         HO      8    SER     HG    108     0.4275      1.008
   109          C      8    SER      C    109     0.5973      12.01
   110          O      8    SER      O    110    -0.5679         16   ; qtot 0
; residue   9 ASP rtp ASP  q -1.0
   111          N      9    ASP      N    111    -0.5163      14.01
   112          H      9    ASP      H    112     0.2936      1.008
   113         CT      9    ASP     CA    113     0.0381      12.01
   114         H1      9    ASP     HA    114      0.088      1.008
   115         CT      9    ASP     CB    115    -0.0303      12.01
   116         HC      9    ASP    HB1    116    -0.0122      1.008
   117         HC      9    ASP    HB2    117    -0.0122      1.008
   118          C      9    ASP     CG    118     0.7994      12.01
   119         O2      9    ASP    OD1    119    -0.8014         16
   120         O2      9    ASP    OD2    120    -0.8014         16
   121          C      9    ASP      C    121     0.5366      12.01
   122          O      9    ASP      O    122    -0.5819         16   ; qtot -1
; residue  10 PHE rtp PHE  q  0.0
   123          N     10    PHE      N    123    -0.4157      14.01
   124          H     10    PHE      H    124     0.2719      1.008
   125         CT     10    PHE     CA    125    -0.0024      12.01
   126         H1     10    PHE     HA    126     0.0978      1.008
   127         CT     10    PHE     CB    127    -0.0343      12.01
   128         HC     10    PHE    HB1    128     0.0295      1.008
   129         HC     10    PHE    HB2    129     0.0295      1.008
   130         CA     10    PHE     CG    130     0.0118      12.01
   131         CA     10    PHE    CD1    131    -0.1256      12.01
   132         HA     10    PHE    HD1    132      0.133      1.008
   133         CA     10    PHE    CE1    133    -0.1704      12.01
   134         HA     10    PHE    HE1    134      0.143      1.008
   135         CA     10    PHE     CZ    135    -0.1072      12.01
   136         HA     10    PHE     HZ    136     0.1297      1.008
   137         CA     10    PHE    CE2    137    -0.1704      12.01
   138         HA     10    PHE    HE2    138      0.143      1.008
   139         CA     10    PHE    CD2    139    -0.1256      12.01
   140         HA     10    PHE    HD2    140      0.133      1.008
   141          C     10    PHE      C    141     0.5973      12.01
   142          O     10    PHE      O    142    -0.5679         16   ; qtot -1
; residue  11 PHE rtp PHE  q  0.0
   143          N     11    PHE      N    143    -0.4157      14.01
   144          H     11    PHE      H    144     0.2719      1.008
   145         CT     11    PHE     CA    145    -0.0024      12.01
   146         H1     11    PHE     HA    146     0.0978      1.008
   147         CT     11    PHE     CB    147    -0.0343      12.01
   148         HC     11    PHE    HB1    148     0.0295      1.008
   149         HC     11    PHE    HB2    149     0.0295      1.008
   150         CA     11    PHE     CG    150     0.0118      12.01
   151         CA     11    PHE    CD1    151    -0.1256      12.01
   152         HA     11    PHE    HD1    152      0.133      1.008
   153         CA     11    PHE    CE1    153    -0.1704      12.01
   154         HA     11    PHE    HE1    154      0.143      1.008
   155         CA     11    PHE     CZ    155    -0.1072      12.01
   156         HA     11    PHE     HZ    156     0.1297      1.008
   157         CA     11    PHE    CE2    157    -0.1704      12.01
   158         HA     11    PHE    HE2    158      0.143      1.008
   159         CA     11    PHE    CD2    159    -0.1256      12.01
   160         HA     11    PHE    HD2    160      0.133      1.008
   161          C     11    PHE      C    161     0.5973      12.01
   162          O     11    PHE      O    162    -0.5679         16   ; qtot -1
; residue  12 NH2 rtp NH2  q  0.0
   163          N     12    NH2      N    163     -0.463      14.01
   164          H     12    NH2     H1    164     0.2315      1.008
   165          H     12    NH2     H2    165     0.2315      1.008   ; qtot -1

[ bonds ]
;  ai    aj funct            c0            c1            c2            c3
    1     2     1 
    1     3     1 
    1     4     1 
    1     5     1 
    5     6     1 
    5     7     1 
    5    18     1 
    7     8     1 
    7     9     1 
    7    10     1 
   10    11     1 
   10    16     1 
   11    12     1 
   12    13     1 
   12    14     1 
   14    15     1 
   14    16     1 
   16    17     1 
   18    19     1 
   18    20     1 
   20    21     1 
   20    22     1 
   22    23     1 
   22    24     1 
   22    28     1 
   24    25     1 
   24    26     1 
   24    27     1 
   28    29     1 
   28    30     1 
   30    31     1 
   30    32     1 
   32    33     1 
   32    34     1 
   32    43     1 
   34    35     1 
   34    36     1 
   34    37     1 
   37    38     1 
   37    39     1 
   37    40     1 
   40    41     1 
   40    42     1 
   43    44     1 
   43    45     1 
   45    46     1 
   45    47     1 
   47    48     1 
   47    49     1 
   47    50     1 
   50    51     1 
   50    52     1 
   52    53     1 
   52    54     1 
   54    55     1 
   54    56     1 
   54    64     1 
   56    57     1 
   56    58     1 
   56    62     1 
   58    59     1 
   58    60     1 
   58    61     1 
   62    63     1 
   64    65     1 
   64    66     1 
   66    67     1 
   66    68     1 
   68    69     1 
   68    70     1 
   68    84     1 
   70    71     1 
   70    72     1 
   70    73     1 
   73    74     1 
   73    82     1 
   74    75     1 
   74    76     1 
   76    77     1 
   76    78     1 
   78    79     1 
   78    80     1 
   80    81     1 
   80    82     1 
   82    83     1 
   84    85     1 
   84    86     1 
   86    87     1 
   86    88     1 
   88    89     1 
   88    90     1 
   88    98     1 
   90    91     1 
   90    92     1 
   90    96     1 
   92    93     1 
   92    94     1 
   92    95     1 
   96    97     1 
   98    99     1 
   98   100     1 
  100   101     1 
  100   102     1 
  102   103     1 
  102   104     1 
  102   109     1 
  104   105     1 
  104   106     1 
  104   107     1 
  107   108     1 
  109   110     1 
  109   111     1 
  111   112     1 
  111   113     1 
  113   114     1 
  113   115     1 
  113   121     1 
  115   116     1 
  115   117     1 
  115   118     1 
  118   119     1 
  118   120     1 
  121   122     1 
  121   123     1 
  123   124     1 
  123   125     1 
  125   126     1 
  125   127     1 
  125   141     1 
  127   128     1 
  127   129     1 
  127   130     1 
  130   131     1 
  130   139     1 
  131   132     1 
  131   133     1 
  133   134     1 
  133   135     1 
  135   136     1 
  135   137     1 
  137   138     1 
  137   139     1 
  139   140     1 
  141   142     1 
  141   143     1 
  143   144     1 
  143   145     1 
  145   146     1 
  145   147     1 
  145   161     1 
  147   148     1 
  147   149     1 
  147   150     1 
  150   151     1 
  150   159     1 
  151   152     1 
  151   153     1 
  153   154     1 
  153   155     1 
  155   156     1 
  155   157     1 
  157   158     1 
  157   159     1 
  159   160     1 
  161   162     1 
  161   163     1 
  163   164     1 
  163   165     1 

[ pairs ]
;  ai    aj funct            c0            c1            c2            c3
    1     8     1 
    1     9     1 
    1    10     1 
    1    19     1 
    1    20     1 
    2     6     1 
    2     7     1 
    2    18     1 
    3     6     1 
    3     7     1 
    3    18     1 
    4     6     1 
    4     7     1 
    4    18     1 
    5    11     1 
    5    16     1 
    5    21     1 
    5    22     1 
    6     8     1 
    6     9     1 
    6    10     1 
    6    19     1 
    6    20     1 
    7    12     1 
    7    14     1 
    7    17     1 
    7    19     1 
    7    20     1 
    8    11     1 
    8    16     1 
    8    18     1 
    9    11     1 
    9    16     1 
    9    18     1 
   10    13     1 
   10    15     1 
   10    18     1 
   11    15     1 
   11    17     1 
   12    17     1 
   13    15     1 
   13    16     1 
   15    17     1 
   18    23     1 
   18    24     1 
   18    28     1 
   19    21     1 
   19    22     1 
   20    25     1 
   20    26     1 
   20    27     1 
   20    29     1 
   20    30     1 
   21    23     1 
   21    24     1 
   21    28     1 
   22    31     1 
   22    32     1 
   23    25     1 
   23    26     1 
   23    27     1 
   23    29     1 
   23    30     1 
   24    29     1 
   24    30     1 
   25    28     1 
   26    28     1 
   27    28     1 
   28    33     1 
   28    34     1 
   28    43     1 
   29    31     1 
   29    32     1 
   30    35     1 
   30    36     1 
   30    37     1 
   30    44     1 
   30    45     1 
   31    33     1 
   31    34     1 
   31    43     1 
   32    38     1 
   32    39     1 
   32    40     1 
   32    46     1 
   32    47     1 
   33    35     1 
   33    36     1 
   33    37     1 
   33    44     1 
   33    45     1 
   34    41     1 
   34    42     1 
   34    44     1 
   34    45     1 
   35    38     1 
   35    39     1 
   35    40     1 
   35    43     1 
   36    38     1 
   36    39     1 
   36    40     1 
   36    43     1 
   37    43     1 
   38    41     1 
   38    42     1 
   39    41     1 
   39    42     1 
   43    48     1 
   43    49     1 
   43    50     1 
   44    46     1 
   44    47     1 
   45    51     1 
   45    52     1 
   46    48     1 
   46    49     1 
   46    50     1 
   47    53     1 
   47    54     1 
   48    51     1 
   48    52     1 
   49    51     1 
   49    52     1 
   50    55     1 
   50    56     1 
   50    64     1 
   51    53     1 
   51    54     1 
   52    57     1 
   52    58     1 
   52    62     1 
   52    65     1 
   52    66     1 
   53    55     1 
   53    56     1 
   53    64     1 
   54    59     1 
   54    60     1 
   54    61     1 
   54    63     1 
   54    67     1 
   54    68     1 
   55    57     1 
   55    58     1 
   55    62     1 
   55    65     1 
   55    66     1 
   56    65     1 
   56    66     1 
   57    59     1 
   57    60     1 
   57    61     1 
   57    63     1 
   57    64     1 
   58    63     1 
   58    64     1 
   59    62     1 
   60    62     1 
   61    62     1 
   62    64     1 
   64    69     1 
   64    70     1 
   64    84     1 
   65    67     1 
   65    68     1 
   66    71     1 
   66    72     1 
   66    73     1 
   66    85     1 
   66    86     1 
   67    69     1 
   67    70     1 
   67    84     1 
   68    74     1 
   68    82     1 
   68    87     1 
   68    88     1 
   69    71     1 
   69    72     1 
   69    73     1 
   69    85     1 
   69    86     1 
   70    75     1 
   70    76     1 
   70    80     1 
   70    83     1 
   70    85     1 
   70    86     1 
   71    74     1 
   71    82     1 
   71    84     1 
   72    74     1 
   72    82     1 
   72    84     1 
   73    77     1 
   73    78     1 
   73    81     1 
   73    84     1 
   74    79     1 
   74    80     1 
   74    83     1 
   75    77     1 
   75    78     1 
   75    82     1 
   76    81     1 
   76    82     1 
   77    79     1 
   77    80     1 
   78    83     1 
   79    81     1 
   79    82     1 
   81    83     1 
   84    89     1 
   84    90     1 
   84    98     1 
   85    87     1 
   85    88     1 
   86    91     1 
   86    92     1 
   86    96     1 
   86    99     1 
   86   100     1 
   87    89     1 
   87    90     1 
   87    98     1 
   88    93     1 
   88    94     1 
   88    95     1 
   88    97     1 
   88   101     1 
   88   102     1 
   89    91     1 
   89    92     1 
   89    96     1 
   89    99     1 
   89   100     1 
   90    99     1 
   90   100     1 
   91    93     1 
   91    94     1 
   91    95     1 
   91    97     1 
   91    98     1 
   92    97     1 
   92    98     1 
   93    96     1 
   94    96     1 
   95    96     1 
   96    98     1 
   98   103     1 
   98   104     1 
   98   109     1 
   99   101     1 
   99   102     1 
  100   105     1 
  100   106     1 
  100   107     1 
  100   110     1 
  100   111     1 
  101   103     1 
  101   104     1 
  101   109     1 
  102   108     1 
  102   112     1 
  102   113     1 
  103   105     1 
  103   106     1 
  103   107     1 
  103   110     1 
  103   111     1 
  104   110     1 
  104   111     1 
  105   108     1 
  105   109     1 
  106   108     1 
  106   109     1 
  107   109     1 
  109   114     1 
  109   115     1 
  109   121     1 
  110   112     1 
  110   113     1 
  111   116     1 
  111   117     1 
  111   118     1 
  111   122     1 
  111   123     1 
  112   114     1 
  112   115     1 
  112   121     1 
  113   119     1 
  113   120     1 
  113   124     1 
  113   125     1 
  114   116     1 
  114   117     1 
  114   118     1 
  114   122     1 
  114   123     1 
  115   122     1 
  115   123     1 
  116   119     1 
  116   120     1 
  116   121     1 
  117   119     1 
  117   120     1 
  117   121     1 
  118   121     1 
  121   126     1 
  121   127     1 
  121   141     1 
  122   124     1 
  122   125     1 
  123   128     1 
  123   129     1 
  123   130     1 
  123   142     1 
  123   143     1 
  124   126     1 
  124   127     1 
  124   141     1 
  125   131     1 
  125   139     1 
  125   144     1 
  125   145     1 
  126   128     1 
  126   129     1 
  126   130     1 
  126   142     1 
  126   143     1 
  127   132     1 
  127   133     1 
  127   137     1 
  127   140     1 
  127   142     1 
  127   143     1 
  128   131     1 
  128   139     1 
  128   141     1 
  129   131     1 
  129   139     1 
  129   141     1 
  130   134     1 
  130   135     1 
  130   138     1 
  130   141     1 
  131   136     1 
  131   137     1 
  131   140     1 
  132   134     1 
  132   135     1 
  132   139     1 
  133   138     1 
  133   139     1 
  134   136     1 
  134   137     1 
  135   140     1 
  136   138     1 
  136   139     1 
  138   140     1 
  141   146     1 
  141   147     1 
  141   161     1 
  142   144     1 
  142   145     1 
  143   148     1 
  143   149     1 
  143   150     1 
  143   162     1 
  143   163     1 
  144   146     1 
  144   147     1 
  144   161     1 
  145   151     1 
  145   159     1 
  145   164     1 
  145   165     1 
  146   148     1 
  146   149     1 
  146   150     1 
  146   162     1 
  146   163     1 
  147   152     1 
  147   153     1 
  147   157     1 
  147   160     1 
  147   162     1 
  147   163     1 
  148   151     1 
  148   159     1 
  148   161     1 
  149   151     1 
  149   159     1 
  149   161     1 
  150   154     1 
  150   155     1 
  150   158     1 
  150   161     1 
  151   156     1 
  151   157     1 
  151   160     1 
  152   154     1 
  152   155     1 
  152   159     1 
  153   158     1 
  153   159     1 
  154   156     1 
  154   157     1 
  155   160     1 
  156   158     1 
  156   159     1 
  158   160     1 
  162   164     1 
  162   165     1 

[ angles ]
;  ai    aj    ak funct            c0            c1            c2            c3
    2     1     3     1 
    2     1     4     1 
    2     1     5     1 
    3     1     4     1 
    3     1     5     1 
    4     1     5     1 
    1     5     6     1 
    1     5     7     1 
    1     5    18     1 
    6     5     7     1 
    6     5    18     1 
    7     5    18     1 
    5     7     8     1 
    5     7     9     1 
    5     7    10     1 
    8     7     9     1 
    8     7    10     1 
    9     7    10     1 
    7    10    11     1 
    7    10    16     1 
   11    10    16     1 
   10    11    12     1 
   11    12    13     1 
   11    12    14     1 
   13    12    14     1 
   12    14    15     1 
   12    14    16     1 
   15    14    16     1 
   10    16    14     1 
   10    16    17     1 
   14    16    17     1 
    5    18    19     1 
    5    18    20     1 
   19    18    20     1 
   18    20    21     1 
   18    20    22     1 
   21    20    22     1 
   20    22    23     1 
   20    22    24     1 
   20    22    28     1 
   23    22    24     1 
   23    22    28     1 
   24    22    28     1 
   22    24    25     1 
   22    24    26     1 
   22    24    27     1 
   25    24    26     1 
   25    24    27     1 
   26    24    27     1 
   22    28    29     1 
   22    28    30     1 
   29    28    30     1 
   28    30    31     1 
   28    30    32     1 
   31    30    32     1 
   30    32    33     1 
   30    32    34     1 
   30    32    43     1 
   33    32    34     1 
   33    32    43     1 
   34    32    43     1 
   32    34    35     1 
   32    34    36     1 
   32    34    37     1 
   35    34    36     1 
   35    34    37     1 
   36    34    37     1 
   34    37    38     1 
   34    37    39     1 
   34    37    40     1 
   38    37    39     1 
   38    37    40     1 
   39    37    40     1 
   37    40    41     1 
   37    40    42     1 
   41    40    42     1 
   32    43    44     1 
   32    43    45     1 
   44    43    45     1 
   43    45    46     1 
   43    45    47     1 
   46    45    47     1 
   45    47    48     1 
   45    47    49     1 
   45    47    50     1 
   48    47    49     1 
   48    47    50     1 
   49    47    50     1 
   47    50    51     1 
   47    50    52     1 
   51    50    52     1 
   50    52    53     1 
   50    52    54     1 
   53    52    54     1 
   52    54    55     1 
   52    54    56     1 
   52    54    64     1 
   55    54    56     1 
   55    54    64     1 
   56    54    64     1 
   54    56    57     1 
   54    56    58     1 
   54    56    62     1 
   57    56    58     1 
   57    56    62     1 
   58    56    62     1 
   56    58    59     1 
   56    58    60     1 
   56    58    61     1 
   59    58    60     1 
   59    58    61     1 
   60    58    61     1 
   56    62    63     1 
   54    64    65     1 
   54    64    66     1 
   65    64    66     1 
   64    66    67     1 
   64    66    68     1 
   67    66    68     1 
   66    68    69     1 
   66    68    70     1 
   66    68    84     1 
   69    68    70     1 
   69    68    84     1 
   70    68    84     1 
   68    70    71     1 
   68    70    72     1 
   68    70    73     1 
   71    70    72     1 
   71    70    73     1 
   72    70    73     1 
   70    73    74     1 
   70    73    82     1 
   74    73    82     1 
   73    74    75     1 
   73    74    76     1 
   75    74    76     1 
   74    76    77     1 
   74    76    78     1 
   77    76    78     1 
   76    78    79     1 
   76    78    80     1 
   79    78    80     1 
   78    80    81     1 
   78    80    82     1 
   81    80    82     1 
   73    82    80     1 
   73    82    83     1 
   80    82    83     1 
   68    84    85     1 
   68    84    86     1 
   85    84    86     1 
   84    86    87     1 
   84    86    88     1 
   87    86    88     1 
   86    88    89     1 
   86    88    90     1 
   86    88    98     1 
   89    88    90     1 
   89    88    98     1 
   90    88    98     1 
   88    90    91     1 
   88    90    92     1 
   88    90    96     1 
   91    90    92     1 
   91    90    96     1 
   92    90    96     1 
   90    92    93     1 
   90    92    94     1 
   90    92    95     1 
   93    92    94     1 
   93    92    95     1 
   94    92    95     1 
   90    96    97     1 
   88    98    99     1 
   88    98   100     1 
   99    98   100     1 
   98   100   101     1 
   98   100   102     1 
  101   100   102     1 
  100   102   103     1 
  100   102   104     1 
  100   102   109     1 
  103   102   104     1 
  103   102   109     1 
  104   102   109     1 
  102   104   105     1 
  102   104   106     1 
  102   104   107     1 
  105   104   106     1 
  105   104   107     1 
  106   104   107     1 
  104   107   108     1 
  102   109   110     1 
  102   109   111     1 
  110   109   111     1 
  109   111   112     1 
  109   111   113     1 
  112   111   113     1 
  111   113   114     1 
  111   113   115     1 
  111   113   121     1 
  114   113   115     1 
  114   113   121     1 
  115   113   121     1 
  113   115   116     1 
  113   115   117     1 
  113   115   118     1 
  116   115   117     1 
  116   115   118     1 
  117   115   118     1 
  115   118   119     1 
  115   118   120     1 
  119   118   120     1 
  113   121   122     1 
  113   121   123     1 
  122   121   123     1 
  121   123   124     1 
  121   123   125     1 
  124   123   125     1 
  123   125   126     1 
  123   125   127     1 
  123   125   141     1 
  126   125   127     1 
  126   125   141     1 
  127   125   141     1 
  125   127   128     1 
  125   127   129     1 
  125   127   130     1 
  128   127   129     1 
  128   127   130     1 
  129   127   130     1 
  127   130   131     1 
  127   130   139     1 
  131   130   139     1 
  130   131   132     1 
  130   131   133     1 
  132   131   133     1 
  131   133   134     1 
  131   133   135     1 
  134   133   135     1 
  133   135   136     1 
  133   135   137     1 
  136   135   137     1 
  135   137   138     1 
  135   137   139     1 
  138   137   139     1 
  130   139   137     1 
  130   139   140     1 
  137   139   140     1 
  125   141   142     1 
  125   141   143     1 
  142   141   143     1 
  141   143   144     1 
  141   143   145     1 
  144   143   145     1 
  143   145   146     1 
  143   145   147     1 
  143   145   161     1 
  146   145   147     1 
  146   145   161     1 
  147   145   161     1 
  145   147   148     1 
  145   147   149     1 
  145   147   150     1 
  148   147   149     1 
  148   147   150     1 
  149   147   150     1 
  147   150   151     1 
  147   150   159     1 
  151   150   159     1 
  150   151   152     1 
  150   151   153     1 
  152   151   153     1 
  151   153   154     1 
  151   153   155     1 
  154   153   155     1 
  153   155   156     1 
  153   155   157     1 
  156   155   157     1 
  155   157   158     1 
  155   157   159     1 
  158   157   159     1 
  150   159   157     1 
  150   159   160     1 
  157   159   160     1 
  145   161   162     1 
  145   161   163     1 
  162   161   163     1 
  161   163   164     1 
  161   163   165     1 
  164   163   165     1 

[ dihedrals ]
;  ai    aj    ak    al funct            c0            c1            c2            c3            c4            c5
    2     1     5     6     9 
    2     1     5     7     9 
    2     1     5    18     9 
    3     1     5     6     9 
    3     1     5     7     9 
    3     1     5    18     9 
    4     1     5     6     9 
    4     1     5     7     9 
    4     1     5    18     9 
    1     5     7     8     9 
    1     5     7     9     9 
    1     5     7    10     9 
    6     5     7     8     9 
    6     5     7     9     9 
    6     5     7    10     9 
   18     5     7     8     9 
   18     5     7     9     9 
   18     5     7    10     9 
    1     5    18    19     9 
    1     5    18    20     9 
    6     5    18    19     9 
    6     5    18    20     9 
    7     5    18    19     9 
    7     5    18    20     9 
    5     7    10    11     9 
    5     7    10    16     9 
    8     7    10    11     9 
    8     7    10    16     9 
    9     7    10    11     9 
    9     7    10    16     9 
    7    10    11    12     9 
   16    10    11    12     9 
    7    10    16    14     9 
    7    10    16    17     9 
   11    10    16    14     9 
   11    10    16    17     9 
   10    11    12    13     9 
   10    11    12    14     9 
   11    12    14    15     9 
   11    12    14    16     9 
   13    12    14    15     9 
   13    12    14    16     9 
   12    14    16    10     9 
   12    14    16    17     9 
   15    14    16    10     9 
   15    14    16    17     9 
    5    18    20    21     9 
    5    18    20    22     9 
   19    18    20    21     9 
   19    18    20    22     9 
   18    20    22    23     9 
   18    20    22    24     9 
   18    20    22    28     9 
   21    20    22    23     9 
   21    20    22    24     9 
   21    20    22    28     9 
   20    22    24    25     9 
   20    22    24    26     9 
   20    22    24    27     9 
   23    22    24    25     9 
   23    22    24    26     9 
   23    22    24    27     9 
   28    22    24    25     9 
   28    22    24    26     9 
   28    22    24    27     9 
   20    22    28    29     9 
   20    22    28    30     9 
   23    22    28    29     9 
   23    22    28    30     9 
   24    22    28    29     9 
   24    22    28    30     9 
   22    28    30    31     9 
   22    28    30    32     9 
   29    28    30    31     9 
   29    28    30    32     9 
   28    30    32    33     9 
   28    30    32    34     9 
   28    30    32    43     9 
   31    30    32    33     9 
   31    30    32    34     9 
   31    30    32    43     9 
   30    32    34    35     9 
   30    32    34    36     9 
   30    32    34    37     9 
   33    32    34    35     9 
   33    32    34    36     9 
   33    32    34    37     9 
   43    32    34    35     9 
   43    32    34    36     9 
   43    32    34    37     9 
   30    32    43    44     9 
   30    32    43    45     9 
   33    32    43    44     9 
   33    32    43    45     9 
   34    32    43    44     9 
   34    32    43    45     9 
   32    34    37    38     9 
   32    34    37    39     9 
   32    34    37    40     9 
   35    34    37    38     9 
   35    34    37    39     9 
   35    34    37    40     9 
   36    34    37    38     9 
   36    34    37    39     9 
   36    34    37    40     9 
   34    37    40    41     9 
   34    37    40    42     9 
   38    37    40    41     9 
   38    37    40    42     9 
   39    37    40    41     9 
   39    37    40    42     9 
   32    43    45    46     9 
   32    43    45    47     9 
   44    43    45    46     9 
   44    43    45    47     9 
   43    45    47    48     9 
   43    45    47    49     9 
   43    45    47    50     9 
   46    45    47    48     9 
   46    45    47    49     9 
   46    45    47    50     9 
   45    47    50    51     9 
   45    47    50    52     9 
   48    47    50    51     9 
   48    47    50    52     9 
   49    47    50    51     9 
   49    47    50    52     9 
   47    50    52    53     9 
   47    50    52    54     9 
   51    50    52    53     9 
   51    50    52    54     9 
   50    52    54    55     9 
   50    52    54    56     9 
   50    52    54    64     9 
   53    52    54    55     9 
   53    52    54    56     9 
   53    52    54    64     9 
   52    54    56    57     9 
   52    54    56    58     9 
   52    54    56    62     9 
   55    54    56    57     9 
   55    54    56    58     9 
   55    54    56    62     9 
   64    54    56    57     9 
   64    54    56    58     9 
   64    54    56    62     9 
   52    54    64    65     9 
   52    54    64    66     9 
   55    54    64    65     9 
   55    54    64    66     9 
   56    54    64    65     9 
   56    54    64    66     9 
   54    56    58    59     9 
   54    56    58    60     9 
   54    56    58    61     9 
   57    56    58    59     9 
   57    56    58    60     9 
   57    56    58    61     9 
   62    56    58    59     9 
   62    56    58    60     9 
   62    56    58    61     9 
   54    56    62    63     9 
   57    56    62    63     9 
   58    56    62    63     9 
   54    64    66    67     9 
   54    64    66    68     9 
   65    64    66    67     9 
   65    64    66    68     9 
   64    66    68    69     9 
   64    66    68    70     9 
   64    66    68    84     9 
   67    66    68    69     9 
   67    66    68    70     9 
   67    66    68    84     9 
   66    68    70    71     9 
   66    68    70    72     9 
   66    68    70    73     9 
   69    68    70    71     9 
   69    68    70    72     9 
   69    68    70    73     9 
   84    68    70    71     9 
   84    68    70    72     9 
   84    68    70    73     9 
   66    68    84    85     9 
   66    68    84    86     9 
   69    68    84    85     9 
   69    68    84    86     9 
   70    68    84    85     9 
   70    68    84    86     9 
   68    70    73    74     9 
   68    70    73    82     9 
   71    70    73    74     9 
   71    70    73    82     9 
   72    70    73    74     9 
   72    70    73    82     9 
   70    73    74    75     9 
   70    73    74    76     9 
   82    73    74    75     9 
   82    73    74    76     9 
   70    73    82    80     9 
   70    73    82    83     9 
   74    73    82    80     9 
   74    73    82    83     9 
   73    74    76    77     9 
   73    74    76    78     9 
   75    74    76    77     9 
   75    74    76    78     9 
   74    76    78    79     9 
   74    76    78    80     9 
   77    76    78    79     9 
   77    76    78    80     9 
   76    78    80    81     9 
   76    78    80    82     9 
   79    78    80    81     9 
   79    78    80    82     9 
   78    80    82    73     9 
   78    80    82    83     9 
   81    80    82    73     9 
   81    80    82    83     9 
   68    84    86    87     9 
   68    84    86    88     9 
   85    84    86    87     9 
   85    84    86    88     9 
   84    86    88    89     9 
   84    86    88    90     9 
   84    86    88    98     9 
   87    86    88    89     9 
   87    86    88    90     9 
   87    86    88    98     9 
   86    88    90    91     9 
   86    88    90    92     9 
   86    88    90    96     9 
   89    88    90    91     9 
   89    88    90    92     9 
   89    88    90    96     9 
   98    88    90    91     9 
   98    88    90    92     9 
   98    88    90    96     9 
   86    88    98    99     9 
   86    88    98   100     9 
   89    88    98    99     9 
   89    88    98   100     9 
   90    88    98    99     9 
   90    88    98   100     9 
   88    90    92    93     9 
   88    90    92    94     9 
   88    90    92    95     9 
   91    90    92    93     9 
   91    90    92    94     9 
   91    90    92    95     9 
   96    90    92    93     9 
   96    90    92    94     9 
   96    90    92    95     9 
   88    90    96    97     9 
   91    90    96    97     9 
   92    90    96    97     9 
   88    98   100   101     9 
   88    98   100   102     9 
   99    98   100   101     9 
   99    98   100   102     9 
   98   100   102   103     9 
   98   100   102   104     9 
   98   100   102   109     9 
  101   100   102   103     9 
  101   100   102   104     9 
  101   100   102   109     9 
  100   102   104   105     9 
  100   102   104   106     9 
  100   102   104   107     9 
  103   102   104   105     9 
  103   102   104   106     9 
  103   102   104   107     9 
  109   102   104   105     9 
  109   102   104   106     9 
  109   102   104   107     9 
  100   102   109   110     9 
  100   102   109   111     9 
  103   102   109   110     9 
  103   102   109   111     9 
  104   102   109   110     9 
  104   102   109   111     9 
  102   104   107   108     9 
  105   104   107   108     9 
  106   104   107   108     9 
  102   109   111   112     9 
  102   109   111   113     9 
  110   109   111   112     9 
  110   109   111   113     9 
  109   111   113   114     9 
  109   111   113   115     9 
  109   111   113   121     9 
  112   111   113   114     9 
  112   111   113   115     9 
  112   111   113   121     9 
  111   113   115   118     9    torsion_ASP_N_CA_CB_CG_mult1
  111   113   115   118     9    torsion_ASP_N_CA_CB_CG_mult2
  111   113   115   118     9    torsion_ASP_N_CA_CB_CG_mult3
  111   113   115   118     9    torsion_ASP_N_CA_CB_CG_mult4
  111   113   115   118     9    torsion_ASP_N_CA_CB_CG_mult5
  111   113   115   118     9    torsion_ASP_N_CA_CB_CG_mult6
  111   113   115   116     9 
  111   113   115   117     9 
  114   113   115   116     9 
  114   113   115   117     9 
  114   113   115   118     9 
  121   113   115   116     9 
  121   113   115   117     9 
  121   113   115   118     9 
  111   113   121   122     9 
  111   113   121   123     9 
  114   113   121   122     9 
  114   113   121   123     9 
  115   113   121   122     9 
  115   113   121   123     9 
  113   115   118   119     9    torsion_ASP_CA_CB_CG_OD_mult1
  113   115   118   119     9    torsion_ASP_CA_CB_CG_OD_mult2
  113   115   118   119     9    torsion_ASP_CA_CB_CG_OD_mult3
  113   115   118   119     9    torsion_ASP_CA_CB_CG_OD_mult4
  113   115   118   119     9    torsion_ASP_CA_CB_CG_OD_mult5
  113   115   118   119     9    torsion_ASP_CA_CB_CG_OD_mult6
  113   115   118   120     9    torsion_ASP_CA_CB_CG_OD_mult1
  113   115   118   120     9    torsion_ASP_CA_CB_CG_OD_mult2
  113   115   118   120     9    torsion_ASP_CA_CB_CG_OD_mult3
  113   115   118   120     9    torsion_ASP_CA_CB_CG_OD_mult4
  113   115   118   120     9    torsion_ASP_CA_CB_CG_OD_mult5
  113   115   118   120     9    torsion_ASP_CA_CB_CG_OD_mult6
  116   115   118   119     9 
  116   115   118   120     9 
  117   115   118   119     9 
  117   115   118   120     9 
  113   121   123   124     9 
  113   121   123   125     9 
  122   121   123   124     9 
  122   121   123   125     9 
  121   123   125   126     9 
  121   123   125   127     9 
  121   123   125   141     9 
  124   123   125   126     9 
  124   123   125   127     9 
  124   123   125   141     9 
  123   125   127   128     9 
  123   125   127   129     9 
  123   125   127   130     9 
  126   125   127   128     9 
  126   125   127   129     9 
  126   125   127   130     9 
  141   125   127   128     9 
  141   125   127   129     9 
  141   125   127   130     9 
  123   125   141   142     9 
  123   125   141   143     9 
  126   125   141   142     9 
  126   125   141   143     9 
  127   125   141   142     9 
  127   125   141   143     9 
  125   127   130   131     9 
  125   127   130   139     9 
  128   127   130   131     9 
  128   127   130   139     9 
  129   127   130   131     9 
  129   127   130   139     9 
  127   130   131   132     9 
  127   130   131   133     9 
  139   130   131   132     9 
  139   130   131   133     9 
  127   130   139   137     9 
  127   130   139   140     9 
  131   130   139   137     9 
  131   130   139   140     9 
  130   131   133   134     9 
  130   131   133   135     9 
  132   131   133   134     9 
  132   131   133   135     9 
  131   133   135   136     9 
  131   133   135   137     9 
  134   133   135   136     9 
  134   133   135   137     9 
  133   135   137   138     9 
  133   135   137   139     9 
  136   135   137   138     9 
  136   135   137   139     9 
  135   137   139   130     9 
  135   137   139   140     9 
  138   137   139   130     9 
  138   137   139   140     9 
  125   141   143   144     9 
  125   141   143   145     9 
  142   141   143   144     9 
  142   141   143   145     9 
  141   143   145   146     9 
  141   143   145   147     9 
  141   143   145   161     9 
  144   143   145   146     9 
  144   143   145   147     9 
  144   143   145   161     9 
  143   145   147   148     9 
  143   145   147   149     9 
  143   145   147   150     9 
  146   145   147   148     9 
  146   145   147   149     9 
  146   145   147   150     9 
  161   145   147   148     9 
  161   145   147   149     9 
  161   145   147   150     9 
  143   145   161   162     9 
  143   145   161   163     9 
  146   145   161   162     9 
  146   145   161   163     9 
  147   145   161   162     9 
  147   145   161   163     9 
  145   147   150   151     9 
  145   147   150   159     9 
  148   147   150   151     9 
  148   147   150   159     9 
  149   147   150   151     9 
  149   147   150   159     9 
  147   150   151   152     9 
  147   150   151   153     9 
  159   150   151   152     9 
  159   150   151   153     9 
  147   150   159   157     9 
  147   150   159   160     9 
  151   150   159   157     9 
  151   150   159   160     9 
  150   151   153   154     9 
  150   151   153   155     9 
  152   151   153   154     9 
  152   151   153   155     9 
  151   153   155   156     9 
  151   153   155   157     9 
  154   153   155   156     9 
  154   153   155   157     9 
  153   155   157   158     9 
  153   155   157   159     9 
  156   155   157   158     9 
  156   155   157   159     9 
  155   157   159   150     9 
  155   157   159   160     9 
  158   157   159   150     9 
  158   157   159   160     9 
  145   161   163   164     9 
  145   161   163   165     9 
  162   161   163   164     9 
  162   161   163   165     9 

[ dihedrals ]
;  ai    aj    ak    al funct            c0            c1            c2            c3
    5    20    18    19     4 
    7    10    16    11     4 
   10    14    16    17     4 
   11    14    12    13     4 
   12    16    14    15     4 
   18    22    20    21     4 
   22    30    28    29     4 
   28    32    30    31     4 
   32    45    43    44     4 
   37    41    40    42     4 
   43    47    45    46     4 
   47    52    50    51     4 
   50    54    52    53     4 
   54    66    64    65     4 
   64    68    66    67     4 
   68    86    84    85     4 
   70    73    82    74     4 
   73    76    74    75     4 
   73    80    82    83     4 
   74    78    76    77     4 
   76    80    78    79     4 
   78    82    80    81     4 
   84    88    86    87     4 
   88   100    98    99     4 
   98   102   100   101     4 
  102   111   109   110     4 
  109   113   111   112     4 
  113   123   121   122     4 
  115   119   118   120     4 
  121   125   123   124     4 
  125   143   141   142     4 
  127   130   139   131     4 
  130   133   131   132     4 
  130   137   139   140     4 
  131   135   133   134     4 
  133   137   135   136     4 
  135   139   137   138     4 
  141   145   143   144     4 
  145   163   161   162     4 
  147   150   159   151     4 
  150   153   151   152     4 
  150   157   159   160     4 
  151   155   153   154     4 
  153   157   155   156     4 
  155   159   157   158     4 
  161   164   163   165     4 

; Include Position restraint file
#ifdef POSRES
#include "posre.itp"
#endif

; Include water topology
#include "amber99sb-ildn.ff/tip3p.itp"

#ifdef POSRES_WATER
; Position restraint for each water oxygen
[ position_restraints ]
;  i funct       fcx        fcy        fcz
   1    1       1000       1000       1000
#endif

; Include topology for ions
#include "amber99sb-ildn.ff/ions.itp"

[ system ]
; Name
SHORT HYDROPHOBIC PEPTIDE WITH CYCLIC CONSTRAINTS in water

[ molecules ]
; Compound        #mols
Protein_chain_A     1
SOL         825
NA               1
