;
;	File 'topol.top' was generated
;	By user: unknown (93529)
;	On host: chas018
;	At date: Sat Feb 14 14:26:18 2026
;
;	This is a standalone topology file
;
;	Created by:
;	              :-) GROMACS - gmx pdb2gmx, 2021.4-plumed-2.8.0 (-:
;	
;	Executable:   /home/apps/centos7/gromacs/2021.4/gcc9.1_ompi4.1.2/bin/gmx_mpi
;	Data prefix:  /home/apps/centos7/gromacs/2021.4/gcc9.1_ompi4.1.2
;	Working dir:  /scratch/mse/phd/msz208502/dev_gromacs/39_umbrella_sampling
;	Command line:
;	  gmx_mpi pdb2gmx -f 2BEG_model1_capped.pdb -ignh -ter -o complex.gro
;	Force field was read from the standard GROMACS share directory.
;

; Include forcefield parameters
#include "gromos53a6.ff/forcefield.itp"

; Include chain topologies
#include "topol_Protein_chain_A.itp"
#include "topol_Protein_chain_B.itp"
#include "topol_Protein_chain_C.itp"
#include "topol_Protein_chain_D.itp"
#include "topol_Protein_chain_E.itp"

; Include water topology
#include "gromos53a6.ff/spc.itp"

#ifdef POSRES_WATER
; Position restraint for each water oxygen
[ position_restraints ]
;  i funct       fcx        fcy        fcz
   1    1       1000       1000       1000
#endif

; Include topology for ions
#include "gromos53a6.ff/ions.itp"

[ system ]
; Name
Gallium Rubidium Oxygen Manganese Argon Carbon Silicon t=   0.00000 in water

[ molecules ]
; Compound        #mols
Protein_chain_A     1
Protein_chain_B     1
Protein_chain_C     1
Protein_chain_D     1
Protein_chain_E     1
SOL         10675
NA               31
CL               21
