PCHW in water
 2642
    1PCHW    O1    1   1.179   1.539   1.384
    1PCHW    C2    2   1.283   1.527   1.449
    1PCHW    N1    3   1.373   1.637   1.455
    1PCHW    C1    4   1.325   1.774   1.411
    1PCHW    H1    5   1.252   1.814   1.480
    1PCHW    H2    6   1.407   1.846   1.402
    1PCHW    H3    7   1.278   1.769   1.313
    1PCHW   C10    8   1.504   1.622   1.505
    1PCHW    O2    9   1.581   1.716   1.525
    1PCHW    C9   10   1.537   1.491   1.549
    1PCHW    C4   11   1.451   1.384   1.541
    1PCHW    N2   12   1.324   1.397   1.488
    1PCHW    C3   13   1.238   1.272   1.471
    1PCHW    H4   14   1.235   1.217   1.565
    1PCHW    H5   15   1.135   1.298   1.444
    1PCHW    H6   16   1.281   1.208   1.395
    1PCHW    N3   17   1.512   1.269   1.580
    1PCHW    C5   18   1.632   1.307   1.624
    1PCHW    H7   19   1.706   1.242   1.671
    1PCHW    N4   20   1.653   1.437   1.605
    1PCHW    C6   21   1.782   1.507   1.630
    1PCHW    H8   22   1.834   1.460   1.713
    1PCHW    H9   23   1.762   1.610   1.661
    1PCHW    C7   24   1.866   1.507   1.510
    1PCHW    C8   25   1.917   1.504   1.402
    1PCHW   H10   26   1.990   1.520   1.326
    2SOL     OW   27   0.229   0.655   0.102
    2SOL    HW1   28   0.163   0.607   0.160
    2SOL    HW2   29   0.251   0.598   0.022
    3SOL     OW   30   0.209   0.272   0.999
    3SOL    HW1   31   0.250   0.250   1.087
    3SOL    HW2   32   0.112   0.247   1.000
    4SOL     OW   33   0.009   0.385   0.657
    4SOL    HW1   34   2.924   0.426   0.690
    4SOL    HW2   35   2.988   0.309   0.595
    5SOL     OW   36   0.567   1.279   1.169
    5SOL    HW1   37   0.474   1.273   1.133
    5SOL    HW2   38   0.582   1.369   1.210
    6SOL     OW   39   1.553   1.510   0.703
    6SOL    HW1   40   1.509   1.496   0.792
    6SOL    HW2   41   1.483   1.520   0.632
    7SOL     OW   42   1.130   0.703   0.705
    7SOL    HW1   43   1.185   0.784   0.688
    7SOL    HW2   44   1.079   0.714   0.790
    8SOL     OW   45   1.760   0.598   0.231
    8SOL    HW1   46   1.748   0.583   0.133
    8SOL    HW2   47   1.724   0.519   0.281
    9SOL     OW   48   0.764   1.148   1.033
    9SOL    HW1   49   0.688   1.174   1.093
    9SOL    HW2   50   0.797   1.228   0.984
   10SOL     OW   51   0.856   0.788   1.818
   10SOL    HW1   52   0.848   0.859   1.888
   10SOL    HW2   53   0.882   0.829   1.731
   11SOL     OW   54   0.685   1.010   0.655
   11SOL    HW1   55   0.754   0.992   0.726
   11SOL    HW2   56   0.609   1.060   0.695
   12SOL     OW   57   0.702   1.155   1.807
   12SOL    HW1   58   0.755   1.237   1.832
   12SOL    HW2   59   0.613   1.183   1.771
   13SOL     OW   60   0.328   1.436   1.068
   13SOL    HW1   61   0.259   1.385   1.017
   13SOL    HW2   62   0.388   1.484   1.004
   14SOL     OW   63   0.447   0.399   1.496
   14SOL    HW1   64   0.527   0.339   1.497
   14SOL    HW2   65   0.364   0.344   1.505
   15SOL     OW   66   1.612   0.456   0.734
   15SOL    HW1   67   1.531   0.484   0.683
   15SOL    HW2   68   1.639   0.530   0.796
   16SOL     OW   69   0.222   1.715   0.481
   16SOL    HW1   70   0.246   1.798   0.531
   16SOL    HW2   71   0.286   1.702   0.406
   17SOL     OW   72   1.108   1.350   1.722
   17SOL    HW1   73   1.168   1.341   1.801
   17SOL    HW2   74   1.058   1.264   1.709
   18SOL     OW   75   0.244   1.449   0.533
   18SOL    HW1   76   0.211   1.543   0.528
   18SOL    HW2   77   0.180   1.394   0.587
   19SOL     OW   78   0.253   1.084   0.892
   19SOL    HW1   79   0.254   0.993   0.932
   19SOL    HW2   80   0.192   1.143   0.946
   20SOL     OW   81   0.614   1.792   1.432
   20SOL    HW1   82   0.527   1.770   1.477
   20SOL    HW2   83   0.642   1.884   1.458
   21SOL     OW   84   0.594   0.974   0.146
   21SOL    HW1   85   0.606   1.047   0.080
   21SOL    HW2   86   0.639   0.999   0.232
   22SOL     OW   87   1.548   0.139   1.468
   22SOL    HW1   88   1.583   0.207   1.404
   22SOL    HW2   89   1.615   0.124   1.541
   23SOL     OW   90   0.123   0.631   0.572
   23SOL    HW1   91   0.079   0.547   0.603
   23SOL    HW2   92   0.117   0.701   0.643
   24SOL     OW   93   1.844   1.763   0.339
   24SOL    HW1   94   1.894   1.725   0.416
   24SOL    HW2   95   1.871   1.859   0.325
   25SOL     OW   96   0.016   1.596   0.113
   25SOL    HW1   97   0.020   1.498   0.135
   25SOL    HW2   98   2.994   1.647   0.196
   26SOL     OW   99   1.691   0.921   0.635
   26SOL    HW1  100   1.781   0.879   0.623
   26SOL    HW2  101   1.669   0.975   0.553
   27SOL     OW  102   1.647   1.109   0.434
   27SOL    HW1  103   1.734   1.115   0.384
   27SOL    HW2  104   1.650   1.171   0.512
   28SOL     OW  105   0.121   0.746   1.593
   28SOL    HW1  106   0.220   0.746   1.609
   28SOL    HW2  107   0.088   0.840   1.586
   29SOL     OW  108   0.609   1.378   0.734
   29SOL    HW1  109   0.562   1.291   0.745
   29SOL    HW2  110   0.594   1.413   0.641
   30SOL     OW  111   0.818   0.012   0.499
   30SOL    HW1  112   0.850   0.106   0.493
   30SOL    HW2  113   0.718   0.010   0.502
   31SOL     OW  114   0.192   0.964   1.269
   31SOL    HW1  115   0.280   0.920   1.250
   31SOL    HW2  116   0.119   0.913   1.224
   32SOL     OW  117   1.509   1.007   0.207
   32SOL    HW1  118   1.443   0.937   0.236
   32SOL    HW2  119   1.565   1.034   0.286
   33SOL     OW  120   0.326   0.253   1.796
   33SOL    HW1  121   0.387   0.330   1.816
   33SOL    HW2  122   0.239   0.266   1.844
   34SOL     OW  123   1.470   1.417   0.953
   34SOL    HW1  124   1.400   1.433   1.023
   34SOL    HW2  125   1.460   1.323   0.918
   35SOL     OW  126   1.662   1.726   0.576
   35SOL    HW1  127   1.633   1.703   0.483
   35SOL    HW2  128   1.636   1.652   0.639
   36SOL     OW  129   0.592   0.723   0.266
   36SOL    HW1  130   0.608   0.805   0.211
   36SOL    HW2  131   0.525   0.743   0.337
   37SOL     OW  132   1.285   0.340   0.931
   37SOL    HW1  133   1.189   0.311   0.935
   37SOL    HW2  134   1.337   0.291   1.001
   38SOL     OW  135   1.585   1.666   0.308
   38SOL    HW1  136   1.676   1.706   0.306
   38SOL    HW2  137   1.556   1.644   0.215
   39SOL     OW  138   0.795   0.613   1.457
   39SOL    HW1  139   0.765   0.595   1.551
   39SOL    HW2  140   0.750   0.549   1.395
   40SOL     OW  141   1.397   0.475   1.677
   40SOL    HW1  142   1.388   0.520   1.766
   40SOL    HW2  143   1.460   0.398   1.685
   41SOL     OW  144   0.963   0.888   1.577
   41SOL    HW1  145   1.018   0.812   1.545
   41SOL    HW2  146   0.910   0.926   1.501
   42SOL     OW  147   0.994   0.418   1.230
   42SOL    HW1  148   0.919   0.439   1.292
   42SOL    HW2  149   0.961   0.362   1.154
   43SOL     OW  150   1.044   0.704   0.426
   43SOL    HW1  151   1.066   0.697   0.523
   43SOL    HW2  152   0.963   0.650   0.406
   44SOL     OW  153   0.102   0.820   0.763
   44SOL    HW1  154   0.184   0.808   0.818
   44SOL    HW2  155   0.039   0.882   0.811
   45SOL     OW  156   0.139   1.835   1.575
   45SOL    HW1  157   0.126   1.810   1.671
   45SOL    HW2  158   0.051   1.862   1.536
   46SOL     OW  159   0.922   0.339   0.220
   46SOL    HW1  160   0.935   0.405   0.147
   46SOL    HW2  161   0.883   0.254   0.183
   47SOL     OW  162   1.714   0.582   1.827
   47SOL    HW1  163   1.676   0.665   1.785
   47SOL    HW2  164   1.732   0.514   1.757
   48SOL     OW  165   1.371   1.142   0.540
   48SOL    HW1  166   1.455   1.121   0.489
   48SOL    HW2  167   1.317   1.210   0.490
   49SOL     OW  168   0.516   0.194   0.914
   49SOL    HW1  169   0.536   0.209   1.011
   49SOL    HW2  170   0.547   0.272   0.861
   50SOL     OW  171   1.008   1.449   0.473
   50SOL    HW1  172   0.963   1.521   0.421
   50SOL    HW2  173   1.000   1.468   0.571
   51SOL     OW  174   0.355   1.802   0.852
   51SOL    HW1  175   0.403   1.716   0.865
   51SOL    HW2  176   0.418   1.878   0.866
   52SOL     OW  177   1.796   1.064   0.868
   52SOL    HW1  178   1.740   1.048   0.787
   52SOL    HW2  179   1.737   1.068   0.949
   53SOL     OW  180   0.322   0.952   0.229
   53SOL    HW1  181   0.419   0.962   0.207
   53SOL    HW2  182   0.292   0.860   0.202
   54SOL     OW  183   1.472   0.737   0.727
   54SOL    HW1  184   1.458   0.684   0.811
   54SOL    HW2  185   1.551   0.797   0.739
   55SOL     OW  186   0.462   1.257   1.732
   55SOL    HW1  187   0.432   1.267   1.637
   55SOL    HW2  188   0.383   1.263   1.793
   56SOL     OW  189   1.110   1.775   0.225
   56SOL    HW1  190   1.048   1.727   0.288
   56SOL    HW2  191   1.144   1.712   0.156
   57SOL     OW  192   0.200   0.296   1.499
   57SOL    HW1  193   0.113   0.344   1.484
   57SOL    HW2  194   0.187   0.223   1.565
   58SOL     OW  195   1.626   1.366   0.083
   58SOL    HW1  196   1.599   1.462   0.076
   58SOL    HW2  197   1.544   1.308   0.076
   59SOL     OW  198   0.468   1.728   0.330
   59SOL    HW1  199   0.497   1.797   0.397
   59SOL    HW2  200   0.537   1.722   0.258
   60SOL     OW  201   1.408   0.106   0.431
   60SOL    HW1  202   1.386   0.077   0.338
   60SOL    HW2  203   1.505   0.128   0.437
   61SOL     OW  204   0.261   1.797   1.233
   61SOL    HW1  205   0.304   1.726   1.288
   61SOL    HW2  206   0.229   1.757   1.147
   62SOL     OW  207   0.936   1.699   0.902
   62SOL    HW1  208   1.020   1.650   0.926
   62SOL    HW2  209   0.889   1.650   0.829
   63SOL     OW  210   0.388   0.693   0.475
   63SOL    HW1  211   0.426   0.601   0.486
   63SOL    HW2  212   0.292   0.693   0.505
   64SOL     OW  213   1.540   0.243   1.734
   64SOL    HW1  214   1.543   0.257   1.833
   64SOL    HW2  215   1.480   0.166   1.714
   65SOL     OW  216   0.611   0.109   0.111
   65SOL    HW1  217   0.711   0.110   0.122
   65SOL    HW2  218   0.588   0.126   0.015
   66SOL     OW  219   0.769   0.269   1.750
   66SOL    HW1  220   0.844   0.206   1.769
   66SOL    HW2  221   0.713   0.280   1.832
   67SOL     OW  222   0.877   1.520   1.190
   67SOL    HW1  223   0.859   1.485   1.098
   67SOL    HW2  224   0.938   1.458   1.238
   68SOL     OW  225   1.345   0.589   1.433
   68SOL    HW1  226   1.373   0.552   1.522
   68SOL    HW2  227   1.378   0.683   1.425
   69SOL     OW  228   0.812   1.399   0.930
   69SOL    HW1  229   0.901   1.395   0.885
   69SOL    HW2  230   0.739   1.395   0.862
   70SOL     OW  231   0.925   0.509   0.901
   70SOL    HW1  232   0.900   0.501   0.805
   70SOL    HW2  233   0.963   0.422   0.933
   71SOL     OW  234   0.538   0.051   0.496
   71SOL    HW1  235   0.449   0.042   0.543
   71SOL    HW2  236   0.538   0.134   0.441
   72SOL     OW  237   1.415   1.207   0.051
   72SOL    HW1  238   1.443   1.129   0.106
   72SOL    HW2  239   1.320   1.231   0.073
   73SOL     OW  240   0.302   0.075   0.193
   73SOL    HW1  241   0.376   0.141   0.179
   73SOL    HW2  242   0.342   2.986   0.214
   74SOL     OW  243   0.942   0.250   0.474
   74SOL    HW1  244   0.908   0.289   0.389
   74SOL    HW2  245   1.042   0.255   0.475
   75SOL     OW  246   1.080   0.677   1.460
   75SOL    HW1  247   1.001   0.617   1.466
   75SOL    HW2  248   1.163   0.623   1.450
   76SOL     OW  249   1.227   1.566   0.791
   76SOL    HW1  250   1.242   1.638   0.724
   76SOL    HW2  251   1.291   1.577   0.868
   77SOL     OW  252   0.464   1.145   0.740
   77SOL    HW1  253   0.389   1.128   0.805
   77SOL    HW2  254   0.431   1.131   0.647
   78SOL     OW  255   1.271   1.796   0.600
   78SOL    HW1  256   1.318   1.859   0.538
   78SOL    HW2  257   1.206   1.847   0.657
   79SOL     OW  258   1.039   0.507   0.026
   79SOL    HW1  259   0.994   0.594   0.004
   79SOL    HW2  260   1.109   0.523   0.095
   80SOL     OW  261   0.082   0.561   1.391
   80SOL    HW1  262   0.174   0.558   1.350
   80SOL    HW2  263   0.081   0.630   1.464
   81SOL     OW  264   0.574   0.219   1.174
   81SOL    HW1  265   0.612   0.151   1.236
   81SOL    HW2  266   0.478   0.233   1.195
   82SOL     OW  267   0.876   0.466   0.638
   82SOL    HW1  268   0.821   0.522   0.576
   82SOL    HW2  269   0.887   0.375   0.599
   83SOL     OW  270   0.999   0.050   0.765
   83SOL    HW1  271   0.959   0.060   0.674
   83SOL    HW2  272   0.982   2.958   0.800
   84SOL     OW  273   1.437   1.164   0.858
   84SOL    HW1  274   1.368   1.091   0.859
   84SOL    HW2  275   1.461   1.186   0.764
   85SOL     OW  276   1.471   0.597   0.985
   85SOL    HW1  277   1.420   0.511   0.989
   85SOL    HW2  278   1.536   0.600   1.061
   86SOL     OW  279   1.847   0.822   0.382
   86SOL    HW1  280   1.904   0.762   0.440
   86SOL    HW2  281   1.817   0.771   0.301
   87SOL     OW  282   0.489   1.402   0.159
   87SOL    HW1  283   0.417   1.374   0.223
   87SOL    HW2  284   0.450   1.409   0.067
   88SOL     OW  285   1.667   1.268   0.654
   88SOL    HW1  286   1.767   1.272   0.661
   88SOL    HW2  287   1.629   1.358   0.674
   89SOL     OW  288   1.408   0.580   0.099
   89SOL    HW1  289   1.333   0.565   0.164
   89SOL    HW2  290   1.469   0.501   0.101
   90SOL     OW  291   0.530   0.265   0.326
   90SOL    HW1  292   0.566   0.204   0.255
   90SOL    HW2  293   0.509   0.354   0.286
   91SOL     OW  294   1.120   1.221   1.116
   91SOL    HW1  295   1.040   1.220   1.176
   91SOL    HW2  296   1.090   1.233   1.021
   92SOL     OW  297   1.634   1.102   1.081
   92SOL    HW1  298   1.633   1.172   1.152
   92SOL    HW2  299   1.551   1.109   1.026
   93SOL     OW  300   0.906   0.107   1.393
   93SOL    HW1  301   0.940   0.084   1.302
   93SOL    HW2  302   0.974   0.162   1.442
   94SOL     OW  303   0.981   1.111   1.721
   94SOL    HW1  304   0.885   1.129   1.740
   94SOL    HW2  305   0.989   1.030   1.662
   95SOL     OW  306   0.704   1.058   0.377
   95SOL    HW1  307   0.687   1.051   0.475
   95SOL    HW2  308   0.789   1.009   0.354
   96SOL     OW  309   0.418   0.811   1.250
   96SOL    HW1  310   0.491   0.826   1.316
   96SOL    HW2  311   0.376   0.722   1.266
   97SOL     OW  312   1.272   0.388   1.261
   97SOL    HW1  313   1.303   0.461   1.321
   97SOL    HW2  314   1.175   0.401   1.241
   98SOL     OW  315   0.069   1.568   1.310
   98SOL    HW1  316   0.021   1.655   1.321
   98SOL    HW2  317   0.161   1.575   1.349
   99SOL     OW  318   0.365   1.107   0.492
   99SOL    HW1  319   0.353   1.187   0.434
   99SOL    HW2  320   0.360   1.024   0.437
  100SOL     OW  321   0.557   0.545   0.864
  100SOL    HW1  322   0.576   0.601   0.784
  100SOL    HW2  323   0.619   0.571   0.938
  101SOL     OW  324   1.248   1.348   0.395
  101SOL    HW1  325   1.306   1.424   0.424
  101SOL    HW2  326   1.153   1.366   0.424
  102SOL     OW  327   1.284   1.438   1.139
  102SOL    HW1  328   1.285   1.463   1.236
  102SOL    HW2  329   1.220   1.362   1.125
  103SOL     OW  330   1.584   0.630   0.475
  103SOL    HW1  331   1.540   0.688   0.544
  103SOL    HW2  332   1.633   0.687   0.409
  104SOL     OW  333   0.354   1.522   1.323
  104SOL    HW1  334   0.329   1.479   1.236
  104SOL    HW2  335   0.452   1.538   1.326
  105SOL     OW  336   0.409   0.743   1.601
  105SOL    HW1  337   0.468   0.798   1.541
  105SOL    HW2  338   0.454   0.656   1.621
  106SOL     OW  339   1.595   0.780   1.677
  106SOL    HW1  340   1.502   0.815   1.673
  106SOL    HW2  341   1.650   0.824   1.606
  107SOL     OW  342   1.003   0.107   1.762
  107SOL    HW1  343   1.040   0.195   1.733
  107SOL    HW2  344   1.032   0.036   1.698
  108SOL     OW  345   0.500   0.053   1.749
  108SOL    HW1  346   0.473   2.990   1.676
  108SOL    HW2  347   0.427   0.121   1.762
  109SOL     OW  348   0.582   0.870   1.033
  109SOL    HW1  349   0.613   0.964   1.022
  109SOL    HW2  350   0.519   0.864   1.110
  110SOL     OW  351   1.362   0.860   1.035
  110SOL    HW1  352   1.279   0.858   0.980
  110SOL    HW2  353   1.400   0.767   1.041
  111SOL     OW  354   1.206   0.531   0.275
  111SOL    HW1  355   1.215   0.444   0.324
  111SOL    HW2  356   1.165   0.599   0.335
  112SOL     OW  357   0.322   0.208   1.244
  112SOL    HW1  358   0.287   0.253   1.326
  112SOL    HW2  359   0.275   0.120   1.233
  113SOL     OW  360   0.041   1.305   1.281
  113SOL    HW1  361   0.075   1.254   1.360
  113SOL    HW2  362   0.048   1.403   1.298
  114SOL     OW  363   0.729   0.633   1.062
  114SOL    HW1  364   0.800   0.608   0.996
  114SOL    HW2  365   0.695   0.725   1.041
  115SOL     OW  366   1.728   0.960   1.848
  115SOL    HW1  367   1.681   0.905   1.779
  115SOL    HW2  368   1.669   0.972   1.927
  116SOL     OW  369   0.309   0.065   0.640
  116SOL    HW1  370   0.305   0.159   0.672
  116SOL    HW2  371   0.286   0.003   0.715
  117SOL     OW  372   1.614   0.373   0.370
  117SOL    HW1  373   1.646   0.303   0.433
  117SOL    HW2  374   1.584   0.454   0.421
  118SOL     OW  375   1.023   0.759   0.965
  118SOL    HW1  376   1.030   0.780   1.062
  118SOL    HW2  377   0.995   0.664   0.953
  119SOL     OW  378   0.992   1.586   1.707
  119SOL    HW1  379   0.961   1.619   1.618
  119SOL    HW2  380   1.027   1.492   1.698
  120SOL     OW  381   0.353   0.913   1.806
  120SOL    HW1  382   0.435   0.938   1.857
  120SOL    HW2  383   0.378   0.850   1.732
  121SOL     OW  384   1.512   0.292   0.126
  121SOL    HW1  385   1.464   0.206   0.143
  121SOL    HW2  386   1.567   0.316   0.207
  122SOL     OW  387   1.296   0.827   0.037
  122SOL    HW1  388   1.336   0.736   0.052
  122SOL    HW2  389   1.323   0.859   2.946
  123SOL     OW  390   1.068   1.333   0.851
  123SOL    HW1  391   1.067   1.255   0.788
  123SOL    HW2  392   1.131   1.403   0.817
  124SOL     OW  393   0.314   0.810   0.947
  124SOL    HW1  394   0.411   0.835   0.944
  124SOL    HW2  395   0.304   0.720   0.989
  125SOL     OW  396   0.338   0.512   1.013
  125SOL    HW1  397   0.292   0.426   0.991
  125SOL    HW2  398   0.415   0.526   0.951
  126SOL     OW  399   1.141   0.385   1.695
  126SOL    HW1  400   1.093   0.441   1.763
  126SOL    HW2  401   1.234   0.419   1.683
  127SOL     OW  402   1.103   0.253   1.473
  127SOL    HW1  403   1.127   0.305   1.556
  127SOL    HW2  404   1.185   0.241   1.417
  128SOL     OW  405   0.007   1.315   0.174
  128SOL    HW1  406   2.911   1.336   0.153
  128SOL    HW2  407   0.011   1.233   0.231
  129SOL     OW  408   0.099   1.802   0.958
  129SOL    HW1  409   0.050   1.734   0.904
  129SOL    HW2  410   0.189   1.819   0.917
  130SOL     OW  411   0.500   1.573   0.904
  130SOL    HW1  412   0.570   1.640   0.930
  130SOL    HW2  413   0.543   1.499   0.851
  131SOL     OW  414   0.992   0.800   1.232
  131SOL    HW1  415   1.044   0.768   1.312
  131SOL    HW2  416   0.900   0.761   1.235
  132SOL     OW  417   0.047   0.559   1.107
  132SOL    HW1  418   0.135   0.524   1.076
  132SOL    HW2  419   0.038   0.545   1.205
  133SOL     OW  420   0.197   0.517   1.720
  133SOL    HW1  421   0.268   0.488   1.656
  133SOL    HW2  422   0.148   0.596   1.683
  134SOL     OW  423   1.376   0.949   1.662
  134SOL    HW1  424   1.404   1.043   1.677
  134SOL    HW2  425   1.379   0.928   1.564
  135SOL     OW  426   0.818   0.576   0.346
  135SOL    HW1  427   0.826   0.493   0.291
  135SOL    HW2  428   0.732   0.623   0.322
  136SOL     OW  429   1.646   0.603   1.192
  136SOL    HW1  430   1.623   0.541   1.267
  136SOL    HW2  431   1.736   0.579   1.155
  137SOL     OW  432   0.279   1.560   1.749
  137SOL    HW1  433   0.220   1.624   1.798
  137SOL    HW2  434   0.249   1.466   1.768
  138SOL     OW  435   0.688   0.460   1.265
  138SOL    HW1  436   0.642   0.376   1.235
  138SOL    HW2  437   0.695   0.524   1.189
  139SOL     OW  438   0.915   1.688   1.471
  139SOL    HW1  439   0.907   1.644   1.382
  139SOL    HW2  440   0.928   1.787   1.458
  140SOL     OW  441   0.442   0.496   0.204
  140SOL    HW1  442   0.518   0.560   0.214
  140SOL    HW2  443   0.357   0.547   0.194
  141SOL     OW  444   0.160   1.139   1.465
  141SOL    HW1  445   0.152   1.089   1.551
  141SOL    HW2  446   0.171   1.075   1.389
  142SOL     OW  447   1.337   1.050   1.223
  142SOL    HW1  448   1.360   0.984   1.152
  142SOL    HW2  449   1.258   1.104   1.195
  143SOL     OW  450   1.305   0.848   0.309
  143SOL    HW1  451   1.222   0.826   0.361
  143SOL    HW2  452   1.286   0.841   0.211
  144SOL     OW  453   1.742   1.758   1.127
  144SOL    HW1  454   1.825   1.780   1.077
  144SOL    HW2  455   1.732   1.659   1.133
  145SOL     OW  456   1.234   1.725   1.080
  145SOL    HW1  457   1.327   1.745   1.047
  145SOL    HW2  458   1.233   1.633   1.120
  146SOL     OW  459   0.092   1.245   1.028
  146SOL    HW1  460   0.078   1.261   1.126
  146SOL    HW2  461   0.004   1.254   0.980
  147SOL     OW  462   0.683   1.664   1.720
  147SOL    HW1  463   0.625   1.745   1.724
  147SOL    HW2  464   0.742   1.670   1.639
  148SOL     OW  465   0.891   0.086   0.138
  148SOL    HW1  466   0.943   0.065   0.055
  148SOL    HW2  467   0.926   0.031   0.214
  149SOL     OW  468   1.717   0.139   0.507
  149SOL    HW1  469   1.793   0.133   0.441
  149SOL    HW2  470   1.717   0.057   0.564
  150SOL     OW  471   1.391   1.570   0.480
  150SOL    HW1  472   1.457   1.597   0.410
  150SOL    HW2  473   1.341   1.651   0.512
  151SOL     OW  474   0.129   1.796   1.845
  151SOL    HW1  475   0.081   1.723   1.894
  151SOL    HW2  476   0.189   1.844   1.909
  152SOL     OW  477   1.279   0.923   0.668
  152SOL    HW1  478   1.353   0.856   0.677
  152SOL    HW2  479   1.312   1.002   0.616
  153SOL     OW  480   0.826   1.273   1.421
  153SOL    HW1  481   0.816   1.312   1.513
  153SOL    HW2  482   0.745   1.294   1.367
  154SOL     OW  483   0.674   1.606   0.157
  154SOL    HW1  484   0.674   1.629   0.060
  154SOL    HW2  485   0.616   1.526   0.172
  155SOL     OW  486   1.847   0.160   0.965
  155SOL    HW1  487   1.859   0.074   0.915
  155SOL    HW2  488   1.759   0.201   0.940
  156SOL     OW  489   0.269   0.337   0.743
  156SOL    HW1  490   0.178   0.371   0.720
  156SOL    HW2  491   0.269   0.305   0.838
  157SOL     OW  492   1.203   1.606   0.033
  157SOL    HW1  493   1.199   1.513   0.070
  157SOL    HW2  494   1.145   1.612   2.952
  158SOL     OW  495   0.825   1.008   1.374
  158SOL    HW1  496   0.865   0.996   1.284
  158SOL    HW2  497   0.827   1.105   1.399
  159SOL     OW  498   0.919   0.925   0.304
  159SOL    HW1  499   0.983   0.959   0.235
  159SOL    HW2  500   0.961   0.849   0.353
  160SOL     OW  501   1.492   1.603   0.049
  160SOL    HW1  502   1.394   1.622   0.057
  160SOL    HW2  503   1.523   1.627   2.957
  161SOL     OW  504   0.371   1.300   1.490
  161SOL    HW1  505   0.359   1.385   1.439
  161SOL    HW2  506   0.291   1.241   1.476
  162SOL     OW  507   1.631   1.296   1.280
  162SOL    HW1  508   1.678   1.283   1.367
  162SOL    HW2  509   1.540   1.333   1.297
  163SOL     OW  510   1.045   1.102   0.707
  163SOL    HW1  511   0.971   1.051   0.750
  163SOL    HW2  512   1.109   1.038   0.663
  164SOL     OW  513   1.016   0.240   0.966
  164SOL    HW1  514   1.009   0.191   0.879
  164SOL    HW2  515   1.017   0.173   1.041
  165SOL     OW  516   0.599   1.490   0.485
  165SOL    HW1  517   0.640   1.433   0.414
  165SOL    HW2  518   0.536   1.556   0.444
  166SOL     OW  519   1.720   0.390   1.381
  166SOL    HW1  520   1.791   0.461   1.378
  166SOL    HW2  521   1.746   0.315   1.319
  167SOL     OW  522   0.260   1.341   0.295
  167SOL    HW1  523   0.167   1.343   0.256
  167SOL    HW2  524   0.260   1.387   0.384
  168SOL     OW  525   0.123   1.014   1.713
  168SOL    HW1  526   0.040   0.979   1.756
  168SOL    HW2  527   0.203   0.976   1.759
  169SOL     OW  528   0.668   0.207   1.493
  169SOL    HW1  529   0.753   0.181   1.448
  169SOL    HW2  530   0.686   0.221   1.591
  170SOL     OW  531   0.072   0.325   0.047
  170SOL    HW1  532   2.973   0.324   0.028
  170SOL    HW2  533   0.111   0.409   0.010
  171SOL     OW  534   1.432   0.860   1.401
  171SOL    HW1  535   1.380   0.921   1.342
  171SOL    HW2  536   1.529   0.861   1.374
  172SOL     OW  537   0.041   0.191   0.293
  172SOL    HW1  538   0.048   0.257   0.219
  172SOL    HW2  539   0.128   0.142   0.302
  173SOL     OW  540   1.185   1.351   0.124
  173SOL    HW1  541   1.088   1.327   0.111
  173SOL    HW2  542   1.209   1.340   0.221
  174SOL     OW  543   0.617   0.834   1.430
  174SOL    HW1  544   0.673   0.916   1.417
  174SOL    HW2  545   0.677   0.755   1.440
  175SOL     OW  546   1.493   1.771   0.976
  175SOL    HW1  547   1.516   1.829   0.897
  175SOL    HW2  548   1.573   1.762   1.035
  176SOL     OW  549   0.716   0.565   1.710
  176SOL    HW1  550   0.749   0.636   1.772
  176SOL    HW2  551   0.764   0.479   1.728
  177SOL     OW  552   0.386   1.738   1.563
  177SOL    HW1  553   0.297   1.781   1.553
  177SOL    HW2  554   0.376   1.650   1.608
  178SOL     OW  555   1.676   0.881   1.255
  178SOL    HW1  556   1.662   0.790   1.217
  178SOL    HW2  557   1.664   0.950   1.184
  179SOL     OW  558   1.227   0.316   0.454
  179SOL    HW1  559   1.292   0.240   0.449
  179SOL    HW2  560   1.247   0.371   0.535
  180SOL     OW  561   0.593   0.743   0.660
  180SOL    HW1  562   0.636   0.832   0.648
  180SOL    HW2  563   0.513   0.736   0.600
  181SOL     OW  564   1.764   0.351   1.645
  181SOL    HW1  565   1.747   0.374   1.549
  181SOL    HW2  566   1.682   0.311   1.685
  182SOL     OW  567   1.738   0.936   1.512
  182SOL    HW1  568   1.785   1.023   1.527
  182SOL    HW2  569   1.725   0.921   1.414
  183SOL     OW  570   0.900   1.383   0.059
  183SOL    HW1  571   0.824   1.383   0.123
  183SOL    HW2  572   0.873   1.430   2.975
  184SOL     OW  573   0.658   1.795   0.952
  184SOL    HW1  574   0.630   1.887   0.925
  184SOL    HW2  575   0.757   1.787   0.940
  185SOL     OW  576   0.865   0.963   0.859
  185SOL    HW1  577   0.917   0.888   0.899
  185SOL    HW2  578   0.829   1.023   0.931
  186SOL     OW  579   1.102   1.024   0.093
  186SOL    HW1  580   1.058   1.055   0.009
  186SOL    HW2  581   1.167   0.951   0.072
  187SOL     OW  582   1.860   1.558   0.845
  187SOL    HW1  583   1.781   1.552   0.784
  187SOL    HW2  584   1.851   1.491   0.918
  188SOL     OW  585   0.224   1.305   1.854
  188SOL    HW1  586   0.169   1.227   1.825
  188SOL    HW2  587   0.213   1.319   1.953
  189SOL     OW  588   0.124   1.250   0.662
  189SOL    HW1  589   0.079   1.186   0.725
  189SOL    HW2  590   0.174   1.199   0.592
  190SOL     OW  591   0.678   1.399   1.625
  190SOL    HW1  592   0.597   1.348   1.653
  190SOL    HW2  593   0.674   1.492   1.661
  191SOL     OW  594   1.796   0.179   1.233
  191SOL    HW1  595   1.839   0.100   1.277
  191SOL    HW2  596   1.825   0.183   1.137
  192SOL     OW  597   0.458   0.431   0.540
  192SOL    HW1  598   0.456   0.365   0.465
  192SOL    HW2  599   0.399   0.397   0.614
  193SOL     OW  600   1.703   1.492   1.101
  193SOL    HW1  601   1.621   1.467   1.050
  193SOL    HW2  602   1.714   1.429   1.179
  194SOL     OW  603   0.329   0.550   1.287
  194SOL    HW1  604   0.385   0.495   1.349
  194SOL    HW2  605   0.350   0.526   1.193
  195SOL     OW  606   0.823   1.578   0.683
  195SOL    HW1  607   0.830   1.618   0.591
  195SOL    HW2  608   0.739   1.524   0.689
  196SOL     OW  609   1.428   0.218   1.125
  196SOL    HW1  610   1.458   0.140   1.180
  196SOL    HW2  611   1.375   0.280   1.182
  197SOL     OW  612   1.009   0.030   1.154
  197SOL    HW1  613   0.934   2.983   1.108
  197SOL    HW2  614   1.093   2.978   1.143
  198SOL     OW  615   0.765   1.329   0.312
  198SOL    HW1  616   0.729   1.236   0.324
  198SOL    HW2  617   0.857   1.334   0.350
  199SOL     OW  618   0.623   1.563   1.285
  199SOL    HW1  619   0.621   1.647   1.339
  199SOL    HW2  620   0.712   1.553   1.242
  200SOL     OW  621   1.352   0.055   0.171
  200SOL    HW1  622   1.413   2.993   0.123
  200SOL    HW2  623   1.258   0.019   0.167
  201SOL     OW  624   1.298   0.460   0.686
  201SOL    HW1  625   1.240   0.541   0.691
  201SOL    HW2  626   1.299   0.414   0.775
  202SOL     OW  627   1.605   0.233   0.887
  202SOL    HW1  628   1.520   0.220   0.938
  202SOL    HW2  629   1.595   0.311   0.825
  203SOL     OW  630   0.065   1.087   0.339
  203SOL    HW1  631   0.150   1.054   0.297
  203SOL    HW2  632   2.998   1.014   0.339
  204SOL     OW  633   0.878   1.651   0.347
  204SOL    HW1  634   0.807   1.624   0.281
  204SOL    HW2  635   0.846   1.730   0.399
  205SOL     OW  636   0.234   0.646   1.971
  205SOL    HW1  637   0.164   0.606   2.030
  205SOL    HW2  638   0.231   0.601   1.881
  206SOL     OW  639   0.233   0.250   2.849
  206SOL    HW1  640   0.256   0.244   2.947
  206SOL    HW2  641   0.134   0.238   2.837
  207SOL     OW  642   0.008   0.383   2.520
  207SOL    HW1  643   2.922   0.425   2.550
  207SOL    HW2  644   2.989   0.308   2.457
  208SOL     OW  645   1.553   1.510   2.566
  208SOL    HW1  646   1.507   1.493   2.653
  208SOL    HW2  647   1.485   1.520   2.494
  209SOL     OW  648   1.131   0.702   2.567
  209SOL    HW1  649   1.186   0.783   2.548
  209SOL    HW2  650   1.079   0.716   2.651
  210SOL     OW  651   1.760   0.608   2.093
  210SOL    HW1  652   1.744   0.599   1.995
  210SOL    HW2  653   1.728   0.525   2.139
  211SOL     OW  654   0.755   1.147   2.888
  211SOL    HW1  655   0.685   1.181   2.951
  211SOL    HW2  656   0.806   1.224   2.850
  212SOL     OW  657   0.685   1.011   2.516
  212SOL    HW1  658   0.754   0.992   2.586
  212SOL    HW2  659   0.608   1.060   2.557
  213SOL     OW  660   0.331   1.453   2.930
  213SOL    HW1  661   0.270   1.388   2.885
  213SOL    HW2  662   0.391   1.494   2.861
  214SOL     OW  663   1.615   0.455   2.592
  214SOL    HW1  664   1.532   0.480   2.541
  214SOL    HW2  665   1.632   0.523   2.664
  215SOL     OW  666   0.224   1.712   2.347
  215SOL    HW1  667   0.247   1.798   2.393
  215SOL    HW2  668   0.279   1.703   2.264
  216SOL     OW  669   0.244   1.446   2.391
  216SOL    HW1  670   0.215   1.542   2.389
  216SOL    HW2  671   0.180   1.393   2.447
  217SOL     OW  672   0.238   1.085   2.749
  217SOL    HW1  673   0.258   0.998   2.795
  217SOL    HW2  674   0.192   1.146   2.812
  218SOL     OW  675   0.593   0.979   1.992
  218SOL    HW1  676   0.630   1.037   1.920
  218SOL    HW2  677   0.637   1.001   2.079
  219SOL     OW  678   0.127   0.629   2.436
  219SOL    HW1  679   0.078   0.547   2.465
  219SOL    HW2  680   0.118   0.700   2.506
  220SOL     OW  681   1.843   1.763   2.201
  220SOL    HW1  682   1.896   1.730   2.278
  220SOL    HW2  683   1.869   1.857   2.180
  221SOL     OW  684   0.029   1.597   1.993
  221SOL    HW1  685   0.020   1.498   2.005
  221SOL    HW2  686   2.980   1.644   2.067
  222SOL     OW  687   1.690   0.921   2.495
  222SOL    HW1  688   1.781   0.880   2.485
  222SOL    HW2  689   1.669   0.974   2.414
  223SOL     OW  690   1.646   1.109   2.294
  223SOL    HW1  691   1.732   1.116   2.243
  223SOL    HW2  692   1.648   1.171   2.373
  224SOL     OW  693   0.607   1.377   2.592
  224SOL    HW1  694   0.560   1.290   2.604
  224SOL    HW2  695   0.593   1.411   2.500
  225SOL     OW  696   0.819   0.010   2.358
  225SOL    HW1  697   0.850   0.104   2.353
  225SOL    HW2  698   0.719   0.008   2.364
  226SOL     OW  699   1.535   0.990   2.058
  226SOL    HW1  700   1.460   0.927   2.079
  226SOL    HW2  701   1.573   1.027   2.143
  227SOL     OW  702   1.439   1.422   2.804
  227SOL    HW1  703   1.415   1.427   2.901
  227SOL    HW2  704   1.448   1.327   2.776
  228SOL     OW  705   1.662   1.726   2.438
  228SOL    HW1  706   1.633   1.702   2.346
  228SOL    HW2  707   1.636   1.652   2.501
  229SOL     OW  708   0.596   0.725   2.126
  229SOL    HW1  709   0.611   0.804   2.066
  229SOL    HW2  710   0.526   0.748   2.195
  230SOL     OW  711   1.293   0.332   2.803
  230SOL    HW1  712   1.194   0.318   2.800
  230SOL    HW2  713   1.329   0.296   2.889
  231SOL     OW  714   1.585   1.665   2.170
  231SOL    HW1  715   1.676   1.706   2.170
  231SOL    HW2  716   1.557   1.646   2.076
  232SOL     OW  717   1.046   0.699   2.291
  232SOL    HW1  718   1.064   0.694   2.389
  232SOL    HW2  719   0.962   0.649   2.270
  233SOL     OW  720   0.102   0.818   2.627
  233SOL    HW1  721   0.186   0.808   2.680
  233SOL    HW2  722   0.044   0.888   2.669
  234SOL     OW  723   0.873   0.352   2.053
  234SOL    HW1  724   0.933   0.412   2.001
  234SOL    HW2  725   0.890   0.257   2.028
  235SOL     OW  726   1.372   1.144   2.403
  235SOL    HW1  727   1.455   1.121   2.351
  235SOL    HW2  728   1.317   1.210   2.352
  236SOL     OW  729   0.542   0.193   2.808
  236SOL    HW1  730   0.520   0.251   2.887
  236SOL    HW2  731   0.557   0.251   2.728
  237SOL     OW  732   1.008   1.448   2.335
  237SOL    HW1  733   0.964   1.522   2.285
  237SOL    HW2  734   1.000   1.465   2.433
  238SOL     OW  735   0.354   1.799   2.711
  238SOL    HW1  736   0.402   1.713   2.728
  238SOL    HW2  737   0.415   1.876   2.729
  239SOL     OW  738   1.801   1.063   2.722
  239SOL    HW1  739   1.741   1.046   2.644
  239SOL    HW2  740   1.746   1.065   2.806
  240SOL     OW  741   0.317   0.948   2.104
  240SOL    HW1  742   0.405   0.980   2.067
  240SOL    HW2  743   0.294   0.860   2.063
  241SOL     OW  744   1.470   0.740   2.589
  241SOL    HW1  745   1.463   0.680   2.669
  241SOL    HW2  746   1.553   0.797   2.598
  242SOL     OW  747   1.120   1.773   2.093
  242SOL    HW1  748   1.047   1.732   2.146
  242SOL    HW2  749   1.141   1.716   2.013
  243SOL     OW  750   1.630   1.376   1.941
  243SOL    HW1  751   1.589   1.467   1.939
  243SOL    HW2  752   1.560   1.307   1.926
  244SOL     OW  753   0.468   1.740   2.182
  244SOL    HW1  754   0.502   1.797   2.256
  244SOL    HW2  755   0.543   1.715   2.122
  245SOL     OW  756   1.407   0.108   2.292
  245SOL    HW1  757   1.387   0.075   2.200
  245SOL    HW2  758   1.505   0.129   2.300
  246SOL     OW  759   0.263   1.798   0.097
  246SOL    HW1  760   0.306   1.728   0.155
  246SOL    HW2  761   0.211   1.754   0.025
  247SOL     OW  762   0.941   1.693   2.760
  247SOL    HW1  763   1.024   1.638   2.770
  247SOL    HW2  764   0.883   1.652   2.690
  248SOL     OW  765   0.389   0.693   2.340
  248SOL    HW1  766   0.427   0.601   2.349
  248SOL    HW2  767   0.292   0.692   2.366
  249SOL     OW  768   0.621   0.124   1.974
  249SOL    HW1  769   0.713   0.087   1.982
  249SOL    HW2  770   0.583   0.101   1.884
  250SOL     OW  771   0.805   1.404   2.783
  250SOL    HW1  772   0.897   1.394   2.745
  250SOL    HW2  773   0.737   1.392   2.710
  251SOL     OW  774   0.920   0.515   2.758
  251SOL    HW1  775   0.900   0.496   2.662
  251SOL    HW2  776   0.957   0.433   2.801
  252SOL     OW  777   0.540   0.057   2.363
  252SOL    HW1  778   0.450   0.043   2.404
  252SOL    HW2  779   0.537   0.136   2.301
  253SOL     OW  780   1.432   1.195   1.906
  253SOL    HW1  781   1.464   1.115   1.956
  253SOL    HW2  782   1.339   1.218   1.936
  254SOL     OW  783   0.295   0.033   2.044
  254SOL    HW1  784   0.343   0.116   2.016
  254SOL    HW2  785   0.359   2.969   2.086
  255SOL     OW  786   0.939   0.250   2.331
  255SOL    HW1  787   0.899   0.294   2.251
  255SOL    HW2  788   1.038   0.258   2.329
  256SOL     OW  789   1.222   1.580   2.666
  256SOL    HW1  790   1.244   1.641   2.590
  256SOL    HW2  791   1.303   1.564   2.722
  257SOL     OW  792   0.461   1.144   2.603
  257SOL    HW1  793   0.386   1.129   2.668
  257SOL    HW2  794   0.429   1.128   2.510
  258SOL     OW  795   1.272   1.796   2.463
  258SOL    HW1  796   1.318   1.858   2.400
  258SOL    HW2  797   1.206   1.847   2.518
  259SOL     OW  798   1.024   0.550   1.881
  259SOL    HW1  799   0.983   0.637   1.856
  259SOL    HW2  800   1.093   0.564   1.952
  260SOL     OW  801   0.875   0.465   2.498
  260SOL    HW1  802   0.822   0.522   2.435
  260SOL    HW2  803   0.887   0.374   2.459
  261SOL     OW  804   1.000   0.047   2.625
  261SOL    HW1  805   0.959   0.056   2.534
  261SOL    HW2  806   0.982   2.955   2.660
  262SOL     OW  807   1.439   1.161   2.716
  262SOL    HW1  808   1.363   1.096   2.715
  262SOL    HW2  809   1.463   1.185   2.622
  263SOL     OW  810   1.490   0.582   2.822
  263SOL    HW1  811   1.421   0.510   2.834
  263SOL    HW2  812   1.520   0.614   2.912
  264SOL     OW  813   1.849   0.820   2.242
  264SOL    HW1  814   1.906   0.767   2.304
  264SOL    HW2  815   1.815   0.762   2.168
  265SOL     OW  816   0.492   1.405   2.029
  265SOL    HW1  817   0.411   1.378   2.081
  265SOL    HW2  818   0.471   1.404   1.931
  266SOL     OW  819   1.667   1.268   2.513
  266SOL    HW1  820   1.767   1.272   2.523
  266SOL    HW2  821   1.629   1.358   2.535
  267SOL     OW  822   1.391   0.574   1.935
  267SOL    HW1  823   1.329   0.553   2.010
  267SOL    HW2  824   1.482   0.538   1.955
  268SOL     OW  825   0.529   0.266   2.184
  268SOL    HW1  826   0.562   0.204   2.113
  268SOL    HW2  827   0.514   0.356   2.145
  269SOL     OW  828   1.647   1.102   2.934
  269SOL    HW1  829   1.654   1.174   0.003
  269SOL    HW2  830   1.559   1.108   2.889
  270SOL     OW  831   0.708   1.055   2.234
  270SOL    HW1  832   0.692   1.048   2.333
  270SOL    HW2  833   0.789   1.002   2.209
  271SOL     OW  834   0.359   1.105   2.355
  271SOL    HW1  835   0.358   1.186   2.296
  271SOL    HW2  836   0.361   1.023   2.299
  272SOL     OW  837   0.553   0.546   2.730
  272SOL    HW1  838   0.572   0.597   2.646
  272SOL    HW2  839   0.619   0.571   2.801
  273SOL     OW  840   1.248   1.349   2.255
  273SOL    HW1  841   1.307   1.424   2.285
  273SOL    HW2  842   1.154   1.366   2.286
  274SOL     OW  843   1.584   0.630   2.337
  274SOL    HW1  844   1.540   0.689   2.404
  274SOL    HW2  845   1.631   0.686   2.269
  275SOL     OW  846   0.576   0.869   2.881
  275SOL    HW1  847   0.622   0.955   2.857
  275SOL    HW2  848   0.537   0.876   2.972
  276SOL     OW  849   1.211   0.533   2.136
  276SOL    HW1  850   1.218   0.447   2.186
  276SOL    HW2  851   1.165   0.601   2.193
  277SOL     OW  852   0.731   0.640   2.917
  277SOL    HW1  853   0.799   0.609   2.850
  277SOL    HW2  854   0.696   0.730   2.890
  278SOL     OW  855   0.310   0.065   2.503
  278SOL    HW1  856   0.303   0.159   2.536
  278SOL    HW2  857   0.284   0.002   2.576
  279SOL     OW  858   1.610   0.373   2.233
  279SOL    HW1  859   1.647   0.304   2.295
  279SOL    HW2  860   1.585   0.455   2.284
  280SOL     OW  861   1.020   0.761   2.821
  280SOL    HW1  862   1.028   0.776   2.919
  280SOL    HW2  863   0.994   0.666   2.803
  281SOL     OW  864   1.533   0.275   1.993
  281SOL    HW1  865   1.468   0.202   2.017
  281SOL    HW2  866   1.568   0.317   2.077
  282SOL     OW  867   1.299   0.830   1.898
  282SOL    HW1  868   1.338   0.738   1.905
  282SOL    HW2  869   1.325   0.871   1.810
  283SOL     OW  870   1.056   1.345   2.699
  283SOL    HW1  871   1.065   1.257   2.651
  283SOL    HW2  872   1.133   1.404   2.676
  284SOL     OW  873   0.313   0.811   2.812
  284SOL    HW1  874   0.410   0.836   2.807
  284SOL    HW2  875   0.304   0.719   2.850
  285SOL     OW  876   0.326   0.515   2.871
  285SOL    HW1  877   0.288   0.425   2.849
  285SOL    HW2  878   0.407   0.532   2.815
  286SOL     OW  879   2.998   1.319   2.044
  286SOL    HW1  880   2.901   1.332   2.022
  286SOL    HW2  881   0.009   1.233   2.094
  287SOL     OW  882   0.095   1.812   2.806
  287SOL    HW1  883   0.052   1.731   2.766
  287SOL    HW2  884   0.190   1.819   2.773
  288SOL     OW  885   0.505   1.574   2.762
  288SOL    HW1  886   0.575   1.641   2.787
  288SOL    HW2  887   0.547   1.499   2.712
  289SOL     OW  888   0.985   0.762   0.087
  289SOL    HW1  889   1.037   0.755   0.172
  289SOL    HW2  890   0.887   0.769   0.109
  290SOL     OW  891   0.814   0.571   2.210
  290SOL    HW1  892   0.822   0.490   2.151
  290SOL    HW2  893   0.734   0.624   2.183
  291SOL     OW  894   0.700   0.450   0.100
  291SOL    HW1  895   0.611   0.404   0.091
  291SOL    HW2  896   0.705   0.525   0.035
  292SOL     OW  897   0.469   0.497   2.052
  292SOL    HW1  898   0.532   0.572   2.068
  292SOL    HW2  899   0.375   0.532   2.047
  293SOL     OW  900   1.305   0.855   2.169
  293SOL    HW1  901   1.224   0.827   2.221
  293SOL    HW2  902   1.288   0.842   2.071
  294SOL     OW  903   1.732   1.762   2.971
  294SOL    HW1  904   1.816   1.793   2.927
  294SOL    HW2  905   1.750   1.677   0.021
  295SOL     OW  906   0.076   1.248   2.899
  295SOL    HW1  907   0.052   1.272   2.993
  295SOL    HW2  908   2.998   1.267   2.839
  296SOL     OW  909   1.720   0.140   2.368
  296SOL    HW1  910   1.790   0.131   2.298
  296SOL    HW2  911   1.719   0.057   2.425
  297SOL     OW  912   1.391   1.570   2.343
  297SOL    HW1  913   1.457   1.596   2.272
  297SOL    HW2  914   1.341   1.651   2.373
  298SOL     OW  915   1.279   0.924   2.529
  298SOL    HW1  916   1.352   0.857   2.540
  298SOL    HW2  917   1.313   1.002   2.477
  299SOL     OW  918   0.673   1.612   2.016
  299SOL    HW1  919   0.682   1.626   1.918
  299SOL    HW2  920   0.619   1.529   2.033
  300SOL     OW  921   1.850   0.163   2.816
  300SOL    HW1  922   1.857   0.073   2.774
  300SOL    HW2  923   1.760   0.202   2.798
  301SOL     OW  924   0.272   0.339   2.603
  301SOL    HW1  925   0.180   0.372   2.583
  301SOL    HW2  926   0.274   0.302   2.696
  302SOL     OW  927   1.204   1.608   1.886
  302SOL    HW1  928   1.203   1.518   1.928
  302SOL    HW2  929   1.132   1.614   1.817
  303SOL     OW  930   0.917   0.910   2.149
  303SOL    HW1  931   0.981   0.945   2.081
  303SOL    HW2  932   0.959   0.834   2.198
  304SOL     OW  933   1.499   1.622   1.907
  304SOL    HW1  934   1.399   1.622   1.903
  304SOL    HW2  935   1.536   1.635   1.815
  305SOL     OW  936   1.047   1.101   2.569
  305SOL    HW1  937   0.971   1.051   2.611
  305SOL    HW2  938   1.110   1.037   2.525
  306SOL     OW  939   1.010   0.241   2.815
  306SOL    HW1  940   1.007   0.183   2.734
  306SOL    HW2  941   1.043   0.188   2.893
  307SOL     OW  942   0.599   1.489   2.345
  307SOL    HW1  943   0.640   1.433   2.273
  307SOL    HW2  944   0.534   1.553   2.305
  308SOL     OW  945   0.252   1.349   2.146
  308SOL    HW1  946   0.155   1.344   2.124
  308SOL    HW2  947   0.263   1.389   2.237
  309SOL     OW  948   0.093   0.331   1.913
  309SOL    HW1  949   0.004   0.297   1.880
  309SOL    HW2  950   0.115   0.416   1.865
  310SOL     OW  951   0.034   0.212   2.152
  310SOL    HW1  952   0.064   0.267   2.074
  310SOL    HW2  953   0.101   0.140   2.170
  311SOL     OW  954   1.185   1.345   1.987
  311SOL    HW1  955   1.090   1.316   1.981
  311SOL    HW2  956   1.216   1.341   2.082
  312SOL     OW  957   1.503   1.780   2.828
  312SOL    HW1  958   1.519   1.832   2.744
  312SOL    HW2  959   1.584   1.784   2.886
  313SOL     OW  960   1.718   0.855   0.070
  313SOL    HW1  961   1.639   0.799   0.096
  313SOL    HW2  962   1.688   0.948   0.049
  314SOL     OW  963   1.226   0.316   2.316
  314SOL    HW1  964   1.291   0.241   2.311
  314SOL    HW2  965   1.245   0.372   2.397
  315SOL     OW  966   0.592   0.743   2.523
  315SOL    HW1  967   0.637   0.831   2.510
  315SOL    HW2  968   0.514   0.736   2.461
  316SOL     OW  969   0.858   1.369   1.891
  316SOL    HW1  970   0.814   1.390   1.979
  316SOL    HW2  971   0.884   1.454   1.845
  317SOL     OW  972   0.661   1.797   2.821
  317SOL    HW1  973   0.631   1.886   2.786
  317SOL    HW2  974   0.759   1.787   2.806
  318SOL     OW  975   0.862   0.963   2.718
  318SOL    HW1  976   0.916   0.889   2.759
  318SOL    HW2  977   0.830   1.024   2.790
  319SOL     OW  978   1.081   0.988   1.949
  319SOL    HW1  979   1.054   1.039   1.867
  319SOL    HW2  980   1.160   0.932   1.928
  320SOL     OW  981   1.854   1.562   2.714
  320SOL    HW1  982   1.781   1.548   2.647
  320SOL    HW2  983   1.864   1.480   2.771
  321SOL     OW  984   0.122   1.249   2.521
  321SOL    HW1  985   0.086   1.186   2.590
  321SOL    HW2  986   0.180   1.198   2.457
  322SOL     OW  987   1.811   0.192   0.081
  322SOL    HW1  988   1.833   0.109   0.132
  322SOL    HW2  989   1.829   0.178   2.984
  323SOL     OW  990   0.459   0.431   2.400
  323SOL    HW1  991   0.458   0.365   2.325
  323SOL    HW2  992   0.401   0.398   2.474
  324SOL     OW  993   0.819   1.586   2.542
  324SOL    HW1  994   0.829   1.617   2.448
  324SOL    HW2  995   0.739   1.526   2.549
  325SOL     OW  996   0.771   1.331   2.170
  325SOL    HW1  997   0.731   1.240   2.176
  325SOL    HW2  998   0.859   1.332   2.218
  326SOL     OW  999   1.349   0.048   2.031
  326SOL    HW1 1000   1.410   2.991   1.975
  326SOL    HW2 1001   1.261   0.002   2.040
  327SOL     OW 1002   1.298   0.458   2.550
  327SOL    HW1 1003   1.240   0.539   2.555
  327SOL    HW2 1004   1.300   0.413   2.639
  328SOL     OW 1005   1.602   0.237   2.751
  328SOL    HW1 1006   1.509   0.217   2.784
  328SOL    HW2 1007   1.598   0.313   2.686
  329SOL     OW 1008   0.060   1.083   2.169
  329SOL    HW1 1009   0.154   1.049   2.161
  329SOL    HW2 1010   0.000   1.009   2.198
  330SOL     OW 1011   0.877   1.649   2.209
  330SOL    HW1 1012   0.806   1.625   2.142
  330SOL    HW2 1013   0.848   1.729   2.260
  331SOL     OW 1014   0.229   2.513   0.098
  331SOL    HW1 1015   0.163   2.467   0.157
  331SOL    HW2 1016   0.249   2.454   0.019
  332SOL     OW 1017   0.214   2.137   0.991
  332SOL    HW1 1018   0.252   2.110   1.079
  332SOL    HW2 1019   0.124   2.095   0.978
  333SOL     OW 1020   0.017   2.248   0.641
  333SOL    HW1 1021   2.930   2.283   0.677
  333SOL    HW2 1022   0.000   2.160   0.597
  334SOL     OW 1023   1.134   2.568   0.705
  334SOL    HW1 1024   1.185   2.652   0.690
  334SOL    HW2 1025   1.077   2.578   0.787
  335SOL     OW 1026   1.756   2.461   0.228
  335SOL    HW1 1027   1.749   2.442   0.131
  335SOL    HW2 1028   1.725   2.381   0.280
  336SOL     OW 1029   0.762   0.008   1.030
  336SOL    HW1 1030   0.675   0.032   1.073
  336SOL    HW2 1031   0.792   0.083   0.971
  337SOL     OW 1032   0.860   2.647   1.819
  337SOL    HW1 1033   0.844   2.713   1.892
  337SOL    HW2 1034   0.885   2.696   1.735
  338SOL     OW 1035   0.659   2.848   0.700
  338SOL    HW1 1036   0.754   2.855   0.730
  338SOL    HW2 1037   0.624   2.939   0.679
  339SOL     OW 1038   0.467   2.267   1.491
  339SOL    HW1 1039   0.542   2.201   1.493
  339SOL    HW2 1040   0.380   2.220   1.507
  340SOL     OW 1041   1.613   2.312   0.738
  340SOL    HW1 1042   1.533   2.340   0.686
  340SOL    HW2 1043   1.643   2.388   0.797
  341SOL     OW 1044   0.214   0.307   0.472
  341SOL    HW1 1045   0.224   0.392   0.523
  341SOL    HW2 1046   0.186   0.234   0.534
  342SOL     OW 1047   0.238   2.946   0.880
  342SOL    HW1 1048   0.257   2.860   0.926
  342SOL    HW2 1049   0.195   0.010   0.944
  343SOL     OW 1050   0.616   2.830   0.145
  343SOL    HW1 1051   0.600   2.922   0.110
  343SOL    HW2 1052   0.668   2.836   0.230
  344SOL     OW 1053   1.593   2.006   1.469
  344SOL    HW1 1054   1.591   2.086   1.409
  344SOL    HW2 1055   1.591   2.036   1.564
  345SOL     OW 1056   0.121   2.499   0.568
  345SOL    HW1 1057   0.089   2.408   0.597
  345SOL    HW2 1058   0.114   2.562   0.645
  346SOL     OW 1059   1.698   2.806   0.624
  346SOL    HW1 1060   1.778   2.747   0.631
  346SOL    HW2 1061   1.682   2.829   0.528
  347SOL     OW 1062   0.122   2.608   1.590
  347SOL    HW1 1063   0.220   2.609   1.610
  347SOL    HW2 1064   0.085   2.700   1.597
  348SOL     OW 1065   0.654   0.237   0.685
  348SOL    HW1 1066   0.590   0.171   0.726
  348SOL    HW2 1067   0.604   0.296   0.621
  349SOL     OW 1068   1.300   0.054   1.434
  349SOL    HW1 1069   1.336   2.997   1.360
  349SOL    HW2 1070   1.375   0.103   1.478
  350SOL     OW 1071   0.810   1.863   0.503
  350SOL    HW1 1072   0.855   1.951   0.490
  350SOL    HW2 1073   0.712   1.877   0.514
  351SOL     OW 1074   0.193   2.836   1.257
  351SOL    HW1 1075   0.281   2.788   1.250
  351SOL    HW2 1076   0.119   2.773   1.234
  352SOL     OW 1077   1.525   2.846   0.202
  352SOL    HW1 1078   1.450   2.792   0.242
  352SOL    HW2 1079   1.590   2.870   0.275
  353SOL     OW 1080   0.330   2.112   1.805
  353SOL    HW1 1081   0.388   2.193   1.818
  353SOL    HW2 1082   0.240   2.128   1.845
  354SOL     OW 1083   0.594   2.585   0.268
  354SOL    HW1 1084   0.606   2.665   0.210
  354SOL    HW2 1085   0.524   2.604   0.337
  355SOL     OW 1086   1.281   2.206   0.933
  355SOL    HW1 1087   1.187   2.172   0.935
  355SOL    HW2 1088   1.336   2.155   0.999
  356SOL     OW 1089   0.795   2.474   1.456
  356SOL    HW1 1090   0.766   2.457   1.550
  356SOL    HW2 1091   0.749   2.410   1.395
  357SOL     OW 1092   1.393   2.333   1.677
  357SOL    HW1 1093   1.388   2.381   1.765
  357SOL    HW2 1094   1.464   2.262   1.683
  358SOL     OW 1095   0.962   2.755   1.584
  358SOL    HW1 1096   1.017   2.679   1.551
  358SOL    HW2 1097   0.908   2.793   1.509
  359SOL     OW 1098   0.993   2.275   1.237
  359SOL    HW1 1099   0.912   2.302   1.289
  359SOL    HW2 1100   0.965   2.220   1.158
  360SOL     OW 1101   1.046   2.565   0.424
  360SOL    HW1 1102   1.065   2.561   0.523
  360SOL    HW2 1103   0.963   2.513   0.404
  361SOL     OW 1104   0.101   2.674   0.768
  361SOL    HW1 1105   0.184   2.670   0.823
  361SOL    HW2 1106   0.044   2.750   0.799
  362SOL     OW 1107   0.923   2.197   0.219
  362SOL    HW1 1108   0.930   2.264   0.146
  362SOL    HW2 1109   0.893   2.109   0.181
  363SOL     OW 1110   1.711   2.441   1.827
  363SOL    HW1 1111   1.678   2.525   1.785
  363SOL    HW2 1112   1.733   2.374   1.756
  364SOL     OW 1113   0.545   2.049   0.893
  364SOL    HW1 1114   0.550   2.069   0.990
  364SOL    HW2 1115   0.552   2.133   0.840
  365SOL     OW 1116   1.797   2.911   0.868
  365SOL    HW1 1117   1.739   2.895   0.788
  365SOL    HW2 1118   1.739   2.923   0.949
  366SOL     OW 1119   1.476   2.598   0.726
  366SOL    HW1 1120   1.455   2.542   0.807
  366SOL    HW2 1121   1.552   2.659   0.747
  367SOL     OW 1122   0.228   2.169   1.513
  367SOL    HW1 1123   0.145   2.212   1.478
  367SOL    HW2 1124   0.204   2.087   1.565
  368SOL     OW 1125   1.402   1.968   0.427
  368SOL    HW1 1126   1.387   1.944   0.331
  368SOL    HW2 1127   1.500   1.981   0.443
  369SOL     OW 1128   0.386   2.555   0.477
  369SOL    HW1 1129   0.419   2.461   0.481
  369SOL    HW2 1130   0.289   2.558   0.503
  370SOL     OW 1131   1.541   2.092   1.729
  370SOL    HW1 1132   1.545   2.114   1.826
  370SOL    HW2 1133   1.476   2.018   1.713
  371SOL     OW 1134   0.626   1.987   0.116
  371SOL    HW1 1135   0.722   1.960   0.122
  371SOL    HW2 1136   0.584   1.943   0.036
  372SOL     OW 1137   0.771   2.134   1.751
  372SOL    HW1 1138   0.845   2.070   1.768
  372SOL    HW2 1139   0.710   2.136   1.831
  373SOL     OW 1140   1.343   2.451   1.434
  373SOL    HW1 1141   1.373   2.412   1.521
  373SOL    HW2 1142   1.379   2.544   1.425
  374SOL     OW 1143   0.926   2.371   0.901
  374SOL    HW1 1144   0.900   2.362   0.805
  374SOL    HW2 1145   0.963   2.284   0.934
  375SOL     OW 1146   0.545   1.924   0.507
  375SOL    HW1 1147   0.461   1.924   0.562
  375SOL    HW2 1148   0.547   2.004   0.448
  376SOL     OW 1149   0.939   2.102   0.472
  376SOL    HW1 1150   0.904   2.143   0.388
  376SOL    HW2 1151   1.039   2.111   0.475
  377SOL     OW 1152   1.079   2.542   1.459
  377SOL    HW1 1153   1.000   2.482   1.467
  377SOL    HW2 1154   1.163   2.488   1.451
  378SOL     OW 1155   1.045   2.370   0.024
  378SOL    HW1 1156   0.993   2.452   0.001
  378SOL    HW2 1157   1.108   2.390   0.099
  379SOL     OW 1158   0.085   2.419   1.396
  379SOL    HW1 1159   0.174   2.420   1.349
  379SOL    HW2 1160   0.083   2.491   1.465
  380SOL     OW 1161   0.563   2.086   1.162
  380SOL    HW1 1162   0.604   2.001   1.195
  380SOL    HW2 1163   0.467   2.090   1.191
  381SOL     OW 1164   0.871   2.321   0.639
  381SOL    HW1 1165   0.821   2.383   0.578
  381SOL    HW2 1166   0.891   2.236   0.591
  382SOL     OW 1167   1.014   1.912   0.753
  382SOL    HW1 1168   0.952   1.910   0.676
  382SOL    HW2 1169   0.994   1.835   0.814
  383SOL     OW 1170   1.429   0.001   0.871
  383SOL    HW1 1171   1.358   2.937   0.841
  383SOL    HW2 1172   1.450   0.064   0.797
  384SOL     OW 1173   1.469   2.461   0.987
  384SOL    HW1 1174   1.421   2.373   0.987
  384SOL    HW2 1175   1.536   2.462   1.061
  385SOL     OW 1176   1.837   2.671   0.389
  385SOL    HW1 1177   1.900   2.619   0.445
  385SOL    HW2 1178   1.816   2.620   0.306
  386SOL     OW 1179   1.407   2.442   0.101
  386SOL    HW1 1180   1.332   2.426   0.165
  386SOL    HW2 1181   1.470   2.365   0.102
  387SOL     OW 1182   0.526   2.125   0.326
  387SOL    HW1 1183   0.558   2.066   0.251
  387SOL    HW2 1184   0.508   2.217   0.291
  388SOL     OW 1185   1.783   0.078   1.597
  388SOL    HW1 1186   1.873   0.041   1.578
  388SOL    HW2 1187   1.792   0.172   1.630
  389SOL     OW 1188   1.629   2.958   1.079
  389SOL    HW1 1189   1.647   0.043   1.129
  389SOL    HW2 1190   1.550   2.971   1.020
  390SOL     OW 1191   0.920   1.962   1.401
  390SOL    HW1 1192   0.938   1.937   1.306
  390SOL    HW2 1193   1.001   2.007   1.439
  391SOL     OW 1194   0.415   2.677   1.254
  391SOL    HW1 1195   0.491   2.687   1.318
  391SOL    HW2 1196   0.374   2.586   1.264
  392SOL     OW 1197   1.269   2.243   1.270
  392SOL    HW1 1198   1.303   2.321   1.322
  392SOL    HW2 1199   1.176   2.262   1.238
  393SOL     OW 1200   0.559   2.404   0.863
  393SOL    HW1 1201   0.575   2.461   0.783
  393SOL    HW2 1202   0.620   2.432   0.937
  394SOL     OW 1203   1.580   2.492   0.472
  394SOL    HW1 1204   1.540   2.549   0.544
  394SOL    HW2 1205   1.637   2.548   0.413
  395SOL     OW 1206   0.411   2.604   1.601
  395SOL    HW1 1207   0.470   2.656   1.541
  395SOL    HW2 1208   0.453   2.516   1.622
  396SOL     OW 1209   1.593   2.639   1.676
  396SOL    HW1 1210   1.500   2.676   1.670
  396SOL    HW2 1211   1.651   2.683   1.607
  397SOL     OW 1212   0.997   1.980   1.764
  397SOL    HW1 1213   1.043   2.058   1.721
  397SOL    HW2 1214   1.034   1.895   1.726
  398SOL     OW 1215   0.498   1.909   1.743
  398SOL    HW1 1216   0.460   1.847   1.674
  398SOL    HW2 1217   0.433   1.982   1.762
  399SOL     OW 1218   0.589   2.728   1.039
  399SOL    HW1 1219   0.605   2.823   1.011
  399SOL    HW2 1220   0.518   2.725   1.110
  400SOL     OW 1221   1.353   2.716   1.036
  400SOL    HW1 1222   1.280   2.713   0.968
  400SOL    HW2 1223   1.399   2.627   1.040
  401SOL     OW 1224   1.206   2.394   0.275
  401SOL    HW1 1225   1.214   2.305   0.321
  401SOL    HW2 1226   1.161   2.459   0.336
  402SOL     OW 1227   0.301   2.067   1.240
  402SOL    HW1 1228   0.284   2.103   1.332
  402SOL    HW2 1229   0.284   1.968   1.240
  403SOL     OW 1230   0.055   0.169   1.274
  403SOL    HW1 1231   0.089   0.130   1.360
  403SOL    HW2 1232   0.024   0.263   1.290
  404SOL     OW 1233   0.732   2.495   1.063
  404SOL    HW1 1234   0.800   2.470   0.994
  404SOL    HW2 1235   0.694   2.586   1.041
  405SOL     OW 1236   1.733   2.818   1.845
  405SOL    HW1 1237   1.683   2.767   1.776
  405SOL    HW2 1238   1.676   2.828   1.927
  406SOL     OW 1239   0.301   1.930   0.624
  406SOL    HW1 1240   0.286   2.026   0.650
  406SOL    HW2 1241   0.308   1.874   0.707
  407SOL     OW 1242   1.617   2.234   0.371
  407SOL    HW1 1243   1.642   2.163   0.436
  407SOL    HW2 1244   1.585   2.315   0.420
  408SOL     OW 1245   1.023   2.620   0.968
  408SOL    HW1 1246   1.030   2.638   1.066
  408SOL    HW2 1247   0.995   2.525   0.953
  409SOL     OW 1248   0.353   2.784   1.797
  409SOL    HW1 1249   0.422   2.791   1.869
  409SOL    HW2 1250   0.379   2.711   1.733
  410SOL     OW 1251   1.512   2.156   0.127
  410SOL    HW1 1252   1.468   2.068   0.141
  410SOL    HW2 1253   1.565   2.180   0.209
  411SOL     OW 1254   1.297   2.687   0.038
  411SOL    HW1 1255   1.337   2.597   0.053
  411SOL    HW2 1256   1.324   2.721   2.947
  412SOL     OW 1257   0.315   2.677   0.953
  412SOL    HW1 1258   0.412   2.694   0.938
  412SOL    HW2 1259   0.302   2.584   0.988
  413SOL     OW 1260   0.338   2.376   1.012
  413SOL    HW1 1261   0.292   2.289   0.992
  413SOL    HW2 1262   0.416   2.387   0.949
  414SOL     OW 1263   1.136   2.242   1.682
  414SOL    HW1 1264   1.087   2.299   1.747
  414SOL    HW2 1265   1.230   2.275   1.672
  415SOL     OW 1266   1.155   2.073   1.473
  415SOL    HW1 1267   1.150   2.136   1.550
  415SOL    HW2 1268   1.195   2.119   1.394
  416SOL     OW 1269   0.988   2.669   1.235
  416SOL    HW1 1270   1.042   2.635   1.312
  416SOL    HW2 1271   0.901   2.620   1.232
  417SOL     OW 1272   0.051   2.435   1.113
  417SOL    HW1 1273   0.126   2.383   1.072
  417SOL    HW2 1274   0.034   2.401   1.206
  418SOL     OW 1275   0.199   2.380   1.721
  418SOL    HW1 1276   0.265   2.347   1.654
  418SOL    HW2 1277   0.150   2.458   1.683
  419SOL     OW 1278   1.374   2.807   1.660
  419SOL    HW1 1279   1.409   2.900   1.670
  419SOL    HW2 1280   1.373   2.782   1.563
  420SOL     OW 1281   0.819   2.437   0.346
  420SOL    HW1 1282   0.824   2.354   0.290
  420SOL    HW2 1283   0.735   2.486   0.325
  421SOL     OW 1284   1.646   2.465   1.193
  421SOL    HW1 1285   1.626   2.401   1.267
  421SOL    HW2 1286   1.736   2.444   1.154
  422SOL     OW 1287   0.691   2.319   1.264
  422SOL    HW1 1288   0.641   2.237   1.234
  422SOL    HW2 1289   0.695   2.384   1.188
  423SOL     OW 1290   0.438   2.360   0.210
  423SOL    HW1 1291   0.518   2.420   0.215
  423SOL    HW2 1292   0.357   2.414   0.192
  424SOL     OW 1293   0.163   0.003   1.468
  424SOL    HW1 1294   0.155   2.951   1.554
  424SOL    HW2 1295   0.175   2.941   1.392
  425SOL     OW 1296   1.354   2.909   1.220
  425SOL    HW1 1297   1.365   2.842   1.146
  425SOL    HW2 1298   1.270   2.961   1.206
  426SOL     OW 1299   1.300   2.721   0.310
  426SOL    HW1 1300   1.222   2.682   0.360
  426SOL    HW2 1301   1.290   2.700   0.213
  427SOL     OW 1302   0.898   1.940   0.129
  427SOL    HW1 1303   0.950   1.934   0.044
  427SOL    HW2 1304   0.950   1.898   0.203
  428SOL     OW 1305   1.715   1.999   0.511
  428SOL    HW1 1306   1.798   1.994   0.457
  428SOL    HW2 1307   1.699   1.912   0.557
  429SOL     OW 1308   1.291   2.792   0.680
  429SOL    HW1 1309   1.359   2.719   0.680
  429SOL    HW2 1310   1.307   2.852   0.602
  430SOL     OW 1311   1.840   2.036   0.964
  430SOL    HW1 1312   1.874   1.945   0.938
  430SOL    HW2 1313   1.747   2.047   0.929
  431SOL     OW 1314   0.268   2.181   0.722
  431SOL    HW1 1315   0.183   2.222   0.688
  431SOL    HW2 1316   0.261   2.167   0.821
  432SOL     OW 1317   0.812   2.862   1.371
  432SOL    HW1 1318   0.869   2.836   1.293
  432SOL    HW2 1319   0.835   2.955   1.399
  433SOL     OW 1320   0.907   2.788   0.292
  433SOL    HW1 1321   0.981   2.813   0.230
  433SOL    HW2 1322   0.940   2.721   0.358
  434SOL     OW 1323   1.018   2.100   0.966
  434SOL    HW1 1324   1.011   2.055   0.877
  434SOL    HW2 1325   1.013   2.032   1.039
  435SOL     OW 1326   1.719   2.254   1.378
  435SOL    HW1 1327   1.791   2.324   1.379
  435SOL    HW2 1328   1.748   2.177   1.322
  436SOL     OW 1329   0.115   2.868   1.703
  436SOL    HW1 1330   0.038   2.840   1.761
  436SOL    HW2 1331   0.200   2.850   1.751
  437SOL     OW 1332   0.674   2.060   1.497
  437SOL    HW1 1333   0.760   2.041   1.449
  437SOL    HW2 1334   0.693   2.082   1.592
  438SOL     OW 1335   0.059   2.185   0.049
  438SOL    HW1 1336   2.964   2.192   0.017
  438SOL    HW2 1337   0.114   2.258   0.008
  439SOL     OW 1338   1.434   2.719   1.403
  439SOL    HW1 1339   1.384   2.777   1.339
  439SOL    HW2 1340   1.531   2.719   1.380
  440SOL     OW 1341   0.067   2.054   0.322
  440SOL    HW1 1342   0.050   2.104   0.237
  440SOL    HW2 1343   0.138   1.985   0.307
  441SOL     OW 1344   1.146   0.218   0.099
  441SOL    HW1 1345   1.058   0.232   0.145
  441SOL    HW2 1346   1.220   0.224   0.166
  442SOL     OW 1347   0.614   2.694   1.433
  442SOL    HW1 1348   0.672   2.773   1.416
  442SOL    HW2 1349   0.672   2.612   1.443
  443SOL     OW 1350   0.718   2.427   1.708
  443SOL    HW1 1351   0.749   2.497   1.773
  443SOL    HW2 1352   0.762   2.340   1.730
  444SOL     OW 1353   1.677   2.744   1.255
  444SOL    HW1 1354   1.664   2.652   1.218
  444SOL    HW2 1355   1.661   2.811   1.182
  445SOL     OW 1356   1.224   2.180   0.458
  445SOL    HW1 1357   1.290   2.106   0.444
  445SOL    HW2 1358   1.250   2.233   0.539
  446SOL     OW 1359   0.592   2.592   0.658
  446SOL    HW1 1360   0.627   2.685   0.663
  446SOL    HW2 1361   0.513   2.589   0.596
  447SOL     OW 1362   1.764   2.223   1.647
  447SOL    HW1 1363   1.751   2.233   1.548
  447SOL    HW2 1364   1.694   2.162   1.684
  448SOL     OW 1365   1.735   2.796   1.514
  448SOL    HW1 1366   1.755   2.891   1.538
  448SOL    HW2 1367   1.727   2.787   1.415
  449SOL     OW 1368   0.883   2.829   0.863
  449SOL    HW1 1369   0.921   2.745   0.902
  449SOL    HW2 1370   0.826   2.875   0.931
  450SOL     OW 1371   1.111   2.890   0.082
  450SOL    HW1 1372   1.056   2.894   2.999
  450SOL    HW2 1373   1.172   2.811   0.079
  451SOL     OW 1374   1.815   2.051   1.235
  451SOL    HW1 1375   1.811   1.956   1.267
  451SOL    HW2 1376   1.826   2.052   1.136
  452SOL     OW 1377   0.431   2.292   0.525
  452SOL    HW1 1378   0.462   2.220   0.463
  452SOL    HW2 1379   0.383   2.250   0.603
  453SOL     OW 1380   0.331   2.413   1.287
  453SOL    HW1 1381   0.389   2.358   1.347
  453SOL    HW2 1382   0.348   2.388   1.192
  454SOL     OW 1383   1.430   2.083   1.118
  454SOL    HW1 1384   1.478   2.009   1.165
  454SOL    HW2 1385   1.376   2.135   1.184
  455SOL     OW 1386   1.005   1.885   1.148
  455SOL    HW1 1387   0.941   1.817   1.113
  455SOL    HW2 1388   1.098   1.849   1.141
  456SOL     OW 1389   1.352   1.913   0.164
  456SOL    HW1 1390   1.384   1.866   0.082
  456SOL    HW2 1391   1.262   1.876   0.190
  457SOL     OW 1392   1.299   2.323   0.687
  457SOL    HW1 1393   1.239   2.403   0.692
  457SOL    HW2 1394   1.299   2.276   0.776
  458SOL     OW 1395   1.588   2.073   0.878
  458SOL    HW1 1396   1.517   2.082   0.948
  458SOL    HW2 1397   1.590   2.155   0.821
  459SOL     OW 1398   0.008   2.895   0.285
  459SOL    HW1 1399   0.102   2.921   0.265
  459SOL    HW2 1400   0.005   2.844   0.372
  460SOL     OW 1401   0.225   2.507   1.966
  460SOL    HW1 1402   0.161   2.461   2.028
  460SOL    HW2 1403   0.227   2.459   1.879
  461SOL     OW 1404   0.235   2.125   2.840
  461SOL    HW1 1405   0.270   2.106   2.931
  461SOL    HW2 1406   0.142   2.088   2.832
  462SOL     OW 1407   0.016   2.248   2.502
  462SOL    HW1 1408   2.930   2.283   2.539
  462SOL    HW2 1409   0.001   2.158   2.462
  463SOL     OW 1410   1.134   2.568   2.567
  463SOL    HW1 1411   1.186   2.652   2.551
  463SOL    HW2 1412   1.078   2.579   2.650
  464SOL     OW 1413   1.758   2.469   2.092
  464SOL    HW1 1414   1.743   2.459   1.993
  464SOL    HW2 1415   1.728   2.385   2.138
  465SOL     OW 1416   0.781   0.012   2.882
  465SOL    HW1 1417   0.694   0.022   2.930
  465SOL    HW2 1418   0.798   0.093   2.826
  466SOL     OW 1419   0.660   2.847   2.557
  466SOL    HW1 1420   0.752   2.852   2.594
  466SOL    HW2 1421   0.623   2.939   2.544
  467SOL     OW 1422   1.617   2.312   2.594
  467SOL    HW1 1423   1.534   2.338   2.544
  467SOL    HW2 1424   1.637   2.381   2.663
  468SOL     OW 1425   0.215   0.306   2.335
  468SOL    HW1 1426   0.224   0.392   2.387
  468SOL    HW2 1427   0.187   0.233   2.397
  469SOL     OW 1428   0.236   2.946   2.744
  469SOL    HW1 1429   0.257   2.859   2.787
  469SOL    HW2 1430   0.201   0.010   2.812
  470SOL     OW 1431   0.611   2.825   1.989
  470SOL    HW1 1432   0.601   2.910   1.938
  470SOL    HW2 1433   0.661   2.842   2.074
  471SOL     OW 1434   0.120   2.497   2.429
  471SOL    HW1 1435   0.089   2.407   2.461
  471SOL    HW2 1436   0.117   2.562   2.505
  472SOL     OW 1437   1.697   2.806   2.485
  472SOL    HW1 1438   1.778   2.748   2.494
  472SOL    HW2 1439   1.682   2.827   2.389
  473SOL     OW 1440   0.643   0.243   2.559
  473SOL    HW1 1441   0.589   0.161   2.575
  473SOL    HW2 1442   0.604   0.295   2.483
  474SOL     OW 1443   0.809   1.862   2.363
  474SOL    HW1 1444   0.856   1.950   2.351
  474SOL    HW2 1445   0.712   1.878   2.377
  475SOL     OW 1446   0.207   2.808   0.097
  475SOL    HW1 1447   0.285   2.745   0.104
  475SOL    HW2 1448   0.122   2.756   0.096
  476SOL     OW 1449   1.542   2.838   2.047
  476SOL    HW1 1450   1.464   2.784   2.080
  476SOL    HW2 1451   1.590   2.879   2.124
  477SOL     OW 1452   0.596   2.584   2.127
  477SOL    HW1 1453   0.609   2.662   2.066
  477SOL    HW2 1454   0.526   2.606   2.196
  478SOL     OW 1455   1.294   2.195   2.804
  478SOL    HW1 1456   1.196   2.177   2.799
  478SOL    HW2 1457   1.331   2.160   2.890
  479SOL     OW 1458   1.049   2.561   2.290
  479SOL    HW1 1459   1.064   2.558   2.389
  479SOL    HW2 1460   0.963   2.514   2.268
  480SOL     OW 1461   0.103   2.674   2.628
  480SOL    HW1 1462   0.186   2.669   2.684
  480SOL    HW2 1463   0.044   2.747   2.663
  481SOL     OW 1464   0.880   2.208   2.056
  481SOL    HW1 1465   0.929   2.273   1.998
  481SOL    HW2 1466   0.898   2.115   2.024
  482SOL     OW 1467   0.552   2.049   2.762
  482SOL    HW1 1468   0.524   2.074   2.855
  482SOL    HW2 1469   0.557   2.132   2.706
  483SOL     OW 1470   1.797   2.913   2.729
  483SOL    HW1 1471   1.738   2.895   2.651
  483SOL    HW2 1472   1.742   2.921   2.812
  484SOL     OW 1473   1.475   2.600   2.587
  484SOL    HW1 1474   1.460   2.540   2.666
  484SOL    HW2 1475   1.554   2.659   2.604
  485SOL     OW 1476   1.401   1.968   2.290
  485SOL    HW1 1477   1.385   1.942   2.194
  485SOL    HW2 1478   1.500   1.981   2.304
  486SOL     OW 1479   0.392   2.553   2.341
  486SOL    HW1 1480   0.417   2.457   2.350
  486SOL    HW2 1481   0.294   2.564   2.359
  487SOL     OW 1482   0.623   1.987   1.970
  487SOL    HW1 1483   0.709   1.940   1.985
  487SOL    HW2 1484   0.579   1.952   1.887
  488SOL     OW 1485   0.921   2.378   2.758
  488SOL    HW1 1486   0.899   2.357   2.662
  488SOL    HW2 1487   0.961   2.297   2.801
  489SOL     OW 1488   0.545   1.925   2.369
  489SOL    HW1 1489   0.461   1.924   2.423
  489SOL    HW2 1490   0.546   2.006   2.310
  490SOL     OW 1491   0.294   1.904   2.041
  490SOL    HW1 1492   0.349   1.981   2.009
  490SOL    HW2 1493   0.353   1.837   2.085
  491SOL     OW 1494   0.937   2.102   2.329
  491SOL    HW1 1495   0.897   2.149   2.251
  491SOL    HW2 1496   1.036   2.113   2.328
  492SOL     OW 1497   1.028   2.410   1.879
  492SOL    HW1 1498   0.981   2.495   1.854
  492SOL    HW2 1499   1.093   2.428   1.953
  493SOL     OW 1500   0.870   2.319   2.500
  493SOL    HW1 1501   0.822   2.383   2.440
  493SOL    HW2 1502   0.890   2.235   2.450
  494SOL     OW 1503   1.012   1.909   2.615
  494SOL    HW1 1504   0.952   1.909   2.535
  494SOL    HW2 1505   0.993   1.830   2.673
  495SOL     OW 1506   1.425   0.005   2.735
  495SOL    HW1 1507   1.354   2.941   2.705
  495SOL    HW2 1508   1.452   0.064   2.659
  496SOL     OW 1509   1.488   2.446   2.822
  496SOL    HW1 1510   1.420   2.374   2.836
  496SOL    HW2 1511   1.522   2.477   2.911
  497SOL     OW 1512   1.841   2.672   2.251
  497SOL    HW1 1513   1.902   2.619   2.309
  497SOL    HW2 1514   1.815   2.617   2.171
  498SOL     OW 1515   1.391   2.436   1.935
  498SOL    HW1 1516   1.331   2.414   2.012
  498SOL    HW2 1517   1.483   2.404   1.954
  499SOL     OW 1518   0.529   2.125   2.184
  499SOL    HW1 1519   0.563   2.066   2.110
  499SOL    HW2 1520   0.514   2.217   2.149
  500SOL     OW 1521   1.629   2.965   2.938
  500SOL    HW1 1522   1.640   0.044   2.999
  500SOL    HW2 1523   1.550   2.981   2.878
  501SOL     OW 1524   0.557   2.401   2.726
  501SOL    HW1 1525   0.572   2.459   2.646
  501SOL    HW2 1526   0.617   2.432   2.801
  502SOL     OW 1527   1.579   2.490   2.333
  502SOL    HW1 1528   1.541   2.549   2.405
  502SOL    HW2 1529   1.636   2.546   2.272
  503SOL     OW 1530   0.575   2.726   2.881
  503SOL    HW1 1531   0.621   2.811   2.856
  503SOL    HW2 1532   0.542   2.733   2.975
  504SOL     OW 1533   1.208   2.391   2.135
  504SOL    HW1 1534   1.218   2.307   2.188
  504SOL    HW2 1535   1.163   2.461   2.191
  505SOL     OW 1536   0.322   2.062   0.085
  505SOL    HW1 1537   0.305   2.112   0.170
  505SOL    HW2 1538   0.295   1.967   0.096
  506SOL     OW 1539   0.732   2.502   2.917
  506SOL    HW1 1540   0.798   2.472   2.848
  506SOL    HW2 1541   0.693   2.590   2.890
  507SOL     OW 1542   0.302   1.931   2.486
  507SOL    HW1 1543   0.285   2.026   2.511
  507SOL    HW2 1544   0.306   1.874   2.568
  508SOL     OW 1545   1.613   2.233   2.233
  508SOL    HW1 1546   1.642   2.164   2.299
  508SOL    HW2 1547   1.586   2.316   2.281
  509SOL     OW 1548   1.021   2.621   2.823
  509SOL    HW1 1549   1.029   2.634   2.922
  509SOL    HW2 1550   0.994   2.527   2.804
  510SOL     OW 1551   1.532   2.135   1.991
  510SOL    HW1 1552   1.465   2.065   2.016
  510SOL    HW2 1553   1.567   2.178   2.074
  511SOL     OW 1554   1.298   2.690   1.897
  511SOL    HW1 1555   1.338   2.599   1.906
  511SOL    HW2 1556   1.324   2.729   1.809
  512SOL     OW 1557   0.313   2.674   2.811
  512SOL    HW1 1558   0.411   2.696   2.806
  512SOL    HW2 1559   0.301   2.582   2.849
  513SOL     OW 1560   0.325   2.381   2.866
  513SOL    HW1 1561   0.289   2.289   2.853
  513SOL    HW2 1562   0.408   2.393   2.811
  514SOL     OW 1563   0.989   2.626   0.088
  514SOL    HW1 1564   1.036   2.612   0.175
  514SOL    HW2 1565   0.890   2.632   0.105
  515SOL     OW 1566   0.816   2.431   2.210
  515SOL    HW1 1567   0.819   2.350   2.151
  515SOL    HW2 1568   0.736   2.487   2.185
  516SOL     OW 1569   0.700   2.315   0.105
  516SOL    HW1 1570   0.622   2.254   0.090
  516SOL    HW2 1571   0.701   2.386   0.035
  517SOL     OW 1572   0.468   2.359   2.050
  517SOL    HW1 1573   0.532   2.433   2.070
  517SOL    HW2 1574   0.375   2.395   2.049
  518SOL     OW 1575   1.300   2.723   2.170
  518SOL    HW1 1576   1.222   2.686   2.220
  518SOL    HW2 1577   1.289   2.703   2.072
  519SOL     OW 1578   1.717   2.000   2.373
  519SOL    HW1 1579   1.797   1.992   2.313
  519SOL    HW2 1580   1.701   1.912   2.418
  520SOL     OW 1581   1.291   2.794   2.542
  520SOL    HW1 1582   1.358   2.719   2.544
  520SOL    HW2 1583   1.308   2.851   2.461
  521SOL     OW 1584   1.840   2.038   2.821
  521SOL    HW1 1585   1.875   1.947   2.797
  521SOL    HW2 1586   1.746   2.047   2.788
  522SOL     OW 1587   0.269   2.182   2.579
  522SOL    HW1 1588   0.183   2.223   2.549
  522SOL    HW2 1589   0.266   2.166   2.678
  523SOL     OW 1590   0.908   2.759   2.123
  523SOL    HW1 1591   0.983   2.809   2.079
  523SOL    HW2 1592   0.945   2.703   2.198
  524SOL     OW 1593   1.029   2.103   2.813
  524SOL    HW1 1594   1.015   2.052   2.728
  524SOL    HW2 1595   1.014   2.043   2.891
  525SOL     OW 1596   0.091   2.189   1.916
  525SOL    HW1 1597   0.004   2.155   1.881
  525SOL    HW2 1598   0.113   2.276   1.871
  526SOL     OW 1599   0.070   2.053   2.181
  526SOL    HW1 1600   0.063   2.110   2.099
  526SOL    HW2 1601   0.142   1.985   2.167
  527SOL     OW 1602   1.145   0.247   1.992
  527SOL    HW1 1603   1.090   0.167   1.968
  527SOL    HW2 1604   1.214   0.221   2.059
  528SOL     OW 1605   1.725   2.712   0.058
  528SOL    HW1 1606   1.650   2.656   0.096
  528SOL    HW2 1607   1.695   2.806   0.049
  529SOL     OW 1608   1.222   2.181   2.319
  529SOL    HW1 1609   1.288   2.107   2.306
  529SOL    HW2 1610   1.247   2.234   2.400
  530SOL     OW 1611   0.593   2.591   2.520
  530SOL    HW1 1612   0.629   2.685   2.525
  530SOL    HW2 1613   0.515   2.588   2.458
  531SOL     OW 1614   0.877   2.825   2.721
  531SOL    HW1 1615   0.922   2.745   2.761
  531SOL    HW2 1616   0.838   2.882   2.794
  532SOL     OW 1617   1.098   2.867   1.952
  532SOL    HW1 1618   1.057   2.902   1.868
  532SOL    HW2 1619   1.161   2.792   1.930
  533SOL     OW 1620   1.828   2.056   0.091
  533SOL    HW1 1621   1.804   1.962   0.118
  533SOL    HW2 1622   1.829   2.062   2.991
  534SOL     OW 1623   0.428   2.290   2.382
  534SOL    HW1 1624   0.461   2.216   2.324
  534SOL    HW2 1625   0.382   2.252   2.462
  535SOL     OW 1626   1.350   1.915   2.027
  535SOL    HW1 1627   1.384   1.863   1.949
  535SOL    HW2 1628   1.261   1.880   2.055
  536SOL     OW 1629   1.297   2.320   2.550
  536SOL    HW1 1630   1.240   2.402   2.556
  536SOL    HW2 1631   1.301   2.276   2.639
  537SOL     OW 1632   1.588   2.078   2.740
  537SOL    HW1 1633   1.503   2.086   2.793
  537SOL    HW2 1634   1.597   2.156   2.679
  538SOL     OW 1635   0.024   2.928   2.153
  538SOL    HW1 1636   0.124   2.925   2.150
  538SOL    HW2 1637   2.991   2.865   2.223
  539SOL     OW 1638   2.091   0.635   0.117
  539SOL    HW1 1639   1.995   0.627   0.144
  539SOL    HW2 1640   2.104   0.594   0.026
  540SOL     OW 1641   2.079   0.281   1.003
  540SOL    HW1 1642   2.115   0.251   1.091
  540SOL    HW2 1643   1.988   0.241   0.989
  541SOL     OW 1644   1.865   0.379   0.644
  541SOL    HW1 1645   1.781   0.409   0.689
  541SOL    HW2 1646   1.846   0.303   0.583
  542SOL     OW 1647   2.428   1.278   1.170
  542SOL    HW1 1648   2.336   1.277   1.130
  542SOL    HW2 1649   2.446   1.367   1.210
  543SOL     OW 1650   2.620   1.146   1.030
  543SOL    HW1 1651   2.549   1.175   1.093
  543SOL    HW2 1652   2.662   1.226   0.987
  544SOL     OW 1653   2.717   0.785   1.817
  544SOL    HW1 1654   2.710   0.856   1.888
  544SOL    HW2 1655   2.741   0.829   1.730
  545SOL     OW 1656   2.547   1.010   0.655
  545SOL    HW1 1657   2.613   0.990   0.727
  545SOL    HW2 1658   2.470   1.061   0.694
  546SOL     OW 1659   2.564   1.156   1.809
  546SOL    HW1 1660   2.618   1.238   1.831
  546SOL    HW2 1661   2.476   1.184   1.771
  547SOL     OW 1662   2.191   1.432   1.066
  547SOL    HW1 1663   2.115   1.396   1.011
  547SOL    HW2 1664   2.251   1.486   1.008
  548SOL     OW 1665   2.309   0.399   1.493
  548SOL    HW1 1666   2.389   0.339   1.495
  548SOL    HW2 1667   2.226   0.344   1.504
  549SOL     OW 1668   2.085   1.713   0.476
  549SOL    HW1 1669   2.108   1.792   0.534
  549SOL    HW2 1670   2.155   1.702   0.405
  550SOL     OW 1671   2.982   1.344   1.689
  550SOL    HW1 1672   0.037   1.351   1.772
  550SOL    HW2 1673   2.934   1.256   1.688
  551SOL     OW 1674   2.087   1.441   0.536
  551SOL    HW1 1675   2.076   1.540   0.541
  551SOL    HW2 1676   2.023   1.396   0.598
  552SOL     OW 1677   2.112   1.091   0.892
  552SOL    HW1 1678   2.115   1.000   0.933
  552SOL    HW2 1679   2.053   1.150   0.946
  553SOL     OW 1680   2.479   1.790   1.436
  553SOL    HW1 1681   2.390   1.770   1.477
  553SOL    HW2 1682   2.504   1.885   1.456
  554SOL     OW 1683   2.459   0.974   0.144
  554SOL    HW1 1684   2.473   1.050   0.080
  554SOL    HW2 1685   2.500   0.997   0.232
  555SOL     OW 1686   1.980   0.645   0.564
  555SOL    HW1 1687   1.934   0.558   0.582
  555SOL    HW2 1688   1.972   0.704   0.644
  556SOL     OW 1689   1.878   1.587   0.122
  556SOL    HW1 1690   1.888   1.492   0.150
  556SOL    HW2 1691   1.877   1.646   0.203
  557SOL     OW 1692   1.981   0.741   1.588
  557SOL    HW1 1693   2.078   0.749   1.612
  557SOL    HW2 1694   1.939   0.832   1.590
  558SOL     OW 1695   2.471   1.379   0.733
  558SOL    HW1 1696   2.425   1.291   0.744
  558SOL    HW2 1697   2.457   1.413   0.640
  559SOL     OW 1698   2.681   0.014   0.504
  559SOL    HW1 1699   2.711   0.109   0.494
  559SOL    HW2 1700   2.581   0.010   0.503
  560SOL     OW 1701   2.055   0.973   1.259
  560SOL    HW1 1702   2.144   0.928   1.250
  560SOL    HW2 1703   1.983   0.908   1.234
  561SOL     OW 1704   2.186   0.254   1.799
  561SOL    HW1 1705   2.245   0.332   1.818
  561SOL    HW2 1706   2.096   0.270   1.841
  562SOL     OW 1707   2.455   0.724   0.266
  562SOL    HW1 1708   2.469   0.806   0.210
  562SOL    HW2 1709   2.386   0.743   0.336
  563SOL     OW 1710   2.652   0.622   1.456
  563SOL    HW1 1711   2.627   0.599   1.550
  563SOL    HW2 1712   2.612   0.555   1.393
  564SOL     OW 1713   2.833   0.885   1.572
  564SOL    HW1 1714   2.868   0.795   1.544
  564SOL    HW2 1715   2.780   0.924   1.498
  565SOL     OW 1716   2.844   0.382   1.259
  565SOL    HW1 1717   2.772   0.440   1.294
  565SOL    HW2 1718   2.833   0.369   1.160
  566SOL     OW 1719   2.892   0.711   0.414
  566SOL    HW1 1720   2.931   0.701   0.505
  566SOL    HW2 1721   2.814   0.650   0.404
  567SOL     OW 1722   1.951   0.820   0.774
  567SOL    HW1 1723   2.039   0.807   0.821
  567SOL    HW2 1724   1.906   0.902   0.811
  568SOL     OW 1725   1.994   1.845   1.578
  568SOL    HW1 1726   1.987   1.818   1.674
  568SOL    HW2 1727   1.903   1.843   1.536
  569SOL     OW 1728   2.784   0.340   0.217
  569SOL    HW1 1729   2.777   0.404   0.141
  569SOL    HW2 1730   2.766   0.247   0.184
  570SOL     OW 1731   2.379   0.194   0.913
  570SOL    HW1 1732   2.398   0.209   1.010
  570SOL    HW2 1733   2.406   0.275   0.860
  571SOL     OW 1734   2.863   1.446   0.471
  571SOL    HW1 1735   2.825   1.525   0.421
  571SOL    HW2 1736   2.866   1.467   0.568
  572SOL     OW 1737   2.217   1.803   0.853
  572SOL    HW1 1738   2.262   1.715   0.866
  572SOL    HW2 1739   2.282   1.877   0.868
  573SOL     OW 1740   2.182   0.951   0.240
  573SOL    HW1 1741   2.271   0.974   0.200
  573SOL    HW2 1742   2.151   0.862   0.206
  574SOL     OW 1743   2.323   1.258   1.733
  574SOL    HW1 1744   2.293   1.266   1.638
  574SOL    HW2 1745   2.243   1.261   1.793
  575SOL     OW 1746   2.063   0.293   1.499
  575SOL    HW1 1747   1.978   0.345   1.489
  575SOL    HW2 1748   2.053   0.226   1.572
  576SOL     OW 1749   2.329   1.729   0.329
  576SOL    HW1 1750   2.359   1.797   0.397
  576SOL    HW2 1751   2.399   1.719   0.259
  577SOL     OW 1752   2.125   1.795   1.232
  577SOL    HW1 1753   2.160   1.724   1.293
  577SOL    HW2 1754   2.094   1.753   1.147
  578SOL     OW 1755   2.801   1.696   0.900
  578SOL    HW1 1756   2.869   1.630   0.933
  578SOL    HW2 1757   2.748   1.655   0.826
  579SOL     OW 1758   2.251   0.692   0.478
  579SOL    HW1 1759   2.288   0.600   0.488
  579SOL    HW2 1760   2.154   0.692   0.503
  580SOL     OW 1761   2.474   0.110   0.111
  580SOL    HW1 1762   2.574   0.110   0.123
  580SOL    HW2 1763   2.452   0.124   0.015
  581SOL     OW 1764   2.637   0.273   1.753
  581SOL    HW1 1765   2.705   0.203   1.773
  581SOL    HW2 1766   2.571   0.278   1.829
  582SOL     OW 1767   2.744   1.517   1.191
  582SOL    HW1 1768   2.721   1.483   1.100
  582SOL    HW2 1769   2.806   1.451   1.235
  583SOL     OW 1770   2.669   1.404   0.932
  583SOL    HW1 1771   2.759   1.393   0.890
  583SOL    HW2 1772   2.598   1.396   0.862
  584SOL     OW 1773   2.784   0.505   0.902
  584SOL    HW1 1774   2.754   0.495   0.808
  584SOL    HW2 1775   2.828   0.421   0.933
  585SOL     OW 1776   2.399   0.051   0.497
  585SOL    HW1 1777   2.311   0.041   0.543
  585SOL    HW2 1778   2.399   0.135   0.442
  586SOL     OW 1779   0.314   1.158   0.046
  586SOL    HW1 1780   0.316   1.094   0.123
  586SOL    HW2 1781   0.240   1.224   0.060
  587SOL     OW 1782   2.164   0.078   0.189
  587SOL    HW1 1783   2.241   0.142   0.181
  587SOL    HW2 1784   2.198   2.988   0.214
  588SOL     OW 1785   2.816   0.247   0.470
  588SOL    HW1 1786   2.765   0.292   0.397
  588SOL    HW2 1787   2.901   0.208   0.434
  589SOL     OW 1788   0.081   1.577   0.799
  589SOL    HW1 1789   0.107   1.623   0.714
  589SOL    HW2 1790   0.164   1.555   0.851
  590SOL     OW 1791   2.325   1.145   0.739
  590SOL    HW1 1792   2.252   1.128   0.805
  590SOL    HW2 1793   2.291   1.129   0.646
  591SOL     OW 1794   2.892   0.517   0.020
  591SOL    HW1 1795   2.843   0.600   2.995
  591SOL    HW2 1796   2.949   0.534   0.101
  592SOL     OW 1797   1.938   0.558   1.389
  592SOL    HW1 1798   2.031   0.551   1.356
  592SOL    HW2 1799   1.933   0.630   1.459
  593SOL     OW 1800   2.428   0.220   1.175
  593SOL    HW1 1801   2.467   0.152   1.237
  593SOL    HW2 1802   2.332   0.234   1.197
  594SOL     OW 1803   2.744   0.466   0.635
  594SOL    HW1 1804   2.680   0.524   0.585
  594SOL    HW2 1805   2.744   0.374   0.595
  595SOL     OW 1806   2.862   0.051   0.762
  595SOL    HW1 1807   2.820   0.056   0.671
  595SOL    HW2 1808   2.842   2.962   0.803
  596SOL     OW 1809   2.351   1.398   0.156
  596SOL    HW1 1810   2.279   1.372   0.221
  596SOL    HW2 1811   2.311   1.409   0.065
  597SOL     OW 1812   2.394   0.265   0.326
  597SOL    HW1 1813   2.430   0.205   0.254
  597SOL    HW2 1814   2.370   0.353   0.286
  598SOL     OW 1815   2.780   0.110   1.401
  598SOL    HW1 1816   2.807   0.092   1.307
  598SOL    HW2 1817   2.848   0.168   1.445
  599SOL     OW 1818   2.840   1.108   1.726
  599SOL    HW1 1819   2.744   1.133   1.738
  599SOL    HW2 1820   2.847   1.037   1.656
  600SOL     OW 1821   2.565   1.058   0.377
  600SOL    HW1 1822   2.548   1.051   0.475
  600SOL    HW2 1823   2.651   1.012   0.355
  601SOL     OW 1824   2.277   0.813   1.253
  601SOL    HW1 1825   2.352   0.827   1.317
  601SOL    HW2 1826   2.237   0.722   1.268
  602SOL     OW 1827   2.222   1.106   0.492
  602SOL    HW1 1828   2.219   1.187   0.433
  602SOL    HW2 1829   2.220   1.023   0.435
  603SOL     OW 1830   2.420   0.545   0.865
  603SOL    HW1 1831   2.437   0.601   0.784
  603SOL    HW2 1832   2.483   0.571   0.938
  604SOL     OW 1833   2.229   1.511   1.319
  604SOL    HW1 1834   2.206   1.475   1.229
  604SOL    HW2 1835   2.326   1.535   1.323
  605SOL     OW 1836   2.273   0.745   1.601
  605SOL    HW1 1837   2.334   0.797   1.541
  605SOL    HW2 1838   2.313   0.656   1.620
  606SOL     OW 1839   2.869   0.113   1.761
  606SOL    HW1 1840   2.895   0.197   1.712
  606SOL    HW2 1841   2.907   0.034   1.713
  607SOL     OW 1842   2.363   0.056   1.747
  607SOL    HW1 1843   2.334   2.988   1.680
  607SOL    HW2 1844   2.289   0.122   1.762
  608SOL     OW 1845   2.441   0.871   1.032
  608SOL    HW1 1846   2.479   0.963   1.023
  608SOL    HW2 1847   2.381   0.867   1.112
  609SOL     OW 1848   0.064   0.533   0.275
  609SOL    HW1 1849   0.086   0.445   0.318
  609SOL    HW2 1850   0.030   0.596   0.344
  610SOL     OW 1851   2.164   0.204   1.246
  610SOL    HW1 1852   2.133   0.245   1.332
  610SOL    HW2 1853   2.139   0.107   1.244
  611SOL     OW 1854   2.591   0.633   1.061
  611SOL    HW1 1855   2.666   0.610   1.000
  611SOL    HW2 1856   2.559   0.726   1.041
  612SOL     OW 1857   2.169   0.058   0.640
  612SOL    HW1 1858   2.168   0.155   0.662
  612SOL    HW2 1859   2.151   0.005   0.722
  613SOL     OW 1860   2.866   0.768   0.972
  613SOL    HW1 1861   2.897   0.779   1.066
  613SOL    HW2 1862   2.868   0.671   0.948
  614SOL     OW 1863   2.834   1.566   1.702
  614SOL    HW1 1864   2.824   1.611   1.613
  614SOL    HW2 1865   2.893   1.485   1.692
  615SOL     OW 1866   2.214   0.914   1.805
  615SOL    HW1 1867   2.296   0.938   1.855
  615SOL    HW2 1868   2.237   0.851   1.730
  616SOL     OW 1869   2.909   1.343   0.836
  616SOL    HW1 1870   2.909   1.261   0.779
  616SOL    HW2 1871   2.984   1.403   0.809
  617SOL     OW 1872   2.176   0.810   0.948
  617SOL    HW1 1873   2.272   0.838   0.944
  617SOL    HW2 1874   2.169   0.719   0.987
  618SOL     OW 1875   2.198   0.519   1.011
  618SOL    HW1 1876   2.155   0.430   0.995
  618SOL    HW2 1877   2.277   0.529   0.950
  619SOL     OW 1878   2.968   0.372   1.666
  619SOL    HW1 1879   2.915   0.438   1.720
  619SOL    HW2 1880   0.063   0.402   1.659
  620SOL     OW 1881   1.869   1.319   0.186
  620SOL    HW1 1882   1.775   1.337   0.159
  620SOL    HW2 1883   1.874   1.229   0.230
  621SOL     OW 1884   1.954   1.793   0.933
  621SOL    HW1 1885   1.916   1.709   0.894
  621SOL    HW2 1886   2.049   1.804   0.902
  622SOL     OW 1887   2.364   1.573   0.907
  622SOL    HW1 1888   2.433   1.641   0.931
  622SOL    HW2 1889   2.406   1.500   0.853
  623SOL     OW 1890   2.862   0.800   1.248
  623SOL    HW1 1891   2.911   0.742   1.314
  623SOL    HW2 1892   2.770   0.763   1.234
  624SOL     OW 1893   1.899   0.540   1.117
  624SOL    HW1 1894   1.983   0.522   1.066
  624SOL    HW2 1895   1.921   0.554   1.214
  625SOL     OW 1896   2.052   0.519   1.724
  625SOL    HW1 1897   2.111   0.476   1.656
  625SOL    HW2 1898   1.998   0.591   1.682
  626SOL     OW 1899   2.675   0.572   0.347
  626SOL    HW1 1900   2.684   0.489   0.291
  626SOL    HW2 1901   2.591   0.620   0.322
  627SOL     OW 1902   2.135   1.558   1.745
  627SOL    HW1 1903   2.084   1.624   1.799
  627SOL    HW2 1904   2.109   1.465   1.774
  628SOL     OW 1905   2.550   0.462   1.265
  628SOL    HW1 1906   2.505   0.377   1.236
  628SOL    HW2 1907   2.556   0.524   1.188
  629SOL     OW 1908   2.801   1.688   1.461
  629SOL    HW1 1909   2.767   1.640   1.380
  629SOL    HW2 1910   2.784   1.786   1.452
  630SOL     OW 1911   2.309   0.495   0.206
  630SOL    HW1 1912   2.381   0.564   0.216
  630SOL    HW2 1913   2.221   0.540   0.189
  631SOL     OW 1914   2.006   1.136   1.467
  631SOL    HW1 1915   2.020   1.084   1.552
  631SOL    HW2 1916   2.030   1.078   1.389
  632SOL     OW 1917   1.943   1.265   1.022
  632SOL    HW1 1918   1.940   1.255   1.121
  632SOL    HW2 1919   1.868   1.213   0.981
  633SOL     OW 1920   2.541   1.664   1.723
  633SOL    HW1 1921   2.484   1.747   1.722
  633SOL    HW2 1922   2.605   1.667   1.646
  634SOL     OW 1923   2.762   0.084   0.137
  634SOL    HW1 1924   2.812   0.053   0.056
  634SOL    HW2 1925   2.806   0.047   0.219
  635SOL     OW 1926   1.995   1.791   1.846
  635SOL    HW1 1927   1.942   1.724   1.897
  635SOL    HW2 1928   2.051   1.845   1.909
  636SOL     OW 1929   2.682   1.268   1.427
  636SOL    HW1 1930   2.676   1.314   1.515
  636SOL    HW2 1931   2.605   1.295   1.369
  637SOL     OW 1932   2.532   1.609   0.158
  637SOL    HW1 1933   2.539   1.628   0.060
  637SOL    HW2 1934   2.478   1.525   0.171
  638SOL     OW 1935   2.135   0.347   0.752
  638SOL    HW1 1936   2.044   0.371   0.720
  638SOL    HW2 1937   2.130   0.311   0.845
  639SOL     OW 1938   2.688   1.007   1.375
  639SOL    HW1 1939   2.731   0.995   1.286
  639SOL    HW2 1940   2.690   1.104   1.401
  640SOL     OW 1941   2.787   0.935   0.308
  640SOL    HW1 1942   2.837   0.953   0.223
  640SOL    HW2 1943   2.820   0.850   0.349
  641SOL     OW 1944   2.226   1.295   1.491
  641SOL    HW1 1945   2.224   1.381   1.439
  641SOL    HW2 1946   2.143   1.243   1.475
  642SOL     OW 1947   2.909   1.085   0.721
  642SOL    HW1 1948   2.829   1.040   0.761
  642SOL    HW2 1949   2.941   1.033   0.642
  643SOL     OW 1950   2.877   0.237   0.969
  643SOL    HW1 1951   2.873   0.188   0.882
  643SOL    HW2 1952   2.872   0.171   1.044
  644SOL     OW 1953   2.457   1.487   0.484
  644SOL    HW1 1954   2.503   1.433   0.414
  644SOL    HW2 1955   2.401   1.557   0.442
  645SOL     OW 1956   2.125   1.341   0.295
  645SOL    HW1 1957   2.035   1.343   0.251
  645SOL    HW2 1958   2.119   1.385   0.385
  646SOL     OW 1959   1.971   1.013   1.723
  646SOL    HW1 1960   1.892   0.990   1.779
  646SOL    HW2 1961   2.054   0.979   1.767
  647SOL     OW 1962   2.531   0.207   1.492
  647SOL    HW1 1963   2.616   0.183   1.446
  647SOL    HW2 1964   2.547   0.218   1.590
  648SOL     OW 1965   1.917   0.193   0.326
  648SOL    HW1 1966   1.892   0.243   0.243
  648SOL    HW2 1967   2.005   0.148   0.313
  649SOL     OW 1968   2.479   0.836   1.430
  649SOL    HW1 1969   2.535   0.917   1.416
  649SOL    HW2 1970   2.538   0.756   1.438
  650SOL     OW 1971   2.579   0.564   1.708
  650SOL    HW1 1972   2.609   0.634   1.773
  650SOL    HW2 1973   2.624   0.477   1.729
  651SOL     OW 1974   2.246   1.740   1.562
  651SOL    HW1 1975   2.157   1.784   1.551
  651SOL    HW2 1976   2.234   1.651   1.605
  652SOL     OW 1977   2.457   0.742   0.659
  652SOL    HW1 1978   2.498   0.833   0.649
  652SOL    HW2 1979   2.377   0.735   0.599
  653SOL     OW 1980   2.761   1.378   0.061
  653SOL    HW1 1981   2.684   1.384   0.125
  653SOL    HW2 1982   2.743   1.437   2.982
  654SOL     OW 1983   2.521   1.796   0.952
  654SOL    HW1 1984   2.491   1.888   0.925
  654SOL    HW2 1985   2.620   1.788   0.939
  655SOL     OW 1986   2.718   0.960   0.859
  655SOL    HW1 1987   2.770   0.885   0.900
  655SOL    HW2 1988   2.687   1.022   0.931
  656SOL     OW 1989   2.960   1.019   0.074
  656SOL    HW1 1990   2.920   1.051   2.988
  656SOL    HW2 1991   0.018   0.939   0.056
  657SOL     OW 1992   2.083   1.307   1.853
  657SOL    HW1 1993   2.019   1.236   1.824
  657SOL    HW2 1994   2.076   1.321   1.951
  658SOL     OW 1995   1.944   1.236   0.660
  658SOL    HW1 1996   1.943   1.185   0.746
  658SOL    HW2 1997   2.018   1.202   0.602
  659SOL     OW 1998   2.538   1.400   1.626
  659SOL    HW1 1999   2.457   1.350   1.655
  659SOL    HW2 2000   2.536   1.492   1.664
  660SOL     OW 2001   2.331   0.430   0.544
  660SOL    HW1 2002   2.324   0.370   0.465
  660SOL    HW2 2003   2.263   0.403   0.613
  661SOL     OW 2004   2.185   0.547   1.288
  661SOL    HW1 2005   2.244   0.495   1.350
  661SOL    HW2 2006   2.211   0.526   1.193
  662SOL     OW 2007   2.681   1.584   0.683
  662SOL    HW1 2008   2.693   1.613   0.588
  662SOL    HW2 2009   2.601   1.524   0.690
  663SOL     OW 2010   2.855   0.022   1.151
  663SOL    HW1 2011   2.808   2.951   1.099
  663SOL    HW2 2012   2.950   2.997   1.164
  664SOL     OW 2013   2.628   1.329   0.312
  664SOL    HW1 2014   2.595   1.236   0.326
  664SOL    HW2 2015   2.718   1.339   0.355
  665SOL     OW 2016   2.489   1.564   1.284
  665SOL    HW1 2017   2.488   1.648   1.338
  665SOL    HW2 2018   2.579   1.554   1.241
  666SOL     OW 2019   1.903   1.075   0.303
  666SOL    HW1 2020   2.002   1.072   0.286
  666SOL    HW2 2021   1.871   0.984   0.327
  667SOL     OW 2022   2.734   1.649   0.348
  667SOL    HW1 2023   2.665   1.627   0.280
  667SOL    HW2 2024   2.707   1.731   0.399
  668SOL     OW 2025   2.092   0.624   1.982
  668SOL    HW1 2026   1.999   0.624   2.019
  668SOL    HW2 2027   2.089   0.594   1.886
  669SOL     OW 2028   2.085   0.276   2.872
  669SOL    HW1 2029   2.110   0.244   2.964
  669SOL    HW2 2030   1.994   0.241   2.849
  670SOL     OW 2031   1.866   0.379   2.507
  670SOL    HW1 2032   1.782   0.411   2.550
  670SOL    HW2 2033   1.846   0.303   2.445
  671SOL     OW 2034   2.618   1.148   2.888
  671SOL    HW1 2035   2.551   1.181   2.954
  671SOL    HW2 2036   2.666   1.226   2.848
  672SOL     OW 2037   2.547   1.011   2.516
  672SOL    HW1 2038   2.613   0.990   2.588
  672SOL    HW2 2039   2.470   1.061   2.554
  673SOL     OW 2040   2.205   1.432   2.928
  673SOL    HW1 2041   2.121   1.398   2.885
  673SOL    HW2 2042   2.255   1.490   2.863
  674SOL     OW 2043   2.085   1.712   2.340
  674SOL    HW1 2044   2.109   1.792   2.395
  674SOL    HW2 2045   2.149   1.704   2.263
  675SOL     OW 2046   2.090   1.439   2.396
  675SOL    HW1 2047   2.077   1.538   2.401
  675SOL    HW2 2048   2.025   1.393   2.457
  676SOL     OW 2049   2.114   1.091   2.755
  676SOL    HW1 2050   2.112   0.999   2.794
  676SOL    HW2 2051   2.053   1.151   2.808
  677SOL     OW 2052   2.457   0.977   1.992
  677SOL    HW1 2053   2.493   1.038   1.921
  677SOL    HW2 2054   2.498   1.002   2.080
  678SOL     OW 2055   1.980   0.645   2.427
  678SOL    HW1 2056   1.933   0.559   2.443
  678SOL    HW2 2057   1.972   0.704   2.507
  679SOL     OW 2058   1.877   1.596   1.985
  679SOL    HW1 2059   1.876   1.499   2.007
  679SOL    HW2 2060   1.863   1.650   2.068
  680SOL     OW 2061   2.469   1.378   2.592
  680SOL    HW1 2062   2.422   1.290   2.603
  680SOL    HW2 2063   2.455   1.412   2.499
  681SOL     OW 2064   2.682   0.013   2.362
  681SOL    HW1 2065   2.711   0.108   2.356
  681SOL    HW2 2066   2.582   0.008   2.365
  682SOL     OW 2067   2.458   0.726   2.127
  682SOL    HW1 2068   2.471   0.804   2.066
  682SOL    HW2 2069   2.387   0.747   2.194
  683SOL     OW 2070   2.892   0.707   2.282
  683SOL    HW1 2071   2.926   0.697   2.375
  683SOL    HW2 2072   2.812   0.648   2.269
  684SOL     OW 2073   1.951   0.821   2.636
  684SOL    HW1 2074   2.038   0.807   2.685
  684SOL    HW2 2075   1.905   0.901   2.674
  685SOL     OW 2076   2.736   0.347   2.054
  685SOL    HW1 2077   2.790   0.410   1.999
  685SOL    HW2 2078   2.764   0.253   2.034
  686SOL     OW 2079   2.404   0.195   2.806
  686SOL    HW1 2080   2.380   0.249   2.887
  686SOL    HW2 2081   2.412   0.255   2.727
  687SOL     OW 2082   2.862   1.445   2.333
  687SOL    HW1 2083   2.824   1.524   2.284
  687SOL    HW2 2084   2.869   1.467   2.430
  688SOL     OW 2085   2.216   1.802   2.714
  688SOL    HW1 2086   2.262   1.714   2.728
  688SOL    HW2 2087   2.282   1.876   2.728
  689SOL     OW 2088   2.185   0.951   2.107
  689SOL    HW1 2089   2.272   0.978   2.064
  689SOL    HW2 2090   2.151   0.867   2.065
  690SOL     OW 2091   2.330   1.739   2.183
  690SOL    HW1 2092   2.365   1.797   2.256
  690SOL    HW2 2093   2.404   1.713   2.122
  691SOL     OW 2094   2.124   1.799   0.099
  691SOL    HW1 2095   2.169   1.731   0.158
  691SOL    HW2 2096   2.081   1.753   0.022
  692SOL     OW 2097   2.797   1.698   2.761
  692SOL    HW1 2098   2.867   1.637   2.799
  692SOL    HW2 2099   2.750   1.651   2.686
  693SOL     OW 2100   2.251   0.692   2.342
  693SOL    HW1 2101   2.287   0.599   2.350
  693SOL    HW2 2102   2.154   0.692   2.364
  694SOL     OW 2103   2.483   0.124   1.973
  694SOL    HW1 2104   2.575   0.087   1.982
  694SOL    HW2 2105   2.445   0.100   1.884
  695SOL     OW 2106   2.662   1.404   2.783
  695SOL    HW1 2107   2.754   1.396   2.745
  695SOL    HW2 2108   2.595   1.394   2.710
  696SOL     OW 2109   2.783   0.514   2.756
  696SOL    HW1 2110   2.754   0.494   2.662
  696SOL    HW2 2111   2.818   0.431   2.799
  697SOL     OW 2112   2.402   0.058   2.362
  697SOL    HW1 2113   2.313   0.043   2.404
  697SOL    HW2 2114   2.398   0.137   2.301
  698SOL     OW 2115   2.155   0.036   2.055
  698SOL    HW1 2116   2.198   0.115   2.013
  698SOL    HW2 2117   2.225   2.970   2.083
  699SOL     OW 2118   2.813   0.250   2.328
  699SOL    HW1 2119   2.754   0.288   2.257
  699SOL    HW2 2120   2.896   0.213   2.286
  700SOL     OW 2121   0.082   1.574   2.661
  700SOL    HW1 2122   0.109   1.626   2.580
  700SOL    HW2 2123   0.162   1.556   2.718
  701SOL     OW 2124   2.326   1.144   2.601
  701SOL    HW1 2125   2.253   1.129   2.667
  701SOL    HW2 2126   2.291   1.128   2.508
  702SOL     OW 2127   2.889   0.553   1.874
  702SOL    HW1 2128   2.840   0.637   1.852
  702SOL    HW2 2129   2.944   0.567   1.957
  703SOL     OW 2130   2.744   0.465   2.495
  703SOL    HW1 2131   2.680   0.524   2.445
  703SOL    HW2 2132   2.744   0.374   2.454
  704SOL     OW 2133   2.860   0.051   2.622
  704SOL    HW1 2134   2.818   0.051   2.531
  704SOL    HW2 2135   2.844   2.962   2.665
  705SOL     OW 2136   2.355   1.406   2.028
  705SOL    HW1 2137   2.274   1.378   2.080
  705SOL    HW2 2138   2.335   1.402   1.930
  706SOL     OW 2139   2.395   0.267   2.184
  706SOL    HW1 2140   2.425   0.204   2.112
  706SOL    HW2 2141   2.375   0.356   2.144
  707SOL     OW 2142   2.569   1.056   2.234
  707SOL    HW1 2143   2.552   1.048   2.333
  707SOL    HW2 2144   2.651   1.004   2.210
  708SOL     OW 2145   2.222   1.104   2.355
  708SOL    HW1 2146   2.222   1.186   2.297
  708SOL    HW2 2147   2.221   1.022   2.297
  709SOL     OW 2148   2.419   0.543   2.728
  709SOL    HW1 2149   2.435   0.598   2.646
  709SOL    HW2 2150   2.480   0.573   2.801
  710SOL     OW 2151   2.437   0.869   2.880
  710SOL    HW1 2152   2.485   0.953   2.858
  710SOL    HW2 2153   2.401   0.874   2.973
  711SOL     OW 2154   0.058   0.531   2.137
  711SOL    HW1 2155   0.086   0.447   2.185
  711SOL    HW2 2156   0.024   0.598   2.203
  712SOL     OW 2157   2.594   0.642   2.917
  712SOL    HW1 2158   2.662   0.613   2.849
  712SOL    HW2 2159   2.557   0.731   2.891
  713SOL     OW 2160   2.173   0.059   2.504
  713SOL    HW1 2161   2.165   0.156   2.526
  713SOL    HW2 2162   2.150   0.004   2.584
  714SOL     OW 2163   2.872   0.772   2.830
  714SOL    HW1 2164   2.887   0.774   2.928
  714SOL    HW2 2165   2.864   0.678   2.799
  715SOL     OW 2166   2.908   1.342   2.698
  715SOL    HW1 2167   2.911   1.262   2.638
  715SOL    HW2 2168   2.981   1.406   2.672
  716SOL     OW 2169   2.174   0.811   2.812
  716SOL    HW1 2170   2.270   0.836   2.807
  716SOL    HW2 2171   2.166   0.717   2.846
  717SOL     OW 2172   2.190   0.527   2.868
  717SOL    HW1 2173   2.147   0.437   2.860
  717SOL    HW2 2174   2.271   0.530   2.809
  718SOL     OW 2175   1.864   1.323   2.057
  718SOL    HW1 2176   1.774   1.339   2.019
  718SOL    HW2 2177   1.870   1.229   2.090
  719SOL     OW 2178   1.954   1.797   2.793
  719SOL    HW1 2179   1.915   1.711   2.759
  719SOL    HW2 2180   2.049   1.804   2.764
  720SOL     OW 2181   2.367   1.576   2.765
  720SOL    HW1 2182   2.438   1.643   2.787
  720SOL    HW2 2183   2.407   1.500   2.714
  721SOL     OW 2184   2.853   0.765   0.100
  721SOL    HW1 2185   2.897   0.749   0.188
  721SOL    HW2 2186   2.754   0.769   0.112
  722SOL     OW 2187   2.673   0.567   2.209
  722SOL    HW1 2188   2.678   0.485   2.152
  722SOL    HW2 2189   2.593   0.622   2.182
  723SOL     OW 2190   2.565   0.447   0.095
  723SOL    HW1 2191   2.473   0.407   0.097
  723SOL    HW2 2192   2.566   0.525   0.033
  724SOL     OW 2193   2.331   0.497   2.054
  724SOL    HW1 2194   2.392   0.575   2.070
  724SOL    HW2 2195   2.237   0.529   2.043
  725SOL     OW 2196   1.943   1.267   2.884
  725SOL    HW1 2197   1.935   1.272   2.984
  725SOL    HW2 2198   1.867   1.212   2.848
  726SOL     OW 2199   2.533   1.614   2.016
  726SOL    HW1 2200   2.545   1.627   1.917
  726SOL    HW2 2201   2.480   1.530   2.032
  727SOL     OW 2202   2.134   0.339   2.613
  727SOL    HW1 2203   2.044   0.370   2.582
  727SOL    HW2 2204   2.128   0.309   2.708
  728SOL     OW 2205   2.784   0.918   2.155
  728SOL    HW1 2206   2.836   0.937   2.071
  728SOL    HW2 2207   2.819   0.834   2.198
  729SOL     OW 2208   2.908   1.082   2.584
  729SOL    HW1 2209   2.827   1.037   2.620
  729SOL    HW2 2210   2.941   1.033   2.504
  730SOL     OW 2211   2.877   0.234   2.825
  730SOL    HW1 2212   2.872   0.192   2.734
  730SOL    HW2 2213   2.883   0.163   2.895
  731SOL     OW 2214   2.458   1.486   2.345
  731SOL    HW1 2215   2.503   1.433   2.274
  731SOL    HW2 2216   2.399   1.555   2.303
  732SOL     OW 2217   2.116   1.350   2.148
  732SOL    HW1 2218   2.019   1.345   2.122
  732SOL    HW2 2219   2.125   1.388   2.240
  733SOL     OW 2220   1.940   0.342   1.898
  733SOL    HW1 2221   1.849   0.311   1.871
  733SOL    HW2 2222   1.968   0.418   1.840
  734SOL     OW 2223   1.907   0.199   2.164
  734SOL    HW1 2224   1.918   0.269   2.094
  734SOL    HW2 2225   1.985   0.137   2.162
  735SOL     OW 2226   2.456   0.743   2.522
  735SOL    HW1 2227   2.498   0.832   2.510
  735SOL    HW2 2228   2.377   0.734   2.462
  736SOL     OW 2229   2.729   1.370   1.894
  736SOL    HW1 2230   2.677   1.396   1.975
  736SOL    HW2 2231   2.751   1.451   1.840
  737SOL     OW 2232   2.524   1.798   2.822
  737SOL    HW1 2233   2.495   1.887   2.785
  737SOL    HW2 2234   2.621   1.785   2.805
  738SOL     OW 2235   2.715   0.958   2.721
  738SOL    HW1 2236   2.771   0.887   2.761
  738SOL    HW2 2237   2.688   1.024   2.792
  739SOL     OW 2238   2.932   0.957   1.934
  739SOL    HW1 2239   2.907   1.035   1.876
  739SOL    HW2 2240   0.031   0.953   1.943
  740SOL     OW 2241   1.945   1.238   2.523
  740SOL    HW1 2242   1.940   1.185   2.608
  740SOL    HW2 2243   2.017   1.201   2.465
  741SOL     OW 2244   2.326   0.429   2.403
  741SOL    HW1 2245   2.321   0.367   2.325
  741SOL    HW2 2246   2.260   0.400   2.473
  742SOL     OW 2247   2.681   1.585   2.542
  742SOL    HW1 2248   2.694   1.612   2.447
  742SOL    HW2 2249   2.600   1.526   2.549
  743SOL     OW 2250   2.634   1.332   2.171
  743SOL    HW1 2251   2.597   1.239   2.178
  743SOL    HW2 2252   2.720   1.337   2.221
  744SOL     OW 2253   1.905   1.074   2.165
  744SOL    HW1 2254   2.004   1.069   2.148
  744SOL    HW2 2255   1.872   0.983   2.191
  745SOL     OW 2256   2.733   1.646   2.211
  745SOL    HW1 2257   2.665   1.627   2.141
  745SOL    HW2 2258   2.710   1.730   2.259
  746SOL     OW 2259   2.089   2.497   0.112
  746SOL    HW1 2260   1.996   2.480   0.143
  746SOL    HW2 2261   2.104   2.452   0.024
  747SOL     OW 2262   2.085   2.140   0.992
  747SOL    HW1 2263   2.119   2.111   1.082
  747SOL    HW2 2264   1.992   2.105   0.979
  748SOL     OW 2265   1.870   2.245   0.636
  748SOL    HW1 2266   1.785   2.269   0.683
  748SOL    HW2 2267   1.856   2.159   0.585
  749SOL     OW 2268   2.609   0.003   1.021
  749SOL    HW1 2269   2.531   0.035   1.074
  749SOL    HW2 2270   2.653   0.080   0.975
  750SOL     OW 2271   2.715   2.646   1.816
  750SOL    HW1 2272   2.714   2.708   1.894
  750SOL    HW2 2273   2.746   2.695   1.734
  751SOL     OW 2274   2.521   2.847   0.699
  751SOL    HW1 2275   2.616   2.854   0.730
  751SOL    HW2 2276   2.485   2.938   0.681
  752SOL     OW 2277   2.307   2.260   1.495
  752SOL    HW1 2278   2.387   2.200   1.495
  752SOL    HW2 2279   2.224   2.204   1.503
  753SOL     OW 2280   2.102   0.300   0.487
  753SOL    HW1 2281   2.071   0.393   0.509
  753SOL    HW2 2282   2.039   0.234   0.528
  754SOL     OW 2283   2.108   2.949   0.883
  754SOL    HW1 2284   2.121   2.858   0.924
  754SOL    HW2 2285   2.059   0.008   0.947
  755SOL     OW 2286   2.477   2.829   0.145
  755SOL    HW1 2287   2.463   2.921   0.109
  755SOL    HW2 2288   2.532   2.834   0.228
  756SOL     OW 2289   1.976   2.511   0.562
  756SOL    HW1 2290   1.946   2.417   0.579
  756SOL    HW2 2291   1.969   2.564   0.646
  757SOL     OW 2292   1.981   2.604   1.586
  757SOL    HW1 2293   2.077   2.609   1.614
  757SOL    HW2 2294   1.938   2.693   1.596
  758SOL     OW 2295   2.517   0.240   0.682
  758SOL    HW1 2296   2.458   0.173   0.727
  758SOL    HW2 2297   2.461   0.298   0.622
  759SOL     OW 2298   2.672   1.864   0.502
  759SOL    HW1 2299   2.715   1.954   0.491
  759SOL    HW2 2300   2.573   1.877   0.515
  760SOL     OW 2301   2.058   2.840   1.256
  760SOL    HW1 2302   2.144   2.789   1.250
  760SOL    HW2 2303   1.982   2.778   1.238
  761SOL     OW 2304   2.190   2.113   1.808
  761SOL    HW1 2305   2.246   2.196   1.816
  761SOL    HW2 2306   2.097   2.133   1.839
  762SOL     OW 2307   2.456   2.583   0.268
  762SOL    HW1 2308   2.471   2.664   0.210
  762SOL    HW2 2309   2.387   2.605   0.337
  763SOL     OW 2310   2.651   2.484   1.455
  763SOL    HW1 2311   2.627   2.461   1.549
  763SOL    HW2 2312   2.612   2.416   1.393
  764SOL     OW 2313   2.831   2.749   1.577
  764SOL    HW1 2314   2.867   2.660   1.550
  764SOL    HW2 2315   2.774   2.786   1.503
  765SOL     OW 2316   2.846   2.245   1.256
  765SOL    HW1 2317   2.770   2.298   1.293
  765SOL    HW2 2318   2.830   2.227   1.159
  766SOL     OW 2319   2.891   2.575   0.414
  766SOL    HW1 2320   2.931   2.564   0.505
  766SOL    HW2 2321   2.813   2.514   0.405
  767SOL     OW 2322   1.948   2.682   0.776
  767SOL    HW1 2323   2.037   2.667   0.819
  767SOL    HW2 2324   1.907   2.767   0.812
  768SOL     OW 2325   2.788   2.197   0.216
  768SOL    HW1 2326   2.784   2.269   0.147
  768SOL    HW2 2327   2.755   2.111   0.177
  769SOL     OW 2328   2.408   2.049   0.893
  769SOL    HW1 2329   2.411   2.068   0.991
  769SOL    HW2 2330   2.414   2.135   0.841
  770SOL     OW 2331   2.063   2.150   1.502
  770SOL    HW1 2332   1.977   2.199   1.486
  770SOL    HW2 2333   2.048   2.080   1.572
  771SOL     OW 2334   2.247   2.555   0.478
  771SOL    HW1 2335   2.280   2.461   0.482
  771SOL    HW2 2336   2.150   2.557   0.502
  772SOL     OW 2337   2.486   1.985   0.115
  772SOL    HW1 2338   2.583   1.962   0.121
  772SOL    HW2 2339   2.447   1.942   0.034
  773SOL     OW 2340   2.636   2.139   1.755
  773SOL    HW1 2341   2.705   2.069   1.770
  773SOL    HW2 2342   2.567   2.134   1.827
  774SOL     OW 2343   2.785   2.367   0.902
  774SOL    HW1 2344   2.756   2.357   0.807
  774SOL    HW2 2345   2.827   2.282   0.933
  775SOL     OW 2346   2.406   1.923   0.507
  775SOL    HW1 2347   2.324   1.924   0.563
  775SOL    HW2 2348   2.407   2.004   0.448
  776SOL     OW 2349   2.805   2.100   0.468
  776SOL    HW1 2350   2.762   2.149   0.392
  776SOL    HW2 2351   2.898   2.075   0.443
  777SOL     OW 2352   2.883   2.387   0.028
  777SOL    HW1 2353   2.844   2.473   2.997
  777SOL    HW2 2354   2.948   2.404   0.102
  778SOL     OW 2355   1.938   2.420   1.388
  778SOL    HW1 2356   2.032   2.413   1.355
  778SOL    HW2 2357   1.933   2.491   1.459
  779SOL     OW 2358   2.424   2.086   1.162
  779SOL    HW1 2359   2.466   2.001   1.195
  779SOL    HW2 2360   2.329   2.090   1.192
  780SOL     OW 2361   2.741   2.320   0.636
  780SOL    HW1 2362   2.684   2.385   0.585
  780SOL    HW2 2363   2.747   2.234   0.586
  781SOL     OW 2364   2.861   1.920   0.755
  781SOL    HW1 2365   2.807   1.905   0.672
  781SOL    HW2 2366   2.855   1.840   0.814
  782SOL     OW 2367   2.386   2.123   0.325
  782SOL    HW1 2368   2.421   2.066   0.251
  782SOL    HW2 2369   2.370   2.216   0.291
  783SOL     OW 2370   2.762   1.950   1.395
  783SOL    HW1 2371   2.783   1.931   1.299
  783SOL    HW2 2372   2.839   1.998   1.437
  784SOL     OW 2373   2.276   2.677   1.255
  784SOL    HW1 2374   2.353   2.687   1.318
  784SOL    HW2 2375   2.236   2.586   1.265
  785SOL     OW 2376   2.421   2.404   0.863
  785SOL    HW1 2377   2.437   2.462   0.783
  785SOL    HW2 2378   2.483   2.431   0.937
  786SOL     OW 2379   2.275   2.606   1.602
  786SOL    HW1 2380   2.337   2.655   1.541
  786SOL    HW2 2381   2.311   2.515   1.621
  787SOL     OW 2382   2.860   1.984   1.769
  787SOL    HW1 2383   2.894   2.052   1.703
  787SOL    HW2 2384   2.902   1.895   1.751
  788SOL     OW 2385   2.359   1.910   1.744
  788SOL    HW1 2386   2.322   1.849   1.674
  788SOL    HW2 2387   2.294   1.983   1.762
  789SOL     OW 2388   2.448   2.729   1.036
  789SOL    HW1 2389   2.470   2.824   1.014
  789SOL    HW2 2390   2.380   2.727   1.110
  790SOL     OW 2391   0.064   2.398   0.275
  790SOL    HW1 2392   0.083   2.312   0.322
  790SOL    HW2 2393   0.029   2.465   0.342
  791SOL     OW 2394   2.165   2.066   1.243
  791SOL    HW1 2395   2.130   2.103   1.329
  791SOL    HW2 2396   2.147   1.968   1.238
  792SOL     OW 2397   2.591   2.494   1.062
  792SOL    HW1 2398   2.666   2.472   1.000
  792SOL    HW2 2399   2.557   2.586   1.042
  793SOL     OW 2400   2.161   1.929   0.624
  793SOL    HW1 2401   2.147   2.024   0.650
  793SOL    HW2 2402   2.169   1.873   0.707
  794SOL     OW 2403   2.860   2.627   0.980
  794SOL    HW1 2404   2.904   2.632   1.069
  794SOL    HW2 2405   2.864   2.534   0.945
  795SOL     OW 2406   2.220   2.785   1.798
  795SOL    HW1 2407   2.290   2.787   1.869
  795SOL    HW2 2408   2.241   2.713   1.732
  796SOL     OW 2409   2.176   2.675   0.951
  796SOL    HW1 2410   2.273   2.697   0.938
  796SOL    HW2 2411   2.168   2.582   0.987
  797SOL     OW 2412   2.197   2.381   1.008
  797SOL    HW1 2413   2.156   2.291   0.995
  797SOL    HW2 2414   2.277   2.390   0.949
  798SOL     OW 2415   2.972   2.243   1.665
  798SOL    HW1 2416   2.917   2.304   1.722
  798SOL    HW2 2417   0.067   2.273   1.667
  799SOL     OW 2418   2.983   2.061   1.475
  799SOL    HW1 2419   2.972   2.134   1.541
  799SOL    HW2 2420   2.999   2.100   1.384
  800SOL     OW 2421   2.857   2.670   1.257
  800SOL    HW1 2422   2.911   2.607   1.313
  800SOL    HW2 2423   2.772   2.624   1.230
  801SOL     OW 2424   1.899   2.409   1.116
  801SOL    HW1 2425   1.980   2.381   1.066
  801SOL    HW2 2426   1.919   2.415   1.214
  802SOL     OW 2427   2.054   2.381   1.724
  802SOL    HW1 2428   2.110   2.337   1.654
  802SOL    HW2 2429   1.996   2.451   1.681
  803SOL     OW 2430   2.673   2.429   0.351
  803SOL    HW1 2431   2.681   2.353   0.287
  803SOL    HW2 2432   2.594   2.486   0.327
  804SOL     OW 2433   2.550   2.321   1.265
  804SOL    HW1 2434   2.503   2.237   1.235
  804SOL    HW2 2435   2.556   2.384   1.188
  805SOL     OW 2436   2.303   2.358   0.211
  805SOL    HW1 2437   2.380   2.422   0.217
  805SOL    HW2 2438   2.220   2.408   0.189
  806SOL     OW 2439   2.016   2.994   1.473
  806SOL    HW1 2440   2.026   2.939   1.555
  806SOL    HW2 2441   2.034   2.938   1.392
  807SOL     OW 2442   2.761   1.939   0.128
  807SOL    HW1 2443   2.816   1.920   0.047
  807SOL    HW2 2444   2.806   1.900   0.209
  808SOL     OW 2445   2.127   2.181   0.720
  808SOL    HW1 2446   2.041   2.220   0.688
  808SOL    HW2 2447   2.123   2.168   0.819
  809SOL     OW 2448   2.673   2.867   1.372
  809SOL    HW1 2449   2.729   2.838   1.295
  809SOL    HW2 2450   2.700   2.959   1.401
  810SOL     OW 2451   2.753   2.779   0.293
  810SOL    HW1 2452   2.829   2.827   0.251
  810SOL    HW2 2453   2.788   2.711   0.357
  811SOL     OW 2454   2.879   2.100   0.967
  811SOL    HW1 2455   2.874   2.053   0.879
  811SOL    HW2 2456   2.869   2.034   1.041
  812SOL     OW 2457   1.973   2.865   1.713
  812SOL    HW1 2458   1.893   2.856   1.772
  812SOL    HW2 2459   2.055   2.843   1.766
  813SOL     OW 2460   2.532   2.061   1.497
  813SOL    HW1 2461   2.616   2.041   1.448
  813SOL    HW2 2462   2.554   2.084   1.592
  814SOL     OW 2463   1.938   2.022   0.337
  814SOL    HW1 2464   1.903   2.079   0.263
  814SOL    HW2 2465   2.030   1.990   0.314
  815SOL     OW 2466   2.476   2.695   1.432
  815SOL    HW1 2467   2.535   2.775   1.416
  815SOL    HW2 2468   2.533   2.614   1.441
  816SOL     OW 2469   2.579   2.425   1.707
  816SOL    HW1 2470   2.609   2.496   1.771
  816SOL    HW2 2471   2.622   2.338   1.731
  817SOL     OW 2472   2.455   2.591   0.657
  817SOL    HW1 2473   2.490   2.685   0.663
  817SOL    HW2 2474   2.376   2.590   0.595
  818SOL     OW 2475   2.746   2.834   0.861
  818SOL    HW1 2476   2.779   2.747   0.900
  818SOL    HW2 2477   2.683   2.877   0.926
  819SOL     OW 2478   2.293   2.292   0.526
  819SOL    HW1 2479   2.323   2.220   0.463
  819SOL    HW2 2480   2.244   2.250   0.603
  820SOL     OW 2481   2.187   2.411   1.287
  820SOL    HW1 2482   2.242   2.356   1.350
  820SOL    HW2 2483   2.210   2.387   1.193
  821SOL     OW 2484   2.865   1.883   1.150
  821SOL    HW1 2485   2.805   1.815   1.109
  821SOL    HW2 2486   2.960   1.860   1.132
  822SOL     OW 2487   1.878   2.918   0.305
  822SOL    HW1 2488   1.968   2.928   0.264
  822SOL    HW2 2489   1.866   2.825   0.339
  823SOL     OW 2490   2.093   2.471   1.982
  823SOL    HW1 2491   2.001   2.492   2.017
  823SOL    HW2 2492   2.087   2.452   1.884
  824SOL     OW 2493   2.088   2.139   2.848
  824SOL    HW1 2494   2.121   2.114   2.939
  824SOL    HW2 2495   1.994   2.106   2.836
  825SOL     OW 2496   1.870   2.244   2.497
  825SOL    HW1 2497   1.786   2.272   2.542
  825SOL    HW2 2498   1.855   2.158   2.448
  826SOL     OW 2499   2.641   0.013   2.881
  826SOL    HW1 2500   2.558   0.023   2.937
  826SOL    HW2 2501   2.653   0.094   2.825
  827SOL     OW 2502   2.522   2.845   2.554
  827SOL    HW1 2503   2.613   2.850   2.595
  827SOL    HW2 2504   2.484   2.937   2.546
  828SOL     OW 2505   2.094   0.296   2.343
  828SOL    HW1 2506   2.069   0.390   2.368
  828SOL    HW2 2507   2.037   0.232   2.395
  829SOL     OW 2508   2.111   2.951   2.748
  829SOL    HW1 2509   2.121   2.859   2.786
  829SOL    HW2 2510   2.057   0.007   2.811
  830SOL     OW 2511   2.470   2.825   1.991
  830SOL    HW1 2512   2.465   2.909   1.937
  830SOL    HW2 2513   2.525   2.841   2.073
  831SOL     OW 2514   1.977   2.511   2.425
  831SOL    HW1 2515   1.946   2.417   2.441
  831SOL    HW2 2516   1.970   2.564   2.509
  832SOL     OW 2517   2.509   0.245   2.555
  832SOL    HW1 2518   2.456   0.164   2.578
  832SOL    HW2 2519   2.461   0.297   2.484
  833SOL     OW 2520   2.671   1.864   2.362
  833SOL    HW1 2521   2.716   1.953   2.353
  833SOL    HW2 2522   2.573   1.878   2.377
  834SOL     OW 2523   2.061   2.811   0.109
  834SOL    HW1 2524   2.139   2.748   0.106
  834SOL    HW2 2525   1.977   2.759   0.096
  835SOL     OW 2526   2.459   2.584   2.127
  835SOL    HW1 2527   2.472   2.662   2.066
  835SOL    HW2 2528   2.389   2.607   2.195
  836SOL     OW 2529   2.896   2.575   2.278
  836SOL    HW1 2530   2.930   2.565   2.371
  836SOL    HW2 2531   2.814   2.519   2.266
  837SOL     OW 2532   1.948   2.683   2.639
  837SOL    HW1 2533   2.036   2.667   2.683
  837SOL    HW2 2534   1.906   2.766   2.676
  838SOL     OW 2535   2.745   2.206   2.061
  838SOL    HW1 2536   2.787   2.273   2.000
  838SOL    HW2 2537   2.752   2.115   2.020
  839SOL     OW 2538   2.412   2.050   2.761
  839SOL    HW1 2539   2.388   2.074   2.855
  839SOL    HW2 2540   2.418   2.133   2.706
  840SOL     OW 2541   2.247   2.554   2.340
  840SOL    HW1 2542   2.280   2.460   2.346
  840SOL    HW2 2543   2.150   2.557   2.363
  841SOL     OW 2544   2.487   1.988   1.969
  841SOL    HW1 2545   2.570   1.934   1.986
  841SOL    HW2 2546   2.441   1.953   1.888
  842SOL     OW 2547   2.785   2.374   2.756
  842SOL    HW1 2548   2.757   2.355   2.662
  842SOL    HW2 2549   2.818   2.290   2.799
  843SOL     OW 2550   2.407   1.925   2.369
  843SOL    HW1 2551   2.323   1.924   2.424
  843SOL    HW2 2552   2.407   2.006   2.311
  844SOL     OW 2553   2.156   1.906   2.045
  844SOL    HW1 2554   2.208   1.981   2.004
  844SOL    HW2 2555   2.218   1.839   2.085
  845SOL     OW 2556   2.802   2.102   2.326
  845SOL    HW1 2557   2.756   2.149   2.251
  845SOL    HW2 2558   2.895   2.077   2.298
  846SOL     OW 2559   2.889   2.415   1.874
  846SOL    HW1 2560   2.839   2.499   1.851
  846SOL    HW2 2561   2.943   2.430   1.958
  847SOL     OW 2562   2.740   2.319   2.497
  847SOL    HW1 2563   2.683   2.384   2.447
  847SOL    HW2 2564   2.746   2.234   2.445
  848SOL     OW 2565   2.858   1.922   2.614
  848SOL    HW1 2566   2.805   1.901   2.532
  848SOL    HW2 2567   2.857   1.843   2.676
  849SOL     OW 2568   2.392   2.125   2.184
  849SOL    HW1 2569   2.425   2.067   2.110
  849SOL    HW2 2570   2.374   2.217   2.149
  850SOL     OW 2571   2.421   2.400   2.725
  850SOL    HW1 2572   2.435   2.459   2.645
  850SOL    HW2 2573   2.479   2.431   2.800
  851SOL     OW 2574   2.434   2.729   2.881
  851SOL    HW1 2575   2.486   2.810   2.857
  851SOL    HW2 2576   2.406   2.734   2.977
  852SOL     OW 2577   0.057   2.391   2.138
  852SOL    HW1 2578   0.092   2.312   2.188
  852SOL    HW2 2579   0.022   2.459   2.203
  853SOL     OW 2580   2.162   2.068   0.091
  853SOL    HW1 2581   2.174   2.110   0.181
  853SOL    HW2 2582   2.150   1.970   0.101
  854SOL     OW 2583   2.591   2.500   2.915
  854SOL    HW1 2584   2.663   2.474   2.851
  854SOL    HW2 2585   2.557   2.591   2.892
  855SOL     OW 2586   2.162   1.929   2.486
  855SOL    HW1 2587   2.146   2.024   2.511
  855SOL    HW2 2588   2.167   1.873   2.569
  856SOL     OW 2589   2.868   2.631   2.827
  856SOL    HW1 2590   2.896   2.640   2.922
  856SOL    HW2 2591   2.866   2.534   2.802
  857SOL     OW 2592   2.174   2.672   2.811
  857SOL    HW1 2593   2.270   2.698   2.808
  857SOL    HW2 2594   2.166   2.578   2.845
  858SOL     OW 2595   2.188   2.389   2.864
  858SOL    HW1 2596   2.148   2.298   2.859
  858SOL    HW2 2597   2.272   2.392   2.810
  859SOL     OW 2598   2.876   2.647   0.093
  859SOL    HW1 2599   2.916   2.632   0.183
  859SOL    HW2 2600   2.777   2.656   0.101
  860SOL     OW 2601   2.675   2.429   2.211
  860SOL    HW1 2602   2.678   2.348   2.152
  860SOL    HW2 2603   2.596   2.486   2.185
  861SOL     OW 2604   2.564   2.312   0.104
  861SOL    HW1 2605   2.483   2.255   0.091
  861SOL    HW2 2606   2.565   2.385   0.036
  862SOL     OW 2607   2.332   2.357   2.054
  862SOL    HW1 2608   2.392   2.435   2.072
  862SOL    HW2 2609   2.238   2.389   2.042
  863SOL     OW 2610   0.169   2.703   2.171
  863SOL    HW1 2611   0.093   2.657   2.216
  863SOL    HW2 2612   0.187   2.660   2.082
  864SOL     OW 2613   2.128   2.181   2.581
  864SOL    HW1 2614   2.042   2.221   2.549
  864SOL    HW2 2615   2.124   2.169   2.680
  865SOL     OW 2616   2.765   2.762   2.123
  865SOL    HW1 2617   2.840   2.812   2.080
  865SOL    HW2 2618   2.803   2.700   2.192
  866SOL     OW 2619   2.878   2.098   2.823
  866SOL    HW1 2620   2.873   2.057   2.732
  866SOL    HW2 2621   2.890   2.027   2.892
  867SOL     OW 2622   1.939   2.200   1.896
  867SOL    HW1 2623   1.847   2.175   1.863
  867SOL    HW2 2624   1.971   2.280   1.844
  868SOL     OW 2625   1.933   2.022   2.176
  868SOL    HW1 2626   1.914   2.106   2.126
  868SOL    HW2 2627   2.022   1.985   2.150
  869SOL     OW 2628   2.455   2.590   2.518
  869SOL    HW1 2629   2.491   2.684   2.524
  869SOL    HW2 2630   2.375   2.590   2.458
  870SOL     OW 2631   2.738   2.829   2.718
  870SOL    HW1 2632   2.782   2.748   2.756
  870SOL    HW2 2633   2.699   2.885   2.792
  871SOL     OW 2634   2.942   2.827   1.901
  871SOL    HW1 2635   2.914   2.923   1.901
  871SOL    HW2 2636   0.018   2.814   1.964
  872SOL     OW 2637   2.294   2.291   2.386
  872SOL    HW1 2638   2.322   2.218   2.324
  872SOL    HW2 2639   2.244   2.252   2.463
  873SOL     OW 2640   1.888   2.917   2.167
  873SOL    HW1 2641   1.981   2.931   2.133
  873SOL    HW2 2642   1.877   2.822   2.196
   3.00000   3.00000   3.00000
