UNNAMED in water
 2648
    1GLN      N    1   1.250   1.421   1.569
    1GLN     H1    2   1.197   1.419   1.479
    1GLN     H2    3   1.227   1.335   1.623
    1GLN     H3    4   1.216   1.499   1.630
    1GLN     CA    5   1.398   1.429   1.559
    1GLN     HA    6   1.432   1.336   1.515
    1GLN     CB    7   1.444   1.548   1.469
    1GLN    HB1    8   1.397   1.539   1.369
    1GLN    HB2    9   1.408   1.644   1.514
    1GLN     CG   10   1.598   1.558   1.452
    1GLN    HG1   11   1.642   1.591   1.549
    1GLN    HG2   12   1.641   1.458   1.430
    1GLN     CD   13   1.644   1.656   1.344
    1GLN    OE1   14   1.568   1.721   1.274
    1GLN    NE2   15   1.779   1.661   1.327
    1GLN   HE21   16   1.836   1.592   1.372
    1GLN   HE22   17   1.814   1.719   1.255
    1GLN      C   18   1.459   1.439   1.701
    1GLN    OT1   19   1.382   1.459   1.798
    1GLN    OT2   20   1.584   1.427   1.715
    2SOL     OW   21   0.240   0.663   0.109
    2SOL    HW1   22   0.171   0.616   0.156
    2SOL    HW2   23   0.252   0.613   0.028
    3SOL     OW   24   0.202   0.272   1.002
    3SOL    HW1   25   0.240   0.247   1.086
    3SOL    HW2   26   0.108   0.257   1.012
    4SOL     OW   27   0.008   0.389   0.659
    4SOL    HW1   28   2.925   0.429   0.684
    4SOL    HW2   29   2.983   0.316   0.602
    5SOL     OW   30   0.570   1.286   1.174
    5SOL    HW1   31   0.480   1.281   1.142
    5SOL    HW2   32   0.579   1.375   1.208
    6SOL     OW   33   1.559   1.512   0.705
    6SOL    HW1   34   1.517   1.495   0.789
    6SOL    HW2   35   1.487   1.517   0.642
    7SOL     OW   36   1.131   0.699   0.700
    7SOL    HW1   37   1.180   0.780   0.689
    7SOL    HW2   38   1.082   0.711   0.781
    8SOL     OW   39   1.768   0.591   0.232
    8SOL    HW1   40   1.743   0.581   0.140
    8SOL    HW2   41   1.728   0.517   0.276
    9SOL     OW   42   0.766   1.147   1.045
    9SOL    HW1   43   0.692   1.178   1.098
    9SOL    HW2   44   0.792   1.224   0.994
   10SOL     OW   45   0.861   0.779   1.821
   10SOL    HW1   46   0.859   0.850   1.885
   10SOL    HW2   47   0.888   0.822   1.739
   11SOL     OW   48   0.686   1.004   0.649
   11SOL    HW1   49   0.749   0.992   0.720
   11SOL    HW2   50   0.615   1.055   0.689
   12SOL     OW   51   0.709   1.153   1.810
   12SOL    HW1   52   0.754   1.234   1.834
   12SOL    HW2   53   0.624   1.182   1.777
   13SOL     OW   54   0.333   1.426   1.072
   13SOL    HW1   55   0.266   1.378   1.023
   13SOL    HW2   56   0.381   1.474   1.005
   14SOL     OW   57   0.453   0.403   1.492
   14SOL    HW1   58   0.526   0.342   1.495
   14SOL    HW2   59   0.375   0.349   1.505
   15SOL     OW   60   1.611   0.457   0.736
   15SOL    HW1   61   1.536   0.480   0.681
   15SOL    HW2   62   1.624   0.534   0.792
   16SOL     OW   63   0.218   1.716   0.480
   16SOL    HW1   64   0.238   1.798   0.524
   16SOL    HW2   65   0.289   1.704   0.417
   17SOL     OW   66   0.251   1.450   0.529
   17SOL    HW1   67   0.213   1.538   0.524
   17SOL    HW2   68   0.191   1.401   0.585
   18SOL     OW   69   0.264   1.082   0.897
   18SOL    HW1   70   0.255   0.994   0.933
   18SOL    HW2   71   0.199   1.135   0.944
   19SOL     OW   72   0.622   1.787   1.439
   19SOL    HW1   73   0.536   1.769   1.477
   19SOL    HW2   74   0.638   1.879   1.457
   20SOL     OW   75   0.588   0.976   0.151
   20SOL    HW1   76   0.601   1.048   0.090
   20SOL    HW2   77   0.629   1.005   0.233
   21SOL     OW   78   1.553   0.146   1.456
   21SOL    HW1   79   1.590   0.223   1.413
   21SOL    HW2   80   1.623   0.114   1.512
   22SOL     OW   81   0.122   0.628   0.570
   22SOL    HW1   82   0.085   0.550   0.611
   22SOL    HW2   83   0.119   0.696   0.637
   23SOL     OW   84   1.845   1.757   0.335
   23SOL    HW1   85   1.904   1.724   0.402
   23SOL    HW2   86   1.869   1.849   0.325
   24SOL     OW   87   0.023   1.601   0.118
   24SOL    HW1   88   0.023   1.505   0.128
   24SOL    HW2   89   2.986   1.633   0.200
   25SOL     OW   90   1.688   0.917   0.639
   25SOL    HW1   91   1.773   0.878   0.619
   25SOL    HW2   92   1.667   0.969   0.561
   26SOL     OW   93   1.647   1.108   0.432
   26SOL    HW1   94   1.733   1.112   0.390
   26SOL    HW2   95   1.653   1.169   0.505
   27SOL     OW   96   0.132   0.748   1.588
   27SOL    HW1   97   0.227   0.760   1.590
   27SOL    HW2   98   0.096   0.836   1.591
   28SOL     OW   99   0.612   1.384   0.736
   28SOL    HW1  100   0.565   1.301   0.744
   28SOL    HW2  101   0.595   1.412   0.646
   29SOL     OW  102   0.820   0.013   0.517
   29SOL    HW1  103   0.851   0.102   0.500
   29SOL    HW2  104   0.725   0.018   0.500
   30SOL     OW  105   0.186   0.954   1.276
   30SOL    HW1  106   0.271   0.915   1.253
   30SOL    HW2  107   0.124   0.912   1.218
   31SOL     OW  108   1.506   1.007   0.212
   31SOL    HW1  109   1.440   0.949   0.251
   31SOL    HW2  110   1.560   1.036   0.285
   32SOL     OW  111   1.191   1.814   1.616
   32SOL    HW1  112   1.199   1.884   1.551
   32SOL    HW2  113   1.159   1.739   1.567
   33SOL     OW  114   0.334   0.253   1.797
   33SOL    HW1  115   0.384   0.330   1.824
   33SOL    HW2  116   0.250   0.261   1.841
   34SOL     OW  117   1.466   1.419   0.952
   34SOL    HW1  118   1.395   1.435   1.014
   34SOL    HW2  119   1.454   1.328   0.924
   35SOL     OW  120   1.660   1.737   0.577
   35SOL    HW1  121   1.638   1.707   0.489
   35SOL    HW2  122   1.635   1.663   0.633
   36SOL     OW  123   0.592   0.719   0.268
   36SOL    HW1  124   0.599   0.802   0.221
   36SOL    HW2  125   0.529   0.736   0.338
   37SOL     OW  126   1.286   0.344   0.930
   37SOL    HW1  127   1.194   0.319   0.938
   37SOL    HW2  128   1.330   0.293   0.998
   38SOL     OW  129   1.583   1.668   0.310
   38SOL    HW1  130   1.672   1.701   0.302
   38SOL    HW2  131   1.557   1.647   0.221
   39SOL     OW  132   0.792   0.619   1.454
   39SOL    HW1  133   0.764   0.595   1.542
   39SOL    HW2  134   0.751   0.553   1.398
   40SOL     OW  135   1.396   0.480   1.677
   40SOL    HW1  136   1.399   0.523   1.763
   40SOL    HW2  137   1.453   0.403   1.688
   41SOL     OW  138   0.958   0.889   1.583
   41SOL    HW1  139   1.012   0.818   1.549
   41SOL    HW2  140   0.908   0.919   1.508
   42SOL     OW  141   0.995   0.424   1.228
   42SOL    HW1  142   0.916   0.435   1.281
   42SOL    HW2  143   0.966   0.374   1.152
   43SOL     OW  144   1.050   0.706   0.424
   43SOL    HW1  145   1.066   0.695   0.518
   43SOL    HW2  146   0.969   0.657   0.408
   44SOL     OW  147   0.104   0.817   0.762
   44SOL    HW1  148   0.180   0.814   0.819
   44SOL    HW2  149   0.038   0.864   0.812
   45SOL     OW  150   0.139   1.838   1.571
   45SOL    HW1  151   0.125   1.817   1.663
   45SOL    HW2  152   0.054   1.866   1.539
   46SOL     OW  153   0.929   0.339   0.220
   46SOL    HW1  154   0.937   0.399   0.146
   46SOL    HW2  155   0.879   0.265   0.186
   47SOL     OW  156   1.711   0.577   1.828
   47SOL    HW1  157   1.672   0.653   1.785
   47SOL    HW2  158   1.736   0.518   1.757
   48SOL     OW  159   1.376   1.140   0.540
   48SOL    HW1  160   1.456   1.130   0.489
   48SOL    HW2  161   1.324   1.204   0.491
   49SOL     OW  162   0.511   0.198   0.916
   49SOL    HW1  163   0.536   0.213   1.007
   49SOL    HW2  164   0.549   0.273   0.869
   50SOL     OW  165   1.007   1.448   0.474
   50SOL    HW1  166   0.967   1.517   0.422
   50SOL    HW2  167   0.985   1.469   0.565
   51SOL     OW  168   0.354   1.808   0.857
   51SOL    HW1  169   0.399   1.725   0.868
   51SOL    HW2  170   0.420   1.874   0.876
   52SOL     OW  171   1.801   1.056   0.865
   52SOL    HW1  172   1.745   1.042   0.789
   52SOL    HW2  173   1.740   1.060   0.939
   53SOL     OW  174   0.318   0.947   0.234
   53SOL    HW1  175   0.409   0.955   0.206
   53SOL    HW2  176   0.292   0.860   0.205
   54SOL     OW  177   1.476   0.742   0.728
   54SOL    HW1  178   1.468   0.698   0.813
   54SOL    HW2  179   1.555   0.796   0.738
   55SOL     OW  180   0.467   1.262   1.734
   55SOL    HW1  181   0.439   1.268   1.642
   55SOL    HW2  182   0.386   1.267   1.784
   56SOL     OW  183   1.111   1.776   0.223
   56SOL    HW1  184   1.051   1.728   0.281
   56SOL    HW2  185   1.142   1.710   0.161
   57SOL     OW  186   0.202   0.298   1.495
   57SOL    HW1  187   0.118   0.343   1.492
   57SOL    HW2  188   0.186   0.220   1.548
   58SOL     OW  189   1.626   1.361   0.085
   58SOL    HW1  190   1.600   1.453   0.076
   58SOL    HW2  191   1.544   1.312   0.079
   59SOL     OW  192   0.466   1.722   0.335
   59SOL    HW1  193   0.500   1.792   0.391
   59SOL    HW2  194   0.532   1.712   0.266
   60SOL     OW  195   1.410   0.109   0.437
   60SOL    HW1  196   1.393   0.083   0.346
   60SOL    HW2  197   1.504   0.126   0.440
   61SOL     OW  198   0.268   1.797   1.233
   61SOL    HW1  199   0.303   1.721   1.279
   61SOL    HW2  200   0.224   1.760   1.156
   62SOL     OW  201   0.938   1.697   0.900
   62SOL    HW1  202   1.019   1.648   0.914
   62SOL    HW2  203   0.893   1.649   0.831
   63SOL     OW  204   0.394   0.690   0.474
   63SOL    HW1  205   0.423   0.601   0.492
   63SOL    HW2  206   0.301   0.690   0.497
   64SOL     OW  207   1.537   0.252   1.736
   64SOL    HW1  208   1.539   0.258   1.831
   64SOL    HW2  209   1.485   0.174   1.718
   65SOL     OW  210   0.608   0.111   0.105
   65SOL    HW1  211   0.703   0.108   0.117
   65SOL    HW2  212   0.596   0.150   0.019
   66SOL     OW  213   0.764   0.271   1.749
   66SOL    HW1  214   0.842   0.216   1.762
   66SOL    HW2  215   0.726   0.279   1.836
   67SOL     OW  216   0.877   1.521   1.192
   67SOL    HW1  217   0.857   1.490   1.104
   67SOL    HW2  218   0.953   1.469   1.219
   68SOL     OW  219   1.341   0.588   1.432
   68SOL    HW1  220   1.371   0.557   1.517
   68SOL    HW2  221   1.377   0.676   1.424
   69SOL     OW  222   0.815   1.396   0.937
   69SOL    HW1  223   0.898   1.387   0.890
   69SOL    HW2  224   0.749   1.397   0.868
   70SOL     OW  225   0.928   0.511   0.902
   70SOL    HW1  226   0.906   0.504   0.810
   70SOL    HW2  227   0.959   0.424   0.926
   71SOL     OW  228   0.541   0.047   0.499
   71SOL    HW1  229   0.455   0.039   0.539
   71SOL    HW2  230   0.534   0.123   0.441
   72SOL     OW  231   1.410   1.208   0.049
   72SOL    HW1  232   1.429   1.133   0.105
   72SOL    HW2  233   1.322   1.236   0.075
   73SOL     OW  234   0.297   0.082   0.199
   73SOL    HW1  235   0.382   0.127   0.198
   73SOL    HW2  236   0.319   2.989   0.191
   74SOL     OW  237   0.948   0.252   0.474
   74SOL    HW1  238   0.926   0.289   0.389
   74SOL    HW2  239   1.043   0.263   0.481
   75SOL     OW  240   1.080   0.680   1.458
   75SOL    HW1  241   1.011   0.614   1.465
   75SOL    HW2  242   1.161   0.630   1.452
   76SOL     OW  243   1.224   1.573   0.797
   76SOL    HW1  244   1.238   1.637   0.727
   76SOL    HW2  245   1.296   1.590   0.859
   77SOL     OW  246   0.469   1.148   0.736
   77SOL    HW1  247   0.398   1.128   0.798
   77SOL    HW2  248   0.430   1.136   0.650
   78SOL     OW  249   1.268   1.794   0.605
   78SOL    HW1  250   1.316   1.855   0.549
   78SOL    HW2  251   1.205   1.848   0.651
   79SOL     OW  252   1.047   0.497   0.032
   79SOL    HW1  253   1.004   0.583   0.025
   79SOL    HW2  254   1.114   0.509   0.099
   80SOL     OW  255   0.081   0.567   1.389
   80SOL    HW1  256   0.171   0.561   1.356
   80SOL    HW2  257   0.086   0.631   1.460
   81SOL     OW  258   0.581   0.210   1.181
   81SOL    HW1  259   0.618   0.172   1.261
   81SOL    HW2  260   0.488   0.218   1.198
   82SOL     OW  261   0.876   0.472   0.638
   82SOL    HW1  262   0.821   0.517   0.575
   82SOL    HW2  263   0.885   0.383   0.604
   83SOL     OW  264   0.997   0.058   0.765
   83SOL    HW1  265   0.962   0.066   0.677
   83SOL    HW2  266   0.973   2.969   0.792
   84SOL     OW  267   1.434   1.163   0.858
   84SOL    HW1  268   1.369   1.092   0.851
   84SOL    HW2  269   1.463   1.177   0.768
   85SOL     OW  270   1.468   0.604   0.978
   85SOL    HW1  271   1.416   0.524   0.984
   85SOL    HW2  272   1.528   0.600   1.052
   86SOL     OW  273   1.845   0.816   0.383
   86SOL    HW1  274   1.901   0.761   0.437
   86SOL    HW2  275   1.820   0.760   0.309
   87SOL     OW  276   0.489   1.408   0.151
   87SOL    HW1  277   0.426   1.374   0.215
   87SOL    HW2  278   0.440   1.417   0.070
   88SOL     OW  279   1.669   1.264   0.650
   88SOL    HW1  280   1.764   1.267   0.662
   88SOL    HW2  281   1.639   1.353   0.670
   89SOL     OW  282   1.414   0.574   0.098
   89SOL    HW1  283   1.344   0.568   0.162
   89SOL    HW2  284   1.458   0.489   0.102
   90SOL     OW  285   0.527   0.261   0.324
   90SOL    HW1  286   0.570   0.214   0.253
   90SOL    HW2  287   0.500   0.344   0.285
   91SOL     OW  288   1.747   1.228   1.565
   91SOL    HW1  289   1.841   1.214   1.565
   91SOL    HW2  290   1.734   1.309   1.615
   92SOL     OW  291   1.078   1.339   1.370
   92SOL    HW1  292   0.985   1.328   1.393
   92SOL    HW2  293   1.109   1.250   1.356
   93SOL     OW  294   1.121   1.219   1.107
   93SOL    HW1  295   1.033   1.219   1.146
   93SOL    HW2  296   1.105   1.235   1.014
   94SOL     OW  297   1.627   1.090   1.070
   94SOL    HW1  298   1.622   1.153   1.142
   94SOL    HW2  299   1.549   1.108   1.018
   95SOL     OW  300   0.899   0.111   1.384
   95SOL    HW1  301   0.940   0.093   1.299
   95SOL    HW2  302   0.963   0.165   1.430
   96SOL     OW  303   0.986   1.125   1.711
   96SOL    HW1  304   0.895   1.136   1.740
   96SOL    HW2  305   0.987   1.042   1.664
   97SOL     OW  306   0.705   1.064   0.379
   97SOL    HW1  307   0.690   1.048   0.472
   97SOL    HW2  308   0.785   1.015   0.359
   98SOL     OW  309   0.421   0.813   1.248
   98SOL    HW1  310   0.487   0.824   1.316
   98SOL    HW2  311   0.384   0.726   1.264
   99SOL     OW  312   1.271   0.388   1.259
   99SOL    HW1  313   1.300   0.459   1.316
   99SOL    HW2  314   1.177   0.401   1.250
  100SOL     OW  315   0.067   1.573   1.311
  100SOL    HW1  316   0.026   1.652   1.345
  100SOL    HW2  317   0.155   1.574   1.347
  101SOL     OW  318   0.359   1.112   0.488
  101SOL    HW1  319   0.346   1.185   0.427
  101SOL    HW2  320   0.352   1.034   0.434
  102SOL     OW  321   0.551   0.541   0.862
  102SOL    HW1  322   0.570   0.595   0.786
  102SOL    HW2  323   0.618   0.567   0.926
  103SOL     OW  324   1.247   1.346   0.397
  103SOL    HW1  325   1.303   1.419   0.424
  103SOL    HW2  326   1.160   1.370   0.428
  104SOL     OW  327   1.271   1.450   1.141
  104SOL    HW1  328   1.304   1.439   1.230
  104SOL    HW2  329   1.215   1.373   1.126
  105SOL     OW  330   1.583   0.625   0.479
  105SOL    HW1  331   1.537   0.681   0.542
  105SOL    HW2  332   1.630   0.686   0.422
  106SOL     OW  333   0.349   1.530   1.320
  106SOL    HW1  334   0.331   1.488   1.236
  106SOL    HW2  335   0.444   1.540   1.322
  107SOL     OW  336   0.413   0.740   1.602
  107SOL    HW1  337   0.470   0.789   1.543
  107SOL    HW2  338   0.460   0.658   1.618
  108SOL     OW  339   1.601   0.778   1.681
  108SOL    HW1  340   1.511   0.811   1.672
  108SOL    HW2  341   1.650   0.823   1.613
  109SOL     OW  342   1.005   0.113   1.761
  109SOL    HW1  343   1.050   0.195   1.738
  109SOL    HW2  344   1.024   0.054   1.688
  110SOL     OW  345   0.505   0.051   1.750
  110SOL    HW1  346   0.471   2.988   1.686
  110SOL    HW2  347   0.437   0.117   1.757
  111SOL     OW  348   0.586   0.871   1.032
  111SOL    HW1  349   0.606   0.965   1.028
  111SOL    HW2  350   0.527   0.863   1.107
  112SOL     OW  351   1.357   0.862   1.033
  112SOL    HW1  352   1.276   0.850   0.984
  112SOL    HW2  353   1.399   0.776   1.033
  113SOL     OW  354   1.205   0.530   0.270
  113SOL    HW1  355   1.214   0.450   0.322
  113SOL    HW2  356   1.161   0.592   0.329
  114SOL     OW  357   0.326   0.206   1.250
  114SOL    HW1  358   0.292   0.252   1.326
  114SOL    HW2  359   0.274   0.126   1.245
  115SOL     OW  360   0.031   1.305   1.278
  115SOL    HW1  361   0.065   1.259   1.355
  115SOL    HW2  362   0.042   1.398   1.299
  116SOL     OW  363   0.726   0.631   1.059
  116SOL    HW1  364   0.799   0.614   1.000
  116SOL    HW2  365   0.697   0.720   1.037
  117SOL     OW  366   1.736   0.959   1.853
  117SOL    HW1  367   1.686   0.904   1.792
  117SOL    HW2  368   1.676   0.973   1.926
  118SOL     OW  369   0.308   0.073   0.642
  118SOL    HW1  370   0.304   0.158   0.686
  118SOL    HW2  371   0.282   0.010   0.710
  119SOL     OW  372   1.617   0.375   0.366
  119SOL    HW1  373   1.647   0.310   0.430
  119SOL    HW2  374   1.591   0.451   0.418
  120SOL     OW  375   1.027   0.760   0.962
  120SOL    HW1  376   1.025   0.776   1.056
  120SOL    HW2  377   1.001   0.668   0.953
  121SOL     OW  378   1.021   1.543   1.682
  121SOL    HW1  379   0.979   1.600   1.617
  121SOL    HW2  380   0.958   1.472   1.694
  122SOL     OW  381   1.900   1.506   1.580
  122SOL    HW1  382   1.896   1.598   1.553
  122SOL    HW2  383   1.966   1.504   1.649
  123SOL     OW  384   0.357   0.916   1.808
  123SOL    HW1  385   0.438   0.934   1.856
  123SOL    HW2  386   0.382   0.851   1.742
  124SOL     OW  387   1.497   0.304   0.126
  124SOL    HW1  388   1.461   0.217   0.140
  124SOL    HW2  389   1.555   0.319   0.200
  125SOL     OW  390   1.292   0.822   0.034
  125SOL    HW1  391   1.335   0.737   0.048
  125SOL    HW2  392   1.323   0.850   2.948
  126SOL     OW  393   1.070   1.334   0.854
  126SOL    HW1  394   1.070   1.263   0.790
  126SOL    HW2  395   1.129   1.400   0.817
  127SOL     OW  396   0.310   0.806   0.948
  127SOL    HW1  397   0.403   0.826   0.942
  127SOL    HW2  398   0.306   0.718   0.985
  128SOL     OW  399   0.334   0.515   1.017
  128SOL    HW1  400   0.294   0.431   0.993
  128SOL    HW2  401   0.408   0.524   0.957
  129SOL     OW  402   1.141   0.380   1.703
  129SOL    HW1  403   1.095   0.436   1.766
  129SOL    HW2  404   1.227   0.420   1.694
  130SOL     OW  405   1.098   0.255   1.473
  130SOL    HW1  406   1.119   0.307   1.551
  130SOL    HW2  407   1.184   0.231   1.437
  131SOL     OW  408   0.009   1.315   0.171
  131SOL    HW1  409   2.917   1.330   0.149
  131SOL    HW2  410   0.008   1.241   0.231
  132SOL     OW  411   0.099   1.806   0.972
  132SOL    HW1  412   0.059   1.741   0.915
  132SOL    HW2  413   0.185   1.823   0.932
  133SOL     OW  414   0.495   1.573   0.902
  133SOL    HW1  415   0.563   1.634   0.929
  133SOL    HW2  416   0.540   1.509   0.847
  134SOL     OW  417   0.984   0.798   1.229
  134SOL    HW1  418   1.039   0.771   1.301
  134SOL    HW2  419   0.900   0.754   1.244
  135SOL     OW  420   0.044   0.559   1.107
  135SOL    HW1  421   0.134   0.537   1.083
  135SOL    HW2  422   0.040   0.544   1.201
  136SOL     OW  423   0.191   0.519   1.720
  136SOL    HW1  424   0.264   0.492   1.665
  136SOL    HW2  425   0.160   0.600   1.680
  137SOL     OW  426   1.359   0.910   1.654
  137SOL    HW1  427   1.397   0.997   1.659
  137SOL    HW2  428   1.360   0.888   1.560
  138SOL     OW  429   0.819   0.578   0.349
  138SOL    HW1  430   0.822   0.498   0.296
  138SOL    HW2  431   0.738   0.621   0.323
  139SOL     OW  432   1.643   0.603   1.187
  139SOL    HW1  433   1.630   0.545   1.262
  139SOL    HW2  434   1.729   0.580   1.153
  140SOL     OW  435   0.284   1.560   1.747
  140SOL    HW1  436   0.222   1.617   1.792
  140SOL    HW2  437   0.255   1.471   1.768
  141SOL     OW  438   0.697   0.455   1.262
  141SOL    HW1  439   0.650   0.379   1.230
  141SOL    HW2  440   0.697   0.517   1.189
  142SOL     OW  441   0.941   1.684   1.462
  142SOL    HW1  442   0.905   1.647   1.381
  142SOL    HW2  443   0.925   1.778   1.455
  143SOL     OW  444   0.451   0.495   0.200
  143SOL    HW1  445   0.511   0.566   0.222
  143SOL    HW2  446   0.367   0.538   0.187
  144SOL     OW  447   0.161   1.145   1.465
  144SOL    HW1  448   0.143   1.098   1.546
  144SOL    HW2  449   0.168   1.076   1.399
  145SOL     OW  450   1.324   1.055   1.226
  145SOL    HW1  451   1.350   0.990   1.160
  145SOL    HW2  452   1.255   1.106   1.183
  146SOL     OW  453   1.306   0.852   0.312
  146SOL    HW1  454   1.231   0.819   0.360
  146SOL    HW2  455   1.283   0.839   0.220
  147SOL     OW  456   1.239   1.730   1.116
  147SOL    HW1  457   1.321   1.757   1.074
  147SOL    HW2  458   1.245   1.635   1.125
  148SOL     OW  459   0.093   1.247   1.025
  148SOL    HW1  460   0.075   1.259   1.118
  148SOL    HW2  461   0.010   1.266   0.982
  149SOL     OW  462   0.687   1.670   1.722
  149SOL    HW1  463   0.623   1.740   1.732
  149SOL    HW2  464   0.726   1.685   1.636
  150SOL     OW  465   0.876   0.080   0.147
  150SOL    HW1  466   0.939   0.065   0.076
  150SOL    HW2  467   0.908   0.025   0.218
  151SOL     OW  468   1.713   0.141   0.505
  151SOL    HW1  469   1.783   0.142   0.440
  151SOL    HW2  470   1.729   0.063   0.557
  152SOL     OW  471   1.389   1.569   0.483
  152SOL    HW1  472   1.451   1.600   0.418
  152SOL    HW2  473   1.343   1.647   0.513
  153SOL     OW  474   0.121   1.798   1.843
  153SOL    HW1  475   0.080   1.729   1.894
  153SOL    HW2  476   0.179   1.842   1.905
  154SOL     OW  477   1.278   0.926   0.672
  154SOL    HW1  478   1.351   0.865   0.678
  154SOL    HW2  479   1.311   0.998   0.619
  155SOL     OW  480   0.817   1.279   1.420
  155SOL    HW1  481   0.789   1.311   1.506
  155SOL    HW2  482   0.743   1.296   1.363
  156SOL     OW  483   0.671   1.610   0.161
  156SOL    HW1  484   0.673   1.630   0.067
  156SOL    HW2  485   0.616   1.532   0.168
  157SOL     OW  486   1.850   0.155   0.967
  157SOL    HW1  487   1.853   0.072   0.919
  157SOL    HW2  488   1.768   0.196   0.938
  158SOL     OW  489   0.266   0.333   0.742
  158SOL    HW1  490   0.176   0.361   0.728
  158SOL    HW2  491   0.269   0.302   0.832
  159SOL     OW  492   1.206   1.602   0.034
  159SOL    HW1  493   1.199   1.512   0.066
  159SOL    HW2  494   1.155   1.603   2.953
  160SOL     OW  495   0.822   1.007   1.375
  160SOL    HW1  496   0.860   0.998   1.288
  160SOL    HW2  497   0.822   1.101   1.393
  161SOL     OW  498   0.922   0.928   0.305
  161SOL    HW1  499   0.987   0.965   0.245
  161SOL    HW2  500   0.970   0.863   0.356
  162SOL     OW  501   1.486   1.601   0.050
  162SOL    HW1  502   1.391   1.609   0.053
  162SOL    HW2  503   1.511   1.642   2.968
  163SOL     OW  504   0.376   1.305   1.488
  163SOL    HW1  505   0.356   1.384   1.439
  163SOL    HW2  506   0.299   1.249   1.475
  164SOL     OW  507   1.612   1.272   1.270
  164SOL    HW1  508   1.682   1.255   1.333
  164SOL    HW2  509   1.551   1.329   1.316
  165SOL     OW  510   1.050   1.106   0.707
  165SOL    HW1  511   0.980   1.054   0.745
  165SOL    HW2  512   1.113   1.042   0.674
  166SOL     OW  513   1.019   0.244   0.966
  166SOL    HW1  514   1.012   0.193   0.885
  166SOL    HW2  515   1.023   0.179   1.035
  167SOL     OW  516   0.604   1.492   0.484
  167SOL    HW1  517   0.643   1.441   0.414
  167SOL    HW2  518   0.537   1.545   0.442
  168SOL     OW  519   1.720   0.392   1.378
  168SOL    HW1  520   1.793   0.454   1.376
  168SOL    HW2  521   1.747   0.321   1.319
  169SOL     OW  522   0.268   1.331   0.293
  169SOL    HW1  523   0.179   1.337   0.258
  169SOL    HW2  524   0.264   1.378   0.377
  170SOL     OW  525   0.126   1.011   1.706
  170SOL    HW1  526   0.053   0.972   1.754
  170SOL    HW2  527   0.204   0.978   1.751
  171SOL     OW  528   0.663   0.212   1.492
  171SOL    HW1  529   0.745   0.180   1.453
  171SOL    HW2  530   0.685   0.228   1.584
  172SOL     OW  531   0.068   0.311   0.053
  172SOL    HW1  532   2.977   0.328   0.032
  172SOL    HW2  533   0.114   0.392   0.031
  173SOL     OW  534   1.429   0.856   1.395
  173SOL    HW1  535   1.384   0.925   1.346
  173SOL    HW2  536   1.520   0.861   1.365
  174SOL     OW  537   0.037   0.180   0.289
  174SOL    HW1  538   0.039   0.236   0.211
  174SOL    HW2  539   0.127   0.150   0.300
  175SOL     OW  540   1.183   1.347   0.125
  175SOL    HW1  541   1.088   1.337   0.114
  175SOL    HW2  542   1.197   1.337   0.219
  176SOL     OW  543   0.617   0.831   1.434
  176SOL    HW1  544   0.673   0.907   1.421
  176SOL    HW2  545   0.678   0.757   1.442
  177SOL     OW  546   1.478   1.769   0.972
  177SOL    HW1  547   1.516   1.831   0.910
  177SOL    HW2  548   1.550   1.749   1.033
  178SOL     OW  549   0.715   0.566   1.707
  178SOL    HW1  550   0.756   0.631   1.765
  178SOL    HW2  551   0.753   0.483   1.736
  179SOL     OW  552   1.492   1.140   1.644
  179SOL    HW1  553   1.472   1.165   1.734
  179SOL    HW2  554   1.579   1.175   1.627
  180SOL     OW  555   0.388   1.736   1.564
  180SOL    HW1  556   0.302   1.776   1.548
  180SOL    HW2  557   0.369   1.657   1.614
  181SOL     OW  558   1.672   0.882   1.255
  181SOL    HW1  559   1.664   0.795   1.215
  181SOL    HW2  560   1.662   0.943   1.181
  182SOL     OW  561   1.226   0.317   0.455
  182SOL    HW1  562   1.287   0.243   0.454
  182SOL    HW2  563   1.250   0.368   0.532
  183SOL     OW  564   0.592   0.740   0.667
  183SOL    HW1  565   0.630   0.827   0.654
  183SOL    HW2  566   0.522   0.734   0.602
  184SOL     OW  567   1.765   0.354   1.646
  184SOL    HW1  568   1.744   0.377   1.555
  184SOL    HW2  569   1.683   0.320   1.681
  185SOL     OW  570   1.745   0.933   1.513
  185SOL    HW1  571   1.744   1.028   1.529
  185SOL    HW2  572   1.730   0.925   1.419
  186SOL     OW  573   0.909   1.388   0.063
  186SOL    HW1  574   0.836   1.387   0.125
  186SOL    HW2  575   0.868   1.410   2.979
  187SOL     OW  576   0.659   1.792   0.946
  187SOL    HW1  577   0.637   1.881   0.923
  187SOL    HW2  578   0.754   1.787   0.937
  188SOL     OW  579   0.867   0.967   0.857
  188SOL    HW1  580   0.915   0.894   0.895
  188SOL    HW2  581   0.833   1.015   0.932
  189SOL     OW  582   1.099   1.016   0.102
  189SOL    HW1  583   1.066   1.058   0.022
  189SOL    HW2  584   1.166   0.955   0.072
  190SOL     OW  585   1.860   1.552   0.845
  190SOL    HW1  586   1.781   1.549   0.791
  190SOL    HW2  587   1.835   1.508   0.926
  191SOL     OW  588   0.225   1.302   1.854
  191SOL    HW1  589   0.178   1.222   1.831
  191SOL    HW2  590   0.212   1.311   1.948
  192SOL     OW  591   0.129   1.251   0.665
  192SOL    HW1  592   0.077   1.186   0.710
  192SOL    HW2  593   0.178   1.201   0.599
  193SOL     OW  594   0.684   1.404   1.624
  193SOL    HW1  595   0.606   1.356   1.650
  193SOL    HW2  596   0.676   1.489   1.665
  194SOL     OW  597   1.797   0.176   1.235
  194SOL    HW1  598   1.843   0.101   1.272
  194SOL    HW2  599   1.822   0.177   1.143
  195SOL     OW  600   0.463   0.432   0.548
  195SOL    HW1  601   0.453   0.370   0.476
  195SOL    HW2  602   0.405   0.399   0.616
  196SOL     OW  603   1.717   1.469   1.073
  196SOL    HW1  604   1.627   1.458   1.041
  196SOL    HW2  605   1.723   1.411   1.148
  197SOL     OW  606   0.333   0.556   1.291
  197SOL    HW1  607   0.389   0.501   1.346
  197SOL    HW2  608   0.351   0.526   1.202
  198SOL     OW  609   0.827   1.577   0.678
  198SOL    HW1  610   0.817   1.632   0.600
  198SOL    HW2  611   0.749   1.522   0.679
  199SOL     OW  612   1.428   0.214   1.128
  199SOL    HW1  613   1.449   0.145   1.190
  199SOL    HW2  614   1.379   0.278   1.180
  200SOL     OW  615   1.013   0.026   1.146
  200SOL    HW1  616   0.931   2.997   1.106
  200SOL    HW2  617   1.073   2.952   1.133
  201SOL     OW  618   0.766   1.329   0.314
  201SOL    HW1  619   0.734   1.240   0.331
  201SOL    HW2  620   0.852   1.332   0.356
  202SOL     OW  621   0.621   1.557   1.285
  202SOL    HW1  622   0.623   1.638   1.336
  202SOL    HW2  623   0.708   1.551   1.245
  203SOL     OW  624   1.360   0.057   0.169
  203SOL    HW1  625   1.415   2.981   0.151
  203SOL    HW2  626   1.271   0.027   0.150
  204SOL     OW  627   1.297   0.460   0.681
  204SOL    HW1  628   1.242   0.538   0.689
  204SOL    HW2  629   1.294   0.420   0.767
  205SOL     OW  630   1.605   0.230   0.887
  205SOL    HW1  631   1.527   0.232   0.943
  205SOL    HW2  632   1.596   0.306   0.830
  206SOL     OW  633   0.073   1.091   0.343
  206SOL    HW1  634   0.149   1.048   0.305
  206SOL    HW2  635   0.003   1.026   0.336
  207SOL     OW  636   0.883   1.653   0.344
  207SOL    HW1  637   0.812   1.632   0.284
  207SOL    HW2  638   0.849   1.727   0.395
  208SOL     OW  639   0.243   0.645   1.975
  208SOL    HW1  640   0.173   0.610   2.030
  208SOL    HW2  641   0.226   0.609   1.888
  209SOL     OW  642   0.237   0.249   2.851
  209SOL    HW1  643   0.251   0.230   2.943
  209SOL    HW2  644   0.142   0.240   2.839
  210SOL     OW  645   0.007   0.389   2.524
  210SOL    HW1  646   2.922   0.426   2.545
  210SOL    HW2  647   2.988   0.315   2.466
  211SOL     OW  648   1.559   1.510   2.568
  211SOL    HW1  649   1.512   1.492   2.649
  211SOL    HW2  650   1.491   1.516   2.501
  212SOL     OW  651   1.133   0.698   2.563
  212SOL    HW1  652   1.183   0.778   2.549
  212SOL    HW2  653   1.084   0.713   2.644
  213SOL     OW  654   1.767   0.606   2.092
  213SOL    HW1  655   1.746   0.599   1.999
  213SOL    HW2  656   1.732   0.525   2.130
  214SOL     OW  657   0.747   1.144   2.897
  214SOL    HW1  658   0.680   1.192   2.946
  214SOL    HW2  659   0.800   1.212   2.856
  215SOL     OW  660   0.684   1.006   2.508
  215SOL    HW1  661   0.749   0.993   2.577
  215SOL    HW2  662   0.614   1.056   2.551
  216SOL     OW  663   0.330   1.451   2.933
  216SOL    HW1  664   0.280   1.385   2.885
  216SOL    HW2  665   0.386   1.491   2.867
  217SOL     OW  666   1.615   0.457   2.595
  217SOL    HW1  667   1.543   0.479   2.536
  217SOL    HW2  668   1.609   0.521   2.666
  218SOL     OW  669   0.220   1.711   2.347
  218SOL    HW1  670   0.239   1.795   2.389
  218SOL    HW2  671   0.280   1.707   2.273
  219SOL     OW  672   0.254   1.446   2.387
  219SOL    HW1  673   0.221   1.536   2.386
  219SOL    HW2  674   0.193   1.399   2.444
  220SOL     OW  675   0.240   1.084   2.750
  220SOL    HW1  676   0.258   1.002   2.795
  220SOL    HW2  677   0.193   1.137   2.815
  221SOL     OW  678   0.585   0.982   1.996
  221SOL    HW1  679   0.631   1.031   1.927
  221SOL    HW2  680   0.626   1.011   2.077
  222SOL     OW  681   0.130   0.624   2.435
  222SOL    HW1  682   0.088   0.548   2.475
  222SOL    HW2  683   0.124   0.693   2.501
  223SOL     OW  684   1.843   1.760   2.197
  223SOL    HW1  685   1.905   1.731   2.264
  223SOL    HW2  686   1.867   1.850   2.179
  224SOL     OW  687   0.030   1.598   2.001
  224SOL    HW1  688   0.021   1.502   2.007
  224SOL    HW2  689   2.975   1.631   2.072
  225SOL     OW  690   1.689   0.916   2.500
  225SOL    HW1  691   1.773   0.877   2.479
  225SOL    HW2  692   1.666   0.969   2.423
  226SOL     OW  693   1.645   1.106   2.294
  226SOL    HW1  694   1.729   1.116   2.248
  226SOL    HW2  695   1.650   1.168   2.366
  227SOL     OW  696   0.609   1.382   2.593
  227SOL    HW1  697   0.562   1.299   2.602
  227SOL    HW2  698   0.594   1.408   2.502
  228SOL     OW  699   0.821   0.014   2.379
  228SOL    HW1  700   0.854   0.100   2.353
  228SOL    HW2  701   0.727   0.017   2.359
  229SOL     OW  702   1.536   0.985   2.067
  229SOL    HW1  703   1.463   0.930   2.099
  229SOL    HW2  704   1.573   1.023   2.147
  230SOL     OW  705   1.431   1.421   2.798
  230SOL    HW1  706   1.418   1.421   2.893
  230SOL    HW2  707   1.438   1.329   2.775
  231SOL     OW  708   1.659   1.738   2.441
  231SOL    HW1  709   1.637   1.709   2.352
  231SOL    HW2  710   1.635   1.664   2.497
  232SOL     OW  711   0.597   0.722   2.126
  232SOL    HW1  712   0.603   0.803   2.075
  232SOL    HW2  713   0.532   0.741   2.194
  233SOL     OW  714   1.295   0.338   2.810
  233SOL    HW1  715   1.200   0.326   2.800
  233SOL    HW2  716   1.315   0.301   2.897
  234SOL     OW  717   1.582   1.673   2.176
  234SOL    HW1  718   1.673   1.703   2.169
  234SOL    HW2  719   1.554   1.661   2.085
  235SOL     OW  720   1.049   0.698   2.289
  235SOL    HW1  721   1.065   0.691   2.384
  235SOL    HW2  722   0.967   0.651   2.275
  236SOL     OW  723   0.106   0.816   2.623
  236SOL    HW1  724   0.183   0.814   2.679
  236SOL    HW2  725   0.045   0.875   2.668
  237SOL     OW  726   0.872   0.354   2.044
  237SOL    HW1  727   0.927   0.418   1.997
  237SOL    HW2  728   0.920   0.272   2.036
  238SOL     OW  729   1.377   1.143   2.403
  238SOL    HW1  730   1.455   1.129   2.350
  238SOL    HW2  731   1.324   1.205   2.354
  239SOL     OW  732   0.562   0.202   2.842
  239SOL    HW1  733   0.503   0.273   2.866
  239SOL    HW2  734   0.583   0.217   2.751
  240SOL     OW  735   1.004   1.443   2.336
  240SOL    HW1  736   0.968   1.517   2.287
  240SOL    HW2  737   0.990   1.465   2.428
  241SOL     OW  738   0.354   1.803   2.715
  241SOL    HW1  739   0.400   1.720   2.729
  241SOL    HW2  740   0.416   1.870   2.742
  242SOL     OW  741   1.807   1.057   2.718
  242SOL    HW1  742   1.747   1.039   2.646
  242SOL    HW2  743   1.751   1.060   2.796
  243SOL     OW  744   0.315   0.948   2.109
  243SOL    HW1  745   0.397   0.975   2.067
  243SOL    HW2  746   0.295   0.864   2.070
  244SOL     OW  747   1.475   0.746   2.588
  244SOL    HW1  748   1.474   0.694   2.668
  244SOL    HW2  749   1.557   0.796   2.593
  245SOL     OW  750   1.118   1.783   2.099
  245SOL    HW1  751   1.048   1.740   2.148
  245SOL    HW2  752   1.141   1.722   2.030
  246SOL     OW  753   1.615   1.371   1.983
  246SOL    HW1  754   1.606   1.443   1.921
  246SOL    HW2  755   1.557   1.303   1.949
  247SOL     OW  756   0.466   1.739   2.182
  247SOL    HW1  757   0.507   1.795   2.248
  247SOL    HW2  758   0.538   1.709   2.127
  248SOL     OW  759   1.409   0.112   2.297
  248SOL    HW1  760   1.393   0.079   2.208
  248SOL    HW2  761   1.503   0.128   2.299
  249SOL     OW  762   0.264   1.799   0.100
  249SOL    HW1  763   0.301   1.728   0.153
  249SOL    HW2  764   0.199   1.755   0.044
  250SOL     OW  765   0.943   1.691   2.754
  250SOL    HW1  766   1.024   1.640   2.756
  250SOL    HW2  767   0.888   1.647   2.689
  251SOL     OW  768   0.394   0.692   2.337
  251SOL    HW1  769   0.426   0.603   2.353
  251SOL    HW2  770   0.301   0.689   2.359
  252SOL     OW  771   0.628   0.117   1.976
  252SOL    HW1  772   0.719   0.089   1.966
  252SOL    HW2  773   0.588   0.102   1.890
  253SOL     OW  774   0.805   1.396   2.794
  253SOL    HW1  775   0.892   1.390   2.755
  253SOL    HW2  776   0.745   1.393   2.720
  254SOL     OW  777   0.920   0.520   2.758
  254SOL    HW1  778   0.902   0.500   2.666
  254SOL    HW2  779   0.951   0.437   2.794
  255SOL     OW  780   0.546   0.062   2.370
  255SOL    HW1  781   0.458   0.044   2.403
  255SOL    HW2  782   0.533   0.129   2.303
  256SOL     OW  783   1.424   1.176   1.900
  256SOL    HW1  784   1.445   1.113   1.968
  256SOL    HW2  785   1.351   1.227   1.937
  257SOL     OW  786   0.288   0.033   2.055
  257SOL    HW1  787   0.339   0.108   2.024
  257SOL    HW2  788   0.353   2.970   2.085
  258SOL     OW  789   0.939   0.256   2.322
  258SOL    HW1  790   0.912   0.301   2.241
  258SOL    HW2  791   1.034   0.267   2.324
  259SOL     OW  792   1.217   1.587   2.672
  259SOL    HW1  793   1.242   1.644   2.600
  259SOL    HW2  794   1.300   1.565   2.716
  260SOL     OW  795   0.462   1.146   2.600
  260SOL    HW1  796   0.390   1.129   2.661
  260SOL    HW2  797   0.424   1.131   2.514
  261SOL     OW  798   1.271   1.795   2.468
  261SOL    HW1  799   1.315   1.856   2.410
  261SOL    HW2  800   1.204   1.848   2.512
  262SOL     OW  801   1.022   0.548   1.888
  262SOL    HW1  802   0.982   0.633   1.868
  262SOL    HW2  803   1.088   0.568   1.954
  263SOL     OW  804   0.870   0.467   2.497
  263SOL    HW1  805   0.823   0.516   2.429
  263SOL    HW2  806   0.888   0.382   2.457
  264SOL     OW  807   0.997   0.050   2.623
  264SOL    HW1  808   0.964   0.058   2.533
  264SOL    HW2  809   0.974   2.961   2.649
  265SOL     OW  810   1.439   1.159   2.711
  265SOL    HW1  811   1.363   1.101   2.702
  265SOL    HW2  812   1.468   1.173   2.621
  266SOL     OW  813   1.487   0.585   2.818
  266SOL    HW1  814   1.423   0.514   2.821
  266SOL    HW2  815   1.504   0.605   2.910
  267SOL     OW  816   1.849   0.816   2.245
  267SOL    HW1  817   1.906   0.763   2.301
  267SOL    HW2  818   1.818   0.756   2.178
  268SOL     OW  819   0.492   1.414   2.024
  268SOL    HW1  820   0.415   1.386   2.073
  268SOL    HW2  821   0.470   1.396   1.932
  269SOL     OW  822   1.669   1.264   2.510
  269SOL    HW1  823   1.764   1.269   2.522
  269SOL    HW2  824   1.638   1.353   2.529
  270SOL     OW  825   1.394   0.570   1.934
  270SOL    HW1  826   1.333   0.553   2.005
  270SOL    HW2  827   1.478   0.537   1.966
  271SOL     OW  828   0.525   0.262   2.182
  271SOL    HW1  829   0.567   0.212   2.112
  271SOL    HW2  830   0.504   0.347   2.142
  272SOL     OW  831   1.649   1.106   2.930
  272SOL    HW1  832   1.648   1.172   3.000
  272SOL    HW2  833   1.564   1.114   2.888
  273SOL     OW  834   0.708   1.061   2.234
  273SOL    HW1  835   0.695   1.046   2.327
  273SOL    HW2  836   0.784   1.008   2.211
  274SOL     OW  837   0.347   1.110   2.353
  274SOL    HW1  838   0.354   1.181   2.290
  274SOL    HW2  839   0.353   1.030   2.300
  275SOL     OW  840   0.542   0.547   2.731
  275SOL    HW1  841   0.564   0.596   2.652
  275SOL    HW2  842   0.615   0.565   2.790
  276SOL     OW  843   1.247   1.345   2.259
  276SOL    HW1  844   1.303   1.419   2.284
  276SOL    HW2  845   1.160   1.370   2.290
  277SOL     OW  846   1.583   0.625   2.340
  277SOL    HW1  847   1.536   0.682   2.402
  277SOL    HW2  848   1.625   0.686   2.279
  278SOL     OW  849   0.578   0.874   2.880
  278SOL    HW1  850   0.617   0.957   2.853
  278SOL    HW2  851   0.557   0.886   2.972
  279SOL     OW  852   1.208   0.533   2.132
  279SOL    HW1  853   1.213   0.453   2.183
  279SOL    HW2  854   1.164   0.596   2.189
  280SOL     OW  855   0.730   0.641   2.917
  280SOL    HW1  856   0.799   0.615   2.855
  280SOL    HW2  857   0.698   0.724   2.884
  281SOL     OW  858   0.307   0.071   2.504
  281SOL    HW1  859   0.302   0.156   2.548
  281SOL    HW2  860   0.281   0.008   2.572
  282SOL     OW  861   1.608   0.375   2.232
  282SOL    HW1  862   1.649   0.314   2.294
  282SOL    HW2  863   1.590   0.454   2.283
  283SOL     OW  864   1.019   0.763   2.818
  283SOL    HW1  865   1.022   0.770   2.913
  283SOL    HW2  866   0.993   0.673   2.801
  284SOL     OW  867   1.528   0.272   1.997
  284SOL    HW1  868   1.465   0.206   2.026
  284SOL    HW2  869   1.563   0.310   2.078
  285SOL     OW  870   1.290   0.823   1.900
  285SOL    HW1  871   1.334   0.738   1.904
  285SOL    HW2  872   1.314   0.858   1.814
  286SOL     OW  873   1.049   1.350   2.695
  286SOL    HW1  874   1.062   1.268   2.648
  286SOL    HW2  875   1.127   1.402   2.674
  287SOL     OW  876   0.311   0.811   2.811
  287SOL    HW1  877   0.405   0.829   2.810
  287SOL    HW2  878   0.304   0.721   2.844
  288SOL     OW  879   0.317   0.521   2.874
  288SOL    HW1  880   0.288   0.433   2.853
  288SOL    HW2  881   0.396   0.534   2.823
  289SOL     OW  882   2.993   1.319   2.040
  289SOL    HW1  883   2.901   1.322   2.014
  289SOL    HW2  884   0.002   1.238   2.090
  290SOL     OW  885   0.094   1.823   2.811
  290SOL    HW1  886   0.058   1.743   2.772
  290SOL    HW2  887   0.185   1.824   2.783
  291SOL     OW  888   0.503   1.575   2.761
  291SOL    HW1  889   0.572   1.635   2.785
  291SOL    HW2  890   0.546   1.509   2.707
  292SOL     OW  891   0.973   0.748   0.087
  292SOL    HW1  892   1.025   0.753   0.167
  292SOL    HW2  893   0.885   0.775   0.114
  293SOL     OW  894   0.815   0.568   2.218
  293SOL    HW1  895   0.816   0.495   2.156
  293SOL    HW2  896   0.741   0.623   2.189
  294SOL     OW  897   0.696   0.434   0.088
  294SOL    HW1  898   0.602   0.437   0.104
  294SOL    HW2  899   0.713   0.510   0.032
  295SOL     OW  900   0.466   0.494   2.049
  295SOL    HW1  901   0.528   0.564   2.068
  295SOL    HW2  902   0.382   0.538   2.037
  296SOL     OW  903   1.310   0.856   2.172
  296SOL    HW1  904   1.233   0.826   2.219
  296SOL    HW2  905   1.289   0.843   2.079
  297SOL     OW  906   1.739   1.770   2.972
  297SOL    HW1  907   1.813   1.789   2.914
  297SOL    HW2  908   1.768   1.695   0.024
  298SOL     OW  909   0.071   1.247   2.904
  298SOL    HW1  910   0.046   1.277   2.991
  298SOL    HW2  911   0.004   1.282   2.846
  299SOL     OW  912   1.721   0.146   2.366
  299SOL    HW1  913   1.781   0.142   2.291
  299SOL    HW2  914   1.736   0.063   2.412
  300SOL     OW  915   1.391   1.567   2.349
  300SOL    HW1  916   1.451   1.596   2.280
  300SOL    HW2  917   1.343   1.646   2.374
  301SOL     OW  918   1.277   0.927   2.532
  301SOL    HW1  919   1.350   0.866   2.540
  301SOL    HW2  920   1.311   0.999   2.479
  302SOL     OW  921   0.671   1.619   2.018
  302SOL    HW1  922   0.682   1.629   1.923
  302SOL    HW2  923   0.618   1.540   2.028
  303SOL     OW  924   1.853   0.161   2.814
  303SOL    HW1  925   1.852   0.075   2.772
  303SOL    HW2  926   1.768   0.199   2.793
  304SOL     OW  927   0.270   0.333   2.597
  304SOL    HW1  928   0.179   0.364   2.589
  304SOL    HW2  929   0.276   0.302   2.688
  305SOL     OW  930   1.177   1.610   1.907
  305SOL    HW1  931   1.222   1.525   1.910
  305SOL    HW2  932   1.127   1.607   1.825
  306SOL     OW  933   0.915   0.910   2.152
  306SOL    HW1  934   0.975   0.941   2.084
  306SOL    HW2  935   0.963   0.841   2.197
  307SOL     OW  936   1.499   1.669   1.910
  307SOL    HW1  937   1.420   1.615   1.905
  307SOL    HW2  938   1.556   1.633   1.841
  308SOL     OW  939   1.053   1.105   2.572
  308SOL    HW1  940   0.980   1.054   2.606
  308SOL    HW2  941   1.114   1.041   2.537
  309SOL     OW  942   1.022   0.250   2.807
  309SOL    HW1  943   1.014   0.182   2.740
  309SOL    HW2  944   1.045   0.202   2.887
  310SOL     OW  945   0.603   1.488   2.341
  310SOL    HW1  946   0.642   1.440   2.268
  310SOL    HW2  947   0.530   1.536   2.302
  311SOL     OW  948   0.254   1.344   2.143
  311SOL    HW1  949   0.159   1.342   2.128
  311SOL    HW2  950   0.264   1.383   2.229
  312SOL     OW  951   0.100   0.324   1.910
  312SOL    HW1  952   0.016   0.295   1.874
  312SOL    HW2  953   0.113   0.412   1.873
  313SOL     OW  954   0.012   0.216   2.141
  313SOL    HW1  955   0.062   0.261   2.073
  313SOL    HW2  956   0.066   0.140   2.163
  314SOL     OW  957   1.181   1.327   1.990
  314SOL    HW1  958   1.089   1.300   1.993
  314SOL    HW2  959   1.207   1.335   2.082
  315SOL     OW  960   1.506   1.780   2.832
  315SOL    HW1  961   1.516   1.834   2.754
  315SOL    HW2  962   1.589   1.789   2.878
  316SOL     OW  963   1.715   0.847   0.060
  316SOL    HW1  964   1.636   0.819   0.106
  316SOL    HW2  965   1.698   0.939   0.039
  317SOL     OW  966   1.222   0.318   2.318
  317SOL    HW1  967   1.283   0.244   2.317
  317SOL    HW2  968   1.246   0.368   2.396
  318SOL     OW  969   0.592   0.740   2.530
  318SOL    HW1  970   0.631   0.826   2.514
  318SOL    HW2  971   0.522   0.733   2.464
  319SOL     OW  972   0.848   1.381   1.893
  319SOL    HW1  973   0.819   1.373   1.984
  319SOL    HW2  974   0.890   1.467   1.889
  320SOL     OW  975   0.663   1.794   2.822
  320SOL    HW1  976   0.640   1.882   2.792
  320SOL    HW2  977   0.757   1.787   2.805
  321SOL     OW  978   0.862   0.966   2.715
  321SOL    HW1  979   0.913   0.894   2.752
  321SOL    HW2  980   0.832   1.016   2.791
  322SOL     OW  981   1.072   0.984   1.944
  322SOL    HW1  982   1.065   1.046   1.871
  322SOL    HW2  983   1.152   0.935   1.926
  323SOL     OW  984   1.855   1.556   2.710
  323SOL    HW1  985   1.777   1.543   2.657
  323SOL    HW2  986   1.862   1.475   2.762
  324SOL     OW  987   0.130   1.249   2.522
  324SOL    HW1  988   0.091   1.184   2.581
  324SOL    HW2  989   0.189   1.198   2.467
  325SOL     OW  990   1.810   0.185   0.083
  325SOL    HW1  991   1.833   0.099   0.118
  325SOL    HW2  992   1.828   0.179   2.989
  326SOL     OW  993   0.462   0.435   2.404
  326SOL    HW1  994   0.455   0.370   2.334
  326SOL    HW2  995   0.411   0.399   2.476
  327SOL     OW  996   0.819   1.583   2.537
  327SOL    HW1  997   0.814   1.629   2.453
  327SOL    HW2  998   0.744   1.523   2.537
  328SOL     OW  999   0.779   1.328   2.165
  328SOL    HW1 1000   0.744   1.241   2.179
  328SOL    HW2 1001   0.855   1.333   2.223
  329SOL     OW 1002   1.346   0.046   2.029
  329SOL    HW1 1003   1.413   2.984   2.001
  329SOL    HW2 1004   1.265   2.995   2.032
  330SOL     OW 1005   1.297   0.457   2.547
  330SOL    HW1 1006   1.243   0.535   2.554
  330SOL    HW2 1007   1.293   0.418   2.635
  331SOL     OW 1008   1.599   0.235   2.749
  331SOL    HW1 1009   1.508   0.234   2.780
  331SOL    HW2 1010   1.603   0.309   2.689
  332SOL     OW 1011   0.064   1.078   2.154
  332SOL    HW1 1012   0.153   1.043   2.161
  332SOL    HW2 1013   0.011   1.016   2.204
  333SOL     OW 1014   0.880   1.651   2.209
  333SOL    HW1 1015   0.809   1.634   2.146
  333SOL    HW2 1016   0.852   1.728   2.257
  334SOL     OW 1017   0.239   2.518   0.100
  334SOL    HW1 1018   0.171   2.473   0.150
  334SOL    HW2 1019   0.250   2.465   0.021
  335SOL     OW 1020   0.210   2.137   0.990
  335SOL    HW1 1021   0.243   2.106   1.075
  335SOL    HW2 1022   0.123   2.099   0.984
  336SOL     OW 1023   0.015   2.249   0.647
  336SOL    HW1 1024   2.929   2.285   0.667
  336SOL    HW2 1025   2.996   2.166   0.602
  337SOL     OW 1026   1.134   2.569   0.701
  337SOL    HW1 1027   1.180   2.653   0.694
  337SOL    HW2 1028   1.082   2.577   0.781
  338SOL     OW 1029   1.763   2.452   0.227
  338SOL    HW1 1030   1.744   2.434   0.135
  338SOL    HW2 1031   1.727   2.377   0.274
  339SOL     OW 1032   0.759   0.013   1.032
  339SOL    HW1 1033   0.679   0.048   1.071
  339SOL    HW2 1034   0.780   0.073   0.961
  340SOL     OW 1035   0.869   2.634   1.824
  340SOL    HW1 1036   0.846   2.698   1.892
  340SOL    HW2 1037   0.891   2.688   1.748
  341SOL     OW 1038   0.649   2.852   0.713
  341SOL    HW1 1039   0.744   2.856   0.724
  341SOL    HW2 1040   0.628   2.927   0.657
  342SOL     OW 1041   0.476   2.273   1.487
  342SOL    HW1 1042   0.545   2.208   1.490
  342SOL    HW2 1043   0.395   2.223   1.502
  343SOL     OW 1044   1.612   2.309   0.740
  343SOL    HW1 1045   1.536   2.333   0.687
  343SOL    HW2 1046   1.630   2.387   0.792
  344SOL     OW 1047   0.214   0.319   0.459
  344SOL    HW1 1048   0.214   0.387   0.527
  344SOL    HW2 1049   0.205   0.237   0.507
  345SOL     OW 1050   0.229   2.942   0.876
  345SOL    HW1 1051   0.259   2.861   0.919
  345SOL    HW2 1052   0.207   0.000   0.948
  346SOL     OW 1053   0.617   2.832   0.150
  346SOL    HW1 1054   0.599   2.925   0.132
  346SOL    HW2 1055   0.686   2.834   0.216
  347SOL     OW 1056   1.612   1.981   1.483
  347SOL    HW1 1057   1.597   2.049   1.417
  347SOL    HW2 1058   1.584   2.022   1.565
  348SOL     OW 1059   0.117   2.496   0.563
  348SOL    HW1 1060   0.095   2.411   0.601
  348SOL    HW2 1061   0.115   2.557   0.637
  349SOL     OW 1062   1.703   2.805   0.623
  349SOL    HW1 1063   1.780   2.750   0.636
  349SOL    HW2 1064   1.696   2.815   0.528
  350SOL     OW 1065   0.131   2.609   1.587
  350SOL    HW1 1066   0.226   2.623   1.590
  350SOL    HW2 1067   0.093   2.694   1.610
  351SOL     OW 1068   0.661   0.245   0.687
  351SOL    HW1 1069   0.597   0.177   0.708
  351SOL    HW2 1070   0.615   0.303   0.626
  352SOL     OW 1071   1.306   0.051   1.450
  352SOL    HW1 1072   1.320   2.992   1.376
  352SOL    HW2 1073   1.390   0.096   1.462
  353SOL     OW 1074   0.814   1.862   0.510
  353SOL    HW1 1075   0.854   1.947   0.493
  353SOL    HW2 1076   0.720   1.880   0.516
  354SOL     OW 1077   0.189   2.835   1.257
  354SOL    HW1 1078   0.273   2.789   1.249
  354SOL    HW2 1079   0.124   2.771   1.230
  355SOL     OW 1080   1.522   2.842   0.207
  355SOL    HW1 1081   1.454   2.797   0.257
  355SOL    HW2 1082   1.591   2.859   0.271
  356SOL     OW 1083   0.339   2.111   1.809
  356SOL    HW1 1084   0.384   2.193   1.829
  356SOL    HW2 1085   0.252   2.122   1.848
  357SOL     OW 1086   0.592   2.581   0.271
  357SOL    HW1 1087   0.594   2.662   0.220
  357SOL    HW2 1088   0.525   2.597   0.338
  358SOL     OW 1089   1.279   2.213   0.933
  358SOL    HW1 1090   1.190   2.180   0.941
  358SOL    HW2 1091   1.331   2.160   0.994
  359SOL     OW 1092   0.792   2.479   1.453
  359SOL    HW1 1093   0.765   2.456   1.542
  359SOL    HW2 1094   0.751   2.412   1.397
  360SOL     OW 1095   1.393   2.336   1.678
  360SOL    HW1 1096   1.396   2.380   1.763
  360SOL    HW2 1097   1.454   2.262   1.687
  361SOL     OW 1098   0.961   2.759   1.594
  361SOL    HW1 1099   1.013   2.688   1.555
  361SOL    HW2 1100   0.906   2.791   1.522
  362SOL     OW 1101   0.992   2.276   1.238
  362SOL    HW1 1102   0.907   2.297   1.277
  362SOL    HW2 1103   0.971   2.228   1.158
  363SOL     OW 1104   1.051   2.568   0.423
  363SOL    HW1 1105   1.064   2.560   0.517
  363SOL    HW2 1106   0.969   2.521   0.407
  364SOL     OW 1107   0.103   2.668   0.768
  364SOL    HW1 1108   0.179   2.675   0.826
  364SOL    HW2 1109   0.048   2.742   0.793
  365SOL     OW 1110   0.930   2.192   0.223
  365SOL    HW1 1111   0.939   2.255   0.151
  365SOL    HW2 1112   0.895   2.113   0.182
  366SOL     OW 1113   1.710   2.436   1.827
  366SOL    HW1 1114   1.671   2.510   1.780
  366SOL    HW2 1115   1.736   2.375   1.758
  367SOL     OW 1116   0.548   2.043   0.893
  367SOL    HW1 1117   0.552   2.073   0.984
  367SOL    HW2 1118   0.550   2.124   0.841
  368SOL     OW 1119   1.796   2.905   0.867
  368SOL    HW1 1120   1.741   2.890   0.790
  368SOL    HW2 1121   1.733   2.913   0.939
  369SOL     OW 1122   1.485   2.601   0.727
  369SOL    HW1 1123   1.464   2.551   0.806
  369SOL    HW2 1124   1.556   2.659   0.754
  370SOL     OW 1125   0.236   2.161   1.505
  370SOL    HW1 1126   0.157   2.209   1.480
  370SOL    HW2 1127   0.204   2.085   1.553
  371SOL     OW 1128   1.403   1.969   0.432
  371SOL    HW1 1129   1.394   1.948   0.338
  371SOL    HW2 1130   1.497   1.978   0.445
  372SOL     OW 1131   0.390   2.555   0.473
  372SOL    HW1 1132   0.411   2.463   0.485
  372SOL    HW2 1133   0.296   2.561   0.493
  373SOL     OW 1134   1.534   2.091   1.727
  373SOL    HW1 1135   1.543   2.112   1.820
  373SOL    HW2 1136   1.473   2.017   1.725
  374SOL     OW 1137   0.627   1.980   0.120
  374SOL    HW1 1138   0.721   1.963   0.118
  374SOL    HW2 1139   0.593   1.936   0.042
  375SOL     OW 1140   0.766   2.139   1.753
  375SOL    HW1 1141   0.841   2.079   1.756
  375SOL    HW2 1142   0.717   2.121   1.833
  376SOL     OW 1143   1.339   2.451   1.433
  376SOL    HW1 1144   1.371   2.418   1.517
  376SOL    HW2 1145   1.378   2.538   1.426
  377SOL     OW 1146   0.929   2.371   0.901
  377SOL    HW1 1147   0.905   2.362   0.809
  377SOL    HW2 1148   0.959   2.284   0.927
  378SOL     OW 1149   0.549   1.924   0.504
  378SOL    HW1 1150   0.467   1.926   0.554
  378SOL    HW2 1151   0.544   2.001   0.447
  379SOL     OW 1152   0.944   2.104   0.474
  379SOL    HW1 1153   0.922   2.140   0.388
  379SOL    HW2 1154   1.039   2.117   0.481
  380SOL     OW 1155   1.078   2.547   1.458
  380SOL    HW1 1156   1.008   2.483   1.467
  380SOL    HW2 1157   1.159   2.496   1.454
  381SOL     OW 1158   1.052   2.355   0.029
  381SOL    HW1 1159   1.004   2.438   0.022
  381SOL    HW2 1160   1.113   2.368   0.101
  382SOL     OW 1161   0.090   2.412   1.402
  382SOL    HW1 1162   0.174   2.420   1.358
  382SOL    HW2 1163   0.089   2.485   1.464
  383SOL     OW 1164   0.560   2.089   1.164
  383SOL    HW1 1165   0.598   2.010   1.202
  383SOL    HW2 1166   0.469   2.087   1.192
  384SOL     OW 1167   0.870   2.322   0.639
  384SOL    HW1 1168   0.820   2.376   0.577
  384SOL    HW2 1169   0.890   2.243   0.590
  385SOL     OW 1170   1.015   1.915   0.753
  385SOL    HW1 1171   0.957   1.911   0.677
  385SOL    HW2 1172   0.992   1.839   0.806
  386SOL     OW 1173   1.426   2.989   0.874
  386SOL    HW1 1174   1.361   2.934   0.830
  386SOL    HW2 1175   1.448   0.057   0.809
  387SOL     OW 1176   1.466   2.465   0.978
  387SOL    HW1 1177   1.418   2.383   0.982
  387SOL    HW2 1178   1.527   2.461   1.052
  388SOL     OW 1179   1.828   2.663   0.390
  388SOL    HW1 1180   1.892   2.617   0.445
  388SOL    HW2 1181   1.814   2.605   0.315
  389SOL     OW 1182   1.414   2.435   0.099
  389SOL    HW1 1183   1.343   2.428   0.162
  389SOL    HW2 1184   1.459   2.351   0.103
  390SOL     OW 1185   0.518   2.124   0.324
  390SOL    HW1 1186   0.558   2.074   0.253
  390SOL    HW2 1187   0.498   2.209   0.286
  391SOL     OW 1188   1.779   0.076   1.588
  391SOL    HW1 1189   1.868   0.043   1.574
  391SOL    HW2 1190   1.791   0.158   1.635
  392SOL     OW 1191   1.623   2.954   1.073
  392SOL    HW1 1192   1.638   0.039   1.116
  392SOL    HW2 1193   1.547   2.970   1.016
  393SOL     OW 1194   0.919   1.957   1.398
  393SOL    HW1 1195   0.941   1.941   1.307
  393SOL    HW2 1196   0.997   2.000   1.434
  394SOL     OW 1197   0.416   2.680   1.253
  394SOL    HW1 1198   0.485   2.686   1.318
  394SOL    HW2 1199   0.381   2.591   1.262
  395SOL     OW 1200   1.265   2.239   1.275
  395SOL    HW1 1201   1.298   2.316   1.321
  395SOL    HW2 1202   1.176   2.262   1.251
  396SOL     OW 1203   0.554   2.396   0.861
  396SOL    HW1 1204   0.569   2.451   0.784
  396SOL    HW2 1205   0.619   2.426   0.925
  397SOL     OW 1206   1.579   2.486   0.477
  397SOL    HW1 1207   1.539   2.540   0.544
  397SOL    HW2 1208   1.637   2.546   0.429
  398SOL     OW 1209   0.413   2.597   1.604
  398SOL    HW1 1210   0.471   2.646   1.545
  398SOL    HW2 1211   0.460   2.515   1.619
  399SOL     OW 1212   1.597   2.636   1.681
  399SOL    HW1 1213   1.511   2.677   1.674
  399SOL    HW2 1214   1.650   2.679   1.614
  400SOL     OW 1215   0.996   1.985   1.754
  400SOL    HW1 1216   1.049   2.060   1.728
  400SOL    HW2 1217   1.050   1.909   1.735
  401SOL     OW 1218   0.501   1.900   1.747
  401SOL    HW1 1219   0.458   1.846   1.681
  401SOL    HW2 1220   0.442   1.975   1.759
  402SOL     OW 1221   0.594   2.729   1.039
  402SOL    HW1 1222   0.595   2.820   1.010
  402SOL    HW2 1223   0.528   2.727   1.108
  403SOL     OW 1224   1.348   2.712   1.034
  403SOL    HW1 1225   1.279   2.706   0.968
  403SOL    HW2 1226   1.393   2.628   1.029
  404SOL     OW 1227   1.204   2.394   0.270
  404SOL    HW1 1228   1.210   2.310   0.316
  404SOL    HW2 1229   1.157   2.452   0.331
  405SOL     OW 1230   0.300   2.065   1.243
  405SOL    HW1 1231   0.280   2.094   1.332
  405SOL    HW2 1232   0.285   1.970   1.245
  406SOL     OW 1233   0.054   0.171   1.265
  406SOL    HW1 1234   0.080   0.137   1.351
  406SOL    HW2 1235   0.006   0.252   1.285
  407SOL     OW 1236   0.729   2.492   1.060
  407SOL    HW1 1237   0.799   2.477   0.997
  407SOL    HW2 1238   0.697   2.580   1.041
  408SOL     OW 1239   1.737   2.818   1.846
  408SOL    HW1 1240   1.689   2.758   1.788
  408SOL    HW2 1241   1.679   2.831   1.921
  409SOL     OW 1242   0.302   1.931   0.622
  409SOL    HW1 1243   0.285   2.022   0.648
  409SOL    HW2 1244   0.310   1.883   0.704
  410SOL     OW 1245   1.620   2.235   0.367
  410SOL    HW1 1246   1.645   2.170   0.432
  410SOL    HW2 1247   1.593   2.311   0.419
  411SOL     OW 1248   1.028   2.616   0.966
  411SOL    HW1 1249   1.027   2.632   1.060
  411SOL    HW2 1250   1.002   2.525   0.956
  412SOL     OW 1251   0.358   2.787   1.797
  412SOL    HW1 1252   0.419   2.782   1.871
  412SOL    HW2 1253   0.383   2.713   1.741
  413SOL     OW 1254   1.501   2.169   0.126
  413SOL    HW1 1255   1.464   2.082   0.137
  413SOL    HW2 1256   1.556   2.182   0.203
  414SOL     OW 1257   1.295   2.683   0.038
  414SOL    HW1 1258   1.336   2.597   0.049
  414SOL    HW2 1259   1.325   2.712   2.952
  415SOL     OW 1260   0.314   2.677   0.951
  415SOL    HW1 1261   0.407   2.684   0.932
  415SOL    HW2 1262   0.302   2.589   0.986
  416SOL     OW 1263   0.335   2.379   1.015
  416SOL    HW1 1264   0.294   2.295   0.994
  416SOL    HW2 1265   0.410   2.386   0.956
  417SOL     OW 1266   1.134   2.238   1.681
  417SOL    HW1 1267   1.087   2.294   1.744
  417SOL    HW2 1268   1.222   2.275   1.677
  418SOL     OW 1269   1.161   2.064   1.471
  418SOL    HW1 1270   1.151   2.127   1.542
  418SOL    HW2 1271   1.200   2.114   1.399
  419SOL     OW 1272   0.980   2.667   1.232
  419SOL    HW1 1273   1.036   2.639   1.304
  419SOL    HW2 1274   0.899   2.617   1.242
  420SOL     OW 1275   0.046   2.444   1.119
  420SOL    HW1 1276   0.119   2.399   1.078
  420SOL    HW2 1277   0.033   2.397   1.202
  421SOL     OW 1278   0.195   2.382   1.722
  421SOL    HW1 1279   0.265   2.351   1.664
  421SOL    HW2 1280   0.163   2.462   1.681
  422SOL     OW 1281   1.379   2.806   1.661
  422SOL    HW1 1282   1.396   2.900   1.656
  422SOL    HW2 1283   1.372   2.778   1.570
  423SOL     OW 1284   0.820   2.439   0.350
  423SOL    HW1 1285   0.818   2.361   0.294
  423SOL    HW2 1286   0.740   2.486   0.327
  424SOL     OW 1287   1.642   2.465   1.188
  424SOL    HW1 1288   1.632   2.404   1.261
  424SOL    HW2 1289   1.729   2.445   1.152
  425SOL     OW 1290   0.703   2.311   1.260
  425SOL    HW1 1291   0.648   2.239   1.230
  425SOL    HW2 1292   0.700   2.375   1.188
  426SOL     OW 1293   0.442   2.358   0.207
  426SOL    HW1 1294   0.512   2.421   0.224
  426SOL    HW2 1295   0.366   2.412   0.185
  427SOL     OW 1296   0.157   0.010   1.468
  427SOL    HW1 1297   0.146   2.958   1.548
  427SOL    HW2 1298   0.171   2.946   1.399
  428SOL     OW 1299   1.345   2.908   1.221
  428SOL    HW1 1300   1.363   2.844   1.152
  428SOL    HW2 1301   1.281   2.967   1.182
  429SOL     OW 1302   1.299   2.722   0.315
  429SOL    HW1 1303   1.228   2.675   0.359
  429SOL    HW2 1304   1.289   2.700   0.223
  430SOL     OW 1305   0.899   1.936   0.122
  430SOL    HW1 1306   0.955   1.917   0.047
  430SOL    HW2 1307   0.945   1.897   0.197
  431SOL     OW 1308   1.712   2.006   0.511
  431SOL    HW1 1309   1.792   1.997   0.459
  431SOL    HW2 1310   1.700   1.920   0.552
  432SOL     OW 1311   1.295   2.796   0.684
  432SOL    HW1 1312   1.363   2.729   0.681
  432SOL    HW2 1313   1.304   2.844   0.602
  433SOL     OW 1314   1.840   2.032   0.970
  433SOL    HW1 1315   1.871   1.945   0.945
  433SOL    HW2 1316   1.755   2.041   0.927
  434SOL     OW 1317   0.267   2.179   0.722
  434SOL    HW1 1318   0.183   2.216   0.695
  434SOL    HW2 1319   0.259   2.167   0.817
  435SOL     OW 1320   0.814   2.857   1.376
  435SOL    HW1 1321   0.869   2.832   1.302
  435SOL    HW2 1322   0.833   2.950   1.390
  436SOL     OW 1323   0.899   2.794   0.282
  436SOL    HW1 1324   0.981   2.821   0.241
  436SOL    HW2 1325   0.927   2.746   0.361
  437SOL     OW 1326   1.020   2.103   0.966
  437SOL    HW1 1327   1.016   2.055   0.883
  437SOL    HW2 1328   1.015   2.035   1.033
  438SOL     OW 1329   1.719   2.260   1.380
  438SOL    HW1 1330   1.793   2.320   1.379
  438SOL    HW2 1331   1.747   2.186   1.325
  439SOL     OW 1332   0.119   2.865   1.693
  439SOL    HW1 1333   0.050   2.847   1.757
  439SOL    HW2 1334   0.201   2.851   1.741
  440SOL     OW 1335   0.675   2.058   1.498
  440SOL    HW1 1336   0.759   2.039   1.458
  440SOL    HW2 1337   0.697   2.086   1.587
  441SOL     OW 1338   0.050   2.163   0.056
  441SOL    HW1 1339   2.967   2.204   0.032
  441SOL    HW2 1340   0.116   2.224   0.023
  442SOL     OW 1341   1.434   2.717   1.404
  442SOL    HW1 1342   1.391   2.776   1.342
  442SOL    HW2 1343   1.526   2.718   1.377
  443SOL     OW 1344   0.060   2.061   0.320
  443SOL    HW1 1345   0.047   2.098   0.233
  443SOL    HW2 1346   0.123   1.990   0.308
  444SOL     OW 1347   1.139   0.210   0.091
  444SOL    HW1 1348   1.072   0.258   0.139
  444SOL    HW2 1349   1.218   0.218   0.145
  445SOL     OW 1350   0.613   2.688   1.436
  445SOL    HW1 1351   0.670   2.763   1.420
  445SOL    HW2 1352   0.673   2.614   1.445
  446SOL     OW 1353   0.717   2.427   1.706
  446SOL    HW1 1354   0.758   2.490   1.765
  446SOL    HW2 1355   0.747   2.342   1.736
  447SOL     OW 1356   1.675   2.745   1.254
  447SOL    HW1 1357   1.666   2.658   1.215
  447SOL    HW2 1358   1.657   2.806   1.182
  448SOL     OW 1359   1.220   2.181   0.461
  448SOL    HW1 1360   1.284   2.110   0.450
  448SOL    HW2 1361   1.251   2.230   0.536
  449SOL     OW 1362   0.591   2.587   0.666
  449SOL    HW1 1363   0.614   2.680   0.677
  449SOL    HW2 1364   0.524   2.586   0.598
  450SOL     OW 1365   1.763   2.223   1.649
  450SOL    HW1 1366   1.745   2.237   1.556
  450SOL    HW2 1367   1.692   2.166   1.679
  451SOL     OW 1368   1.734   2.796   1.515
  451SOL    HW1 1369   1.748   2.889   1.534
  451SOL    HW2 1370   1.727   2.791   1.420
  452SOL     OW 1371   0.891   2.831   0.862
  452SOL    HW1 1372   0.928   2.750   0.897
  452SOL    HW2 1373   0.827   2.858   0.929
  453SOL     OW 1374   1.110   2.885   0.086
  453SOL    HW1 1375   1.063   2.887   0.003
  453SOL    HW2 1376   1.173   2.814   0.077
  454SOL     OW 1377   1.813   2.054   1.239
  454SOL    HW1 1378   1.823   1.963   1.264
  454SOL    HW2 1379   1.824   2.054   1.144
  455SOL     OW 1380   0.430   2.296   0.528
  455SOL    HW1 1381   0.460   2.225   0.471
  455SOL    HW2 1382   0.384   2.251   0.599
  456SOL     OW 1383   0.337   2.419   1.290
  456SOL    HW1 1384   0.396   2.365   1.342
  456SOL    HW2 1385   0.349   2.390   1.200
  457SOL     OW 1386   1.431   2.083   1.118
  457SOL    HW1 1387   1.462   2.006   1.165
  457SOL    HW2 1388   1.381   2.132   1.183
  458SOL     OW 1389   1.008   1.881   1.143
  458SOL    HW1 1390   0.954   1.815   1.101
  458SOL    HW2 1391   1.096   1.844   1.145
  459SOL     OW 1392   1.355   1.915   0.163
  459SOL    HW1 1393   1.381   1.863   0.087
  459SOL    HW2 1394   1.269   1.880   0.188
  460SOL     OW 1395   1.300   2.325   0.684
  460SOL    HW1 1396   1.243   2.402   0.690
  460SOL    HW2 1397   1.294   2.284   0.770
  461SOL     OW 1398   1.586   2.063   0.877
  461SOL    HW1 1399   1.525   2.083   0.948
  461SOL    HW2 1400   1.586   2.142   0.823
  462SOL     OW 1401   2.997   2.881   0.285
  462SOL    HW1 1402   0.078   2.918   0.250
  462SOL    HW2 1403   0.019   2.852   0.373
  463SOL     OW 1404   0.234   2.501   1.973
  463SOL    HW1 1405   0.165   2.458   2.025
  463SOL    HW2 1406   0.222   2.467   1.885
  464SOL     OW 1407   0.234   2.125   2.837
  464SOL    HW1 1408   0.272   2.099   2.921
  464SOL    HW2 1409   0.147   2.085   2.836
  465SOL     OW 1410   0.015   2.248   2.506
  465SOL    HW1 1411   2.929   2.284   2.530
  465SOL    HW2 1412   2.995   2.161   2.470
  466SOL     OW 1413   1.137   2.569   2.564
  466SOL    HW1 1414   1.183   2.652   2.556
  466SOL    HW2 1415   1.085   2.578   2.643
  467SOL     OW 1416   1.763   2.465   2.090
  467SOL    HW1 1417   1.745   2.457   1.997
  467SOL    HW2 1418   1.729   2.383   2.128
  468SOL     OW 1419   0.775   0.011   2.872
  468SOL    HW1 1420   0.684   0.032   2.895
  468SOL    HW2 1421   0.805   0.087   2.822
  469SOL     OW 1422   0.647   2.848   2.572
  469SOL    HW1 1423   0.741   2.847   2.592
  469SOL    HW2 1424   0.635   2.929   2.522
  470SOL     OW 1425   1.617   2.310   2.595
  470SOL    HW1 1426   1.541   2.334   2.541
  470SOL    HW2 1427   1.616   2.374   2.666
  471SOL     OW 1428   0.209   0.316   2.321
  471SOL    HW1 1429   0.222   0.385   2.386
  471SOL    HW2 1430   0.210   0.235   2.372
  472SOL     OW 1431   0.232   2.945   2.743
  472SOL    HW1 1432   0.259   2.859   2.777
  472SOL    HW2 1433   0.215   2.996   2.822
  473SOL     OW 1434   0.604   2.823   1.995
  473SOL    HW1 1435   0.593   2.907   1.951
  473SOL    HW2 1436   0.671   2.839   2.062
  474SOL     OW 1437   0.121   2.495   2.423
  474SOL    HW1 1438   0.097   2.411   2.463
  474SOL    HW2 1439   0.120   2.557   2.496
  475SOL     OW 1440   1.702   2.804   2.484
  475SOL    HW1 1441   1.781   2.751   2.500
  475SOL    HW2 1442   1.698   2.813   2.389
  476SOL     OW 1443   0.618   0.238   2.577
  476SOL    HW1 1444   0.595   0.159   2.528
  476SOL    HW2 1445   0.618   0.308   2.511
  477SOL     OW 1446   0.814   1.862   2.369
  477SOL    HW1 1447   0.854   1.947   2.350
  477SOL    HW2 1448   0.721   1.882   2.379
  478SOL     OW 1449   0.217   2.805   0.105
  478SOL    HW1 1450   0.274   2.728   0.100
  478SOL    HW2 1451   0.129   2.771   0.092
  479SOL     OW 1452   1.536   2.843   2.047
  479SOL    HW1 1453   1.470   2.789   2.089
  479SOL    HW2 1454   1.597   2.866   2.118
  480SOL     OW 1455   0.597   2.578   2.129
  480SOL    HW1 1456   0.599   2.657   2.075
  480SOL    HW2 1457   0.532   2.596   2.197
  481SOL     OW 1458   1.300   2.201   2.811
  481SOL    HW1 1459   1.206   2.182   2.801
  481SOL    HW2 1460   1.321   2.171   2.899
  482SOL     OW 1461   1.053   2.562   2.288
  482SOL    HW1 1462   1.065   2.558   2.383
  482SOL    HW2 1463   0.970   2.517   2.273
  483SOL     OW 1464   0.108   2.671   2.624
  483SOL    HW1 1465   0.183   2.674   2.683
  483SOL    HW2 1466   0.044   2.731   2.662
  484SOL     OW 1467   0.890   2.208   2.055
  484SOL    HW1 1468   0.931   2.270   1.995
  484SOL    HW2 1469   0.910   2.122   2.019
  485SOL     OW 1470   0.551   2.046   2.769
  485SOL    HW1 1471   0.514   2.083   2.849
  485SOL    HW2 1472   0.561   2.121   2.710
  486SOL     OW 1473   1.797   2.908   2.728
  486SOL    HW1 1474   1.740   2.889   2.654
  486SOL    HW2 1475   1.738   2.911   2.804
  487SOL     OW 1476   1.484   2.604   2.584
  487SOL    HW1 1477   1.469   2.550   2.661
  487SOL    HW2 1478   1.560   2.658   2.607
  488SOL     OW 1479   1.401   1.970   2.293
  488SOL    HW1 1480   1.390   1.944   2.201
  488SOL    HW2 1481   1.496   1.975   2.305
  489SOL     OW 1482   0.397   2.555   2.334
  489SOL    HW1 1483   0.412   2.462   2.349
  489SOL    HW2 1484   0.304   2.568   2.354
  490SOL     OW 1485   0.633   1.987   1.967
  490SOL    HW1 1486   0.704   1.924   1.980
  490SOL    HW2 1487   0.585   1.953   1.892
  491SOL     OW 1488   0.923   2.381   2.756
  491SOL    HW1 1489   0.902   2.358   2.665
  491SOL    HW2 1490   0.959   2.301   2.793
  492SOL     OW 1491   0.549   1.925   2.366
  492SOL    HW1 1492   0.468   1.926   2.415
  492SOL    HW2 1493   0.544   2.003   2.310
  493SOL     OW 1494   0.289   1.905   2.042
  493SOL    HW1 1495   0.349   1.974   2.013
  493SOL    HW2 1496   0.346   1.841   2.086
  494SOL     OW 1497   0.937   2.107   2.322
  494SOL    HW1 1498   0.910   2.150   2.241
  494SOL    HW2 1499   1.032   2.120   2.326
  495SOL     OW 1500   1.025   2.404   1.883
  495SOL    HW1 1501   0.980   2.487   1.863
  495SOL    HW2 1502   1.088   2.427   1.951
  496SOL     OW 1503   0.868   2.318   2.498
  496SOL    HW1 1504   0.821   2.375   2.438
  496SOL    HW2 1505   0.888   2.239   2.448
  497SOL     OW 1506   1.012   1.911   2.611
  497SOL    HW1 1507   0.955   1.904   2.534
  497SOL    HW2 1508   0.992   1.833   2.663
  498SOL     OW 1509   1.421   2.994   2.737
  498SOL    HW1 1510   1.355   2.939   2.695
  498SOL    HW2 1511   1.448   0.054   2.668
  499SOL     OW 1512   1.485   2.448   2.817
  499SOL    HW1 1513   1.421   2.377   2.823
  499SOL    HW2 1514   1.505   2.469   2.908
  500SOL     OW 1515   1.835   2.665   2.253
  500SOL    HW1 1516   1.896   2.617   2.309
  500SOL    HW2 1517   1.814   2.604   2.183
  501SOL     OW 1518   1.394   2.434   1.934
  501SOL    HW1 1519   1.334   2.413   2.005
  501SOL    HW2 1520   1.479   2.399   1.963
  502SOL     OW 1521   0.526   2.124   2.180
  502SOL    HW1 1522   0.569   2.076   2.109
  502SOL    HW2 1523   0.505   2.210   2.143
  503SOL     OW 1524   1.624   2.966   2.933
  503SOL    HW1 1525   1.629   0.044   2.988
  503SOL    HW2 1526   1.549   2.981   2.876
  504SOL     OW 1527   0.551   2.393   2.726
  504SOL    HW1 1528   0.566   2.449   2.649
  504SOL    HW2 1529   0.614   2.425   2.791
  505SOL     OW 1530   1.577   2.485   2.336
  505SOL    HW1 1531   1.538   2.539   2.404
  505SOL    HW2 1532   1.634   2.544   2.287
  506SOL     OW 1533   0.576   2.728   2.886
  506SOL    HW1 1534   0.612   2.807   2.846
  506SOL    HW2 1535   0.568   2.749   2.979
  507SOL     OW 1536   1.205   2.392   2.130
  507SOL    HW1 1537   1.214   2.313   2.184
  507SOL    HW2 1538   1.160   2.454   2.187
  508SOL     OW 1539   0.329   2.061   0.077
  508SOL    HW1 1540   0.323   2.102   0.163
  508SOL    HW2 1541   0.308   1.969   0.092
  509SOL     OW 1542   0.727   2.499   2.913
  509SOL    HW1 1543   0.797   2.480   2.850
  509SOL    HW2 1544   0.694   2.584   2.886
  510SOL     OW 1545   0.303   1.931   2.482
  510SOL    HW1 1546   0.285   2.021   2.508
  510SOL    HW2 1547   0.309   1.883   2.565
  511SOL     OW 1548   1.616   2.234   2.230
  511SOL    HW1 1549   1.643   2.171   2.297
  511SOL    HW2 1550   1.592   2.313   2.279
  512SOL     OW 1551   1.025   2.620   2.822
  512SOL    HW1 1552   1.026   2.624   2.918
  512SOL    HW2 1553   0.996   2.531   2.803
  513SOL     OW 1554   1.528   2.138   1.990
  513SOL    HW1 1555   1.466   2.069   2.014
  513SOL    HW2 1556   1.561   2.171   2.074
  514SOL     OW 1557   1.291   2.686   1.894
  514SOL    HW1 1558   1.333   2.600   1.899
  514SOL    HW2 1559   1.324   2.724   1.813
  515SOL     OW 1560   0.312   2.675   2.809
  515SOL    HW1 1561   0.406   2.691   2.813
  515SOL    HW2 1562   0.301   2.586   2.842
  516SOL     OW 1563   0.318   2.387   2.867
  516SOL    HW1 1564   0.287   2.298   2.852
  516SOL    HW2 1565   0.399   2.394   2.816
  517SOL     OW 1566   0.980   2.610   0.088
  517SOL    HW1 1567   1.025   2.604   0.173
  517SOL    HW2 1568   0.891   2.639   0.111
  518SOL     OW 1569   0.818   2.432   2.219
  518SOL    HW1 1570   0.819   2.357   2.160
  518SOL    HW2 1571   0.743   2.484   2.191
  519SOL     OW 1572   0.704   2.309   0.100
  519SOL    HW1 1573   0.615   2.274   0.093
  519SOL    HW2 1574   0.708   2.381   0.037
  520SOL     OW 1575   0.463   2.355   2.047
  520SOL    HW1 1576   0.526   2.423   2.069
  520SOL    HW2 1577   0.379   2.401   2.039
  521SOL     OW 1578   1.304   2.725   2.170
  521SOL    HW1 1579   1.232   2.684   2.218
  521SOL    HW2 1580   1.287   2.704   2.078
  522SOL     OW 1581   1.718   2.007   2.373
  522SOL    HW1 1582   1.791   1.993   2.313
  522SOL    HW2 1583   1.703   1.921   2.412
  523SOL     OW 1584   1.296   2.800   2.545
  523SOL    HW1 1585   1.362   2.731   2.545
  523SOL    HW2 1586   1.305   2.842   2.460
  524SOL     OW 1587   1.840   2.042   2.821
  524SOL    HW1 1588   1.870   1.954   2.798
  524SOL    HW2 1589   1.750   2.047   2.789
  525SOL     OW 1590   0.269   2.180   2.576
  525SOL    HW1 1591   0.184   2.218   2.554
  525SOL    HW2 1592   0.266   2.167   2.671
  526SOL     OW 1593   0.902   2.762   2.109
  526SOL    HW1 1594   0.979   2.810   2.079
  526SOL    HW2 1595   0.933   2.713   2.185
  527SOL     OW 1596   1.038   2.108   2.802
  527SOL    HW1 1597   1.026   2.050   2.727
  527SOL    HW2 1598   1.003   2.060   2.876
  528SOL     OW 1599   0.094   2.178   1.918
  528SOL    HW1 1600   0.012   2.148   1.879
  528SOL    HW2 1601   0.105   2.267   1.885
  529SOL     OW 1602   0.062   2.061   2.175
  529SOL    HW1 1603   0.072   2.107   2.092
  529SOL    HW2 1604   0.128   1.992   2.172
  530SOL     OW 1605   1.120   0.233   2.010
  530SOL    HW1 1606   1.108   0.157   1.953
  530SOL    HW2 1607   1.208   0.223   2.045
  531SOL     OW 1608   1.730   2.711   0.051
  531SOL    HW1 1609   1.659   2.670   0.100
  531SOL    HW2 1610   1.700   2.800   0.034
  532SOL     OW 1611   1.218   2.182   2.320
  532SOL    HW1 1612   1.281   2.110   2.310
  532SOL    HW2 1613   1.247   2.229   2.397
  533SOL     OW 1614   0.594   2.583   2.528
  533SOL    HW1 1615   0.615   2.675   2.541
  533SOL    HW2 1616   0.526   2.583   2.460
  534SOL     OW 1617   0.885   2.823   2.713
  534SOL    HW1 1618   0.929   2.749   2.755
  534SOL    HW2 1619   0.846   2.872   2.786
  535SOL     OW 1620   1.107   2.879   1.953
  535SOL    HW1 1621   1.062   2.902   1.872
  535SOL    HW2 1622   1.162   2.804   1.930
  536SOL     OW 1623   1.823   2.049   0.096
  536SOL    HW1 1624   1.790   1.959   0.098
  536SOL    HW2 1625   1.832   2.069   0.003
  537SOL     OW 1626   0.426   2.294   2.382
  537SOL    HW1 1627   0.459   2.221   2.330
  537SOL    HW2 1628   0.382   2.253   2.456
  538SOL     OW 1629   1.356   1.913   2.025
  538SOL    HW1 1630   1.392   1.842   1.972
  538SOL    HW2 1631   1.268   1.884   2.047
  539SOL     OW 1632   1.298   2.320   2.548
  539SOL    HW1 1633   1.244   2.399   2.556
  539SOL    HW2 1634   1.295   2.281   2.636
  540SOL     OW 1635   1.581   2.074   2.737
  540SOL    HW1 1636   1.497   2.095   2.778
  540SOL    HW2 1637   1.598   2.146   2.677
  541SOL     OW 1638   0.016   2.932   2.156
  541SOL    HW1 1639   0.110   2.926   2.138
  541SOL    HW2 1640   0.003   2.876   2.232
  542SOL     OW 1641   2.093   0.636   0.122
  542SOL    HW1 1642   1.998   0.629   0.136
  542SOL    HW2 1643   2.106   0.607   0.032
  543SOL     OW 1644   2.078   0.287   1.010
  543SOL    HW1 1645   2.110   0.249   1.092
  543SOL    HW2 1646   1.995   0.243   0.994
  544SOL     OW 1647   1.865   0.382   0.642
  544SOL    HW1 1648   1.783   0.409   0.684
  544SOL    HW2 1649   1.841   0.306   0.588
  545SOL     OW 1650   2.426   1.285   1.172
  545SOL    HW1 1651   2.339   1.291   1.134
  545SOL    HW2 1652   2.443   1.372   1.208
  546SOL     OW 1653   2.615   1.142   1.037
  546SOL    HW1 1654   2.548   1.177   1.096
  546SOL    HW2 1655   2.655   1.220   0.998
  547SOL     OW 1656   2.721   0.775   1.817
  547SOL    HW1 1657   2.715   0.844   1.882
  547SOL    HW2 1658   2.746   0.820   1.736
  548SOL     OW 1659   2.546   1.005   0.649
  548SOL    HW1 1660   2.608   0.990   0.720
  548SOL    HW2 1661   2.476   1.057   0.688
  549SOL     OW 1662   2.571   1.153   1.813
  549SOL    HW1 1663   2.618   1.232   1.838
  549SOL    HW2 1664   2.488   1.185   1.777
  550SOL     OW 1665   2.191   1.428   1.067
  550SOL    HW1 1666   2.120   1.391   1.014
  550SOL    HW2 1667   2.243   1.479   1.004
  551SOL     OW 1668   2.315   0.402   1.486
  551SOL    HW1 1669   2.388   0.342   1.492
  551SOL    HW2 1670   2.238   0.348   1.502
  552SOL     OW 1671   2.083   1.715   0.472
  552SOL    HW1 1672   2.103   1.791   0.527
  552SOL    HW2 1673   2.160   1.704   0.416
  553SOL     OW 1674   2.980   1.348   1.689
  553SOL    HW1 1675   0.034   1.346   1.768
  553SOL    HW2 1676   2.935   1.264   1.689
  554SOL     OW 1677   2.083   1.442   0.534
  554SOL    HW1 1678   2.073   1.537   0.542
  554SOL    HW2 1679   2.026   1.407   0.603
  555SOL     OW 1680   2.117   1.089   0.889
  555SOL    HW1 1681   2.116   1.003   0.931
  555SOL    HW2 1682   2.062   1.144   0.945
  556SOL     OW 1683   2.477   1.789   1.435
  556SOL    HW1 1684   2.393   1.772   1.476
  556SOL    HW2 1685   2.496   1.880   1.455
  557SOL     OW 1686   2.452   0.979   0.148
  557SOL    HW1 1687   2.479   1.049   0.089
  557SOL    HW2 1688   2.486   1.005   0.233
  558SOL     OW 1689   1.980   0.645   0.563
  558SOL    HW1 1690   1.937   0.564   0.588
  558SOL    HW2 1691   1.973   0.701   0.640
  559SOL     OW 1692   1.876   1.590   0.120
  559SOL    HW1 1693   1.889   1.499   0.147
  559SOL    HW2 1694   1.877   1.640   0.202
  560SOL     OW 1695   1.984   0.743   1.586
  560SOL    HW1 1696   2.076   0.769   1.596
  560SOL    HW2 1697   1.935   0.825   1.594
  561SOL     OW 1698   2.474   1.384   0.735
  561SOL    HW1 1699   2.428   1.301   0.744
  561SOL    HW2 1700   2.458   1.412   0.645
  562SOL     OW 1701   2.682   0.016   0.522
  562SOL    HW1 1702   2.710   0.105   0.502
  562SOL    HW2 1703   2.588   0.015   0.502
  563SOL     OW 1704   2.052   0.968   1.267
  563SOL    HW1 1705   2.137   0.926   1.253
  563SOL    HW2 1706   1.989   0.908   1.226
  564SOL     OW 1707   2.188   0.253   1.803
  564SOL    HW1 1708   2.236   0.332   1.826
  564SOL    HW2 1709   2.101   0.265   1.842
  565SOL     OW 1710   2.452   0.721   0.267
  565SOL    HW1 1711   2.456   0.804   0.220
  565SOL    HW2 1712   2.389   0.737   0.338
  566SOL     OW 1713   2.655   0.628   1.452
  566SOL    HW1 1714   2.629   0.600   1.540
  566SOL    HW2 1715   2.618   0.561   1.395
  567SOL     OW 1716   2.828   0.881   1.574
  567SOL    HW1 1717   2.852   0.795   1.540
  567SOL    HW2 1718   2.781   0.923   1.502
  568SOL     OW 1719   2.846   0.372   1.260
  568SOL    HW1 1720   2.770   0.422   1.288
  568SOL    HW2 1721   2.845   0.376   1.165
  569SOL     OW 1722   2.892   0.716   0.407
  569SOL    HW1 1723   2.931   0.699   0.492
  569SOL    HW2 1724   2.816   0.658   0.403
  570SOL     OW 1725   1.952   0.820   0.774
  570SOL    HW1 1726   2.033   0.813   0.825
  570SOL    HW2 1727   1.909   0.899   0.808
  571SOL     OW 1728   1.978   1.818   1.573
  571SOL    HW1 1729   1.982   1.814   1.668
  571SOL    HW2 1730   1.893   1.859   1.555
  572SOL     OW 1731   2.779   0.344   0.220
  572SOL    HW1 1732   2.757   0.394   0.141
  572SOL    HW2 1733   2.773   0.253   0.192
  573SOL     OW 1734   2.382   0.200   0.910
  573SOL    HW1 1735   2.397   0.214   1.004
  573SOL    HW2 1736   2.402   0.285   0.870
  574SOL     OW 1737   2.858   1.440   0.468
  574SOL    HW1 1738   2.827   1.517   0.421
  574SOL    HW2 1739   2.856   1.465   0.560
  575SOL     OW 1740   2.220   1.806   0.856
  575SOL    HW1 1741   2.263   1.722   0.868
  575SOL    HW2 1742   2.287   1.871   0.877
  576SOL     OW 1743   2.179   0.952   0.245
  576SOL    HW1 1744   2.262   0.968   0.200
  576SOL    HW2 1745   2.151   0.867   0.213
  577SOL     OW 1746   2.327   1.263   1.739
  577SOL    HW1 1747   2.300   1.268   1.647
  577SOL    HW2 1748   2.245   1.262   1.788
  578SOL     OW 1749   2.064   0.295   1.499
  578SOL    HW1 1750   1.980   0.342   1.501
  578SOL    HW2 1751   2.051   0.222   1.559
  579SOL     OW 1752   2.328   1.722   0.334
  579SOL    HW1 1753   2.362   1.792   0.390
  579SOL    HW2 1754   2.395   1.710   0.267
  580SOL     OW 1755   2.115   1.792   1.235
  580SOL    HW1 1756   2.150   1.718   1.285
  580SOL    HW2 1757   2.096   1.756   1.149
  581SOL     OW 1758   2.800   1.695   0.899
  581SOL    HW1 1759   2.862   1.628   0.927
  581SOL    HW2 1760   2.752   1.654   0.827
  582SOL     OW 1761   2.258   0.689   0.476
  582SOL    HW1 1762   2.287   0.600   0.495
  582SOL    HW2 1763   2.164   0.688   0.495
  583SOL     OW 1764   2.478   0.109   0.105
  583SOL    HW1 1765   2.573   0.114   0.117
  583SOL    HW2 1766   2.462   0.153   0.021
  584SOL     OW 1767   2.632   0.278   1.753
  584SOL    HW1 1768   2.702   0.215   1.765
  584SOL    HW2 1769   2.581   0.273   1.834
  585SOL     OW 1770   2.739   1.516   1.194
  585SOL    HW1 1771   2.718   1.482   1.107
  585SOL    HW2 1772   2.804   1.454   1.229
  586SOL     OW 1773   2.669   1.401   0.941
  586SOL    HW1 1774   2.753   1.388   0.896
  586SOL    HW2 1775   2.604   1.398   0.871
  587SOL     OW 1776   2.785   0.504   0.905
  587SOL    HW1 1777   2.758   0.494   0.814
  587SOL    HW2 1778   2.824   0.420   0.928
  588SOL     OW 1779   2.402   0.045   0.496
  588SOL    HW1 1780   2.316   0.037   0.539
  588SOL    HW2 1781   2.395   0.125   0.443
  589SOL     OW 1782   0.322   1.151   0.043
  589SOL    HW1 1783   0.309   1.097   0.121
  589SOL    HW2 1784   0.257   1.221   0.051
  590SOL     OW 1785   2.157   0.091   0.185
  590SOL    HW1 1786   2.242   0.132   0.203
  590SOL    HW2 1787   2.173   2.997   0.192
  591SOL     OW 1788   2.830   0.246   0.466
  591SOL    HW1 1789   2.789   0.298   0.397
  591SOL    HW2 1790   2.906   0.205   0.424
  592SOL     OW 1791   0.084   1.583   0.797
  592SOL    HW1 1792   0.108   1.620   0.712
  592SOL    HW2 1793   0.167   1.550   0.832
  593SOL     OW 1794   2.329   1.149   0.733
  593SOL    HW1 1795   2.259   1.130   0.796
  593SOL    HW2 1796   2.289   1.134   0.648
  594SOL     OW 1797   2.896   0.509   0.023
  594SOL    HW1 1798   2.845   0.589   0.012
  594SOL    HW2 1799   2.942   0.521   0.106
  595SOL     OW 1800   1.938   0.556   1.392
  595SOL    HW1 1801   2.030   0.553   1.365
  595SOL    HW2 1802   1.934   0.626   1.456
  596SOL     OW 1803   2.427   0.214   1.183
  596SOL    HW1 1804   2.465   0.172   1.260
  596SOL    HW2 1805   2.334   0.221   1.202
  597SOL     OW 1806   2.744   0.469   0.636
  597SOL    HW1 1807   2.677   0.520   0.589
  597SOL    HW2 1808   2.733   0.380   0.604
  598SOL     OW 1809   2.860   0.060   0.760
  598SOL    HW1 1810   2.821   0.063   0.672
  598SOL    HW2 1811   2.835   2.974   0.794
  599SOL     OW 1812   2.353   1.402   0.150
  599SOL    HW1 1813   2.288   1.372   0.214
  599SOL    HW2 1814   2.304   1.410   0.068
  600SOL     OW 1815   2.391   0.260   0.322
  600SOL    HW1 1816   2.436   0.214   0.251
  600SOL    HW2 1817   2.362   0.342   0.283
  601SOL     OW 1818   2.777   0.115   1.400
  601SOL    HW1 1819   2.804   0.100   1.309
  601SOL    HW2 1820   2.836   0.183   1.431
  602SOL     OW 1821   2.840   1.109   1.730
  602SOL    HW1 1822   2.747   1.131   1.741
  602SOL    HW2 1823   2.841   1.042   1.662
  603SOL     OW 1824   2.563   1.063   0.379
  603SOL    HW1 1825   2.549   1.048   0.473
  603SOL    HW2 1826   2.648   1.022   0.361
  604SOL     OW 1827   2.279   0.814   1.251
  604SOL    HW1 1828   2.347   0.825   1.317
  604SOL    HW2 1829   2.244   0.726   1.267
  605SOL     OW 1830   2.213   1.110   0.488
  605SOL    HW1 1831   2.211   1.185   0.428
  605SOL    HW2 1832   2.210   1.033   0.431
  606SOL     OW 1833   2.417   0.541   0.863
  606SOL    HW1 1834   2.433   0.596   0.786
  606SOL    HW2 1835   2.483   0.568   0.927
  607SOL     OW 1836   2.210   1.517   1.318
  607SOL    HW1 1837   2.197   1.483   1.229
  607SOL    HW2 1838   2.303   1.535   1.323
  608SOL     OW 1839   2.276   0.745   1.602
  608SOL    HW1 1840   2.337   0.791   1.544
  608SOL    HW2 1841   2.316   0.659   1.616
  609SOL     OW 1842   2.865   0.119   1.761
  609SOL    HW1 1843   2.902   0.193   1.712
  609SOL    HW2 1844   2.899   0.042   1.716
  610SOL     OW 1845   2.367   0.055   1.749
  610SOL    HW1 1846   2.330   2.986   1.693
  610SOL    HW2 1847   2.296   0.119   1.757
  611SOL     OW 1848   2.442   0.874   1.030
  611SOL    HW1 1849   2.476   0.964   1.030
  611SOL    HW2 1850   2.388   0.869   1.109
  612SOL     OW 1851   0.063   0.531   0.267
  612SOL    HW1 1852   0.087   0.449   0.311
  612SOL    HW2 1853   0.035   0.589   0.338
  613SOL     OW 1854   2.159   0.195   1.254
  613SOL    HW1 1855   2.128   0.239   1.333
  613SOL    HW2 1856   2.139   0.103   1.267
  614SOL     OW 1857   1.904   1.325   1.288
  614SOL    HW1 1858   1.931   1.261   1.353
  614SOL    HW2 1859   1.966   1.398   1.297
  615SOL     OW 1860   2.589   0.634   1.060
  615SOL    HW1 1861   2.666   0.618   1.005
  615SOL    HW2 1862   2.562   0.723   1.037
  616SOL     OW 1863   2.169   0.064   0.642
  616SOL    HW1 1864   2.171   0.155   0.672
  616SOL    HW2 1865   2.152   0.013   0.721
  617SOL     OW 1866   2.868   0.770   0.971
  617SOL    HW1 1867   2.895   0.774   1.063
  617SOL    HW2 1868   2.873   0.677   0.949
  618SOL     OW 1869   2.829   1.569   1.704
  618SOL    HW1 1870   2.825   1.610   1.617
  618SOL    HW2 1871   2.886   1.493   1.693
  619SOL     OW 1872   2.215   0.914   1.810
  619SOL    HW1 1873   2.299   0.936   1.852
  619SOL    HW2 1874   2.238   0.853   1.740
  620SOL     OW 1875   2.906   1.345   0.833
  620SOL    HW1 1876   2.910   1.265   0.779
  620SOL    HW2 1877   2.979   1.398   0.802
  621SOL     OW 1878   2.172   0.808   0.946
  621SOL    HW1 1879   2.264   0.832   0.943
  621SOL    HW2 1880   2.171   0.719   0.980
  622SOL     OW 1881   2.196   0.528   1.015
  622SOL    HW1 1882   2.159   0.441   1.000
  622SOL    HW2 1883   2.271   0.532   0.955
  623SOL     OW 1884   2.964   0.365   1.665
  623SOL    HW1 1885   2.904   0.427   1.705
  623SOL    HW2 1886   0.050   0.408   1.671
  624SOL     OW 1887   1.874   1.318   0.183
  624SOL    HW1 1888   1.783   1.332   0.158
  624SOL    HW2 1889   1.874   1.234   0.228
  625SOL     OW 1890   1.956   1.793   0.928
  625SOL    HW1 1891   1.923   1.710   0.895
  625SOL    HW2 1892   2.046   1.798   0.898
  626SOL     OW 1893   2.360   1.573   0.907
  626SOL    HW1 1894   2.429   1.635   0.931
  626SOL    HW2 1895   2.404   1.509   0.850
  627SOL     OW 1896   2.864   0.790   1.252
  627SOL    HW1 1897   2.911   0.723   1.302
  627SOL    HW2 1898   2.773   0.760   1.251
  628SOL     OW 1899   1.897   0.540   1.117
  628SOL    HW1 1900   1.978   0.528   1.067
  628SOL    HW2 1901   1.926   0.549   1.208
  629SOL     OW 1902   2.050   0.520   1.726
  629SOL    HW1 1903   2.108   0.482   1.660
  629SOL    HW2 1904   2.009   0.595   1.682
  630SOL     OW 1905   2.673   0.573   0.350
  630SOL    HW1 1906   2.678   0.493   0.299
  630SOL    HW2 1907   2.591   0.614   0.322
  631SOL     OW 1908   2.122   1.553   1.742
  631SOL    HW1 1909   2.088   1.615   1.807
  631SOL    HW2 1910   2.116   1.468   1.784
  632SOL     OW 1911   2.561   0.459   1.263
  632SOL    HW1 1912   2.513   0.382   1.232
  632SOL    HW2 1913   2.559   0.519   1.189
  633SOL     OW 1914   2.803   1.689   1.458
  633SOL    HW1 1915   2.773   1.637   1.384
  633SOL    HW2 1916   2.771   1.777   1.441
  634SOL     OW 1917   2.317   0.494   0.199
  634SOL    HW1 1918   2.370   0.569   0.224
  634SOL    HW2 1919   2.230   0.530   0.182
  635SOL     OW 1920   2.010   1.141   1.468
  635SOL    HW1 1921   2.010   1.089   1.549
  635SOL    HW2 1922   2.028   1.078   1.399
  636SOL     OW 1923   1.951   1.256   1.022
  636SOL    HW1 1924   1.926   1.276   1.113
  636SOL    HW2 1925   1.873   1.215   0.984
  637SOL     OW 1926   2.536   1.665   1.733
  637SOL    HW1 1927   2.484   1.744   1.719
  637SOL    HW2 1928   2.606   1.670   1.667
  638SOL     OW 1929   2.765   0.086   0.144
  638SOL    HW1 1930   2.796   0.034   0.069
  638SOL    HW2 1931   2.811   0.048   0.219
  639SOL     OW 1932   1.995   1.800   1.843
  639SOL    HW1 1933   1.946   1.734   1.891
  639SOL    HW2 1934   2.045   1.846   1.910
  640SOL     OW 1935   2.676   1.270   1.425
  640SOL    HW1 1936   2.663   1.315   1.509
  640SOL    HW2 1937   2.604   1.300   1.370
  641SOL     OW 1938   2.528   1.611   0.161
  641SOL    HW1 1939   2.535   1.630   0.067
  641SOL    HW2 1940   2.477   1.531   0.166
  642SOL     OW 1941   2.137   0.347   0.754
  642SOL    HW1 1942   2.047   0.366   0.727
  642SOL    HW2 1943   2.130   0.315   0.843
  643SOL     OW 1944   2.689   1.006   1.375
  643SOL    HW1 1945   2.736   1.001   1.292
  643SOL    HW2 1946   2.687   1.100   1.395
  644SOL     OW 1947   2.794   0.949   0.310
  644SOL    HW1 1948   2.840   0.958   0.227
  644SOL    HW2 1949   2.827   0.867   0.347
  645SOL     OW 1950   2.232   1.301   1.494
  645SOL    HW1 1951   2.221   1.378   1.439
  645SOL    HW2 1952   2.155   1.247   1.477
  646SOL     OW 1953   2.917   1.084   0.722
  646SOL    HW1 1954   2.842   1.043   0.765
  646SOL    HW2 1955   2.930   1.033   0.642
  647SOL     OW 1956   2.880   0.239   0.970
  647SOL    HW1 1957   2.877   0.189   0.889
  647SOL    HW2 1958   2.869   0.174   1.039
  648SOL     OW 1959   2.462   1.488   0.482
  648SOL    HW1 1960   2.505   1.440   0.413
  648SOL    HW2 1961   2.401   1.546   0.437
  649SOL     OW 1962   2.133   1.331   0.298
  649SOL    HW1 1963   2.049   1.336   0.253
  649SOL    HW2 1964   2.119   1.376   0.382
  650SOL     OW 1965   1.975   1.020   1.718
  650SOL    HW1 1966   1.898   0.998   1.770
  650SOL    HW2 1967   2.049   0.984   1.766
  651SOL     OW 1968   2.528   0.211   1.491
  651SOL    HW1 1969   2.610   0.180   1.453
  651SOL    HW2 1970   2.547   0.226   1.583
  652SOL     OW 1971   1.914   0.200   0.332
  652SOL    HW1 1972   1.878   0.230   0.249
  652SOL    HW2 1973   1.999   0.163   0.310
  653SOL     OW 1974   2.479   0.835   1.433
  653SOL    HW1 1975   2.535   0.911   1.418
  653SOL    HW2 1976   2.540   0.761   1.440
  654SOL     OW 1977   2.579   0.563   1.702
  654SOL    HW1 1978   2.615   0.626   1.764
  654SOL    HW2 1979   2.609   0.478   1.735
  655SOL     OW 1980   2.243   1.740   1.566
  655SOL    HW1 1981   2.155   1.775   1.547
  655SOL    HW2 1982   2.227   1.656   1.609
  656SOL     OW 1983   2.458   0.739   0.666
  656SOL    HW1 1984   2.493   0.827   0.654
  656SOL    HW2 1985   2.386   0.733   0.602
  657SOL     OW 1986   2.766   1.379   0.064
  657SOL    HW1 1987   2.696   1.385   0.129
  657SOL    HW2 1988   2.728   1.417   2.985
  658SOL     OW 1989   2.522   1.794   0.947
  658SOL    HW1 1990   2.500   1.884   0.922
  658SOL    HW2 1991   2.617   1.788   0.936
  659SOL     OW 1992   2.718   0.963   0.857
  659SOL    HW1 1993   2.765   0.891   0.898
  659SOL    HW2 1994   2.685   1.015   0.930
  660SOL     OW 1995   2.955   1.013   0.079
  660SOL    HW1 1996   2.933   1.060   2.998
  660SOL    HW2 1997   0.014   0.944   0.050
  661SOL     OW 1998   2.086   1.304   1.856
  661SOL    HW1 1999   2.017   1.246   1.824
  661SOL    HW2 2000   2.066   1.316   1.949
  662SOL     OW 2001   1.944   1.231   0.664
  662SOL    HW1 2002   1.952   1.183   0.746
  662SOL    HW2 2003   2.015   1.198   0.609
  663SOL     OW 2004   2.543   1.403   1.628
  663SOL    HW1 2005   2.462   1.359   1.654
  663SOL    HW2 2006   2.536   1.490   1.667
  664SOL     OW 2007   2.342   0.432   0.554
  664SOL    HW1 2008   2.325   0.376   0.478
  664SOL    HW2 2009   2.273   0.410   0.616
  665SOL     OW 2010   2.189   0.554   1.292
  665SOL    HW1 2011   2.248   0.501   1.346
  665SOL    HW2 2012   2.211   0.529   1.202
  666SOL     OW 2013   2.685   1.583   0.678
  666SOL    HW1 2014   2.678   1.624   0.592
  666SOL    HW2 2015   2.610   1.523   0.683
  667SOL     OW 2016   2.852   0.017   1.148
  667SOL    HW1 2017   2.822   2.943   1.094
  667SOL    HW2 2018   2.944   2.998   1.165
  668SOL     OW 2019   2.630   1.330   0.315
  668SOL    HW1 2020   2.601   1.241   0.334
  668SOL    HW2 2021   2.712   1.340   0.363
  669SOL     OW 2022   2.482   1.557   1.284
  669SOL    HW1 2023   2.485   1.639   1.334
  669SOL    HW2 2024   2.570   1.549   1.246
  670SOL     OW 2025   1.902   1.073   0.305
  670SOL    HW1 2026   1.996   1.067   0.288
  670SOL    HW2 2027   1.876   0.984   0.327
  671SOL     OW 2028   2.739   1.651   0.346
  671SOL    HW1 2029   2.668   1.634   0.284
  671SOL    HW2 2030   2.710   1.728   0.395
  672SOL     OW 2031   2.092   0.623   1.985
  672SOL    HW1 2032   2.002   0.622   2.019
  672SOL    HW2 2033   2.082   0.598   1.893
  673SOL     OW 2034   2.089   0.277   2.883
  673SOL    HW1 2035   2.105   0.236   2.968
  673SOL    HW2 2036   2.004   0.242   2.856
  674SOL     OW 2037   1.865   0.381   2.502
  674SOL    HW1 2038   1.785   0.413   2.544
  674SOL    HW2 2039   1.837   0.304   2.452
  675SOL     OW 2040   2.609   1.147   2.898
  675SOL    HW1 2041   2.548   1.195   2.954
  675SOL    HW2 2042   2.659   1.215   2.854
  676SOL     OW 2043   2.547   1.006   2.507
  676SOL    HW1 2044   2.607   0.990   2.580
  676SOL    HW2 2045   2.475   1.057   2.545
  677SOL     OW 2046   2.202   1.432   2.930
  677SOL    HW1 2047   2.125   1.397   2.885
  677SOL    HW2 2048   2.247   1.484   2.864
  678SOL     OW 2049   2.082   1.713   2.335
  678SOL    HW1 2050   2.103   1.790   2.388
  678SOL    HW2 2051   2.153   1.707   2.272
  679SOL     OW 2052   2.093   1.441   2.397
  679SOL    HW1 2053   2.076   1.535   2.401
  679SOL    HW2 2054   2.031   1.403   2.460
  680SOL     OW 2055   2.119   1.093   2.755
  680SOL    HW1 2056   2.111   1.005   2.792
  680SOL    HW2 2057   2.059   1.146   2.808
  681SOL     OW 2058   2.451   0.980   1.995
  681SOL    HW1 2059   2.494   1.032   1.927
  681SOL    HW2 2060   2.489   1.013   2.077
  682SOL     OW 2061   1.981   0.645   2.425
  682SOL    HW1 2062   1.935   0.565   2.450
  682SOL    HW2 2063   1.973   0.701   2.502
  683SOL     OW 2064   1.894   1.595   1.985
  683SOL    HW1 2065   1.876   1.503   2.004
  683SOL    HW2 2066   1.869   1.642   2.065
  684SOL     OW 2067   2.471   1.383   2.593
  684SOL    HW1 2068   2.424   1.300   2.601
  684SOL    HW2 2069   2.455   1.410   2.502
  685SOL     OW 2070   2.683   0.016   2.384
  685SOL    HW1 2071   2.713   0.103   2.357
  685SOL    HW2 2072   2.590   0.015   2.363
  686SOL     OW 2073   2.457   0.724   2.127
  686SOL    HW1 2074   2.461   0.804   2.075
  686SOL    HW2 2075   2.392   0.742   2.194
  687SOL     OW 2076   2.889   0.708   2.282
  687SOL    HW1 2077   2.920   0.690   2.371
  687SOL    HW2 2078   2.813   0.651   2.270
  688SOL     OW 2079   1.953   0.820   2.635
  688SOL    HW1 2080   2.031   0.812   2.689
  688SOL    HW2 2081   1.907   0.896   2.670
  689SOL     OW 2082   2.740   0.345   2.049
  689SOL    HW1 2083   2.790   0.407   1.997
  689SOL    HW2 2084   2.787   0.262   2.041
  690SOL     OW 2085   2.422   0.205   2.839
  690SOL    HW1 2086   2.356   0.269   2.867
  690SOL    HW2 2087   2.442   0.229   2.748
  691SOL     OW 2088   2.860   1.437   2.330
  691SOL    HW1 2089   2.826   1.514   2.284
  691SOL    HW2 2090   2.861   1.464   2.422
  692SOL     OW 2091   2.217   1.806   2.718
  692SOL    HW1 2092   2.260   1.721   2.730
  692SOL    HW2 2093   2.284   1.870   2.742
  693SOL     OW 2094   2.184   0.955   2.112
  693SOL    HW1 2095   2.264   0.976   2.065
  693SOL    HW2 2096   2.151   0.876   2.071
  694SOL     OW 2097   2.328   1.738   2.182
  694SOL    HW1 2098   2.370   1.794   2.248
  694SOL    HW2 2099   2.400   1.707   2.128
  695SOL     OW 2100   2.128   1.800   0.103
  695SOL    HW1 2101   2.168   1.732   0.157
  695SOL    HW2 2102   2.078   1.752   0.037
  696SOL     OW 2103   2.793   1.700   2.757
  696SOL    HW1 2104   2.855   1.639   2.797
  696SOL    HW2 2105   2.754   1.651   2.685
  697SOL     OW 2106   2.258   0.689   2.340
  697SOL    HW1 2107   2.286   0.599   2.356
  697SOL    HW2 2108   2.164   0.689   2.359
  698SOL     OW 2109   2.491   0.121   1.973
  698SOL    HW1 2110   2.580   0.085   1.965
  698SOL    HW2 2111   2.450   0.102   1.888
  699SOL     OW 2112   2.663   1.400   2.793
  699SOL    HW1 2113   2.749   1.392   2.752
  699SOL    HW2 2114   2.600   1.396   2.721
  700SOL     OW 2115   2.782   0.522   2.755
  700SOL    HW1 2116   2.757   0.497   2.667
  700SOL    HW2 2117   2.813   0.441   2.795
  701SOL     OW 2118   2.407   0.060   2.367
  701SOL    HW1 2119   2.319   0.044   2.402
  701SOL    HW2 2120   2.394   0.131   2.304
  702SOL     OW 2121   2.147   0.033   2.061
  702SOL    HW1 2122   2.189   0.109   2.021
  702SOL    HW2 2123   2.220   2.976   2.086
  703SOL     OW 2124   2.811   0.253   2.318
  703SOL    HW1 2125   2.761   0.299   2.251
  703SOL    HW2 2126   2.891   0.224   2.274
  704SOL     OW 2127   0.084   1.577   2.660
  704SOL    HW1 2128   0.112   1.622   2.580
  704SOL    HW2 2129   0.166   1.554   2.704
  705SOL     OW 2130   2.329   1.146   2.596
  705SOL    HW1 2131   2.260   1.130   2.660
  705SOL    HW2 2132   2.289   1.130   2.511
  706SOL     OW 2133   2.885   0.549   1.881
  706SOL    HW1 2134   2.839   0.630   1.860
  706SOL    HW2 2135   2.937   0.570   1.958
  707SOL     OW 2136   2.742   0.467   2.494
  707SOL    HW1 2137   2.678   0.518   2.444
  707SOL    HW2 2138   2.740   0.380   2.452
  708SOL     OW 2139   2.857   0.056   2.614
  708SOL    HW1 2140   2.819   0.055   2.526
  708SOL    HW2 2141   2.835   2.971   2.651
  709SOL     OW 2142   2.353   1.417   2.021
  709SOL    HW1 2143   2.278   1.387   2.073
  709SOL    HW2 2144   2.337   1.383   1.933
  710SOL     OW 2145   2.394   0.265   2.182
  710SOL    HW1 2146   2.431   0.213   2.110
  710SOL    HW2 2147   2.368   0.347   2.141
  711SOL     OW 2148   2.570   1.062   2.233
  711SOL    HW1 2149   2.554   1.046   2.326
  711SOL    HW2 2150   2.648   1.011   2.212
  712SOL     OW 2151   2.214   1.108   2.352
  712SOL    HW1 2152   2.216   1.182   2.292
  712SOL    HW2 2153   2.210   1.031   2.295
  713SOL     OW 2154   2.410   0.544   2.729
  713SOL    HW1 2155   2.430   0.594   2.651
  713SOL    HW2 2156   2.480   0.567   2.791
  714SOL     OW 2157   2.439   0.872   2.880
  714SOL    HW1 2158   2.479   0.955   2.852
  714SOL    HW2 2159   2.421   0.885   2.973
  715SOL     OW 2160   0.054   0.533   2.131
  715SOL    HW1 2161   0.084   0.456   2.180
  715SOL    HW2 2162   0.023   0.593   2.199
  716SOL     OW 2163   2.598   0.647   2.918
  716SOL    HW1 2164   2.663   0.622   2.852
  716SOL    HW2 2165   2.559   0.728   2.884
  717SOL     OW 2166   2.172   0.065   2.508
  717SOL    HW1 2167   2.165   0.155   2.538
  717SOL    HW2 2168   2.152   0.011   2.585
  718SOL     OW 2169   2.874   0.778   2.831
  718SOL    HW1 2170   2.880   0.770   2.926
  718SOL    HW2 2171   2.867   0.688   2.799
  719SOL     OW 2172   2.908   1.344   2.697
  719SOL    HW1 2173   2.915   1.268   2.639
  719SOL    HW2 2174   2.975   1.404   2.665
  720SOL     OW 2175   2.170   0.811   2.810
  720SOL    HW1 2176   2.264   0.831   2.810
  720SOL    HW2 2177   2.165   0.719   2.837
  721SOL     OW 2178   2.180   0.538   2.870
  721SOL    HW1 2179   2.147   0.448   2.870
  721SOL    HW2 2180   2.259   0.535   2.816
  722SOL     OW 2181   1.866   1.321   2.057
  722SOL    HW1 2182   1.775   1.336   2.032
  722SOL    HW2 2183   1.867   1.231   2.090
  723SOL     OW 2184   1.951   1.794   2.794
  723SOL    HW1 2185   1.922   1.711   2.758
  723SOL    HW2 2186   2.043   1.801   2.768
  724SOL     OW 2187   2.365   1.578   2.764
  724SOL    HW1 2188   2.436   1.638   2.786
  724SOL    HW2 2189   2.407   1.511   2.709
  725SOL     OW 2190   2.842   0.754   0.106
  725SOL    HW1 2191   2.882   0.737   0.191
  725SOL    HW2 2192   2.750   0.770   0.126
  726SOL     OW 2193   2.669   0.564   2.216
  726SOL    HW1 2194   2.669   0.489   2.156
  726SOL    HW2 2195   2.596   0.618   2.187
  727SOL     OW 2196   2.557   0.435   0.079
  727SOL    HW1 2197   2.466   0.441   0.107
  727SOL    HW2 2198   2.570   0.513   0.025
  728SOL     OW 2199   2.328   0.494   2.049
  728SOL    HW1 2200   2.384   0.569   2.070
  728SOL    HW2 2201   2.241   0.532   2.037
  729SOL     OW 2202   1.942   1.269   2.886
  729SOL    HW1 2203   1.929   1.280   2.980
  729SOL    HW2 2204   1.869   1.214   2.858
  730SOL     OW 2205   2.532   1.620   2.016
  730SOL    HW1 2206   2.542   1.632   1.922
  730SOL    HW2 2207   2.478   1.542   2.026
  731SOL     OW 2208   2.132   0.329   2.615
  731SOL    HW1 2209   2.046   0.362   2.592
  731SOL    HW2 2210   2.127   0.310   2.709
  732SOL     OW 2211   2.787   0.923   2.155
  732SOL    HW1 2212   2.836   0.927   2.073
  732SOL    HW2 2213   2.819   0.843   2.198
  733SOL     OW 2214   2.914   1.080   2.585
  733SOL    HW1 2215   2.836   1.040   2.623
  733SOL    HW2 2216   2.929   1.031   2.504
  734SOL     OW 2217   2.883   0.237   2.817
  734SOL    HW1 2218   2.876   0.188   2.735
  734SOL    HW2 2219   2.874   0.172   2.886
  735SOL     OW 2220   2.462   1.488   2.341
  735SOL    HW1 2221   2.507   1.439   2.272
  735SOL    HW2 2222   2.394   1.538   2.296
  736SOL     OW 2223   2.121   1.345   2.150
  736SOL    HW1 2224   2.028   1.343   2.127
  736SOL    HW2 2225   2.123   1.382   2.238
  737SOL     OW 2226   1.940   0.336   1.899
  737SOL    HW1 2227   1.849   0.318   1.872
  737SOL    HW2 2228   1.966   0.410   1.845
  738SOL     OW 2229   1.898   0.209   2.159
  738SOL    HW1 2230   1.919   0.266   2.085
  738SOL    HW2 2231   1.965   0.141   2.156
  739SOL     OW 2232   2.458   0.739   2.528
  739SOL    HW1 2233   2.493   0.827   2.513
  739SOL    HW2 2234   2.387   0.730   2.466
  740SOL     OW 2235   2.731   1.369   1.900
  740SOL    HW1 2236   2.682   1.403   1.975
  740SOL    HW2 2237   2.747   1.445   1.845
  741SOL     OW 2238   2.527   1.797   2.823
  741SOL    HW1 2239   2.506   1.885   2.791
  741SOL    HW2 2240   2.620   1.786   2.804
  742SOL     OW 2241   2.711   0.963   2.720
  742SOL    HW1 2242   2.765   0.893   2.758
  742SOL    HW2 2243   2.685   1.016   2.794
  743SOL     OW 2244   2.940   0.949   1.927
  743SOL    HW1 2245   2.906   1.023   1.877
  743SOL    HW2 2246   0.021   0.982   1.966
  744SOL     OW 2247   1.946   1.237   2.528
  744SOL    HW1 2248   1.944   1.182   2.606
  744SOL    HW2 2249   2.013   1.197   2.473
  745SOL     OW 2250   2.336   0.429   2.412
  745SOL    HW1 2251   2.321   0.374   2.335
  745SOL    HW2 2252   2.268   0.402   2.474
  746SOL     OW 2253   2.684   1.581   2.536
  746SOL    HW1 2254   2.681   1.623   2.451
  746SOL    HW2 2255   2.607   1.524   2.538
  747SOL     OW 2256   2.634   1.334   2.176
  747SOL    HW1 2257   2.606   1.242   2.185
  747SOL    HW2 2258   2.714   1.339   2.228
  748SOL     OW 2259   1.907   1.072   2.168
  748SOL    HW1 2260   2.000   1.062   2.150
  748SOL    HW2 2261   1.877   0.984   2.191
  749SOL     OW 2262   2.739   1.647   2.209
  749SOL    HW1 2263   2.669   1.634   2.145
  749SOL    HW2 2264   2.716   1.728   2.254
  750SOL     OW 2265   2.089   2.501   0.112
  750SOL    HW1 2266   1.999   2.475   0.132
  750SOL    HW2 2267   2.107   2.462   0.026
  751SOL     OW 2268   2.085   2.143   0.992
  751SOL    HW1 2269   2.115   2.109   1.076
  751SOL    HW2 2270   1.997   2.109   0.981
  752SOL     OW 2271   1.868   2.247   0.639
  752SOL    HW1 2272   1.784   2.266   0.680
  752SOL    HW2 2273   1.851   2.168   0.587
  753SOL     OW 2274   2.590   3.000   1.022
  753SOL    HW1 2275   2.521   0.051   1.065
  753SOL    HW2 2276   2.639   0.064   0.971
  754SOL     OW 2277   2.725   2.635   1.821
  754SOL    HW1 2278   2.723   2.695   1.895
  754SOL    HW2 2279   2.755   2.688   1.747
  755SOL     OW 2280   2.513   2.848   0.710
  755SOL    HW1 2281   2.607   2.856   0.722
  755SOL    HW2 2282   2.488   2.927   0.662
  756SOL     OW 2283   2.308   2.261   1.490
  756SOL    HW1 2284   2.384   2.202   1.493
  756SOL    HW2 2285   2.233   2.203   1.500
  757SOL     OW 2286   2.113   0.312   0.477
  757SOL    HW1 2287   2.057   0.387   0.498
  757SOL    HW2 2288   2.056   0.236   0.488
  758SOL     OW 2289   2.108   2.947   0.883
  758SOL    HW1 2290   2.128   2.859   0.916
  758SOL    HW2 2291   2.060   2.989   0.955
  759SOL     OW 2292   2.480   2.832   0.149
  759SOL    HW1 2293   2.462   2.925   0.136
  759SOL    HW2 2294   2.552   2.830   0.212
  760SOL     OW 2295   1.977   2.510   0.561
  760SOL    HW1 2296   1.949   2.421   0.583
  760SOL    HW2 2297   1.969   2.559   0.644
  761SOL     OW 2298   1.986   2.605   1.584
  761SOL    HW1 2299   2.079   2.623   1.596
  761SOL    HW2 2300   1.942   2.687   1.606
  762SOL     OW 2301   2.529   0.250   0.674
  762SOL    HW1 2302   2.472   0.186   0.717
  762SOL    HW2 2303   2.469   0.309   0.628
  763SOL     OW 2304   2.675   1.864   0.507
  763SOL    HW1 2305   2.713   1.951   0.493
  763SOL    HW2 2306   2.581   1.880   0.516
  764SOL     OW 2307   2.056   2.842   1.256
  764SOL    HW1 2308   2.138   2.793   1.249
  764SOL    HW2 2309   1.988   2.779   1.230
  765SOL     OW 2310   2.193   2.114   1.808
  765SOL    HW1 2311   2.238   2.196   1.826
  765SOL    HW2 2312   2.104   2.127   1.842
  766SOL     OW 2313   2.453   2.580   0.271
  766SOL    HW1 2314   2.459   2.661   0.220
  766SOL    HW2 2315   2.387   2.599   0.338
  767SOL     OW 2316   2.653   2.489   1.451
  767SOL    HW1 2317   2.629   2.461   1.540
  767SOL    HW2 2318   2.617   2.420   1.394
  768SOL     OW 2319   2.825   2.744   1.582
  768SOL    HW1 2320   2.853   2.661   1.544
  768SOL    HW2 2321   2.774   2.786   1.514
  769SOL     OW 2322   2.849   2.236   1.257
  769SOL    HW1 2323   2.769   2.280   1.286
  769SOL    HW2 2324   2.839   2.229   1.162
  770SOL     OW 2325   2.887   2.581   0.409
  770SOL    HW1 2326   2.930   2.563   0.492
  770SOL    HW2 2327   2.814   2.519   0.405
  771SOL     OW 2328   1.946   2.683   0.777
  771SOL    HW1 2329   2.030   2.672   0.822
  771SOL    HW2 2330   1.911   2.765   0.810
  772SOL     OW 2331   2.787   2.192   0.218
  772SOL    HW1 2332   2.780   2.260   0.151
  772SOL    HW2 2333   2.759   2.112   0.174
  773SOL     OW 2334   2.412   2.045   0.893
  773SOL    HW1 2335   2.414   2.073   0.984
  773SOL    HW2 2336   2.412   2.127   0.843
  774SOL     OW 2337   2.061   2.143   1.500
  774SOL    HW1 2338   1.980   2.194   1.493
  774SOL    HW2 2339   2.047   2.086   1.575
  775SOL     OW 2340   2.251   2.555   0.474
  775SOL    HW1 2341   2.273   2.463   0.486
  775SOL    HW2 2342   2.158   2.560   0.493
  776SOL     OW 2343   2.486   1.979   0.115
  776SOL    HW1 2344   2.581   1.966   0.117
  776SOL    HW2 2345   2.457   1.933   0.036
  777SOL     OW 2346   2.629   2.144   1.757
  777SOL    HW1 2347   2.702   2.083   1.764
  777SOL    HW2 2348   2.571   2.121   1.830
  778SOL     OW 2349   2.788   2.365   0.902
  778SOL    HW1 2350   2.761   2.354   0.811
  778SOL    HW2 2351   2.825   2.280   0.927
  779SOL     OW 2352   2.410   1.924   0.504
  779SOL    HW1 2353   2.330   1.925   0.556
  779SOL    HW2 2354   2.402   2.001   0.447
  780SOL     OW 2355   2.814   2.100   0.465
  780SOL    HW1 2356   2.780   2.148   0.390
  780SOL    HW2 2357   2.901   2.071   0.438
  781SOL     OW 2358   2.887   2.377   0.036
  781SOL    HW1 2359   2.843   2.460   0.018
  781SOL    HW2 2360   2.943   2.395   0.111
  782SOL     OW 2361   1.941   2.417   1.391
  782SOL    HW1 2362   2.033   2.415   1.364
  782SOL    HW2 2363   1.937   2.488   1.456
  783SOL     OW 2364   2.422   2.090   1.166
  783SOL    HW1 2365   2.462   2.010   1.201
  783SOL    HW2 2366   2.331   2.086   1.195
  784SOL     OW 2367   2.743   2.319   0.635
  784SOL    HW1 2368   2.685   2.378   0.586
  784SOL    HW2 2369   2.744   2.239   0.583
  785SOL     OW 2370   2.856   1.924   0.757
  785SOL    HW1 2371   2.811   1.905   0.675
  785SOL    HW2 2372   2.848   1.844   0.808
  786SOL     OW 2373   2.376   2.121   0.321
  786SOL    HW1 2374   2.420   2.074   0.251
  786SOL    HW2 2375   2.361   2.209   0.285
  787SOL     OW 2376   2.751   1.949   1.386
  787SOL    HW1 2377   2.778   1.933   1.296
  787SOL    HW2 2378   2.827   1.991   1.426
  788SOL     OW 2379   2.275   2.679   1.254
  788SOL    HW1 2380   2.346   2.686   1.318
  788SOL    HW2 2381   2.242   2.590   1.264
  789SOL     OW 2382   2.417   2.397   0.861
  789SOL    HW1 2383   2.432   2.453   0.785
  789SOL    HW2 2384   2.483   2.426   0.925
  790SOL     OW 2385   2.275   2.602   1.604
  790SOL    HW1 2386   2.336   2.647   1.545
  790SOL    HW2 2387   2.316   2.516   1.619
  791SOL     OW 2388   2.856   1.991   1.773
  791SOL    HW1 2389   2.901   2.042   1.706
  791SOL    HW2 2390   2.899   1.905   1.770
  792SOL     OW 2391   2.360   1.906   1.747
  792SOL    HW1 2392   2.318   1.850   1.681
  792SOL    HW2 2393   2.299   1.979   1.759
  793SOL     OW 2394   2.450   2.730   1.035
  793SOL    HW1 2395   2.469   2.822   1.017
  793SOL    HW2 2396   2.389   2.732   1.108
  794SOL     OW 2397   0.061   2.399   0.268
  794SOL    HW1 2398   0.076   2.318   0.317
  794SOL    HW2 2399   0.035   2.463   0.334
  795SOL     OW 2400   2.162   2.061   1.246
  795SOL    HW1 2401   2.124   2.092   1.328
  795SOL    HW2 2402   2.144   1.967   1.246
  796SOL     OW 2403   2.588   2.492   1.059
  796SOL    HW1 2404   2.666   2.481   1.005
  796SOL    HW2 2405   2.559   2.581   1.042
  797SOL     OW 2406   2.163   1.928   0.622
  797SOL    HW1 2407   2.145   2.018   0.648
  797SOL    HW2 2408   2.172   1.881   0.705
  798SOL     OW 2409   2.857   2.622   0.982
  798SOL    HW1 2410   2.913   2.616   1.060
  798SOL    HW2 2411   2.861   2.535   0.943
  799SOL     OW 2412   2.225   2.787   1.801
  799SOL    HW1 2413   2.289   2.777   1.872
  799SOL    HW2 2414   2.245   2.716   1.740
  800SOL     OW 2415   2.174   2.674   0.946
  800SOL    HW1 2416   2.267   2.690   0.933
  800SOL    HW2 2417   2.169   2.585   0.981
  801SOL     OW 2418   2.194   2.388   1.011
  801SOL    HW1 2419   2.159   2.300   0.996
  801SOL    HW2 2420   2.271   2.393   0.955
  802SOL     OW 2421   2.966   2.242   1.669
  802SOL    HW1 2422   2.907   2.301   1.717
  802SOL    HW2 2423   0.052   2.284   1.675
  803SOL     OW 2424   2.973   2.068   1.468
  803SOL    HW1 2425   2.961   2.137   1.532
  803SOL    HW2 2426   2.970   2.113   1.383
  804SOL     OW 2427   2.859   2.666   1.268
  804SOL    HW1 2428   2.910   2.595   1.305
  804SOL    HW2 2429   2.777   2.625   1.240
  805SOL     OW 2430   1.897   2.410   1.116
  805SOL    HW1 2431   1.977   2.389   1.067
  805SOL    HW2 2432   1.925   2.410   1.207
  806SOL     OW 2433   2.051   2.380   1.723
  806SOL    HW1 2434   2.111   2.345   1.657
  806SOL    HW2 2435   2.006   2.452   1.680
  807SOL     OW 2436   2.669   2.427   0.357
  807SOL    HW1 2437   2.670   2.357   0.291
  807SOL    HW2 2438   2.594   2.482   0.332
  808SOL     OW 2439   2.560   2.316   1.263
  808SOL    HW1 2440   2.510   2.240   1.232
  808SOL    HW2 2441   2.559   2.377   1.190
  809SOL     OW 2442   2.307   2.356   0.206
  809SOL    HW1 2443   2.371   2.425   0.224
  809SOL    HW2 2444   2.226   2.403   0.185
  810SOL     OW 2445   2.021   2.996   1.476
  810SOL    HW1 2446   2.022   2.939   1.552
  810SOL    HW2 2447   2.035   2.938   1.401
  811SOL     OW 2448   2.761   1.932   0.124
  811SOL    HW1 2449   2.818   1.904   0.053
  811SOL    HW2 2450   2.800   1.895   0.203
  812SOL     OW 2451   2.125   2.178   0.718
  812SOL    HW1 2452   2.039   2.214   0.694
  812SOL    HW2 2453   2.121   2.169   0.814
  813SOL     OW 2454   2.674   2.866   1.378
  813SOL    HW1 2455   2.730   2.838   1.305
  813SOL    HW2 2456   2.700   2.956   1.395
  814SOL     OW 2457   2.740   2.788   0.285
  814SOL    HW1 2458   2.821   2.837   0.275
  814SOL    HW2 2459   2.759   2.723   0.351
  815SOL     OW 2460   2.881   2.103   0.968
  815SOL    HW1 2461   2.876   2.055   0.886
  815SOL    HW2 2462   2.869   2.037   1.036
  816SOL     OW 2463   1.975   2.864   1.708
  816SOL    HW1 2464   1.899   2.857   1.766
  816SOL    HW2 2465   2.050   2.846   1.764
  817SOL     OW 2466   2.526   2.063   1.501
  817SOL    HW1 2467   2.607   2.040   1.455
  817SOL    HW2 2468   2.556   2.093   1.587
  818SOL     OW 2469   1.934   2.017   0.341
  818SOL    HW1 2470   1.899   2.059   0.263
  818SOL    HW2 2471   2.027   2.002   0.322
  819SOL     OW 2472   2.475   2.693   1.435
  819SOL    HW1 2473   2.532   2.768   1.419
  819SOL    HW2 2474   2.535   2.618   1.442
  820SOL     OW 2475   2.578   2.425   1.701
  820SOL    HW1 2476   2.615   2.490   1.762
  820SOL    HW2 2477   2.606   2.341   1.737
  821SOL     OW 2478   2.455   2.585   0.664
  821SOL    HW1 2479   2.478   2.677   0.677
  821SOL    HW2 2480   2.387   2.586   0.597
  822SOL     OW 2481   2.754   2.839   0.865
  822SOL    HW1 2482   2.783   2.754   0.899
  822SOL    HW2 2483   2.680   2.863   0.921
  823SOL     OW 2484   2.293   2.295   0.529
  823SOL    HW1 2485   2.320   2.224   0.471
  823SOL    HW2 2486   2.244   2.251   0.599
  824SOL     OW 2487   2.192   2.417   1.290
  824SOL    HW1 2488   2.247   2.362   1.346
  824SOL    HW2 2489   2.211   2.388   1.201
  825SOL     OW 2490   2.868   1.878   1.141
  825SOL    HW1 2491   2.815   1.809   1.102
  825SOL    HW2 2492   2.957   1.857   1.115
  826SOL     OW 2493   1.868   2.915   0.300
  826SOL    HW1 2494   1.953   2.916   0.256
  826SOL    HW2 2495   1.861   2.826   0.335
  827SOL     OW 2496   2.094   2.470   1.982
  827SOL    HW1 2497   2.006   2.489   2.017
  827SOL    HW2 2498   2.080   2.451   1.890
  828SOL     OW 2499   2.090   2.144   2.845
  828SOL    HW1 2500   2.116   2.116   2.933
  828SOL    HW2 2501   2.000   2.112   2.836
  829SOL     OW 2502   1.869   2.246   2.497
  829SOL    HW1 2503   1.786   2.272   2.538
  829SOL    HW2 2504   1.848   2.164   2.452
  830SOL     OW 2505   2.639   0.017   2.877
  830SOL    HW1 2506   2.549   0.026   2.908
  830SOL    HW2 2507   2.651   0.092   2.818
  831SOL     OW 2508   2.509   2.844   2.569
  831SOL    HW1 2509   2.602   2.847   2.593
  831SOL    HW2 2510   2.494   2.928   2.525
  832SOL     OW 2511   2.102   0.305   2.331
  832SOL    HW1 2512   2.050   0.381   2.356
  832SOL    HW2 2513   2.053   0.230   2.365
  833SOL     OW 2514   2.112   2.950   2.750
  833SOL    HW1 2515   2.129   2.861   2.778
  833SOL    HW2 2516   2.056   2.987   2.818
  834SOL     OW 2517   2.463   2.823   1.998
  834SOL    HW1 2518   2.458   2.906   1.950
  834SOL    HW2 2519   2.534   2.836   2.060
  835SOL     OW 2520   1.978   2.510   2.424
  835SOL    HW1 2521   1.949   2.421   2.446
  835SOL    HW2 2522   1.970   2.559   2.506
  836SOL     OW 2523   2.496   0.245   2.569
  836SOL    HW1 2524   2.462   0.163   2.533
  836SOL    HW2 2525   2.466   0.312   2.508
  837SOL     OW 2526   2.675   1.863   2.367
  837SOL    HW1 2527   2.714   1.949   2.352
  837SOL    HW2 2528   2.582   1.881   2.379
  838SOL     OW 2529   2.061   2.806   0.117
  838SOL    HW1 2530   2.126   2.736   0.109
  838SOL    HW2 2531   1.979   2.765   0.090
  839SOL     OW 2532   2.457   2.578   2.130
  839SOL    HW1 2533   2.461   2.657   2.075
  839SOL    HW2 2534   2.392   2.598   2.196
  840SOL     OW 2535   2.893   2.579   2.273
  840SOL    HW1 2536   2.925   2.568   2.363
  840SOL    HW2 2537   2.815   2.524   2.268
  841SOL     OW 2538   1.946   2.684   2.638
  841SOL    HW1 2539   2.028   2.671   2.686
  841SOL    HW2 2540   1.909   2.764   2.675
  842SOL     OW 2541   2.750   2.206   2.058
  842SOL    HW1 2542   2.789   2.269   1.998
  842SOL    HW2 2543   2.755   2.123   2.012
  843SOL     OW 2544   2.411   2.047   2.767
  843SOL    HW1 2545   2.378   2.085   2.848
  843SOL    HW2 2546   2.422   2.122   2.708
  844SOL     OW 2547   2.251   2.555   2.335
  844SOL    HW1 2548   2.274   2.463   2.347
  844SOL    HW2 2549   2.158   2.560   2.356
  845SOL     OW 2550   2.499   1.987   1.964
  845SOL    HW1 2551   2.561   1.917   1.982
  845SOL    HW2 2552   2.447   1.955   1.890
  846SOL     OW 2553   2.786   2.377   2.756
  846SOL    HW1 2554   2.762   2.354   2.666
  846SOL    HW2 2555   2.814   2.295   2.795
  847SOL     OW 2556   2.410   1.925   2.366
  847SOL    HW1 2557   2.329   1.925   2.417
  847SOL    HW2 2558   2.404   2.004   2.311
  848SOL     OW 2559   2.154   1.909   2.046
  848SOL    HW1 2560   2.212   1.975   2.009
  848SOL    HW2 2561   2.212   1.846   2.088
  849SOL     OW 2562   2.806   2.102   2.313
  849SOL    HW1 2563   2.770   2.150   2.238
  849SOL    HW2 2564   2.894   2.077   2.284
  850SOL     OW 2565   2.884   2.412   1.882
  850SOL    HW1 2566   2.837   2.492   1.858
  850SOL    HW2 2567   2.933   2.435   1.961
  851SOL     OW 2568   2.742   2.317   2.494
  851SOL    HW1 2569   2.683   2.377   2.447
  851SOL    HW2 2570   2.742   2.238   2.440
  852SOL     OW 2571   2.854   1.925   2.609
  852SOL    HW1 2572   2.806   1.897   2.531
  852SOL    HW2 2573   2.850   1.849   2.667
  853SOL     OW 2574   2.389   2.123   2.180
  853SOL    HW1 2575   2.432   2.077   2.109
  853SOL    HW2 2576   2.367   2.209   2.144
  854SOL     OW 2577   2.415   2.392   2.724
  854SOL    HW1 2578   2.429   2.448   2.648
  854SOL    HW2 2579   2.477   2.424   2.790
  855SOL     OW 2580   2.434   2.729   2.887
  855SOL    HW1 2581   2.476   2.805   2.847
  855SOL    HW2 2582   2.431   2.750   2.981
  856SOL     OW 2583   0.052   2.392   2.136
  856SOL    HW1 2584   0.085   2.319   2.190
  856SOL    HW2 2585   0.012   2.451   2.199
  857SOL     OW 2586   2.159   2.070   0.093
  857SOL    HW1 2587   2.199   2.099   0.175
  857SOL    HW2 2588   2.153   1.975   0.102
  858SOL     OW 2589   2.590   2.499   2.912
  858SOL    HW1 2590   2.663   2.482   2.851
  858SOL    HW2 2591   2.559   2.585   2.887
  859SOL     OW 2592   2.164   1.927   2.483
  859SOL    HW1 2593   2.145   2.018   2.508
  859SOL    HW2 2594   2.170   1.881   2.567
  860SOL     OW 2595   2.874   2.633   2.824
  860SOL    HW1 2596   2.893   2.632   2.918
  860SOL    HW2 2597   2.867   2.540   2.801
  861SOL     OW 2598   2.170   2.673   2.807
  861SOL    HW1 2599   2.264   2.694   2.814
  861SOL    HW2 2600   2.164   2.582   2.835
  862SOL     OW 2601   2.182   2.399   2.865
  862SOL    HW1 2602   2.147   2.310   2.859
  862SOL    HW2 2603   2.263   2.396   2.815
  863SOL     OW 2604   2.876   2.641   0.097
  863SOL    HW1 2605   2.919   2.635   0.181
  863SOL    HW2 2606   2.789   2.677   0.117
  864SOL     OW 2607   2.674   2.429   2.220
  864SOL    HW1 2608   2.673   2.353   2.161
  864SOL    HW2 2609   2.599   2.482   2.192
  865SOL     OW 2610   2.567   2.308   0.099
  865SOL    HW1 2611   2.475   2.280   0.095
  865SOL    HW2 2612   2.573   2.380   0.036
  866SOL     OW 2613   2.330   2.352   2.049
  866SOL    HW1 2614   2.385   2.426   2.073
  866SOL    HW2 2615   2.243   2.389   2.035
  867SOL     OW 2616   0.163   2.701   2.158
  867SOL    HW1 2617   0.111   2.644   2.215
  867SOL    HW2 2618   0.202   2.641   2.094
  868SOL     OW 2619   2.126   2.179   2.576
  868SOL    HW1 2620   2.040   2.215   2.553
  868SOL    HW2 2621   2.123   2.172   2.672
  869SOL     OW 2622   2.756   2.766   2.108
  869SOL    HW1 2623   2.833   2.819   2.090
  869SOL    HW2 2624   2.784   2.705   2.177
  870SOL     OW 2625   2.876   2.103   2.815
  870SOL    HW1 2626   2.870   2.055   2.733
  870SOL    HW2 2627   2.902   2.037   2.880
  871SOL     OW 2628   1.940   2.194   1.896
  871SOL    HW1 2629   1.851   2.176   1.863
  871SOL    HW2 2630   1.969   2.271   1.847
  872SOL     OW 2631   1.931   2.019   2.174
  872SOL    HW1 2632   1.916   2.099   2.123
  872SOL    HW2 2633   2.016   1.986   2.143
  873SOL     OW 2634   2.456   2.581   2.524
  873SOL    HW1 2635   2.479   2.673   2.538
  873SOL    HW2 2636   2.386   2.583   2.460
  874SOL     OW 2637   2.744   2.832   2.711
  874SOL    HW1 2638   2.787   2.756   2.749
  874SOL    HW2 2639   2.709   2.880   2.787
  875SOL     OW 2640   2.952   2.838   1.900
  875SOL    HW1 2641   2.916   2.926   1.912
  875SOL    HW2 2642   0.009   2.825   1.976
  876SOL     OW 2643   2.293   2.295   2.387
  876SOL    HW1 2644   2.319   2.222   2.330
  876SOL    HW2 2645   2.244   2.253   2.458
  877SOL     OW 2646   1.885   2.920   2.178
  877SOL    HW1 2647   1.968   2.931   2.132
  877SOL    HW2 2648   1.880   2.827   2.198
   3.00000   3.00000   3.00000
