;
;	File 'topol.top' was generated
;	By user: unknown (93529)
;	On host: khas023
;	At date: Mon Apr  6 10:04:15 2026
;
;	This is a standalone topology file
;
;	Created by:
;	              :-) GROMACS - gmx pdb2gmx, 2021.4-plumed-2.8.0 (-:
;	
;	Executable:   /home/apps/centos7/gromacs/2021.4/gcc9.1_ompi4.1.2/bin/gmx_mpi
;	Data prefix:  /home/apps/centos7/gromacs/2021.4/gcc9.1_ompi4.1.2
;	Working dir:  /scratch/mse/phd/msz208502/dev_gromacs/polymers/23_SER_wat
;	Command line:
;	  gmx_mpi pdb2gmx -f 23_SER.pdb -o processed.gro -water tip3p -ignh -ff charmm27
;	Force field was read from the standard GROMACS share directory.
;

; Include forcefield parameters
#include "charmm27.ff/forcefield.itp"

[ moleculetype ]
; Name            nrexcl
Protein_chain_A     3

[ atoms ]
;   nr       type  resnr residue  atom   cgnr     charge       mass  typeB    chargeB      massB
; residue   1 SER rtp SER  q  0.0
     1        NH3      1    SER      N      1       -0.3     14.007
     2         HC      1    SER     H1      2       0.33      1.008
     3         HC      1    SER     H2      3       0.33      1.008
     4         HC      1    SER     H3      4       0.33      1.008
     5        CT1      1    SER     CA      5       0.21     12.011
     6         HB      1    SER     HA      6        0.1      1.008
     7        CT2      1    SER     CB      7       0.05     12.011
     8         HA      1    SER    HB1      8       0.09      1.008
     9         HA      1    SER    HB2      9       0.09      1.008
    10        OH1      1    SER     OG     10      -0.66     15.999
    11          H      1    SER    HG1     11       0.43      1.008
    12         CC      1    SER      C     12       0.34     12.011
    13         OC      1    SER    OT1     13      -0.67    15.9994
    14         OC      1    SER    OT2     14      -0.67    15.9994   ; qtot 0

[ bonds ]
;  ai    aj funct            c0            c1            c2            c3
    1     2     1 
    1     3     1 
    1     4     1 
    1     5     1 
    5     6     1 
    5     7     1 
    5    12     1 
    7     8     1 
    7     9     1 
    7    10     1 
   10    11     1 
   12    13     1 
   12    14     1 

[ pairs ]
;  ai    aj funct            c0            c1            c2            c3
    1     8     1 
    1     9     1 
    1    10     1 
    1    13     1 
    1    14     1 
    2     6     1 
    2     7     1 
    2    12     1 
    3     6     1 
    3     7     1 
    3    12     1 
    4     6     1 
    4     7     1 
    4    12     1 
    5    11     1 
    6     8     1 
    6     9     1 
    6    10     1 
    6    13     1 
    6    14     1 
    7    13     1 
    7    14     1 
    8    11     1 
    8    12     1 
    9    11     1 
    9    12     1 
   10    12     1 

[ angles ]
;  ai    aj    ak funct            c0            c1            c2            c3
    2     1     3     5 
    2     1     4     5 
    2     1     5     5 
    3     1     4     5 
    3     1     5     5 
    4     1     5     5 
    1     5     6     5 
    1     5     7     5 
    1     5    12     5 
    6     5     7     5 
    6     5    12     5 
    7     5    12     5 
    5     7     8     5 
    5     7     9     5 
    5     7    10     5 
    8     7     9     5 
    8     7    10     5 
    9     7    10     5 
    7    10    11     5 
    5    12    13     5 
    5    12    14     5 
   13    12    14     5 

[ dihedrals ]
;  ai    aj    ak    al funct            c0            c1            c2            c3            c4            c5
    2     1     5     6     9 
    2     1     5     7     9 
    2     1     5    12     9 
    3     1     5     6     9 
    3     1     5     7     9 
    3     1     5    12     9 
    4     1     5     6     9 
    4     1     5     7     9 
    4     1     5    12     9 
    1     5     7     8     9 
    1     5     7     9     9 
    1     5     7    10     9 
    6     5     7     8     9 
    6     5     7     9     9 
    6     5     7    10     9 
   12     5     7     8     9 
   12     5     7     9     9 
   12     5     7    10     9 
    1     5    12    13     9 
    1     5    12    14     9 
    6     5    12    13     9 
    6     5    12    14     9 
    7     5    12    13     9 
    7     5    12    14     9 
    5     7    10    11     9 
    8     7    10    11     9 
    9     7    10    11     9 

[ dihedrals ]
;  ai    aj    ak    al funct            c0            c1            c2            c3
   12     5    14    13     2 

; Include Position restraint file
#ifdef POSRES
#include "posre.itp"
#endif

; Include water topology
#include "charmm27.ff/tip3p.itp"

#ifdef POSRES_WATER
; Position restraint for each water oxygen
[ position_restraints ]
;  i funct       fcx        fcy        fcz
   1    1       1000       1000       1000
#endif

; Include topology for ions
#include "charmm27.ff/ions.itp"

[ system ]
; Name
UNNAMED in water

[ molecules ]
; Compound        #mols
Protein_chain_A     1
SOL               879
