Methanol
 1200
    1MeOH   Me1    1   0.162   2.626   0.135
    1MeOH    O2    2   0.290   2.590   0.211
    1MeOH    H3    3   0.275   2.504   0.259
    2MeOH   Me1    4   2.321   1.190   1.086
    2MeOH    O2    5   2.344   1.083   0.978
    2MeOH    H3    6   2.362   1.129   0.891
    3MeOH   Me1    7   0.477   2.139   0.657
    3MeOH    O2    8   0.572   2.073   0.758
    3MeOH    H3    9   0.552   1.975   0.760
    4MeOH   Me1   10   1.932   2.279   0.776
    4MeOH    O2   11   2.067   2.249   0.712
    4MeOH    H3   12   2.059   2.261   0.613
    5MeOH   Me1   13   2.807   1.242   2.981
    5MeOH    O2   14   2.813   1.381   2.918
    5MeOH    H3   15   2.723   1.401   2.879
    6MeOH   Me1   16   0.925   0.438   0.021
    6MeOH    O2   17   1.005   0.417   2.898
    6MeOH    H3   18   1.082   0.356   2.918
    7MeOH   Me1   19   2.411   2.348   2.527
    7MeOH    O2   20   2.413   2.324   2.376
    7MeOH    H3   21   2.396   2.412   2.330
    8MeOH   Me1   22   1.706   0.457   0.751
    8MeOH    O2   23   1.582   0.406   0.676
    8MeOH    H3   24   1.531   0.345   0.737
    9MeOH   Me1   25   0.173   2.410   0.478
    9MeOH    O2   26   0.250   2.361   0.355
    9MeOH    H3   27   0.251   2.261   0.356
   10MeOH   Me1   28   0.728   2.876   2.833
   10MeOH    O2   29   0.805   2.745   2.813
   10MeOH    H3   30   0.766   2.676   2.873
   11MeOH   Me1   31   0.987   0.495   2.555
   11MeOH    O2   32   0.888   0.431   2.653
   11MeOH    H3   33   0.931   0.428   2.743
   12MeOH   Me1   34   0.671   0.466   2.311
   12MeOH    O2   35   0.526   0.504   2.279
   12MeOH    H3   36   0.518   0.604   2.280
   13MeOH   Me1   37   0.483   1.023   0.690
   13MeOH    O2   38   0.551   1.160   0.672
   13MeOH    H3   39   0.650   1.146   0.668
   14MeOH   Me1   40   1.512   2.520   2.006
   14MeOH    O2   41   1.475   2.399   2.092
   14MeOH    H3   42   1.558   2.350   2.115
   15MeOH   Me1   43   1.839   0.246   2.083
   15MeOH    O2   44   1.903   0.249   1.945
   15MeOH    H3   45   1.935   0.342   1.927
   16MeOH   Me1   46   0.497   1.601   2.265
   16MeOH    O2   47   0.446   1.745   2.261
   16MeOH    H3   48   0.400   1.765   2.347
   17MeOH   Me1   49   2.459   1.844   0.206
   17MeOH    O2   50   2.557   1.763   0.291
   17MeOH    H3   51   2.590   1.821   0.365
   18MeOH   Me1   52   1.910   1.671   2.918
   18MeOH    O2   53   1.904   1.823   2.910
   18MeOH    H3   54   1.998   1.859   2.917
   19MeOH   Me1   55   1.928   2.498   1.100
   19MeOH    O2   56   1.934   2.355   1.154
   19MeOH    H3   57   2.030   2.325   1.155
   20MeOH   Me1   58   0.750   0.830   2.560
   20MeOH    O2   59   0.718   0.911   2.434
   20MeOH    H3   60   0.789   0.980   2.421
   21MeOH   Me1   61   1.468   2.444   0.379
   21MeOH    O2   62   1.455   2.418   0.229
   21MeOH    H3   63   1.544   2.433   0.186
   22MeOH   Me1   64   0.606   2.159   0.249
   22MeOH    O2   65   0.637   2.217   0.111
   22MeOH    H3   66   0.723   2.268   0.117
   23MeOH   Me1   67   1.496   0.470   2.233
   23MeOH    O2   68   1.614   0.499   2.140
   23MeOH    H3   69   1.693   0.524   2.196
   24MeOH   Me1   70   2.628   1.960   0.634
   24MeOH    O2   71   2.674   1.913   0.496
   24MeOH    H3   72   2.757   1.859   0.507
   25MeOH   Me1   73   1.192   2.184   2.077
   25MeOH    O2   74   1.219   2.320   2.013
   25MeOH    H3   75   1.313   2.348   2.035
   26MeOH   Me1   76   1.527   0.026   1.132
   26MeOH    O2   77   1.530   2.895   1.062
   26MeOH    H3   78   1.436   2.862   1.054
   27MeOH   Me1   79   0.411   0.571   1.952
   27MeOH    O2   80   0.269   0.580   1.896
   27MeOH    H3   81   0.213   0.634   1.959
   28MeOH   Me1   82   1.302   1.988   1.289
   28MeOH    O2   83   1.214   2.090   1.362
   28MeOH    H3   84   1.252   2.104   1.453
   29MeOH   Me1   85   0.272   0.958   1.786
   29MeOH    O2   86   0.251   1.016   1.646
   29MeOH    H3   87   0.299   1.103   1.640
   30MeOH   Me1   88   2.968   1.758   2.506
   30MeOH    O2   89   2.823   1.784   2.546
   30MeOH    H3   90   2.816   1.782   2.646
   31MeOH   Me1   91   0.642   0.185   2.595
   31MeOH    O2   92   0.635   0.335   2.623
   31MeOH    H3   93   0.728   0.370   2.633
   32MeOH   Me1   94   2.839   1.728   1.476
   32MeOH    O2   95   2.912   1.622   1.394
   32MeOH    H3   96   2.922   1.539   1.449
   33MeOH   Me1   97   2.225   1.612   0.952
   33MeOH    O2   98   2.349   1.703   0.954
   33MeOH    H3   99   2.348   1.756   1.038
   34MeOH   Me1  100   1.666   0.657   1.488
   34MeOH    O2  101   1.514   0.662   1.469
   34MeOH    H3  102   1.471   0.672   1.559
   35MeOH   Me1  103   0.317   1.226   0.959
   35MeOH    O2  104   0.260   1.086   0.984
   35MeOH    H3  105   0.320   1.039   1.049
   36MeOH   Me1  106   2.583   2.726   1.843
   36MeOH    O2  107   2.729   2.709   1.886
   36MeOH    H3  108   2.731   2.679   1.981
   37MeOH   Me1  109   2.774   1.224   0.395
   37MeOH    O2  110   2.729   1.350   0.468
   37MeOH    H3  111   2.668   1.403   0.408
   38MeOH   Me1  112   2.020   0.786   0.147
   38MeOH    O2  113   1.903   0.848   0.224
   38MeOH    H3  114   1.855   0.775   0.273
   39MeOH   Me1  115   0.774   0.476   1.496
   39MeOH    O2  116   0.893   0.380   1.486
   39MeOH    H3  117   0.900   0.328   1.571
   40MeOH   Me1  118   1.223   1.438   1.979
   40MeOH    O2  119   1.223   1.473   2.128
   40MeOH    H3  120   1.134   1.515   2.150
   41MeOH   Me1  121   2.748   0.264   1.374
   41MeOH    O2  122   2.779   0.394   1.448
   41MeOH    H3  123   2.851   0.443   1.398
   42MeOH   Me1  124   0.427   1.337   2.845
   42MeOH    O2  125   0.476   1.482   2.855
   42MeOH    H3  126   0.522   1.493   2.943
   43MeOH   Me1  127   0.603   2.730   2.504
   43MeOH    O2  128   0.679   2.644   2.403
   43MeOH    H3  129   0.691   2.696   2.319
   44MeOH   Me1  130   1.125   1.718   2.948
   44MeOH    O2  131   1.020   1.799   0.019
   44MeOH    H3  132   0.972   1.859   2.961
   45MeOH   Me1  133   2.865   2.021   0.227
   45MeOH    O2  134   2.737   2.080   0.286
   45MeOH    H3  135   2.710   2.024   0.365
   46MeOH   Me1  136   0.238   2.006   0.241
   46MeOH    O2  137   0.242   2.087   0.370
   46MeOH    H3  138   0.198   2.034   0.443
   47MeOH   Me1  139   0.410   0.959   1.313
   47MeOH    O2  140   0.423   0.960   1.161
   47MeOH    H3  141   0.520   0.953   1.137
   48MeOH   Me1  142   1.612   2.903   1.839
   48MeOH    O2  143   1.521   2.849   1.950
   48MeOH    H3  144   1.534   2.905   2.032
   49MeOH   Me1  145   2.897   1.574   0.202
   49MeOH    O2  146   2.992   1.675   0.268
   49MeOH    H3  147   0.072   1.629   0.289
   50MeOH   Me1  148   0.999   2.759   2.464
   50MeOH    O2  149   1.119   2.847   2.432
   50MeOH    H3  150   1.177   2.854   2.513
   51MeOH   Me1  151   1.590   0.176   1.481
   51MeOH    O2  152   1.715   0.090   1.467
   51MeOH    H3  153   1.795   0.149   1.471
   52MeOH   Me1  154   0.647   1.730   2.686
   52MeOH    O2  155   0.497   1.699   2.692
   52MeOH    H3  156   0.484   1.618   2.748
   53MeOH   Me1  157   0.289   1.437   0.278
   53MeOH    O2  158   0.206   1.542   0.352
   53MeOH    H3  159   0.219   1.529   0.450
   54MeOH   Me1  160   1.711   2.138   2.228
   54MeOH    O2  161   1.707   2.273   2.156
   54MeOH    H3  162   1.801   2.306   2.145
   55MeOH   Me1  163   1.193   1.760   0.324
   55MeOH    O2  164   1.047   1.790   0.291
   55MeOH    H3  165   1.037   1.795   0.192
   56MeOH   Me1  166   0.740   2.609   1.809
   56MeOH    O2  167   0.791   2.643   1.950
   56MeOH    H3  168   0.866   2.581   1.972
   57MeOH   Me1  169   2.506   2.772   2.774
   57MeOH    O2  170   2.489   2.621   2.753
   57MeOH    H3  171   2.575   2.584   2.716
   58MeOH   Me1  172   1.716   2.773   1.329
   58MeOH    O2  173   1.676   2.824   1.468
   58MeOH    H3  174   1.690   2.923   1.470
   59MeOH   Me1  175   2.414   0.784   0.723
   59MeOH    O2  176   2.399   0.766   0.572
   59MeOH    H3  177   2.477   0.809   0.527
   60MeOH   Me1  178   0.805   2.430   2.657
   60MeOH    O2  179   0.811   2.427   2.504
   60MeOH    H3  180   0.761   2.506   2.469
   61MeOH   Me1  181   1.468   2.232   2.504
   61MeOH    O2  182   1.516   2.156   2.628
   61MeOH    H3  183   1.610   2.127   2.612
   62MeOH   Me1  184   2.302   2.027   0.863
   62MeOH    O2  185   2.239   2.161   0.903
   62MeOH    H3  186   2.180   2.192   0.828
   63MeOH   Me1  187   0.531   2.067   2.804
   63MeOH    O2  188   0.664   2.106   2.869
   63MeOH    H3  189   0.645   2.148   2.958
   64MeOH   Me1  190   0.456   0.602   1.147
   64MeOH    O2  191   0.500   0.481   1.064
   64MeOH    H3  192   0.597   0.465   1.081
   65MeOH   Me1  193   1.423   0.102   0.772
   65MeOH    O2  194   1.447   0.235   0.844
   65MeOH    H3  195   1.383   0.242   0.920
   66MeOH   Me1  196   0.626   1.057   1.836
   66MeOH    O2  197   0.721   0.949   1.783
   66MeOH    H3  198   0.776   0.916   1.860
   67MeOH   Me1  199   2.725   1.724   1.097
   67MeOH    O2  200   2.759   1.767   0.954
   67MeOH    H3  201   2.694   1.724   0.892
   68MeOH   Me1  202   0.847   1.963   1.683
   68MeOH    O2  203   0.936   1.865   1.760
   68MeOH    H3  204   1.001   1.825   1.695
   69MeOH   Me1  205   2.685   1.548   2.307
   69MeOH    O2  206   2.613   1.583   2.176
   69MeOH    H3  207   2.522   1.543   2.178
   70MeOH   Me1  208   2.333   0.453   0.472
   70MeOH    O2  209   2.351   0.303   0.495
   70MeOH    H3  210   2.420   0.289   0.566
   71MeOH   Me1  211   0.205   2.758   0.962
   71MeOH    O2  212   0.324   2.849   0.990
   71MeOH    H3  213   0.291   2.943   0.998
   72MeOH   Me1  214   0.207   1.863   0.660
   72MeOH    O2  215   0.116   1.935   0.560
   72MeOH    H3  216   0.035   1.879   0.545
   73MeOH   Me1  217   1.896   0.985   1.941
   73MeOH    O2  218   2.026   0.968   2.020
   73MeOH    H3  219   2.090   1.039   1.990
   74MeOH   Me1  220   0.319   1.304   1.962
   74MeOH    O2  221   0.316   1.188   2.062
   74MeOH    H3  222   0.370   1.213   2.142
   75MeOH   Me1  223   0.978   1.157   1.006
   75MeOH    O2  224   0.918   1.082   1.126
   75MeOH    H3  225   0.979   1.095   1.204
   76MeOH   Me1  226   0.980   2.498   2.188
   76MeOH    O2  227   0.996   2.483   2.037
   76MeOH    H3  228   1.076   2.425   2.019
   77MeOH   Me1  229   0.027   0.196   0.318
   77MeOH    O2  230   0.085   0.055   0.318
   77MeOH    H3  231   0.133   0.040   0.404
   78MeOH   Me1  232   2.492   1.936   2.706
   78MeOH    O2  233   2.399   1.969   2.823
   78MeOH    H3  234   2.426   2.058   2.860
   79MeOH   Me1  235   1.596   1.487   1.597
   79MeOH    O2  236   1.597   1.613   1.684
   79MeOH    H3  237   1.604   1.693   1.624
   80MeOH   Me1  238   2.778   2.468   2.140
   80MeOH    O2  239   2.761   2.620   2.140
   80MeOH    H3  240   2.824   2.659   2.207
   81MeOH   Me1  241   2.889   1.651   0.599
   81MeOH    O2  242   2.906   1.770   0.505
   81MeOH    H3  243   2.933   1.737   0.415
   82MeOH   Me1  244   1.857   1.406   0.218
   82MeOH    O2  245   1.992   1.457   0.168
   82MeOH    H3  246   2.014   1.542   0.216
   83MeOH   Me1  247   2.121   2.653   0.363
   83MeOH    O2  248   2.175   2.510   0.363
   83MeOH    H3  249   2.274   2.513   0.370
   84MeOH   Me1  250   1.328   2.036   2.900
   84MeOH    O2  251   1.328   1.999   2.752
   84MeOH    H3  252   1.396   2.055   2.705
   85MeOH   Me1  253   0.780   0.027   0.170
   85MeOH    O2  254   0.688   0.149   0.158
   85MeOH    H3  255   0.629   0.137   0.078
   86MeOH   Me1  256   2.960   0.063   0.811
   86MeOH    O2  257   2.974   0.113   0.667
   86MeOH    H3  258   0.052   0.075   0.628
   87MeOH   Me1  259   1.006   1.401   0.228
   87MeOH    O2  260   1.087   1.322   0.330
   87MeOH    H3  261   1.170   1.288   0.285
   88MeOH   Me1  262   2.167   0.629   2.273
   88MeOH    O2  263   2.098   0.494   2.294
   88MeOH    H3  264   2.151   0.423   2.248
   89MeOH   Me1  265   2.991   1.063   2.028
   89MeOH    O2  266   0.114   1.006   2.088
   89MeOH    H3  267   0.187   1.074   2.078
   90MeOH   Me1  268   0.523   2.836   1.323
   90MeOH    O2  269   0.594   2.772   1.442
   90MeOH    H3  270   0.578   2.830   1.523
   91MeOH   Me1  271   2.928   2.772   0.426
   91MeOH    O2  272   2.779   2.739   0.439
   91MeOH    H3  273   2.753   2.747   0.535
   92MeOH   Me1  274   2.139   2.047   0.031
   92MeOH    O2  275   2.154   1.930   2.939
   92MeOH    H3  276   2.242   1.938   2.892
   93MeOH   Me1  277   1.921   1.366   2.605
   93MeOH    O2  278   1.812   1.293   2.527
   93MeOH    H3  279   1.822   1.315   2.430
   94MeOH   Me1  280   2.393   0.527   1.950
   94MeOH    O2  281   2.255   0.469   1.981
   94MeOH    H3  282   2.265   0.397   2.050
   95MeOH   Me1  283   2.053   0.229   1.395
   95MeOH    O2  284   1.928   0.259   1.478
   95MeOH    H3  285   1.943   0.345   1.527
   96MeOH   Me1  286   2.898   2.819   2.697
   96MeOH    O2  287   2.842   2.943   2.627
   96MeOH    H3  288   2.918   0.000   2.608
   97MeOH   Me1  289   2.687   1.583   1.823
   97MeOH    O2  290   2.673   1.473   1.929
   97MeOH    H3  291   2.659   1.517   2.018
   98MeOH   Me1  292   2.410   1.161   2.646
   98MeOH    O2  293   2.482   1.091   2.530
   98MeOH    H3  294   2.414   1.055   2.467
   99MeOH   Me1  295   1.729   2.867   2.494
   99MeOH    O2  296   1.665   2.989   2.426
   99MeOH    H3  297   1.668   0.060   2.490
  100MeOH   Me1  298   0.765   0.886   1.437
  100MeOH    O2  299   0.673   0.827   1.544
  100MeOH    H3  300   0.690   0.875   1.630
  101MeOH   Me1  301   0.585   1.226   2.355
  101MeOH    O2  302   0.448   1.251   2.290
  101MeOH    H3  303   0.378   1.246   2.361
  102MeOH   Me1  304   1.961   2.008   1.059
  102MeOH    O2  305   1.853   1.912   1.007
  102MeOH    H3  306   1.766   1.937   1.049
  103MeOH   Me1  307   1.440   0.094   2.186
  103MeOH    O2  308   1.555   2.999   2.177
  103MeOH    H3  309   1.598   2.993   2.267
  104MeOH   Me1  310   2.968   0.486   1.737
  104MeOH    O2  311   2.895   0.357   1.697
  104MeOH    H3  312   2.850   0.372   1.609
  105MeOH   Me1  313   1.636   0.619   0.406
  105MeOH    O2  314   1.781   0.661   0.379
  105MeOH    H3  315   1.829   0.667   0.466
  106MeOH   Me1  316   2.494   2.505   0.529
  106MeOH    O2  317   2.445   2.519   0.384
  106MeOH    H3  318   2.524   2.538   0.326
  107MeOH   Me1  319   2.368   1.815   1.989
  107MeOH    O2  320   2.405   1.823   1.841
  107MeOH    H3  321   2.498   1.861   1.834
  108MeOH   Me1  322   1.451   0.992   2.447
  108MeOH    O2  323   1.369   0.903   2.541
  108MeOH    H3  324   1.338   0.959   2.618
  109MeOH   Me1  325   1.438   1.402   2.692
  109MeOH    O2  326   1.345   1.308   2.617
  109MeOH    H3  327   1.342   1.335   2.521
  110MeOH   Me1  328   1.784   2.595   0.545
  110MeOH    O2  329   1.715   2.472   0.604
  110MeOH    H3  330   1.654   2.501   0.677
  111MeOH   Me1  331   1.580   0.145   2.931
  111MeOH    O2  332   1.597   0.272   2.848
  111MeOH    H3  333   1.538   0.343   2.886
  112MeOH   Me1  334   0.257   0.295   2.209
  112MeOH    O2  335   0.366   0.280   2.314
  112MeOH    H3  336   0.428   0.359   2.307
  113MeOH   Me1  337   1.577   1.014   1.720
  113MeOH    O2  338   1.646   1.124   1.639
  113MeOH    H3  339   1.608   1.125   1.547
  114MeOH   Me1  340   2.881   2.141   1.317
  114MeOH    O2  341   2.771   2.081   1.230
  114MeOH    H3  342   2.808   2.063   1.139
  115MeOH   Me1  343   1.520   1.681   2.974
  115MeOH    O2  344   1.481   1.697   0.115
  115MeOH    H3  345   1.487   1.794   0.139
  116MeOH   Me1  346   1.250   0.821   0.441
  116MeOH    O2  347   1.278   0.839   0.292
  116MeOH    H3  348   1.358   0.899   0.282
  117MeOH   Me1  349   0.051   2.781   1.797
  117MeOH    O2  350   2.949   2.694   1.732
  117MeOH    H3  351   2.866   2.699   1.787
  118MeOH   Me1  352   2.381   0.952   2.223
  118MeOH    O2  353   2.306   0.985   2.353
  118MeOH    H3  354   2.208   0.976   2.336
  119MeOH   Me1  355   0.262   2.886   0.596
  119MeOH    O2  356   0.206   0.019   0.565
  119MeOH    H3  357   0.266   0.088   0.604
  120MeOH   Me1  358   0.457   1.810   1.785
  120MeOH    O2  359   0.500   1.895   1.665
  120MeOH    H3  360   0.519   1.988   1.697
  121MeOH   Me1  361   0.325   0.693   0.613
  121MeOH    O2  362   0.470   0.688   0.564
  121MeOH    H3  363   0.472   0.648   0.473
  122MeOH   Me1  364   1.322   1.197   0.570
  122MeOH    O2  365   1.229   1.208   0.692
  122MeOH    H3  366   1.143   1.250   0.663
  123MeOH   Me1  367   0.138   2.383   0.870
  123MeOH    O2  368   0.055   2.484   0.790
  123MeOH    H3  369   2.983   2.436   0.750
  124MeOH   Me1  370   2.516   2.149   2.087
  124MeOH    O2  371   2.383   2.152   2.163
  124MeOH    H3  372   2.396   2.204   2.247
  125MeOH   Me1  373   1.498   0.527   1.140
  125MeOH    O2  374   1.430   0.646   1.208
  125MeOH    H3  375   1.463   0.651   1.303
  126MeOH   Me1  376   1.514   1.688   1.182
  126MeOH    O2  377   1.445   1.567   1.117
  126MeOH    H3  378   1.427   1.589   1.021
  127MeOH   Me1  379   0.092   1.208   1.265
  127MeOH    O2  380   3.002   1.178   1.381
  127MeOH    H3  381   0.012   1.084   1.411
  128MeOH   Me1  382   2.628   0.046   0.424
  128MeOH    O2  383   2.609   2.931   0.333
  128MeOH    H3  384   2.670   2.858   0.364
  129MeOH   Me1  385   0.357   0.673   1.573
  129MeOH    O2  386   0.476   0.649   1.479
  129MeOH    H3  387   0.548   0.715   1.501
  130MeOH   Me1  388   2.208   0.367   0.837
  130MeOH    O2  389   2.143   0.313   0.965
  130MeOH    H3  390   2.185   0.358   1.044
  131MeOH   Me1  391   1.504   1.379   2.319
  131MeOH    O2  392   1.354   1.379   2.351
  131MeOH    H3  393   1.305   1.413   2.272
  132MeOH   Me1  394   2.800   1.250   2.586
  132MeOH    O2  395   2.705   1.245   2.466
  132MeOH    H3  396   2.623   1.196   2.493
  133MeOH   Me1  397   1.412   0.559   2.618
  133MeOH    O2  398   1.477   0.652   2.515
  133MeOH    H3  399   1.436   0.743   2.524
  134MeOH   Me1  400   0.683   0.520   0.780
  134MeOH    O2  401   0.711   0.637   0.686
  134MeOH    H3  402   0.626   0.664   0.642
  135MeOH   Me1  403   1.935   0.113   0.652
  135MeOH    O2  404   1.973   0.022   0.535
  135MeOH    H3  405   2.048   0.065   0.485
  136MeOH   Me1  406   1.607   2.152   0.603
  136MeOH    O2  407   1.585   2.007   0.644
  136MeOH    H3  408   1.673   1.968   0.673
  137MeOH   Me1  409   2.707   0.308   2.823
  137MeOH    O2  410   2.831   0.310   2.912
  137MeOH    H3  411   2.805   0.340   3.004
  138MeOH   Me1  412   0.656   1.363   0.415
  138MeOH    O2  413   0.652   1.327   0.267
  138MeOH    H3  414   0.647   1.227   0.259
  139MeOH   Me1  415   1.258   1.739   1.623
  139MeOH    O2  416   1.107   1.729   1.597
  139MeOH    H3  417   1.079   1.634   1.609
  140MeOH   Me1  418   0.972   2.251   0.051
  140MeOH    O2  419   0.874   2.357   0.099
  140MeOH    H3  420   0.924   2.425   0.153
  141MeOH   Me1  421   0.757   2.181   2.081
  141MeOH    O2  422   0.615   2.177   2.024
  141MeOH    H3  423   0.568   2.097   2.061
  142MeOH   Me1  424   2.759   2.501   2.516
  142MeOH    O2  425   2.723   2.521   2.664
  142MeOH    H3  426   2.807   2.509   2.718
  143MeOH   Me1  427   1.954   1.905   0.662
  143MeOH    O2  428   1.820   1.909   0.736
  143MeOH    H3  429   1.838   1.901   0.834
  144MeOH   Me1  430   0.044   0.673   0.243
  144MeOH    O2  431   2.904   0.634   0.215
  144MeOH    H3  432   2.867   0.698   0.147
  145MeOH   Me1  433   0.026   0.238   2.629
  145MeOH    O2  434   0.049   0.100   2.568
  145MeOH    H3  435   0.144   0.093   2.537
  146MeOH   Me1  436   2.372   0.378   1.261
  146MeOH    O2  437   2.255   0.435   1.180
  146MeOH    H3  438   2.243   0.531   1.206
  147MeOH   Me1  439   2.160   2.652   2.549
  147MeOH    O2  440   2.036   2.708   2.619
  147MeOH    H3  441   2.063   2.787   2.673
  148MeOH   Me1  442   2.516   1.436   0.164
  148MeOH    O2  443   2.570   1.491   0.296
  148MeOH    H3  444   2.563   1.591   0.294
  149MeOH   Me1  445   0.944   2.696   1.379
  149MeOH    O2  446   0.868   2.803   1.458
  149MeOH    H3  447   0.770   2.788   1.446
  150MeOH   Me1  448   2.985   0.946   2.755
  150MeOH    O2  449   2.839   0.912   2.791
  150MeOH    H3  450   2.786   0.911   2.706
  151MeOH   Me1  451   0.956   0.106   1.269
  151MeOH    O2  452   0.872   0.234   1.260
  151MeOH    H3  453   0.886   0.287   1.343
  152MeOH   Me1  454   0.511   2.508   2.128
  152MeOH    O2  455   0.457   2.366   2.148
  152MeOH    H3  456   0.515   2.302   2.097
  153MeOH   Me1  457   1.932   1.300   1.752
  153MeOH    O2  458   1.912   1.183   1.656
  153MeOH    H3  459   1.814   1.161   1.652
  154MeOH   Me1  460   0.491   1.731   0.409
  154MeOH    O2  461   0.592   1.690   0.517
  154MeOH    H3  462   0.682   1.724   0.491
  155MeOH   Me1  463   2.134   2.089   2.604
  155MeOH    O2  464   2.016   2.172   2.653
  155MeOH    H3  465   2.048   2.237   2.721
  156MeOH   Me1  466   2.948   2.054   0.860
  156MeOH    O2  467   2.863   2.016   0.982
  156MeOH    H3  468   2.828   1.923   0.968
  157MeOH   Me1  469   0.850   0.868   2.125
  157MeOH    O2  470   0.893   0.860   1.978
  157MeOH    H3  471   0.933   0.770   1.962
  158MeOH   Me1  472   1.207   0.155   0.052
  158MeOH    O2  473   1.220   0.253   2.941
  158MeOH    H3  474   1.233   0.200   2.857
  159MeOH   Me1  475   1.247   2.696   0.686
  159MeOH    O2  476   1.390   2.701   0.632
  159MeOH    H3  477   1.449   2.651   0.695
  160MeOH   Me1  478   0.856   1.908   0.564
  160MeOH    O2  479   0.834   1.797   0.461
  160MeOH    H3  480   0.913   1.796   0.399
  161MeOH   Me1  481   0.937   1.713   0.954
  161MeOH    O2  482   0.947   1.565   0.991
  161MeOH    H3  483   1.029   1.551   1.046
  162MeOH   Me1  484   2.388   0.254   2.244
  162MeOH    O2  485   2.249   0.288   2.189
  162MeOH    H3  486   2.187   0.212   2.210
  163MeOH   Me1  487   2.215   2.233   1.862
  163MeOH    O2  488   2.169   2.220   2.007
  163MeOH    H3  489   2.246   2.188   2.062
  164MeOH   Me1  490   2.337   2.531   0.049
  164MeOH    O2  491   2.345   2.464   2.917
  164MeOH    H3  492   2.395   2.524   2.855
  165MeOH   Me1  493   1.040   1.074   1.726
  165MeOH    O2  494   1.081   1.027   1.865
  165MeOH    H3  495   1.009   0.969   1.902
  166MeOH   Me1  496   1.476   2.079   0.254
  166MeOH    O2  497   1.521   1.956   0.175
  166MeOH    H3  498   1.600   1.982   0.119
  167MeOH   Me1  499   2.332   1.463   1.810
  167MeOH    O2  500   2.229   1.440   1.921
  167MeOH    H3  501   2.152   1.501   1.906
  168MeOH   Me1  502   2.179   2.908   2.902
  168MeOH    O2  503   2.110   2.925   2.767
  168MeOH    H3  504   2.085   0.015   2.756
  169MeOH   Me1  505   0.645   0.605   2.837
  169MeOH    O2  506   0.695   0.730   2.909
  169MeOH    H3  507   0.794   0.735   2.899
  170MeOH   Me1  508   1.274   1.533   0.801
  170MeOH    O2  509   1.375   1.629   0.863
  170MeOH    H3  510   1.377   1.713   0.809
  171MeOH   Me1  511   1.795   2.848   2.863
  171MeOH    O2  512   1.664   2.800   2.927
  171MeOH    H3  513   1.650   2.704   2.902
  172MeOH   Me1  514   0.897   0.231   1.855
  172MeOH    O2  515   0.917   0.219   1.704
  172MeOH    H3  516   0.946   0.125   1.683
  173MeOH   Me1  517   2.551   2.939   1.517
  173MeOH    O2  518   2.481   2.985   1.645
  173MeOH    H3  519   2.440   0.069   1.629
  174MeOH   Me1  520   0.617   0.042   1.659
  174MeOH    O2  521   0.556   2.908   1.671
  174MeOH    H3  522   0.489   2.909   1.744
  175MeOH   Me1  523   0.389   1.523   1.186
  175MeOH    O2  524   0.505   1.428   1.218
  175MeOH    H3  525   0.575   1.437   1.147
  176MeOH   Me1  526   2.788   0.050   1.838
  176MeOH    O2  527   2.917   0.132   1.847
  176MeOH    H3  528   2.905   0.216   1.795
  177MeOH   Me1  529   1.969   2.991   1.711
  177MeOH    O2  530   1.958   3.002   1.863
  177MeOH    H3  531   1.937   0.092   1.886
  178MeOH   Me1  532   1.925   0.360   0.259
  178MeOH    O2  533   2.014   0.256   0.192
  178MeOH    H3  534   2.069   0.211   0.262
  179MeOH   Me1  535   2.500   1.146   0.652
  179MeOH    O2  536   2.387   1.199   0.741
  179MeOH    H3  537   2.330   1.261   0.686
  180MeOH   Me1  538   1.523   2.449   2.817
  180MeOH    O2  539   1.647   2.534   2.845
  180MeOH    H3  540   1.703   2.537   2.763
  181MeOH   Me1  541   2.675   0.679   2.985
  181MeOH    O2  542   2.777   0.787   0.018
  181MeOH    H3  543   2.806   0.835   2.941
  182MeOH   Me1  544   1.888   1.668   1.887
  182MeOH    O2  545   2.030   1.616   1.861
  182MeOH    H3  546   2.077   1.682   1.801
  183MeOH   Me1  547   2.147   0.494   2.634
  183MeOH    O2  548   2.086   0.382   2.550
  183MeOH    H3  549   2.080   0.413   2.455
  184MeOH   Me1  550   1.212   1.168   1.379
  184MeOH    O2  551   1.076   1.103   1.354
  184MeOH    H3  552   1.086   1.004   1.362
  185MeOH   Me1  553   1.740   0.315   2.528
  185MeOH    O2  554   1.672   0.196   2.596
  185MeOH    H3  555   1.647   0.223   2.689
  186MeOH   Me1  556   1.527   2.036   0.987
  186MeOH    O2  557   1.617   2.008   1.108
  186MeOH    H3  558   1.637   2.095   1.152
  187MeOH   Me1  559   0.708   1.073   2.903
  187MeOH    O2  560   0.618   0.977   2.981
  187MeOH    H3  561   0.644   0.883   2.957
  188MeOH   Me1  562   0.854   0.567   1.133
  188MeOH    O2  563   0.769   0.442   1.109
  188MeOH    H3  564   0.812   0.365   1.156
  189MeOH   Me1  565   2.074   1.167   2.981
  189MeOH    O2  566   2.101   1.317   2.968
  189MeOH    H3  567   2.059   1.364   0.040
  190MeOH   Me1  568   1.147   2.580   0.252
  190MeOH    O2  569   0.997   2.555   0.236
  190MeOH    H3  570   0.947   2.622   0.291
  191MeOH   Me1  571   2.747   0.878   2.425
  191MeOH    O2  572   2.688   0.909   2.563
  191MeOH    H3  573   2.613   0.974   2.551
  192MeOH   Me1  574   0.961   1.990   2.712
  192MeOH    O2  575   0.892   1.961   2.846
  192MeOH    H3  576   0.808   2.014   2.851
  193MeOH   Me1  577   1.721   1.349   1.183
  193MeOH    O2  578   1.578   1.354   1.238
  193MeOH    H3  579   1.530   1.430   1.194
  194MeOH   Me1  580   0.193   2.524   2.380
  194MeOH    O2  581   0.128   2.615   2.484
  194MeOH    H3  582   0.154   2.583   2.575
  195MeOH   Me1  583   2.063   0.745   0.552
  195MeOH    O2  584   1.929   0.695   0.607
  195MeOH    H3  585   1.931   0.705   0.707
  196MeOH   Me1  586   2.620   2.555   1.253
  196MeOH    O2  587   2.632   2.540   1.404
  196MeOH    H3  588   2.724   2.568   1.432
  197MeOH   Me1  589   2.514   1.008   0.123
  197MeOH    O2  590   2.645   0.964   0.188
  197MeOH    H3  591   2.693   0.902   0.125
  198MeOH   Me1  592   0.128   0.444   2.964
  198MeOH    O2  593   0.227   0.557   2.935
  198MeOH    H3  594   0.235   0.569   2.836
  199MeOH   Me1  595   0.006   2.048   2.787
  199MeOH    O2  596   0.137   2.039   2.866
  199MeOH    H3  597   0.149   1.945   2.897
  200MeOH   Me1  598   0.369   1.436   0.647
  200MeOH    O2  599   0.237   1.511   0.625
  200MeOH    H3  600   0.202   1.541   0.714
  201MeOH   Me1  601   2.450   0.939   1.444
  201MeOH    O2  602   2.365   0.929   1.571
  201MeOH    H3  603   2.281   0.981   1.557
  202MeOH   Me1  604   1.818   2.435   2.536
  202MeOH    O2  605   1.807   2.557   2.628
  202MeOH    H3  606   1.892   2.609   2.621
  203MeOH   Me1  607   2.909   1.333   1.676
  203MeOH    O2  608   2.960   1.390   1.543
  203MeOH    H3  609   2.970   1.315   1.478
  204MeOH   Me1  610   2.952   2.875   2.308
  204MeOH    O2  611   2.938   2.724   2.320
  204MeOH    H3  612   0.001   2.690   2.384
  205MeOH   Me1  613   2.520   0.062   0.025
  205MeOH    O2  614   2.483   2.934   0.089
  205MeOH    H3  615   2.528   2.928   0.178
  206MeOH   Me1  616   0.342   0.504   2.582
  206MeOH    O2  617   0.235   0.577   2.663
  206MeOH    H3  618   0.150   0.579   2.609
  207MeOH   Me1  619   1.802   0.660   2.407
  207MeOH    O2  620   1.830   0.565   2.290
  207MeOH    H3  621   1.927   0.540   2.293
  208MeOH   Me1  622   2.582   2.831   2.409
  208MeOH    O2  623   2.610   2.959   2.488
  208MeOH    H3  624   2.696   2.948   2.538
  209MeOH   Me1  625   0.068   1.076   0.688
  209MeOH    O2  626   0.107   0.969   0.791
  209MeOH    H3  627   0.164   1.012   0.861
  210MeOH   Me1  628   1.192   0.450   0.316
  210MeOH    O2  629   1.137   0.316   0.364
  210MeOH    H3  630   1.213   0.251   0.372
  211MeOH   Me1  631   1.906   1.518   0.577
  211MeOH    O2  632   1.966   1.411   0.668
  211MeOH    H3  633   1.895   1.378   0.730
  212MeOH   Me1  634   1.866   2.430   1.815
  212MeOH    O2  635   1.801   2.389   1.682
  212MeOH    H3  636   1.739   2.462   1.653
  213MeOH   Me1  637   2.311   0.770   1.128
  213MeOH    O2  638   2.224   0.701   1.233
  213MeOH    H3  639   2.166   0.770   1.276
  214MeOH   Me1  640   1.159   0.353   1.017
  214MeOH    O2  641   1.273   0.259   1.055
  214MeOH    H3  642   1.276   0.252   1.155
  215MeOH   Me1  643   2.256   1.424   0.461
  215MeOH    O2  644   2.225   1.362   0.598
  215MeOH    H3  645   2.131   1.383   0.622
  216MeOH   Me1  646   1.682   0.938   0.944
  216MeOH    O2  647   1.655   1.088   0.939
  216MeOH    H3  648   1.556   1.102   0.930
  217MeOH   Me1  649   2.772   1.907   2.215
  217MeOH    O2  650   2.715   1.829   2.096
  217MeOH    H3  651   2.679   1.742   2.130
  218MeOH   Me1  652   0.241   0.229   1.818
  218MeOH    O2  653   0.181   0.103   1.882
  218MeOH    H3  654   0.081   0.109   1.876
  219MeOH   Me1  655   1.967   0.963   1.242
  219MeOH    O2  656   2.068   0.899   1.338
  219MeOH    H3  657   2.089   0.966   1.410
  220MeOH   Me1  658   2.686   1.013   1.059
  220MeOH    O2  659   2.577   0.930   0.990
  220MeOH    H3  660   2.493   0.984   0.988
  221MeOH   Me1  661   2.009   1.563   1.480
  221MeOH    O2  662   2.159   1.590   1.497
  221MeOH    H3  663   2.171   1.659   1.568
  222MeOH   Me1  664   1.780   2.580   0.169
  222MeOH    O2  665   1.695   2.470   0.105
  222MeOH    H3  666   1.681   2.492   0.009
  223MeOH   Me1  667   1.967   1.392   2.188
  223MeOH    O2  668   1.841   1.340   2.257
  223MeOH    H3  669   1.781   1.300   2.188
  224MeOH   Me1  670   1.696   1.921   1.448
  224MeOH    O2  671   1.606   1.851   1.550
  224MeOH    H3  672   1.574   1.919   1.616
  225MeOH   Me1  673   2.036   1.069   0.813
  225MeOH    O2  674   2.100   0.966   0.906
  225MeOH    H3  675   2.189   1.001   0.937
  226MeOH   Me1  676   0.431   0.878   2.221
  226MeOH    O2  677   0.527   0.779   2.287
  226MeOH    H3  678   0.593   0.831   2.342
  227MeOH   Me1  679   2.419   0.797   2.755
  227MeOH    O2  680   2.346   0.822   2.887
  227MeOH    H3  681   2.295   0.739   2.911
  228MeOH   Me1  682   1.161   0.753   1.473
  228MeOH    O2  683   1.102   0.836   1.359
  228MeOH    H3  684   1.120   0.789   1.273
  229MeOH   Me1  685   2.309   1.095   1.869
  229MeOH    O2  686   2.201   1.166   1.951
  229MeOH    H3  687   2.212   1.265   1.939
  230MeOH   Me1  688   0.245   1.609   1.525
  230MeOH    O2  689   0.212   1.477   1.597
  230MeOH    H3  690   0.117   1.454   1.578
  231MeOH   Me1  691   2.607   2.246   0.944
  231MeOH    O2  692   2.618   2.351   0.833
  231MeOH    H3  693   2.548   2.421   0.849
  232MeOH   Me1  694   2.336   1.341   2.250
  232MeOH    O2  695   2.372   1.459   2.159
  232MeOH    H3  696   2.320   1.451   2.074
  233MeOH   Me1  697   2.946   0.876   1.575
  233MeOH    O2  698   0.053   0.927   1.486
  233MeOH    H3  699   0.130   0.954   1.544
  234MeOH   Me1  700   2.819   2.294   0.545
  234MeOH    O2  701   2.847   2.349   0.685
  234MeOH    H3  702   2.762   2.345   0.739
  235MeOH   Me1  703   0.454   0.603   0.177
  235MeOH    O2  704   0.488   0.568   0.322
  235MeOH    H3  705   0.554   0.493   0.322
  236MeOH   Me1  706   1.129   1.553   1.295
  236MeOH    O2  707   1.170   1.528   1.149
  236MeOH    H3  708   1.269   1.540   1.142
  237MeOH   Me1  709   1.921   0.069   1.087
  237MeOH    O2  710   2.047   0.063   1.001
  237MeOH    H3  711   2.078   0.156   0.983
  238MeOH   Me1  712   2.248   0.022   0.311
  238MeOH    O2  713   2.173   0.133   0.385
  238MeOH    H3  714   2.240   0.196   0.425
  239MeOH   Me1  715   1.976   0.640   0.995
  239MeOH    O2  716   1.954   0.736   0.878
  239MeOH    H3  717   2.008   0.818   0.894
  240MeOH   Me1  718   1.954   0.231   2.850
  240MeOH    O2  719   2.042   0.180   2.735
  240MeOH    H3  720   2.052   0.254   2.667
  241MeOH   Me1  721   1.641   2.301   1.351
  241MeOH    O2  722   1.693   2.243   1.220
  241MeOH    H3  723   1.780   2.286   1.198
  242MeOH   Me1  724   0.700   0.867   0.957
  242MeOH    O2  725   0.686   0.944   1.088
  242MeOH    H3  726   0.769   0.997   1.103
  243MeOH   Me1  727   2.115   1.912   1.664
  243MeOH    O2  728   2.181   1.779   1.697
  243MeOH    H3  729   2.266   1.797   1.746
  244MeOH   Me1  730   0.487   1.268   1.522
  244MeOH    O2  731   0.373   1.258   1.623
  244MeOH    H3  732   0.318   1.342   1.616
  245MeOH   Me1  733   2.002   2.213   1.458
  245MeOH    O2  734   1.916   2.165   1.574
  245MeOH    H3  735   1.872   2.244   1.616
  246MeOH   Me1  736   0.076   0.670   2.200
  246MeOH    O2  737   0.128   0.734   2.072
  246MeOH    H3  738   0.120   0.834   2.081
  247MeOH   Me1  739   1.488   1.709   2.024
  247MeOH    O2  740   1.544   1.776   1.899
  247MeOH    H3  741   1.562   1.705   1.830
  248MeOH   Me1  742   0.576   0.135   1.079
  248MeOH    O2  743   0.612   0.143   1.227
  248MeOH    H3  744   0.707   0.173   1.236
  249MeOH   Me1  745   2.200   1.214   1.474
  249MeOH    O2  746   2.134   1.088   1.529
  249MeOH    H3  747   2.054   1.115   1.583
  250MeOH   Me1  748   1.037   0.215   2.301
  250MeOH    O2  749   1.079   0.180   2.158
  250MeOH    H3  750   1.100   0.082   2.155
  251MeOH   Me1  751   1.329   0.184   2.593
  251MeOH    O2  752   1.259   0.116   2.711
  251MeOH    H3  753   1.258   0.017   2.694
  252MeOH   Me1  754   1.035   1.106   2.488
  252MeOH    O2  755   0.915   1.096   2.393
  252MeOH    H3  756   0.918   1.173   2.329
  253MeOH   Me1  757   1.614   2.121   1.813
  253MeOH    O2  758   1.521   2.011   1.762
  253MeOH    H3  759   1.527   1.933   1.825
  254MeOH   Me1  760   0.947   1.468   0.624
  254MeOH    O2  761   1.003   1.330   0.587
  254MeOH    H3  762   1.028   1.331   0.490
  255MeOH   Me1  763   2.333   2.888   2.121
  255MeOH    O2  764   2.234   2.787   2.179
  255MeOH    H3  765   2.141   2.815   2.154
  256MeOH   Me1  766   2.877   0.303   2.260
  256MeOH    O2  767   2.857   0.423   2.352
  256MeOH    H3  768   2.765   0.419   2.392
  257MeOH   Me1  769   1.647   0.414   1.796
  257MeOH    O2  770   1.569   0.521   1.872
  257MeOH    H3  771   1.588   0.511   1.970
  258MeOH   Me1  772   0.095   1.503   2.756
  258MeOH    O2  773   0.003   1.561   2.863
  258MeOH    H3  774   2.943   1.491   2.890
  259MeOH   Me1  775   0.120   1.173   2.402
  259MeOH    O2  776   0.251   1.212   2.473
  259MeOH    H3  777   0.268   1.146   2.546
  260MeOH   Me1  778   1.582   0.843   2.113
  260MeOH    O2  779   1.555   0.989   2.074
  260MeOH    H3  780   1.456   1.001   2.062
  261MeOH   Me1  781   2.615   0.887   1.815
  261MeOH    O2  782   2.617   0.930   1.962
  261MeOH    H3  783   2.633   1.029   1.965
  262MeOH   Me1  784   1.089   2.227   2.438
  262MeOH    O2  785   0.939   2.207   2.410
  262MeOH    H3  786   0.890   2.288   2.442
  263MeOH   Me1  787   1.404   2.806   2.705
  263MeOH    O2  788   1.262   2.850   2.669
  263MeOH    H3  789   1.197   2.795   2.722
  264MeOH   Me1  790   2.262   0.259   1.703
  264MeOH    O2  791   2.373   0.229   1.603
  264MeOH    H3  792   2.429   0.311   1.592
  265MeOH   Me1  793   2.667   0.666   1.223
  265MeOH    O2  794   2.738   0.760   1.321
  265MeOH    H3  795   2.833   0.771   1.291
  266MeOH   Me1  796   0.321   2.035   2.122
  266MeOH    O2  797   0.460   1.971   2.111
  266MeOH    H3  798   0.460   1.886   2.162
  267MeOH   Me1  799   0.676   1.349   0.916
  267MeOH    O2  800   0.698   1.454   1.025
  267MeOH    H3  801   0.788   1.495   1.012
  268MeOH   Me1  802   0.316   2.952   2.404
  268MeOH    O2  803   0.313   0.074   2.488
  268MeOH    H3  804   0.339   0.151   2.430
  269MeOH   Me1  805   2.990   2.513   1.429
  269MeOH    O2  806   2.890   2.617   1.480
  269MeOH    H3  807   2.912   2.640   1.575
  270MeOH   Me1  808   1.677   1.080   0.590
  270MeOH    O2  809   1.664   1.107   0.440
  270MeOH    H3  810   1.756   1.114   0.401
  271MeOH   Me1  811   1.585   1.712   0.451
  271MeOH    O2  812   1.607   1.605   0.343
  271MeOH    H3  813   1.562   1.634   0.259
  272MeOH   Me1  814   0.698   2.364   1.392
  272MeOH    O2  815   0.813   2.370   1.292
  272MeOH    H3  816   0.865   2.285   1.297
  273MeOH   Me1  817   1.913   1.013   2.346
  273MeOH    O2  818   2.042   0.956   2.288
  273MeOH    H3  819   2.034   0.954   2.189
  274MeOH   Me1  820   1.917   2.261   0.370
  274MeOH    O2  821   2.054   2.281   0.437
  274MeOH    H3  822   2.092   2.368   0.407
  275MeOH   Me1  823   1.929   1.791   0.271
  275MeOH    O2  824   2.043   1.692   0.297
  275MeOH    H3  825   2.110   1.736   0.356
  276MeOH   Me1  826   1.643   1.410   0.816
  276MeOH    O2  827   1.763   1.317   0.832
  276MeOH    H3  828   1.732   1.232   0.874
  277MeOH   Me1  829   1.773   1.923   2.611
  277MeOH    O2  830   1.771   2.074   2.585
  277MeOH    H3  831   1.862   2.111   2.607
  278MeOH   Me1  832   1.800   0.573   2.888
  278MeOH    O2  833   1.940   0.627   2.861
  278MeOH    H3  834   1.933   0.705   2.798
  279MeOH   Me1  835   1.265   0.379   1.937
  279MeOH    O2  836   1.149   0.410   2.031
  279MeOH    H3  837   1.121   0.325   2.076
  280MeOH   Me1  838   2.594   1.539   2.688
  280MeOH    O2  839   2.573   1.442   2.805
  280MeOH    H3  840   2.477   1.448   2.833
  281MeOH   Me1  841   0.480   0.276   2.934
  281MeOH    O2  842   0.519   0.128   2.948
  281MeOH    H3  843   0.469   0.076   2.878
  282MeOH   Me1  844   0.899   1.494   1.742
  282MeOH    O2  845   1.004   1.477   1.632
  282MeOH    H3  846   0.969   1.412   1.564
  283MeOH   Me1  847   0.706   1.635   0.101
  283MeOH    O2  848   0.605   1.522   0.085
  283MeOH    H3  849   0.623   1.453   0.154
  284MeOH   Me1  850   1.342   1.228   1.024
  284MeOH    O2  851   1.390   1.144   0.906
  284MeOH    H3  852   1.330   1.161   0.828
  285MeOH   Me1  853   2.963   2.963   1.471
  285MeOH    O2  854   2.879   2.875   1.378
  285MeOH    H3  855   2.883   2.781   1.411
  286MeOH   Me1  856   2.899   0.595   2.646
  286MeOH    O2  857   2.999   0.571   2.533
  286MeOH    H3  858   2.953   0.519   2.461
  287MeOH   Me1  859   0.808   1.337   1.339
  287MeOH    O2  860   0.910   1.301   1.447
  287MeOH    H3  861   0.966   1.225   1.414
  288MeOH   Me1  862   1.175   2.922   1.017
  288MeOH    O2  863   1.273   2.805   1.036
  288MeOH    H3  864   1.221   2.719   1.032
  289MeOH   Me1  865   2.873   0.443   0.593
  289MeOH    O2  866   2.799   0.310   0.604
  289MeOH    H3  867   2.865   0.238   0.625
  290MeOH   Me1  868   1.168   0.771   0.990
  290MeOH    O2  869   1.177   0.710   1.130
  290MeOH    H3  870   1.272   0.685   1.148
  291MeOH   Me1  871   0.964   1.646   2.320
  291MeOH    O2  872   0.972   1.574   2.185
  291MeOH    H3  873   0.934   1.633   2.114
  292MeOH   Me1  874   0.514   1.999   1.110
  292MeOH    O2  875   0.432   1.890   1.180
  292MeOH    H3  876   0.481   1.863   1.263
  293MeOH   Me1  877   0.186   0.119   1.159
  293MeOH    O2  878   0.231   0.101   1.013
  293MeOH    H3  879   0.259   0.191   0.978
  294MeOH   Me1  880   0.484   2.309   2.496
  294MeOH    O2  881   0.392   2.250   2.389
  294MeOH    H3  882   0.413   2.293   2.302
  295MeOH   Me1  883   1.249   1.091   2.889
  295MeOH    O2  884   1.292   1.073   2.743
  295MeOH    H3  885   1.306   1.163   2.702
  296MeOH   Me1  886   0.431   0.304   0.578
  296MeOH    O2  887   0.353   0.216   0.676
  296MeOH    H3  888   0.342   0.266   0.762
  297MeOH   Me1  889   2.520   0.533   2.490
  297MeOH    O2  890   2.613   0.413   2.471
  297MeOH    H3  891   2.569   0.331   2.509
  298MeOH   Me1  892   1.197   0.703   2.253
  298MeOH    O2  893   1.141   0.561   2.266
  298MeOH    H3  894   1.149   0.516   2.178
  299MeOH   Me1  895   1.319   0.761   1.818
  299MeOH    O2  896   1.410   0.681   1.724
  299MeOH    H3  897   1.469   0.622   1.779
  300MeOH   Me1  898   0.296   1.730   3.001
  300MeOH    O2  899   0.162   1.780   2.947
  300MeOH    H3  900   0.105   1.700   2.925
  301MeOH   Me1  901   0.238   2.978   2.826
  301MeOH    O2  902   0.370   3.003   2.754
  301MeOH    H3  903   0.350   0.027   2.660
  302MeOH   Me1  904   0.324   2.302   0.000
  302MeOH    O2  905   0.255   2.286   2.870
  302MeOH    H3  906   0.215   2.195   2.866
  303MeOH   Me1  907   0.419   2.882   2.012
  303MeOH    O2  908   0.371   2.914   1.870
  303MeOH    H3  909   0.300   2.984   1.876
  304MeOH   Me1  910   2.663   0.378   0.265
  304MeOH    O2  911   2.770   0.403   0.158
  304MeOH    H3  912   2.825   0.482   0.185
  305MeOH   Me1  913   1.311   2.920   1.484
  305MeOH    O2  914   1.220   0.036   1.498
  305MeOH    H3  915   1.141   0.010   1.554
  306MeOH   Me1  916   2.052   0.059   2.406
  306MeOH    O2  917   2.082   0.085   2.258
  306MeOH    H3  918   2.042   0.012   2.204
  307MeOH   Me1  919   1.241   0.373   1.399
  307MeOH    O2  920   1.277   0.242   1.329
  307MeOH    H3  921   1.258   0.166   1.391
  308MeOH   Me1  922   2.283   1.610   2.923
  308MeOH    O2  923   2.312   1.466   2.881
  308MeOH    H3  924   2.236   1.408   2.909
  309MeOH   Me1  925   0.789   2.918   2.171
  309MeOH    O2  926   0.717   2.783   2.171
  309MeOH    H3  927   0.741   2.734   2.087
  310MeOH   Me1  928   1.483   2.575   1.629
  310MeOH    O2  929   1.634   2.590   1.606
  310MeOH    H3  930   1.650   2.677   1.559
  311MeOH   Me1  931   1.008   2.884   1.768
  311MeOH    O2  932   0.991   2.964   1.639
  311MeOH    H3  933   0.943   2.907   1.572
  312MeOH   Me1  934   0.646   1.694   1.415
  312MeOH    O2  935   0.557   1.818   1.411
  312MeOH    H3  936   0.536   1.845   1.505
  313MeOH   Me1  937   0.838   2.200   0.961
  313MeOH    O2  938   0.818   2.071   0.881
  313MeOH    H3  939   0.729   2.076   0.836
  314MeOH   Me1  940   2.222   0.468   0.017
  314MeOH    O2  941   2.200   0.596   2.941
  314MeOH    H3  942   2.103   0.601   2.917
  315MeOH   Me1  943   0.356   0.897   2.601
  315MeOH    O2  944   0.303   1.026   2.663
  315MeOH    H3  945   0.316   1.021   2.763
  316MeOH   Me1  946   0.603   2.854   0.797
  316MeOH    O2  947   0.698   2.749   0.740
  316MeOH    H3  948   0.666   2.722   0.649
  317MeOH   Me1  949   1.364   2.603   2.368
  317MeOH    O2  950   1.322   2.465   2.315
  317MeOH    H3  951   1.376   2.444   2.234
  318MeOH   Me1  952   2.355   2.962   1.124
  318MeOH    O2  953   2.288   2.935   0.989
  318MeOH    H3  954   2.196   2.976   0.991
  319MeOH   Me1  955   1.241   1.935   0.687
  319MeOH    O2  956   1.370   1.857   0.715
  319MeOH    H3  957   1.447   1.913   0.685
  320MeOH   Me1  958   1.490   2.821   0.314
  320MeOH    O2  959   1.403   2.881   0.424
  320MeOH    H3  960   1.399   2.816   0.500
  321MeOH   Me1  961   2.761   2.667   0.786
  321MeOH    O2  962   2.691   2.769   0.695
  321MeOH    H3  963   2.601   2.788   0.734
  322MeOH   Me1  964   1.482   2.469   0.906
  322MeOH    O2  965   1.555   2.561   0.809
  322MeOH    H3  966   1.614   2.622   0.862
  323MeOH   Me1  967   2.047   1.118   0.400
  323MeOH    O2  968   1.912   1.094   0.333
  323MeOH    H3  969   1.915   1.004   0.288
  324MeOH   Me1  970   0.192   0.444   0.896
  324MeOH    O2  971   0.311   0.351   0.917
  324MeOH    H3  972   0.380   0.399   0.971
  325MeOH   Me1  973   2.031   2.464   2.214
  325MeOH    O2  974   1.965   2.355   2.129
  325MeOH    H3  975   2.037   2.303   2.083
  326MeOH   Me1  976   1.235   1.107   2.165
  326MeOH    O2  977   1.289   1.035   2.041
  326MeOH    H3  978   1.218   1.034   1.971
  327MeOH   Me1  979   2.554   1.523   0.721
  327MeOH    O2  980   2.566   1.654   0.799
  327MeOH    H3  981   2.482   1.668   0.851
  328MeOH   Me1  982   1.811   2.814   0.858
  328MeOH    O2  983   1.713   2.735   0.944
  328MeOH    H3  984   1.652   2.799   0.990
  329MeOH   Me1  985   0.749   1.804   2.051
  329MeOH    O2  986   0.870   1.733   1.989
  329MeOH    H3  987   0.897   1.783   1.907
  330MeOH   Me1  988   1.835   2.962   0.223
  330MeOH    O2  989   1.859   2.869   0.342
  330MeOH    H3  990   1.893   2.923   0.419
  331MeOH   Me1  991   1.112   2.456   1.104
  331MeOH    O2  992   1.112   2.583   1.020
  331MeOH    H3  993   1.019   2.601   0.989
  332MeOH   Me1  994   0.605   2.585   0.073
  332MeOH    O2  995   0.715   2.550   2.979
  332MeOH    H3  996   0.770   2.476   0.012
  333MeOH   Me1  997   0.325   2.617   2.773
  333MeOH    O2  998   0.215   2.518   2.735
  333MeOH    H3  999   0.236   2.429   2.776
  334MeOH   Me1 1000   0.982   0.991   0.186
  334MeOH    O2 1001   1.070   0.886   0.119
  334MeOH    H3 1002   1.145   0.863   0.181
  335MeOH   Me1 1003   0.567   2.534   0.487
  335MeOH    O2 1004   0.606   2.682   0.486
  335MeOH    H3 1005   0.545   2.731   0.423
  336MeOH   Me1 1006   0.351   2.441   1.216
  336MeOH    O2 1007   0.319   2.393   1.358
  336MeOH    H3 1008   0.364   2.455   1.422
  337MeOH   Me1 1009   2.067   0.597   1.553
  337MeOH    O2 1010   1.976   0.491   1.615
  337MeOH    H3 1011   1.983   0.498   1.715
  338MeOH   Me1 1012   1.612   1.312   1.955
  338MeOH    O2 1013   1.679   1.232   2.067
  338MeOH    H3 1014   1.638   1.140   2.070
  339MeOH   Me1 1015   1.416   1.354   0.212
  339MeOH    O2 1016   1.323   1.233   0.218
  339MeOH    H3 1017   1.379   1.150   0.226
  340MeOH   Me1 1018   1.486   0.215   0.405
  340MeOH    O2 1019   1.354   0.143   0.377
  340MeOH    H3 1020   1.367   0.045   0.394
  341MeOH   Me1 1021   0.673   1.982   2.400
  341MeOH    O2 1022   0.822   1.962   2.372
  341MeOH    H3 1023   0.868   2.050   2.384
  342MeOH   Me1 1024   0.296   1.949   2.536
  342MeOH    O2 1025   0.335   1.805   2.501
  342MeOH    H3 1026   0.389   1.768   2.576
  343MeOH   Me1 1027   2.666   1.206   2.139
  343MeOH    O2 1028   2.661   1.203   1.987
  343MeOH    H3 1029   2.665   1.297   1.953
  344MeOH   Me1 1030   0.092   1.817   1.151
  344MeOH    O2 1031   0.211   1.784   1.060
  344MeOH    H3 1032   0.293   1.826   1.099
  345MeOH   Me1 1033   2.693   2.373   1.768
  345MeOH    O2 1034   2.543   2.351   1.790
  345MeOH    H3 1035   2.496   2.370   1.704
  346MeOH   Me1 1036   2.571   2.216   0.029
  346MeOH    O2 1037   2.459   2.211   2.931
  346MeOH    H3 1038   2.417   2.302   2.925
  347MeOH   Me1 1039   0.882   1.254   2.071
  347MeOH    O2 1040   0.919   1.302   2.212
  347MeOH    H3 1041   0.936   1.400   2.208
  348MeOH   Me1 1042   1.855   2.812   2.140
  348MeOH    O2 1043   1.986   2.882   2.103
  348MeOH    H3 1044   1.977   2.919   2.010
  349MeOH   Me1 1045   2.362   2.854   0.658
  349MeOH    O2 1046   2.431   2.818   0.790
  349MeOH    H3 1047   2.382   2.864   0.865
  350MeOH   Me1 1048   2.940   2.402   2.930
  350MeOH    O2 1049   2.952   2.494   2.809
  350MeOH    H3 1050   0.043   2.505   2.786
  351MeOH   Me1 1051   0.980   0.593   1.775
  351MeOH    O2 1052   1.007   0.621   1.923
  351MeOH    H3 1053   1.056   0.543   1.962
  352MeOH   Me1 1054   2.499   0.596   1.566
  352MeOH    O2 1055   2.532   0.447   1.564
  352MeOH    H3 1056   2.623   0.435   1.525
  353MeOH   Me1 1057   0.514   1.707   0.871
  353MeOH    O2 1058   0.531   1.806   0.755
  353MeOH    H3 1059   0.549   1.754   0.672
  354MeOH   Me1 1060   2.724   2.912   1.066
  354MeOH    O2 1061   2.701   2.982   1.200
  354MeOH    H3 1062   2.767   2.945   1.266
  355MeOH   Me1 1063   0.069   2.337   1.763
  355MeOH    O2 1064   0.004   2.234   1.671
  355MeOH    H3 1065   0.069   2.211   1.598
  356MeOH   Me1 1066   0.122   0.455   1.337
  356MeOH    O2 1067   2.987   0.516   1.323
  356MeOH    H3 1068   2.996   0.611   1.293
  357MeOH   Me1 1069   2.317   2.258   1.237
  357MeOH    O2 1070   2.193   2.266   1.148
  357MeOH    H3 1071   2.215   2.224   1.059
  358MeOH   Me1 1072   2.752   0.817   0.488
  358MeOH    O2 1073   2.617   0.878   0.447
  358MeOH    H3 1074   2.625   0.914   0.355
  359MeOH   Me1 1075   2.406   2.504   2.091
  359MeOH    O2 1076   2.363   2.551   2.230
  359MeOH    H3 1077   2.317   2.639   2.220
  360MeOH   Me1 1078   2.295   2.502   0.894
  360MeOH    O2 1079   2.437   2.553   0.871
  360MeOH    H3 1080   2.432   2.649   0.843
  361MeOH   Me1 1081   1.103   2.578   2.881
  361MeOH    O2 1082   1.075   2.704   2.798
  361MeOH    H3 1083   0.977   2.723   2.802
  362MeOH   Me1 1084   1.072   0.767   2.792
  362MeOH    O2 1085   0.960   0.792   2.893
  362MeOH    H3 1086   1.000   0.825   2.978
  363MeOH   Me1 1087   2.311   1.770   0.568
  363MeOH    O2 1088   2.215   1.824   0.461
  363MeOH    H3 1089   2.234   1.922   0.448
  364MeOH   Me1 1090   0.028   1.517   0.924
  364MeOH    O2 1091   0.154   1.589   0.876
  364MeOH    H3 1092   0.175   1.663   0.940
  365MeOH   Me1 1093   1.574   0.951   0.144
  365MeOH    O2 1094   1.490   1.012   0.256
  365MeOH    H3 1095   1.552   1.046   0.328
  366MeOH   Me1 1096   2.385   2.163   0.395
  366MeOH    O2 1097   2.253   2.090   0.424
  366MeOH    H3 1098   2.180   2.158   0.429
  367MeOH   Me1 1099   2.697   2.647   0.103
  367MeOH    O2 1100   2.668   2.586   0.240
  367MeOH    H3 1101   2.719   2.638   0.309
  368MeOH   Me1 1102   0.258   2.054   1.447
  368MeOH    O2 1103   0.185   2.186   1.471
  368MeOH    H3 1104   0.235   2.259   1.423
  369MeOH   Me1 1105   0.434   0.315   1.470
  369MeOH    O2 1106   0.407   0.178   1.406
  369MeOH    H3 1107   0.479   0.161   1.338
  370MeOH   Me1 1108   1.994   2.439   2.892
  370MeOH    O2 1109   2.107   2.352   2.836
  370MeOH    H3 1110   2.194   2.391   2.865
  371MeOH   Me1 1111   2.546   0.173   0.806
  371MeOH    O2 1112   2.543   0.262   0.682
  371MeOH    H3 1113   2.637   0.285   0.657
  372MeOH   Me1 1114   2.225   1.850   1.268
  372MeOH    O2 1115   2.354   1.852   1.185
  372MeOH    H3 1116   2.424   1.901   1.237
  373MeOH   Me1 1117   0.355   2.623   1.645
  373MeOH    O2 1118   0.439   2.564   1.532
  373MeOH    H3 1119   0.501   2.634   1.499
  374MeOH   Me1 1120   2.525   2.032   1.481
  374MeOH    O2 1121   2.539   1.985   1.336
  374MeOH    H3 1122   2.624   2.022   1.298
  375MeOH   Me1 1123   1.650   1.065   2.754
  375MeOH    O2 1124   1.768   1.055   2.657
  375MeOH    H3 1125   1.778   1.143   2.611
  376MeOH   Me1 1126   0.087   0.824   1.137
  376MeOH    O2 1127   0.005   0.781   1.259
  376MeOH    H3 1128   0.031   0.838   1.337
  377MeOH   Me1 1129   0.927   2.841   0.476
  377MeOH    O2 1130   0.861   2.732   0.392
  377MeOH    H3 1131   0.769   2.715   0.428
  378MeOH   Me1 1132   2.743   1.792   2.947
  378MeOH    O2 1133   2.823   1.763   2.820
  378MeOH    H3 1134   2.893   1.694   2.841
  379MeOH   Me1 1135   2.363   0.156   2.635
  379MeOH    O2 1136   2.495   0.187   2.565
  379MeOH    H3 1137   2.536   0.101   2.535
  380MeOH   Me1 1138   1.203   2.811   2.087
  380MeOH    O2 1139   1.133   2.919   2.170
  380MeOH    H3 1140   1.129   2.888   2.265
  381MeOH   Me1 1141   2.073   0.890   2.658
  381MeOH    O2 1142   1.933   0.841   2.692
  381MeOH    H3 1143   1.868   0.916   2.678
  382MeOH   Me1 1144   0.757   2.603   1.052
  382MeOH    O2 1145   0.856   2.644   0.942
  382MeOH    H3 1146   0.804   2.682   0.866
  383MeOH   Me1 1147   0.408   2.930   0.239
  383MeOH    O2 1148   0.440   2.796   0.305
  383MeOH    H3 1149   0.380   2.726   0.265
  384MeOH   Me1 1150   2.772   2.007   1.786
  384MeOH    O2 1151   2.664   1.915   1.844
  384MeOH    H3 1152   2.691   1.889   1.936
  385MeOH   Me1 1153   2.313   2.516   1.553
  385MeOH    O2 1154   2.432   2.421   1.548
  385MeOH    H3 1155   2.504   2.463   1.492
  386MeOH   Me1 1156   0.611   0.941   0.335
  386MeOH    O2 1157   0.637   1.057   0.238
  386MeOH    H3 1158   0.628   1.023   0.144
  387MeOH   Me1 1159   0.889   0.998   0.636
  387MeOH    O2 1160   0.823   1.134   0.661
  387MeOH    H3 1161   0.888   1.206   0.636
  388MeOH   Me1 1162   0.276   0.889   3.000
  388MeOH    O2 1163   0.351   1.004   2.930
  388MeOH    H3 1164   0.447   0.999   2.956
  389MeOH   Me1 1165   1.745   2.137   2.941
  389MeOH    O2 1166   1.733   2.006   0.013
  389MeOH    H3 1167   1.793   1.938   2.976
  390MeOH   Me1 1168   1.197   2.151   1.704
  390MeOH    O2 1169   1.315   2.115   1.613
  390MeOH    H3 1170   1.390   2.082   1.670
  391MeOH   Me1 1171   2.860   0.734   0.848
  391MeOH    O2 1172   2.996   0.721   0.780
  391MeOH    H3 1173   0.035   0.811   0.781
  392MeOH   Me1 1174   2.441   1.530   1.284
  392MeOH    O2 1175   2.302   1.467   1.296
  392MeOH    H3 1176   2.252   1.515   1.367
  393MeOH   Me1 1177   1.934   0.617   1.961
  393MeOH    O2 1178   2.003   0.501   1.889
  393MeOH    H3 1179   2.098   0.497   1.921
  394MeOH   Me1 1180   1.054   0.548   0.663
  394MeOH    O2 1181   0.985   0.681   0.695
  394MeOH    H3 1182   0.886   0.667   0.690
  395MeOH   Me1 1183   0.884   1.999   1.286
  395MeOH    O2 1184   0.951   2.135   1.308
  395MeOH    H3 1185   1.048   2.120   1.326
  396MeOH   Me1 1186   0.472   2.262   1.706
  396MeOH    O2 1187   0.554   2.144   1.758
  396MeOH    H3 1188   0.582   2.164   1.853
  397MeOH   Me1 1189   2.899   2.993   0.028
  397MeOH    O2 1190   0.008   2.918   0.095
  397MeOH    H3 1191   0.038   2.969   0.175
  398MeOH   Me1 1192   0.799   0.386   0.397
  398MeOH    O2 1193   0.667   0.365   0.322
  398MeOH    H3 1194   0.676   0.283   0.265
  399MeOH   Me1 1195   1.541   1.003   1.297
  399MeOH    O2 1196   1.549   1.127   1.386
  399MeOH    H3 1197   1.558   1.207   1.328
  400MeOH   Me1 1198   1.363   0.581   0.002
  400MeOH    O2 1199   1.412   0.448   2.952
  400MeOH    H3 1200   1.336   0.383   2.954
   3.00557   3.00557   3.00557
