;----------------------------TITLE -----------------------------------------------------------------------------------------
;   Cytosine
[ moleculetype ]
; Name   nrexcl
F213     3
[ atoms ]
;  nr  type  resnr  resid  atom  cgnr  charge    mass
    1  HS14    1    F213     H5    1    0.402   1.0080
    2  NOpt    1    F213     N2    2   -0.663  14.0067
    3  CAro    1    F213     C3    3    0.312  12.0110
    4  HCAr    1    F213     H4    4    0.160   1.0080
    5  CAro    1    F213     C2    5   -0.779  12.0110
    6  HCAr    1    F213     H3    6    0.271   1.0080
    7  CAro    1    F213     C1    7    1.131  12.0110
    8  NPri    1    F213     N1    8   -1.108  14.0067
    9  HS14    1    F213     H1    9    0.487   1.0080
   10  HS14    1    F213     H2   10    0.487   1.0080
   11     N    1    F213     N3   11   -0.970  14.0067
   12  CAro    1    F213     C4   12    1.034  12.0110
   13  OOpt    1    F213     O1   13   -0.764  15.9994
; total charge of the molecule:  -0.000
[ bonds ]
;  ai   aj  funct   c0         c1
    1    2    2   0.1010   2.1076e+07
    2    3    2   0.1360   1.0200e+07
    2   12    2   0.1400   8.5400e+06
    3    4    2   0.1090   1.2300e+07
    3    5    2   0.1350   1.0300e+07
    5    6    2   0.1090   1.2300e+07
    5    7    2   0.1435   6.1000e+06
    7    8    2   0.1340   1.0500e+07
    7   11    2   0.1330   1.0600e+07
    8    9    2   0.1000   1.8700e+07
    8   10    2   0.1000   1.8700e+07
   11   12    2   0.1360   1.0200e+07
   12   13    2   0.1230   1.6600e+07
[ pairs ]
;  ai   aj  funct  ;  all 1-4 pairs but the ones excluded in GROMOS itp
    1    5    1
    1   11    1
    1   13    1
    2    6    1
    3    8    1
    3   13    1
    4    7    1
    4   12    1
    5    9    1
    5   10    1
    6    8    1
    6   11    1
    7   13    1
    8   12    1
    9   11    1
   10   11    1
[ angles ]
;  ai   aj   ak  funct   angle     fc
    1    2    3    2    120.00   390.00
    1    2   12    2    116.00   465.00
    3    2   12    2    122.00   700.00
    2    3    4    2    117.00   635.00
    2    3    5    2    120.00   560.00
    4    3    5    2    126.00   575.00
    3    5    6    2    120.00   505.00
    3    5    7    2    114.00  1559.41
    6    5    7    2    120.00   505.00
    5    7    8    2    120.00   560.00
    5    7   11    2    126.00   640.00
    8    7   11    2    120.00   560.00
    7    8    9    2    123.00   415.00
    7    8   10    2    123.00   415.00
    9    8   10    2    120.00   445.00
    7   11   12    2    120.00   560.00
    2   12   11    2    120.00   560.00
    2   12   13    2    117.20   636.00
   11   12   13    2    124.00   730.00
[ dihedrals ]
; GROMOS improper dihedrals
;  ai   aj   ak   al  funct   angle     fc
    8    7    9   10    2      0.00   167.36
    2    1    3   12    2      0.00   167.36
    7    5    8   11    2      0.00   167.36
    5    3    6    7    2      0.00   167.36
    3    2    4    5    2      0.00   167.36
   12    2   11   13    2      0.00   167.36
[ dihedrals ]
;  ai   aj   ak   al  funct    ph0      cp     mult
    5    3    2   12    1    180.00    50.00    1
    2    3    5    7    1    180.00    50.00    1
    3    2   12   11    1    180.00    50.00    1
    3    5    7   11    1    180.00    50.00    1
    5    7   11   12    1    180.00    50.00    1
    7   11   12    2    1    180.00    50.00    1
   11    7    8    9    1    180.00    33.50    2
[ exclusions ]
;  ai   aj  funct  ;  GROMOS 1-4 exclusions
    1    4
    2    7
    3   11
    4    6
    5   12
