DSPC BILAYER SELF-ASSEMBLY
 2304
    1DSPC   NC3    1   5.194   3.659   4.858
    1DSPC   PO4    2   4.854   3.463   4.929
    1DSPC   GL1    3   4.850   3.176   5.252
    1DSPC   GL2    4   4.971   2.974   5.037
    1DSPC   C1A    5   4.572   3.083   5.597
    1DSPC   C2A    6   4.207   3.110   5.978
    1DSPC   C3A    7   3.722   3.148   6.031
    1DSPC   C4A    8   3.225   3.158   5.992
    1DSPC   C1B    9   4.634   2.707   5.107
    1DSPC   C2B   10   4.193   2.534   5.314
    1DSPC   C3B   11   3.755   2.407   5.495
    1DSPC   C4B   12   3.302   2.285   5.669
    2DSPC   NC3   13   6.569   5.729   1.240
    2DSPC   PO4   14   6.315   5.976   1.072
    2DSPC   GL1   15   6.109   6.180   0.756
    2DSPC   GL2   16   6.038   6.394   0.980
    2DSPC   C1A   17   5.683   6.168   0.674
    2DSPC   C2A   18   5.210   6.333   0.757
    2DSPC   C3A   19   4.766   6.526   0.778
    2DSPC   C4A   20   4.325   6.771   0.801
    2DSPC   C1B   21   5.639   6.604   0.952
    2DSPC   C2B   22   5.202   6.830   0.840
    2DSPC   C3B   23   5.074   6.698   0.396
    2DSPC   C4B   24   4.897   6.509   7.467
    3DSPC   NC3   25   2.573   5.991   2.405
    3DSPC   PO4   26   2.793   6.177   2.679
    3DSPC   GL1   27   2.371   6.247   2.756
    3DSPC   GL2   28   2.345   6.144   2.999
    3DSPC   C1A   29   1.967   6.215   2.587
    3DSPC   C2A   30   1.505   5.998   2.498
    3DSPC   C3A   31   1.126   5.736   2.318
    3DSPC   C4A   32   0.774   5.573   1.987
    3DSPC   C1B   33   1.924   6.204   3.095
    3DSPC   C2B   34   1.479   6.361   2.885
    3DSPC   C3B   35   1.070   6.176   2.710
    3DSPC   C4B   36   0.700   6.000   2.437
    4DSPC   NC3   37   3.970   3.648   0.234
    4DSPC   PO4   38   3.942   3.337   0.481
    4DSPC   GL1   39   3.756   3.155   0.143
    4DSPC   GL2   40   3.528   3.088   0.339
    4DSPC   C1A   41   3.668   2.758   7.471
    4DSPC   C2A   42   3.724   2.270   0.148
    4DSPC   C3A   43   3.912   1.877   0.367
    4DSPC   C4A   44   4.168   1.505   0.588
    4DSPC   C1B   45   3.447   2.646   0.417
    4DSPC   C2B   46   3.505   2.154   0.597
    4DSPC   C3B   47   3.808   1.878   0.866
    4DSPC   C4B   48   4.137   1.593   1.109
    5DSPC   NC3   49   0.894   0.012   5.380
    5DSPC   PO4   50   0.882   0.414   5.452
    5DSPC   GL1   51   1.031   0.809   5.610
    5DSPC   GL2   52   0.734   0.886   5.547
    5DSPC   C1A   53   1.106   1.246   5.601
    5DSPC   C2A   54   0.952   1.726   5.737
    5DSPC   C3A   55   0.715   2.120   5.929
    5DSPC   C4A   56   0.389   2.475   6.082
    5DSPC   C1B   57   0.600   1.321   5.574
    5DSPC   C2B   58   0.499   1.831   5.522
    5DSPC   C3B   59   0.322   2.265   5.615
    5DSPC   C4B   60   7.489   2.615   5.697
    6DSPC   NC3   61   4.895   1.496   4.144
    6DSPC   PO4   62   4.504   1.437   4.074
    6DSPC   GL1   63   4.586   1.055   4.199
    6DSPC   GL2   64   4.747   1.161   4.445
    6DSPC   C1A   65   4.309   0.805   4.419
    6DSPC   C2A   66   3.902   0.519   4.545
    6DSPC   C3A   67   3.490   0.276   4.637
    6DSPC   C4A   68   3.187   7.434   4.846
    6DSPC   C1B   69   4.402   1.192   4.724
    6DSPC   C2B   70   3.949   0.977   4.785
    6DSPC   C3B   71   3.579   0.698   4.924
    6DSPC   C4B   72   3.212   0.397   5.085
    7DSPC   NC3   73   2.771   2.471   2.557
    7DSPC   PO4   74   2.494   2.597   2.822
    7DSPC   GL1   75   2.320   2.595   3.264
    7DSPC   GL2   76   2.107   2.736   3.123
    7DSPC   C1A   77   2.347   2.856   3.651
    7DSPC   C2A   78   2.323   3.264   3.987
    7DSPC   C3A   79   2.395   3.663   4.289
    7DSPC   C4A   80   2.471   4.021   4.642
    7DSPC   C1B   81   2.243   3.133   3.230
    7DSPC   C2B   82   2.289   3.543   3.529
    7DSPC   C3B   83   2.068   3.702   3.924
    7DSPC   C4B   84   1.935   3.447   4.346
    8DSPC   NC3   85   3.871   4.289   1.994
    8DSPC   PO4   86   3.583   4.481   1.784
    8DSPC   GL1   87   3.230   4.267   1.657
    8DSPC   GL2   88   3.068   4.494   1.781
    8DSPC   C1A   89   2.981   4.144   1.295
    8DSPC   C2A   90   2.558   4.193   1.006
    8DSPC   C3A   91   2.090   4.192   0.913
    8DSPC   C4A   92   1.605   4.088   0.943
    8DSPC   C1B   93   2.686   4.471   1.549
    8DSPC   C2B   94   2.247   4.224   1.432
    8DSPC   C3B   95   1.772   4.238   1.393
    8DSPC   C4B   96   1.289   4.171   1.419
    9DSPC   NC3   97   0.357   0.630   4.654
    9DSPC   PO4   98   0.433   0.235   4.623
    9DSPC   GL1   99   0.824   0.138   4.440
    9DSPC   GL2  100   0.825   7.348   4.442
    9DSPC   C1A  101   1.194   0.076   4.201
    9DSPC   C2A  102   1.674   7.366   4.238
    9DSPC   C3A  103   2.069   7.103   4.367
    9DSPC   C4A  104   2.282   6.674   4.531
    9DSPC   C1B  105   1.249   7.139   4.460
    9DSPC   C2B  106   1.702   7.002   4.695
    9DSPC   C3B  107   2.086   6.837   4.970
    9DSPC   C4B  108   2.481   6.846   5.284
   10DSPC   NC3  109   4.429   2.715   0.070
   10DSPC   PO4  110   4.703   2.928   0.271
   10DSPC   GL1  111   5.064   2.748   0.242
   10DSPC   GL2  112   5.131   2.641   0.498
   10DSPC   C1A  113   5.407   2.802   7.478
   10DSPC   C2A  114   5.887   2.975   7.479
   10DSPC   C3A  115   6.295   3.208   0.099
   10DSPC   C4A  116   6.743   3.094   7.442
   10DSPC   C1B  117   5.586   2.674   0.452
   10DSPC   C2B  118   6.103   2.763   0.401
   10DSPC   C3B  119   6.581   2.874   0.384
   10DSPC   C4B  120   7.067   2.977   0.312
   11DSPC   NC3  121   5.373   5.286   4.039
   11DSPC   PO4  122   5.049   5.185   3.836
   11DSPC   GL1  123   4.742   4.932   3.677
   11DSPC   GL2  124   4.733   4.824   3.960
   11DSPC   C1A  125   4.338   5.073   3.527
   11DSPC   C2A  126   3.902   5.105   3.259
   11DSPC   C3A  127   3.533   5.057   2.962
   11DSPC   C4A  128   3.173   4.968   2.640
   11DSPC   C1B  129   4.317   4.774   3.954
   11DSPC   C2B  130   3.863   4.871   3.721
   11DSPC   C3B  131   3.441   5.004   3.509
   11DSPC   C4B  132   2.959   5.151   3.544
   12DSPC   NC3  133   4.756   4.925   3.209
   12DSPC   PO4  134   5.119   5.050   3.342
   12DSPC   GL1  135   5.458   5.007   3.642
   12DSPC   GL2  136   5.499   4.735   3.488
   12DSPC   C1A  137   5.870   5.152   3.801
   12DSPC   C2A  138   6.374   5.315   3.896
   12DSPC   C3A  139   6.841   5.509   3.929
   12DSPC   C4A  140   7.267   5.769   3.810
   12DSPC   C1B  141   5.934   4.711   3.522
   12DSPC   C2B  142   6.402   4.825   3.712
   12DSPC   C3B  143   6.817   4.994   3.905
   12DSPC   C4B  144   7.251   5.192   4.073
   13DSPC   NC3  145   2.504   1.858   6.731
   13DSPC   PO4  146   2.753   2.162   6.828
   13DSPC   GL1  147   2.568   2.302   6.531
   13DSPC   GL2  148   2.765   2.446   6.372
   13DSPC   C1A  149   2.310   2.167   6.212
   13DSPC   C2A  150   2.161   2.326   5.745
   13DSPC   C3A  151   1.919   2.563   5.395
   13DSPC   C4A  152   1.690   2.942   5.169
   13DSPC   C1B  153   2.525   2.589   6.050
   13DSPC   C2B  154   2.319   2.813   5.656
   13DSPC   C3B  155   2.174   2.990   5.256
   13DSPC   C4B  156   1.992   3.145   4.812
   14DSPC   NC3  157   1.218   6.491   6.111
   14DSPC   PO4  158   1.596   6.568   6.198
   14DSPC   GL1  159   1.908   6.388   6.009
   14DSPC   GL2  160   1.793   6.517   5.740
   14DSPC   C1A  161   2.021   6.103   5.719
   14DSPC   C2A  162   2.041   6.011   5.216
   14DSPC   C3A  163   2.355   5.923   4.864
   14DSPC   C4A  164   2.781   5.852   4.625
   14DSPC   C1B  165   2.048   6.515   5.379
   14DSPC   C2B  166   2.417   6.417   5.036
   14DSPC   C3B  167   2.719   6.361   4.679
   14DSPC   C4B  168   3.073   6.225   4.366
   15DSPC   NC3  169   4.960   2.179   3.895
   15DSPC   PO4  170   4.574   2.266   3.831
   15DSPC   GL1  171   4.447   2.606   3.669
   15DSPC   GL2  172   4.687   2.743   3.770
   15DSPC   C1A  173   4.116   2.886   3.674
   15DSPC   C2A  174   3.943   3.377   3.602
   15DSPC   C3A  175   3.765   3.770   3.363
   15DSPC   C4A  176   3.452   4.137   3.202
   15DSPC   C1B  177   4.586   3.093   3.985
   15DSPC   C2B  178   4.333   3.530   3.897
   15DSPC   C3B  179   4.051   3.895   3.763
   15DSPC   C4B  180   3.629   4.164   3.691
   16DSPC   NC3  181   0.999   6.768   0.255
   16DSPC   PO4  182   1.022   6.999   7.418
   16DSPC   GL1  183   1.299   7.372   7.379
   16DSPC   GL2  184   1.543   7.189   7.369
   16DSPC   C1A  185   1.451   0.307   7.495
   16DSPC   C2A  186   1.779   0.728   0.054
   16DSPC   C3A  187   2.097   1.105   0.107
   16DSPC   C4A  188   2.255   1.523   0.340
   16DSPC   C1B  189   1.757   7.443   0.183
   16DSPC   C2B  190   1.925   0.390   0.391
   16DSPC   C3B  191   2.138   0.811   0.526
   16DSPC   C4B  192   2.297   1.234   0.748
   17DSPC   NC3  193   1.295   3.219   3.710
   17DSPC   PO4  194   1.682   3.138   3.648
   17DSPC   GL1  195   1.828   3.519   3.541
   17DSPC   GL2  196   1.570   3.672   3.551
   17DSPC   C1A  197   1.921   3.520   3.111
   17DSPC   C2A  198   1.657   3.446   2.674
   17DSPC   C3A  199   1.311   3.409   2.323
   17DSPC   C4A  200   0.941   3.433   1.985
   17DSPC   C1B  201   1.513   3.841   3.131
   17DSPC   C2B  202   1.307   3.857   2.640
   17DSPC   C3B  203   0.961   3.862   2.285
   17DSPC   C4B  204   0.634   3.826   1.894
   18DSPC   NC3  205   0.351   5.813   4.803
   18DSPC   PO4  206   0.124   5.609   4.540
   18DSPC   GL1  207   7.287   5.306   4.532
   18DSPC   GL2  208   7.406   5.182   4.778
   18DSPC   C1A  209   6.866   5.153   4.405
   18DSPC   C2A  210   6.413   4.929   4.235
   18DSPC   C3A  211   6.033   4.667   4.033
   18DSPC   C4A  212   5.657   4.395   3.818
   18DSPC   C1B  213   7.035   4.938   4.853
   18DSPC   C2B  214   6.599   4.726   4.670
   18DSPC   C3B  215   6.195   4.509   4.496
   18DSPC   C4B  216   5.744   4.348   4.359
   19DSPC   NC3  217   1.963   6.689   0.578
   19DSPC   PO4  218   2.225   6.625   0.286
   19DSPC   GL1  219   2.636   6.658   0.364
   19DSPC   GL2  220   2.694   6.805   0.098
   19DSPC   C1A  221   2.805   6.241   0.435
   19DSPC   C2A  222   2.950   5.745   0.481
   19DSPC   C3A  223   2.986   5.263   0.422
   19DSPC   C4A  224   3.120   4.864   0.193
   19DSPC   C1B  225   2.808   6.417   7.457
   19DSPC   C2B  226   2.797   5.924   0.018
   19DSPC   C3B  227   2.666   5.486   0.101
   19DSPC   C4B  228   2.571   5.006   0.102
   20DSPC   NC3  229   3.090   1.203   2.842
   20DSPC   PO4  230   2.813   1.153   3.116
   20DSPC   GL1  231   2.617   0.791   3.147
   20DSPC   GL2  232   2.386   0.880   3.302
   20DSPC   C1A  233   2.677   0.381   3.309
   20DSPC   C2A  234   2.567   7.402   3.461
   20DSPC   C3A  235   2.388   7.142   3.811
   20DSPC   C4A  236   2.179   6.755   4.032
   20DSPC   C1B  237   2.213   0.493   3.469
   20DSPC   C2B  238   2.079   7.498   3.577
   20DSPC   C3B  239   1.880   7.133   3.840
   20DSPC   C4B  240   1.642   6.863   4.190
   21DSPC   NC3  241   1.716   3.636   4.851
   21DSPC   PO4  242   1.586   3.773   5.200
   21DSPC   GL1  243   1.183   3.705   5.294
   21DSPC   GL2  244   1.213   3.784   5.577
   21DSPC   C1A  245   0.816   3.483   5.171
   21DSPC   C2A  246   0.396   3.169   5.093
   21DSPC   C3A  247   0.025   2.857   4.993
   21DSPC   C4A  248   7.169   2.524   4.859
   21DSPC   C1B  249   1.055   3.391   5.632
   21DSPC   C2B  250   0.718   3.042   5.472
   21DSPC   C3B  251   0.378   2.715   5.350
   21DSPC   C4B  252   0.033   2.385   5.207
   22DSPC   NC3  253   3.089   4.995   0.918
   22DSPC   PO4  254   2.831   4.727   0.775
   22DSPC   GL1  255   2.457   4.763   0.504
   22DSPC   GL2  256   2.320   4.611   0.728
   22DSPC   C1A  257   2.234   4.628   0.110
   22DSPC   C2A  258   1.921   4.520   7.209
   22DSPC   C3A  259   1.597   4.223   6.996
   22DSPC   C4A  260   1.354   3.793   6.936
   22DSPC   C1B  261   1.935   4.541   0.518
   22DSPC   C2B  262   1.621   4.337   0.149
   22DSPC   C3B  263   1.260   4.161   7.368
   22DSPC   C4B  264   0.883   3.897   7.200
   23DSPC   NC3  265   4.760   3.913   0.658
   23DSPC   PO4  266   4.787   4.313   0.620
   23DSPC   GL1  267   4.723   4.459   0.225
   23DSPC   GL2  268   5.026   4.542   0.270
   23DSPC   C1A  269   4.539   4.834   0.099
   23DSPC   C2A  270   4.536   5.303   0.321
   23DSPC   C3A  271   4.717   5.739   0.489
   23DSPC   C4A  272   4.877   6.200   0.402
   23DSPC   C1B  273   4.914   4.962   0.406
   23DSPC   C2B  274   5.101   5.431   0.441
   23DSPC   C3B  275   5.287   5.875   0.532
   23DSPC   C4B  276   5.366   6.288   0.258
   24DSPC   NC3  277   4.233   5.390   6.887
   24DSPC   PO4  278   4.424   5.690   7.069
   24DSPC   GL1  279   4.294   6.011   7.284
   24DSPC   GL2  280   4.066   6.103   7.186
   24DSPC   C1A  281   4.462   6.242   0.119
   24DSPC   C2A  282   4.574   6.682   0.345
   24DSPC   C3A  283   4.742   7.013   0.655
   24DSPC   C4A  284   4.529   7.289   0.993
   24DSPC   C1B  285   4.007   6.439   7.459
   24DSPC   C2B  286   4.106   6.863   0.226
   24DSPC   C3B  287   4.304   7.211   0.485
   24DSPC   C4B  288   4.289   0.145   0.725
   25DSPC   NC3  289   6.584   1.316   2.192
   25DSPC   PO4  290   6.484   1.364   1.808
   25DSPC   GL1  291   6.243   1.074   1.903
   25DSPC   GL2  292   6.302   0.799   1.868
   25DSPC   C1A  293   5.863   1.100   2.092
   25DSPC   C2A  294   5.394   1.259   2.213
   25DSPC   C3A  295   4.996   1.511   2.086
   25DSPC   C4A  296   4.560   1.740   1.996
   25DSPC   C1B  297   5.947   0.586   2.032
   25DSPC   C2B  298   5.462   0.766   2.050
   25DSPC   C3B  299   5.013   0.937   2.182
   25DSPC   C4B  300   4.654   1.229   2.355
   26DSPC   NC3  301   3.690   2.624   2.577
   26DSPC   PO4  302   3.339   2.822   2.530
   26DSPC   GL1  303   2.978   2.784   2.274
   26DSPC   GL2  304   2.837   2.933   2.510
   26DSPC   C1A  305   2.691   2.989   2.001
   26DSPC   C2A  306   2.283   3.306   1.925
   26DSPC   C3A  307   1.872   3.558   1.834
   26DSPC   C4A  308   1.574   3.752   1.483
   26DSPC   C1B  309   2.518   3.248   2.411
   26DSPC   C2B  310   2.097   3.552   2.362
   26DSPC   C3B  311   1.678   3.771   2.269
   26DSPC   C4B  312   1.321   3.784   1.938
   27DSPC   NC3  313   5.383   5.394   3.066
   27DSPC   PO4  314   5.276   5.725   2.861
   27DSPC   GL1  315   5.011   5.680   2.525
   27DSPC   GL2  316   5.273   5.714   2.359
   27DSPC   C1A  317   4.703   5.958   2.365
   27DSPC   C2A  318   4.474   6.390   2.216
   27DSPC   C3A  319   4.345   6.769   1.969
   27DSPC   C4A  320   3.974   7.035   1.793
   27DSPC   C1B  321   5.065   5.832   2.001
   27DSPC   C2B  322   4.636   6.056   1.851
   27DSPC   C3B  323   4.205   6.291   1.801
   27DSPC   C4B  324   3.860   6.537   2.070
   28DSPC   NC3  325   5.036   2.952   3.562
   28DSPC   PO4  326   5.056   2.826   3.181
   28DSPC   GL1  327   4.773   2.969   2.866
   28DSPC   GL2  328   4.700   2.673   2.850
   28DSPC   C1A  329   4.895   3.081   2.453
   28DSPC   C2A  330   5.134   3.057   1.996
   28DSPC   C3A  331   5.386   3.064   1.580
   28DSPC   C4A  332   5.676   3.049   1.182
   28DSPC   C1B  333   4.681   2.637   2.427
   28DSPC   C2B  334   4.724   2.756   1.935
   28DSPC   C3B  335   4.858   2.930   1.509
   28DSPC   C4B  336   5.097   3.156   1.146
   29DSPC   NC3  337   0.968   4.439   0.458
   29DSPC   PO4  338   1.109   4.067   0.509
   29DSPC   GL1  339   0.973   3.905   0.159
   29DSPC   GL2  340   0.844   4.173   0.080
   29DSPC   C1A  341   0.698   3.560   0.104
   29DSPC   C2A  342   0.380   3.153   0.207
   29DSPC   C3A  343   0.088   2.792   0.366
   29DSPC   C4A  344   7.452   2.391   0.638
   29DSPC   C1B  345   0.476   4.017   0.241
   29DSPC   C2B  346   0.321   3.592   0.482
   29DSPC   C3B  347   0.116   3.192   0.656
   29DSPC   C4B  348   7.258   2.853   0.752
   30DSPC   NC3  349   0.087   6.656   1.072
   30DSPC   PO4  350   0.291   6.559   0.736
   30DSPC   GL1  351   0.686   6.575   0.584
   30DSPC   GL2  352   0.616   6.418   0.331
   30DSPC   C1A  353   1.077   6.402   0.644
   30DSPC   C2A  354   1.448   6.079   0.507
   30DSPC   C3A  355   1.705   5.761   0.246
   30DSPC   C4A  356   1.753   5.516   7.320
   30DSPC   C1B  357   1.000   6.265   0.142
   30DSPC   C2B  358   1.492   6.175   7.494
   30DSPC   C3B  359   1.930   5.998   7.344
   30DSPC   C4B  360   2.370   5.782   7.255
   31DSPC   NC3  361   2.579   1.304   2.717
   31DSPC   PO4  362   2.213   1.352   2.580
   31DSPC   GL1  363   2.305   1.458   2.169
   31DSPC   GL2  364   2.032   1.378   2.095
   31DSPC   C1A  365   2.500   1.315   1.787
   31DSPC   C2A  366   2.351   1.098   1.333
   31DSPC   C3A  367   2.011   0.923   1.022
   31DSPC   C4A  368   1.674   0.677   0.742
   31DSPC   C1B  369   2.018   1.354   1.648
   31DSPC   C2B  370   2.013   1.462   1.145
   31DSPC   C3B  371   1.847   1.476   0.687
   31DSPC   C4B  372   1.713   1.078   0.436
   32DSPC   NC3  373   0.918   4.641   1.716
   32DSPC   PO4  374   0.955   4.558   2.108
   32DSPC   GL1  375   1.294   4.799   2.162
   32DSPC   GL2  376   1.386   4.638   2.400
   32DSPC   C1A  377   1.331   5.223   2.299
   32DSPC   C2A  378   1.443   5.534   2.691
   32DSPC   C3A  379   1.481   5.876   3.035
   32DSPC   C4A  380   1.500   6.251   3.379
   32DSPC   C1B  381   1.565   4.944   2.678
   32DSPC   C2B  382   1.806   5.306   2.970
   32DSPC   C3B  383   1.874   5.649   3.306
   32DSPC   C4B  384   1.941   6.060   3.585
   33DSPC   NC3  385   5.344   0.667   0.882
   33DSPC   PO4  386   5.227   0.308   1.024
   33DSPC   GL1  387   4.935   0.027   0.947
   33DSPC   GL2  388   5.147   7.301   0.995
   33DSPC   C1A  389   4.742   0.007   0.557
   33DSPC   C2A  390   4.514   7.481   0.101
   33DSPC   C3A  391   4.358   7.356   7.161
   33DSPC   C4A  392   4.291   7.068   6.767
   33DSPC   C1B  393   5.187   7.248   0.564
   33DSPC   C2B  394   4.873   7.111   0.176
   33DSPC   C3B  395   4.506   6.952   7.422
   33DSPC   C4B  396   4.067   6.885   7.205
   34DSPC   NC3  397   3.565   6.073   2.260
   34DSPC   PO4  398   3.347   6.329   2.475
   34DSPC   GL1  399   3.388   6.753   2.377
   34DSPC   GL2  400   3.660   6.744   2.509
   34DSPC   C1A  401   3.559   7.071   2.133
   34DSPC   C2A  402   3.914   7.446   2.084
   34DSPC   C3A  403   4.281   0.250   2.054
   34DSPC   C4A  404   4.622   0.621   2.008
   34DSPC   C1B  405   4.020   6.954   2.322
   34DSPC   C2B  406   4.414   7.254   2.154
   34DSPC   C3B  407   4.751   0.110   2.163
   34DSPC   C4B  408   4.795   0.529   2.446
   35DSPC   NC3  409   5.117   6.508   1.257
   35DSPC   PO4  410   4.734   6.490   1.396
   35DSPC   GL1  411   4.437   6.201   1.185
   35DSPC   GL2  412   4.565   6.003   1.390
   35DSPC   C1A  413   4.098   5.913   1.168
   35DSPC   C2A  414   3.870   5.511   1.421
   35DSPC   C3A  415   3.633   5.269   1.781
   35DSPC   C4A  416   3.388   5.074   2.178
   35DSPC   C1B  417   4.249   5.803   1.643
   35DSPC   C2B  418   3.811   5.736   1.913
   35DSPC   C3B  419   3.430   5.573   2.169
   35DSPC   C4B  420   3.006   5.370   2.345
   36DSPC   NC3  421   3.386   5.194   1.309
   36DSPC   PO4  422   2.999   5.117   1.395
   36DSPC   GL1  423   2.727   4.832   1.216
   36DSPC   GL2  424   2.612   5.058   1.029
   36DSPC   C1A  425   2.332   4.650   1.187
   36DSPC   C2A  426   1.844   4.607   1.039
   36DSPC   C3A  427   1.385   4.622   1.172
   36DSPC   C4A  428   1.008   4.921   1.283
   36DSPC   C1B  429   2.179   5.023   0.867
   36DSPC   C2B  430   1.685   4.959   0.693
   36DSPC   C3B  431   1.206   4.862   0.757
   36DSPC   C4B  432   0.809   4.621   0.924
   37DSPC   NC3  433   7.494   5.614   2.667
   37DSPC   PO4  434   7.316   5.842   2.398
   37DSPC   GL1  435   7.270   6.224   2.508
   37DSPC   GL2  436   7.197   6.362   2.239
   37DSPC   C1A  437   7.069   6.503   2.789
   37DSPC   C2A  438   6.835   6.947   2.877
   37DSPC   C3A  439   6.683   7.406   2.883
   37DSPC   C4A  440   6.514   0.377   2.859
   37DSPC   C1B  441   6.939   6.734   2.353
   37DSPC   C2B  442   6.568   7.098   2.473
   37DSPC   C3B  443   6.305   0.011   2.557
   37DSPC   C4B  444   6.045   0.438   2.548
   38DSPC   NC3  445   3.394   1.967   2.260
   38DSPC   PO4  446   3.704   2.123   2.443
   38DSPC   GL1  447   3.865   2.405   2.200
   38DSPC   GL2  448   3.801   2.311   1.933
   38DSPC   C1A  449   3.881   2.840   2.139
   38DSPC   C2A  450   4.203   3.074   1.819
   38DSPC   C3A  451   4.521   3.348   1.587
   38DSPC   C4A  452   5.004   3.411   1.668
   38DSPC   C1B  453   3.902   2.653   1.641
   38DSPC   C2B  454   4.143   2.992   1.309
   38DSPC   C3B  455   4.557   3.183   1.124
   38DSPC   C4B  456   4.822   3.582   1.227
   39DSPC   NC3  457   1.354   1.978   2.170
   39DSPC   PO4  458   1.651   1.711   2.060
   39DSPC   GL1  459   2.068   1.762   1.899
   39DSPC   GL2  460   1.919   1.806   1.625
   39DSPC   C1A  461   2.533   1.799   1.945
   39DSPC   C2A  462   3.065   1.703   1.952
   39DSPC   C3A  463   3.552   1.587   1.963
   39DSPC   C4A  464   4.044   1.666   2.069
   39DSPC   C1B  465   2.321   1.756   1.466
   39DSPC   C2B  466   2.823   1.633   1.513
   39DSPC   C3B  467   3.286   1.458   1.541
   39DSPC   C4B  468   3.757   1.328   1.386
   40DSPC   NC3  469   5.349   2.308   0.849
   40DSPC   PO4  470   5.647   2.325   1.110
   40DSPC   GL1  471   5.931   2.606   1.228
   40DSPC   GL2  472   5.750   2.689   1.464
   40DSPC   C1A  473   6.350   2.507   1.344
   40DSPC   C2A  474   6.855   2.364   1.367
   40DSPC   C3A  475   7.234   2.056   1.348
   40DSPC   C4A  476   0.187   1.850   1.404
   40DSPC   C1B  477   6.006   2.492   1.763
   40DSPC   C2B  478   6.467   2.256   1.780
   40DSPC   C3B  479   6.938   2.134   1.829
   40DSPC   C4B  480   7.411   1.990   1.820
   41DSPC   NC3  481   5.205   2.359   7.088
   41DSPC   PO4  482   4.864   2.444   6.889
   41DSPC   GL1  483   4.642   2.760   6.673
   41DSPC   GL2  484   4.900   2.843   6.548
   41DSPC   C1A  485   4.269   2.769   6.416
   41DSPC   C2A  486   3.904   2.671   6.059
   41DSPC   C3A  487   3.492   2.734   5.810
   41DSPC   C4A  488   3.175   2.740   5.433
   41DSPC   C1B  489   4.717   2.756   6.144
   41DSPC   C2B  490   4.345   2.664   5.790
   41DSPC   C3B  491   3.945   2.886   5.595
   41DSPC   C4B  492   3.523   3.148   5.525
   42DSPC   NC3  493   6.931   2.501   0.535
   42DSPC   PO4  494   6.675   2.195   0.490
   42DSPC   GL1  495   6.780   1.906   0.184
   42DSPC   GL2  496   6.557   2.031   0.033
   42DSPC   C1A  497   6.687   1.474   0.163
   42DSPC   C2A  498   6.465   1.017   0.213
   42DSPC   C3A  499   6.091   0.742   0.187
   42DSPC   C4A  500   5.640   0.614   0.087
   42DSPC   C1B  501   6.296   1.702   7.403
   42DSPC   C2B  502   5.950   1.318   7.379
   42DSPC   C3B  503   5.534   1.067   7.392
   42DSPC   C4B  504   5.145   0.754   7.417
   43DSPC   NC3  505   5.796   4.769   0.497
   43DSPC   PO4  506   5.537   4.517   0.318
   43DSPC   GL1  507   5.654   4.110   0.318
   43DSPC   GL2  508   5.413   4.004   0.164
   43DSPC   C1A  509   6.014   3.938   0.122
   43DSPC   C2A  510   6.384   3.688   7.366
   43DSPC   C3A  511   6.741   3.483   7.129
   43DSPC   C4A  512   7.079   3.117   7.060
   43DSPC   C1B  513   5.613   3.751   7.347
   43DSPC   C2B  514   5.969   3.403   7.227
   43DSPC   C3B  515   6.329   3.103   7.106
   43DSPC   C4B  516   6.691   2.790   7.030
   44DSPC   NC3  517   5.420   2.435   5.577
   44DSPC   PO4  518   5.761   2.263   5.694
   44DSPC   GL1  519   5.703   1.958   5.972
   44DSPC   GL2  520   5.826   2.103   6.211
   44DSPC   C1A  521   5.850   1.567   6.098
   44DSPC   C2A  522   6.013   1.256   6.483
   44DSPC   C3A  523   6.287   0.990   6.791
   44DSPC   C4A  524   6.751   0.879   6.916
   44DSPC   C1B  525   5.978   1.812   6.541
   44DSPC   C2B  526   6.164   1.494   6.926
   44DSPC   C3B  527   6.444   1.222   7.231
   44DSPC   C4B  528   6.861   1.001   7.402
   45DSPC   NC3  529   4.244   4.147   3.326
   45DSPC   PO4  530   4.012   4.454   3.225
   45DSPC   GL1  531   3.641   4.565   3.425
   45DSPC   GL2  532   3.528   4.640   3.149
   45DSPC   C1A  533   3.223   4.535   3.574
   45DSPC   C2A  534   2.722   4.688   3.649
   45DSPC   C3A  535   2.261   4.869   3.671
   45DSPC   C4A  536   1.867   5.171   3.602
   45DSPC   C1B  537   3.104   4.830   3.156
   45DSPC   C2B  538   2.597   4.967   3.219
   45DSPC   C3B  539   2.102   4.941   3.199
   45DSPC   C4B  540   1.607   4.883   3.191
   46DSPC   NC3  541   1.598   6.247   5.404
   46DSPC   PO4  542   1.382   6.454   5.147
   46DSPC   GL1  543   1.679   6.587   4.914
   46DSPC   GL2  544   1.586   6.565   4.629
   46DSPC   C1A  545   1.999   6.334   4.796
   46DSPC   C2A  546   2.322   6.167   4.429
   46DSPC   C3A  547   2.668   5.980   4.153
   46DSPC   C4A  548   3.125   5.833   4.026
   46DSPC   C1B  549   1.891   6.430   4.300
   46DSPC   C2B  550   2.249   6.273   3.934
   46DSPC   C3B  551   2.634   6.107   3.674
   46DSPC   C4B  552   3.073   5.921   3.513
   47DSPC   NC3  553   7.430   7.181   5.131
   47DSPC   PO4  554   0.087   0.024   5.006
   47DSPC   GL1  555   7.228   0.322   5.114
   47DSPC   GL2  556   7.105   0.048   5.168
   47DSPC   C1A  557   6.876   0.620   5.163
   47DSPC   C2A  558   6.504   0.960   5.286
   47DSPC   C3A  559   6.172   1.319   5.349
   47DSPC   C4A  560   5.801   1.582   5.558
   47DSPC   C1B  561   6.680   0.161   5.096
   47DSPC   C2B  562   6.390   0.579   4.952
   47DSPC   C3B  563   6.052   0.931   5.017
   47DSPC   C4B  564   5.682   1.234   5.164
   48DSPC   NC3  565   3.524   4.552   0.425
   48DSPC   PO4  566   3.380   4.175   0.433
   48DSPC   GL1  567   3.066   4.138   0.155
   48DSPC   GL2  568   3.105   4.424   0.123
   48DSPC   C1A  569   2.638   4.041   0.072
   48DSPC   C2A  570   2.124   4.112   7.490
   48DSPC   C3A  571   1.694   3.896   7.403
   48DSPC   C4A  572   1.267   3.636   7.426
   48DSPC   C1B  573   2.708   4.511   0.207
   48DSPC   C2B  574   2.339   4.248   0.449
   48DSPC   C3B  575   1.901   4.023   0.458
   48DSPC   C4B  576   1.583   3.655   0.353
   49DSPC   NC3  577   3.115   3.021   6.714
   49DSPC   PO4  578   3.176   2.700   6.484
   49DSPC   GL1  579   3.099   2.677   6.079
   49DSPC   GL2  580   3.024   2.397   6.030
   49DSPC   C1A  581   2.849   2.888   5.792
   49DSPC   C2A  582   2.687   2.889   5.312
   49DSPC   C3A  583   2.483   2.934   4.878
   49DSPC   C4A  584   2.393   3.193   4.479
   49DSPC   C1B  585   2.764   2.410   5.640
   49DSPC   C2B  586   2.397   2.483   5.260
   49DSPC   C3B  587   2.084   2.627   4.896
   49DSPC   C4B  588   2.046   2.819   4.427
   50DSPC   NC3  589   4.561   2.798   3.264
   50DSPC   PO4  590   4.463   2.417   3.212
   50DSPC   GL1  591   4.352   2.384   2.840
   50DSPC   GL2  592   4.590   2.282   2.678
   50DSPC   C1A  593   4.191   2.540   2.484
   50DSPC   C2A  594   4.267   2.557   1.988
   50DSPC   C3A  595   4.415   2.650   1.547
   50DSPC   C4A  596   4.486   2.688   1.069
   50DSPC   C1B  597   4.528   2.201   2.242
   50DSPC   C2B  598   4.632   2.234   1.742
   50DSPC   C3B  599   4.829   2.416   1.331
   50DSPC   C4B  600   4.853   2.413   0.834
   51DSPC   NC3  601   5.004   6.352   2.118
   51DSPC   PO4  602   5.071   6.710   2.281
   51DSPC   GL1  603   4.691   6.718   2.526
   51DSPC   GL2  604   4.751   6.413   2.571
   51DSPC   C1A  605   4.701   6.863   2.955
   51DSPC   C2A  606   5.056   6.685   3.290
   51DSPC   C3A  607   5.424   6.424   3.482
   51DSPC   C4A  608   5.802   6.138   3.636
   51DSPC   C1B  609   4.751   6.351   3.017
   51DSPC   C2B  610   4.952   6.205   3.476
   51DSPC   C3B  611   5.314   5.962   3.707
   51DSPC   C4B  612   5.699   5.675   3.864
   52DSPC   NC3  613   6.085   6.461   6.965
   52DSPC   PO4  614   6.295   6.557   7.293
   52DSPC   GL1  615   6.492   6.288   0.021
   52DSPC   GL2  616   6.255   6.222   0.199
   52DSPC   C1A  617   6.819   6.184   0.280
   52DSPC   C2A  618   7.025   5.915   0.647
   52DSPC   C3A  619   6.867   5.508   0.820
   52DSPC   C4A  620   6.614   5.075   0.779
   52DSPC   C1B  621   6.403   5.866   0.428
   52DSPC   C2B  622   6.459   5.356   0.358
   52DSPC   C3B  623   6.285   4.907   0.421
   52DSPC   C4B  624   6.212   4.420   0.332
   53DSPC   NC3  625   3.149   4.630   1.332
   53DSPC   PO4  626   3.543   4.709   1.307
   53DSPC   GL1  627   3.886   4.423   1.201
   53DSPC   GL2  628   3.873   4.308   1.482
   53DSPC   C1A  629   4.317   4.315   1.217
   53DSPC   C2A  630   4.779   4.079   1.216
   53DSPC   C3A  631   5.176   3.873   0.994
   53DSPC   C4A  632   5.606   3.852   0.735
   53DSPC   C1B  633   4.193   4.030   1.634
   53DSPC   C2B  634   4.681   3.850   1.674
   53DSPC   C3B  635   5.144   3.864   1.521
   53DSPC   C4B  636   5.430   3.520   1.309
   54DSPC   NC3  637   7.292   0.507   3.907
   54DSPC   PO4  638   7.146   0.881   3.917
   54DSPC   GL1  639   7.261   1.247   4.196
   54DSPC   GL2  640   7.090   1.115   4.391
   54DSPC   C1A  641   7.188   1.650   4.420
   54DSPC   C2A  642   6.937   2.018   4.718
   54DSPC   C3A  643   6.660   2.402   4.862
   54DSPC   C4A  644   6.533   2.875   4.972
   54DSPC   C1B  645   7.086   1.294   4.780
   54DSPC   C2B  646   6.824   1.610   5.087
   54DSPC   C3B  647   6.499   1.970   5.107
   54DSPC   C4B  648   6.124   2.267   4.969
   55DSPC   NC3  649   1.647   1.619   7.185
   55DSPC   PO4  650   1.446   1.950   7.287
   55DSPC   GL1  651   1.187   2.014   0.166
   55DSPC   GL2  652   1.101   2.263   0.001
   55DSPC   C1A  653   0.848   2.121   0.451
   55DSPC   C2A  654   0.455   2.289   0.729
   55DSPC   C3A  655   0.240   2.301   1.162
   55DSPC   C4A  656   0.275   2.334   1.651
   55DSPC   C1B  657   0.822   2.559   0.207
   55DSPC   C2B  658   0.540   2.782   0.587
   55DSPC   C3B  659   0.206   2.750   0.935
   55DSPC   C4B  660   7.287   2.525   1.128
   56DSPC   NC3  661   7.349   1.294   3.736
   56DSPC   PO4  662   6.946   1.299   3.691
   56DSPC   GL1  663   6.751   0.926   3.666
   56DSPC   GL2  664   6.742   0.956   3.365
   56DSPC   C1A  665   6.342   0.799   3.711
   56DSPC   C2A  666   5.922   0.975   3.504
   56DSPC   C3A  667   5.514   1.125   3.306
   56DSPC   C4A  668   5.093   1.242   3.091
   56DSPC   C1B  669   6.335   0.925   3.174
   56DSPC   C2B  670   5.848   0.898   2.979
   56DSPC   C3B  671   5.447   1.085   2.749
   56DSPC   C4B  672   5.091   1.414   2.592
   57DSPC   NC3  673   0.665   6.616   7.405
   57DSPC   PO4  674   0.278   6.679   7.326
   57DSPC   GL1  675   0.027   6.774   6.966
   57DSPC   GL2  676   7.297   6.673   7.150
   57DSPC   C1A  677   7.292   7.146   6.897
   57DSPC   C2A  678   6.869   7.438   7.019
   57DSPC   C3A  679   6.469   0.174   7.195
   57DSPC   C4A  680   6.030   0.358   7.355
   57DSPC   C1B  681   6.910   6.886   7.149
   57DSPC   C2B  682   6.533   7.186   7.344
   57DSPC   C3B  683   6.209   7.452   0.106
   57DSPC   C4B  684   5.871   0.229   0.358
   58DSPC   NC3  685   3.138   2.211   6.514
   58DSPC   PO4  686   3.276   2.022   6.838
   58DSPC   GL1  687   2.969   1.761   6.637
   58DSPC   GL2  688   2.921   1.699   6.918
   58DSPC   C1A  689   2.723   1.400   6.531
   58DSPC   C2A  690   2.448   0.968   6.682
   58DSPC   C3A  691   2.343   0.537   6.899
   58DSPC   C4A  692   2.411   0.132   7.179
   58DSPC   C1B  693   2.613   1.394   7.025
   58DSPC   C2B  694   2.377   0.969   7.203
   58DSPC   C3B  695   2.266   0.574   7.462
   58DSPC   C4B  696   2.267   0.109   0.164
   59DSPC   NC3  697   4.379   2.348   6.828
   59DSPC   PO4  698   4.430   2.667   7.071
   59DSPC   GL1  699   4.724   2.956   7.062
   59DSPC   GL2  700   4.593   3.073   7.309
   59DSPC   C1A  701   4.957   3.259   6.853
   59DSPC   C2A  702   5.194   3.690   7.000
   59DSPC   C3A  703   5.266   4.114   7.244
   59DSPC   C4A  704   5.389   4.584   7.156
   59DSPC   C1B  705   4.722   3.482   7.248
   59DSPC   C2B  706   4.778   3.992   7.208
   59DSPC   C3B  707   4.902   4.454   7.308
   59DSPC   C4B  708   5.114   4.877   7.457
   60DSPC   NC3  709   1.604   3.058   4.157
   60DSPC   PO4  710   1.389   2.787   4.366
   60DSPC   GL1  711   1.348   2.444   4.677
   60DSPC   GL2  712   1.124   2.360   4.490
   60DSPC   C1A  713   1.117   2.212   4.982
   60DSPC   C2A  714   0.781   1.825   5.089
   60DSPC   C3A  715   0.422   1.492   5.119
   60DSPC   C4A  716   0.142   1.074   5.076
   60DSPC   C1B  717   0.722   2.240   4.666
   60DSPC   C2B  718   0.329   1.926   4.818
   60DSPC   C3B  719   0.069   1.512   4.750
   60DSPC   C4B  720   0.017   1.056   4.562
   61DSPC   NC3  721   0.066   6.885   3.678
   61DSPC   PO4  722   0.256   7.098   3.946
   61DSPC   GL1  723   0.165   6.788   4.186
   61DSPC   GL2  724   0.019   6.930   4.390
   61DSPC   C1A  725   0.426   6.551   4.446
   61DSPC   C2A  726   0.369   6.377   4.934
   61DSPC   C3A  727   0.435   6.256   5.402
   61DSPC   C4A  728   0.433   6.204   5.904
   61DSPC   C1B  729   0.209   6.885   4.785
   61DSPC   C2B  730   0.254   6.763   5.282
   61DSPC   C3B  731   0.060   6.508   5.649
   61DSPC   C4B  732   7.423   6.100   5.885
   62DSPC   NC3  733   3.811   1.375   3.327
   62DSPC   PO4  734   3.480   1.461   3.553
   62DSPC   GL1  735   3.071   1.171   3.524
   62DSPC   GL2  736   3.259   1.000   3.675
   62DSPC   C1A  737   2.724   0.890   3.683
   62DSPC   C2A  738   2.360   0.684   3.996
   62DSPC   C3A  739   2.077   0.602   4.390
   62DSPC   C4A  740   1.789   0.488   4.784
   62DSPC   C1B  741   3.041   0.991   4.075
   62DSPC   C2B  742   2.715   0.717   4.373
   62DSPC   C3B  743   2.470   0.357   4.604
   62DSPC   C4B  744   2.183   0.227   4.992
   63DSPC   NC3  745   6.934   0.387   4.712
   63DSPC   PO4  746   6.741   0.496   4.383
   63DSPC   GL1  747   6.391   0.722   4.467
   63DSPC   GL2  748   6.331   0.740   4.170
   63DSPC   C1A  749   5.985   0.629   4.613
   63DSPC   C2A  750   5.530   0.624   4.867
   63DSPC   C3A  751   5.083   0.637   5.063
   63DSPC   C4A  752   4.639   0.528   5.261
   63DSPC   C1B  753   5.930   0.880   4.165
   63DSPC   C2B  754   5.490   0.699   4.337
   63DSPC   C3B  755   5.130   0.466   4.567
   63DSPC   C4B  756   4.739   0.289   4.813
   64DSPC   NC3  757   6.824   4.113   4.311
   64DSPC   PO4  758   6.798   3.716   4.248
   64DSPC   GL1  759   6.388   3.649   4.286
   64DSPC   GL2  760   6.374   3.949   4.403
   64DSPC   C1A  761   6.087   3.355   4.147
   64DSPC   C2A  762   5.629   3.220   3.965
   64DSPC   C3A  763   5.373   3.336   3.573
   64DSPC   C4A  764   5.116   3.677   3.331
   64DSPC   C1B  765   6.042   4.040   4.682
   64DSPC   C2B  766   5.586   3.850   4.583
   64DSPC   C3B  767   5.211   3.637   4.349
   64DSPC   C4B  768   4.770   3.553   4.146
   65DSPC   NC3  769   2.135   2.275   2.924
   65DSPC   PO4  770   1.846   2.235   2.640
   65DSPC   GL1  771   1.780   2.128   2.251
   65DSPC   GL2  772   2.049   2.101   2.156
   65DSPC   C1A  773   1.642   2.319   1.891
   65DSPC   C2A  774   1.377   2.331   1.456
   65DSPC   C3A  775   1.394   2.474   1.004
   65DSPC   C4A  776   1.565   2.715   0.605
   65DSPC   C1B  777   2.119   2.202   1.726
   65DSPC   C2B  778   1.982   2.173   1.218
   65DSPC   C3B  779   1.809   2.261   0.762
   65DSPC   C4B  780   1.741   2.353   0.270
   66DSPC   NC3  781   6.757   1.947   4.224
   66DSPC   PO4  782   6.432   2.164   4.109
   66DSPC   GL1  783   6.227   2.592   4.132
   66DSPC   GL2  784   6.502   2.685   4.231
   66DSPC   C1A  785   6.048   2.930   3.860
   66DSPC   C2A  786   5.883   3.333   3.540
   66DSPC   C3A  787   5.635   3.684   3.275
   66DSPC   C4A  788   5.348   4.105   3.209
   66DSPC   C1B  789   6.520   3.073   4.008
   66DSPC   C2B  790   6.359   3.447   3.693
   66DSPC   C3B  791   6.132   3.779   3.404
   66DSPC   C4B  792   5.832   4.177   3.356
   67DSPC   NC3  793   1.383   4.097   3.635
   67DSPC   PO4  794   1.273   3.884   3.955
   67DSPC   GL1  795   1.095   3.515   4.021
   67DSPC   GL2  796   1.268   3.425   4.245
   67DSPC   C1A  797   0.711   3.416   4.232
   67DSPC   C2A  798   0.535   3.094   4.600
   67DSPC   C3A  799   0.511   2.682   4.866
   67DSPC   C4A  800   0.533   2.270   5.147
   67DSPC   C1B  801   1.030   3.320   4.616
   67DSPC   C2B  802   0.881   3.018   4.996
   67DSPC   C3B  803   0.908   2.613   5.241
   67DSPC   C4B  804   0.917   2.167   5.462
   68DSPC   NC3  805   1.313   0.137   6.246
   68DSPC   PO4  806   1.431   7.350   5.996
   68DSPC   GL1  807   1.074   7.179   6.058
   68DSPC   GL2  808   1.104   6.918   5.951
   68DSPC   C1A  809   0.813   7.139   6.418
   68DSPC   C2A  810   0.439   6.823   6.592
   68DSPC   C3A  811   0.109   6.479   6.606
   68DSPC   C4A  812   7.250   6.373   6.287
   68DSPC   C1B  813   0.769   6.714   6.153
   68DSPC   C2B  814   0.546   6.329   6.395
   68DSPC   C3B  815   0.158   6.042   6.343
   68DSPC   C4B  816   7.201   5.842   6.276
   69DSPC   NC3  817   0.068   6.298   7.080
   69DSPC   PO4  818   7.343   6.284   7.406
   69DSPC   GL1  819   7.025   5.955   7.420
   69DSPC   GL2  820   7.100   5.923   7.128
   69DSPC   C1A  821   6.583   5.840   7.466
   69DSPC   C2A  822   6.064   5.825   0.034
   69DSPC   C3A  823   5.572   5.853   0.072
   69DSPC   C4A  824   5.066   5.822   0.098
   69DSPC   C1B  825   6.743   5.697   7.002
   69DSPC   C2B  826   6.259   5.565   7.121
   69DSPC   C3B  827   5.788   5.489   7.239
   69DSPC   C4B  828   5.377   5.391   7.495
   70DSPC   NC3  829   4.029   5.420   0.123
   70DSPC   PO4  830   3.963   5.651   7.303
   70DSPC   GL1  831   3.692   6.012   7.398
   70DSPC   GL2  832   3.461   5.848   7.303
   70DSPC   C1A  833   3.511   6.419   7.372
   70DSPC   C2A  834   3.144   6.757   7.266
   70DSPC   C3A  835   2.809   7.027   7.049
   70DSPC   C4A  836   2.502   7.313   6.778
   70DSPC   C1B  837   3.130   6.136   7.171
   70DSPC   C2B  838   2.789   6.490   6.962
   70DSPC   C3B  839   2.436   6.786   6.786
   70DSPC   C4B  840   2.055   7.076   6.661
   71DSPC   NC3  841   6.931   5.605   0.257
   71DSPC   PO4  842   7.183   5.505   7.462
   71DSPC   GL1  843   7.363   5.166   0.180
   71DSPC   GL2  844   7.153   4.993   0.035
   71DSPC   C1A  845   0.196   4.867   0.180
   71DSPC   C2A  846   0.541   4.514   0.024
   71DSPC   C3A  847   0.864   4.438   7.167
   71DSPC   C4A  848   1.147   4.649   6.804
   71DSPC   C1B  849   7.385   4.653   7.341
   71DSPC   C2B  850   0.305   4.485   7.063
   71DSPC   C3B  851   0.645   4.565   6.708
   71DSPC   C4B  852   0.872   4.908   6.410
   72DSPC   NC3  853   6.448   1.252   4.870
   72DSPC   PO4  854   6.216   1.529   4.695
   72DSPC   GL1  855   5.809   1.508   4.807
   72DSPC   GL2  856   5.910   1.643   5.077
   72DSPC   C1A  857   5.357   1.424   4.803
   72DSPC   C2A  858   4.892   1.228   4.957
   72DSPC   C3A  859   4.510   1.007   5.170
   72DSPC   C4A  860   4.064   0.801   5.271
   72DSPC   C1B  861   5.504   1.772   5.169
   72DSPC   C2B  862   4.990   1.715   5.096
   72DSPC   C3B  863   4.524   1.551   5.097
   72DSPC   C4B  864   4.090   1.311   5.160
   73DSPC   NC3  865   7.227   0.981   1.709
   73DSPC   PO4  866   7.107   0.608   1.771
   73DSPC   GL1  867   6.811   0.546   2.065
   73DSPC   GL2  868   6.833   0.245   1.960
   73DSPC   C1A  869   6.840   0.562   2.501
   73DSPC   C2A  870   7.059   0.239   2.827
   73DSPC   C3A  871   7.179   7.320   3.055
   73DSPC   C4A  872   7.212   6.846   3.203
   73DSPC   C1B  873   7.168   7.455   2.077
   73DSPC   C2B  874   7.369   6.999   2.243
   73DSPC   C3B  875   7.498   6.609   2.517
   73DSPC   C4B  876   0.022   6.353   2.953
   74DSPC   NC3  877   0.944   0.659   7.477
   74DSPC   PO4  878   1.205   0.921   7.324
   74DSPC   GL1  879   1.439   1.122   0.081
   74DSPC   GL2  880   1.672   1.177   7.412
   74DSPC   C1A  881   1.337   1.429   0.397
   74DSPC   C2A  882   1.163   1.805   0.716
   74DSPC   C3A  883   0.956   2.188   0.948
   74DSPC   C4A  884   0.678   2.579   1.090
   74DSPC   C1B  885   1.783   1.505   0.168
   74DSPC   C2B  886   1.585   1.886   0.437
   74DSPC   C3B  887   1.318   2.268   0.544
   74DSPC   C4B  888   1.017   2.630   0.683
   75DSPC   NC3  889   7.006   0.298   5.551
   75DSPC   PO4  890   7.199   0.460   5.862
   75DSPC   GL1  891   7.245   0.311   6.274
   75DSPC   GL2  892   6.942   0.353   6.322
   75DSPC   C1A  893   7.322   7.401   6.433
   75DSPC   C2A  894   7.421   6.896   6.417
   75DSPC   C3A  895   0.233   6.646   6.121
   75DSPC   C4A  896   0.542   6.666   5.710
   75DSPC   C1B  897   6.818   7.460   6.500
   75DSPC   C2B  898   6.904   6.962   6.629
   75DSPC   C3B  899   7.114   6.540   6.754
   75DSPC   C4B  900   7.302   6.071   6.721
   76DSPC   NC3  901   0.115   6.464   0.277
   76DSPC   PO4  902   0.261   6.129   0.444
   76DSPC   GL1  903   0.045   5.879   0.682
   76DSPC   GL2  904   0.301   5.770   0.824
   76DSPC   C1A  905   7.352   5.501   0.594
   76DSPC   C2A  906   7.476   4.995   0.611
   76DSPC   C3A  907   7.459   4.533   0.715
   76DSPC   C4A  908   7.218   4.132   0.878
   76DSPC   C1B  909   0.193   5.359   0.929
   76DSPC   C2B  910   0.085   4.886   1.099
   76DSPC   C3B  911   7.413   4.461   1.235
   76DSPC   C4B  912   0.108   3.998   1.198
   77DSPC   NC3  913   3.908   4.496   7.437
   77DSPC   PO4  914   3.537   4.353   7.478
   77DSPC   GL1  915   3.566   3.898   0.075
   77DSPC   GL2  916   3.329   3.921   7.395
   77DSPC   C1A  917   3.415   3.472   0.078
   77DSPC   C2A  918   3.068   3.123   0.253
   77DSPC   C3A  919   2.646   2.882   0.363
   77DSPC   C4A  920   2.180   2.677   0.433
   77DSPC   C1B  921   2.966   3.659   7.442
   77DSPC   C2B  922   2.677   3.223   7.437
   77DSPC   C3B  923   2.334   2.874   7.460
   77DSPC   C4B  924   1.866   2.709   7.414
   78DSPC   NC3  925   0.653   7.042   3.052
   78DSPC   PO4  926   0.997   6.903   3.216
   78DSPC   GL1  927   0.970   6.859   3.644
   78DSPC   GL2  928   0.807   6.601   3.586
   78DSPC   C1A  929   1.112   6.821   4.050
   78DSPC   C2A  930   0.897   6.424   4.283
   78DSPC   C3A  931   0.728   6.180   4.650
   78DSPC   C4A  932   0.778   5.981   5.098
   78DSPC   C1B  933   0.751   6.226   3.825
   78DSPC   C2B  934   0.706   5.901   4.222
   78DSPC   C3B  935   0.878   5.712   4.644
   78DSPC   C4B  936   1.272   5.870   4.892
   79DSPC   NC3  937   3.831   0.420   1.806
   79DSPC   PO4  938   3.660   0.781   1.743
   79DSPC   GL1  939   3.490   0.923   1.358
   79DSPC   GL2  940   3.227   0.939   1.524
   79DSPC   C1A  941   3.344   1.253   1.097
   79DSPC   C2A  942   3.028   1.646   1.022
   79DSPC   C3A  943   2.704   1.987   0.911
   79DSPC   C4A  944   2.337   2.284   0.750
   79DSPC   C1B  945   2.886   1.163   1.336
   79DSPC   C2B  946   2.553   1.492   1.099
   79DSPC   C3B  947   2.257   1.766   0.818
   79DSPC   C4B  948   2.073   1.993   0.423
   80DSPC   NC3  949   3.537   1.186   3.997
   80DSPC   PO4  950   3.729   1.037   3.678
   80DSPC   GL1  951   4.098   1.070   3.603
   80DSPC   GL2  952   4.245   1.083   3.869
   80DSPC   C1A  953   4.328   1.131   3.228
   80DSPC   C2A  954   4.639   1.293   2.858
   80DSPC   C3A  955   4.933   0.952   2.685
   80DSPC   C4A  956   5.285   0.652   2.512
   80DSPC   C1B  957   4.558   0.908   3.629
   80DSPC   C2B  958   4.771   0.849   3.164
   80DSPC   C3B  959   5.211   0.697   3.019
   80DSPC   C4B  960   5.614   0.459   2.851
   81DSPC   NC3  961   1.453   2.465   2.379
   81DSPC   PO4  962   1.071   2.324   2.398
   81DSPC   GL1  963   0.854   1.979   2.201
   81DSPC   GL2  964   0.759   2.175   1.995
   81DSPC   C1A  965   0.514   1.681   2.366
   81DSPC   C2A  966   0.145   1.337   2.555
   81DSPC   C3A  967   7.280   1.062   2.784
   81DSPC   C4A  968   6.932   0.739   2.985
   81DSPC   C1B  969   0.341   2.064   2.086
   81DSPC   C2B  970   7.476   1.711   2.237
   81DSPC   C3B  971   7.126   1.403   2.416
   81DSPC   C4B  972   6.793   1.080   2.616
   82DSPC   NC3  973   1.575   6.912   5.823
   82DSPC   PO4  974   1.343   6.634   5.647
   82DSPC   GL1  975   1.263   6.220   5.731
   82DSPC   GL2  976   1.530   6.184   5.877
   82DSPC   C1A  977   1.164   5.880   5.449
   82DSPC   C2A  978   1.007   5.507   5.118
   82DSPC   C3A  979   0.888   5.221   4.743
   82DSPC   C4A  980   0.656   4.860   4.501
   82DSPC   C1B  981   1.627   5.799   5.668
   82DSPC   C2B  982   1.532   5.571   5.218
   82DSPC   C3B  983   1.411   5.364   4.790
   82DSPC   C4B  984   1.446   5.068   4.387
   83DSPC   NC3  985   6.497   3.929   3.904
   83DSPC   PO4  986   6.117   3.972   4.013
   83DSPC   GL1  987   5.946   3.782   4.310
   83DSPC   GL2  988   5.723   3.646   4.165
   83DSPC   C1A  989   6.071   3.520   4.637
   83DSPC   C2A  990   6.070   3.073   4.886
   83DSPC   C3A  991   5.882   2.689   5.117
   83DSPC   C4A  992   5.583   2.294   5.070
   83DSPC   C1B  993   5.625   3.347   4.458
   83DSPC   C2B  994   5.580   2.987   4.815
   83DSPC   C3B  995   5.376   2.794   5.200
   83DSPC   C4B  996   4.981   2.763   5.501
   84DSPC   NC3  997   6.249   3.984   2.470
   84DSPC   PO4  998   5.922   4.154   2.625
   84DSPC   GL1  999   5.640   3.964   2.895
   84DSPC   GL2 1000   5.436   4.153   2.752
   84DSPC   C1A 1001   5.322   3.663   2.865
   84DSPC   C2A 1002   4.855   3.532   2.684
   84DSPC   C3A 1003   4.432   3.488   2.452
   84DSPC   C4A 1004   4.010   3.363   2.220
   84DSPC   C1B 1005   5.118   3.962   2.494
   84DSPC   C2B 1006   4.858   3.670   2.154
   84DSPC   C3B 1007   4.652   3.258   2.051
   84DSPC   C4B 1008   4.346   2.985   2.308
   85DSPC   NC3 1009   3.954   0.745   1.345
   85DSPC   PO4 1010   4.206   0.465   1.461
   85DSPC   GL1 1011   3.980   0.278   1.147
   85DSPC   GL2 1012   4.178   0.046   1.167
   85DSPC   C1A 1013   3.791   0.155   0.766
   85DSPC   C2A 1014   3.787   7.259   0.418
   85DSPC   C3A 1015   3.580   6.874   0.184
   85DSPC   C4A 1016   3.172   6.592   0.256
   85DSPC   C1B 1017   4.020   7.199   0.908
   85DSPC   C2B 1018   3.823   6.782   0.641
   85DSPC   C3B 1019   3.634   6.394   0.377
   85DSPC   C4B 1020   3.274   6.085   0.188
   86DSPC   NC3 1021   1.203   5.979   4.349
   86DSPC   PO4 1022   1.480   5.719   4.227
   86DSPC   GL1 1023   1.398   5.402   3.905
   86DSPC   GL2 1024   1.656   5.286   4.047
   86DSPC   C1A 1025   1.403   4.997   3.721
   86DSPC   C2A 1026   1.770   4.652   3.597
   86DSPC   C3A 1027   2.095   4.383   3.806
   86DSPC   C4A 1028   2.347   4.143   4.147
   86DSPC   C1B 1029   1.809   4.870   4.055
   86DSPC   C2B 1030   1.928   4.418   4.296
   86DSPC   C3B 1031   1.987   3.967   4.494
   86DSPC   C4B 1032   2.207   3.595   4.752
   87DSPC   NC3 1033   2.693   2.493   7.233
   87DSPC   PO4 1034   2.687   2.278   0.072
   87DSPC   GL1 1035   2.435   1.922   0.137
   87DSPC   GL2 1036   2.527   1.945   0.438
   87DSPC   C1A 1037   2.712   1.572   0.115
   87DSPC   C2A 1038   3.095   1.355   0.355
   87DSPC   C3A 1039   3.395   1.096   0.613
   87DSPC   C4A 1040   3.683   0.881   0.936
   87DSPC   C1B 1041   2.682   1.563   0.616
   87DSPC   C2B 1042   2.918   1.172   0.826
   87DSPC   C3B 1043   3.171   0.789   1.009
   87DSPC   C4B 1044   3.523   0.455   1.157
   88DSPC   NC3 1045   0.715   1.508   7.340
   88DSPC   PO4 1046   0.913   1.858   7.297
   88DSPC   GL1 1047   0.662   2.121   0.045
   88DSPC   GL2 1048   0.466   1.875   0.050
   88DSPC   C1A 1049   0.318   2.357   0.213
   88DSPC   C2A 1050   7.302   2.457   0.140
   88DSPC   C3A 1051   6.857   2.605   0.009
   88DSPC   C4A 1052   6.375   2.713   7.454
   88DSPC   C1B 1053   0.018   1.994   7.488
   88DSPC   C2B 1054   7.020   2.133   7.351
   88DSPC   C3B 1055   6.590   2.313   7.174
   88DSPC   C4B 1056   6.190   2.577   7.009
   89DSPC   NC3 1057   0.932   6.635   6.642
   89DSPC   PO4 1058   1.271   6.428   6.611
   89DSPC   GL1 1059   1.420   6.127   6.304
   89DSPC   GL2 1060   1.346   5.917   6.500
   89DSPC   C1A 1061   1.785   5.903   6.189
   89DSPC   C2A 1062   2.086   5.516   6.389
   89DSPC   C3A 1063   2.408   5.213   6.618
   89DSPC   C4A 1064   2.809   5.024   6.857
   89DSPC   C1B 1065   1.695   5.700   6.696
   89DSPC   C2B 1066   2.092   5.466   6.939
   89DSPC   C3B 1067   2.504   5.295   7.153
   89DSPC   C4B 1068   2.971   5.190   7.322
   90DSPC   NC3 1069   5.246   4.706   0.674
   90DSPC   PO4 1070   5.474   5.018   0.800
   90DSPC   GL1 1071   5.796   4.839   0.983
   90DSPC   GL2 1072   5.827   5.102   1.149
   90DSPC   C1A 1073   6.167   4.637   0.833
   90DSPC   C2A 1074   6.640   4.577   0.631
   90DSPC   C3A 1075   7.032   4.759   0.841
   90DSPC   C4A 1076   7.197   5.188   0.989
   90DSPC   C1B 1077   6.257   5.054   1.138
   90DSPC   C2B 1078   6.750   4.934   1.243
   90DSPC   C3B 1079   7.200   4.920   1.421
   90DSPC   C4B 1080   0.157   5.021   1.602
   91DSPC   NC3 1081   6.797   3.532   0.203
   91DSPC   PO4 1082   7.024   3.842   0.316
   91DSPC   GL1 1083   7.461   3.853   0.334
   91DSPC   GL2 1084   7.431   3.976   0.050
   91DSPC   C1A 1085   0.178   4.082   0.656
   91DSPC   C2A 1086   0.360   4.418   1.018
   91DSPC   C3A 1087   0.519   4.753   1.338
   91DSPC   C4A 1088   0.668   5.120   1.643
   91DSPC   C1B 1089   0.079   4.348   0.220
   91DSPC   C2B 1090   0.428   4.563   0.526
   91DSPC   C3B 1091   0.479   4.959   0.788
   91DSPC   C4B 1092   0.626   5.250   1.159
   92DSPC   NC3 1093   0.520   7.301   4.818
   92DSPC   PO4 1094   0.873   7.473   4.891
   92DSPC   GL1 1095   1.186   0.039   4.685
   92DSPC   GL2 1096   1.228   0.314   4.596
   92DSPC   C1A 1097   1.594   0.007   4.724
   92DSPC   C2A 1098   2.039   0.094   4.515
   92DSPC   C3A 1099   2.412   7.472   4.240
   92DSPC   C4A 1100   2.821   7.318   4.001
   92DSPC   C1B 1101   1.609   0.355   4.326
   92DSPC   C2B 1102   2.038   0.253   4.021
   92DSPC   C3B 1103   2.495   0.230   3.815
   92DSPC   C4B 1104   2.972   0.138   3.644
   93DSPC   NC3 1105   0.039   2.851   6.209
   93DSPC   PO4 1106   7.153   2.794   6.287
   93DSPC   GL1 1107   6.952   2.936   6.622
   93DSPC   GL2 1108   6.777   2.681   6.599
   93DSPC   C1A 1109   6.645   3.223   6.707
   93DSPC   C2A 1110   6.280   3.548   6.845
   93DSPC   C3A 1111   6.022   3.888   7.064
   93DSPC   C4A 1112   5.773   4.242   7.280
   93DSPC   C1B 1113   6.356   2.830   6.603
   93DSPC   C2B 1114   5.966   3.145   6.745
   93DSPC   C3B 1115   5.708   3.556   6.816
   93DSPC   C4B 1116   5.556   4.019   6.861
   94DSPC   NC3 1117   1.960   1.754   2.453
   94DSPC   PO4 1118   1.574   1.780   2.568
   94DSPC   GL1 1119   1.286   1.453   2.476
   94DSPC   GL2 1120   1.243   1.534   2.192
   94DSPC   C1A 1121   0.868   1.320   2.443
   94DSPC   C2A 1122   0.472   1.202   2.126
   94DSPC   C3A 1123   0.250   1.130   1.687
   94DSPC   C4A 1124   7.474   1.143   1.270
   94DSPC   C1B 1125   0.833   1.575   1.985
   94DSPC   C2B 1126   0.320   1.611   1.850
   94DSPC   C3B 1127   7.383   1.505   1.640
   94DSPC   C4B 1128   6.988   1.300   1.396
   95DSPC   NC3 1129   6.734   0.947   4.164
   95DSPC   PO4 1130   6.483   1.174   4.379
   95DSPC   GL1 1131   6.108   1.087   4.561
   95DSPC   GL2 1132   5.981   1.303   4.361
   95DSPC   C1A 1133   5.692   1.056   4.667
   95DSPC   C2A 1134   5.183   0.963   4.653
   95DSPC   C3A 1135   4.730   0.795   4.734
   95DSPC   C4A 1136   4.303   0.591   4.874
   95DSPC   C1B 1137   5.542   1.224   4.220
   95DSPC   C2B 1138   5.086   0.973   4.152
   95DSPC   C3B 1139   4.764   0.628   4.256
   95DSPC   C4B 1140   4.404   0.314   4.419
   96DSPC   NC3 1141   2.050   3.974   5.066
   96DSPC   PO4 1142   1.811   4.227   5.265
   96DSPC   GL1 1143   1.522   4.099   5.548
   96DSPC   GL2 1144   1.429   4.399   5.558
   96DSPC   C1A 1145   1.440   3.922   5.951
   96DSPC   C2A 1146   1.199   3.818   6.398
   96DSPC   C3A 1147   0.868   3.671   6.724
   96DSPC   C4A 1148   0.504   3.583   7.059
   96DSPC   C1B 1149   1.455   4.434   6.001
   96DSPC   C2B 1150   1.446   4.270   6.501
   96DSPC   C3B 1151   1.049   4.155   6.778
   96DSPC   C4B 1152   0.559   4.074   6.852
   97DSPC   NC3 1153   2.364   6.630   7.291
   97DSPC   PO4 1154   2.282   6.992   7.429
   97DSPC   GL1 1155   2.000   7.310   7.327
   97DSPC   GL2 1156   2.139   7.258   7.069
   97DSPC   C1A 1157   1.917   0.252   7.289
   97DSPC   C2A 1158   1.899   0.723   7.059
   97DSPC   C3A 1159   1.887   1.001   6.657
   97DSPC   C4A 1160   1.816   1.231   6.222
   97DSPC   C1B 1161   2.052   0.088   6.812
   97DSPC   C2B 1162   1.925   0.501   6.556
   97DSPC   C3B 1163   1.663   0.718   6.218
   97DSPC   C4B 1164   1.469   0.973   5.844
   98DSPC   NC3 1165   0.186   6.156   1.039
   98DSPC   PO4 1166   0.468   5.984   1.254
   98DSPC   GL1 1167   0.345   5.595   1.303
   98DSPC   GL2 1168   0.536   5.557   1.539
   98DSPC   C1A 1169   7.438   5.425   1.358
   98DSPC   C2A 1170   6.932   5.385   1.392
   98DSPC   C3A 1171   6.465   5.319   1.516
   98DSPC   C4A 1172   5.988   5.201   1.581
   98DSPC   C1B 1173   0.186   5.509   1.786
   98DSPC   C2B 1174   7.226   5.258   1.804
   98DSPC   C3B 1175   6.806   5.017   1.753
   98DSPC   C4B 1176   6.373   4.816   1.595
   99DSPC   NC3 1177   4.011   4.398   6.922
   99DSPC   PO4 1178   3.727   4.667   7.012
   99DSPC   GL1 1179   3.338   4.554   7.038
   99DSPC   GL2 1180   3.254   4.652   7.276
   99DSPC   C1A 1181   2.967   4.546   6.797
   99DSPC   C2A 1182   2.485   4.685   6.640
   99DSPC   C3A 1183   2.095   4.816   6.374
   99DSPC   C4A 1184   1.750   4.903   6.024
   99DSPC   C1B 1185   2.847   4.699   7.271
   99DSPC   C2B 1186   2.382   4.787   7.138
   99DSPC   C3B 1187   2.038   4.960   6.867
   99DSPC   C4B 1188   1.739   5.158   6.520
  100DSPC   NC3 1189   4.409   3.161   0.614
  100DSPC   PO4 1190   4.403   3.566   0.579
  100DSPC   GL1 1191   4.298   3.925   0.454
  100DSPC   GL2 1192   4.461   4.101   0.323
  100DSPC   C1A 1193   4.175   4.228   0.741
  100DSPC   C2A 1194   3.929   4.671   0.767
  100DSPC   C3A 1195   3.591   5.025   0.744
  100DSPC   C4A 1196   3.321   5.450   0.766
  100DSPC   C1B 1197   4.233   4.510   0.331
  100DSPC   C2B 1198   3.913   4.932   0.326
  100DSPC   C3B 1199   3.502   5.236   0.294
  100DSPC   C4B 1200   3.181   5.577   0.079
  101DSPC   NC3 1201   4.267   4.353   2.820
  101DSPC   PO4 1202   4.604   4.361   3.037
  101DSPC   GL1 1203   4.694   4.230   3.408
  101DSPC   GL2 1204   4.919   4.083   3.381
  101DSPC   C1A 1205   4.719   4.397   3.806
  101DSPC   C2A 1206   4.751   4.485   4.310
  101DSPC   C3A 1207   4.913   4.519   4.765
  101DSPC   C4A 1208   5.260   4.609   5.113
  101DSPC   C1B 1209   5.186   4.200   3.699
  101DSPC   C2B 1210   5.239   4.442   4.153
  101DSPC   C3B 1211   5.382   4.594   4.591
  101DSPC   C4B 1212   5.778   4.473   4.872
  102DSPC   NC3 1213   6.505   2.005   1.290
  102DSPC   PO4 1214   6.521   1.933   0.909
  102DSPC   GL1 1215   6.185   1.852   0.658
  102DSPC   GL2 1216   6.398   1.796   0.424
  102DSPC   C1A 1217   5.880   1.507   0.723
  102DSPC   C2A 1218   5.461   1.203   0.767
  102DSPC   C3A 1219   4.994   1.045   0.765
  102DSPC   C4A 1220   4.535   0.861   0.732
  102DSPC   C1B 1221   6.185   1.426   0.321
  102DSPC   C2B 1222   5.772   1.118   0.346
  102DSPC   C3B 1223   5.333   0.894   0.379
  102DSPC   C4B 1224   4.848   0.807   0.328
  103DSPC   NC3 1225   7.311   6.181   4.181
  103DSPC   PO4 1226   7.244   6.578   4.132
  103DSPC   GL1 1227   7.453   6.459   3.805
  103DSPC   GL2 1228   0.195   6.398   4.004
  103DSPC   C1A 1229   0.004   6.145   3.500
  103DSPC   C2A 1230   0.493   5.996   3.441
  103DSPC   C3A 1231   0.968   5.920   3.416
  103DSPC   C4A 1232   1.425   5.782   3.531
  103DSPC   C1B 1233   0.293   5.989   3.905
  103DSPC   C2B 1234   0.638   5.628   3.777
  103DSPC   C3B 1235   1.035   5.420   3.579
  103DSPC   C4B 1236   1.456   5.335   3.337
  104DSPC   NC3 1237   1.169   3.759   1.004
  104DSPC   PO4 1238   0.789   3.847   1.115
  104DSPC   GL1 1239   0.407   3.755   0.906
  104DSPC   GL2 1240   0.450   3.462   0.986
  104DSPC   C1A 1241   7.469   3.654   0.841
  104DSPC   C2A 1242   7.080   3.318   0.794
  104DSPC   C3A 1243   6.753   2.953   0.848
  104DSPC   C4A 1244   6.281   2.771   0.886
  104DSPC   C1B 1245   0.091   3.238   1.146
  104DSPC   C2B 1246   7.136   3.006   1.220
  104DSPC   C3B 1247   6.681   2.898   1.350
  104DSPC   C4B 1248   6.185   2.993   1.336
  105DSPC   NC3 1249   5.949   6.585   1.796
  105DSPC   PO4 1250   6.021   6.387   1.453
  105DSPC   GL1 1251   5.599   6.356   1.329
  105DSPC   GL2 1252   5.495   6.508   1.563
  105DSPC   C1A 1253   5.341   6.021   1.150
  105DSPC   C2A 1254   5.050   5.648   0.922
  105DSPC   C3A 1255   4.739   5.292   0.775
  105DSPC   C4A 1256   4.439   4.903   0.632
  105DSPC   C1B 1257   5.219   6.170   1.648
  105DSPC   C2B 1258   4.970   5.758   1.452
  105DSPC   C3B 1259   4.884   5.304   1.265
  105DSPC   C4B 1260   4.843   4.859   1.016
  106DSPC   NC3 1261   2.783   2.942   6.304
  106DSPC   PO4 1262   2.626   3.178   6.584
  106DSPC   GL1 1263   2.790   3.234   6.978
  106DSPC   GL2 1264   2.811   2.951   7.082
  106DSPC   C1A 1265   3.191   3.431   7.055
  106DSPC   C2A 1266   3.629   3.693   7.152
  106DSPC   C3A 1267   3.994   3.978   7.297
  106DSPC   C4A 1268   4.388   4.287   7.381
  106DSPC   C1B 1269   3.200   2.976   7.281
  106DSPC   C2B 1270   3.665   3.210   7.209
  106DSPC   C3B 1271   4.086   3.467   7.254
  106DSPC   C4B 1272   4.410   3.780   7.482
  107DSPC   NC3 1273   5.994   2.128   1.402
  107DSPC   PO4 1274   5.754   1.820   1.502
  107DSPC   GL1 1275   5.428   1.595   1.390
  107DSPC   GL2 1276   5.290   1.497   1.634
  107DSPC   C1A 1277   5.641   1.235   1.238
  107DSPC   C2A 1278   5.828   0.784   1.067
  107DSPC   C3A 1279   5.865   0.323   0.911
  107DSPC   C4A 1280   5.670   7.394   0.746
  107DSPC   C1B 1281   5.508   1.144   1.715
  107DSPC   C2B 1282   5.905   0.840   1.595
  107DSPC   C3B 1283   5.993   0.392   1.420
  107DSPC   C4B 1284   5.938   7.422   1.239
  108DSPC   NC3 1285   2.777   1.420   2.264
  108DSPC   PO4 1286   2.959   1.079   2.389
  108DSPC   GL1 1287   2.767   0.859   2.723
  108DSPC   GL2 1288   3.031   0.743   2.824
  108DSPC   C1A 1289   2.554   0.476   2.818
  108DSPC   C2A 1290   2.300   0.106   3.078
  108DSPC   C3A 1291   2.105   7.166   3.150
  108DSPC   C4A 1292   2.132   6.674   3.018
  108DSPC   C1B 1293   3.021   0.291   2.943
  108DSPC   C2B 1294   2.781   7.316   3.019
  108DSPC   C3B 1295   2.535   6.942   3.254
  108DSPC   C4B 1296   2.129   6.801   3.521
  109DSPC   NC3 1297   4.954   0.302   0.193
  109DSPC   PO4 1298   5.268   0.110   0.036
  109DSPC   GL1 1299   5.213   0.336   7.175
  109DSPC   GL2 1300   5.318   0.088   7.029
  109DSPC   C1A 1301   5.519   0.651   7.088
  109DSPC   C2A 1302   5.984   0.841   7.190
  109DSPC   C3A 1303   6.437   0.698   7.275
  109DSPC   C4A 1304   6.888   0.481   7.229
  109DSPC   C1B 1305   5.741   0.217   6.953
  109DSPC   C2B 1306   6.194   0.461   6.867
  109DSPC   C3B 1307   6.667   0.393   6.768
  109DSPC   C4B 1308   7.152   0.285   6.754
  110DSPC   NC3 1309   4.913   1.788   1.604
  110DSPC   PO4 1310   4.976   1.555   1.280
  110DSPC   GL1 1311   5.112   1.160   1.381
  110DSPC   GL2 1312   5.234   1.068   1.156
  110DSPC   C1A 1313   5.068   0.845   1.700
  110DSPC   C2A 1314   5.105   0.422   1.996
  110DSPC   C3A 1315   5.255   7.476   1.851
  110DSPC   C4A 1316   5.486   7.018   1.790
  110DSPC   C1B 1317   5.448   0.759   1.398
  110DSPC   C2B 1318   5.578   0.370   1.719
  110DSPC   C3B 1319   5.795   7.429   1.733
  110DSPC   C4B 1320   6.155   7.086   1.638
  111DSPC   NC3 1321   3.107   5.372   1.821
  111DSPC   PO4 1322   2.916   5.615   1.569
  111DSPC   GL1 1323   3.084   5.544   1.179
  111DSPC   GL2 1324   3.071   5.849   1.139
  111DSPC   C1A 1325   2.806   5.445   0.864
  111DSPC   C2A 1326   2.467   5.282   0.531
  111DSPC   C3A 1327   2.094   5.041   0.360
  111DSPC   C4A 1328   1.756   4.812   0.093
  111DSPC   C1B 1329   2.713   5.949   0.871
  111DSPC   C2B 1330   2.429   5.814   0.443
  111DSPC   C3B 1331   2.166   5.518   0.145
  111DSPC   C4B 1332   2.073   5.124   7.357
  112DSPC   NC3 1333   4.501   1.963   3.446
  112DSPC   PO4 1334   4.740   1.755   3.712
  112DSPC   GL1 1335   4.808   1.353   3.714
  112DSPC   GL2 1336   4.834   1.218   3.479
  112DSPC   C1A 1337   5.235   1.280   3.779
  112DSPC   C2A 1338   5.542   0.874   3.829
  112DSPC   C3A 1339   5.897   0.537   3.792
  112DSPC   C4A 1340   6.322   0.279   3.746
  112DSPC   C1B 1341   5.131   0.864   3.506
  112DSPC   C2B 1342   5.582   0.610   3.368
  112DSPC   C3B 1343   6.065   0.504   3.301
  112DSPC   C4B 1344   6.570   0.513   3.354
  113DSPC   NC3 1345   4.306   0.609   3.242
  113DSPC   PO4 1346   4.263   0.404   2.901
  113DSPC   GL1 1347   3.872   0.295   2.725
  113DSPC   GL2 1348   4.033   0.153   2.500
  113DSPC   C1A 1349   3.521   0.083   2.935
  113DSPC   C2A 1350   3.212   7.335   3.279
  113DSPC   C3A 1351   2.919   7.044   3.552
  113DSPC   C4A 1352   2.591   6.687   3.728
  113DSPC   C1B 1353   3.748   7.320   2.552
  113DSPC   C2B 1354   3.356   7.064   2.761
  113DSPC   C3B 1355   3.048   6.856   3.072
  113DSPC   C4B 1356   2.923   6.514   3.402
  114DSPC   NC3 1357   5.353   4.134   6.380
  114DSPC   PO4 1358   5.572   4.460   6.340
  114DSPC   GL1 1359   5.880   4.515   6.608
  114DSPC   GL2 1360   5.692   4.450   6.834
  114DSPC   C1A 1361   6.158   4.335   6.885
  114DSPC   C2A 1362   6.355   4.236   7.350
  114DSPC   C3A 1363   6.712   4.414   0.137
  114DSPC   C4A 1364   7.124   4.632   0.337
  114DSPC   C1B 1365   5.896   4.708   7.136
  114DSPC   C2B 1366   6.318   4.763   7.432
  114DSPC   C3B 1367   6.713   4.921   0.174
  114DSPC   C4B 1368   7.011   5.134   0.487
  115DSPC   NC3 1369   3.921   0.830   4.088
  115DSPC   PO4 1370   3.585   0.649   3.979
  115DSPC   GL1 1371   3.341   0.378   4.176
  115DSPC   GL2 1372   3.192   0.594   4.321
  115DSPC   C1A 1373   3.199   7.487   4.319
  115DSPC   C2A 1374   2.770   7.343   4.565
  115DSPC   C3A 1375   2.332   7.274   4.776
  115DSPC   C4A 1376   1.914   7.295   5.059
  115DSPC   C1B 1377   2.977   0.354   4.634
  115DSPC   C2B 1378   2.697   0.103   5.001
  115DSPC   C3B 1379   2.379   7.350   5.285
  115DSPC   C4B 1380   2.054   7.021   5.481
  116DSPC   NC3 1381   2.554   3.287   5.638
  116DSPC   PO4 1382   2.425   3.570   5.387
  116DSPC   GL1 1383   2.515   3.399   5.027
  116DSPC   GL2 1384   2.769   3.257   5.061
  116DSPC   C1A 1385   2.710   3.561   4.671
  116DSPC   C2A 1386   2.809   3.398   4.186
  116DSPC   C3A 1387   2.767   3.196   3.740
  116DSPC   C4A 1388   2.736   2.924   3.328
  116DSPC   C1B 1389   2.883   3.093   4.638
  116DSPC   C2B 1390   2.719   2.895   4.179
  116DSPC   C3B 1391   2.847   2.679   3.758
  116DSPC   C4B 1392   3.170   2.578   3.387
  117DSPC   NC3 1393   1.007   6.397   3.208
  117DSPC   PO4 1394   0.635   6.544   3.160
  117DSPC   GL1 1395   0.440   6.474   2.769
  117DSPC   GL2 1396   0.379   6.779   2.776
  117DSPC   C1A 1397   0.434   6.445   2.324
  117DSPC   C2A 1398   0.061   6.597   1.991
  117DSPC   C3A 1399   7.121   6.744   1.835
  117DSPC   C4A 1400   6.662   6.802   1.626
  117DSPC   C1B 1401   7.488   7.021   2.782
  117DSPC   C2B 1402   7.078   7.262   2.561
  117DSPC   C3B 1403   6.766   0.072   2.379
  117DSPC   C4B 1404   6.411   0.356   2.172
  118DSPC   NC3 1405   2.670   1.899   7.239
  118DSPC   PO4 1406   2.345   2.100   7.155
  118DSPC   GL1 1407   2.375   2.471   6.908
  118DSPC   GL2 1408   2.222   2.567   7.136
  118DSPC   C1A 1409   2.252   2.620   6.488
  118DSPC   C2A 1410   2.010   2.730   6.042
  118DSPC   C3A 1411   1.735   2.933   5.681
  118DSPC   C4A 1412   1.270   2.956   5.479
  118DSPC   C1B 1413   1.918   2.707   6.868
  118DSPC   C2B 1414   1.674   2.789   6.427
  118DSPC   C3B 1415   1.399   2.874   6.044
  118DSPC   C4B 1416   0.948   2.986   5.916
  119DSPC   NC3 1417   4.118   2.461   4.530
  119DSPC   PO4 1418   4.176   2.234   4.203
  119DSPC   GL1 1419   4.548   2.372   4.288
  119DSPC   GL2 1420   4.509   2.630   4.152
  119DSPC   C1A 1421   4.783   2.486   4.633
  119DSPC   C2A 1422   5.277   2.579   4.733
  119DSPC   C3A 1423   5.757   2.539   4.647
  119DSPC   C4A 1424   6.245   2.621   4.624
  119DSPC   C1B 1425   4.934   2.764   4.212
  119DSPC   C2B 1426   5.442   2.868   4.319
  119DSPC   C3B 1427   5.924   2.946   4.388
  119DSPC   C4B 1428   6.387   3.109   4.496
  120DSPC   NC3 1429   6.912   3.254   6.255
  120DSPC   PO4 1430   7.303   3.297   6.256
  120DSPC   GL1 1431   0.108   3.244   5.951
  120DSPC   GL2 1432   0.267   3.268   6.219
  120DSPC   C1A 1433   0.359   2.923   5.808
  120DSPC   C2A 1434   0.717   2.584   5.707
  120DSPC   C3A 1435   1.180   2.512   5.739
  120DSPC   C4A 1436   1.655   2.439   5.819
  120DSPC   C1B 1437   0.565   2.942   6.265
  120DSPC   C2B 1438   0.900   2.556   6.190
  120DSPC   C3B 1439   1.351   2.397   6.236
  120DSPC   C4B 1440   1.834   2.314   6.297
  121DSPC   NC3 1441   4.926   0.715   1.180
  121DSPC   PO4 1442   4.719   0.378   1.194
  121DSPC   GL1 1443   4.362   0.493   1.028
  121DSPC   GL2 1444   4.399   0.769   1.156
  121DSPC   C1A 1445   4.077   0.617   0.742
  121DSPC   C2A 1446   3.911   1.034   0.495
  121DSPC   C3A 1447   3.679   1.422   0.317
  121DSPC   C4A 1448   3.420   1.827   0.175
  121DSPC   C1B 1449   4.151   1.090   0.986
  121DSPC   C2B 1450   3.756   1.378   0.845
  121DSPC   C3B 1451   3.391   1.634   0.676
  121DSPC   C4B 1452   3.025   1.908   0.497
  122DSPC   NC3 1453   1.479   4.561   5.101
  122DSPC   PO4 1454   1.109   4.646   5.236
  122DSPC   GL1 1455   0.828   4.687   4.915
  122DSPC   GL2 1456   0.654   4.905   5.006
  122DSPC   C1A 1457   0.508   4.425   4.785
  122DSPC   C2A 1458   7.495   4.387   4.725
  122DSPC   C3A 1459   7.008   4.401   4.720
  122DSPC   C4A 1460   6.540   4.219   4.748
  122DSPC   C1B 1461   0.235   4.849   4.807
  122DSPC   C2B 1462   7.328   4.805   4.475
  122DSPC   C3B 1463   6.920   4.654   4.274
  122DSPC   C4B 1464   6.518   4.464   4.072
  123DSPC   NC3 1465   4.765   0.360   2.944
  123DSPC   PO4 1466   5.002   0.063   2.810
  123DSPC   GL1 1467   5.143   0.210   2.422
  123DSPC   GL2 1468   5.148   7.429   2.322
  123DSPC   C1A 1469   5.542   0.297   2.258
  123DSPC   C2A 1470   5.985   0.079   2.166
  123DSPC   C3A 1471   6.390   7.347   2.055
  123DSPC   C4A 1472   6.815   7.106   2.026
  123DSPC   C1B 1473   5.547   7.288   2.207
  123DSPC   C2B 1474   5.974   7.033   2.104
  123DSPC   C3B 1475   6.395   6.790   2.064
  123DSPC   C4B 1476   6.742   6.430   1.984
  124DSPC   NC3 1477   3.612   3.245   2.564
  124DSPC   PO4 1478   3.843   3.056   2.833
  124DSPC   GL1 1479   4.023   3.335   3.153
  124DSPC   GL2 1480   4.165   3.065   3.223
  124DSPC   C1A 1481   4.303   3.650   3.361
  124DSPC   C2A 1482   4.643   3.885   3.709
  124DSPC   C3A 1483   4.912   4.034   4.110
  124DSPC   C4A 1484   5.156   4.122   4.540
  124DSPC   C1B 1485   4.456   3.209   3.508
  124DSPC   C2B 1486   4.860   3.424   3.680
  124DSPC   C3B 1487   5.197   3.709   3.847
  124DSPC   C4B 1488   5.460   4.010   4.114
  125DSPC   NC3 1489   1.236   5.827   6.003
  125DSPC   PO4 1490   1.233   5.513   6.248
  125DSPC   GL1 1491   1.352   5.138   6.110
  125DSPC   GL2 1492   1.076   5.111   5.985
  125DSPC   C1A 1493   1.363   4.784   6.345
  125DSPC   C2A 1494   1.006   4.423   6.353
  125DSPC   C3A 1495   0.738   4.048   6.363
  125DSPC   C4A 1496   0.507   3.631   6.342
  125DSPC   C1B 1497   0.991   4.692   5.932
  125DSPC   C2B 1498   1.010   4.184   5.895
  125DSPC   C3B 1499   0.907   3.727   5.979
  125DSPC   C4B 1500   0.592   3.358   5.894
  126DSPC   NC3 1501   5.414   4.125   5.018
  126DSPC   PO4 1502   5.467   3.809   5.249
  126DSPC   GL1 1503   5.761   3.673   4.978
  126DSPC   GL2 1504   5.611   3.435   4.916
  126DSPC   C1A 1505   6.133   3.521   5.159
  126DSPC   C2A 1506   6.584   3.313   5.301
  126DSPC   C3A 1507   7.045   3.201   5.397
  126DSPC   C4A 1508   0.027   3.087   5.460
  126DSPC   C1B 1509   5.756   3.181   5.261
  126DSPC   C2B 1510   6.210   2.978   5.379
  126DSPC   C3B 1511   6.659   2.798   5.462
  126DSPC   C4B 1512   7.137   2.704   5.346
  127DSPC   NC3 1513   5.333   3.863   2.028
  127DSPC   PO4 1514   5.608   3.577   2.002
  127DSPC   GL1 1515   5.599   3.164   2.017
  127DSPC   GL2 1516   5.826   3.158   2.233
  127DSPC   C1A 1517   5.904   3.000   1.760
  127DSPC   C2A 1518   6.388   2.804   1.766
  127DSPC   C3A 1519   6.833   2.638   1.785
  127DSPC   C4A 1520   7.280   2.472   1.654
  127DSPC   C1B 1521   6.264   3.186   2.081
  127DSPC   C2B 1522   6.755   3.141   1.872
  127DSPC   C3B 1523   7.205   2.989   1.713
  127DSPC   C4B 1524   0.096   2.803   1.441
  128DSPC   NC3 1525   5.246   5.155   7.036
  128DSPC   PO4 1526   5.053   4.996   6.726
  128DSPC   GL1 1527   4.992   4.620   6.847
  128DSPC   GL2 1528   5.245   4.484   6.727
  128DSPC   C1A 1529   4.605   4.391   6.903
  128DSPC   C2A 1530   4.317   3.959   6.921
  128DSPC   C3A 1531   3.977   3.630   6.789
  128DSPC   C4A 1532   3.560   3.351   6.705
  128DSPC   C1B 1533   5.031   4.121   6.780
  128DSPC   C2B 1534   4.730   3.707   6.778
  128DSPC   C3B 1535   4.423   3.340   6.860
  128DSPC   C4B 1536   3.993   3.116   6.808
  129W        W 1537   1.238   3.182   2.822
  130W        W 1538   1.727   3.005   3.003
  131W        W 1539   0.123   0.879   4.090
  132W        W 1540   0.885   7.335   3.464
  133W        W 1541   2.287   1.571   7.346
  134W        W 1542   1.116   3.656   3.531
  135W        W 1543   2.402   2.764   2.349
  136W        W 1544   3.536   1.408   2.891
  137W        W 1545   2.728   2.409   3.239
  138W        W 1546   7.242   0.432   2.234
  139W        W 1547   1.091   2.957   1.973
  140W        W 1548   3.418   1.091   2.100
  141W        W 1549   2.574   1.087   0.352
  142W        W 1550   3.868   1.757   2.788
  143W        W 1551   1.066   3.693   1.516
  144W        W 1552   3.773   1.400   2.413
  145W        W 1553   0.885   3.345   1.056
  146W        W 1554   0.543   3.024   1.299
  147W        W 1555   1.816   3.103   1.586
  148W        W 1556   0.905   1.663   0.277
  149W        W 1557   3.621   3.964   1.695
  150W        W 1558   3.273   1.479   2.411
  151W        W 1559   1.947   1.921   7.457
  152W        W 1560   1.057   1.830   2.575
  153W        W 1561   3.482   2.730   3.014
  154W        W 1562   3.138   1.569   3.184
  155W        W 1563   0.578   3.520   1.451
  156W        W 1564   0.826   0.206   3.853
  157W        W 1565   1.614   3.524   3.968
  158W        W 1566   3.408   2.473   2.151
  159W        W 1567   3.789   0.740   2.234
  160W        W 1568   1.815   2.594   1.517
  161W        W 1569   2.635   1.635   3.130
  162W        W 1570   1.595   2.830   1.997
  163W        W 1571   3.882   1.201   1.924
  164W        W 1572   1.093   1.977   1.740
  165W        W 1573   2.915   1.668   2.716
  166W        W 1574   2.618   3.090   2.877
  167W        W 1575   3.373   1.855   2.740
  168W        W 1576   7.468   1.222   2.086
  169W        W 1577   2.167   2.800   1.846
  170W        W 1578   1.405   3.316   1.792
  171W        W 1579   0.944   1.149   0.190
  172W        W 1580   2.459   1.015   2.295
  173W        W 1581   1.993   3.064   2.253
  174W        W 1582   1.325   2.676   2.852
  175W        W 1583   2.635   2.082   2.852
  176W        W 1584   1.713   1.306   2.401
  177W        W 1585   2.981   1.185   1.861
  178W        W 1586   1.136   4.163   3.049
  179W        W 1587   1.633   2.902   1.124
  180W        W 1588   3.533   3.693   0.505
  181W        W 1589   1.986   1.259   7.074
  182W        W 1590   7.069   0.923   2.209
  183W        W 1591   1.369   2.856   3.336
  184W        W 1592   1.755   1.943   3.045
  185W        W 1593   2.194   2.357   0.054
  186W        W 1594   2.474   1.773   2.461
  187W        W 1595   0.979   3.198   3.283
  188W        W 1596   3.912   0.745   2.731
  189W        W 1597   3.248   3.963   0.877
  190W        W 1598   2.904   2.023   2.355
  191W        W 1599   1.085   2.880   1.131
  192W        W 1600   2.298   0.895   2.804
  193W        W 1601   0.086   0.710   1.939
  194W        W 1602   1.457   3.364   3.245
  195W        W 1603   3.698   4.217   0.818
  196W        W 1604   0.036   0.830   2.429
  197W        W 1605   2.990   0.805   0.489
  198W        W 1606   2.213   1.774   2.889
  199W        W 1607   2.260   1.298   3.114
  200W        W 1608   3.420   2.078   1.771
  201W        W 1609   1.364   2.178   2.802
  202W        W 1610   3.042   0.729   3.298
  203W        W 1611   0.420   7.464   3.642
  204W        W 1612   1.057   3.640   3.021
  205W        W 1613   2.875   0.399   0.794
  206W        W 1614   0.774   7.185   3.949
  207W        W 1615   2.874   1.947   3.459
  208W        W 1616   1.755   7.155   0.620
  209W        W 1617   1.323   0.748   0.314
  210W        W 1618   2.565   0.817   0.833
  211W        W 1619   3.879   4.143   0.325
  212W        W 1620   1.067   2.836   2.454
  213W        W 1621   1.182   2.459   1.923
  214W        W 1622   1.575   2.950   2.502
  215W        W 1623   0.856   2.679   1.580
  216W        W 1624   2.549   0.539   0.390
  217W        W 1625   3.569   1.834   3.206
  218W        W 1626   0.970   3.188   1.536
  219W        W 1627   1.946   2.544   2.224
  220W        W 1628   1.374   3.328   1.266
  221W        W 1629   0.166   3.267   1.642
  222W        W 1630   7.499   0.031   3.932
  223W        W 1631   3.128   2.143   3.065
  224W        W 1632   3.035   3.774   0.430
  225W        W 1633   1.812   1.452   2.885
  226W        W 1634   2.992   2.725   2.920
  227W        W 1635   0.027   0.816   3.574
  228W        W 1636   2.326   2.260   2.463
  229W        W 1637   0.728   2.617   2.113
  230W        W 1638   2.003   2.712   2.686
  231W        W 1639   3.250   2.333   2.614
  232W        W 1640   0.588   3.047   1.838
  233W        W 1641   1.356   2.839   1.554
  234W        W 1642   1.223   1.464   7.389
  235W        W 1643   1.368   3.424   6.095
  236W        W 1644   0.714   1.675   6.853
  237W        W 1645   1.676   0.278   5.893
  238W        W 1646   0.493   0.129   5.657
  239W        W 1647   4.113   1.675   4.817
  240W        W 1648   1.103   0.784   5.157
  241W        W 1649   2.348   3.095   6.084
  242W        W 1650   2.100   3.090   6.548
  243W        W 1651   1.418   2.515   5.266
  244W        W 1652   2.364   2.968   6.971
  245W        W 1653   1.852   2.279   7.130
  246W        W 1654   2.113   2.195   6.696
  247W        W 1655   3.830   2.617   4.946
  248W        W 1656   2.059   0.207   5.558
  249W        W 1657   3.611   1.970   6.446
  250W        W 1658   0.949   0.082   5.887
  251W        W 1659   3.403   1.073   3.230
  252W        W 1660   3.480   0.997   2.595
  253W        W 1661   0.945   2.837   3.652
  254W        W 1662   0.132   0.397   4.251
  255W        W 1663   2.855   0.300   4.147
  256W        W 1664   1.229   1.660   6.908
  257W        W 1665   2.223   1.407   6.629
  258W        W 1666   3.113   0.583   3.804
  259W        W 1667   1.304   3.368   6.628
  260W        W 1668   3.025   3.269   5.459
  261W        W 1669   1.516   3.251   4.607
  262W        W 1670   7.372   2.362   6.118
  263W        W 1671   2.279   3.524   6.349
  264W        W 1672   4.711   6.210   6.443
  265W        W 1673   2.748   3.413   6.108
  266W        W 1674   0.465   0.023   4.160
  267W        W 1675   2.064   3.318   5.704
  268W        W 1676   1.574   3.463   5.608
  269W        W 1677   0.317   0.441   3.792
  270W        W 1678   1.798   0.052   6.355
  271W        W 1679   6.982   2.582   5.832
  272W        W 1680   1.222   0.519   5.908
  273W        W 1681   2.762   1.968   6.287
  274W        W 1682   2.368   2.046   3.309
  275W        W 1683   1.688   0.212   5.201
  276W        W 1684   3.503   0.631   3.473
  277W        W 1685   1.926   0.703   5.772
  278W        W 1686   0.843   0.481   4.776
  279W        W 1687   3.479   0.200   3.751
  280W        W 1688   2.164   0.841   6.239
  281W        W 1689   0.352   0.605   5.537
  282W        W 1690   0.782   3.326   3.743
  283W        W 1691   1.619   1.989   6.779
  284W        W 1692   1.982   7.342   5.929
  285W        W 1693   3.557   2.414   6.682
  286W        W 1694   0.703   0.549   5.909
  287W        W 1695   1.365   3.321   5.109
  288W        W 1696   3.694   1.543   4.348
  289W        W 1697   1.715   2.481   3.097
  290W        W 1698   0.409   3.237   6.664
  291W        W 1699   1.330   7.316   5.115
  292W        W 1700   3.878   0.882   3.214
  293W        W 1701   3.549   0.907   4.430
  294W        W 1702   0.592   0.762   5.116
  295W        W 1703   2.048   1.764   6.942
  296W        W 1704   2.717   2.690   6.734
  297W        W 1705   1.701   1.491   6.676
  298W        W 1706   0.916   2.769   4.552
  299W        W 1707   0.634   0.514   4.234
  300W        W 1708   1.001   2.544   4.087
  301W        W 1709   0.072   3.691   6.056
  302W        W 1710   2.146   0.333   6.081
  303W        W 1711   3.831   2.033   4.550
  304W        W 1712   1.778   3.523   6.510
  305W        W 1713   1.865   3.677   6.025
  306W        W 1714   1.973   0.635   5.258
  307W        W 1715   0.897   3.329   6.312
  308W        W 1716   3.139   3.213   2.784
  309W        W 1717   1.213   0.304   5.077
  310W        W 1718   1.044   3.055   4.117
  311W        W 1719   3.102   2.143   7.305
  312W        W 1720   3.523   2.834   6.947
  313W        W 1721   1.486   0.618   5.468
  314W        W 1722   1.322   0.154   5.561
  315W        W 1723   1.145   2.900   6.472
  316W        W 1724   1.413   2.727   3.836
  317W        W 1725   0.526   0.245   5.133
  318W        W 1726   3.463   0.630   2.963
  319W        W 1727   7.209   3.025   5.841
  320W        W 1728   0.845   1.222   5.147
  321W        W 1729   4.101   1.234   4.323
  322W        W 1730   3.125   2.512   6.955
  323W        W 1731   0.958   1.228   6.997
  324W        W 1732   1.996   1.806   6.402
  325W        W 1733   1.819   3.180   6.128
  326W        W 1734   1.475   1.178   6.993
  327W        W 1735   1.317   2.853   4.871
  328W        W 1736   7.242   7.244   3.554
  329W        W 1737   0.645   6.075   2.965
  330W        W 1738   1.894   6.492   7.422
  331W        W 1739   0.433   5.208   2.083
  332W        W 1740   1.185   5.184   2.950
  333W        W 1741   0.570   6.488   1.166
  334W        W 1742   1.802   5.634   3.812
  335W        W 1743   0.193   5.345   3.058
  336W        W 1744   3.412   5.669   1.512
  337W        W 1745   3.762   5.129   2.516
  338W        W 1746   0.884   6.669   2.746
  339W        W 1747   0.454   6.853   0.300
  340W        W 1748   7.226   6.255   1.765
  341W        W 1749   1.435   6.725   7.391
  342W        W 1750   1.914   6.219   0.354
  343W        W 1751   2.332   5.834   3.336
  344W        W 1752   0.296   5.210   2.569
  345W        W 1753   0.202   6.372   1.522
  346W        W 1754   1.590   4.346   3.230
  347W        W 1755   3.282   4.499   0.867
  348W        W 1756   0.806   3.658   0.634
  349W        W 1757   3.758   3.817   2.193
  350W        W 1758   0.575   4.811   2.401
  351W        W 1759   0.229   6.075   2.600
  352W        W 1760   3.651   4.666   2.268
  353W        W 1761   2.900   4.252   0.594
  354W        W 1762   2.771   5.698   2.053
  355W        W 1763   2.860   5.339   2.831
  356W        W 1764   2.634   6.552   2.973
  357W        W 1765   1.369   7.105   0.285
  358W        W 1766   1.615   5.254   0.261
  359W        W 1767   1.455   4.445   0.627
  360W        W 1768   3.470   4.213   1.273
  361W        W 1769   2.512   6.520   2.420
  362W        W 1770   3.177   6.331   2.969
  363W        W 1771   2.126   3.199   2.737
  364W        W 1772   2.760   5.560   3.280
  365W        W 1773   1.878   4.003   3.522
  366W        W 1774   3.301   4.896   1.733
  367W        W 1775   0.097   6.115   2.087
  368W        W 1776   1.396   4.498   1.807
  369W        W 1777   1.110   4.253   0.970
  370W        W 1778   2.337   6.370   3.390
  371W        W 1779   0.985   5.668   2.861
  372W        W 1780   1.480   4.501   3.966
  373W        W 1781   1.710   4.088   1.869
  374W        W 1782   0.464   4.720   1.910
  375W        W 1783   0.658   4.143   0.729
  376W        W 1784   3.378   4.178   2.132
  377W        W 1785   3.538   5.385   7.326
  378W        W 1786   0.774   4.296   1.362
  379W        W 1787   0.041   5.829   7.289
  380W        W 1788   0.365   6.472   3.584
  381W        W 1789   0.490   5.644   2.746
  382W        W 1790   3.371   5.468   2.678
  383W        W 1791   3.631   5.712   0.243
  384W        W 1792   3.905   4.019   2.948
  385W        W 1793   1.223   4.661   2.973
  386W        W 1794   0.712   4.661   2.890
  387W        W 1795   2.930   6.287   2.187
  388W        W 1796   1.841   6.911   7.126
  389W        W 1797   0.191   6.759   3.195
  390W        W 1798   1.004   4.143   1.816
  391W        W 1799   2.750   6.104   3.192
  392W        W 1800   0.165   7.254   3.264
  393W        W 1801   2.329   5.369   3.035
  394W        W 1802   2.510   5.473   2.458
  395W        W 1803   0.791   5.359   2.451
  396W        W 1804   1.517   4.318   2.713
  397W        W 1805   3.963   3.790   0.727
  398W        W 1806   1.960   5.462   0.613
  399W        W 1807   0.911   5.052   2.066
  400W        W 1808   7.339   6.303   0.704
  401W        W 1809   0.633   6.150   0.782
  402W        W 1810   1.203   6.434   3.733
  403W        W 1811   7.250   5.752   1.906
  404W        W 1812   1.288   4.997   1.726
  405W        W 1813   0.172   5.873   3.077
  406W        W 1814   1.291   4.782   0.253
  407W        W 1815   1.339   4.207   2.226
  408W        W 1816   3.243   5.396   3.191
  409W        W 1817   3.526   5.962   2.773
  410W        W 1818   1.013   4.376   2.583
  411W        W 1819   2.352   6.189   0.065
  412W        W 1820   0.537   6.963   3.529
  413W        W 1821   0.888   4.113   3.489
  414W        W 1822   3.908   3.933   1.213
  415W        W 1823   3.070   5.811   2.936
  416W        W 1824   2.236   7.124   0.421
  417W        W 1825   1.198   4.553   3.496
  418W        W 1826   1.040   4.900   2.550
  419W        W 1827   0.677   5.175   2.909
  420W        W 1828   2.061   5.781   2.849
  421W        W 1829   0.344   5.694   2.258
  422W        W 1830   2.568   5.771   2.860
  423W        W 1831   3.202   5.929   1.908
  424W        W 1832   3.110   5.863   2.429
  425W        W 1833   1.544   6.084   3.896
  426W        W 1834   0.459   5.950   1.774
  427W        W 1835   2.980   6.656   2.598
  428W        W 1836   1.831   6.942   0.147
  429W        W 1837   1.508   6.582   0.365
  430W        W 1838   2.066   6.824   5.939
  431W        W 1839   2.294   4.755   4.157
  432W        W 1840   0.220   4.064   6.410
  433W        W 1841   1.406   4.639   7.251
  434W        W 1842   1.205   7.146   5.572
  435W        W 1843   0.797   4.266   4.401
  436W        W 1844   1.969   3.818   5.547
  437W        W 1845   4.282   4.745   7.160
  438W        W 1846   2.647   6.484   4.188
  439W        W 1847   3.352   5.022   7.023
  440W        W 1848   2.288   5.771   3.860
  441W        W 1849   0.493   7.047   4.385
  442W        W 1850   1.757   6.535   3.800
  443W        W 1851   1.231   3.748   4.833
  444W        W 1852   1.879   4.275   5.776
  445W        W 1853   1.642   4.683   6.760
  446W        W 1854   1.960   4.510   4.873
  447W        W 1855   0.869   7.043   5.183
  448W        W 1856   1.564   4.597   4.569
  449W        W 1857   2.805   5.478   4.276
  450W        W 1858   1.005   3.798   4.385
  451W        W 1859   1.958   3.427   5.224
  452W        W 1860   2.999   6.831   3.993
  453W        W 1861   1.591   5.096   7.076
  454W        W 1862   2.052   6.482   6.921
  455W        W 1863   2.130   5.288   4.035
  456W        W 1864   2.611   5.126   3.945
  457W        W 1865   3.014   6.733   4.489
  458W        W 1866   2.328   5.658   4.368
  459W        W 1867   3.937   5.105   7.220
  460W        W 1868   1.251   6.859   4.876
  461W        W 1869   1.683   7.327   5.532
  462W        W 1870   3.724   5.372   6.844
  463W        W 1871   7.116   3.523   5.833
  464W        W 1872   0.771   3.837   3.916
  465W        W 1873   1.589   4.131   4.807
  466W        W 1874   1.134   4.384   4.771
  467W        W 1875   1.007   4.319   3.940
  468W        W 1876   2.362   3.704   5.879
  469W        W 1877   1.230   4.888   4.799
  470W        W 1878   1.758   6.239   6.575
  471W        W 1879   1.810   4.702   5.454
  472W        W 1880   1.663   6.743   6.680
  473W        W 1881   0.801   4.006   4.868
  474W        W 1882   1.375   4.861   5.680
  475W        W 1883   1.695   5.430   6.026
  476W        W 1884   3.064   4.229   7.200
  477W        W 1885   1.055   6.482   7.120
  478W        W 1886   1.528   3.756   4.408
  479W        W 1887   1.275   6.927   6.393
  480W        W 1888   2.580   6.981   4.279
  481W        W 1889   1.186   6.357   4.696
  482W        W 1890   0.723   6.921   7.008
  483W        W 1891   1.728   4.983   4.987
  484W        W 1892   1.257   6.911   6.942
  485W        W 1893   1.227   4.139   5.202
  486W        W 1894   1.738   5.210   5.536
  487W        W 1895   0.631   5.574   3.236
  488W        W 1896   1.854   5.447   4.445
  489W        W 1897   2.073   6.620   6.408
  490W        W 1898   1.259   5.169   6.652
  491W        W 1899   1.627   6.088   4.586
  492W        W 1900   1.306   5.118   5.249
  493W        W 1901   1.113   4.678   4.324
  494W        W 1902   1.286   5.405   5.700
  495W        W 1903   1.737   4.052   4.027
  496W        W 1904   0.574   5.445   4.355
  497W        W 1905   2.755   5.600   3.780
  498W        W 1906   0.408   5.306   4.837
  499W        W 1907   1.956   4.935   4.524
  500W        W 1908   0.182   3.582   7.495
  501W        W 1909   1.560   6.387   7.034
  502W        W 1910   2.347   5.358   3.552
  503W        W 1911   1.325   4.204   4.345
  504W        W 1912   2.419   5.162   4.449
  505W        W 1913   3.939   6.919   2.836
  506W        W 1914   0.545   6.434   6.940
  507W        W 1915   3.534   3.765   2.662
  508W        W 1916   0.722   7.148   5.720
  509W        W 1917   0.583   6.704   3.983
  510W        W 1918   1.603   6.891   5.280
  511W        W 1919   1.397   6.432   4.226
  512W        W 1920   0.418   7.268   5.310
  513W        W 1921   1.079   5.417   4.264
  514W        W 1922   1.751   7.048   6.276
  515W        W 1923   0.263   6.088   4.387
  516W        W 1924   2.642   6.880   4.806
  517W        W 1925   1.574   7.254   6.722
  518W        W 1926   1.937   5.939   4.199
  519W        W 1927   1.093   5.814   3.895
  520W        W 1928   3.561   3.418   3.051
  521W        W 1929   5.053   1.877   0.869
  522W        W 1930   4.409   0.874   2.792
  523W        W 1931   4.269   0.564   2.411
  524W        W 1932   3.727   3.012   3.345
  525W        W 1933   4.743   1.578   3.237
  526W        W 1934   6.997   1.384   1.924
  527W        W 1935   5.111   2.380   1.742
  528W        W 1936   4.203   2.047   2.572
  529W        W 1937   5.062   1.816   2.897
  530W        W 1938   5.386   2.436   3.091
  531W        W 1939   6.343   1.636   4.205
  532W        W 1940   6.127   2.250   0.930
  533W        W 1941   5.104   2.192   2.545
  534W        W 1942   5.121   2.682   2.703
  535W        W 1943   4.772   3.451   0.260
  536W        W 1944   6.408   1.465   0.770
  537W        W 1945   4.966   2.037   2.084
  538W        W 1946   6.637   1.732   3.773
  539W        W 1947   6.913   1.682   1.102
  540W        W 1948   4.919   7.404   1.393
  541W        W 1949   6.735   0.944   1.840
  542W        W 1950   6.483   0.835   2.282
  543W        W 1951   4.477   1.577   1.470
  544W        W 1952   4.090   2.094   3.106
  545W        W 1953   5.234   2.064   1.317
  546W        W 1954   6.089   1.731   1.117
  547W        W 1955   6.483   1.480   1.302
  548W        W 1956   6.257   1.790   1.663
  549W        W 1957   4.159   1.065   2.369
  550W        W 1958   6.156   3.182   2.605
  551W        W 1959   7.425   0.236   3.473
  552W        W 1960   6.394   0.995   1.466
  553W        W 1961   5.439   2.938   2.392
  554W        W 1962   5.295   2.622   1.328
  555W        W 1963   4.879   0.478   0.707
  556W        W 1964   3.645   2.255   2.932
  557W        W 1965   4.909   2.309   3.002
  558W        W 1966   5.561   2.464   2.587
  559W        W 1967   5.691   7.154   3.012
  560W        W 1968   4.813   1.271   1.693
  561W        W 1969   4.228   1.132   1.489
  562W        W 1970   4.115   3.381   0.976
  563W        W 1971   6.136   1.562   2.115
  564W        W 1972   5.584   2.298   1.616
  565W        W 1973   7.310   3.421   0.343
  566W        W 1974   4.665   1.152   1.200
  567W        W 1975   5.758   0.678   0.580
  568W        W 1976   6.110   1.204   1.100
  569W        W 1977   5.401   0.087   3.157
  570W        W 1978   5.902   7.241   2.551
  571W        W 1979   5.115   0.371   1.512
  572W        W 1980   6.315   0.672   1.081
  573W        W 1981   6.844   1.706   0.592
  574W        W 1982   4.554   1.942   2.948
  575W        W 1983   4.229   1.602   3.114
  576W        W 1984   4.739   1.800   2.488
  577W        W 1985   7.184   1.086   3.294
  578W        W 1986   7.024   2.124   0.873
  579W        W 1987   6.596   1.810   2.059
  580W        W 1988   4.852   3.285   3.195
  581W        W 1989   6.625   2.432   0.940
  582W        W 1990   5.344   2.827   0.860
  583W        W 1991   5.479   7.489   2.666
  584W        W 1992   5.110   2.584   2.207
  585W        W 1993   5.154   3.142   0.449
  586W        W 1994   4.381   1.273   1.951
  587W        W 1995   4.632   0.248   1.676
  588W        W 1996   4.423   2.635   0.586
  589W        W 1997   4.598   0.781   1.557
  590W        W 1998   5.896   2.023   1.945
  591W        W 1999   6.627   1.080   1.004
  592W        W 2000   6.802   1.727   1.600
  593W        W 2001   4.317   3.256   0.137
  594W        W 2002   5.357   1.781   2.320
  595W        W 2003   6.014   3.572   2.306
  596W        W 2004   3.990   2.613   3.116
  597W        W 2005   5.351   1.904   1.798
  598W        W 2006   4.005   1.227   2.849
  599W        W 2007   5.580   1.827   1.013
  600W        W 2008   6.252   0.479   0.600
  601W        W 2009   5.672   1.554   1.930
  602W        W 2010   4.668   1.976   1.194
  603W        W 2011   6.012   1.355   1.587
  604W        W 2012   4.029   2.848   0.335
  605W        W 2013   3.850   0.360   3.194
  606W        W 2014   5.256   3.427   2.347
  607W        W 2015   6.841   1.439   4.150
  608W        W 2016   5.033   1.991   3.382
  609W        W 2017   5.473   2.247   2.135
  610W        W 2018   7.418   3.109   7.451
  611W        W 2019   4.546   2.053   0.665
  612W        W 2020   7.170   1.623   3.371
  613W        W 2021   4.849   3.415   0.766
  614W        W 2022   4.175   0.785   1.879
  615W        W 2023   6.189   0.992   0.650
  616W        W 2024   4.617   1.562   0.895
  617W        W 2025   4.287   1.540   2.557
  618W        W 2026   5.515   2.709   1.910
  619W        W 2027   4.890   2.461   3.484
  620W        W 2028   4.834   2.902   0.767
  621W        W 2029   4.247   2.274   0.266
  622W        W 2030   4.277   1.862   3.874
  623W        W 2031   6.851   0.789   5.645
  624W        W 2032   5.959   1.328   3.903
  625W        W 2033   3.864   1.802   5.267
  626W        W 2034   4.091   1.952   7.373
  627W        W 2035   0.134   0.537   5.088
  628W        W 2036   6.025   2.502   6.060
  629W        W 2037   3.247   1.973   6.075
  630W        W 2038   5.270   2.542   6.583
  631W        W 2039   6.048   1.983   5.374
  632W        W 2040   6.507   2.413   5.903
  633W        W 2041   7.056   0.615   3.475
  634W        W 2042   5.175   3.193   4.636
  635W        W 2043   6.462   1.252   3.863
  636W        W 2044   4.618   1.593   4.576
  637W        W 2045   7.422   0.346   4.683
  638W        W 2046   6.708   1.591   4.600
  639W        W 2047   7.416   3.038   6.672
  640W        W 2048   3.575   2.161   5.006
  641W        W 2049   0.188   0.382   5.980
  642W        W 2050   3.670   2.858   6.458
  643W        W 2051   7.311   0.708   5.424
  644W        W 2052   5.451   3.274   7.173
  645W        W 2053   7.146   1.747   3.892
  646W        W 2054   6.167   2.020   5.886
  647W        W 2055   6.277   2.895   5.854
  648W        W 2056   6.782   0.896   4.694
  649W        W 2057   3.479   2.421   6.189
  650W        W 2058   5.361   0.307   0.517
  651W        W 2059   6.397   2.007   4.599
  652W        W 2060   7.209   0.686   4.378
  653W        W 2061   3.213   3.084   3.275
  654W        W 2062   5.507   2.450   6.099
  655W        W 2063   4.088   2.172   4.984
  656W        W 2064   4.052   2.452   7.319
  657W        W 2065   5.125   3.206   4.067
  658W        W 2066   3.987   2.333   6.422
  659W        W 2067   6.871   2.353   6.283
  660W        W 2068   4.086   2.964   7.291
  661W        W 2069   5.151   3.634   7.478
  662W        W 2070   6.190   2.476   5.507
  663W        W 2071   4.767   2.393   0.299
  664W        W 2072   6.994   1.098   5.227
  665W        W 2073   6.712   3.174   5.798
  666W        W 2074   3.823   4.065   6.581
  667W        W 2075   6.754   0.529   3.882
  668W        W 2076   4.887   7.434   7.244
  669W        W 2077   3.918   2.115   6.897
  670W        W 2078   4.646   1.930   4.201
  671W        W 2079   4.176   1.732   4.330
  672W        W 2080   3.453   4.437   6.615
  673W        W 2081   3.560   2.352   7.180
  674W        W 2082   7.147   0.172   4.282
  675W        W 2083   0.011   0.211   5.479
  676W        W 2084   2.871   3.694   5.162
  677W        W 2085   4.484   0.446   0.375
  678W        W 2086   5.033   3.130   7.436
  679W        W 2087   4.362   0.611   3.967
  680W        W 2088   4.542   2.248   7.329
  681W        W 2089   3.570   4.158   7.025
  682W        W 2090   3.973   2.635   6.850
  683W        W 2091   3.794   1.934   4.010
  684W        W 2092   4.118   2.291   3.595
  685W        W 2093   7.012   0.112   3.793
  686W        W 2094   3.923   4.560   6.445
  687W        W 2095   4.429   2.069   4.633
  688W        W 2096   3.981   0.594   3.637
  689W        W 2097   5.797   2.783   5.659
  690W        W 2098   2.844   3.707   5.682
  691W        W 2099   3.953   1.452   3.883
  692W        W 2100   4.360   1.453   3.582
  693W        W 2101   4.985   3.685   5.370
  694W        W 2102   0.083   7.388   4.459
  695W        W 2103   7.245   0.785   4.884
  696W        W 2104   3.782   2.098   5.951
  697W        W 2105   6.662   2.820   6.177
  698W        W 2106   5.181   2.854   6.999
  699W        W 2107   6.385   3.252   6.232
  700W        W 2108   4.872   2.645   7.354
  701W        W 2109   3.961   1.809   3.509
  702W        W 2110   3.857   6.338   2.602
  703W        W 2111   5.594   5.465   0.479
  704W        W 2112   3.732   4.230   2.515
  705W        W 2113   5.703   6.119   1.741
  706W        W 2114   5.127   6.135   2.563
  707W        W 2115   4.638   4.700   2.660
  708W        W 2116   5.039   5.747   3.305
  709W        W 2117   6.234   7.143   2.939
  710W        W 2118   0.020   5.903   1.496
  711W        W 2119   7.464   5.377   2.213
  712W        W 2120   5.484   6.533   2.019
  713W        W 2121   4.816   6.929   1.155
  714W        W 2122   6.907   0.149   3.304
  715W        W 2123   6.815   6.129   1.037
  716W        W 2124   4.362   6.178   2.683
  717W        W 2125   4.290   4.828   3.018
  718W        W 2126   4.393   3.826   1.017
  719W        W 2127   6.770   7.151   3.340
  720W        W 2128   5.195   3.674   0.481
  721W        W 2129   0.395   6.186   7.451
  722W        W 2130   7.253   6.298   1.249
  723W        W 2131   5.997   3.677   2.818
  724W        W 2132   5.116   4.895   2.859
  725W        W 2133   3.820   5.665   2.470
  726W        W 2134   5.090   6.635   2.776
  727W        W 2135   5.579   5.500   0.996
  728W        W 2136   5.968   5.211   0.725
  729W        W 2137   4.908   7.124   2.559
  730W        W 2138   6.974   5.469   2.287
  731W        W 2139   7.285   5.147   2.633
  732W        W 2140   4.136   6.417   0.464
  733W        W 2141   5.636   4.416   0.828
  734W        W 2142   5.666   3.327   2.641
  735W        W 2143   4.924   4.041   0.192
  736W        W 2144   4.784   5.882   2.873
  737W        W 2145   4.903   3.946   2.955
  738W        W 2146   7.339   5.921   0.262
  739W        W 2147   5.129   4.378   1.028
  740W        W 2148   6.513   3.965   0.288
  741W        W 2149   4.154   4.515   2.362
  742W        W 2150   5.590   3.800   2.471
  743W        W 2151   5.049   4.399   2.774
  744W        W 2152   5.653   5.658   1.495
  745W        W 2153   6.571   0.497   1.650
  746W        W 2154   4.891   5.367   2.962
  747W        W 2155   6.385   5.519   0.815
  748W        W 2156   5.534   3.351   0.178
  749W        W 2157   5.856   4.029   2.107
  750W        W 2158   6.871   0.805   1.359
  751W        W 2159   4.427   3.346   2.939
  752W        W 2160   3.848   4.664   2.778
  753W        W 2161   5.211   3.173   2.829
  754W        W 2162   6.991   5.898   1.474
  755W        W 2163   4.168   3.977   2.467
  756W        W 2164   4.457   6.111   0.712
  757W        W 2165   4.924   7.129   2.022
  758W        W 2166   5.259   5.294   2.575
  759W        W 2167   4.309   2.871   2.818
  760W        W 2168   6.541   6.213   1.479
  761W        W 2169   4.401   3.867   2.914
  762W        W 2170   5.437   7.482   1.357
  763W        W 2171   4.503   0.094   2.581
  764W        W 2172   7.287   5.810   1.051
  765W        W 2173   3.997   3.551   2.735
  766W        W 2174   5.258   4.177   0.567
  767W        W 2175   0.071   4.872   2.242
  768W        W 2176   4.863   6.108   1.047
  769W        W 2177   5.507   6.473   2.531
  770W        W 2178   5.825   6.001   1.153
  771W        W 2179   4.540   5.701   1.017
  772W        W 2180   4.051   5.983   0.186
  773W        W 2181   5.413   5.019   0.301
  774W        W 2182   7.182   3.586   7.368
  775W        W 2183   4.646   4.164   2.547
  776W        W 2184   5.950   5.746   0.720
  777W        W 2185   4.221   5.658   0.551
  778W        W 2186   6.140   4.444   2.250
  779W        W 2187   6.822   3.961   7.365
  780W        W 2188   5.280   6.990   1.339
  781W        W 2189   4.090   6.047   2.238
  782W        W 2190   5.771   6.839   1.385
  783W        W 2191   6.058   5.528   1.192
  784W        W 2192   5.954   0.094   2.944
  785W        W 2193   5.077   6.701   1.738
  786W        W 2194   5.239   6.206   3.054
  787W        W 2195   6.143   5.885   1.552
  788W        W 2196   5.172   7.115   3.005
  789W        W 2197   5.003   5.034   4.726
  790W        W 2198   5.841   3.762   5.610
  791W        W 2199   5.129   4.698   3.748
  792W        W 2200   4.762   4.907   7.143
  793W        W 2201   5.351   5.149   6.327
  794W        W 2202   4.771   5.287   6.406
  795W        W 2203   4.843   5.862   6.805
  796W        W 2204   7.343   6.006   4.686
  797W        W 2205   6.154   3.849   6.052
  798W        W 2206   6.230   4.318   3.659
  799W        W 2207   4.089   7.426   2.917
  800W        W 2208   4.789   6.873   7.009
  801W        W 2209   5.952   5.965   7.046
  802W        W 2210   7.185   5.690   4.294
  803W        W 2211   3.872   4.188   4.162
  804W        W 2212   6.081   4.227   5.681
  805W        W 2213   5.517   6.670   3.035
  806W        W 2214   5.084   4.889   4.244
  807W        W 2215   4.452   4.608   3.458
  808W        W 2216   6.869   6.355   7.227
  809W        W 2217   5.121   5.641   7.149
  810W        W 2218   5.554   4.818   4.057
  811W        W 2219   5.928   4.052   5.181
  812W        W 2220   6.693   5.342   7.382
  813W        W 2221   4.879   6.363   6.933
  814W        W 2222   4.688   3.205   4.498
  815W        W 2223   6.249   3.418   5.735
  816W        W 2224   7.074   6.763   3.683
  817W        W 2225   4.451   5.696   6.542
  818W        W 2226   5.718   3.818   3.736
  819W        W 2227   6.649   3.645   6.028
  820W        W 2228   5.841   6.303   7.407
  821W        W 2229   5.475   5.100   4.504
  822W        W 2230   0.058   3.601   6.566
  823W        W 2231   5.263   4.353   5.919
  824W        W 2232   5.879   4.052   6.491
  825W        W 2233   4.047   4.949   6.746
  826W        W 2234   5.461   5.755   6.351
  827W        W 2235   5.100   4.191   5.435
  828W        W 2236   4.392   7.092   2.635
  829W        W 2237   5.164   5.492   6.662
  830W        W 2238   6.734   6.468   6.379
  831W        W 2239   4.759   3.804   4.563
  832W        W 2240   5.209   6.146   6.594
  833W        W 2241   5.330   3.845   5.746
  834W        W 2242   3.989   5.835   6.819
  835W        W 2243   5.363   5.459   3.561
  836W        W 2244   4.390   4.139   4.083
  837W        W 2245   4.881   5.326   7.456
  838W        W 2246   5.112   4.674   6.331
  839W        W 2247   5.602   6.325   6.889
  840W        W 2248   4.749   6.023   7.278
  841W        W 2249   4.741   5.369   3.468
  842W        W 2250   3.571   4.934   6.574
  843W        W 2251   4.074   4.401   3.734
  844W        W 2252   0.180   5.606   3.524
  845W        W 2253   4.752   5.355   6.922
  846W        W 2254   5.718   4.601   5.863
  847W        W 2255   5.426   6.978   2.579
  848W        W 2256   4.546   4.913   6.692
  849W        W 2257   7.089   3.454   6.706
  850W        W 2258   0.155   5.527   4.043
  851W        W 2259   6.639   0.068   4.137
  852W        W 2260   0.024   3.393   7.029
  853W        W 2261   6.788   7.157   3.855
  854W        W 2262   6.815   6.123   6.755
  855W        W 2263   4.935   5.670   3.844
  856W        W 2264   6.967   6.343   4.518
  857W        W 2265   5.907   6.763   2.711
  858W        W 2266   5.701   4.090   6.002
  859W        W 2267   7.151   7.409   4.735
  860W        W 2268   4.482   6.609   6.683
  861W        W 2269   5.841   4.886   6.296
  862W        W 2270   6.074   4.410   6.182
  863W        W 2271   6.537   3.968   6.933
  864W        W 2272   5.531   4.845   6.704
  865W        W 2273   4.598   4.979   4.382
  866W        W 2274   4.016   6.461   6.904
  867W        W 2275   0.190   5.122   4.378
  868W        W 2276   7.103   3.764   6.295
  869W        W 2277   5.593   4.238   5.514
  870W        W 2278   4.463   5.704   0.067
  871W        W 2279   5.934   5.776   6.573
  872W        W 2280   6.434   6.108   7.093
  873W        W 2281   7.256   7.104   4.063
  874W        W 2282   4.406   5.241   7.327
  875W        W 2283   5.806   5.395   6.230
  876W        W 2284   4.564   5.273   3.953
  877W        W 2285   5.257   6.134   7.219
  878W        W 2286   4.897   4.040   4.995
  879W        W 2287   3.032   6.326   3.868
  880W        W 2288   7.463   6.493   4.580
  881W        W 2289   5.282   3.300   5.198
  882W        W 2290   4.992   6.649   6.532
  883W        W 2291   4.594   7.367   3.037
  884W        W 2292   4.943   5.378   4.307
  885W        W 2293   4.449   6.494   7.196
  886W        W 2294   5.648   5.346   6.727
  887W        W 2295   5.908   5.178   0.190
  888W        W 2296   6.579   6.575   6.861
  889W        W 2297   5.554   5.851   3.274
  890W        W 2298   6.383   0.037   3.270
  891W        W 2299   3.575   4.871   7.476
  892W        W 2300   5.500   5.819   6.870
  893W        W 2301   4.936   5.771   6.302
  894W        W 2302   6.309   6.172   6.602
  895W        W 2303   4.409   6.132   6.844
  896W        W 2304   5.044   4.523   3.276
   7.50000   7.50000   7.50000
