[ moleculetype ]
; Name   nrexcl
ND5R     3
[ atoms ]
;  nr  type  resnr  resid  atom  cgnr  charge    mass
    1     H    1    ND5R    H22    1    0.440   1.0080
    2  OAlc    1    ND5R    O11    2   -0.675  15.9994
    3  CPos    1    ND5R    C12    3    0.170  12.0110
    4    HC    1    ND5R    H13    4    0.020   1.0080
    5    HC    1    ND5R    H14    5    0.083   1.0080
    6     C    1    ND5R     C9    6    0.055  12.0110
    7    HC    1    ND5R     H8    7    0.057   1.0080
    8    OE    1    ND5R     O3    8   -0.227  15.9994
    9     C    1    ND5R     C5    9   -0.039  12.0110
   10    HC    1    ND5R     H4   10    0.112   1.0080
   11  CPos    1    ND5R     C6   11    0.364  12.0110
   12    HC    1    ND5R     H5   12    0.048   1.0080
   13  OAlc    1    ND5R     O6   13   -0.698  15.9994
   14  HS14    1    ND5R    H17   14    0.478   1.0080
   15     C    1    ND5R     C7   15   -0.016  12.0110
   16    HC    1    ND5R     H6   16    0.095   1.0080
   17  OAlc    1    ND5R     O7   17   -0.632  15.9994
   18     H    1    ND5R    H18   18    0.450   1.0080
   19  CPos    1    ND5R     C8   19    0.323  12.0110
   20    HC    1    ND5R     H7   20    0.047   1.0080
   21  OAlc    1    ND5R     O8   21   -0.707  15.9994
   22  HS14    1    ND5R    H19   22    0.443   1.0080
   23    OE    1    ND5R     O2   23   -0.383  15.9994
   24  CPos    1    ND5R     C1   24    0.343  12.0110
   25  CPos    1    ND5R    C10   25    0.145  12.0110
   26    HC    1    ND5R     H9   26    0.081   1.0080
   27    HC    1    ND5R    H10   27    0.049   1.0080
   28  OAlc    1    ND5R     O9   28   -0.637  15.9994
   29     H    1    ND5R    H20   29    0.417   1.0080
   30    OE    1    ND5R     O1   30   -0.419  15.9994
   31  CPos    1    ND5R     C4   31    0.127  12.0110
   32    HC    1    ND5R     H3   32    0.084   1.0080
   33  CPos    1    ND5R    C11   33    0.167  12.0110
   34    HC    1    ND5R    H11   34   -0.014   1.0080
   35    HC    1    ND5R    H12   35    0.064   1.0080
   36  OAlc    1    ND5R    O10   36   -0.622  15.9994
   37  HS14    1    ND5R    H21   37    0.371   1.0080
   38     C    1    ND5R     C3   38    0.008  12.0110
   39    HC    1    ND5R     H2   39    0.093   1.0080
   40  OAlc    1    ND5R     O5   40   -0.647  15.9994
   41     H    1    ND5R    H16   41    0.442   1.0080
   42  CPos    1    ND5R     C2   42    0.353  12.0110
   43    HC    1    ND5R     H1   43    0.035   1.0080
   44  OAlc    1    ND5R     O4   44   -0.712  15.9994
   45     H    1    ND5R    H15   45    0.464   1.0080
; total charge of the molecule:   0.000
[ bonds ]
;  ai   aj  funct   c0         c1
    1    2    2   0.0972   1.9581e+07
    2    3    2   0.1430   8.1800e+06
    3    4    2   0.1100   1.2100e+07
    3    5    2   0.1090   1.2300e+07
    3    6    2   0.1540   4.2166e+06
    6    7    2   0.1090   1.2300e+07
    6    8    2   0.1450   5.2319e+06
    6   19    2   0.1530   7.1500e+06
    8    9    2   0.1430   8.1800e+06
    9   10    2   0.1090   1.2300e+07
    9   11    2   0.1530   7.1500e+06
    9   23    2   0.1410   6.5389e+06
   11   12    2   0.1090   1.2300e+07
   11   13    2   0.1430   8.1800e+06
   11   15    2   0.1530   7.1500e+06
   13   14    2   0.0972   1.9581e+07
   15   16    2   0.1090   1.2300e+07
   15   17    2   0.1430   8.1800e+06
   15   19    2   0.1540   4.2166e+06
   17   18    2   0.0971   7.9547e+06
   19   20    2   0.1090   1.2300e+07
   19   21    2   0.1430   8.1800e+06
   21   22    2   0.0983   9.8314e+06
   23   24    2   0.1430   8.1800e+06
   24   25    2   0.1530   7.1500e+06
   24   30    2   0.1410   6.5389e+06
   24   42    2   0.1530   7.1500e+06
   25   26    2   0.1090   1.2300e+07
   25   27    2   0.1090   1.2300e+07
   25   28    2   0.1420   3.2236e+06
   28   29    2   0.0972   1.9581e+07
   30   31    2   0.1460   4.6913e+06
   31   32    2   0.1090   1.2300e+07
   31   33    2   0.1530   7.1500e+06
   31   38    2   0.1540   4.2166e+06
   33   34    2   0.1090   1.2300e+07
   33   35    2   0.1090   1.2300e+07
   33   36    2   0.1420   3.2236e+06
   36   37    2   0.0972   1.9581e+07
   38   39    2   0.1090   1.2300e+07
   38   40    2   0.1430   8.1800e+06
   38   42    2   0.1530   7.1500e+06
   40   41    2   0.0971   7.9547e+06
   42   43    2   0.1090   1.2300e+07
   42   44    2   0.1410   6.5389e+06
   44   45    2   0.0972   1.9581e+07
[ pairs ]
;  ai   aj  funct  ;  all 1-4 pairs but the ones excluded in GROMOS itp
    1    4    1
    1    5    1
    1    6    1
    2    7    1
    2    8    1
    2   19    1
    3    9    1
    3   15    1
    3   20    1
    3   21    1
    4    7    1
    4    8    1
    4   19    1
    5    7    1
    5    8    1
    5   19    1
    6   10    1
    6   11    1
    6   16    1
    6   17    1
    6   22    1
    6   23    1
    7    9    1
    7   15    1
    7   20    1
    7   21    1
    8   12    1
    8   13    1
    8   15    1
    8   20    1
    8   21    1
    8   24    1
    9   14    1
    9   16    1
    9   17    1
    9   19    1
    9   25    1
    9   30    1
    9   42    1
   10   12    1
   10   13    1
   10   15    1
   10   24    1
   11   18    1
   11   20    1
   11   21    1
   11   24    1
   12   14    1
   12   16    1
   12   17    1
   12   19    1
   12   23    1
   13   16    1
   13   17    1
   13   19    1
   13   23    1
   14   15    1
   15   22    1
   15   23    1
   16   18    1
   16   20    1
   16   21    1
   17   20    1
   17   21    1
   18   19    1
   20   22    1
   23   26    1
   23   27    1
   23   28    1
   23   31    1
   23   38    1
   23   43    1
   23   44    1
   24   29    1
   24   32    1
   24   33    1
   24   39    1
   24   40    1
   24   45    1
   25   31    1
   25   38    1
   25   43    1
   25   44    1
   26   29    1
   26   30    1
   26   42    1
   27   29    1
   27   30    1
   27   42    1
   28   30    1
   28   42    1
   30   34    1
   30   35    1
   30   36    1
   30   39    1
   30   40    1
   30   43    1
   30   44    1
   31   37    1
   31   41    1
   31   43    1
   31   44    1
   32   34    1
   32   35    1
   32   36    1
   32   39    1
   32   40    1
   32   42    1
   33   39    1
   33   40    1
   33   42    1
   34   37    1
   34   38    1
   35   37    1
   35   38    1
   36   38    1
   38   45    1
   39   41    1
   39   43    1
   39   44    1
   40   43    1
   40   44    1
   41   42    1
   43   45    1
[ angles ]
;  ai   aj   ak  funct   angle     fc
    1    2    3    2    109.50   450.00
    2    3    4    2    111.40   532.00
    2    3    5    2    106.00  1733.55
    2    3    6    2    111.00   530.00
    4    3    5    2    108.53   443.00
    4    3    6    2    108.53   443.00
    5    3    6    2    111.00   530.00
    3    6    7    2    108.00   465.00
    3    6    8    2    111.00   530.00
    3    6   19    2    111.00   530.00
    7    6    8    2    103.00   420.00
    7    6   19    2    106.75   503.00
    8    6   19    2    111.00   530.00
    6    8    9    2    117.00   635.00
    8    9   10    2    110.00   285.00
    8    9   11    2    111.00   530.00
    8    9   23    2    107.57   484.00
   10    9   11    2    110.30   524.00
   10    9   23    2    112.00  4899.70
   11    9   23    2    109.50   520.00
    9   11   12    2    107.60   507.00
    9   11   13    2    109.50   520.00
    9   11   15    2    111.00   530.00
   12   11   13    2    110.30   524.00
   12   11   15    2    109.00  1680.51
   13   11   15    2    109.50   520.00
   11   13   14    2    109.50   450.00
   11   15   16    2    108.53   443.00
   11   15   17    2    109.50   520.00
   11   15   19    2    109.50   520.00
   16   15   17    2    111.30   632.00
   16   15   19    2    108.00   465.00
   17   15   19    2    115.00   610.00
   15   17   18    2    109.50   450.00
    6   19   15    2    111.00   530.00
    6   19   20    2    107.57   484.00
    6   19   21    2    111.00   530.00
   15   19   20    2    109.50   285.00
   15   19   21    2    109.50   520.00
   20   19   21    2    106.75   503.00
   19   21   22    2    109.50   450.00
    9   23   24    2    121.40   690.00
   23   24   25    2    111.00   530.00
   23   24   30    2    112.00  4899.70
   23   24   42    2    109.50   520.00
   25   24   30    2    109.50   520.00
   25   24   42    2    111.00   530.00
   30   24   42    2    104.00   490.00
   24   25   26    2    108.53   443.00
   24   25   27    2    110.30   524.00
   24   25   28    2    111.00   530.00
   26   25   27    2    108.53   443.00
   26   25   28    2    107.57   484.00
   27   25   28    2    111.00   530.00
   25   28   29    2    109.50   450.00
   24   30   31    2    109.50   450.00
   30   31   32    2    106.00  1733.55
   30   31   33    2    109.50   520.00
   30   31   38    2    109.50   520.00
   32   31   33    2    111.00   530.00
   32   31   38    2    110.30   524.00
   33   31   38    2    111.00   530.00
   31   33   34    2    109.50   285.00
   31   33   35    2    109.00  1680.51
   31   33   36    2    111.00   530.00
   34   33   35    2    108.00   465.00
   34   33   36    2    110.30   524.00
   35   33   36    2    107.60   507.00
   33   36   37    2    103.00   420.00
   31   38   39    2    110.30   524.00
   31   38   40    2    115.00   610.00
   31   38   42    2    104.00   490.00
   39   38   40    2    110.30   524.00
   39   38   42    2    109.00  1680.51
   40   38   42    2    109.50   520.00
   38   40   41    2    109.50   450.00
   24   42   38    2    104.00   490.00
   24   42   43    2    106.00  1733.55
   24   42   44    2    111.00   530.00
   38   42   43    2    107.00  2726.16
   38   42   44    2    115.00   610.00
   43   42   44    2    111.30   632.00
   42   44   45    2    109.50   450.00
[ dihedrals ]
; GROMOS improper dihedrals
;  ai   aj   ak   al  funct   angle     fc
[ dihedrals ]
;  ai   aj   ak   al  funct    ph0      cp     mult
    1    2    3    6    1      0.00     1.26    3
    2    3    6    8    1      0.00     5.92    3
    6    8    9   23    1      0.00     1.26    3
    8    6   19   21    1      0.00     5.92    3
    8    9   23   24    1      0.00     1.26    3
    9   11   13   14    1      0.00     1.26    3
    9   23   24   30    1      0.00     1.26    3
   11   15   17   18    1      0.00     1.26    3
   13   11   15   17    1      0.00     5.92    3
   15   19   21   22    1      0.00     1.26    3
   17   15   19   21    1      0.00     5.92    3
   19    6    8    9    1      0.00     1.26    3
   23    9   11   13    1      0.00     5.92    3
   23   24   30   31    1      0.00     1.26    3
   24   25   28   29    1      0.00     1.26    3
   24   30   31   38    1    180.00     1.00    3
   24   42   44   45    1      0.00     1.26    3
   30   24   25   28    1      0.00     5.92    3
   30   24   42   44    1      0.00     5.92    3
   30   31   33   36    1      0.00     5.92    3
   30   31   38   40    1    180.00     1.00    3
   31   33   36   37    1      0.00     1.26    3
   40   38   42   44    1    180.00     1.00    3
   42   38   40   41    1      0.00     1.26    3
[ exclusions ]
;  ai   aj  funct  ;  GROMOS 1-4 exclusions
