UNNAMED in water
 2647
    1GLY      N    1   1.383   1.497   1.475
    1GLY     H1    2   1.333   1.522   1.388
    1GLY     H2    3   1.354   1.401   1.506
    1GLY     H3    4   1.360   1.562   1.553
    1GLY     CA    5   1.533   1.497   1.462
    1GLY    HA1    6   1.563   1.408   1.408
    1GLY    HA2    7   1.562   1.589   1.413
    1GLY      C    8   1.600   1.494   1.599
    1GLY    OT1    9   1.530   1.503   1.703
    1GLY    OT2   10   1.725   1.478   1.602
    2SOL     OW   11   0.235   0.661   0.105
    2SOL    HW1   12   0.169   0.613   0.155
    2SOL    HW2   13   0.250   0.607   0.027
    3SOL     OW   14   0.205   0.271   1.000
    3SOL    HW1   15   0.243   0.247   1.085
    3SOL    HW2   16   0.112   0.252   1.010
    4SOL     OW   17   0.008   0.386   0.658
    4SOL    HW1   18   2.925   0.426   0.685
    4SOL    HW2   19   2.983   0.314   0.601
    5SOL     OW   20   0.569   1.282   1.171
    5SOL    HW1   21   0.479   1.280   1.138
    5SOL    HW2   22   0.579   1.370   1.207
    6SOL     OW   23   1.557   1.510   0.704
    6SOL    HW1   24   1.512   1.496   0.787
    6SOL    HW2   25   1.487   1.517   0.640
    7SOL     OW   26   1.131   0.700   0.702
    7SOL    HW1   27   1.181   0.780   0.691
    7SOL    HW2   28   1.082   0.713   0.784
    8SOL     OW   29   1.765   0.594   0.232
    8SOL    HW1   30   1.745   0.580   0.140
    8SOL    HW2   31   1.727   0.519   0.277
    9SOL     OW   32   0.763   1.146   1.038
    9SOL    HW1   33   0.691   1.177   1.093
    9SOL    HW2   34   0.793   1.224   0.991
   10SOL     OW   35   0.859   0.783   1.820
   10SOL    HW1   36   0.851   0.854   1.883
   10SOL    HW2   37   0.885   0.825   1.739
   11SOL     OW   38   0.686   1.007   0.650
   11SOL    HW1   39   0.749   0.993   0.721
   11SOL    HW2   40   0.615   1.057   0.691
   12SOL     OW   41   0.707   1.152   1.808
   12SOL    HW1   42   0.754   1.232   1.832
   12SOL    HW2   43   0.623   1.183   1.775
   13SOL     OW   44   0.332   1.430   1.071
   13SOL    HW1   45   0.266   1.383   1.021
   13SOL    HW2   46   0.383   1.477   1.005
   14SOL     OW   47   0.450   0.402   1.493
   14SOL    HW1   48   0.524   0.341   1.496
   14SOL    HW2   49   0.373   0.346   1.506
   15SOL     OW   50   1.611   0.456   0.735
   15SOL    HW1   51   1.536   0.482   0.683
   15SOL    HW2   52   1.630   0.532   0.790
   16SOL     OW   53   0.219   1.715   0.480
   16SOL    HW1   54   0.241   1.797   0.525
   16SOL    HW2   55   0.288   1.704   0.414
   17SOL     OW   56   1.138   1.337   1.686
   17SOL    HW1   57   1.178   1.339   1.773
   17SOL    HW2   58   1.082   1.260   1.687
   18SOL     OW   59   0.248   1.449   0.530
   18SOL    HW1   60   0.211   1.538   0.526
   18SOL    HW2   61   0.187   1.400   0.585
   19SOL     OW   62   0.257   1.082   0.892
   19SOL    HW1   63   0.253   0.996   0.933
   19SOL    HW2   64   0.196   1.136   0.943
   20SOL     OW   65   0.621   1.788   1.436
   20SOL    HW1   66   0.536   1.770   1.476
   20SOL    HW2   67   0.638   1.880   1.457
   21SOL     OW   68   0.591   0.975   0.148
   21SOL    HW1   69   0.606   1.048   0.087
   21SOL    HW2   70   0.632   1.003   0.230
   22SOL     OW   71   1.550   0.143   1.461
   22SOL    HW1   72   1.589   0.215   1.412
   22SOL    HW2   73   1.619   0.116   1.522
   23SOL     OW   74   0.124   0.628   0.571
   23SOL    HW1   75   0.083   0.551   0.611
   23SOL    HW2   76   0.119   0.695   0.638
   24SOL     OW   77   1.844   1.760   0.337
   24SOL    HW1   78   1.901   1.727   0.406
   24SOL    HW2   79   1.870   1.852   0.326
   25SOL     OW   80   0.021   1.599   0.116
   25SOL    HW1   81   0.020   1.505   0.131
   25SOL    HW2   82   2.989   1.637   0.198
   26SOL     OW   83   1.690   0.919   0.638
   26SOL    HW1   84   1.775   0.879   0.619
   26SOL    HW2   85   1.669   0.969   0.559
   27SOL     OW   86   1.646   1.108   0.432
   27SOL    HW1   87   1.732   1.114   0.389
   27SOL    HW2   88   1.652   1.168   0.506
   28SOL     OW   89   0.128   0.746   1.590
   28SOL    HW1   90   0.223   0.758   1.597
   28SOL    HW2   91   0.094   0.836   1.590
   29SOL     OW   92   0.612   1.381   0.735
   29SOL    HW1   93   0.565   1.298   0.744
   29SOL    HW2   94   0.595   1.410   0.646
   30SOL     OW   95   1.300   1.233   1.422
   30SOL    HW1   96   1.317   1.161   1.361
   30SOL    HW2   97   1.343   1.207   1.503
   31SOL     OW   98   0.819   0.011   0.511
   31SOL    HW1   99   0.848   0.101   0.497
   31SOL    HW2  100   0.724   0.014   0.499
   32SOL     OW  101   0.189   0.958   1.273
   32SOL    HW1  102   0.273   0.918   1.251
   32SOL    HW2  103   0.125   0.912   1.219
   33SOL     OW  104   1.507   1.006   0.209
   33SOL    HW1  105   1.443   0.946   0.246
   33SOL    HW2  106   1.561   1.033   0.283
   34SOL     OW  107   1.204   1.799   1.612
   34SOL    HW1  108   1.198   1.867   1.545
   34SOL    HW2  109   1.145   1.730   1.581
   35SOL     OW  110   0.331   0.253   1.795
   35SOL    HW1  111   0.382   0.329   1.821
   35SOL    HW2  112   0.247   0.263   1.841
   36SOL     OW  113   1.470   1.412   0.958
   36SOL    HW1  114   1.396   1.430   1.015
   36SOL    HW2  115   1.453   1.324   0.923
   37SOL     OW  116   1.662   1.732   0.577
   37SOL    HW1  117   1.638   1.705   0.489
   37SOL    HW2  118   1.636   1.659   0.633
   38SOL     OW  119   0.591   0.720   0.265
   38SOL    HW1  120   0.602   0.802   0.217
   38SOL    HW2  121   0.529   0.740   0.335
   39SOL     OW  122   1.286   0.342   0.930
   39SOL    HW1  123   1.194   0.316   0.938
   39SOL    HW2  124   1.331   0.292   0.998
   40SOL     OW  125   1.583   1.667   0.310
   40SOL    HW1  126   1.671   1.702   0.303
   40SOL    HW2  127   1.558   1.646   0.220
   41SOL     OW  128   0.794   0.618   1.455
   41SOL    HW1  129   0.765   0.595   1.544
   41SOL    HW2  130   0.751   0.553   1.399
   42SOL     OW  131   1.397   0.478   1.677
   42SOL    HW1  132   1.397   0.521   1.763
   42SOL    HW2  133   1.454   0.402   1.688
   43SOL     OW  134   0.960   0.889   1.580
   43SOL    HW1  135   1.012   0.816   1.547
   43SOL    HW2  136   0.911   0.920   1.504
   44SOL     OW  137   0.995   0.423   1.229
   44SOL    HW1  138   0.918   0.436   1.284
   44SOL    HW2  139   0.963   0.371   1.156
   45SOL     OW  140   1.048   0.705   0.425
   45SOL    HW1  141   1.064   0.695   0.519
   45SOL    HW2  142   0.968   0.655   0.409
   46SOL     OW  143   0.103   0.818   0.762
   46SOL    HW1  144   0.180   0.813   0.818
   46SOL    HW2  145   0.041   0.871   0.811
   47SOL     OW  146   0.139   1.833   1.571
   47SOL    HW1  147   0.125   1.814   1.664
   47SOL    HW2  148   0.053   1.862   1.540
   48SOL     OW  149   0.929   0.338   0.220
   48SOL    HW1  150   0.936   0.400   0.147
   48SOL    HW2  151   0.881   0.263   0.184
   49SOL     OW  152   1.712   0.579   1.829
   49SOL    HW1  153   1.674   0.655   1.786
   49SOL    HW2  154   1.734   0.519   1.757
   50SOL     OW  155   1.375   1.141   0.541
   50SOL    HW1  156   1.453   1.128   0.488
   50SOL    HW2  157   1.323   1.205   0.492
   51SOL     OW  158   0.514   0.195   0.914
   51SOL    HW1  159   0.536   0.211   1.006
   51SOL    HW2  160   0.547   0.272   0.867
   52SOL     OW  161   1.010   1.449   0.475
   52SOL    HW1  162   0.967   1.517   0.424
   52SOL    HW2  163   0.989   1.471   0.566
   53SOL     OW  164   0.354   1.805   0.854
   53SOL    HW1  165   0.400   1.722   0.866
   53SOL    HW2  166   0.419   1.872   0.872
   54SOL     OW  167   1.799   1.060   0.867
   54SOL    HW1  168   1.744   1.044   0.790
   54SOL    HW2  169   1.737   1.062   0.940
   55SOL     OW  170   0.320   0.950   0.233
   55SOL    HW1  171   0.411   0.957   0.205
   55SOL    HW2  172   0.293   0.863   0.204
   56SOL     OW  173   1.474   0.739   0.728
   56SOL    HW1  174   1.464   0.693   0.811
   56SOL    HW2  175   1.552   0.794   0.741
   57SOL     OW  176   0.465   1.260   1.735
   57SOL    HW1  177   0.436   1.266   1.644
   57SOL    HW2  178   0.385   1.266   1.786
   58SOL     OW  179   1.110   1.776   0.225
   58SOL    HW1  180   1.051   1.728   0.282
   58SOL    HW2  181   1.141   1.711   0.161
   59SOL     OW  182   0.200   0.296   1.495
   59SOL    HW1  183   0.116   0.342   1.492
   59SOL    HW2  184   0.186   0.224   1.556
   60SOL     OW  185   1.627   1.363   0.084
   60SOL    HW1  186   1.599   1.454   0.075
   60SOL    HW2  187   1.545   1.313   0.078
   61SOL     OW  188   0.467   1.725   0.334
   61SOL    HW1  189   0.499   1.793   0.392
   61SOL    HW2  190   0.533   1.720   0.264
   62SOL     OW  191   1.409   0.107   0.436
   62SOL    HW1  192   1.390   0.081   0.346
   62SOL    HW2  193   1.503   0.126   0.436
   63SOL     OW  194   0.265   1.797   1.233
   63SOL    HW1  195   0.302   1.724   1.282
   63SOL    HW2  196   0.228   1.757   1.155
   64SOL     OW  197   0.938   1.697   0.900
   64SOL    HW1  198   1.015   1.643   0.917
   64SOL    HW2  199   0.890   1.650   0.832
   65SOL     OW  200   0.391   0.692   0.474
   65SOL    HW1  201   0.423   0.603   0.490
   65SOL    HW2  202   0.299   0.691   0.499
   66SOL     OW  203   1.539   0.248   1.734
   66SOL    HW1  204   1.542   0.257   1.829
   66SOL    HW2  205   1.484   0.171   1.719
   67SOL     OW  206   0.610   0.110   0.107
   67SOL    HW1  207   0.705   0.110   0.119
   67SOL    HW2  208   0.597   0.142   0.018
   68SOL     OW  209   0.766   0.270   1.748
   68SOL    HW1  210   0.840   0.213   1.765
   68SOL    HW2  211   0.721   0.278   1.833
   69SOL     OW  212   0.880   1.522   1.193
   69SOL    HW1  213   0.861   1.485   1.107
   69SOL    HW2  214   0.945   1.463   1.230
   70SOL     OW  215   1.343   0.588   1.433
   70SOL    HW1  216   1.372   0.555   1.517
   70SOL    HW2  217   1.378   0.677   1.428
   71SOL     OW  218   0.813   1.398   0.935
   71SOL    HW1  219   0.896   1.390   0.887
   71SOL    HW2  220   0.746   1.396   0.866
   72SOL     OW  221   0.927   0.510   0.903
   72SOL    HW1  222   0.905   0.502   0.810
   72SOL    HW2  223   0.959   0.424   0.927
   73SOL     OW  224   0.541   0.048   0.497
   73SOL    HW1  225   0.454   0.040   0.538
   73SOL    HW2  226   0.534   0.126   0.442
   74SOL     OW  227   1.412   1.208   0.049
   74SOL    HW1  228   1.433   1.133   0.104
   74SOL    HW2  229   1.323   1.232   0.074
   75SOL     OW  230   0.300   0.081   0.196
   75SOL    HW1  231   0.381   0.131   0.189
   75SOL    HW2  232   0.328   2.990   0.201
   76SOL     OW  233   0.944   0.252   0.474
   76SOL    HW1  234   0.920   0.289   0.389
   76SOL    HW2  235   1.039   0.260   0.478
   77SOL     OW  236   1.080   0.679   1.459
   77SOL    HW1  237   1.009   0.615   1.466
   77SOL    HW2  238   1.159   0.626   1.452
   78SOL     OW  239   1.228   1.571   0.796
   78SOL    HW1  240   1.239   1.636   0.727
   78SOL    HW2  241   1.299   1.590   0.858
   79SOL     OW  242   0.467   1.147   0.739
   79SOL    HW1  243   0.395   1.128   0.799
   79SOL    HW2  244   0.430   1.133   0.652
   80SOL     OW  245   1.270   1.795   0.605
   80SOL    HW1  246   1.316   1.856   0.547
   80SOL    HW2  247   1.206   1.849   0.651
   81SOL     OW  248   1.044   0.501   0.029
   81SOL    HW1  249   1.000   0.586   0.019
   81SOL    HW2  250   1.111   0.516   0.095
   82SOL     OW  251   0.081   0.564   1.391
   82SOL    HW1  252   0.170   0.560   1.356
   82SOL    HW2  253   0.085   0.629   1.461
   83SOL     OW  254   0.578   0.214   1.177
   83SOL    HW1  255   0.612   0.164   1.251
   83SOL    HW2  256   0.485   0.225   1.196
   84SOL     OW  257   0.877   0.470   0.638
   84SOL    HW1  258   0.821   0.516   0.576
   84SOL    HW2  259   0.885   0.381   0.602
   85SOL     OW  260   0.999   0.054   0.766
   85SOL    HW1  261   0.963   0.062   0.678
   85SOL    HW2  262   0.976   2.965   0.793
   86SOL     OW  263   1.434   1.163   0.858
   86SOL    HW1  264   1.367   1.094   0.853
   86SOL    HW2  265   1.461   1.177   0.767
   87SOL     OW  266   1.469   0.601   0.981
   87SOL    HW1  267   1.420   0.520   0.987
   87SOL    HW2  268   1.530   0.599   1.055
   88SOL     OW  269   1.845   0.819   0.384
   88SOL    HW1  270   1.902   0.762   0.435
   88SOL    HW2  271   1.820   0.766   0.308
   89SOL     OW  272   0.490   1.406   0.154
   89SOL    HW1  273   0.424   1.375   0.216
   89SOL    HW2  274   0.443   1.412   0.071
   90SOL     OW  275   1.668   1.264   0.653
   90SOL    HW1  276   1.763   1.270   0.662
   90SOL    HW2  277   1.637   1.353   0.670
   91SOL     OW  278   1.413   0.576   0.098
   91SOL    HW1  279   1.341   0.567   0.160
   91SOL    HW2  280   1.461   0.494   0.104
   92SOL     OW  281   0.528   0.263   0.326
   92SOL    HW1  282   0.568   0.212   0.255
   92SOL    HW2  283   0.504   0.346   0.285
   93SOL     OW  284   1.751   1.219   1.583
   93SOL    HW1  285   1.845   1.202   1.577
   93SOL    HW2  286   1.745   1.313   1.599
   94SOL     OW  287   1.061   1.350   1.338
   94SOL    HW1  288   0.982   1.325   1.386
   94SOL    HW2  289   1.132   1.307   1.385
   95SOL     OW  290   1.128   1.207   1.105
   95SOL    HW1  291   1.064   1.235   1.171
   95SOL    HW2  292   1.087   1.228   1.021
   96SOL     OW  293   1.630   1.097   1.075
   96SOL    HW1  294   1.629   1.163   1.144
   96SOL    HW2  295   1.549   1.112   1.027
   97SOL     OW  296   0.901   0.109   1.389
   97SOL    HW1  297   0.941   0.091   1.304
   97SOL    HW2  298   0.966   0.162   1.435
   98SOL     OW  299   0.983   1.115   1.720
   98SOL    HW1  300   0.891   1.129   1.741
   98SOL    HW2  301   0.984   1.036   1.666
   99SOL     OW  302   0.704   1.062   0.378
   99SOL    HW1  303   0.689   1.049   0.472
   99SOL    HW2  304   0.784   1.013   0.359
  100SOL     OW  305   0.419   0.812   1.248
  100SOL    HW1  306   0.487   0.823   1.315
  100SOL    HW2  307   0.382   0.726   1.265
  101SOL     OW  308   1.272   0.388   1.259
  101SOL    HW1  309   1.300   0.459   1.316
  101SOL    HW2  310   1.178   0.401   1.248
  102SOL     OW  311   0.068   1.572   1.309
  102SOL    HW1  312   0.026   1.654   1.335
  102SOL    HW2  313   0.155   1.576   1.349
  103SOL     OW  314   0.362   1.109   0.491
  103SOL    HW1  315   0.349   1.183   0.431
  103SOL    HW2  316   0.355   1.031   0.435
  104SOL     OW  317   0.554   0.541   0.863
  104SOL    HW1  318   0.573   0.596   0.786
  104SOL    HW2  319   0.618   0.569   0.928
  105SOL     OW  320   1.248   1.346   0.396
  105SOL    HW1  321   1.303   1.419   0.423
  105SOL    HW2  322   1.160   1.369   0.426
  106SOL     OW  323   1.275   1.445   1.149
  106SOL    HW1  324   1.318   1.402   1.222
  106SOL    HW2  325   1.206   1.385   1.122
  107SOL     OW  326   1.584   0.627   0.478
  107SOL    HW1  327   1.540   0.685   0.540
  107SOL    HW2  328   1.630   0.687   0.418
  108SOL     OW  329   0.351   1.527   1.322
  108SOL    HW1  330   0.331   1.486   1.238
  108SOL    HW2  331   0.446   1.537   1.322
  109SOL     OW  332   0.411   0.741   1.602
  109SOL    HW1  333   0.468   0.791   1.543
  109SOL    HW2  334   0.458   0.660   1.617
  110SOL     OW  335   1.597   0.775   1.678
  110SOL    HW1  336   1.510   0.815   1.672
  110SOL    HW2  337   1.649   0.820   1.612
  111SOL     OW  338   1.003   0.110   1.762
  111SOL    HW1  339   1.045   0.192   1.736
  111SOL    HW2  340   1.027   0.048   1.693
  112SOL     OW  341   0.503   0.051   1.749
  112SOL    HW1  342   0.471   2.991   1.682
  112SOL    HW2  343   0.434   0.117   1.758
  113SOL     OW  344   0.584   0.871   1.032
  113SOL    HW1  345   0.609   0.964   1.027
  113SOL    HW2  346   0.526   0.866   1.107
  114SOL     OW  347   1.360   0.859   1.035
  114SOL    HW1  348   1.280   0.851   0.984
  114SOL    HW2  349   1.398   0.771   1.034
  115SOL     OW  350   1.206   0.531   0.272
  115SOL    HW1  351   1.214   0.450   0.322
  115SOL    HW2  352   1.164   0.593   0.332
  116SOL     OW  353   0.324   0.207   1.248
  116SOL    HW1  354   0.290   0.250   1.326
  116SOL    HW2  355   0.274   0.125   1.242
  117SOL     OW  356   0.034   1.305   1.279
  117SOL    HW1  357   0.068   1.259   1.356
  117SOL    HW2  358   0.044   1.398   1.299
  118SOL     OW  359   0.727   0.632   1.060
  118SOL    HW1  360   0.799   0.614   1.000
  118SOL    HW2  361   0.698   0.721   1.038
  119SOL     OW  362   1.735   0.956   1.853
  119SOL    HW1  363   1.685   0.907   1.788
  119SOL    HW2  364   1.674   0.970   1.925
  120SOL     OW  365   0.309   0.069   0.641
  120SOL    HW1  366   0.304   0.155   0.682
  120SOL    HW2  367   0.285   0.008   0.711
  121SOL     OW  368   1.614   0.373   0.368
  121SOL    HW1  369   1.645   0.309   0.432
  121SOL    HW2  370   1.589   0.449   0.421
  122SOL     OW  371   1.027   0.760   0.963
  122SOL    HW1  372   1.027   0.777   1.057
  122SOL    HW2  373   1.000   0.668   0.955
  123SOL     OW  374   0.995   1.570   1.708
  123SOL    HW1  375   0.965   1.605   1.624
  123SOL    HW2  376   1.029   1.482   1.686
  124SOL     OW  377   0.355   0.914   1.809
  124SOL    HW1  378   0.437   0.934   1.854
  124SOL    HW2  379   0.380   0.852   1.741
  125SOL     OW  380   1.504   0.300   0.125
  125SOL    HW1  381   1.464   0.215   0.142
  125SOL    HW2  382   1.560   0.315   0.201
  126SOL     OW  383   1.293   0.824   0.034
  126SOL    HW1  384   1.335   0.739   0.049
  126SOL    HW2  385   1.323   0.851   2.948
  127SOL     OW  386   1.068   1.335   0.853
  127SOL    HW1  387   1.067   1.262   0.791
  127SOL    HW2  388   1.128   1.399   0.814
  128SOL     OW  389   0.311   0.808   0.948
  128SOL    HW1  390   0.405   0.828   0.943
  128SOL    HW2  391   0.307   0.721   0.987
  129SOL     OW  392   0.336   0.513   1.016
  129SOL    HW1  393   0.295   0.431   0.991
  129SOL    HW2  394   0.409   0.524   0.956
  130SOL     OW  395   1.141   0.382   1.698
  130SOL    HW1  396   1.096   0.437   1.763
  130SOL    HW2  397   1.228   0.421   1.690
  131SOL     OW  398   1.100   0.255   1.471
  131SOL    HW1  399   1.123   0.306   1.549
  131SOL    HW2  400   1.185   0.235   1.430
  132SOL     OW  401   0.008   1.315   0.173
  132SOL    HW1  402   2.916   1.330   0.151
  132SOL    HW2  403   0.007   1.239   0.231
  133SOL     OW  404   0.098   1.806   0.966
  133SOL    HW1  405   0.056   1.740   0.911
  133SOL    HW2  406   0.183   1.820   0.926
  134SOL     OW  407   0.497   1.572   0.903
  134SOL    HW1  408   0.566   1.634   0.929
  134SOL    HW2  409   0.543   1.507   0.850
  135SOL     OW  410   0.989   0.797   1.229
  135SOL    HW1  411   1.041   0.768   1.305
  135SOL    HW2  412   0.902   0.758   1.243
  136SOL     OW  413   0.045   0.560   1.106
  136SOL    HW1  414   0.133   0.532   1.082
  136SOL    HW2  415   0.039   0.543   1.200
  137SOL     OW  416   0.193   0.517   1.719
  137SOL    HW1  417   0.265   0.493   1.661
  137SOL    HW2  418   0.157   0.597   1.681
  138SOL     OW  419   1.375   0.939   1.661
  138SOL    HW1  420   1.401   1.031   1.664
  138SOL    HW2  421   1.377   0.917   1.568
  139SOL     OW  422   0.819   0.577   0.347
  139SOL    HW1  423   0.821   0.498   0.294
  139SOL    HW2  424   0.736   0.620   0.322
  140SOL     OW  425   1.644   0.603   1.190
  140SOL    HW1  426   1.630   0.543   1.263
  140SOL    HW2  427   1.730   0.579   1.156
  141SOL     OW  428   0.281   1.560   1.747
  141SOL    HW1  429   0.221   1.618   1.794
  141SOL    HW2  430   0.251   1.472   1.767
  142SOL     OW  431   0.693   0.457   1.265
  142SOL    HW1  432   0.647   0.380   1.232
  142SOL    HW2  433   0.695   0.518   1.191
  143SOL     OW  434   0.947   1.685   1.463
  143SOL    HW1  435   0.911   1.646   1.383
  143SOL    HW2  436   0.927   1.778   1.455
  144SOL     OW  437   0.448   0.495   0.200
  144SOL    HW1  438   0.512   0.563   0.218
  144SOL    HW2  439   0.365   0.542   0.190
  145SOL     OW  440   0.161   1.144   1.465
  145SOL    HW1  441   0.146   1.094   1.546
  145SOL    HW2  442   0.168   1.077   1.397
  146SOL     OW  443   1.333   1.054   1.220
  146SOL    HW1  444   1.355   0.987   1.156
  146SOL    HW2  445   1.257   1.099   1.182
  147SOL     OW  446   1.306   0.851   0.311
  147SOL    HW1  447   1.229   0.821   0.359
  147SOL    HW2  448   1.284   0.840   0.219
  148SOL     OW  449   1.740   1.758   1.120
  148SOL    HW1  450   1.820   1.775   1.070
  148SOL    HW2  451   1.734   1.663   1.123
  149SOL     OW  452   1.246   1.729   1.125
  149SOL    HW1  453   1.325   1.751   1.076
  149SOL    HW2  454   1.245   1.634   1.128
  150SOL     OW  455   0.093   1.245   1.027
  150SOL    HW1  456   0.076   1.259   1.120
  150SOL    HW2  457   0.008   1.261   0.985
  151SOL     OW  458   0.681   1.665   1.725
  151SOL    HW1  459   0.623   1.741   1.726
  151SOL    HW2  460   0.734   1.677   1.646
  152SOL     OW  461   0.882   0.082   0.142
  152SOL    HW1  462   0.941   0.064   0.069
  152SOL    HW2  463   0.916   0.028   0.214
  153SOL     OW  464   1.716   0.140   0.507
  153SOL    HW1  465   1.786   0.138   0.442
  153SOL    HW2  466   1.727   0.060   0.558
  154SOL     OW  467   1.390   1.569   0.483
  154SOL    HW1  468   1.451   1.599   0.416
  154SOL    HW2  469   1.344   1.648   0.510
  155SOL     OW  470   0.124   1.799   1.843
  155SOL    HW1  471   0.082   1.729   1.894
  155SOL    HW2  472   0.182   1.842   1.906
  156SOL     OW  473   1.278   0.925   0.672
  156SOL    HW1  474   1.350   0.863   0.676
  156SOL    HW2  475   1.311   0.998   0.619
  157SOL     OW  476   0.818   1.274   1.430
  157SOL    HW1  477   0.792   1.310   1.514
  157SOL    HW2  478   0.744   1.293   1.372
  158SOL     OW  479   0.673   1.608   0.159
  158SOL    HW1  480   0.671   1.627   0.065
  158SOL    HW2  481   0.618   1.531   0.169
  159SOL     OW  482   1.727   1.776   1.392
  159SOL    HW1  483   1.713   1.772   1.298
  159SOL    HW2  484   1.663   1.840   1.423
  160SOL     OW  485   1.849   0.157   0.967
  160SOL    HW1  486   1.854   0.075   0.918
  160SOL    HW2  487   1.767   0.197   0.940
  161SOL     OW  488   0.268   0.335   0.742
  161SOL    HW1  489   0.178   0.365   0.728
  161SOL    HW2  490   0.268   0.303   0.833
  162SOL     OW  491   1.204   1.605   0.033
  162SOL    HW1  492   1.199   1.515   0.066
  162SOL    HW2  493   1.151   1.605   2.954
  163SOL     OW  494   0.824   1.006   1.373
  163SOL    HW1  495   0.864   1.002   1.286
  163SOL    HW2  496   0.825   1.099   1.396
  164SOL     OW  497   0.919   0.926   0.304
  164SOL    HW1  498   0.985   0.962   0.244
  164SOL    HW2  499   0.967   0.859   0.354
  165SOL     OW  500   1.488   1.601   0.050
  165SOL    HW1  501   1.394   1.615   0.053
  165SOL    HW2  502   1.515   1.636   2.965
  166SOL     OW  503   0.375   1.303   1.489
  166SOL    HW1  504   0.356   1.383   1.441
  166SOL    HW2  505   0.298   1.248   1.476
  167SOL     OW  506   1.048   1.105   0.706
  167SOL    HW1  507   0.977   1.054   0.745
  167SOL    HW2  508   1.108   1.040   0.670
  168SOL     OW  509   1.018   0.243   0.965
  168SOL    HW1  510   1.011   0.191   0.884
  168SOL    HW2  511   1.020   0.177   1.035
  169SOL     OW  512   0.602   1.492   0.485
  169SOL    HW1  513   0.640   1.440   0.414
  169SOL    HW2  514   0.537   1.548   0.442
  170SOL     OW  515   1.719   0.391   1.379
  170SOL    HW1  516   1.791   0.454   1.377
  170SOL    HW2  517   1.747   0.321   1.321
  171SOL     OW  518   0.264   1.335   0.293
  171SOL    HW1  519   0.175   1.341   0.259
  171SOL    HW2  520   0.261   1.380   0.377
  172SOL     OW  521   0.124   1.011   1.707
  172SOL    HW1  522   0.049   0.974   1.753
  172SOL    HW2  523   0.201   0.977   1.754
  173SOL     OW  524   0.664   0.209   1.493
  173SOL    HW1  525   0.746   0.180   1.453
  173SOL    HW2  526   0.686   0.225   1.584
  174SOL     OW  527   0.071   0.316   0.050
  174SOL    HW1  528   2.977   0.326   0.032
  174SOL    HW2  529   0.109   0.400   0.022
  175SOL     OW  530   1.432   0.860   1.403
  175SOL    HW1  531   1.384   0.916   1.341
  175SOL    HW2  532   1.522   0.862   1.372
  176SOL     OW  533   0.038   0.186   0.291
  176SOL    HW1  534   0.045   0.244   0.216
  176SOL    HW2  535   0.126   0.149   0.301
  177SOL     OW  536   1.184   1.349   0.124
  177SOL    HW1  537   1.090   1.332   0.114
  177SOL    HW2  538   1.200   1.338   0.218
  178SOL     OW  539   0.617   0.831   1.433
  178SOL    HW1  540   0.672   0.908   1.419
  178SOL    HW2  541   0.679   0.759   1.441
  179SOL     OW  542   1.488   1.770   0.976
  179SOL    HW1  543   1.510   1.830   0.904
  179SOL    HW2  544   1.569   1.761   1.026
  180SOL     OW  545   0.715   0.566   1.708
  180SOL    HW1  546   0.753   0.631   1.767
  180SOL    HW2  547   0.757   0.483   1.734
  181SOL     OW  548   1.467   1.200   1.631
  181SOL    HW1  549   1.452   1.217   1.724
  181SOL    HW2  550   1.562   1.212   1.620
  182SOL     OW  551   0.388   1.737   1.563
  182SOL    HW1  552   0.302   1.776   1.550
  182SOL    HW2  553   0.371   1.656   1.611
  183SOL     OW  554   1.670   0.882   1.255
  183SOL    HW1  555   1.664   0.794   1.216
  183SOL    HW2  556   1.665   0.941   1.180
  184SOL     OW  557   1.226   0.317   0.454
  184SOL    HW1  558   1.287   0.244   0.453
  184SOL    HW2  559   1.249   0.367   0.532
  185SOL     OW  560   0.593   0.741   0.665
  185SOL    HW1  561   0.631   0.828   0.651
  185SOL    HW2  562   0.520   0.737   0.603
  186SOL     OW  563   1.766   0.352   1.645
  186SOL    HW1  564   1.745   0.376   1.555
  186SOL    HW2  565   1.684   0.317   1.681
  187SOL     OW  566   1.739   0.934   1.515
  187SOL    HW1  567   1.749   1.028   1.532
  187SOL    HW2  568   1.729   0.928   1.420
  188SOL     OW  569   0.905   1.386   0.061
  188SOL    HW1  570   0.831   1.387   0.122
  188SOL    HW2  571   0.868   1.417   2.978
  189SOL     OW  572   0.658   1.794   0.949
  189SOL    HW1  573   0.635   1.883   0.924
  189SOL    HW2  574   0.753   1.790   0.939
  190SOL     OW  575   0.866   0.965   0.857
  190SOL    HW1  576   0.915   0.894   0.897
  190SOL    HW2  577   0.832   1.016   0.930
  191SOL     OW  578   1.100   1.020   0.099
  191SOL    HW1  579   1.064   1.054   0.017
  191SOL    HW2  580   1.165   0.956   0.071
  192SOL     OW  581   1.858   1.558   0.845
  192SOL    HW1  582   1.780   1.544   0.791
  192SOL    HW2  583   1.857   1.485   0.907
  193SOL     OW  584   0.226   1.304   1.855
  193SOL    HW1  585   0.174   1.227   1.831
  193SOL    HW2  586   0.210   1.314   1.949
  194SOL     OW  587   0.127   1.251   0.665
  194SOL    HW1  588   0.079   1.186   0.715
  194SOL    HW2  589   0.173   1.201   0.598
  195SOL     OW  590   0.680   1.401   1.626
  195SOL    HW1  591   0.601   1.355   1.652
  195SOL    HW2  592   0.672   1.488   1.665
  196SOL     OW  593   1.797   0.178   1.235
  196SOL    HW1  594   1.842   0.101   1.271
  196SOL    HW2  595   1.823   0.180   1.143
  197SOL     OW  596   0.461   0.433   0.544
  197SOL    HW1  597   0.453   0.371   0.472
  197SOL    HW2  598   0.403   0.399   0.612
  198SOL     OW  599   1.687   1.495   1.121
  198SOL    HW1  600   1.626   1.449   1.064
  198SOL    HW2  601   1.738   1.426   1.162
  199SOL     OW  602   0.331   0.554   1.290
  199SOL    HW1  603   0.387   0.498   1.345
  199SOL    HW2  604   0.351   0.526   1.201
  200SOL     OW  605   0.826   1.576   0.679
  200SOL    HW1  606   0.819   1.625   0.597
  200SOL    HW2  607   0.746   1.524   0.682
  201SOL     OW  608   1.428   0.215   1.127
  201SOL    HW1  609   1.451   0.144   1.188
  201SOL    HW2  610   1.379   0.277   1.180
  202SOL     OW  611   1.013   0.028   1.150
  202SOL    HW1  612   0.936   2.990   1.108
  202SOL    HW2  613   1.082   2.962   1.137
  203SOL     OW  614   0.765   1.329   0.313
  203SOL    HW1  615   0.732   1.240   0.328
  203SOL    HW2  616   0.852   1.330   0.352
  204SOL     OW  617   0.622   1.559   1.284
  204SOL    HW1  618   0.623   1.639   1.335
  204SOL    HW2  619   0.709   1.554   1.244
  205SOL     OW  620   1.356   0.056   0.171
  205SOL    HW1  621   1.412   2.985   0.139
  205SOL    HW2  622   1.267   0.025   0.156
  206SOL     OW  623   1.298   0.460   0.682
  206SOL    HW1  624   1.242   0.537   0.691
  206SOL    HW2  625   1.295   0.419   0.769
  207SOL     OW  626   1.605   0.230   0.887
  207SOL    HW1  627   1.525   0.227   0.938
  207SOL    HW2  628   1.595   0.306   0.829
  208SOL     OW  629   0.070   1.089   0.342
  208SOL    HW1  630   0.148   1.051   0.302
  208SOL    HW2  631   0.004   1.020   0.337
  209SOL     OW  632   0.881   1.651   0.345
  209SOL    HW1  633   0.811   1.629   0.284
  209SOL    HW2  634   0.847   1.725   0.395
  210SOL     OW  635   0.239   0.646   1.973
  210SOL    HW1  636   0.171   0.609   2.028
  210SOL    HW2  637   0.227   0.605   1.887
  211SOL     OW  638   0.236   0.248   2.850
  211SOL    HW1  639   0.252   0.236   2.944
  211SOL    HW2  640   0.141   0.238   2.840
  212SOL     OW  641   0.007   0.385   2.522
  212SOL    HW1  642   2.923   0.423   2.546
  212SOL    HW2  643   2.985   0.313   2.463
  213SOL     OW  644   1.557   1.509   2.567
  213SOL    HW1  645   1.510   1.493   2.648
  213SOL    HW2  646   1.488   1.517   2.500
  214SOL     OW  647   1.132   0.698   2.565
  214SOL    HW1  648   1.183   0.779   2.551
  214SOL    HW2  649   1.083   0.715   2.646
  215SOL     OW  650   1.764   0.607   2.094
  215SOL    HW1  651   1.745   0.599   2.000
  215SOL    HW2  652   1.731   0.525   2.132
  216SOL     OW  653   0.751   1.145   2.895
  216SOL    HW1  654   0.684   1.190   2.946
  216SOL    HW2  655   0.803   1.215   2.855
  217SOL     OW  656   0.685   1.009   2.510
  217SOL    HW1  657   0.749   0.993   2.579
  217SOL    HW2  658   0.614   1.057   2.553
  218SOL     OW  659   0.331   1.452   2.933
  218SOL    HW1  660   0.277   1.388   2.886
  218SOL    HW2  661   0.386   1.491   2.866
  219SOL     OW  662   1.615   0.456   2.593
  219SOL    HW1  663   1.539   0.480   2.540
  219SOL    HW2  664   1.618   0.522   2.662
  220SOL     OW  665   0.221   1.712   2.347
  220SOL    HW1  666   0.242   1.795   2.388
  220SOL    HW2  667   0.279   1.707   2.271
  221SOL     OW  668   0.249   1.446   2.389
  221SOL    HW1  669   0.216   1.536   2.388
  221SOL    HW2  670   0.188   1.398   2.444
  222SOL     OW  671   0.239   1.084   2.748
  222SOL    HW1  672   0.257   1.003   2.796
  222SOL    HW2  673   0.193   1.139   2.812
  223SOL     OW  674   0.589   0.980   1.994
  223SOL    HW1  675   0.630   1.032   1.926
  223SOL    HW2  676   0.631   1.008   2.075
  224SOL     OW  677   0.130   0.624   2.436
  224SOL    HW1  678   0.084   0.550   2.474
  224SOL    HW2  679   0.122   0.693   2.501
  225SOL     OW  680   1.841   1.762   2.203
  225SOL    HW1  681   1.903   1.733   2.269
  225SOL    HW2  682   1.869   1.851   2.181
  226SOL     OW  683   0.031   1.598   1.998
  226SOL    HW1  684   0.021   1.503   2.006
  226SOL    HW2  685   2.977   1.634   2.068
  227SOL     OW  686   1.689   0.917   2.498
  227SOL    HW1  687   1.775   0.880   2.480
  227SOL    HW2  688   1.668   0.969   2.420
  228SOL     OW  689   1.645   1.107   2.292
  228SOL    HW1  690   1.728   1.117   2.247
  228SOL    HW2  691   1.650   1.168   2.366
  229SOL     OW  692   0.609   1.379   2.593
  229SOL    HW1  693   0.562   1.297   2.602
  229SOL    HW2  694   0.593   1.407   2.503
  230SOL     OW  695   0.820   0.010   2.371
  230SOL    HW1  696   0.849   0.099   2.353
  230SOL    HW2  697   0.725   0.013   2.360
  231SOL     OW  698   1.532   0.991   2.058
  231SOL    HW1  699   1.462   0.934   2.088
  231SOL    HW2  700   1.571   1.026   2.139
  232SOL     OW  701   1.435   1.422   2.802
  232SOL    HW1  702   1.415   1.420   2.895
  232SOL    HW2  703   1.443   1.330   2.777
  233SOL     OW  704   1.659   1.734   2.441
  233SOL    HW1  705   1.639   1.706   2.352
  233SOL    HW2  706   1.635   1.659   2.496
  234SOL     OW  707   0.596   0.723   2.125
  234SOL    HW1  708   0.605   0.803   2.073
  234SOL    HW2  709   0.531   0.745   2.192
  235SOL     OW  710   1.294   0.335   2.808
  235SOL    HW1  711   1.199   0.323   2.801
  235SOL    HW2  712   1.317   0.297   2.893
  236SOL     OW  713   1.582   1.668   2.174
  236SOL    HW1  714   1.671   1.703   2.168
  236SOL    HW2  715   1.556   1.654   2.083
  237SOL     OW  716   1.048   0.699   2.290
  237SOL    HW1  717   1.063   0.691   2.384
  237SOL    HW2  718   0.967   0.651   2.275
  238SOL     OW  719   0.104   0.816   2.624
  238SOL    HW1  720   0.182   0.813   2.679
  238SOL    HW2  721   0.047   0.880   2.668
  239SOL     OW  722   0.871   0.353   2.047
  239SOL    HW1  723   0.932   0.411   2.001
  239SOL    HW2  724   0.906   0.265   2.030
  240SOL     OW  725   1.375   1.143   2.404
  240SOL    HW1  726   1.453   1.128   2.351
  240SOL    HW2  727   1.323   1.205   2.352
  241SOL     OW  728   0.557   0.197   2.833
  241SOL    HW1  729   0.506   0.268   2.872
  241SOL    HW2  730   0.574   0.227   2.744
  242SOL     OW  731   1.009   1.446   2.336
  242SOL    HW1  732   0.968   1.517   2.288
  242SOL    HW2  733   0.994   1.467   2.428
  243SOL     OW  734   0.353   1.800   2.713
  243SOL    HW1  735   0.400   1.718   2.728
  243SOL    HW2  736   0.415   1.869   2.737
  244SOL     OW  737   1.805   1.059   2.720
  244SOL    HW1  738   1.744   1.044   2.647
  244SOL    HW2  739   1.749   1.061   2.798
  245SOL     OW  740   0.315   0.949   2.107
  245SOL    HW1  741   0.398   0.976   2.066
  245SOL    HW2  742   0.295   0.864   2.067
  246SOL     OW  743   1.473   0.743   2.589
  246SOL    HW1  744   1.470   0.689   2.668
  246SOL    HW2  745   1.554   0.793   2.597
  247SOL     OW  746   1.120   1.778   2.093
  247SOL    HW1  747   1.050   1.733   2.141
  247SOL    HW2  748   1.143   1.717   2.022
  248SOL     OW  749   1.623   1.377   1.962
  248SOL    HW1  750   1.610   1.454   1.907
  248SOL    HW2  751   1.559   1.314   1.930
  249SOL     OW  752   0.467   1.740   2.182
  249SOL    HW1  753   0.506   1.795   2.250
  249SOL    HW2  754   0.541   1.712   2.127
  250SOL     OW  755   1.408   0.110   2.296
  250SOL    HW1  756   1.392   0.078   2.207
  250SOL    HW2  757   1.502   0.128   2.298
  251SOL     OW  758   0.264   1.798   0.099
  251SOL    HW1  759   0.301   1.727   0.152
  251SOL    HW2  760   0.205   1.755   0.037
  252SOL     OW  761   0.942   1.692   2.757
  252SOL    HW1  762   1.021   1.639   2.761
  252SOL    HW2  763   0.887   1.649   2.692
  253SOL     OW  764   0.392   0.693   2.337
  253SOL    HW1  765   0.424   0.604   2.352
  253SOL    HW2  766   0.300   0.689   2.362
  254SOL     OW  767   0.625   0.121   1.975
  254SOL    HW1  768   0.714   0.088   1.970
  254SOL    HW2  769   0.587   0.102   1.889
  255SOL     OW  770   0.805   1.401   2.790
  255SOL    HW1  771   0.891   1.392   2.751
  255SOL    HW2  772   0.744   1.393   2.716
  256SOL     OW  773   0.920   0.519   2.759
  256SOL    HW1  774   0.903   0.499   2.667
  256SOL    HW2  775   0.951   0.436   2.796
  257SOL     OW  776   0.544   0.060   2.367
  257SOL    HW1  777   0.456   0.043   2.401
  257SOL    HW2  778   0.533   0.130   2.303
  258SOL     OW  779   1.424   1.192   1.899
  258SOL    HW1  780   1.459   1.121   1.952
  258SOL    HW2  781   1.344   1.219   1.943
  259SOL     OW  782   0.291   0.035   2.050
  259SOL    HW1  783   0.343   0.109   2.021
  259SOL    HW2  784   0.355   2.972   2.084
  260SOL     OW  785   0.938   0.253   2.325
  260SOL    HW1  786   0.909   0.298   2.246
  260SOL    HW2  787   1.033   0.264   2.326
  261SOL     OW  788   1.219   1.584   2.669
  261SOL    HW1  789   1.244   1.641   2.596
  261SOL    HW2  790   1.301   1.569   2.716
  262SOL     OW  791   0.462   1.145   2.602
  262SOL    HW1  792   0.389   1.129   2.662
  262SOL    HW2  793   0.426   1.129   2.515
  263SOL     OW  794   1.272   1.795   2.466
  263SOL    HW1  795   1.316   1.856   2.407
  263SOL    HW2  796   1.207   1.849   2.513
  264SOL     OW  797   1.023   0.550   1.883
  264SOL    HW1  798   0.984   0.635   1.865
  264SOL    HW2  799   1.088   0.567   1.951
  265SOL     OW  800   0.874   0.467   2.497
  265SOL    HW1  801   0.823   0.515   2.433
  265SOL    HW2  802   0.886   0.380   2.459
  266SOL     OW  803   0.999   0.048   2.624
  266SOL    HW1  804   0.964   0.056   2.535
  266SOL    HW2  805   0.976   2.960   2.652
  267SOL     OW  806   1.438   1.160   2.713
  267SOL    HW1  807   1.364   1.100   2.706
  267SOL    HW2  808   1.465   1.177   2.623
  268SOL     OW  809   1.489   0.585   2.820
  268SOL    HW1  810   1.424   0.514   2.827
  268SOL    HW2  811   1.510   0.607   2.911
  269SOL     OW  812   1.849   0.818   2.244
  269SOL    HW1  813   1.905   0.765   2.300
  269SOL    HW2  814   1.818   0.758   2.177
  270SOL     OW  815   0.492   1.411   2.025
  270SOL    HW1  816   0.416   1.383   2.075
  270SOL    HW2  817   0.467   1.399   1.933
  271SOL     OW  818   1.668   1.265   2.512
  271SOL    HW1  819   1.763   1.271   2.523
  271SOL    HW2  820   1.636   1.353   2.531
  272SOL     OW  821   1.394   0.572   1.933
  272SOL    HW1  822   1.333   0.553   2.005
  272SOL    HW2  823   1.478   0.537   1.963
  273SOL     OW  824   0.526   0.264   2.183
  273SOL    HW1  825   0.565   0.211   2.113
  273SOL    HW2  826   0.508   0.349   2.143
  274SOL     OW  827   1.647   1.104   2.931
  274SOL    HW1  828   1.648   1.171   3.000
  274SOL    HW2  829   1.562   1.112   2.890
  275SOL     OW  830   0.708   1.060   2.234
  275SOL    HW1  831   0.695   1.046   2.328
  275SOL    HW2  832   0.784   1.006   2.212
  276SOL     OW  833   0.352   1.107   2.354
  276SOL    HW1  834   0.356   1.180   2.293
  276SOL    HW2  835   0.357   1.029   2.299
  277SOL     OW  836   0.547   0.546   2.731
  277SOL    HW1  837   0.568   0.593   2.651
  277SOL    HW2  838   0.617   0.568   2.792
  278SOL     OW  839   1.247   1.347   2.251
  278SOL    HW1  840   1.303   1.419   2.281
  278SOL    HW2  841   1.161   1.369   2.285
  279SOL     OW  842   1.584   0.627   2.339
  279SOL    HW1  843   1.539   0.685   2.400
  279SOL    HW2  844   1.627   0.686   2.277
  280SOL     OW  845   0.576   0.871   2.880
  280SOL    HW1  846   0.617   0.955   2.856
  280SOL    HW2  847   0.551   0.883   2.971
  281SOL     OW  848   1.210   0.534   2.133
  281SOL    HW1  849   1.215   0.453   2.183
  281SOL    HW2  850   1.165   0.595   2.192
  282SOL     OW  851   0.731   0.641   2.918
  282SOL    HW1  852   0.798   0.615   2.855
  282SOL    HW2  853   0.699   0.725   2.885
  283SOL     OW  854   0.309   0.068   2.504
  283SOL    HW1  855   0.301   0.154   2.545
  283SOL    HW2  856   0.283   0.007   2.572
  284SOL     OW  857   1.607   0.373   2.232
  284SOL    HW1  858   1.646   0.312   2.295
  284SOL    HW2  859   1.588   0.451   2.284
  285SOL     OW  860   1.021   0.763   2.819
  285SOL    HW1  861   1.025   0.771   2.915
  285SOL    HW2  862   0.995   0.672   2.804
  286SOL     OW  863   1.530   0.274   1.994
  286SOL    HW1  864   1.468   0.208   2.023
  286SOL    HW2  865   1.565   0.311   2.075
  287SOL     OW  866   1.294   0.827   1.896
  287SOL    HW1  867   1.336   0.741   1.900
  287SOL    HW2  868   1.324   0.865   1.814
  288SOL     OW  869   1.052   1.347   2.698
  288SOL    HW1  870   1.064   1.265   2.650
  288SOL    HW2  871   1.128   1.400   2.675
  289SOL     OW  872   0.311   0.811   2.812
  289SOL    HW1  873   0.404   0.830   2.809
  289SOL    HW2  874   0.306   0.722   2.847
  290SOL     OW  875   0.321   0.518   2.873
  290SOL    HW1  876   0.291   0.431   2.849
  290SOL    HW2  877   0.400   0.532   2.820
  291SOL     OW  878   2.995   1.319   2.040
  291SOL    HW1  879   2.902   1.324   2.019
  291SOL    HW2  880   0.004   1.238   2.091
  292SOL     OW  881   0.094   1.819   2.810
  292SOL    HW1  882   0.057   1.740   2.770
  292SOL    HW2  883   0.184   1.821   2.779
  293SOL     OW  884   0.504   1.574   2.761
  293SOL    HW1  885   0.573   1.635   2.785
  293SOL    HW2  886   0.548   1.506   2.710
  294SOL     OW  887   0.978   0.753   0.087
  294SOL    HW1  888   1.028   0.751   0.169
  294SOL    HW2  889   0.888   0.773   0.114
  295SOL     OW  890   0.815   0.569   2.215
  295SOL    HW1  891   0.817   0.495   2.155
  295SOL    HW2  892   0.740   0.621   2.186
  296SOL     OW  893   0.699   0.439   0.092
  296SOL    HW1  894   0.604   0.427   0.097
  296SOL    HW2  895   0.711   0.515   0.036
  297SOL     OW  896   0.467   0.494   2.049
  297SOL    HW1  897   0.528   0.566   2.067
  297SOL    HW2  898   0.381   0.536   2.042
  298SOL     OW  899   1.308   0.857   2.170
  298SOL    HW1  900   1.231   0.826   2.218
  298SOL    HW2  901   1.287   0.842   2.078
  299SOL     OW  902   1.735   1.767   2.971
  299SOL    HW1  903   1.813   1.789   2.920
  299SOL    HW2  904   1.761   1.689   0.021
  300SOL     OW  905   0.073   1.247   2.902
  300SOL    HW1  906   0.047   1.275   2.990
  300SOL    HW2  907   0.002   1.276   2.845
  301SOL     OW  908   1.721   0.143   2.368
  301SOL    HW1  909   1.784   0.136   2.296
  301SOL    HW2  910   1.731   0.061   2.416
  302SOL     OW  911   1.390   1.567   2.345
  302SOL    HW1  912   1.452   1.596   2.278
  302SOL    HW2  913   1.344   1.647   2.371
  303SOL     OW  914   1.277   0.926   2.532
  303SOL    HW1  915   1.349   0.864   2.539
  303SOL    HW2  916   1.311   0.998   2.480
  304SOL     OW  917   0.673   1.615   2.017
  304SOL    HW1  918   0.679   1.627   1.923
  304SOL    HW2  919   0.619   1.537   2.028
  305SOL     OW  920   1.853   0.162   2.815
  305SOL    HW1  921   1.852   0.076   2.773
  305SOL    HW2  922   1.767   0.199   2.795
  306SOL     OW  923   0.270   0.335   2.600
  306SOL    HW1  924   0.181   0.368   2.590
  306SOL    HW2  925   0.274   0.302   2.690
  307SOL     OW  926   1.201   1.607   1.895
  307SOL    HW1  927   1.200   1.515   1.923
  307SOL    HW2  928   1.135   1.612   1.826
  308SOL     OW  929   0.915   0.910   2.152
  308SOL    HW1  930   0.977   0.941   2.085
  308SOL    HW2  931   0.961   0.839   2.196
  309SOL     OW  932   1.488   1.652   1.911
  309SOL    HW1  933   1.394   1.632   1.908
  309SOL    HW2  934   1.524   1.611   1.833
  310SOL     OW  935   1.050   1.104   2.569
  310SOL    HW1  936   0.977   1.053   2.605
  310SOL    HW2  937   1.110   1.039   2.533
  311SOL     OW  938   1.016   0.246   2.810
  311SOL    HW1  939   1.010   0.182   2.740
  311SOL    HW2  940   1.042   0.195   2.887
  312SOL     OW  941   0.602   1.490   2.343
  312SOL    HW1  942   0.640   1.439   2.271
  312SOL    HW2  943   0.532   1.541   2.302
  313SOL     OW  944   0.254   1.345   2.144
  313SOL    HW1  945   0.160   1.344   2.128
  313SOL    HW2  946   0.263   1.384   2.231
  314SOL     OW  947   0.097   0.326   1.912
  314SOL    HW1  948   0.013   0.297   1.877
  314SOL    HW2  949   0.111   0.412   1.872
  315SOL     OW  950   0.021   0.215   2.147
  315SOL    HW1  951   0.064   0.262   2.075
  315SOL    HW2  952   0.080   0.143   2.168
  316SOL     OW  953   1.180   1.342   1.979
  316SOL    HW1  954   1.089   1.312   1.983
  316SOL    HW2  955   1.210   1.342   2.070
  317SOL     OW  956   1.503   1.779   2.830
  317SOL    HW1  957   1.518   1.832   2.751
  317SOL    HW2  958   1.585   1.787   2.879
  318SOL     OW  959   1.718   0.852   0.066
  318SOL    HW1  960   1.638   0.811   0.098
  318SOL    HW2  961   1.694   0.942   0.046
  319SOL     OW  962   1.223   0.317   2.317
  319SOL    HW1  963   1.285   0.245   2.316
  319SOL    HW2  964   1.246   0.368   2.395
  320SOL     OW  965   0.592   0.742   2.528
  320SOL    HW1  966   0.632   0.827   2.512
  320SOL    HW2  967   0.521   0.736   2.464
  321SOL     OW  968   0.862   1.370   1.891
  321SOL    HW1  969   0.822   1.391   1.975
  321SOL    HW2  970   0.881   1.455   1.852
  322SOL     OW  971   0.662   1.796   2.821
  322SOL    HW1  972   0.638   1.883   2.790
  322SOL    HW2  973   0.756   1.789   2.805
  323SOL     OW  974   0.862   0.964   2.716
  323SOL    HW1  975   0.914   0.894   2.755
  323SOL    HW2  976   0.832   1.017   2.791
  324SOL     OW  977   1.078   0.987   1.949
  324SOL    HW1  978   1.059   1.038   1.871
  324SOL    HW2  979   1.155   0.935   1.926
  325SOL     OW  980   1.856   1.558   2.712
  325SOL    HW1  981   1.780   1.545   2.654
  325SOL    HW2  982   1.861   1.478   2.763
  326SOL     OW  983   0.126   1.250   2.524
  326SOL    HW1  984   0.089   1.184   2.583
  326SOL    HW2  985   0.182   1.199   2.465
  327SOL     OW  986   1.812   0.190   0.083
  327SOL    HW1  987   1.832   0.105   0.121
  327SOL    HW2  988   1.829   0.178   2.989
  328SOL     OW  989   0.461   0.434   2.402
  328SOL    HW1  990   0.454   0.370   2.331
  328SOL    HW2  991   0.407   0.399   2.472
  329SOL     OW  992   0.820   1.583   2.539
  329SOL    HW1  993   0.818   1.623   2.452
  329SOL    HW2  994   0.743   1.526   2.541
  330SOL     OW  995   0.773   1.331   2.170
  330SOL    HW1  996   0.738   1.243   2.178
  330SOL    HW2  997   0.854   1.330   2.220
  331SOL     OW  998   1.346   0.048   2.029
  331SOL    HW1  999   1.410   2.988   1.991
  331SOL    HW2 1000   1.266   2.996   2.036
  332SOL     OW 1001   1.298   0.457   2.548
  332SOL    HW1 1002   1.243   0.535   2.555
  332SOL    HW2 1003   1.295   0.417   2.635
  333SOL     OW 1004   1.600   0.235   2.751
  333SOL    HW1 1005   1.509   0.228   2.780
  333SOL    HW2 1006   1.600   0.309   2.689
  334SOL     OW 1007   0.063   1.081   2.162
  334SOL    HW1 1008   0.152   1.045   2.163
  334SOL    HW2 1009   0.008   1.013   2.201
  335SOL     OW 1010   0.880   1.649   2.207
  335SOL    HW1 1011   0.809   1.631   2.146
  335SOL    HW2 1012   0.851   1.726   2.256
  336SOL     OW 1013   0.234   2.517   0.099
  336SOL    HW1 1014   0.169   2.471   0.151
  336SOL    HW2 1015   0.248   2.461   0.022
  337SOL     OW 1016   0.212   2.137   0.990
  337SOL    HW1 1017   0.246   2.108   1.075
  337SOL    HW2 1018   0.126   2.096   0.983
  338SOL     OW 1019   0.015   2.248   0.646
  338SOL    HW1 1020   2.929   2.282   0.670
  338SOL    HW2 1021   2.996   2.165   0.601
  339SOL     OW 1022   1.134   2.568   0.703
  339SOL    HW1 1023   1.180   2.651   0.694
  339SOL    HW2 1024   1.081   2.578   0.783
  340SOL     OW 1025   1.762   2.456   0.229
  340SOL    HW1 1026   1.746   2.436   0.136
  340SOL    HW2 1027   1.726   2.380   0.275
  341SOL     OW 1028   0.759   0.011   1.033
  341SOL    HW1 1029   0.677   0.043   1.069
  341SOL    HW2 1030   0.784   0.076   0.968
  342SOL     OW 1031   0.866   2.640   1.822
  342SOL    HW1 1032   0.844   2.705   1.889
  342SOL    HW2 1033   0.888   2.692   1.745
  343SOL     OW 1034   0.652   2.850   0.709
  343SOL    HW1 1035   0.746   2.855   0.724
  343SOL    HW2 1036   0.629   2.933   0.667
  344SOL     OW 1037   0.473   2.271   1.489
  344SOL    HW1 1038   0.541   2.205   1.493
  344SOL    HW2 1039   0.392   2.223   1.504
  345SOL     OW 1040   1.613   2.310   0.739
  345SOL    HW1 1041   1.537   2.337   0.688
  345SOL    HW2 1042   1.635   2.388   0.791
  346SOL     OW 1043   0.215   0.314   0.464
  346SOL    HW1 1044   0.215   0.387   0.526
  346SOL    HW2 1045   0.196   0.237   0.518
  347SOL     OW 1046   0.232   2.944   0.877
  347SOL    HW1 1047   0.258   2.864   0.922
  347SOL    HW2 1048   0.201   0.002   0.948
  348SOL     OW 1049   0.615   2.832   0.148
  348SOL    HW1 1050   0.600   2.924   0.125
  348SOL    HW2 1051   0.677   2.835   0.221
  349SOL     OW 1052   1.573   1.990   1.464
  349SOL    HW1 1053   1.590   2.071   1.416
  349SOL    HW2 1054   1.576   2.016   1.556
  350SOL     OW 1055   0.120   2.496   0.565
  350SOL    HW1 1056   0.094   2.411   0.602
  350SOL    HW2 1057   0.115   2.557   0.639
  351SOL     OW 1058   1.700   2.806   0.622
  351SOL    HW1 1059   1.777   2.750   0.633
  351SOL    HW2 1060   1.693   2.820   0.528
  352SOL     OW 1061   0.128   2.608   1.588
  352SOL    HW1 1062   0.222   2.621   1.598
  352SOL    HW2 1063   0.090   2.695   1.606
  353SOL     OW 1064   0.659   0.240   0.685
  353SOL    HW1 1065   0.595   0.176   0.715
  353SOL    HW2 1066   0.611   0.297   0.625
  354SOL     OW 1067   1.303   0.053   1.445
  354SOL    HW1 1068   1.326   2.996   1.371
  354SOL    HW2 1069   1.384   0.099   1.466
  355SOL     OW 1070   0.813   1.861   0.507
  355SOL    HW1 1071   0.852   1.947   0.492
  355SOL    HW2 1072   0.719   1.879   0.515
  356SOL     OW 1073   0.190   2.835   1.256
  356SOL    HW1 1074   0.274   2.789   1.249
  356SOL    HW2 1075   0.125   2.770   1.231
  357SOL     OW 1076   1.524   2.842   0.204
  357SOL    HW1 1077   1.453   2.797   0.250
  357SOL    HW2 1078   1.588   2.862   0.272
  358SOL     OW 1079   0.335   2.112   1.805
  358SOL    HW1 1080   0.382   2.193   1.824
  358SOL    HW2 1081   0.249   2.124   1.845
  359SOL     OW 1082   0.593   2.582   0.268
  359SOL    HW1 1083   0.598   2.662   0.216
  359SOL    HW2 1084   0.527   2.601   0.335
  360SOL     OW 1085   1.280   2.210   0.932
  360SOL    HW1 1086   1.190   2.177   0.940
  360SOL    HW2 1087   1.330   2.158   0.995
  361SOL     OW 1088   0.793   2.478   1.454
  361SOL    HW1 1089   0.766   2.456   1.543
  361SOL    HW2 1090   0.751   2.413   1.399
  362SOL     OW 1091   1.394   2.335   1.678
  362SOL    HW1 1092   1.395   2.379   1.763
  362SOL    HW2 1093   1.457   2.264   1.687
  363SOL     OW 1094   0.962   2.758   1.590
  363SOL    HW1 1095   1.014   2.686   1.553
  363SOL    HW2 1096   0.909   2.790   1.516
  364SOL     OW 1097   0.992   2.276   1.239
  364SOL    HW1 1098   0.909   2.299   1.281
  364SOL    HW2 1099   0.967   2.227   1.161
  365SOL     OW 1100   1.049   2.567   0.423
  365SOL    HW1 1101   1.063   2.559   0.518
  365SOL    HW2 1102   0.968   2.519   0.407
  366SOL     OW 1103   0.102   2.670   0.768
  366SOL    HW1 1104   0.179   2.675   0.825
  366SOL    HW2 1105   0.048   2.744   0.796
  367SOL     OW 1106   0.929   2.194   0.221
  367SOL    HW1 1107   0.934   2.257   0.149
  367SOL    HW2 1108   0.893   2.114   0.181
  368SOL     OW 1109   1.711   2.439   1.828
  368SOL    HW1 1110   1.674   2.515   1.782
  368SOL    HW2 1111   1.734   2.378   1.758
  369SOL     OW 1112   0.548   2.046   0.892
  369SOL    HW1 1113   0.551   2.073   0.984
  369SOL    HW2 1114   0.551   2.127   0.842
  370SOL     OW 1115   1.796   2.908   0.867
  370SOL    HW1 1116   1.740   2.893   0.791
  370SOL    HW2 1117   1.736   2.917   0.941
  371SOL     OW 1118   1.481   2.599   0.727
  371SOL    HW1 1119   1.461   2.549   0.806
  371SOL    HW2 1120   1.552   2.657   0.753
  372SOL     OW 1121   0.233   2.163   1.507
  372SOL    HW1 1122   0.153   2.208   1.482
  372SOL    HW2 1123   0.204   2.088   1.558
  373SOL     OW 1124   1.402   1.968   0.430
  373SOL    HW1 1125   1.392   1.947   0.337
  373SOL    HW2 1126   1.497   1.979   0.442
  374SOL     OW 1127   0.388   2.556   0.474
  374SOL    HW1 1128   0.413   2.464   0.484
  374SOL    HW2 1129   0.295   2.558   0.497
  375SOL     OW 1130   1.539   2.090   1.727
  375SOL    HW1 1131   1.547   2.111   1.820
  375SOL    HW2 1132   1.475   2.019   1.724
  376SOL     OW 1133   0.626   1.983   0.118
  376SOL    HW1 1134   0.720   1.962   0.118
  376SOL    HW2 1135   0.592   1.939   0.040
  377SOL     OW 1136   0.768   2.138   1.751
  377SOL    HW1 1137   0.840   2.076   1.760
  377SOL    HW2 1138   0.717   2.127   1.831
  378SOL     OW 1139   1.341   2.451   1.433
  378SOL    HW1 1140   1.372   2.417   1.517
  378SOL    HW2 1141   1.378   2.538   1.427
  379SOL     OW 1142   0.928   2.371   0.902
  379SOL    HW1 1143   0.904   2.362   0.810
  379SOL    HW2 1144   0.960   2.285   0.927
  380SOL     OW 1145   0.548   1.924   0.506
  380SOL    HW1 1146   0.467   1.926   0.556
  380SOL    HW2 1147   0.544   2.001   0.449
  381SOL     OW 1148   0.941   2.104   0.473
  381SOL    HW1 1149   0.916   2.141   0.388
  381SOL    HW2 1150   1.036   2.115   0.477
  382SOL     OW 1151   1.078   2.545   1.458
  382SOL    HW1 1152   1.008   2.481   1.468
  382SOL    HW2 1153   1.158   2.492   1.454
  383SOL     OW 1154   1.050   2.361   0.025
  383SOL    HW1 1155   1.000   2.442   0.015
  383SOL    HW2 1156   1.110   2.379   0.098
  384SOL     OW 1157   0.087   2.415   1.400
  384SOL    HW1 1158   0.172   2.421   1.356
  384SOL    HW2 1159   0.087   2.487   1.463
  385SOL     OW 1160   0.561   2.089   1.163
  385SOL    HW1 1161   0.598   2.008   1.199
  385SOL    HW2 1162   0.470   2.088   1.191
  386SOL     OW 1163   0.871   2.322   0.639
  386SOL    HW1 1164   0.821   2.376   0.578
  386SOL    HW2 1165   0.889   2.242   0.591
  387SOL     OW 1166   1.015   1.914   0.753
  387SOL    HW1 1167   0.956   1.909   0.679
  387SOL    HW2 1168   0.992   1.838   0.807
  388SOL     OW 1169   1.426   2.994   0.872
  388SOL    HW1 1170   1.360   2.937   0.833
  388SOL    HW2 1171   1.447   0.058   0.804
  389SOL     OW 1172   1.467   2.464   0.982
  389SOL    HW1 1173   1.421   2.380   0.986
  389SOL    HW2 1174   1.529   2.461   1.055
  390SOL     OW 1175   1.832   2.667   0.390
  390SOL    HW1 1176   1.895   2.618   0.443
  390SOL    HW2 1177   1.817   2.611   0.314
  391SOL     OW 1178   1.413   2.438   0.099
  391SOL    HW1 1179   1.340   2.428   0.161
  391SOL    HW2 1180   1.462   2.356   0.105
  392SOL     OW 1181   0.522   2.124   0.326
  392SOL    HW1 1182   0.557   2.073   0.253
  392SOL    HW2 1183   0.502   2.210   0.288
  393SOL     OW 1184   1.780   0.077   1.592
  393SOL    HW1 1185   1.868   0.043   1.578
  393SOL    HW2 1186   1.794   0.162   1.634
  394SOL     OW 1187   1.626   2.956   1.075
  394SOL    HW1 1188   1.639   0.039   1.120
  394SOL    HW2 1189   1.549   2.972   1.019
  395SOL     OW 1190   0.918   1.958   1.400
  395SOL    HW1 1191   0.939   1.941   1.308
  395SOL    HW2 1192   0.996   2.001   1.435
  396SOL     OW 1193   0.415   2.678   1.253
  396SOL    HW1 1194   0.485   2.685   1.318
  396SOL    HW2 1195   0.380   2.590   1.263
  397SOL     OW 1196   1.267   2.240   1.272
  397SOL    HW1 1197   1.299   2.317   1.320
  397SOL    HW2 1198   1.178   2.263   1.247
  398SOL     OW 1199   0.557   2.398   0.861
  398SOL    HW1 1200   0.572   2.453   0.785
  398SOL    HW2 1201   0.619   2.430   0.927
  399SOL     OW 1202   1.580   2.488   0.475
  399SOL    HW1 1203   1.541   2.544   0.541
  399SOL    HW2 1204   1.636   2.546   0.423
  400SOL     OW 1205   0.412   2.600   1.603
  400SOL    HW1 1206   0.469   2.649   1.544
  400SOL    HW2 1207   0.458   2.517   1.619
  401SOL     OW 1208   1.595   2.636   1.678
  401SOL    HW1 1209   1.508   2.676   1.670
  401SOL    HW2 1210   1.648   2.679   1.612
  402SOL     OW 1211   0.996   1.980   1.756
  402SOL    HW1 1212   1.047   2.055   1.725
  402SOL    HW2 1213   1.051   1.904   1.737
  403SOL     OW 1214   0.501   1.904   1.745
  403SOL    HW1 1215   0.459   1.849   1.679
  403SOL    HW2 1216   0.440   1.977   1.758
  404SOL     OW 1217   0.592   2.729   1.038
  404SOL    HW1 1218   0.598   2.821   1.013
  404SOL    HW2 1219   0.525   2.727   1.107
  405SOL     OW 1220   1.350   2.714   1.035
  405SOL    HW1 1221   1.281   2.707   0.968
  405SOL    HW2 1222   1.394   2.629   1.033
  406SOL     OW 1223   1.205   2.395   0.272
  406SOL    HW1 1224   1.211   2.311   0.317
  406SOL    HW2 1225   1.160   2.452   0.334
  407SOL     OW 1226   0.300   2.065   1.242
  407SOL    HW1 1227   0.281   2.095   1.331
  407SOL    HW2 1228   0.284   1.971   1.244
  408SOL     OW 1229   0.055   0.170   1.269
  408SOL    HW1 1230   0.084   0.136   1.354
  408SOL    HW2 1231   0.015   0.255   1.290
  409SOL     OW 1232   0.730   2.494   1.062
  409SOL    HW1 1233   0.798   2.477   0.997
  409SOL    HW2 1234   0.698   2.581   1.041
  410SOL     OW 1235   1.735   2.819   1.845
  410SOL    HW1 1236   1.686   2.763   1.785
  410SOL    HW2 1237   1.679   2.828   1.922
  411SOL     OW 1238   0.302   1.931   0.622
  411SOL    HW1 1239   0.285   2.022   0.649
  411SOL    HW2 1240   0.308   1.882   0.703
  412SOL     OW 1241   1.617   2.234   0.369
  412SOL    HW1 1242   1.643   2.169   0.435
  412SOL    HW2 1243   1.590   2.310   0.420
  413SOL     OW 1244   1.027   2.618   0.966
  413SOL    HW1 1245   1.028   2.633   1.061
  413SOL    HW2 1246   1.000   2.527   0.956
  414SOL     OW 1247   0.356   2.786   1.798
  414SOL    HW1 1248   0.420   2.784   1.869
  414SOL    HW2 1249   0.381   2.714   1.741
  415SOL     OW 1250   1.506   2.165   0.126
  415SOL    HW1 1251   1.469   2.078   0.138
  415SOL    HW2 1252   1.560   2.180   0.204
  416SOL     OW 1253   1.295   2.685   0.037
  416SOL    HW1 1254   1.336   2.599   0.049
  416SOL    HW2 1255   1.325   2.714   2.951
  417SOL     OW 1256   0.313   2.678   0.952
  417SOL    HW1 1257   0.407   2.687   0.936
  417SOL    HW2 1258   0.303   2.589   0.987
  418SOL     OW 1259   0.337   2.378   1.014
  418SOL    HW1 1260   0.296   2.295   0.992
  418SOL    HW2 1261   0.411   2.385   0.954
  419SOL     OW 1262   1.135   2.239   1.679
  419SOL    HW1 1263   1.089   2.295   1.742
  419SOL    HW2 1264   1.223   2.275   1.676
  420SOL     OW 1265   1.159   2.065   1.470
  420SOL    HW1 1266   1.151   2.127   1.542
  420SOL    HW2 1267   1.198   2.114   1.399
  421SOL     OW 1268   0.984   2.668   1.233
  421SOL    HW1 1269   1.038   2.637   1.306
  421SOL    HW2 1270   0.902   2.619   1.241
  422SOL     OW 1271   0.048   2.441   1.116
  422SOL    HW1 1272   0.121   2.392   1.077
  422SOL    HW2 1273   0.033   2.398   1.200
  423SOL     OW 1274   0.197   2.380   1.721
  423SOL    HW1 1275   0.265   2.353   1.660
  423SOL    HW2 1276   0.160   2.460   1.682
  424SOL     OW 1277   1.378   2.807   1.661
  424SOL    HW1 1278   1.403   2.900   1.659
  424SOL    HW2 1279   1.371   2.782   1.569
  425SOL     OW 1280   0.819   2.437   0.348
  425SOL    HW1 1281   0.818   2.360   0.292
  425SOL    HW2 1282   0.739   2.484   0.326
  426SOL     OW 1283   1.643   2.464   1.190
  426SOL    HW1 1284   1.632   2.403   1.263
  426SOL    HW2 1285   1.730   2.443   1.155
  427SOL     OW 1286   0.698   2.314   1.262
  427SOL    HW1 1287   0.645   2.240   1.231
  427SOL    HW2 1288   0.696   2.377   1.190
  428SOL     OW 1289   0.440   2.358   0.208
  428SOL    HW1 1290   0.512   2.421   0.220
  428SOL    HW2 1291   0.364   2.413   0.189
  429SOL     OW 1292   0.161   0.008   1.469
  429SOL    HW1 1293   0.150   2.955   1.548
  429SOL    HW2 1294   0.173   2.943   1.399
  430SOL     OW 1295   1.351   2.909   1.221
  430SOL    HW1 1296   1.366   2.846   1.150
  430SOL    HW2 1297   1.276   2.961   1.192
  431SOL     OW 1298   1.300   2.723   0.313
  431SOL    HW1 1299   1.228   2.678   0.358
  431SOL    HW2 1300   1.289   2.700   0.221
  432SOL     OW 1301   0.898   1.937   0.124
  432SOL    HW1 1302   0.956   1.925   0.049
  432SOL    HW2 1303   0.945   1.898   0.198
  433SOL     OW 1304   1.714   2.003   0.513
  433SOL    HW1 1305   1.793   1.994   0.461
  433SOL    HW2 1306   1.701   1.917   0.553
  434SOL     OW 1307   1.293   2.795   0.683
  434SOL    HW1 1308   1.360   2.727   0.680
  434SOL    HW2 1309   1.306   2.845   0.602
  435SOL     OW 1310   1.840   2.036   0.967
  435SOL    HW1 1311   1.870   1.949   0.940
  435SOL    HW2 1312   1.753   2.045   0.928
  436SOL     OW 1313   0.268   2.180   0.722
  436SOL    HW1 1314   0.185   2.217   0.694
  436SOL    HW2 1315   0.258   2.168   0.817
  437SOL     OW 1316   0.813   2.858   1.373
  437SOL    HW1 1317   0.868   2.837   1.298
  437SOL    HW2 1318   0.833   2.950   1.393
  438SOL     OW 1319   0.901   2.789   0.286
  438SOL    HW1 1320   0.980   2.818   0.241
  438SOL    HW2 1321   0.933   2.737   0.360
  439SOL     OW 1322   1.019   2.102   0.965
  439SOL    HW1 1323   1.014   2.054   0.883
  439SOL    HW2 1324   1.014   2.035   1.033
  440SOL     OW 1325   1.718   2.254   1.380
  440SOL    HW1 1326   1.790   2.317   1.379
  440SOL    HW2 1327   1.748   2.182   1.324
  441SOL     OW 1328   0.117   2.866   1.696
  441SOL    HW1 1329   0.047   2.844   1.757
  441SOL    HW2 1330   0.198   2.851   1.745
  442SOL     OW 1331   0.673   2.058   1.498
  442SOL    HW1 1332   0.757   2.040   1.456
  442SOL    HW2 1333   0.695   2.085   1.587
  443SOL     OW 1334   0.055   2.171   0.052
  443SOL    HW1 1335   2.967   2.199   0.025
  443SOL    HW2 1336   0.112   2.240   0.018
  444SOL     OW 1337   1.435   2.718   1.404
  444SOL    HW1 1338   1.391   2.777   1.342
  444SOL    HW2 1339   1.527   2.720   1.378
  445SOL     OW 1340   0.062   2.059   0.321
  445SOL    HW1 1341   0.050   2.099   0.235
  445SOL    HW2 1342   0.127   1.990   0.306
  446SOL     OW 1343   1.141   0.212   0.095
  446SOL    HW1 1344   1.069   0.251   0.143
  446SOL    HW2 1345   1.217   0.221   0.153
  447SOL     OW 1346   0.613   2.690   1.435
  447SOL    HW1 1347   0.670   2.765   1.419
  447SOL    HW2 1348   0.673   2.615   1.444
  448SOL     OW 1349   0.717   2.427   1.707
  448SOL    HW1 1350   0.754   2.491   1.768
  448SOL    HW2 1351   0.753   2.343   1.735
  449SOL     OW 1352   1.676   2.745   1.254
  449SOL    HW1 1353   1.666   2.658   1.215
  449SOL    HW2 1354   1.659   2.806   1.182
  450SOL     OW 1355   1.221   2.181   0.459
  450SOL    HW1 1356   1.285   2.111   0.449
  450SOL    HW2 1357   1.251   2.230   0.536
  451SOL     OW 1358   0.593   2.588   0.663
  451SOL    HW1 1359   0.618   2.680   0.671
  451SOL    HW2 1360   0.522   2.588   0.598
  452SOL     OW 1361   1.765   2.223   1.649
  452SOL    HW1 1362   1.747   2.235   1.555
  452SOL    HW2 1363   1.695   2.166   1.680
  453SOL     OW 1364   1.733   2.796   1.516
  453SOL    HW1 1365   1.751   2.888   1.534
  453SOL    HW2 1366   1.727   2.791   1.420
  454SOL     OW 1367   0.887   2.831   0.862
  454SOL    HW1 1368   0.923   2.750   0.899
  454SOL    HW2 1369   0.827   2.863   0.929
  455SOL     OW 1370   1.110   2.888   0.084
  455SOL    HW1 1371   1.062   2.888   0.002
  455SOL    HW2 1372   1.171   2.815   0.077
  456SOL     OW 1373   1.811   2.049   1.238
  456SOL    HW1 1374   1.830   1.958   1.262
  456SOL    HW2 1375   1.821   2.052   1.143
  457SOL     OW 1376   0.430   2.295   0.527
  457SOL    HW1 1377   0.459   2.224   0.470
  457SOL    HW2 1378   0.384   2.251   0.598
  458SOL     OW 1379   0.334   2.417   1.290
  458SOL    HW1 1380   0.392   2.362   1.342
  458SOL    HW2 1381   0.349   2.389   1.199
  459SOL     OW 1382   1.430   2.084   1.118
  459SOL    HW1 1383   1.470   2.013   1.168
  459SOL    HW2 1384   1.379   2.133   1.182
  460SOL     OW 1385   1.008   1.883   1.146
  460SOL    HW1 1386   0.954   1.814   1.107
  460SOL    HW2 1387   1.096   1.846   1.149
  461SOL     OW 1388   1.354   1.914   0.164
  461SOL    HW1 1389   1.379   1.865   0.085
  461SOL    HW2 1390   1.268   1.879   0.187
  462SOL     OW 1391   1.300   2.324   0.684
  462SOL    HW1 1392   1.243   2.400   0.692
  462SOL    HW2 1393   1.295   2.282   0.770
  463SOL     OW 1394   1.586   2.067   0.876
  463SOL    HW1 1395   1.522   2.085   0.945
  463SOL    HW2 1396   1.587   2.146   0.823
  464SOL     OW 1397   0.001   2.886   0.286
  464SOL    HW1 1398   0.085   2.919   0.256
  464SOL    HW2 1399   0.019   2.850   0.373
  465SOL     OW 1400   0.229   2.506   1.970
  465SOL    HW1 1401   0.165   2.459   2.024
  465SOL    HW2 1402   0.223   2.464   1.884
  466SOL     OW 1403   0.235   2.124   2.838
  466SOL    HW1 1404   0.270   2.102   2.924
  466SOL    HW2 1405   0.147   2.086   2.837
  467SOL     OW 1406   0.015   2.247   2.506
  467SOL    HW1 1407   2.929   2.281   2.532
  467SOL    HW2 1408   2.996   2.162   2.467
  468SOL     OW 1409   1.136   2.568   2.566
  468SOL    HW1 1410   1.182   2.651   2.556
  468SOL    HW2 1411   1.083   2.579   2.645
  469SOL     OW 1412   1.761   2.467   2.092
  469SOL    HW1 1413   1.744   2.458   1.998
  469SOL    HW2 1414   1.730   2.385   2.130
  470SOL     OW 1415   0.777   0.012   2.877
  470SOL    HW1 1416   0.686   0.028   2.902
  470SOL    HW2 1417   0.801   0.088   2.825
  471SOL     OW 1418   0.651   2.847   2.566
  471SOL    HW1 1419   0.744   2.850   2.590
  471SOL    HW2 1420   0.633   2.935   2.532
  472SOL     OW 1421   1.617   2.311   2.594
  472SOL    HW1 1422   1.540   2.336   2.544
  472SOL    HW2 1423   1.624   2.378   2.662
  473SOL     OW 1424   0.213   0.313   2.326
  473SOL    HW1 1425   0.219   0.386   2.388
  473SOL    HW2 1426   0.199   0.236   2.382
  474SOL     OW 1427   0.232   2.946   2.743
  474SOL    HW1 1428   0.257   2.862   2.781
  474SOL    HW2 1429   0.209   0.000   2.819
  475SOL     OW 1430   0.607   2.824   1.992
  475SOL    HW1 1431   0.597   2.908   1.947
  475SOL    HW2 1432   0.666   2.842   2.065
  476SOL     OW 1433   0.122   2.494   2.426
  476SOL    HW1 1434   0.095   2.411   2.465
  476SOL    HW2 1435   0.119   2.557   2.498
  477SOL     OW 1436   1.699   2.805   2.484
  477SOL    HW1 1437   1.777   2.751   2.496
  477SOL    HW2 1438   1.693   2.817   2.389
  478SOL     OW 1439   0.629   0.243   2.571
  478SOL    HW1 1440   0.593   0.158   2.545
  478SOL    HW2 1441   0.614   0.300   2.496
  479SOL     OW 1442   0.812   1.861   2.367
  479SOL    HW1 1443   0.852   1.946   2.351
  479SOL    HW2 1444   0.719   1.880   2.378
  480SOL     OW 1445   0.213   2.806   0.102
  480SOL    HW1 1446   0.277   2.735   0.100
  480SOL    HW2 1447   0.128   2.763   0.093
  481SOL     OW 1448   1.537   2.841   2.046
  481SOL    HW1 1449   1.468   2.787   2.086
  481SOL    HW2 1450   1.591   2.869   2.119
  482SOL     OW 1451   0.596   2.580   2.127
  482SOL    HW1 1452   0.602   2.659   2.073
  482SOL    HW2 1453   0.531   2.602   2.194
  483SOL     OW 1454   1.297   2.198   2.808
  483SOL    HW1 1455   1.203   2.181   2.801
  483SOL    HW2 1456   1.322   2.163   2.894
  484SOL     OW 1457   1.051   2.562   2.289
  484SOL    HW1 1458   1.063   2.557   2.384
  484SOL    HW2 1459   0.969   2.517   2.272
  485SOL     OW 1460   0.106   2.672   2.626
  485SOL    HW1 1461   0.182   2.673   2.684
  485SOL    HW2 1462   0.047   2.737   2.662
  486SOL     OW 1463   0.885   2.207   2.055
  486SOL    HW1 1464   0.930   2.268   1.997
  486SOL    HW2 1465   0.906   2.121   2.020
  487SOL     OW 1466   0.553   2.048   2.766
  487SOL    HW1 1467   0.518   2.081   2.849
  487SOL    HW2 1468   0.559   2.125   2.710
  488SOL     OW 1469   1.798   2.911   2.728
  488SOL    HW1 1470   1.738   2.892   2.655
  488SOL    HW2 1471   1.741   2.914   2.805
  489SOL     OW 1472   1.479   2.602   2.586
  489SOL    HW1 1473   1.465   2.547   2.663
  489SOL    HW2 1474   1.555   2.656   2.609
  490SOL     OW 1475   1.401   1.970   2.292
  490SOL    HW1 1476   1.389   1.945   2.200
  490SOL    HW2 1477   1.496   1.976   2.303
  491SOL     OW 1478   0.395   2.555   2.336
  491SOL    HW1 1479   0.412   2.462   2.350
  491SOL    HW2 1480   0.301   2.565   2.356
  492SOL     OW 1481   0.629   1.988   1.968
  492SOL    HW1 1482   0.704   1.930   1.980
  492SOL    HW2 1483   0.583   1.954   1.891
  493SOL     OW 1484   0.922   2.381   2.757
  493SOL    HW1 1485   0.902   2.358   2.666
  493SOL    HW2 1486   0.958   2.300   2.795
  494SOL     OW 1487   0.548   1.925   2.368
  494SOL    HW1 1488   0.467   1.926   2.418
  494SOL    HW2 1489   0.543   2.003   2.313
  495SOL     OW 1490   0.291   1.905   2.042
  495SOL    HW1 1491   0.350   1.975   2.013
  495SOL    HW2 1492   0.348   1.841   2.085
  496SOL     OW 1493   0.936   2.105   2.325
  496SOL    HW1 1494   0.907   2.149   2.245
  496SOL    HW2 1495   1.031   2.118   2.326
  497SOL     OW 1496   1.027   2.407   1.880
  497SOL    HW1 1497   0.983   2.490   1.861
  497SOL    HW2 1498   1.089   2.429   1.950
  498SOL     OW 1499   0.870   2.318   2.499
  498SOL    HW1 1500   0.822   2.375   2.439
  498SOL    HW2 1501   0.887   2.239   2.449
  499SOL     OW 1502   1.012   1.911   2.614
  499SOL    HW1 1503   0.955   1.904   2.537
  499SOL    HW2 1504   0.992   1.833   2.665
  500SOL     OW 1505   1.422   2.999   2.736
  500SOL    HW1 1506   1.355   2.942   2.698
  500SOL    HW2 1507   1.448   0.056   2.664
  501SOL     OW 1508   1.487   2.448   2.820
  501SOL    HW1 1509   1.423   2.378   2.829
  501SOL    HW2 1510   1.511   2.471   2.910
  502SOL     OW 1511   1.838   2.668   2.253
  502SOL    HW1 1512   1.898   2.618   2.308
  502SOL    HW2 1513   1.816   2.609   2.181
  503SOL     OW 1514   1.394   2.435   1.934
  503SOL    HW1 1515   1.335   2.413   2.006
  503SOL    HW2 1516   1.479   2.400   1.961
  504SOL     OW 1517   0.527   2.124   2.183
  504SOL    HW1 1518   0.566   2.075   2.111
  504SOL    HW2 1519   0.509   2.211   2.146
  505SOL     OW 1520   1.626   2.966   2.935
  505SOL    HW1 1521   1.631   0.043   2.991
  505SOL    HW2 1522   1.551   2.983   2.878
  506SOL     OW 1523   0.554   2.396   2.726
  506SOL    HW1 1524   0.569   2.451   2.649
  506SOL    HW2 1525   0.615   2.429   2.792
  507SOL     OW 1526   1.579   2.487   2.335
  507SOL    HW1 1527   1.541   2.544   2.401
  507SOL    HW2 1528   1.634   2.544   2.282
  508SOL     OW 1529   0.575   2.726   2.884
  508SOL    HW1 1530   0.615   2.808   2.853
  508SOL    HW2 1531   0.558   2.741   2.977
  509SOL     OW 1532   1.207   2.392   2.132
  509SOL    HW1 1533   1.216   2.313   2.185
  509SOL    HW2 1534   1.162   2.454   2.189
  510SOL     OW 1535   0.327   2.062   0.080
  510SOL    HW1 1536   0.313   2.104   0.165
  510SOL    HW2 1537   0.303   1.970   0.095
  511SOL     OW 1538   0.730   2.501   2.916
  511SOL    HW1 1539   0.797   2.479   2.851
  511SOL    HW2 1540   0.696   2.586   2.887
  512SOL     OW 1541   0.303   1.931   2.483
  512SOL    HW1 1542   0.285   2.021   2.509
  512SOL    HW2 1543   0.306   1.882   2.565
  513SOL     OW 1544   1.613   2.233   2.232
  513SOL    HW1 1545   1.641   2.170   2.298
  513SOL    HW2 1546   1.590   2.311   2.281
  514SOL     OW 1547   1.024   2.622   2.822
  514SOL    HW1 1548   1.027   2.627   2.918
  514SOL    HW2 1549   0.996   2.532   2.805
  515SOL     OW 1550   1.529   2.138   1.989
  515SOL    HW1 1551   1.468   2.070   2.015
  515SOL    HW2 1552   1.563   2.172   2.072
  516SOL     OW 1553   1.293   2.687   1.895
  516SOL    HW1 1554   1.335   2.601   1.900
  516SOL    HW2 1555   1.325   2.725   1.813
  517SOL     OW 1556   0.311   2.675   2.810
  517SOL    HW1 1557   0.405   2.691   2.810
  517SOL    HW2 1558   0.302   2.586   2.845
  518SOL     OW 1559   0.322   2.385   2.867
  518SOL    HW1 1560   0.291   2.296   2.852
  518SOL    HW2 1561   0.401   2.392   2.815
  519SOL     OW 1562   0.984   2.616   0.088
  519SOL    HW1 1563   1.027   2.607   0.173
  519SOL    HW2 1564   0.893   2.637   0.110
  520SOL     OW 1565   0.817   2.431   2.216
  520SOL    HW1 1566   0.816   2.356   2.157
  520SOL    HW2 1567   0.742   2.484   2.189
  521SOL     OW 1568   0.704   2.310   0.103
  521SOL    HW1 1569   0.619   2.268   0.091
  521SOL    HW2 1570   0.704   2.381   0.039
  522SOL     OW 1571   0.465   2.356   2.048
  522SOL    HW1 1572   0.527   2.426   2.069
  522SOL    HW2 1573   0.380   2.399   2.046
  523SOL     OW 1574   1.303   2.725   2.171
  523SOL    HW1 1575   1.230   2.685   2.218
  523SOL    HW2 1576   1.287   2.703   2.079
  524SOL     OW 1577   1.718   2.004   2.375
  524SOL    HW1 1578   1.792   1.991   2.315
  524SOL    HW2 1579   1.703   1.918   2.414
  525SOL     OW 1580   1.294   2.798   2.544
  525SOL    HW1 1581   1.359   2.728   2.544
  525SOL    HW2 1582   1.306   2.843   2.461
  526SOL     OW 1583   1.840   2.041   2.822
  526SOL    HW1 1584   1.870   1.953   2.798
  526SOL    HW2 1585   1.750   2.046   2.789
  527SOL     OW 1586   0.270   2.181   2.577
  527SOL    HW1 1587   0.185   2.219   2.554
  527SOL    HW2 1588   0.265   2.167   2.672
  528SOL     OW 1589   0.904   2.759   2.115
  528SOL    HW1 1590   0.979   2.808   2.082
  528SOL    HW2 1591   0.938   2.711   2.190
  529SOL     OW 1592   1.034   2.105   2.807
  529SOL    HW1 1593   1.021   2.051   2.729
  529SOL    HW2 1594   1.006   2.049   2.880
  530SOL     OW 1595   0.092   2.182   1.918
  530SOL    HW1 1596   0.010   2.152   1.880
  530SOL    HW2 1597   0.106   2.270   1.880
  531SOL     OW 1598   0.065   2.058   2.177
  531SOL    HW1 1599   0.071   2.107   2.094
  531SOL    HW2 1600   0.132   1.990   2.170
  532SOL     OW 1601   1.129   0.243   2.003
  532SOL    HW1 1602   1.104   0.160   1.962
  532SOL    HW2 1603   1.211   0.223   2.048
  533SOL     OW 1604   1.728   2.710   0.054
  533SOL    HW1 1605   1.655   2.666   0.096
  533SOL    HW2 1606   1.699   2.801   0.043
  534SOL     OW 1607   1.219   2.182   2.319
  534SOL    HW1 1608   1.283   2.111   2.309
  534SOL    HW2 1609   1.247   2.229   2.397
  535SOL     OW 1610   0.595   2.585   2.525
  535SOL    HW1 1611   0.620   2.677   2.534
  535SOL    HW2 1612   0.524   2.586   2.460
  536SOL     OW 1613   0.881   2.825   2.716
  536SOL    HW1 1614   0.924   2.749   2.757
  536SOL    HW2 1615   0.844   2.874   2.789
  537SOL     OW 1616   1.103   2.874   1.953
  537SOL    HW1 1617   1.061   2.898   1.871
  537SOL    HW2 1618   1.159   2.800   1.930
  538SOL     OW 1619   1.825   2.052   0.095
  538SOL    HW1 1620   1.797   1.961   0.104
  538SOL    HW2 1621   1.830   2.067   0.001
  539SOL     OW 1622   0.427   2.293   2.382
  539SOL    HW1 1623   0.458   2.220   2.330
  539SOL    HW2 1624   0.383   2.253   2.457
  540SOL     OW 1625   1.353   1.916   2.025
  540SOL    HW1 1626   1.388   1.851   1.964
  540SOL    HW2 1627   1.266   1.883   2.049
  541SOL     OW 1628   1.298   2.320   2.548
  541SOL    HW1 1629   1.244   2.398   2.557
  541SOL    HW2 1630   1.297   2.280   2.636
  542SOL     OW 1631   1.583   2.075   2.739
  542SOL    HW1 1632   1.500   2.094   2.782
  542SOL    HW2 1633   1.597   2.148   2.679
  543SOL     OW 1634   0.019   2.931   2.154
  543SOL    HW1 1635   0.114   2.925   2.142
  543SOL    HW2 1636   0.000   2.873   2.228
  544SOL     OW 1637   2.092   0.636   0.121
  544SOL    HW1 1638   1.998   0.628   0.137
  544SOL    HW2 1639   2.104   0.603   0.032
  545SOL     OW 1640   2.079   0.285   1.007
  545SOL    HW1 1641   2.111   0.249   1.090
  545SOL    HW2 1642   1.994   0.242   0.994
  546SOL     OW 1643   1.865   0.380   0.643
  546SOL    HW1 1644   1.784   0.406   0.685
  546SOL    HW2 1645   1.841   0.305   0.588
  547SOL     OW 1646   2.427   1.281   1.170
  547SOL    HW1 1647   2.339   1.288   1.133
  547SOL    HW2 1648   2.444   1.368   1.207
  548SOL     OW 1649   2.618   1.144   1.035
  548SOL    HW1 1650   2.550   1.177   1.093
  548SOL    HW2 1651   2.657   1.222   0.995
  549SOL     OW 1652   2.719   0.779   1.817
  549SOL    HW1 1653   2.712   0.849   1.883
  549SOL    HW2 1654   2.743   0.824   1.736
  550SOL     OW 1655   2.547   1.008   0.650
  550SOL    HW1 1656   2.608   0.991   0.722
  550SOL    HW2 1657   2.476   1.058   0.691
  551SOL     OW 1658   2.568   1.153   1.810
  551SOL    HW1 1659   2.616   1.233   1.833
  551SOL    HW2 1660   2.485   1.184   1.775
  552SOL     OW 1661   2.195   1.427   1.068
  552SOL    HW1 1662   2.121   1.397   1.016
  552SOL    HW2 1663   2.247   1.480   1.008
  553SOL     OW 1664   2.312   0.401   1.489
  553SOL    HW1 1665   2.386   0.341   1.494
  553SOL    HW2 1666   2.235   0.346   1.504
  554SOL     OW 1667   2.083   1.714   0.473
  554SOL    HW1 1668   2.105   1.790   0.527
  554SOL    HW2 1669   2.157   1.704   0.414
  555SOL     OW 1670   2.982   1.346   1.687
  555SOL    HW1 1671   0.029   1.348   1.770
  555SOL    HW2 1672   2.936   1.262   1.687
  556SOL     OW 1673   2.085   1.441   0.534
  556SOL    HW1 1674   2.074   1.536   0.542
  556SOL    HW2 1675   2.026   1.404   0.600
  557SOL     OW 1676   2.112   1.089   0.887
  557SOL    HW1 1677   2.115   1.005   0.933
  557SOL    HW2 1678   2.060   1.146   0.944
  558SOL     OW 1679   2.479   1.788   1.436
  558SOL    HW1 1680   2.394   1.771   1.476
  558SOL    HW2 1681   2.497   1.880   1.456
  559SOL     OW 1682   2.455   0.977   0.145
  559SOL    HW1 1683   2.478   1.050   0.087
  559SOL    HW2 1684   2.491   1.002   0.230
  560SOL     OW 1685   1.980   0.644   0.563
  560SOL    HW1 1686   1.936   0.563   0.587
  560SOL    HW2 1687   1.972   0.700   0.640
  561SOL     OW 1688   1.876   1.590   0.121
  561SOL    HW1 1689   1.889   1.499   0.149
  561SOL    HW2 1690   1.878   1.640   0.202
  562SOL     OW 1691   1.984   0.742   1.586
  562SOL    HW1 1692   2.076   0.762   1.602
  562SOL    HW2 1693   1.939   0.826   1.597
  563SOL     OW 1694   2.474   1.381   0.735
  563SOL    HW1 1695   2.428   1.298   0.743
  563SOL    HW2 1696   2.457   1.409   0.645
  564SOL     OW 1697   2.682   0.014   0.515
  564SOL    HW1 1698   2.707   0.105   0.499
  564SOL    HW2 1699   2.587   0.012   0.501
  565SOL     OW 1700   2.053   0.970   1.263
  565SOL    HW1 1701   2.139   0.928   1.252
  565SOL    HW2 1702   1.990   0.906   1.231
  566SOL     OW 1703   2.187   0.253   1.800
  566SOL    HW1 1704   2.237   0.332   1.822
  566SOL    HW2 1705   2.101   0.267   1.840
  567SOL     OW 1706   2.453   0.722   0.265
  567SOL    HW1 1707   2.461   0.804   0.217
  567SOL    HW2 1708   2.390   0.741   0.334
  568SOL     OW 1709   2.655   0.626   1.454
  568SOL    HW1 1710   2.629   0.600   1.542
  568SOL    HW2 1711   2.616   0.560   1.397
  569SOL     OW 1712   2.831   0.883   1.574
  569SOL    HW1 1713   2.857   0.797   1.541
  569SOL    HW2 1714   2.782   0.922   1.501
  570SOL     OW 1715   2.845   0.376   1.260
  570SOL    HW1 1716   2.771   0.430   1.289
  570SOL    HW2 1717   2.838   0.375   1.164
  571SOL     OW 1718   2.892   0.715   0.410
  571SOL    HW1 1719   2.928   0.700   0.498
  571SOL    HW2 1720   2.817   0.656   0.405
  572SOL     OW 1721   1.952   0.819   0.774
  572SOL    HW1 1722   2.033   0.811   0.824
  572SOL    HW2 1723   1.911   0.898   0.809
  573SOL     OW 1724   1.988   1.845   1.573
  573SOL    HW1 1725   1.985   1.823   1.667
  573SOL    HW2 1726   1.901   1.821   1.540
  574SOL     OW 1727   2.783   0.343   0.219
  574SOL    HW1 1728   2.766   0.397   0.141
  574SOL    HW2 1729   2.772   0.253   0.188
  575SOL     OW 1730   2.380   0.196   0.910
  575SOL    HW1 1731   2.397   0.211   1.003
  575SOL    HW2 1732   2.403   0.278   0.867
  576SOL     OW 1733   2.863   1.442   0.470
  576SOL    HW1 1734   2.828   1.518   0.423
  576SOL    HW2 1735   2.861   1.468   0.562
  577SOL     OW 1736   2.217   1.806   0.855
  577SOL    HW1 1737   2.261   1.721   0.867
  577SOL    HW2 1738   2.284   1.871   0.875
  578SOL     OW 1739   2.181   0.952   0.243
  578SOL    HW1 1740   2.264   0.969   0.199
  578SOL    HW2 1741   2.153   0.867   0.210
  579SOL     OW 1742   2.326   1.259   1.736
  579SOL    HW1 1743   2.297   1.266   1.645
  579SOL    HW2 1744   2.245   1.263   1.787
  580SOL     OW 1745   2.063   0.294   1.498
  580SOL    HW1 1746   1.979   0.341   1.498
  580SOL    HW2 1747   2.052   0.226   1.564
  581SOL     OW 1748   2.328   1.725   0.333
  581SOL    HW1 1749   2.362   1.793   0.391
  581SOL    HW2 1750   2.395   1.717   0.265
  582SOL     OW 1751   2.128   1.797   1.231
  582SOL    HW1 1752   2.165   1.728   1.286
  582SOL    HW2 1753   2.095   1.751   1.154
  583SOL     OW 1754   2.801   1.695   0.900
  583SOL    HW1 1755   2.864   1.628   0.927
  583SOL    HW2 1756   2.752   1.654   0.829
  584SOL     OW 1757   2.255   0.691   0.476
  584SOL    HW1 1758   2.286   0.602   0.492
  584SOL    HW2 1759   2.162   0.689   0.498
  585SOL     OW 1760   2.475   0.108   0.107
  585SOL    HW1 1761   2.570   0.113   0.120
  585SOL    HW2 1762   2.461   0.143   0.019
  586SOL     OW 1763   2.634   0.276   1.752
  586SOL    HW1 1764   2.701   0.211   1.769
  586SOL    HW2 1765   2.578   0.274   1.830
  587SOL     OW 1766   2.742   1.518   1.193
  587SOL    HW1 1767   2.721   1.483   1.107
  587SOL    HW2 1768   2.804   1.454   1.230
  588SOL     OW 1769   2.669   1.403   0.938
  588SOL    HW1 1770   2.753   1.390   0.894
  588SOL    HW2 1771   2.604   1.397   0.868
  589SOL     OW 1772   2.784   0.505   0.905
  589SOL    HW1 1773   2.757   0.494   0.814
  589SOL    HW2 1774   2.824   0.421   0.928
  590SOL     OW 1775   2.402   0.048   0.496
  590SOL    HW1 1776   2.316   0.039   0.538
  590SOL    HW2 1777   2.394   0.128   0.444
  591SOL     OW 1778   0.319   1.153   0.044
  591SOL    HW1 1779   0.310   1.099   0.122
  591SOL    HW2 1780   0.251   1.221   0.054
  592SOL     OW 1781   2.161   0.087   0.185
  592SOL    HW1 1782   2.245   0.133   0.193
  592SOL    HW2 1783   2.183   2.995   0.201
  593SOL     OW 1784   2.824   0.248   0.468
  593SOL    HW1 1785   2.782   0.295   0.396
  593SOL    HW2 1786   2.901   0.207   0.427
  594SOL     OW 1787   0.084   1.582   0.797
  594SOL    HW1 1788   0.110   1.620   0.714
  594SOL    HW2 1789   0.166   1.553   0.837
  595SOL     OW 1790   2.328   1.147   0.736
  595SOL    HW1 1791   2.257   1.129   0.798
  595SOL    HW2 1792   2.290   1.131   0.650
  596SOL     OW 1793   2.896   0.513   0.021
  596SOL    HW1 1794   2.845   0.592   0.007
  596SOL    HW2 1795   2.944   0.529   0.103
  597SOL     OW 1796   1.937   0.556   1.391
  597SOL    HW1 1797   2.029   0.553   1.364
  597SOL    HW2 1798   1.934   0.627   1.456
  598SOL     OW 1799   2.428   0.216   1.178
  598SOL    HW1 1800   2.463   0.164   1.251
  598SOL    HW2 1801   2.335   0.227   1.199
  599SOL     OW 1802   2.745   0.468   0.635
  599SOL    HW1 1803   2.678   0.519   0.588
  599SOL    HW2 1804   2.738   0.380   0.599
  600SOL     OW 1805   2.862   0.055   0.761
  600SOL    HW1 1806   2.823   0.059   0.673
  600SOL    HW2 1807   2.837   2.970   0.795
  601SOL     OW 1808   2.353   1.401   0.152
  601SOL    HW1 1809   2.287   1.373   0.215
  601SOL    HW2 1810   2.306   1.409   0.069
  602SOL     OW 1811   2.392   0.262   0.325
  602SOL    HW1 1812   2.433   0.213   0.253
  602SOL    HW2 1813   2.366   0.345   0.284
  603SOL     OW 1814   2.779   0.112   1.401
  603SOL    HW1 1815   2.806   0.098   1.310
  603SOL    HW2 1816   2.843   0.175   1.435
  604SOL     OW 1817   2.841   1.109   1.729
  604SOL    HW1 1818   2.748   1.131   1.739
  604SOL    HW2 1819   2.842   1.042   1.661
  605SOL     OW 1820   2.563   1.062   0.378
  605SOL    HW1 1821   2.549   1.049   0.472
  605SOL    HW2 1822   2.646   1.018   0.360
  606SOL     OW 1823   2.277   0.813   1.252
  606SOL    HW1 1824   2.347   0.824   1.316
  606SOL    HW2 1825   2.243   0.725   1.268
  607SOL     OW 1826   1.931   1.571   1.306
  607SOL    HW1 1827   1.878   1.640   1.346
  607SOL    HW2 1828   2.016   1.577   1.350
  608SOL     OW 1829   2.216   1.107   0.490
  608SOL    HW1 1830   2.216   1.182   0.430
  608SOL    HW2 1831   2.214   1.031   0.433
  609SOL     OW 1832   2.418   0.542   0.863
  609SOL    HW1 1833   2.436   0.597   0.787
  609SOL    HW2 1834   2.483   0.570   0.928
  610SOL     OW 1835   2.214   1.521   1.322
  610SOL    HW1 1836   2.197   1.483   1.236
  610SOL    HW2 1837   2.308   1.536   1.323
  611SOL     OW 1838   2.274   0.745   1.601
  611SOL    HW1 1839   2.334   0.792   1.543
  611SOL    HW2 1840   2.317   0.660   1.616
  612SOL     OW 1841   2.867   0.116   1.762
  612SOL    HW1 1842   2.899   0.191   1.712
  612SOL    HW2 1843   2.903   0.040   1.715
  613SOL     OW 1844   2.366   0.055   1.748
  613SOL    HW1 1845   2.331   2.989   1.688
  613SOL    HW2 1846   2.294   0.118   1.758
  614SOL     OW 1847   2.441   0.874   1.030
  614SOL    HW1 1848   2.476   0.963   1.029
  614SOL    HW2 1849   2.387   0.870   1.109
  615SOL     OW 1850   0.063   0.532   0.270
  615SOL    HW1 1851   0.084   0.450   0.314
  615SOL    HW2 1852   0.035   0.590   0.341
  616SOL     OW 1853   2.161   0.199   1.251
  616SOL    HW1 1854   2.130   0.240   1.332
  616SOL    HW2 1855   2.138   0.107   1.260
  617SOL     OW 1856   1.884   1.307   1.273
  617SOL    HW1 1857   1.923   1.257   1.345
  617SOL    HW2 1858   1.904   1.398   1.293
  618SOL     OW 1859   2.590   0.634   1.061
  618SOL    HW1 1860   2.665   0.617   1.004
  618SOL    HW2 1861   2.563   0.723   1.038
  619SOL     OW 1862   2.168   0.061   0.640
  619SOL    HW1 1863   2.169   0.152   0.669
  619SOL    HW2 1864   2.152   0.010   0.720
  620SOL     OW 1865   2.867   0.769   0.972
  620SOL    HW1 1866   2.897   0.775   1.063
  620SOL    HW2 1867   2.873   0.676   0.951
  621SOL     OW 1868   2.833   1.568   1.704
  621SOL    HW1 1869   2.826   1.609   1.617
  621SOL    HW2 1870   2.889   1.492   1.691
  622SOL     OW 1871   2.215   0.912   1.811
  622SOL    HW1 1872   2.298   0.936   1.851
  622SOL    HW2 1873   2.238   0.853   1.739
  623SOL     OW 1874   2.906   1.344   0.834
  623SOL    HW1 1875   2.910   1.266   0.780
  623SOL    HW2 1876   2.980   1.398   0.805
  624SOL     OW 1877   2.173   0.810   0.948
  624SOL    HW1 1878   2.266   0.833   0.944
  624SOL    HW2 1879   2.172   0.721   0.983
  625SOL     OW 1880   2.197   0.525   1.014
  625SOL    HW1 1881   2.159   0.438   0.997
  625SOL    HW2 1882   2.272   0.530   0.954
  626SOL     OW 1883   2.966   0.367   1.665
  626SOL    HW1 1884   2.910   0.431   1.708
  626SOL    HW2 1885   0.054   0.406   1.668
  627SOL     OW 1886   1.872   1.320   0.187
  627SOL    HW1 1887   1.781   1.333   0.160
  627SOL    HW2 1888   1.872   1.234   0.229
  628SOL     OW 1889   1.953   1.792   0.935
  628SOL    HW1 1890   1.922   1.711   0.894
  628SOL    HW2 1891   2.044   1.801   0.905
  629SOL     OW 1892   2.361   1.573   0.905
  629SOL    HW1 1893   2.430   1.635   0.930
  629SOL    HW2 1894   2.406   1.507   0.852
  630SOL     OW 1895   2.864   0.794   1.252
  630SOL    HW1 1896   2.907   0.730   1.308
  630SOL    HW2 1897   2.774   0.762   1.245
  631SOL     OW 1898   1.898   0.540   1.117
  631SOL    HW1 1899   1.979   0.525   1.068
  631SOL    HW2 1900   1.925   0.550   1.208
  632SOL     OW 1901   2.050   0.518   1.724
  632SOL    HW1 1902   2.109   0.483   1.658
  632SOL    HW2 1903   2.006   0.592   1.681
  633SOL     OW 1904   2.674   0.573   0.348
  633SOL    HW1 1905   2.678   0.493   0.295
  633SOL    HW2 1906   2.592   0.615   0.322
  634SOL     OW 1907   2.141   1.559   1.745
  634SOL    HW1 1908   2.082   1.619   1.791
  634SOL    HW2 1909   2.110   1.472   1.770
  635SOL     OW 1910   2.555   0.460   1.265
  635SOL    HW1 1911   2.510   0.382   1.233
  635SOL    HW2 1912   2.556   0.519   1.190
  636SOL     OW 1913   2.803   1.689   1.460
  636SOL    HW1 1914   2.771   1.641   1.383
  636SOL    HW2 1915   2.775   1.779   1.445
  637SOL     OW 1916   2.315   0.494   0.200
  637SOL    HW1 1917   2.372   0.567   0.221
  637SOL    HW2 1918   2.229   0.534   0.185
  638SOL     OW 1919   2.009   1.140   1.468
  638SOL    HW1 1920   2.014   1.087   1.548
  638SOL    HW2 1921   2.028   1.079   1.397
  639SOL     OW 1922   1.942   1.269   1.011
  639SOL    HW1 1923   1.931   1.275   1.106
  639SOL    HW2 1924   1.876   1.206   0.983
  640SOL     OW 1925   2.539   1.664   1.729
  640SOL    HW1 1926   2.485   1.743   1.719
  640SOL    HW2 1927   2.602   1.670   1.657
  641SOL     OW 1928   2.765   0.086   0.141
  641SOL    HW1 1929   2.807   0.043   0.067
  641SOL    HW2 1930   2.808   0.047   0.218
  642SOL     OW 1931   1.997   1.796   1.842
  642SOL    HW1 1932   1.947   1.730   1.889
  642SOL    HW2 1933   2.046   1.842   1.910
  643SOL     OW 1934   2.679   1.269   1.426
  643SOL    HW1 1935   2.669   1.314   1.510
  643SOL    HW2 1936   2.605   1.299   1.374
  644SOL     OW 1937   2.530   1.610   0.159
  644SOL    HW1 1938   2.535   1.627   0.065
  644SOL    HW2 1939   2.478   1.530   0.167
  645SOL     OW 1940   2.137   0.348   0.753
  645SOL    HW1 1941   2.047   0.368   0.727
  645SOL    HW2 1942   2.129   0.314   0.843
  646SOL     OW 1943   2.688   1.006   1.375
  646SOL    HW1 1944   2.733   1.001   1.290
  646SOL    HW2 1945   2.688   1.099   1.396
  647SOL     OW 1946   2.788   0.942   0.308
  647SOL    HW1 1947   2.838   0.954   0.228
  647SOL    HW2 1948   2.823   0.862   0.347
  648SOL     OW 1949   2.232   1.298   1.491
  648SOL    HW1 1950   2.220   1.379   1.441
  648SOL    HW2 1951   2.152   1.248   1.475
  649SOL     OW 1952   2.914   1.083   0.721
  649SOL    HW1 1953   2.838   1.042   0.761
  649SOL    HW2 1954   2.932   1.030   0.643
  650SOL     OW 1955   2.878   0.239   0.969
  650SOL    HW1 1956   2.875   0.188   0.888
  650SOL    HW2 1957   2.871   0.174   1.038
  651SOL     OW 1958   2.460   1.488   0.483
  651SOL    HW1 1959   2.503   1.439   0.413
  651SOL    HW2 1960   2.402   1.549   0.438
  652SOL     OW 1961   2.130   1.335   0.296
  652SOL    HW1 1962   2.044   1.340   0.254
  652SOL    HW2 1963   2.119   1.379   0.380
  653SOL     OW 1964   1.974   1.011   1.716
  653SOL    HW1 1965   1.898   0.994   1.771
  653SOL    HW2 1966   2.049   0.981   1.767
  654SOL     OW 1967   2.528   0.208   1.491
  654SOL    HW1 1968   2.611   0.182   1.452
  654SOL    HW2 1969   2.549   0.222   1.584
  655SOL     OW 1970   1.915   0.199   0.331
  655SOL    HW1 1971   1.886   0.234   0.247
  655SOL    HW2 1972   2.000   0.158   0.313
  656SOL     OW 1973   2.478   0.834   1.432
  656SOL    HW1 1974   2.534   0.911   1.418
  656SOL    HW2 1975   2.540   0.761   1.439
  657SOL     OW 1976   2.579   0.564   1.705
  657SOL    HW1 1977   2.612   0.628   1.767
  657SOL    HW2 1978   2.615   0.481   1.734
  658SOL     OW 1979   2.244   1.741   1.564
  658SOL    HW1 1980   2.157   1.780   1.552
  658SOL    HW2 1981   2.227   1.660   1.612
  659SOL     OW 1982   2.458   0.740   0.664
  659SOL    HW1 1983   2.493   0.828   0.652
  659SOL    HW2 1984   2.385   0.735   0.602
  660SOL     OW 1985   2.764   1.378   0.062
  660SOL    HW1 1986   2.692   1.386   0.125
  660SOL    HW2 1987   2.734   1.425   2.985
  661SOL     OW 1988   2.521   1.795   0.949
  661SOL    HW1 1989   2.498   1.885   0.924
  661SOL    HW2 1990   2.616   1.791   0.938
  662SOL     OW 1991   2.717   0.961   0.857
  662SOL    HW1 1992   2.766   0.890   0.899
  662SOL    HW2 1993   2.688   1.016   0.930
  663SOL     OW 1994   2.957   1.015   0.077
  663SOL    HW1 1995   2.928   1.054   2.995
  663SOL    HW2 1996   0.015   0.943   0.051
  664SOL     OW 1997   2.086   1.301   1.854
  664SOL    HW1 1998   2.011   1.248   1.826
  664SOL    HW2 1999   2.068   1.321   1.946
  665SOL     OW 2000   1.943   1.235   0.664
  665SOL    HW1 2001   1.951   1.185   0.745
  665SOL    HW2 2002   2.013   1.201   0.608
  666SOL     OW 2003   2.541   1.401   1.626
  666SOL    HW1 2004   2.461   1.357   1.653
  666SOL    HW2 2005   2.534   1.488   1.665
  667SOL     OW 2006   2.338   0.433   0.549
  667SOL    HW1 2007   2.324   0.376   0.474
  667SOL    HW2 2008   2.269   0.408   0.611
  668SOL     OW 2009   2.187   0.551   1.291
  668SOL    HW1 2010   2.245   0.499   1.346
  668SOL    HW2 2011   2.211   0.527   1.201
  669SOL     OW 2012   2.683   1.582   0.680
  669SOL    HW1 2013   2.682   1.618   0.591
  669SOL    HW2 2014   2.607   1.525   0.684
  670SOL     OW 2015   2.854   0.018   1.148
  670SOL    HW1 2016   2.819   2.945   1.097
  670SOL    HW2 2017   2.945   2.995   1.164
  671SOL     OW 2018   2.628   1.330   0.313
  671SOL    HW1 2019   2.600   1.240   0.331
  671SOL    HW2 2020   2.712   1.337   0.358
  672SOL     OW 2021   2.484   1.559   1.283
  672SOL    HW1 2022   2.486   1.640   1.334
  672SOL    HW2 2023   2.571   1.552   1.245
  673SOL     OW 2024   1.902   1.075   0.305
  673SOL    HW1 2025   1.996   1.068   0.287
  673SOL    HW2 2026   1.875   0.986   0.326
  674SOL     OW 2027   2.737   1.649   0.347
  674SOL    HW1 2028   2.668   1.632   0.284
  674SOL    HW2 2029   2.709   1.727   0.394
  675SOL     OW 2030   2.093   0.622   1.983
  675SOL    HW1 2031   2.003   0.623   2.016
  675SOL    HW2 2032   2.085   0.597   1.892
  676SOL     OW 2033   2.088   0.277   2.879
  676SOL    HW1 2034   2.104   0.238   2.965
  676SOL    HW2 2035   2.002   0.242   2.854
  677SOL     OW 2036   1.866   0.379   2.504
  677SOL    HW1 2037   1.785   0.410   2.546
  677SOL    HW2 2038   1.839   0.305   2.451
  678SOL     OW 2039   2.614   1.147   2.895
  678SOL    HW1 2040   2.551   1.192   2.952
  678SOL    HW2 2041   2.662   1.218   2.853
  679SOL     OW 2042   2.548   1.008   2.509
  679SOL    HW1 2043   2.607   0.991   2.582
  679SOL    HW2 2044   2.476   1.058   2.548
  680SOL     OW 2045   2.203   1.432   2.931
  680SOL    HW1 2046   2.125   1.399   2.885
  680SOL    HW2 2047   2.249   1.485   2.865
  681SOL     OW 2048   2.082   1.712   2.337
  681SOL    HW1 2049   2.106   1.789   2.389
  681SOL    HW2 2050   2.150   1.706   2.270
  682SOL     OW 2051   2.092   1.440   2.397
  682SOL    HW1 2052   2.076   1.534   2.401
  682SOL    HW2 2053   2.029   1.402   2.458
  683SOL     OW 2054   2.115   1.092   2.753
  683SOL    HW1 2055   2.110   1.005   2.793
  683SOL    HW2 2056   2.057   1.146   2.806
  684SOL     OW 2057   2.455   0.978   1.993
  684SOL    HW1 2058   2.494   1.033   1.926
  684SOL    HW2 2059   2.493   1.009   2.075
  685SOL     OW 2060   1.980   0.644   2.425
  685SOL    HW1 2061   1.934   0.564   2.449
  685SOL    HW2 2062   1.972   0.700   2.502
  686SOL     OW 2063   1.894   1.598   1.989
  686SOL    HW1 2064   1.875   1.505   2.005
  686SOL    HW2 2065   1.866   1.642   2.069
  687SOL     OW 2066   2.471   1.380   2.593
  687SOL    HW1 2067   2.423   1.297   2.601
  687SOL    HW2 2068   2.455   1.408   2.502
  688SOL     OW 2069   2.683   0.013   2.376
  688SOL    HW1 2070   2.708   0.104   2.357
  688SOL    HW2 2071   2.589   0.011   2.362
  689SOL     OW 2072   2.458   0.725   2.126
  689SOL    HW1 2073   2.464   0.804   2.072
  689SOL    HW2 2074   2.392   0.746   2.192
  690SOL     OW 2075   2.892   0.707   2.282
  690SOL    HW1 2076   2.918   0.693   2.373
  690SOL    HW2 2077   2.815   0.651   2.270
  691SOL     OW 2078   1.952   0.819   2.635
  691SOL    HW1 2079   2.032   0.811   2.687
  691SOL    HW2 2080   1.908   0.896   2.671
  692SOL     OW 2081   2.737   0.344   2.051
  692SOL    HW1 2082   2.790   0.405   2.000
  692SOL    HW2 2083   2.777   0.259   2.036
  693SOL     OW 2084   2.417   0.200   2.829
  693SOL    HW1 2085   2.363   0.264   2.874
  693SOL    HW2 2086   2.430   0.236   2.741
  694SOL     OW 2087   2.864   1.441   2.332
  694SOL    HW1 2088   2.828   1.516   2.285
  694SOL    HW2 2089   2.864   1.468   2.424
  695SOL     OW 2090   2.217   1.804   2.716
  695SOL    HW1 2091   2.260   1.720   2.729
  695SOL    HW2 2092   2.284   1.869   2.736
  696SOL     OW 2093   2.185   0.952   2.111
  696SOL    HW1 2094   2.264   0.976   2.063
  696SOL    HW2 2095   2.153   0.874   2.067
  697SOL     OW 2096   2.329   1.739   2.184
  697SOL    HW1 2097   2.370   1.794   2.250
  697SOL    HW2 2098   2.402   1.711   2.128
  698SOL     OW 2099   2.125   1.800   0.103
  698SOL    HW1 2100   2.167   1.731   0.154
  698SOL    HW2 2101   2.081   1.753   0.032
  699SOL     OW 2102   2.794   1.699   2.759
  699SOL    HW1 2103   2.859   1.638   2.795
  699SOL    HW2 2104   2.754   1.650   2.687
  700SOL     OW 2105   2.256   0.691   2.341
  700SOL    HW1 2106   2.285   0.601   2.354
  700SOL    HW2 2107   2.162   0.690   2.360
  701SOL     OW 2108   2.487   0.123   1.973
  701SOL    HW1 2109   2.576   0.087   1.970
  701SOL    HW2 2110   2.449   0.101   1.888
  702SOL     OW 2111   2.662   1.403   2.790
  702SOL    HW1 2112   2.748   1.394   2.749
  702SOL    HW2 2113   2.600   1.396   2.717
  703SOL     OW 2114   2.782   0.519   2.756
  703SOL    HW1 2115   2.757   0.495   2.667
  703SOL    HW2 2116   2.813   0.437   2.795
  704SOL     OW 2117   2.406   0.059   2.365
  704SOL    HW1 2118   2.318   0.043   2.400
  704SOL    HW2 2119   2.393   0.132   2.303
  705SOL     OW 2120   2.151   0.035   2.058
  705SOL    HW1 2121   2.195   0.110   2.018
  705SOL    HW2 2122   2.222   2.975   2.082
  706SOL     OW 2123   2.814   0.251   2.323
  706SOL    HW1 2124   2.762   0.293   2.253
  706SOL    HW2 2125   2.892   0.220   2.278
  707SOL     OW 2126   0.084   1.577   2.660
  707SOL    HW1 2127   0.112   1.622   2.581
  707SOL    HW2 2128   0.165   1.556   2.707
  708SOL     OW 2129   2.328   1.145   2.599
  708SOL    HW1 2130   2.257   1.129   2.661
  708SOL    HW2 2131   2.290   1.129   2.513
  709SOL     OW 2132   2.888   0.552   1.877
  709SOL    HW1 2133   2.841   0.633   1.857
  709SOL    HW2 2134   2.938   0.571   1.956
  710SOL     OW 2135   2.744   0.467   2.494
  710SOL    HW1 2136   2.679   0.518   2.446
  710SOL    HW2 2137   2.740   0.380   2.454
  711SOL     OW 2138   2.859   0.054   2.618
  711SOL    HW1 2139   2.821   0.052   2.530
  711SOL    HW2 2140   2.838   2.968   2.655
  712SOL     OW 2141   2.355   1.412   2.024
  712SOL    HW1 2142   2.279   1.382   2.075
  712SOL    HW2 2143   2.329   1.397   1.933
  713SOL     OW 2144   2.394   0.266   2.183
  713SOL    HW1 2145   2.428   0.212   2.112
  713SOL    HW2 2146   2.371   0.349   2.142
  714SOL     OW 2147   2.569   1.061   2.234
  714SOL    HW1 2148   2.554   1.047   2.327
  714SOL    HW2 2149   2.647   1.009   2.214
  715SOL     OW 2150   2.217   1.106   2.353
  715SOL    HW1 2151   2.218   1.180   2.293
  715SOL    HW2 2152   2.215   1.029   2.296
  716SOL     OW 2153   2.414   0.542   2.728
  716SOL    HW1 2154   2.433   0.593   2.650
  716SOL    HW2 2155   2.480   0.571   2.792
  717SOL     OW 2156   2.438   0.870   2.880
  717SOL    HW1 2157   2.480   0.952   2.855
  717SOL    HW2 2158   2.415   0.881   2.972
  718SOL     OW 2159   0.056   0.532   2.133
  718SOL    HW1 2160   0.083   0.454   2.182
  718SOL    HW2 2161   0.025   0.593   2.200
  719SOL     OW 2162   2.597   0.645   2.918
  719SOL    HW1 2163   2.661   0.620   2.852
  719SOL    HW2 2164   2.560   0.728   2.886
  720SOL     OW 2165   2.173   0.061   2.506
  720SOL    HW1 2166   2.163   0.152   2.534
  720SOL    HW2 2167   2.151   0.009   2.583
  721SOL     OW 2168   2.874   0.777   2.830
  721SOL    HW1 2169   2.883   0.769   2.925
  721SOL    HW2 2170   2.867   0.686   2.800
  722SOL     OW 2171   2.908   1.343   2.698
  722SOL    HW1 2172   2.914   1.268   2.639
  722SOL    HW2 2173   2.976   1.403   2.668
  723SOL     OW 2174   2.171   0.811   2.812
  723SOL    HW1 2175   2.264   0.832   2.809
  723SOL    HW2 2176   2.167   0.720   2.841
  724SOL     OW 2177   2.185   0.534   2.869
  724SOL    HW1 2178   2.150   0.445   2.865
  724SOL    HW2 2179   2.263   0.531   2.813
  725SOL     OW 2180   1.867   1.323   2.057
  725SOL    HW1 2181   1.778   1.338   2.025
  725SOL    HW2 2182   1.866   1.232   2.089
  726SOL     OW 2183   1.952   1.795   2.795
  726SOL    HW1 2184   1.921   1.713   2.759
  726SOL    HW2 2185   2.043   1.801   2.767
  727SOL     OW 2186   2.366   1.576   2.765
  727SOL    HW1 2187   2.437   1.637   2.786
  727SOL    HW2 2188   2.408   1.508   2.712
  728SOL     OW 2189   2.847   0.758   0.104
  728SOL    HW1 2190   2.887   0.741   0.189
  728SOL    HW2 2191   2.754   0.771   0.122
  729SOL     OW 2192   2.671   0.565   2.214
  729SOL    HW1 2193   2.670   0.489   2.156
  729SOL    HW2 2194   2.596   0.618   2.185
  730SOL     OW 2195   2.561   0.438   0.085
  730SOL    HW1 2196   2.468   0.431   0.103
  730SOL    HW2 2197   2.570   0.517   0.032
  731SOL     OW 2198   2.330   0.494   2.050
  731SOL    HW1 2199   2.386   0.570   2.070
  731SOL    HW2 2200   2.242   0.531   2.039
  732SOL     OW 2201   1.943   1.268   2.885
  732SOL    HW1 2202   1.930   1.276   2.980
  732SOL    HW2 2203   1.869   1.214   2.856
  733SOL     OW 2204   2.533   1.617   2.016
  733SOL    HW1 2205   2.541   1.628   1.922
  733SOL    HW2 2206   2.480   1.538   2.027
  734SOL     OW 2207   2.133   0.333   2.615
  734SOL    HW1 2208   2.047   0.366   2.591
  734SOL    HW2 2209   2.126   0.311   2.708
  735SOL     OW 2210   2.785   0.921   2.156
  735SOL    HW1 2211   2.834   0.929   2.074
  735SOL    HW2 2212   2.819   0.841   2.196
  736SOL     OW 2213   2.913   1.079   2.584
  736SOL    HW1 2214   2.833   1.039   2.620
  736SOL    HW2 2215   2.931   1.030   2.504
  737SOL     OW 2216   2.880   0.236   2.820
  737SOL    HW1 2217   2.874   0.190   2.737
  737SOL    HW2 2218   2.877   0.167   2.887
  738SOL     OW 2219   2.461   1.488   2.343
  738SOL    HW1 2220   2.503   1.439   2.272
  738SOL    HW2 2221   2.396   1.543   2.299
  739SOL     OW 2222   2.121   1.345   2.150
  739SOL    HW1 2223   2.028   1.345   2.126
  739SOL    HW2 2224   2.123   1.383   2.238
  740SOL     OW 2225   1.940   0.338   1.899
  740SOL    HW1 2226   1.851   0.317   1.871
  740SOL    HW2 2227   1.966   0.412   1.844
  741SOL     OW 2228   1.901   0.206   2.162
  741SOL    HW1 2229   1.921   0.265   2.089
  741SOL    HW2 2230   1.971   0.141   2.159
  742SOL     OW 2231   2.458   0.741   2.527
  742SOL    HW1 2232   2.493   0.828   2.511
  742SOL    HW2 2233   2.385   0.733   2.465
  743SOL     OW 2234   2.732   1.369   1.897
  743SOL    HW1 2235   2.681   1.401   1.972
  743SOL    HW2 2236   2.747   1.447   1.844
  744SOL     OW 2237   2.525   1.798   2.823
  744SOL    HW1 2238   2.504   1.885   2.789
  744SOL    HW2 2239   2.619   1.788   2.805
  745SOL     OW 2240   2.712   0.960   2.720
  745SOL    HW1 2241   2.766   0.892   2.759
  745SOL    HW2 2242   2.687   1.017   2.793
  746SOL     OW 2243   2.936   0.951   1.931
  746SOL    HW1 2244   2.908   1.027   1.880
  746SOL    HW2 2245   0.027   0.970   1.955
  747SOL     OW 2246   1.945   1.238   2.526
  747SOL    HW1 2247   1.944   1.183   2.605
  747SOL    HW2 2248   2.013   1.200   2.471
  748SOL     OW 2249   2.332   0.430   2.408
  748SOL    HW1 2250   2.320   0.373   2.332
  748SOL    HW2 2251   2.265   0.401   2.470
  749SOL     OW 2252   2.683   1.581   2.538
  749SOL    HW1 2253   2.684   1.618   2.450
  749SOL    HW2 2254   2.605   1.526   2.541
  750SOL     OW 2255   2.634   1.333   2.173
  750SOL    HW1 2256   2.602   1.243   2.181
  750SOL    HW2 2257   2.715   1.335   2.224
  751SOL     OW 2258   1.904   1.073   2.168
  751SOL    HW1 2259   1.998   1.065   2.150
  751SOL    HW2 2260   1.876   0.985   2.190
  752SOL     OW 2261   2.737   1.645   2.210
  752SOL    HW1 2262   2.668   1.631   2.145
  752SOL    HW2 2263   2.712   1.726   2.254
  753SOL     OW 2264   2.088   2.501   0.112
  753SOL    HW1 2265   1.999   2.476   0.135
  753SOL    HW2 2266   2.104   2.459   0.027
  754SOL     OW 2267   2.086   2.142   0.991
  754SOL    HW1 2268   2.116   2.110   1.076
  754SOL    HW2 2269   1.997   2.108   0.982
  755SOL     OW 2270   1.869   2.245   0.639
  755SOL    HW1 2271   1.785   2.265   0.680
  755SOL    HW2 2272   1.852   2.166   0.588
  756SOL     OW 2273   2.598   0.001   1.022
  756SOL    HW1 2274   2.527   0.048   1.068
  756SOL    HW2 2275   2.645   0.070   0.975
  757SOL     OW 2276   2.720   2.639   1.818
  757SOL    HW1 2277   2.719   2.700   1.892
  757SOL    HW2 2278   2.751   2.692   1.744
  758SOL     OW 2279   2.515   2.847   0.707
  758SOL    HW1 2280   2.609   2.855   0.724
  758SOL    HW2 2281   2.490   2.933   0.671
  759SOL     OW 2282   2.308   2.261   1.491
  759SOL    HW1 2283   2.383   2.201   1.494
  759SOL    HW2 2284   2.232   2.204   1.503
  760SOL     OW 2285   2.109   0.307   0.482
  760SOL    HW1 2286   2.060   0.387   0.504
  760SOL    HW2 2287   2.049   0.236   0.503
  761SOL     OW 2288   2.107   2.949   0.883
  761SOL    HW1 2289   2.124   2.862   0.920
  761SOL    HW2 2290   2.059   2.995   0.951
  762SOL     OW 2291   2.477   2.832   0.147
  762SOL    HW1 2292   2.463   2.924   0.127
  762SOL    HW2 2293   2.542   2.832   0.217
  763SOL     OW 2294   1.977   2.509   0.561
  763SOL    HW1 2295   1.948   2.421   0.583
  763SOL    HW2 2296   1.969   2.558   0.643
  764SOL     OW 2297   1.984   2.604   1.584
  764SOL    HW1 2298   2.077   2.620   1.603
  764SOL    HW2 2299   1.941   2.688   1.604
  765SOL     OW 2300   2.524   0.245   0.678
  765SOL    HW1 2301   2.466   0.181   0.719
  765SOL    HW2 2302   2.466   0.301   0.626
  766SOL     OW 2303   2.674   1.863   0.505
  766SOL    HW1 2304   2.712   1.950   0.493
  766SOL    HW2 2305   2.580   1.879   0.516
  767SOL     OW 2306   2.056   2.841   1.256
  767SOL    HW1 2307   2.138   2.792   1.249
  767SOL    HW2 2308   1.988   2.777   1.233
  768SOL     OW 2309   2.193   2.114   1.809
  768SOL    HW1 2310   2.238   2.197   1.823
  768SOL    HW2 2311   2.104   2.128   1.840
  769SOL     OW 2312   2.454   2.581   0.268
  769SOL    HW1 2313   2.463   2.661   0.216
  769SOL    HW2 2314   2.389   2.603   0.335
  770SOL     OW 2315   2.653   2.488   1.452
  770SOL    HW1 2316   2.630   2.462   1.541
  770SOL    HW2 2317   2.616   2.420   1.396
  771SOL     OW 2318   2.829   2.747   1.580
  771SOL    HW1 2319   2.857   2.662   1.546
  771SOL    HW2 2320   2.776   2.785   1.509
  772SOL     OW 2321   2.848   2.240   1.257
  772SOL    HW1 2322   2.770   2.287   1.287
  772SOL    HW2 2323   2.834   2.230   1.163
  773SOL     OW 2324   2.889   2.580   0.411
  773SOL    HW1 2325   2.927   2.563   0.498
  773SOL    HW2 2326   2.815   2.518   0.406
  774SOL     OW 2327   1.946   2.681   0.777
  774SOL    HW1 2328   2.031   2.671   0.821
  774SOL    HW2 2329   1.911   2.764   0.810
  775SOL     OW 2330   2.789   2.194   0.217
  775SOL    HW1 2331   2.782   2.262   0.150
  775SOL    HW2 2332   2.757   2.114   0.175
  776SOL     OW 2333   2.411   2.047   0.892
  776SOL    HW1 2334   2.413   2.072   0.984
  776SOL    HW2 2335   2.413   2.130   0.844
  777SOL     OW 2336   2.062   2.145   1.501
  777SOL    HW1 2337   1.978   2.192   1.496
  777SOL    HW2 2338   2.045   2.074   1.564
  778SOL     OW 2339   2.249   2.556   0.475
  778SOL    HW1 2340   2.275   2.464   0.485
  778SOL    HW2 2341   2.156   2.558   0.496
  779SOL     OW 2342   2.486   1.982   0.114
  779SOL    HW1 2343   2.580   1.965   0.117
  779SOL    HW2 2344   2.456   1.937   0.035
  780SOL     OW 2345   2.632   2.143   1.756
  780SOL    HW1 2346   2.701   2.078   1.767
  780SOL    HW2 2347   2.570   2.125   1.827
  781SOL     OW 2348   2.787   2.366   0.903
  781SOL    HW1 2349   2.760   2.355   0.812
  781SOL    HW2 2350   2.824   2.282   0.928
  782SOL     OW 2351   2.409   1.924   0.506
  782SOL    HW1 2352   2.329   1.926   0.558
  782SOL    HW2 2353   2.404   2.001   0.450
  783SOL     OW 2354   2.809   2.101   0.466
  783SOL    HW1 2355   2.774   2.149   0.391
  783SOL    HW2 2356   2.897   2.073   0.439
  784SOL     OW 2357   2.887   2.380   0.031
  784SOL    HW1 2358   2.844   2.463   0.010
  784SOL    HW2 2359   2.944   2.400   0.105
  785SOL     OW 2360   1.938   2.418   1.390
  785SOL    HW1 2361   2.029   2.414   1.363
  785SOL    HW2 2362   1.935   2.488   1.455
  786SOL     OW 2363   2.423   2.089   1.163
  786SOL    HW1 2364   2.461   2.008   1.199
  786SOL    HW2 2365   2.332   2.088   1.193
  787SOL     OW 2366   2.742   2.320   0.635
  787SOL    HW1 2367   2.685   2.379   0.586
  787SOL    HW2 2368   2.744   2.239   0.584
  788SOL     OW 2369   2.858   1.923   0.756
  788SOL    HW1 2370   2.811   1.903   0.676
  788SOL    HW2 2371   2.851   1.843   0.809
  789SOL     OW 2372   2.380   2.122   0.324
  789SOL    HW1 2373   2.421   2.073   0.252
  789SOL    HW2 2374   2.365   2.209   0.288
  790SOL     OW 2375   2.755   1.950   1.391
  790SOL    HW1 2376   2.780   1.934   1.300
  790SOL    HW2 2377   2.832   1.992   1.430
  791SOL     OW 2378   2.275   2.678   1.254
  791SOL    HW1 2379   2.346   2.685   1.317
  791SOL    HW2 2380   2.241   2.589   1.265
  792SOL     OW 2381   2.419   2.399   0.861
  792SOL    HW1 2382   2.434   2.455   0.786
  792SOL    HW2 2383   2.482   2.428   0.927
  793SOL     OW 2384   2.275   2.604   1.603
  793SOL    HW1 2385   2.336   2.648   1.545
  793SOL    HW2 2386   2.314   2.518   1.618
  794SOL     OW 2387   2.857   1.988   1.771
  794SOL    HW1 2388   2.899   2.043   1.705
  794SOL    HW2 2389   2.899   1.902   1.762
  795SOL     OW 2390   2.361   1.907   1.745
  795SOL    HW1 2391   2.319   1.851   1.680
  795SOL    HW2 2392   2.299   1.979   1.758
  796SOL     OW 2393   2.449   2.730   1.035
  796SOL    HW1 2394   2.467   2.822   1.017
  796SOL    HW2 2395   2.387   2.731   1.107
  797SOL     OW 2396   0.063   2.398   0.272
  797SOL    HW1 2397   0.078   2.318   0.321
  797SOL    HW2 2398   0.034   2.461   0.338
  798SOL     OW 2399   2.163   2.065   1.245
  798SOL    HW1 2400   2.127   2.095   1.328
  798SOL    HW2 2401   2.147   1.971   1.244
  799SOL     OW 2402   2.589   2.492   1.060
  799SOL    HW1 2403   2.666   2.479   1.004
  799SOL    HW2 2404   2.561   2.582   1.041
  800SOL     OW 2405   2.162   1.928   0.622
  800SOL    HW1 2406   2.146   2.019   0.648
  800SOL    HW2 2407   2.170   1.880   0.704
  801SOL     OW 2408   2.858   2.625   0.982
  801SOL    HW1 2409   2.909   2.621   1.063
  801SOL    HW2 2410   2.864   2.537   0.945
  802SOL     OW 2411   2.223   2.787   1.801
  802SOL    HW1 2412   2.290   2.780   1.869
  802SOL    HW2 2413   2.243   2.716   1.740
  803SOL     OW 2414   2.174   2.675   0.949
  803SOL    HW1 2415   2.267   2.692   0.936
  803SOL    HW2 2416   2.170   2.585   0.983
  804SOL     OW 2417   2.195   2.386   1.010
  804SOL    HW1 2418   2.159   2.298   0.995
  804SOL    HW2 2419   2.272   2.391   0.953
  805SOL     OW 2420   2.969   2.242   1.667
  805SOL    HW1 2421   2.912   2.301   1.716
  805SOL    HW2 2422   0.056   2.281   1.673
  806SOL     OW 2423   2.978   2.064   1.471
  806SOL    HW1 2424   2.965   2.134   1.533
  806SOL    HW2 2425   2.982   2.107   1.385
  807SOL     OW 2426   2.859   2.667   1.264
  807SOL    HW1 2427   2.908   2.599   1.308
  807SOL    HW2 2428   2.777   2.625   1.238
  808SOL     OW 2429   1.898   2.407   1.116
  808SOL    HW1 2430   1.978   2.387   1.068
  808SOL    HW2 2431   1.924   2.411   1.208
  809SOL     OW 2432   2.052   2.380   1.724
  809SOL    HW1 2433   2.108   2.342   1.656
  809SOL    HW2 2434   2.004   2.450   1.679
  810SOL     OW 2435   2.670   2.427   0.355
  810SOL    HW1 2436   2.673   2.358   0.289
  810SOL    HW2 2437   2.596   2.482   0.330
  811SOL     OW 2438   2.556   2.318   1.264
  811SOL    HW1 2439   2.508   2.241   1.233
  811SOL    HW2 2440   2.556   2.378   1.190
  812SOL     OW 2441   2.305   2.356   0.207
  812SOL    HW1 2442   2.372   2.423   0.222
  812SOL    HW2 2443   2.226   2.405   0.187
  813SOL     OW 2444   2.019   2.996   1.474
  813SOL    HW1 2445   2.024   2.939   1.550
  813SOL    HW2 2446   2.034   2.938   1.399
  814SOL     OW 2447   2.761   1.935   0.125
  814SOL    HW1 2448   2.819   1.910   0.053
  814SOL    HW2 2449   2.803   1.898   0.203
  815SOL     OW 2450   2.126   2.179   0.719
  815SOL    HW1 2451   2.042   2.216   0.694
  815SOL    HW2 2452   2.121   2.169   0.814
  816SOL     OW 2453   2.673   2.866   1.375
  816SOL    HW1 2454   2.729   2.842   1.301
  816SOL    HW2 2455   2.699   2.955   1.397
  817SOL     OW 2456   2.746   2.784   0.287
  817SOL    HW1 2457   2.825   2.834   0.269
  817SOL    HW2 2458   2.772   2.720   0.353
  818SOL     OW 2459   2.880   2.103   0.967
  818SOL    HW1 2460   2.875   2.054   0.885
  818SOL    HW2 2461   2.869   2.037   1.035
  819SOL     OW 2462   1.974   2.864   1.709
  819SOL    HW1 2463   1.899   2.856   1.768
  819SOL    HW2 2464   2.050   2.845   1.764
  820SOL     OW 2465   2.527   2.062   1.500
  820SOL    HW1 2466   2.609   2.040   1.454
  820SOL    HW2 2467   2.556   2.090   1.587
  821SOL     OW 2468   1.937   2.019   0.341
  821SOL    HW1 2469   1.902   2.066   0.265
  821SOL    HW2 2470   2.027   1.998   0.316
  822SOL     OW 2471   2.475   2.693   1.434
  822SOL    HW1 2472   2.532   2.768   1.418
  822SOL    HW2 2473   2.535   2.618   1.441
  823SOL     OW 2474   2.578   2.426   1.703
  823SOL    HW1 2475   2.612   2.491   1.765
  823SOL    HW2 2476   2.612   2.342   1.736
  824SOL     OW 2477   2.456   2.587   0.661
  824SOL    HW1 2478   2.482   2.678   0.671
  824SOL    HW2 2479   2.384   2.589   0.597
  825SOL     OW 2480   2.750   2.837   0.862
  825SOL    HW1 2481   2.780   2.753   0.898
  825SOL    HW2 2482   2.682   2.866   0.923
  826SOL     OW 2483   2.292   2.295   0.528
  826SOL    HW1 2484   2.320   2.224   0.469
  826SOL    HW2 2485   2.245   2.251   0.598
  827SOL     OW 2486   2.189   2.415   1.290
  827SOL    HW1 2487   2.244   2.360   1.346
  827SOL    HW2 2488   2.211   2.387   1.201
  828SOL     OW 2489   2.867   1.881   1.145
  828SOL    HW1 2490   2.813   1.812   1.106
  828SOL    HW2 2491   2.957   1.857   1.122
  829SOL     OW 2492   1.872   2.918   0.304
  829SOL    HW1 2493   1.957   2.921   0.260
  829SOL    HW2 2494   1.865   2.828   0.337
  830SOL     OW 2495   2.094   2.473   1.982
  830SOL    HW1 2496   2.006   2.489   2.015
  830SOL    HW2 2497   2.083   2.452   1.889
  831SOL     OW 2498   2.090   2.142   2.846
  831SOL    HW1 2499   2.117   2.115   2.934
  831SOL    HW2 2500   2.000   2.110   2.838
  832SOL     OW 2501   1.870   2.245   2.498
  832SOL    HW1 2502   1.786   2.269   2.539
  832SOL    HW2 2503   1.851   2.163   2.451
  833SOL     OW 2504   2.639   0.016   2.880
  833SOL    HW1 2505   2.549   0.024   2.911
  833SOL    HW2 2506   2.651   0.091   2.822
  834SOL     OW 2507   2.513   2.844   2.562
  834SOL    HW1 2508   2.604   2.849   2.591
  834SOL    HW2 2509   2.492   2.934   2.536
  835SOL     OW 2510   2.099   0.302   2.337
  835SOL    HW1 2511   2.056   0.384   2.362
  835SOL    HW2 2512   2.045   0.233   2.376
  836SOL     OW 2513   2.111   2.952   2.750
  836SOL    HW1 2514   2.125   2.863   2.782
  836SOL    HW2 2515   2.055   2.993   2.815
  837SOL     OW 2516   2.465   2.824   1.995
  837SOL    HW1 2517   2.461   2.907   1.946
  837SOL    HW2 2518   2.529   2.840   2.064
  838SOL     OW 2519   1.978   2.509   2.424
  838SOL    HW1 2520   1.949   2.421   2.445
  838SOL    HW2 2521   1.969   2.558   2.506
  839SOL     OW 2522   2.504   0.247   2.563
  839SOL    HW1 2523   2.460   0.163   2.551
  839SOL    HW2 2524   2.466   0.303   2.495
  840SOL     OW 2525   2.673   1.863   2.365
  840SOL    HW1 2526   2.713   1.949   2.354
  840SOL    HW2 2527   2.580   1.880   2.378
  841SOL     OW 2528   2.061   2.807   0.116
  841SOL    HW1 2529   2.130   2.741   0.106
  841SOL    HW2 2530   1.981   2.761   0.092
  842SOL     OW 2531   2.458   2.581   2.128
  842SOL    HW1 2532   2.465   2.658   2.072
  842SOL    HW2 2533   2.392   2.604   2.194
  843SOL     OW 2534   2.895   2.578   2.275
  843SOL    HW1 2535   2.924   2.567   2.366
  843SOL    HW2 2536   2.817   2.523   2.268
  844SOL     OW 2537   1.947   2.682   2.638
  844SOL    HW1 2538   2.029   2.670   2.685
  844SOL    HW2 2539   1.910   2.763   2.675
  845SOL     OW 2540   2.749   2.204   2.060
  845SOL    HW1 2541   2.788   2.267   2.000
  845SOL    HW2 2542   2.754   2.120   2.015
  846SOL     OW 2543   2.413   2.049   2.764
  846SOL    HW1 2544   2.382   2.083   2.848
  846SOL    HW2 2545   2.420   2.126   2.708
  847SOL     OW 2546   2.250   2.556   2.337
  847SOL    HW1 2547   2.275   2.464   2.347
  847SOL    HW2 2548   2.156   2.558   2.358
  848SOL     OW 2549   2.495   1.989   1.966
  848SOL    HW1 2550   2.562   1.923   1.981
  848SOL    HW2 2551   2.445   1.956   1.891
  849SOL     OW 2552   2.785   2.376   2.756
  849SOL    HW1 2553   2.761   2.354   2.667
  849SOL    HW2 2554   2.814   2.294   2.795
  850SOL     OW 2555   2.410   1.926   2.368
  850SOL    HW1 2556   2.328   1.926   2.418
  850SOL    HW2 2557   2.404   2.004   2.313
  851SOL     OW 2558   2.153   1.909   2.047
  851SOL    HW1 2559   2.211   1.974   2.007
  851SOL    HW2 2560   2.213   1.845   2.085
  852SOL     OW 2561   2.804   2.103   2.319
  852SOL    HW1 2562   2.766   2.149   2.244
  852SOL    HW2 2563   2.892   2.077   2.290
  853SOL     OW 2564   2.888   2.414   1.877
  853SOL    HW1 2565   2.840   2.494   1.855
  853SOL    HW2 2566   2.935   2.435   1.957
  854SOL     OW 2567   2.742   2.318   2.495
  854SOL    HW1 2568   2.684   2.378   2.448
  854SOL    HW2 2569   2.742   2.238   2.442
  855SOL     OW 2570   2.856   1.924   2.611
  855SOL    HW1 2571   2.807   1.897   2.534
  855SOL    HW2 2572   2.853   1.848   2.669
  856SOL     OW 2573   2.390   2.124   2.183
  856SOL    HW1 2574   2.429   2.075   2.110
  856SOL    HW2 2575   2.370   2.210   2.146
  857SOL     OW 2576   2.418   2.394   2.724
  857SOL    HW1 2577   2.432   2.452   2.648
  857SOL    HW2 2578   2.477   2.428   2.791
  858SOL     OW 2579   2.433   2.729   2.885
  858SOL    HW1 2580   2.480   2.807   2.855
  858SOL    HW2 2581   2.422   2.742   2.979
  859SOL     OW 2582   0.056   2.391   2.138
  859SOL    HW1 2583   0.087   2.318   2.190
  859SOL    HW2 2584   0.018   2.452   2.202
  860SOL     OW 2585   2.158   2.070   0.092
  860SOL    HW1 2586   2.189   2.102   0.177
  860SOL    HW2 2587   2.153   1.975   0.103
  861SOL     OW 2588   2.591   2.500   2.914
  861SOL    HW1 2589   2.662   2.480   2.853
  861SOL    HW2 2590   2.560   2.587   2.888
  862SOL     OW 2591   2.163   1.928   2.483
  862SOL    HW1 2592   2.145   2.019   2.509
  862SOL    HW2 2593   2.167   1.880   2.566
  863SOL     OW 2594   2.871   2.633   2.825
  863SOL    HW1 2595   2.894   2.634   2.918
  863SOL    HW2 2596   2.868   2.540   2.802
  864SOL     OW 2597   2.170   2.673   2.810
  864SOL    HW1 2598   2.264   2.694   2.811
  864SOL    HW2 2599   2.166   2.582   2.839
  865SOL     OW 2600   2.185   2.395   2.866
  865SOL    HW1 2601   2.149   2.307   2.858
  865SOL    HW2 2602   2.265   2.393   2.813
  866SOL     OW 2603   2.876   2.641   0.095
  866SOL    HW1 2604   2.916   2.634   0.182
  866SOL    HW2 2605   2.786   2.669   0.112
  867SOL     OW 2606   2.675   2.429   2.217
  867SOL    HW1 2607   2.673   2.353   2.158
  867SOL    HW2 2608   2.600   2.482   2.189
  868SOL     OW 2609   2.567   2.308   0.101
  868SOL    HW1 2610   2.480   2.271   0.091
  868SOL    HW2 2611   2.570   2.380   0.039
  869SOL     OW 2612   2.331   2.353   2.051
  869SOL    HW1 2613   2.386   2.429   2.073
  869SOL    HW2 2614   2.244   2.390   2.038
  870SOL     OW 2615   0.165   2.703   2.163
  870SOL    HW1 2616   0.105   2.647   2.214
  870SOL    HW2 2617   0.195   2.647   2.092
  871SOL     OW 2618   2.127   2.180   2.578
  871SOL    HW1 2619   2.042   2.217   2.553
  871SOL    HW2 2620   2.123   2.171   2.673
  872SOL     OW 2621   2.759   2.763   2.114
  872SOL    HW1 2622   2.836   2.814   2.088
  872SOL    HW2 2623   2.791   2.705   2.183
  873SOL     OW 2624   2.876   2.101   2.819
  873SOL    HW1 2625   2.872   2.056   2.735
  873SOL    HW2 2626   2.895   2.031   2.882
  874SOL     OW 2627   1.938   2.198   1.898
  874SOL    HW1 2628   1.853   2.176   1.862
  874SOL    HW2 2629   1.968   2.273   1.847
  875SOL     OW 2630   1.933   2.021   2.176
  875SOL    HW1 2631   1.918   2.100   2.124
  875SOL    HW2 2632   2.017   1.988   2.145
  876SOL     OW 2633   2.457   2.584   2.522
  876SOL    HW1 2634   2.483   2.675   2.532
  876SOL    HW2 2635   2.384   2.587   2.460
  877SOL     OW 2636   2.740   2.832   2.714
  877SOL    HW1 2637   2.783   2.754   2.751
  877SOL    HW2 2638   2.706   2.879   2.790
  878SOL     OW 2639   2.949   2.832   1.900
  878SOL    HW1 2640   2.916   2.922   1.909
  878SOL    HW2 2641   0.011   2.823   1.973
  879SOL     OW 2642   2.293   2.295   2.387
  879SOL    HW1 2643   2.319   2.222   2.329
  879SOL    HW2 2644   2.245   2.253   2.458
  880SOL     OW 2645   1.886   2.920   2.174
  880SOL    HW1 2646   1.972   2.930   2.132
  880SOL    HW2 2647   1.880   2.827   2.195
   3.00000   3.00000   3.00000
