Heptane system
 8303
    16TXY   H16    1   2.885   3.620   3.898
    16TXY    C7    2   2.815   3.695   3.861
    16TXY   H14    3   2.715   3.651   3.863
    16TXY   H15    4   2.840   3.714   3.756
    16TXY    C5    5   2.821   3.824   3.943
    16TXY    H9    6   2.756   3.898   3.897
    16TXY   H10    7   2.922   3.864   3.939
    16TXY    C3    8   2.780   3.806   4.091
    16TXY    H5    9   2.680   3.764   4.095
    16TXY    H6   10   2.774   3.905   4.137
    16TXY    C1   11   2.876   3.717   4.172
    16TXY    H1   12   2.877   3.617   4.129
    16TXY    H2   13   2.977   3.757   4.162
    16TXY    C2   14   2.839   3.706   4.321
    16TXY    H3   15   2.742   3.752   4.340
    16TXY    H4   16   2.829   3.601   4.347
    16TXY    C4   17   2.943   3.770   4.417
    16TXY    H7   18   2.916   3.745   4.519
    16TXY    H8   19   3.041   3.727   4.398
    16TXY    C6   20   2.952   3.923   4.403
    16TXY   H11   21   2.856   3.970   4.424
    16TXY   H12   22   3.025   3.964   4.473
    16TXY   H13   23   2.983   3.952   4.303
    26TXY   H16   24   0.860   2.421   1.460
    26TXY    C7   25   0.948   2.465   1.507
    26TXY   H14   26   1.014   2.384   1.536
    26TXY   H15   27   0.915   2.515   1.597
    26TXY    C5   28   1.019   2.563   1.412
    26TXY    H9   29   1.102   2.609   1.466
    26TXY   H10   30   0.950   2.644   1.386
    26TXY    C3   31   1.073   2.498   1.282
    26TXY    H5   32   1.139   2.416   1.310
    26TXY    H6   33   1.134   2.571   1.230
    26TXY    C1   34   0.963   2.446   1.188
    26TXY    H1   35   0.905   2.370   1.239
    26TXY    H2   36   0.894   2.528   1.165
    26TXY    C2   37   1.019   2.386   1.058
    26TXY    H3   38   1.128   2.378   1.063
    26TXY    H4   39   0.982   2.285   1.046
    26TXY    C4   40   0.983   2.466   0.930
    26TXY    H7   41   1.015   2.409   0.842
    26TXY    H8   42   0.875   2.476   0.923
    26TXY    C6   43   1.047   2.605   0.925
    26TXY   H11   44   1.155   2.600   0.930
    26TXY   H12   45   1.021   2.657   0.832
    26TXY   H13   46   1.013   2.668   1.008
    36TXY   H16   47   4.199   4.872   1.127
    36TXY    C7   48   4.144   4.867   1.221
    36TXY   H14   49   4.208   4.904   1.300
    36TXY   H15   50   4.124   4.762   1.242
    36TXY    C5   51   4.013   4.946   1.213
    36TXY    H9   52   3.957   4.931   1.306
    36TXY   H10   53   3.952   4.906   1.132
    36TXY    C3   54   4.033   0.098   1.190
    36TXY    H5   55   4.100   0.136   1.268
    36TXY    H6   56   3.938   0.148   1.205
    36TXY    C1   57   4.090   0.133   1.052
    36TXY    H1   58   4.188   0.086   1.040
    36TXY    H2   59   4.025   0.091   0.975
    36TXY    C2   60   4.106   0.284   1.030
    36TXY    H3   61   4.098   0.338   1.125
    36TXY    H4   62   4.206   0.305   0.992
    36TXY    C4   63   4.003   0.346   0.931
    36TXY    H7   64   4.029   0.450   0.914
    36TXY    H8   65   4.011   0.295   0.835
    36TXY    C6   66   3.858   0.338   0.980
    36TXY   H11   67   3.847   0.387   1.077
    36TXY   H12   68   3.791   0.387   0.910
    36TXY   H13   69   3.825   0.235   0.991
    46TXY   H16   70   0.946   4.568   0.780
    46TXY    C7   71   0.985   4.487   0.717
    46TXY   H14   72   1.032   4.533   0.630
    46TXY   H15   73   0.900   4.429   0.682
    46TXY    C5   74   1.083   4.399   0.795
    46TXY    H9   75   1.113   4.316   0.730
    46TXY   H10   76   1.031   4.355   0.880
    46TXY    C3   77   1.210   4.472   0.844
    46TXY    H5   78   1.260   4.517   0.758
    46TXY    H6   79   1.279   4.398   0.885
    46TXY    C1   80   1.181   4.580   0.950
    46TXY    H1   81   1.118   4.657   0.906
    46TXY    H2   82   1.124   4.536   1.032
    46TXY    C2   83   1.309   4.647   1.004
    46TXY    H3   84   1.396   4.615   0.947
    46TXY    H4   85   1.302   4.755   0.990
    46TXY    C4   86   1.336   4.620   1.154
    46TXY    H7   87   1.418   4.683   1.187
    46TXY    H8   88   1.248   4.649   1.212
    46TXY    C6   89   1.369   4.474   1.185
    46TXY   H11   90   1.458   4.442   1.130
    46TXY   H12   91   1.390   4.460   1.291
    46TXY   H13   92   1.287   4.407   1.158
    56TXY   H16   93   0.640   3.394   3.357
    56TXY    C7   94   0.731   3.428   3.308
    56TXY   H14   95   0.703   3.469   3.211
    56TXY   H15   96   0.793   3.340   3.289
    56TXY    C5   97   0.806   3.531   3.392
    56TXY    H9   98   0.900   3.556   3.342
    56TXY   H10   99   0.833   3.486   3.488
    56TXY    C3  100   0.726   3.662   3.418
    56TXY    H5  101   0.698   3.704   3.322
    56TXY    H6  102   0.793   3.734   3.465
    56TXY    C1  103   0.602   3.642   3.505
    56TXY    H1  104   0.534   3.573   3.455
    56TXY    H2  105   0.631   3.594   3.599
    56TXY    C2  106   0.526   3.773   3.534
    56TXY    H3  107   0.560   3.852   3.467
    56TXY    H4  108   0.420   3.759   3.513
    56TXY    C4  109   0.539   3.823   3.680
    56TXY    H7  110   0.471   3.907   3.695
    56TXY    H8  111   0.508   3.744   3.748
    56TXY    C6  112   0.681   3.867   3.717
    56TXY   H11  113   0.716   3.948   3.652
    56TXY   H12  114   0.685   3.904   3.820
    56TXY   H13  115   0.752   3.785   3.709
    66TXY   H16  116   1.651   1.831   4.944
    66TXY    C7  117   1.717   1.880   4.873
    66TXY   H14  118   1.695   1.987   4.874
    66TXY   H15  119   1.692   1.843   4.774
    66TXY    C5  120   1.864   1.853   4.906
    66TXY    H9  121   1.926   1.898   4.828
    66TXY   H10  122   1.883   1.746   4.903
    66TXY    C3  123   1.909   1.909   0.043
    66TXY    H5  124   1.889   2.016   0.046
    66TXY    H6  125   2.017   1.897   0.051
    66TXY    C1  126   1.841   1.841   0.163
    66TXY    H1  127   1.734   1.856   0.157
    66TXY    H2  128   1.858   1.733   0.156
    66TXY    C2  129   1.891   1.893   0.299
    66TXY    H3  130   1.951   1.983   0.286
    66TXY    H4  131   1.805   1.922   0.360
    66TXY    C4  132   1.974   1.790   0.380
    66TXY    H7  133   1.995   1.832   0.478
    66TXY    H8  134   1.915   1.700   0.395
    66TXY    C6  135   2.107   1.753   0.312
    66TXY   H11  136   2.170   1.840   0.297
    66TXY   H12  137   2.163   1.682   0.374
    66TXY   H13  138   2.091   1.706   0.215
    76TXY   H16  139   2.814   0.067   3.038
    76TXY    C7  140   2.708   0.043   3.035
    76TXY   H14  141   2.694   4.944   3.078
    76TXY   H15  142   2.679   0.039   2.930
    76TXY    C5  143   2.624   0.148   3.110
    76TXY    H9  144   2.519   0.125   3.097
    76TXY   H10  145   2.642   0.245   3.064
    76TXY    C3  146   2.656   0.157   3.262
    76TXY    H5  147   2.644   0.057   3.305
    76TXY    H6  148   2.581   0.220   3.308
    76TXY    C1  149   2.796   0.211   3.293
    76TXY    H1  150   2.871   0.148   3.245
    76TXY    H2  151   2.806   0.310   3.249
    76TXY    C2  152   2.826   0.216   3.444
    76TXY    H3  153   2.737   0.188   3.501
    76TXY    H4  154   2.903   0.143   3.469
    76TXY    C4  155   2.873   0.355   3.494
    76TXY    H7  156   2.908   0.345   3.597
    76TXY    H8  157   2.959   0.387   3.435
    76TXY    C6  158   2.764   0.463   3.489
    76TXY   H11  159   2.678   0.434   3.549
    76TXY   H12  160   2.801   0.558   3.527
    76TXY   H13  161   2.730   0.480   3.387
    86TXY   H16  162   1.808   4.981   1.914
    86TXY    C7  163   1.702   4.992   1.935
    86TXY   H14  164   1.660   4.892   1.949
    86TXY   H15  165   1.656   0.034   1.845
    86TXY    C5  166   1.677   0.081   2.057
    86TXY    H9  167   1.569   0.094   2.070
    86TXY   H10  168   1.718   0.180   2.038
    86TXY    C3  169   1.737   0.024   2.188
    86TXY    H5  170   1.701   4.922   2.202
    86TXY    H6  171   1.698   0.083   2.272
    86TXY    C1  172   1.890   0.026   2.192
    86TXY    H1  173   1.929   4.968   2.108
    86TXY    H2  174   1.925   0.128   2.178
    86TXY    C2  175   1.948   4.969   2.323
    86TXY    H3  176   1.870   4.916   2.378
    86TXY    H4  177   2.024   4.894   2.299
    86TXY    C4  178   2.012   0.074   2.416
    86TXY    H7  179   2.058   0.024   2.501
    86TXY    H8  180   2.091   0.126   2.363
    86TXY    C6  181   1.911   0.177   2.470
    86TXY   H11  182   1.830   0.129   2.524
    86TXY   H12  183   1.960   0.247   2.538
    86TXY   H13  184   1.867   0.236   2.389
    96TXY   H16  185   3.011   4.512   1.460
    96TXY    C7  186   3.100   4.464   1.420
    96TXY   H14  187   3.182   4.536   1.423
    96TXY   H15  188   3.081   4.440   1.316
    96TXY    C5  189   3.135   4.337   1.499
    96TXY    H9  190   3.219   4.287   1.451
    96TXY   H10  191   3.050   4.268   1.495
    96TXY    C3  192   3.171   4.363   1.648
    96TXY    H5  193   3.255   4.432   1.651
    96TXY    H6  194   3.205   4.270   1.692
    96TXY    C1  195   3.054   4.420   1.731
    96TXY    H1  196   3.022   4.515   1.687
    96TXY    H2  197   2.969   4.352   1.724
    96TXY    C2  198   3.092   4.445   1.878
    96TXY    H3  199   3.200   4.439   1.891
    96TXY    H4  200   3.062   4.546   1.906
    96TXY    C4  201   3.025   4.346   1.978
    96TXY    H7  202   3.046   4.380   2.079
    96TXY    H8  203   2.917   4.349   1.965
    96TXY    C6  204   3.074   4.202   1.963
    96TXY   H11  205   3.182   4.195   1.977
    96TXY   H12  206   3.027   4.137   2.036
    96TXY   H13  207   3.051   4.162   1.864
   106TXY   H16  208   0.564   4.278   2.761
   106TXY    C7  209   0.652   4.296   2.823
   106TXY   H14  210   0.725   4.349   2.762
   106TXY   H15  211   0.694   4.199   2.850
   106TXY    C5  212   0.615   4.376   2.948
   106TXY    H9  213   0.704   4.387   3.011
   106TXY   H10  214   0.542   4.320   3.006
   106TXY    C3  215   0.559   4.517   2.917
   106TXY    H5  216   0.628   4.568   2.850
   106TXY    H6  217   0.557   4.575   3.010
   106TXY    C1  218   0.419   4.515   2.854
   106TXY    H1  219   0.423   4.461   2.759
   106TXY    H2  220   0.351   4.459   2.919
   106TXY    C2  221   0.363   4.656   2.828
   106TXY    H3  222   0.442   4.730   2.833
   106TXY    H4  223   0.323   4.661   2.727
   106TXY    C4  224   0.250   4.698   2.925
   106TXY    H7  225   0.208   4.793   2.892
   106TXY    H8  226   0.169   4.625   2.920
   106TXY    C6  227   0.296   4.711   3.071
   106TXY   H11  228   0.376   4.785   3.080
   106TXY   H12  229   0.214   4.744   3.135
   106TXY   H13  230   0.333   4.617   3.110
   116TXY   H16  231   2.186   0.312   3.691
   116TXY    C7  232   2.215   0.376   3.608
   116TXY   H14  233   2.232   0.313   3.521
   116TXY   H15  234   2.310   0.422   3.633
   116TXY    C5  235   2.108   0.483   3.579
   116TXY    H9  236   2.145   0.549   3.501
   116TXY   H10  237   2.094   0.544   3.668
   116TXY    C3  238   1.972   0.424   3.535
   116TXY    H5  239   1.988   0.361   3.448
   116TXY    H6  240   1.908   0.506   3.503
   116TXY    C1  241   1.901   0.343   3.645
   116TXY    H1  242   1.964   0.259   3.673
   116TXY    H2  243   1.891   0.406   3.734
   116TXY    C2  244   1.764   0.290   3.602
   116TXY    H3  245   1.752   0.298   3.494
   116TXY    H4  246   1.758   0.183   3.625
   116TXY    C4  247   1.644   0.360   3.671
   116TXY    H7  248   1.552   0.308   3.643
   116TXY    H8  249   1.654   0.351   3.779
   116TXY    C6  250   1.630   0.508   3.633
   116TXY   H11  251   1.618   0.521   3.526
   116TXY   H12  252   1.543   0.552   3.682
   116TXY   H13  253   1.717   0.565   3.664
   126TXY   H16  254   2.167   2.321   3.178
   126TXY    C7  255   2.207   2.227   3.141
   126TXY   H14  256   2.187   2.221   3.034
   126TXY   H15  257   2.153   2.146   3.189
   126TXY    C5  258   2.358   2.215   3.169
   126TXY    H9  259   2.392   2.117   3.137
   126TXY   H10  260   2.374   2.222   3.276
   126TXY    C3  261   2.443   2.324   3.098
   126TXY    H5  262   2.423   2.319   2.991
   126TXY    H6  263   2.548   2.298   3.111
   126TXY    C1  264   2.418   2.466   3.150
   126TXY    H1  265   2.313   2.492   3.132
   126TXY    H2  266   2.433   2.468   3.258
   126TXY    C2  267   2.507   2.572   3.082
   126TXY    H3  268   2.553   2.530   2.992
   126TXY    H4  269   2.445   2.655   3.048
   126TXY    C4  270   2.618   2.629   3.173
   126TXY    H7  271   2.667   2.712   3.121
   126TXY    H8  272   2.573   2.670   3.263
   126TXY    C6  273   2.724   2.526   3.213
   126TXY   H11  274   2.773   2.484   3.125
   126TXY   H12  275   2.802   2.572   3.274
   126TXY   H13  276   2.681   2.444   3.270
   136TXY   H16  277   1.152   2.046   1.883
   136TXY    C7  278   1.158   2.122   1.805
   136TXY   H14  279   1.089   2.093   1.725
   136TXY   H15  280   1.258   2.119   1.764
   136TXY    C5  281   1.124   2.261   1.860
   136TXY    H9  282   1.139   2.335   1.780
   136TXY   H10  283   1.195   2.286   1.939
   136TXY    C3  284   0.980   2.274   1.914
   136TXY    H5  285   0.910   2.251   1.834
   136TXY    H6  286   0.963   2.379   1.942
   136TXY    C1  287   0.951   2.184   2.035
   136TXY    H1  288   0.957   2.080   2.003
   136TXY    H2  289   1.029   2.198   2.110
   136TXY    C2  290   0.812   2.207   2.097
   136TXY    H3  291   0.749   2.264   2.029
   136TXY    H4  292   0.763   2.111   2.112
   136TXY    C4  293   0.816   2.281   2.234
   136TXY    H7  294   0.716   2.281   2.277
   136TXY    H8  295   0.881   2.226   2.302
   136TXY    C6  296   0.866   2.425   2.224
   136TXY   H11  297   0.802   2.485   2.158
   136TXY   H12  298   0.866   2.474   2.321
   136TXY   H13  299   0.968   2.430   2.185
   146TXY   H16  300   0.028   1.163   0.579
   146TXY    C7  301   4.957   1.082   0.591
   146TXY   H14  302   0.013   0.988   0.588
   146TXY   H15  303   4.891   1.083   0.504
   146TXY    C5  304   4.877   1.095   0.721
   146TXY    H9  305   4.803   1.015   0.725
   146TXY   H10  306   4.823   1.189   0.721
   146TXY    C3  307   4.965   1.087   0.849
   146TXY    H5  308   0.021   0.993   0.847
   146TXY    H6  309   4.899   1.082   0.935
   146TXY    C1  310   0.061   1.205   0.865
   146TXY    H1  311   0.129   1.208   0.780
   146TXY    H2  312   0.005   1.298   0.863
   146TXY    C2  313   0.145   1.197   0.994
   146TXY    H3  314   0.140   1.097   1.037
   146TXY    H4  315   0.250   1.214   0.969
   146TXY    C4  316   0.104   1.300   1.102
   146TXY    H7  317   0.176   1.295   1.184
   146TXY    H8  318   0.110   1.401   1.061
   146TXY    C6  319   4.964   1.277   1.159
   146TXY   H11  320   4.955   1.177   1.203
   146TXY   H12  321   4.941   1.349   1.237
   146TXY   H13  322   4.888   1.286   1.082
   156TXY   H16  323   4.639   1.891   3.860
   156TXY    C7  324   4.588   1.798   3.884
   156TXY   H14  325   4.490   1.824   3.924
   156TXY   H15  326   4.644   1.750   3.965
   156TXY    C5  327   4.577   1.706   3.763
   156TXY    H9  328   4.532   1.611   3.794
   156TXY   H10  329   4.677   1.683   3.727
   156TXY    C3  330   4.494   1.765   3.647
   156TXY    H5  331   4.395   1.793   3.685
   156TXY    H6  332   4.477   1.686   3.573
   156TXY    C1  333   4.560   1.886   3.579
   156TXY    H1  334   4.577   1.963   3.653
   156TXY    H2  335   4.658   1.856   3.541
   156TXY    C2  336   4.475   1.946   3.465
   156TXY    H3  337   4.373   1.906   3.468
   156TXY    H4  338   4.466   2.053   3.480
   156TXY    C4  339   4.533   1.922   3.324
   156TXY    H7  340   4.474   1.978   3.251
   156TXY    H8  341   4.635   1.960   3.319
   156TXY    C6  342   4.533   1.774   3.283
   156TXY   H11  343   4.432   1.732   3.286
   156TXY   H12  344   4.570   1.762   3.181
   156TXY   H13  345   4.597   1.714   3.348
   166TXY   H16  346   1.467   0.432   4.473
   166TXY    C7  347   1.511   0.510   4.411
   166TXY   H14  348   1.430   0.576   4.378
   166TXY   H15  349   1.553   0.463   4.323
   166TXY    C5  350   1.618   0.588   4.488
   166TXY    H9  351   1.664   0.660   4.421
   166TXY   H10  352   1.696   0.519   4.519
   166TXY    C3  353   1.564   0.664   4.612
   166TXY    H5  354   1.484   0.731   4.581
   166TXY    H6  355   1.644   0.726   4.652
   166TXY    C1  356   1.512   0.571   4.723
   166TXY    H1  357   1.430   0.511   4.684
   166TXY    H2  358   1.591   0.501   4.751
   166TXY    C2  359   1.463   0.647   4.848
   166TXY    H3  360   1.461   0.754   4.829
   166TXY    H4  361   1.360   0.617   4.869
   166TXY    C4  362   1.547   0.621   4.976
   166TXY    H7  363   1.497   0.666   0.061
   166TXY    H8  364   1.552   0.514   4.995
   166TXY    C6  365   1.689   0.676   4.967
   166TXY   H11  366   1.688   0.784   4.952
   166TXY   H12  367   1.745   0.656   0.058
   166TXY   H13  368   1.745   0.632   4.884
   176TXY   H16  369   0.054   3.190   0.804
   176TXY    C7  370   4.977   3.133   0.855
   176TXY   H14  371   4.882   3.184   0.841
   176TXY   H15  372   4.999   3.135   0.962
   176TXY    C5  373   4.971   2.988   0.803
   176TXY    H9  374   4.898   2.933   0.862
   176TXY   H10  375   0.068   2.941   0.819
   176TXY    C3  376   4.933   2.978   0.654
   176TXY    H5  377   4.841   3.033   0.637
   176TXY    H6  378   4.912   2.873   0.631
   176TXY    C1  379   0.042   3.030   0.558
   176TXY    H1  380   0.062   3.134   0.580
   176TXY    H2  381   0.135   2.975   0.576
   176TXY    C2  382   0.002   3.018   0.410
   176TXY    H3  383   4.894   3.000   0.401
   176TXY    H4  384   0.021   3.113   0.360
   176TXY    C4  385   0.076   2.907   0.331
   176TXY    H7  386   0.048   2.914   0.226
   176TXY    H8  387   0.183   2.925   0.337
   176TXY    C6  388   0.046   2.765   0.381
   176TXY   H11  389   4.940   2.743   0.374
   176TXY   H12  390   0.100   2.691   0.322
   176TXY   H13  391   0.076   2.752   0.485
   186TXY   H16  392   2.224   0.131   0.140
   186TXY    C7  393   2.302   0.201   0.173
   186TXY   H14  394   2.262   0.302   0.164
   186TXY   H15  395   2.385   0.192   0.103
   186TXY    C5  396   2.347   0.171   0.316
   186TXY    H9  397   2.429   0.238   0.342
   186TXY   H10  398   2.386   0.069   0.321
   186TXY    C3  399   2.235   0.187   0.422
   186TXY    H5  400   2.194   0.288   0.414
   186TXY    H6  401   2.280   0.180   0.521
   186TXY    C1  402   2.121   0.084   0.409
   186TXY    H1  403   2.072   0.098   0.313
   186TXY    H2  404   2.164   4.984   0.410
   186TXY    C2  405   2.015   0.097   0.520
   186TXY    H3  406   2.029   0.191   0.575
   186TXY    H4  407   1.916   0.103   0.475
   186TXY    C4  408   2.015   4.980   0.622
   186TXY    H7  409   1.931   4.993   0.690
   186TXY    H8  410   1.998   4.887   0.568
   186TXY    C6  411   2.144   4.969   0.704
   186TXY   H11  412   2.163   0.061   0.760
   186TXY   H12  413   2.138   4.887   0.776
   186TXY   H13  414   2.230   4.951   0.640
   196TXY   H16  415   3.180   0.200   2.812
   196TXY    C7  416   3.223   0.199   2.713
   196TXY   H14  417   3.314   0.139   2.716
   196TXY   H15  418   3.252   0.301   2.688
   196TXY    C5  419   3.124   0.145   2.609
   196TXY    H9  420   3.169   0.152   2.510
   196TXY   H10  421   3.035   0.208   2.608
   196TXY    C3  422   3.082   4.998   2.634
   196TXY    H5  423   3.172   4.937   2.639
   196TXY    H6  424   3.026   4.963   2.547
   196TXY    C1  425   2.997   4.978   2.760
   196TXY    H1  426   3.053   0.015   2.847
   196TXY    H2  427   2.907   0.038   2.753
   196TXY    C2  428   2.961   4.831   2.786
   196TXY    H3  429   3.027   4.765   2.729
   196TXY    H4  430   2.977   4.807   2.891
   196TXY    C4  431   2.814   4.794   2.751
   196TXY    H7  432   2.795   4.691   2.784
   196TXY    H8  433   2.747   4.858   2.807
   196TXY    C6  434   2.781   4.805   2.602
   196TXY   H11  435   2.847   4.742   2.542
   196TXY   H12  436   2.679   4.774   2.582
   196TXY   H13  437   2.792   4.908   2.566
   206TXY   H16  438   3.191   3.748   2.702
   206TXY    C7  439   3.207   3.831   2.634
   206TXY   H14  440   3.146   3.814   2.546
   206TXY   H15  441   3.312   3.828   2.602
   206TXY    C5  442   3.174   3.966   2.699
   206TXY    H9  443   3.197   4.046   2.629
   206TXY   H10  444   3.239   3.980   2.786
   206TXY    C3  445   3.026   3.979   2.743
   206TXY    H5  446   2.963   3.955   2.657
   206TXY    H6  447   3.007   4.083   2.768
   206TXY    C1  448   2.989   3.889   2.862
   206TXY    H1  449   3.009   3.785   2.836
   206TXY    H2  450   3.053   3.913   2.947
   206TXY    C2  451   2.841   3.902   2.903
   206TXY    H3  452   2.784   3.951   2.824
   206TXY    H4  453   2.798   3.802   2.913
   206TXY    C4  454   2.818   3.979   3.035
   206TXY    H7  455   2.712   3.971   3.063
   206TXY    H8  456   2.875   3.931   3.115
   206TXY    C6  457   2.856   4.127   3.028
   206TXY   H11  458   2.801   4.178   2.949
   206TXY   H12  459   2.834   4.178   3.122
   206TXY   H13  460   2.962   4.139   3.008
   216TXY   H16  461   2.277   1.277   4.202
   216TXY    C7  462   2.201   1.254   4.128
   216TXY   H14  463   2.217   1.319   4.042
   216TXY   H15  464   2.104   1.281   4.171
   216TXY    C5  465   2.204   1.107   4.088
   216TXY    H9  466   2.121   1.087   4.019
   216TXY   H10  467   2.187   1.045   4.176
   216TXY    C3  468   2.336   1.063   4.020
   216TXY    H5  469   2.353   1.127   3.933
   216TXY    H6  470   2.324   0.962   3.982
   216TXY    C1  471   2.459   1.068   4.113
   216TXY    H1  472   2.473   1.170   4.148
   216TXY    H2  473   2.439   1.007   4.201
   216TXY    C2  474   2.588   1.022   4.043
   216TXY    H3  475   2.572   1.009   3.936
   216TXY    H4  476   2.664   1.100   4.053
   216TXY    C4  477   2.648   0.891   4.101
   216TXY    H7  478   2.746   0.875   4.058
   216TXY    H8  479   2.661   0.901   4.208
   216TXY    C6  480   2.561   0.768   4.073
   216TXY   H11  481   2.547   0.753   3.966
   216TXY   H12  482   2.607   0.677   4.113
   216TXY   H13  483   2.462   0.777   4.118
   226TXY   H16  484   0.057   1.458   3.519
   226TXY    C7  485   4.955   1.468   3.480
   226TXY   H14  486   4.925   1.372   3.439
   226TXY   H15  487   4.958   1.539   3.398
   226TXY    C5  488   4.858   1.515   3.589
   226TXY    H9  489   4.760   1.530   3.545
   226TXY   H10  490   4.891   1.611   3.627
   226TXY    C3  491   4.844   1.416   3.708
   226TXY    H5  492   4.815   1.318   3.668
   226TXY    H6  493   4.762   1.450   3.771
   226TXY    C1  494   4.972   1.401   3.792
   226TXY    H1  495   0.051   1.361   3.729
   226TXY    H2  496   0.005   1.500   3.825
   226TXY    C2  497   4.954   1.307   3.913
   226TXY    H3  498   4.861   1.252   3.905
   226TXY    H4  499   0.034   1.233   3.913
   226TXY    C4  500   4.957   1.380   4.050
   226TXY    H7  501   4.956   1.305   4.130
   226TXY    H8  502   0.051   1.435   4.060
   226TXY    C6  503   4.840   1.476   4.071
   226TXY   H11  504   4.744   1.424   4.064
   226TXY   H12  505   4.845   1.523   4.169
   226TXY   H13  506   4.840   1.556   3.996
   236TXY   H16  507   4.011   1.075   4.109
   236TXY    C7  508   4.079   1.041   4.032
   236TXY   H14  509   4.053   0.937   4.009
   236TXY   H15  510   4.179   1.041   4.074
   236TXY    C5  511   4.071   1.129   3.907
   236TXY    H9  512   4.146   1.094   3.835
   236TXY   H10  513   4.099   1.231   3.934
   236TXY    C3  514   3.932   1.130   3.839
   236TXY    H5  515   3.905   1.027   3.814
   236TXY    H6  516   3.940   1.183   3.744
   236TXY    C1  517   3.822   1.194   3.925
   236TXY    H1  518   3.809   1.134   4.016
   236TXY    H2  519   3.854   1.293   3.957
   236TXY    C2  520   3.686   1.202   3.854
   236TXY    H3  521   3.685   1.138   3.765
   236TXY    H4  522   3.608   1.165   3.920
   236TXY    C4  523   3.646   1.346   3.810
   236TXY    H7  524   3.545   1.344   3.770
   236TXY    H8  525   3.646   1.411   3.897
   236TXY    C6  526   3.740   1.405   3.704
   236TXY   H11  527   3.745   1.341   3.616
   236TXY   H12  528   3.704   1.503   3.671
   236TXY   H13  529   3.841   1.418   3.742
   246TXY   H16  530   2.374   4.398   3.131
   246TXY    C7  531   2.461   4.343   3.096
   246TXY   H14  532   2.542   4.415   3.080
   246TXY   H15  533   2.436   4.300   2.999
   246TXY    C5  534   2.503   4.234   3.196
   246TXY    H9  535   2.585   4.176   3.152
   246TXY   H10  536   2.420   4.165   3.210
   246TXY    C3  537   2.548   4.289   3.333
   246TXY    H5  538   2.629   4.361   3.317
   246TXY    H6  539   2.590   4.207   3.391
   246TXY    C1  540   2.436   4.356   3.414
   246TXY    H1  541   2.397   4.441   3.357
   246TXY    H2  542   2.353   4.285   3.426
   246TXY    C2  543   2.482   4.406   3.552
   246TXY    H3  544   2.591   4.407   3.557
   246TXY    H4  545   2.450   4.510   3.565
   246TXY    C4  546   2.428   4.324   3.671
   246TXY    H7  547   2.457   4.373   3.764
   246TXY    H8  548   2.319   4.324   3.668
   246TXY    C6  549   2.478   4.179   3.674
   246TXY   H11  550   2.586   4.175   3.676
   246TXY   H12  551   2.441   4.127   3.762
   246TXY   H13  552   2.444   4.124   3.586
   256TXY   H16  553   3.985   2.615   2.391
   256TXY    C7  554   3.950   2.622   2.289
   256TXY   H14  555   4.035   2.603   2.223
   256TXY   H15  556   3.917   2.724   2.271
   256TXY    C5  557   3.837   2.522   2.261
   256TXY    H9  558   3.801   2.537   2.159
   256TXY   H10  559   3.753   2.544   2.328
   256TXY    C3  560   3.878   2.374   2.279
   256TXY    H5  561   3.965   2.354   2.215
   256TXY    H6  562   3.798   2.311   2.242
   256TXY    C1  563   3.911   2.335   2.424
   256TXY    H1  564   3.996   2.395   2.459
   256TXY    H2  565   3.826   2.360   2.488
   256TXY    C2  566   3.947   2.186   2.440
   256TXY    H3  567   3.976   2.144   2.344
   256TXY    H4  568   4.034   2.177   2.505
   256TXY    C4  569   3.834   2.100   2.501
   256TXY    H7  570   3.872   1.999   2.519
   256TXY    H8  571   3.805   2.141   2.598
   256TXY    C6  572   3.709   2.091   2.412
   256TXY   H11  573   3.734   2.052   2.313
   256TXY   H12  574   3.635   2.024   2.455
   256TXY   H13  575   3.662   2.188   2.398
   266TXY   H16  576   1.926   2.698   4.015
   266TXY    C7  577   1.878   2.606   4.049
   266TXY   H14  578   1.931   2.522   4.004
   266TXY   H15  579   1.777   2.606   4.010
   266TXY    C5  580   1.878   2.596   4.202
   266TXY    H9  581   1.823   2.507   4.232
   266TXY   H10  582   1.824   2.682   4.244
   266TXY    C3  583   2.020   2.591   4.265
   266TXY    H5  584   2.073   2.506   4.221
   266TXY    H6  585   2.010   2.570   4.371
   266TXY    C1  586   2.101   2.719   4.245
   266TXY    H1  587   2.114   2.737   4.138
   266TXY    H2  588   2.046   2.804   4.284
   266TXY    C2  589   2.241   2.713   4.310
   266TXY    H3  590   2.267   2.610   4.334
   266TXY    H4  591   2.315   2.747   4.238
   266TXY    C4  592   2.254   2.799   4.438
   266TXY    H7  593   2.358   2.799   4.469
   266TXY    H8  594   2.227   2.902   4.416
   266TXY    C6  595   2.168   2.749   4.555
   266TXY   H11  596   2.194   2.646   4.581
   266TXY   H12  597   2.183   2.810   4.644
   266TXY   H13  598   2.062   2.751   4.531
   276TXY   H16  599   4.421   3.247   0.370
   276TXY    C7  600   4.359   3.318   0.425
   276TXY   H14  601   4.255   3.289   0.412
   276TXY   H15  602   4.373   3.416   0.378
   276TXY    C5  603   4.398   3.323   0.573
   276TXY    H9  604   4.337   3.400   0.622
   276TXY   H10  605   4.502   3.354   0.583
   276TXY    C3  606   4.377   3.189   0.648
   276TXY    H5  607   4.273   3.159   0.638
   276TXY    H6  608   4.395   3.206   0.754
   276TXY    C1  609   4.469   3.076   0.599
   276TXY    H1  610   4.449   3.057   0.493
   276TXY    H2  611   4.573   3.107   0.606
   276TXY    C2  612   4.448   2.944   0.676
   276TXY    H3  613   4.357   2.949   0.737
   276TXY    H4  614   4.433   2.863   0.605
   276TXY    C4  615   4.566   2.905   0.768
   276TXY    H7  616   4.547   2.807   0.811
   276TXY    H8  617   4.657   2.896   0.708
   276TXY    C6  618   4.591   3.004   0.882
   276TXY   H11  619   4.502   3.015   0.945
   276TXY   H12  620   4.673   2.971   0.946
   276TXY   H13  621   4.617   3.103   0.844
   286TXY   H16  622   4.173   1.948   0.283
   286TXY    C7  623   4.195   1.842   0.286
   286TXY   H14  624   4.179   1.802   0.185
   286TXY   H15  625   4.123   1.794   0.351
   286TXY    C5  626   4.339   1.816   0.334
   286TXY    H9  627   4.354   1.708   0.342
   286TXY   H10  628   4.350   1.857   0.434
   286TXY    C3  629   4.448   1.874   0.241
   286TXY    H5  630   4.434   1.833   0.140
   286TXY    H6  631   4.545   1.839   0.275
   286TXY    C1  632   4.448   2.028   0.234
   286TXY    H1  633   4.352   2.061   0.195
   286TXY    H2  634   4.457   2.068   0.335
   286TXY    C2  635   4.560   2.084   0.144
   286TXY    H3  636   4.600   2.006   0.080
   286TXY    H4  637   4.518   2.160   0.078
   286TXY    C4  638   4.677   2.149   0.222
   286TXY    H7  639   4.743   2.200   0.152
   286TXY    H8  640   4.638   2.225   0.290
   286TXY    C6  641   4.760   2.049   0.303
   286TXY   H11  642   4.803   1.972   0.239
   286TXY   H12  643   4.842   2.099   0.355
   286TXY   H13  644   4.700   1.999   0.379
   296TXY   H16  645   4.796   4.050   3.368
   296TXY    C7  646   4.712   3.991   3.329
   296TXY   H14  647   4.667   4.047   3.247
   296TXY   H15  648   4.637   3.985   3.409
   296TXY    C5  649   4.756   3.851   3.285
   296TXY    H9  650   4.667   3.795   3.254
   296TXY   H10  651   4.799   3.799   3.370
   296TXY    C3  652   4.857   3.852   3.168
   296TXY    H5  653   4.814   3.907   3.084
   296TXY    H6  654   4.871   3.749   3.134
   296TXY    C1  655   4.994   3.913   3.204
   296TXY    H1  656   4.979   4.017   3.233
   296TXY    H2  657   0.033   3.862   3.292
   296TXY    C2  658   0.095   3.908   3.089
   296TXY    H3  659   0.047   3.872   2.997
   296TXY    H4  660   0.131   4.008   3.068
   296TXY    C4  661   0.218   3.818   3.118
   296TXY    H7  662   0.291   3.830   3.037
   296TXY    H8  663   0.267   3.852   3.209
   296TXY    C6  664   0.184   3.669   3.131
   296TXY   H11  665   0.137   3.631   3.041
   296TXY   H12  666   0.274   3.610   3.150
   296TXY   H13  667   0.116   3.652   3.214
   306TXY   H16  668   0.370   0.005   0.521
   306TXY    C7  669   0.413   0.098   0.559
   306TXY   H14  670   0.410   0.171   0.478
   306TXY   H15  671   0.517   0.079   0.583
   306TXY    C5  672   0.337   0.149   0.682
   306TXY    H9  673   0.385   0.239   0.719
   306TXY   H10  674   0.344   0.074   0.762
   306TXY    C3  675   0.187   0.179   0.655
   306TXY    H5  676   0.181   0.247   0.569
   306TXY    H6  677   0.147   0.233   0.740
   306TXY    C1  678   0.102   0.054   0.628
   306TXY    H1  679   0.143   0.001   0.541
   306TXY    H2  680   0.111   4.986   0.713
   306TXY    C2  681   4.954   0.086   0.601
   306TXY    H3  682   4.942   0.192   0.576
   306TXY    H4  683   4.921   0.030   0.513
   306TXY    C4  684   4.859   0.052   0.718
   306TXY    H7  685   4.756   0.067   0.686
   306TXY    H8  686   4.870   4.946   0.744
   306TXY    C6  687   4.884   0.136   0.844
   306TXY   H11  688   4.876   0.243   0.822
   306TXY   H12  689   4.811   0.113   0.922
   306TXY   H13  690   4.983   0.118   0.885
   316TXY   H16  691   3.315   3.523   0.864
   316TXY    C7  692   3.216   3.568   0.864
   316TXY   H14  693   3.148   3.498   0.914
   316TXY   H15  694   3.184   3.577   0.760
   316TXY    C5  695   3.216   3.704   0.934
   316TXY    H9  696   3.115   3.745   0.932
   316TXY   H10  697   3.279   3.773   0.877
   316TXY    C3  698   3.266   3.699   1.080
   316TXY    H5  699   3.210   3.621   1.133
   316TXY    H6  700   3.241   3.793   1.129
   316TXY    C1  701   3.417   3.671   1.093
   316TXY    H1  702   3.441   3.577   1.044
   316TXY    H2  703   3.472   3.750   1.041
   316TXY    C2  704   3.464   3.663   1.239
   316TXY    H3  705   3.380   3.646   1.306
   316TXY    H4  706   3.530   3.577   1.251
   316TXY    C4  707   3.541   3.788   1.290
   316TXY    H7  708   3.580   3.768   1.390
   316TXY    H8  709   3.628   3.805   1.225
   316TXY    C6  710   3.456   3.916   1.294
   316TXY   H11  711   3.369   3.903   1.358
   316TXY   H12  712   3.514   4.000   1.333
   316TXY   H13  713   3.421   3.944   1.194
   326TXY   H16  714   2.048   0.926   4.736
   326TXY    C7  715   2.073   0.952   4.838
   326TXY   H14  716   2.122   1.050   4.836
   326TXY   H15  717   2.146   0.880   4.874
   326TXY    C5  718   1.949   0.955   4.929
   326TXY    H9  719   1.980   0.983   0.029
   326TXY   H10  720   1.908   0.855   4.935
   326TXY    C3  721   1.839   1.053   4.881
   326TXY    H5  722   1.884   1.152   4.866
   326TXY    H6  723   1.766   1.064   4.960
   326TXY    C1  724   1.769   1.009   4.751
   326TXY    H1  725   1.843   1.002   4.671
   326TXY    H2  726   1.729   0.908   4.765
   326TXY    C2  727   1.658   1.105   4.707
   326TXY    H3  728   1.670   1.202   4.754
   326TXY    H4  729   1.665   1.122   4.599
   326TXY    C4  730   1.514   1.054   4.737
   326TXY    H7  731   1.443   1.122   4.690
   326TXY    H8  732   1.500   0.957   4.690
   326TXY    C6  733   1.482   1.044   4.886
   326TXY   H11  734   1.493   1.140   4.936
   326TXY   H12  735   1.379   1.011   4.902
   326TXY   H13  736   1.547   0.973   4.936
   336TXY   H16  737   2.790   2.265   4.627
   336TXY    C7  738   2.696   2.313   4.600
   336TXY   H14  739   2.683   2.302   4.492
   336TXY   H15  740   2.707   2.419   4.622
   336TXY    C5  741   2.578   2.253   4.677
   336TXY    H9  742   2.487   2.308   4.652
   336TXY   H10  743   2.595   2.266   4.784
   336TXY    C3  744   2.554   2.102   4.648
   336TXY    H5  745   2.543   2.089   4.540
   336TXY    H6  746   2.459   2.073   4.693
   336TXY    C1  747   2.666   2.011   4.700
   336TXY    H1  748   2.760   2.039   4.652
   336TXY    H2  749   2.679   2.027   4.807
   336TXY    C2  750   2.641   1.862   4.672
   336TXY    H3  751   2.556   1.849   4.604
   336TXY    H4  752   2.727   1.819   4.621
   336TXY    C4  753   2.614   1.777   4.799
   336TXY    H7  754   2.612   1.672   4.772
   336TXY    H8  755   2.697   1.790   4.869
   336TXY    C6  756   2.483   1.813   4.870
   336TXY   H11  757   2.397   1.800   4.804
   336TXY   H12  758   2.467   1.750   4.958
   336TXY   H13  759   2.483   1.917   4.904
   346TXY   H16  760   2.021   3.640   1.066
   346TXY    C7  761   2.122   3.626   1.106
   346TXY   H14  762   2.112   3.574   1.202
   346TXY   H15  763   2.163   3.725   1.126
   346TXY    C5  764   2.211   3.547   1.010
   346TXY    H9  765   2.312   3.544   1.050
   346TXY   H10  766   2.216   3.601   0.915
   346TXY    C3  767   2.162   3.402   0.984
   346TXY    H5  768   2.156   3.351   1.080
   346TXY    H6  769   2.239   3.350   0.926
   346TXY    C1  770   2.028   3.394   0.910
   346TXY    H1  771   1.951   3.443   0.970
   346TXY    H2  772   2.035   3.448   0.816
   346TXY    C2  773   1.982   3.249   0.884
   346TXY    H3  774   2.044   3.178   0.940
   346TXY    H4  775   1.881   3.236   0.921
   346TXY    C4  776   1.985   3.208   0.735
   346TXY    H7  777   1.938   3.110   0.724
   346TXY    H8  778   1.924   3.278   0.677
   346TXY    C6  779   2.125   3.202   0.675
   346TXY   H11  780   2.188   3.130   0.727
   346TXY   H12  781   2.122   3.172   0.570
   346TXY   H13  782   2.175   3.299   0.679
   356TXY   H16  783   4.815   0.630   3.412
   356TXY    C7  784   4.910   0.576   3.410
   356TXY   H14  785   4.917   0.525   3.314
   356TXY   H15  786   4.905   0.499   3.488
   356TXY    C5  787   0.029   0.669   3.433
   356TXY    H9  788   0.120   0.609   3.439
   356TXY   H10  789   0.018   0.719   3.529
   356TXY    C3  790   0.047   0.776   3.322
   356TXY    H5  791   0.058   0.725   3.226
   356TXY    H6  792   0.141   0.829   3.340
   356TXY    C1  793   4.932   0.877   3.315
   356TXY    H1  794   4.840   0.824   3.290
   356TXY    H2  795   4.917   0.922   3.413
   356TXY    C2  796   4.955   0.987   3.210
   356TXY    H3  797   0.038   0.960   3.143
   356TXY    H4  798   4.867   0.996   3.147
   356TXY    C4  799   4.984   1.127   3.270
   356TXY    H7  800   4.984   1.201   3.190
   356TXY    H8  801   4.904   1.154   3.339
   356TXY    C6  802   0.118   1.135   3.344
   356TXY   H11  803   0.201   1.111   3.278
   356TXY   H12  804   0.135   1.235   3.384
   356TXY   H13  805   0.121   1.065   3.428
   366TXY   H16  806   4.545   4.358   3.152
   366TXY    C7  807   4.438   4.357   3.168
   366TXY   H14  808   4.406   4.457   3.197
   366TXY   H15  809   4.418   4.290   3.252
   366TXY    C5  810   4.363   4.309   3.043
   366TXY    H9  811   4.257   4.302   3.065
   366TXY   H10  812   4.397   4.209   3.017
   366TXY    C3  813   4.382   4.402   2.920
   366TXY    H5  814   4.350   4.502   2.947
   366TXY    H6  815   4.316   4.368   2.840
   366TXY    C1  816   4.527   4.407   2.867
   366TXY    H1  817   4.591   4.450   2.945
   366TXY    H2  818   4.562   4.305   2.850
   366TXY    C2  819   4.542   4.491   2.739
   366TXY    H3  820   4.453   4.552   2.724
   366TXY    H4  821   4.625   4.560   2.752
   366TXY    C4  822   4.567   4.407   2.611
   366TXY    H7  823   4.588   4.475   2.528
   366TXY    H8  824   4.656   4.346   2.625
   366TXY    C6  825   4.450   4.317   2.573
   366TXY   H11  826   4.359   4.374   2.557
   366TXY   H12  827   4.471   4.263   2.480
   366TXY   H13  828   4.429   4.243   2.650
   376TXY   H16  829   3.457   2.280   2.025
   376TXY    C7  830   3.556   2.297   2.068
   376TXY   H14  831   3.585   2.205   2.121
   376TXY   H15  832   3.547   2.376   2.143
   376TXY    C5  833   3.659   2.334   1.961
   376TXY    H9  834   3.754   2.356   2.009
   376TXY   H10  835   3.626   2.425   1.910
   376TXY    C3  836   3.681   2.223   1.855
   376TXY    H5  837   3.707   2.130   1.906
   376TXY    H6  838   3.767   2.250   1.794
   376TXY    C1  839   3.559   2.199   1.764
   376TXY    H1  840   3.475   2.169   1.826
   376TXY    H2  841   3.532   2.293   1.717
   376TXY    C2  842   3.584   2.091   1.657
   376TXY    H3  843   3.671   2.031   1.683
   376TXY    H4  844   3.499   2.023   1.655
   376TXY    C4  845   3.603   2.147   1.514
   376TXY    H7  846   3.607   2.064   1.444
   376TXY    H8  847   3.516   2.208   1.487
   376TXY    C6  848   3.730   2.232   1.498
   376TXY   H11  849   3.819   2.174   1.522
   376TXY   H12  850   3.740   2.267   1.395
   376TXY   H13  851   3.728   2.319   1.563
   386TXY   H16  852   0.886   4.939   3.344
   386TXY    C7  853   0.849   4.851   3.397
   386TXY   H14  854   0.740   4.860   3.404
   386TXY   H15  855   0.889   4.854   3.498
   386TXY    C5  856   0.889   4.721   3.326
   386TXY    H9  857   0.856   4.636   3.385
   386TXY   H10  858   0.998   4.716   3.321
   386TXY    C3  859   0.831   4.708   3.183
   386TXY    H5  860   0.723   4.722   3.188
   386TXY    H6  861   0.848   4.606   3.148
   386TXY    C1  862   0.891   4.808   3.082
   386TXY    H1  863   0.872   4.910   3.116
   386TXY    H2  864   0.999   4.795   3.079
   386TXY    C2  865   0.832   4.793   2.941
   386TXY    H3  866   0.738   4.739   2.944
   386TXY    H4  867   0.809   4.891   2.901
   386TXY    C4  868   0.926   4.722   2.839
   386TXY    H7  869   0.878   4.723   2.741
   386TXY    H8  870   1.018   4.779   2.830
   386TXY    C6  871   0.960   4.577   2.876
   386TXY   H11  872   0.869   4.516   2.883
   386TXY   H12  873   1.023   4.531   2.800
   386TXY   H13  874   1.012   4.571   2.971
   396TXY   H16  875   4.461   2.705   2.717
   396TXY    C7  876   4.520   2.781   2.767
   396TXY   H14  877   4.617   2.738   2.790
   396TXY   H15  878   4.470   2.804   2.862
   396TXY    C5  879   4.533   2.907   2.681
   396TXY    H9  880   4.588   2.983   2.738
   396TXY   H10  881   4.434   2.948   2.662
   396TXY    C3  882   4.606   2.884   2.546
   396TXY    H5  883   4.704   2.840   2.567
   396TXY    H6  884   4.625   2.981   2.500
   396TXY    C1  885   4.529   2.794   2.449
   396TXY    H1  886   4.515   2.696   2.494
   396TXY    H2  887   4.429   2.835   2.433
   396TXY    C2  888   4.601   2.776   2.314
   396TXY    H3  889   4.704   2.809   2.322
   396TXY    H4  890   4.605   2.670   2.290
   396TXY    C4  891   4.534   2.849   2.195
   396TXY    H7  892   4.586   2.822   2.103
   396TXY    H8  893   4.431   2.814   2.185
   396TXY    C6  894   4.534   3.002   2.209
   396TXY   H11  895   4.635   3.041   2.219
   396TXY   H12  896   4.488   3.049   2.122
   396TXY   H13  897   4.477   3.034   2.297
   406TXY   H16  898   4.976   0.826   4.027
   406TXY    C7  899   0.047   0.906   4.008
   406TXY   H14  900   4.991   0.997   3.989
   406TXY   H15  901   0.100   0.881   3.916
   406TXY    C5  902   0.146   0.923   4.124
   406TXY    H9  903   0.220   0.998   4.096
   406TXY   H10  904   0.199   0.830   4.139
   406TXY    C3  905   0.078   0.966   4.257
   406TXY    H5  906   0.023   1.058   4.239
   406TXY    H6  907   0.156   0.989   4.329
   406TXY    C1  908   4.984   0.860   4.315
   406TXY    H1  909   4.902   0.842   4.245
   406TXY    H2  910   0.037   0.765   4.324
   406TXY    C2  911   4.924   0.900   4.451
   406TXY    H3  912   4.953   1.002   4.476
   406TXY    H4  913   4.815   0.900   4.444
   406TXY    C4  914   4.964   0.807   4.568
   406TXY    H7  915   4.907   0.834   4.656
   406TXY    H8  916   4.938   0.705   4.542
   406TXY    C6  917   0.114   0.813   4.601
   406TXY   H11  918   0.144   0.914   4.628
   406TXY   H12  919   0.137   0.748   4.686
   406TXY   H13  920   0.175   0.780   4.517
   416TXY   H16  921   1.367   4.405   3.676
   416TXY    C7  922   1.441   4.405   3.756
   416TXY   H14  923   1.516   4.330   3.732
   416TXY   H15  924   1.390   4.373   3.847
   416TXY    C5  925   1.505   4.543   3.774
   416TXY    H9  926   1.575   4.539   3.857
   416TXY   H10  927   1.428   4.615   3.801
   416TXY    C3  928   1.580   4.594   3.648
   416TXY    H5  929   1.654   4.519   3.619
   416TXY    H6  930   1.636   4.683   3.675
   416TXY    C1  931   1.487   4.625   3.530
   416TXY    H1  932   1.438   4.533   3.498
   416TXY    H2  933   1.408   4.692   3.563
   416TXY    C2  934   1.561   4.685   3.409
   416TXY    H3  935   1.669   4.670   3.419
   416TXY    H4  936   1.531   4.633   3.318
   416TXY    C4  937   1.535   4.837   3.388
   416TXY    H7  938   1.581   4.868   3.294
   416TXY    H8  939   1.427   4.853   3.378
   416TXY    C6  940   1.588   4.925   3.501
   416TXY   H11  941   1.695   4.912   3.514
   416TXY   H12  942   1.570   0.031   3.481
   416TXY   H13  943   1.540   4.901   3.596
   426TXY   H16  944   4.354   4.876   2.452
   426TXY    C7  945   4.326   4.979   2.433
   426TXY   H14  946   4.386   0.015   2.350
   426TXY   H15  947   4.354   0.037   2.521
   426TXY    C5  948   4.176   4.993   2.404
   426TXY    H9  949   4.152   0.099   2.394
   426TXY   H10  950   4.120   4.956   2.490
   426TXY    C3  951   4.130   4.918   2.277
   426TXY    H5  952   4.188   4.955   2.192
   426TXY    H6  953   4.026   4.944   2.258
   426TXY    C1  954   4.143   4.765   2.286
   426TXY    H1  955   4.248   4.739   2.299
   426TXY    H2  956   4.091   4.730   2.375
   426TXY    C2  957   4.091   4.693   2.161
   426TXY    H3  958   4.079   4.763   2.078
   426TXY    H4  959   4.164   4.619   2.128
   426TXY    C4  960   3.956   4.619   2.182
   426TXY    H7  961   3.932   4.562   2.092
   426TXY    H8  962   3.967   4.547   2.263
   426TXY    C6  963   3.839   4.713   2.214
   426TXY   H11  964   3.825   4.786   2.134
   426TXY   H12  965   3.746   4.657   2.224
   426TXY   H13  966   3.855   4.767   2.307
   436TXY   H16  967   0.344   2.619   3.931
   436TXY    C7  968   0.374   2.688   3.851
   436TXY   H14  969   0.296   2.762   3.840
   436TXY   H15  970   0.379   2.631   3.759
   436TXY    C5  971   0.509   2.754   3.883
   436TXY    H9  972   0.539   2.815   3.797
   436TXY   H10  973   0.585   2.676   3.894
   436TXY    C3  974   0.508   2.842   4.010
   436TXY    H5  975   0.429   2.917   3.999
   436TXY    H6  976   0.602   2.897   4.015
   436TXY    C1  977   0.487   2.763   4.140
   436TXY    H1  978   0.390   2.713   4.136
   436TXY    H2  979   0.563   2.685   4.147
   436TXY    C2  980   0.491   2.852   4.266
   436TXY    H3  981   0.481   2.957   4.238
   436TXY    H4  982   0.405   2.829   4.329
   436TXY    C4  983   0.619   2.836   4.351
   436TXY    H7  984   0.608   2.892   4.444
   436TXY    H8  985   0.631   2.731   4.379
   436TXY    C6  986   0.747   2.882   4.280
   436TXY   H11  987   0.740   2.987   4.252
   436TXY   H12  988   0.834   2.870   4.344
   436TXY   H13  989   0.764   2.825   4.189
   446TXY   H16  990   3.702   2.084   1.195
   446TXY    C7  991   3.761   1.993   1.208
   446TXY   H14  992   3.692   1.910   1.223
   446TXY   H15  993   3.819   2.004   1.300
   446TXY    C5  994   3.853   1.968   1.088
   446TXY    H9  995   3.915   1.881   1.109
   446TXY   H10  996   3.921   2.053   1.077
   446TXY    C3  997   3.777   1.946   0.955
   446TXY    H5  998   3.706   1.865   0.970
   446TXY    H6  999   3.849   1.912   0.880
   446TXY    C1 1000   3.704   2.071   0.904
   446TXY    H1 1001   3.629   2.101   0.977
   446TXY    H2 1002   3.775   2.153   0.896
   446TXY    C2 1003   3.633   2.048   0.769
   446TXY    H3 1004   3.625   1.941   0.748
   446TXY    H4 1005   3.531   2.085   0.775
   446TXY    C4 1006   3.703   2.116   0.649
   446TXY    H7 1007   3.639   2.107   0.561
   446TXY    H8 1008   3.713   2.223   0.669
   446TXY    C6 1009   3.841   2.059   0.616
   446TXY   H11 1010   3.835   1.952   0.594
   446TXY   H12 1011   3.885   2.108   0.530
   446TXY   H13 1012   3.910   2.071   0.700
   456TXY   H16 1013   1.292   1.797   2.079
   456TXY    C7 1014   1.228   1.768   2.162
   456TXY   H14 1015   1.291   1.722   2.238
   456TXY   H15 1016   1.159   1.692   2.126
   456TXY    C5 1017   1.152   1.889   2.219
   456TXY    H9 1018   1.083   1.854   2.296
   456TXY   H10 1019   1.092   1.933   2.140
   456TXY    C3 1020   1.245   1.997   2.279
   456TXY    H5 1021   1.310   1.951   2.353
   456TXY    H6 1022   1.183   2.069   2.333
   456TXY    C1 1023   1.330   2.071   2.175
   456TXY    H1 1024   1.390   1.999   2.120
   456TXY    H2 1025   1.264   2.119   2.102
   456TXY    C2 1026   1.424   2.176   2.236
   456TXY    H3 1027   1.434   2.160   2.343
   456TXY    H4 1028   1.524   2.162   2.194
   456TXY    C4 1029   1.382   2.323   2.211
   456TXY    H7 1030   1.462   2.389   2.244
   456TXY    H8 1031   1.370   2.339   2.104
   456TXY    C6 1032   1.253   2.363   2.283
   456TXY   H11 1033   1.263   2.351   2.391
   456TXY   H12 1034   1.227   2.467   2.263
   456TXY   H13 1035   1.169   2.301   2.251
   466TXY   H16 1036   4.500   0.190   4.831
   466TXY    C7 1037   4.393   0.203   4.815
   466TXY   H14 1038   4.341   0.160   4.901
   466TXY   H15 1039   4.366   0.144   4.727
   466TXY    C5 1040   4.356   0.350   4.796
   466TXY    H9 1041   4.249   0.357   4.773
   466TXY   H10 1042   4.409   0.389   4.709
   466TXY    C3 1043   4.387   0.439   4.919
   466TXY    H5 1044   4.339   0.394   0.007
   466TXY    H6 1045   4.341   0.536   4.904
   466TXY    C1 1046   4.538   0.456   4.946
   466TXY    H1 1047   4.582   0.359   4.966
   466TXY    H2 1048   4.586   0.495   4.856
   466TXY    C2 1049   4.567   0.549   0.065
   466TXY    H3 1050   4.480   0.557   0.130
   466TXY    H4 1051   4.645   0.503   0.127
   466TXY    C4 1052   4.615   0.691   0.026
   466TXY    H7 1053   4.642   0.745   0.117
   466TXY    H8 1054   4.705   0.683   4.965
   466TXY    C6 1055   4.509   0.772   4.950
   466TXY   H11 1056   4.417   0.781   0.007
   466TXY   H12 1057   4.545   0.873   4.930
   466TXY   H13 1058   4.485   0.726   4.854
   476TXY   H16 1059   2.315   4.629   4.553
   476TXY    C7 1060   2.273   4.721   4.593
   476TXY   H14 1061   2.356   4.786   4.619
   476TXY   H15 1062   2.220   4.696   4.684
   476TXY    C5 1063   2.180   4.789   4.492
   476TXY    H9 1064   2.139   4.879   4.537
   476TXY   H10 1065   2.096   4.723   4.471
   476TXY    C3 1066   2.249   4.826   4.358
   476TXY    H5 1067   2.339   4.884   4.380
   476TXY    H6 1068   2.183   4.891   4.302
   476TXY    C1 1069   2.286   4.704   4.272
   476TXY    H1 1070   2.349   4.636   4.330
   476TXY    H2 1071   2.195   4.648   4.249
   476TXY    C2 1072   2.360   4.740   4.143
   476TXY    H3 1073   2.397   4.843   4.148
   476TXY    H4 1074   2.448   4.677   4.132
   476TXY    C4 1075   2.274   4.725   4.014
   476TXY    H7 1076   2.338   4.740   3.927
   476TXY    H8 1077   2.236   4.623   4.008
   476TXY    C6 1078   2.157   4.824   4.007
   476TXY   H11 1079   2.192   4.927   4.013
   476TXY   H12 1080   2.103   4.813   3.913
   476TXY   H13 1081   2.086   4.807   4.088
   486TXY   H16 1082   0.932   0.646   1.346
   486TXY    C7 1083   0.835   0.669   1.303
   486TXY   H14 1084   0.769   0.700   1.384
   486TXY   H15 1085   0.794   0.577   1.261
   486TXY    C5 1086   0.845   0.778   1.195
   486TXY    H9 1087   0.747   0.792   1.150
   486TXY   H10 1088   0.912   0.744   1.116
   486TXY    C3 1089   0.895   0.914   1.250
   486TXY    H5 1090   0.830   0.945   1.331
   486TXY    H6 1091   0.885   0.989   1.171
   486TXY    C1 1092   1.041   0.911   1.299
   486TXY    H1 1093   1.049   0.840   1.381
   486TXY    H2 1094   1.105   0.873   1.219
   486TXY    C2 1095   1.091   1.048   1.347
   486TXY    H3 1096   1.008   1.119   1.352
   486TXY    H4 1097   1.129   1.038   1.449
   486TXY    C4 1098   1.203   1.109   1.259
   486TXY    H7 1099   1.241   1.199   1.308
   486TXY    H8 1100   1.286   1.038   1.253
   486TXY    C6 1101   1.157   1.145   1.118
   486TXY   H11 1102   1.076   1.218   1.120
   486TXY   H12 1103   1.238   1.188   1.060
   486TXY   H13 1104   1.121   1.057   1.064
   496TXY   H16 1105   2.405   1.568   2.664
   496TXY    C7 1106   2.514   1.565   2.658
   496TXY   H14 1107   2.542   1.490   2.584
   496TXY   H15 1108   2.551   1.531   2.755
   496TXY    C5 1109   2.573   1.702   2.622
   496TXY    H9 1110   2.682   1.695   2.621
   496TXY   H10 1111   2.547   1.774   2.700
   496TXY    C3 1112   2.525   1.757   2.485
   496TXY    H5 1113   2.548   1.682   2.408
   496TXY    H6 1114   2.584   1.845   2.461
   496TXY    C1 1115   2.376   1.791   2.481
   496TXY    H1 1116   2.318   1.700   2.499
   496TXY    H2 1117   2.352   1.859   2.563
   496TXY    C2 1118   2.331   1.852   2.347
   496TXY    H3 1119   2.409   1.839   2.271
   496TXY    H4 1120   2.244   1.798   2.310
   496TXY    C4 1121   2.294   2.002   2.355
   496TXY    H7 1122   2.251   2.033   2.260
   496TXY    H8 1123   2.217   2.016   2.430
   496TXY    C6 1124   2.413   2.093   2.388
   496TXY   H11 1125   2.492   2.084   2.314
   496TXY   H12 1126   2.383   2.198   2.391
   496TXY   H13 1127   2.456   2.069   2.485
   506TXY   H16 1128   1.652   1.894   4.062
   506TXY    C7 1129   1.568   1.860   4.002
   506TXY   H14 1130   1.591   1.760   3.964
   506TXY   H15 1131   1.561   1.926   3.915
   506TXY    C5 1132   1.437   1.860   4.082
   506TXY    H9 1133   1.355   1.836   4.015
   506TXY   H10 1134   1.419   1.960   4.120
   506TXY    C3 1135   1.437   1.759   4.200
   506TXY    H5 1136   1.451   1.659   4.160
   506TXY    H6 1137   1.337   1.761   4.245
   506TXY    C1 1138   1.543   1.788   4.307
   506TXY    H1 1139   1.642   1.776   4.263
   506TXY    H2 1140   1.535   1.892   4.338
   506TXY    C2 1141   1.533   1.695   4.429
   506TXY    H3 1142   1.467   1.611   4.407
   506TXY    H4 1143   1.631   1.653   4.450
   506TXY    C4 1144   1.482   1.764   4.558
   506TXY    H7 1145   1.487   1.694   4.641
   506TXY    H8 1146   1.549   1.847   4.583
   506TXY    C6 1147   1.339   1.818   4.547
   506TXY   H11 1148   1.269   1.738   4.522
   506TXY   H12 1149   1.306   1.862   4.641
   506TXY   H13 1150   1.331   1.894   4.470
   516TXY   H16 1151   3.760   4.066   3.487
   516TXY    C7 1152   3.727   4.147   3.552
   516TXY   H14 1153   3.816   4.191   3.598
   516TXY   H15 1154   3.668   4.103   3.632
   516TXY    C5 1155   3.647   4.252   3.475
   516TXY    H9 1156   3.610   4.326   3.546
   516TXY   H10 1157   3.559   4.204   3.431
   516TXY    C3 1158   3.727   4.325   3.365
   516TXY    H5 1159   3.814   4.372   3.410
   516TXY    H6 1160   3.665   4.405   3.325
   516TXY    C1 1161   3.772   4.233   3.250
   516TXY    H1 1162   3.835   4.153   3.290
   516TXY    H2 1163   3.684   4.184   3.207
   516TXY    C2 1164   3.850   4.307   3.140
   516TXY    H3 1165   3.873   4.409   3.172
   516TXY    H4 1166   3.946   4.258   3.125
   516TXY    C4 1167   3.777   4.313   3.003
   516TXY    H7 1168   3.844   4.357   2.930
   516TXY    H8 1169   3.755   4.212   2.970
   516TXY    C6 1170   3.647   4.394   3.007
   516TXY   H11 1171   3.666   4.497   3.039
   516TXY   H12 1172   3.601   4.398   2.908
   516TXY   H13 1173   3.575   4.351   3.075
   526TXY   H16 1174   3.175   2.866   3.448
   526TXY    C7 1175   3.246   2.791   3.483
   526TXY   H14 1176   3.191   2.714   3.536
   526TXY   H15 1177   3.312   2.839   3.555
   526TXY    C5 1178   3.327   2.732   3.366
   526TXY    H9 1179   3.401   2.662   3.406
   526TXY   H10 1180   3.382   2.812   3.318
   526TXY    C3 1181   3.241   2.659   3.261
   526TXY    H5 1182   3.183   2.581   3.311
   526TXY    H6 1183   3.307   2.608   3.191
   526TXY    C1 1184   3.145   2.751   3.183
   526TXY    H1 1185   3.074   2.795   3.253
   526TXY    H2 1186   3.202   2.834   3.141
   526TXY    C2 1187   3.067   2.679   3.073
   526TXY    H3 1188   3.076   2.571   3.084
   526TXY    H4 1189   2.961   2.701   3.083
   526TXY    C4 1190   3.110   2.717   2.929
   526TXY    H7 1191   3.042   2.671   2.858
   526TXY    H8 1192   3.101   2.825   2.916
   526TXY    C6 1193   3.253   2.675   2.895
   526TXY   H11 1194   3.266   2.567   2.904
   526TXY   H12 1195   3.279   2.702   2.793
   526TXY   H13 1196   3.326   2.723   2.961
   536TXY   H16 1197   3.528   1.733   4.508
   536TXY    C7 1198   3.458   1.795   4.563
   536TXY   H14 1199   3.481   1.786   4.669
   536TXY   H15 1200   3.358   1.754   4.548
   536TXY    C5 1201   3.463   1.942   4.518
   536TXY    H9 1202   3.384   1.997   4.568
   536TXY   H10 1203   3.441   1.946   4.411
   536TXY    C3 1204   3.599   2.011   4.545
   536TXY    H5 1205   3.624   1.998   4.650
   536TXY    H6 1206   3.587   2.118   4.528
   536TXY    C1 1207   3.713   1.957   4.458
   536TXY    H1 1208   3.724   1.850   4.475
   536TXY    H2 1209   3.687   1.970   4.352
   536TXY    C2 1210   3.848   2.025   4.487
   536TXY    H3 1211   3.845   2.076   4.583
   536TXY    H4 1212   3.926   1.949   4.495
   536TXY    C4 1213   3.893   2.127   4.379
   536TXY    H7 1214   3.995   2.159   4.402
   536TXY    H8 1215   3.897   2.077   4.282
   536TXY    C6 1216   3.803   2.250   4.369
   536TXY   H11 1217   3.798   2.303   4.464
   536TXY   H12 1218   3.841   2.320   4.294
   536TXY   H13 1219   3.702   2.223   4.340
   546TXY   H16 1220   3.154   0.301   4.479
   546TXY    C7 1221   3.066   0.246   4.511
   546TXY   H14 1222   2.999   0.237   4.425
   546TXY   H15 1223   3.015   0.308   4.586
   546TXY    C5 1224   3.102   0.109   4.568
   546TXY    H9 1225   3.011   0.061   4.606
   546TXY   H10 1226   3.168   0.123   4.654
   546TXY    C3 1227   3.170   0.014   4.466
   546TXY    H5 1228   3.105   0.005   4.379
   546TXY    H6 1229   3.177   4.915   4.511
   546TXY    C1 1230   3.309   0.061   4.422
   546TXY    H1 1231   3.300   0.157   4.372
   546TXY    H2 1232   3.372   0.076   4.510
   546TXY    C2 1233   3.378   4.962   4.325
   546TXY    H3 1234   3.306   4.891   4.285
   546TXY    H4 1235   3.417   0.017   4.240
   546TXY    C4 1236   3.495   4.882   4.388
   546TXY    H7 1237   3.542   4.822   4.310
   546TXY    H8 1238   3.570   4.952   4.425
   546TXY    C6 1239   3.452   4.790   4.502
   546TXY   H11 1240   3.377   4.718   4.469
   546TXY   H12 1241   3.537   4.733   4.541
   546TXY   H13 1242   3.410   4.846   4.585
   556TXY   H16 1243   2.826   2.021   3.367
   556TXY    C7 1244   2.935   2.013   3.363
   556TXY   H14 1245   2.976   2.073   3.444
   556TXY   H15 1246   2.967   2.059   3.269
   556TXY    C5 1247   2.982   1.868   3.372
   556TXY    H9 1248   3.091   1.865   3.360
   556TXY   H10 1249   2.940   1.811   3.289
   556TXY    C3 1250   2.945   1.798   3.505
   556TXY    H5 1251   2.986   1.857   3.588
   556TXY    H6 1252   2.995   1.702   3.509
   556TXY    C1 1253   2.794   1.780   3.525
   556TXY    H1 1254   2.746   1.878   3.527
   556TXY    H2 1255   2.753   1.726   3.439
   556TXY    C2 1256   2.758   1.706   3.655
   556TXY    H3 1257   2.844   1.703   3.722
   556TXY    H4 1258   2.680   1.761   3.707
   556TXY    C4 1259   2.708   1.560   3.633
   556TXY    H7 1260   2.674   1.520   3.729
   556TXY    H8 1261   2.622   1.561   3.567
   556TXY    C6 1262   2.815   1.467   3.575
   556TXY   H11 1263   2.903   1.463   3.639
   556TXY   H12 1264   2.777   1.365   3.566
   556TXY   H13 1265   2.847   1.499   3.476
   566TXY   H16 1266   2.915   4.606   3.942
   566TXY    C7 1267   2.931   4.707   3.903
   566TXY   H14 1268   2.983   4.765   3.979
   566TXY   H15 1269   2.833   4.752   3.888
   566TXY    C5 1270   3.010   4.703   3.771
   566TXY    H9 1271   3.020   4.805   3.734
   566TXY   H10 1272   2.952   4.648   3.697
   566TXY    C3 1273   3.151   4.641   3.783
   566TXY    H5 1274   3.206   4.693   3.862
   566TXY    H6 1275   3.204   4.659   3.690
   566TXY    C1 1276   3.149   4.490   3.813
   566TXY    H1 1277   3.100   4.473   3.909
   566TXY    H2 1278   3.088   4.439   3.737
   566TXY    C2 1279   3.289   4.428   3.817
   566TXY    H3 1280   3.365   4.506   3.823
   566TXY    H4 1281   3.300   4.368   3.908
   566TXY    C4 1282   3.322   4.337   3.696
   566TXY    H7 1283   3.419   4.289   3.713
   566TXY    H8 1284   3.248   4.257   3.689
   566TXY    C6 1285   3.327   4.412   3.562
   566TXY   H11 1286   3.402   4.491   3.564
   566TXY   H12 1287   3.352   4.344   3.480
   566TXY   H13 1288   3.231   4.458   3.539
   576TXY   H16 1289   0.566   2.494   0.188
   576TXY    C7 1290   0.465   2.459   0.204
   576TXY   H14 1291   0.422   2.434   0.106
   576TXY   H15 1292   0.407   2.541   0.244
   576TXY    C5 1293   0.461   2.338   0.298
   576TXY    H9 1294   0.357   2.316   0.324
   576TXY   H10 1295   0.512   2.363   0.391
   576TXY    C3 1296   0.526   2.211   0.237
   576TXY    H5 1297   0.476   2.188   0.143
   576TXY    H6 1298   0.506   2.127   0.304
   576TXY    C1 1299   0.677   2.223   0.214
   576TXY    H1 1300   0.697   2.310   0.150
   576TXY    H2 1301   0.727   2.242   0.309
   576TXY    C2 1302   0.737   2.099   0.146
   576TXY    H3 1303   0.658   2.037   0.103
   576TXY    H4 1304   0.800   2.131   0.062
   576TXY    C4 1305   0.824   2.010   0.238
   576TXY    H7 1306   0.865   1.928   0.180
   576TXY    H8 1307   0.909   2.068   0.275
   576TXY    C6 1308   0.749   1.952   0.358
   576TXY   H11 1309   0.663   1.893   0.326
   576TXY   H12 1310   0.813   1.886   0.417
   576TXY   H13 1311   0.713   2.030   0.425
   586TXY   H16 1312   3.771   1.414   1.444
   586TXY    C7 1313   3.843   1.496   1.451
   586TXY   H14 1314   3.942   1.454   1.441
   586TXY   H15 1315   3.835   1.538   1.551
   586TXY    C5 1316   3.816   1.603   1.344
   586TXY    H9 1317   3.887   1.685   1.359
   586TXY   H10 1318   3.716   1.644   1.359
   586TXY    C3 1319   3.829   1.551   1.199
   586TXY    H5 1320   3.928   1.506   1.187
   586TXY    H6 1321   3.825   1.636   1.132
   586TXY    C1 1322   3.721   1.449   1.160
   586TXY    H1 1323   3.728   1.362   1.226
   586TXY    H2 1324   3.622   1.493   1.177
   586TXY    C2 1325   3.733   1.401   1.015
   586TXY    H3 1326   3.829   1.431   0.972
   586TXY    H4 1327   3.731   1.292   1.012
   586TXY    C4 1328   3.620   1.452   0.922
   586TXY    H7 1329   3.628   1.402   0.825
   586TXY    H8 1330   3.523   1.424   0.964
   586TXY    C6 1331   3.624   1.604   0.900
   586TXY   H11 1332   3.718   1.635   0.856
   586TXY   H12 1333   3.544   1.635   0.832
   586TXY   H13 1334   3.610   1.657   0.994
   596TXY   H16 1335   1.834   3.066   2.862
   596TXY    C7 1336   1.920   3.134   2.854
   596TXY   H14 1337   1.906   3.195   2.765
   596TXY   H15 1338   2.008   3.072   2.838
   596TXY    C5 1339   1.935   3.220   2.980
   596TXY    H9 1340   2.026   3.280   2.970
   596TXY   H10 1341   1.949   3.155   3.066
   596TXY    C3 1342   1.815   3.315   3.006
   596TXY    H5 1343   1.802   3.379   2.919
   596TXY    H6 1344   1.840   3.380   3.089
   596TXY    C1 1345   1.684   3.241   3.035
   596TXY    H1 1346   1.655   3.183   2.947
   596TXY    H2 1347   1.700   3.169   3.116
   596TXY    C2 1348   1.568   3.335   3.072
   596TXY    H3 1349   1.595   3.439   3.052
   596TXY    H4 1350   1.482   3.314   3.008
   596TXY    C4 1351   1.521   3.324   3.219
   596TXY    H7 1352   1.433   3.386   3.233
   596TXY    H8 1353   1.492   3.221   3.240
   596TXY    C6 1354   1.629   3.366   3.320
   596TXY   H11 1355   1.660   3.469   3.304
   596TXY   H12 1356   1.591   3.359   3.422
   596TXY   H13 1357   1.717   3.302   3.314
   606TXY   H16 1358   1.444   0.027   1.551
   606TXY    C7 1359   1.492   4.930   1.544
   606TXY   H14 1360   1.501   4.889   1.645
   606TXY   H15 1361   1.593   4.946   1.506
   606TXY    C5 1362   1.414   4.835   1.452
   606TXY    H9 1363   1.471   4.742   1.441
   606TXY   H10 1364   1.407   4.879   1.353
   606TXY    C3 1365   1.272   4.801   1.504
   606TXY    H5 1366   1.281   4.757   1.603
   606TXY    H6 1367   1.230   4.724   1.439
   606TXY    C1 1368   1.178   4.922   1.509
   606TXY    H1 1369   1.217   4.994   1.581
   606TXY    H2 1370   1.177   4.971   1.412
   606TXY    C2 1371   1.035   4.884   1.551
   606TXY    H3 1372   1.032   4.784   1.593
   606TXY    H4 1373   1.002   4.951   1.631
   606TXY    C4 1374   0.930   4.893   1.437
   606TXY    H7 1375   0.832   4.872   1.478
   606TXY    H8 1376   0.928   4.995   1.399
   606TXY    C6 1377   0.958   4.797   1.321
   606TXY   H11 1378   0.960   4.693   1.355
   606TXY   H12 1379   0.880   4.805   1.245
   606TXY   H13 1380   1.053   4.818   1.273
   616TXY   H16 1381   2.844   1.508   2.826
   616TXY    C7 1382   2.845   1.426   2.754
   616TXY   H14 1383   2.948   1.405   2.728
   616TXY   H15 1384   2.795   1.461   2.663
   616TXY    C5 1385   2.775   1.301   2.810
   616TXY    H9 1386   2.770   1.225   2.732
   616TXY   H10 1387   2.672   1.327   2.836
   616TXY    C3 1388   2.845   1.241   2.934
   616TXY    H5 1389   2.949   1.219   2.908
   616TXY    H6 1390   2.798   1.145   2.957
   616TXY    C1 1391   2.841   1.332   3.058
   616TXY    H1 1392   2.892   1.425   3.035
   616TXY    H2 1393   2.738   1.357   3.081
   616TXY    C2 1394   2.908   1.269   3.181
   616TXY    H3 1395   2.971   1.184   3.152
   616TXY    H4 1396   2.975   1.342   3.227
   616TXY    C4 1397   2.809   1.221   3.290
   616TXY    H7 1398   2.865   1.190   3.378
   616TXY    H8 1399   2.746   1.304   3.320
   616TXY    C6 1400   2.720   1.105   3.245
   616TXY   H11 1401   2.779   1.019   3.214
   616TXY   H12 1402   2.654   1.072   3.325
   616TXY   H13 1403   2.657   1.133   3.160
   626TXY   H16 1404   3.505   3.691   0.071
   626TXY    C7 1405   3.521   3.586   0.097
   626TXY   H14 1406   3.433   3.552   0.152
   626TXY   H15 1407   3.606   3.582   0.165
   626TXY    C5 1408   3.546   3.500   4.973
   626TXY    H9 1409   3.567   3.398   0.004
   626TXY   H10 1410   3.636   3.536   4.922
   626TXY    C3 1411   3.428   3.499   4.872
   626TXY    H5 1412   3.338   3.468   4.925
   626TXY    H6 1413   3.448   3.423   4.797
   626TXY    C1 1414   3.404   3.634   4.804
   626TXY    H1 1415   3.379   3.709   4.879
   626TXY    H2 1416   3.497   3.667   4.756
   626TXY    C2 1417   3.290   3.630   4.700
   626TXY    H3 1418   3.232   3.538   4.711
   626TXY    H4 1419   3.222   3.712   4.719
   626TXY    C4 1420   3.338   3.641   4.553
   626TXY    H7 1421   3.251   3.649   4.488
   626TXY    H8 1422   3.396   3.732   4.540
   626TXY    C6 1423   3.423   3.521   4.507
   626TXY   H11 1424   3.368   3.428   4.517
   626TXY   H12 1425   3.451   3.531   4.403
   626TXY   H13 1426   3.514   3.512   4.566
   636TXY   H16 1427   4.136   2.550   1.533
   636TXY    C7 1428   4.143   2.501   1.630
   636TXY   H14 1429   4.188   2.572   1.700
   636TXY   H15 1430   4.211   2.417   1.620
   636TXY    C5 1431   4.006   2.454   1.681
   636TXY    H9 1432   4.019   2.400   1.774
   636TXY   H10 1433   3.964   2.383   1.609
   636TXY    C3 1434   3.905   2.570   1.703
   636TXY    H5 1435   3.949   2.641   1.773
   636TXY    H6 1436   3.816   2.529   1.752
   636TXY    C1 1437   3.864   2.642   1.574
   636TXY    H1 1438   3.952   2.686   1.528
   636TXY    H2 1439   3.825   2.569   1.503
   636TXY    C2 1440   3.760   2.753   1.597
   636TXY    H3 1441   3.756   2.780   1.703
   636TXY    H4 1442   3.792   2.843   1.544
   636TXY    C4 1443   3.617   2.718   1.549
   636TXY    H7 1444   3.554   2.806   1.558
   636TXY    H8 1445   3.620   2.692   1.443
   636TXY    C6 1446   3.553   2.603   1.627
   636TXY   H11 1447   3.547   2.626   1.734
   636TXY   H12 1448   3.452   2.583   1.592
   636TXY   H13 1449   3.610   2.511   1.617
   646TXY   H16 1450   2.119   4.131   4.934
   646TXY    C7 1451   2.012   4.153   4.929
   646TXY   H14 1452   1.996   4.250   4.977
   646TXY   H15 1453   1.961   4.078   4.990
   646TXY    C5 1454   1.960   4.153   4.785
   646TXY    H9 1455   1.851   4.166   4.787
   646TXY   H10 1456   1.979   4.056   4.740
   646TXY    C3 1457   2.022   4.263   4.696
   646TXY    H5 1458   2.006   4.360   4.745
   646TXY    H6 1459   1.967   4.266   4.602
   646TXY    C1 1460   2.172   4.244   4.669
   646TXY    H1 1461   2.226   4.247   4.764
   646TXY    H2 1462   2.188   4.144   4.627
   646TXY    C2 1463   2.231   4.351   4.575
   646TXY    H3 1464   2.162   4.435   4.567
   646TXY    H4 1465   2.322   4.390   4.619
   646TXY    C4 1466   2.263   4.299   4.433
   646TXY    H7 1467   2.316   4.377   4.379
   646TXY    H8 1468   2.331   4.214   4.441
   646TXY    C6 1469   2.140   4.257   4.353
   646TXY   H11 1470   2.070   4.340   4.342
   646TXY   H12 1471   2.167   4.224   4.253
   646TXY   H13 1472   2.086   4.175   4.401
   656TXY   H16 1473   2.236   1.748   3.517
   656TXY    C7 1474   2.296   1.736   3.427
   656TXY   H14 1475   2.240   1.780   3.344
   656TXY   H15 1476   2.305   1.629   3.407
   656TXY    C5 1477   2.434   1.801   3.442
   656TXY    H9 1478   2.493   1.781   3.352
   656TXY   H10 1479   2.486   1.755   3.525
   656TXY    C3 1480   2.428   1.954   3.464
   656TXY    H5 1481   2.371   1.999   3.383
   656TXY    H6 1482   2.530   1.994   3.456
   656TXY    C1 1483   2.367   1.994   3.599
   656TXY    H1 1484   2.264   1.959   3.603
   656TXY    H2 1485   2.421   1.943   3.680
   656TXY    C2 1486   2.368   2.146   3.623
   656TXY    H3 1487   2.385   2.200   3.530
   656TXY    H4 1488   2.270   2.177   3.659
   656TXY    C4 1489   2.474   2.193   3.726
   656TXY    H7 1490   2.460   2.300   3.746
   656TXY    H8 1491   2.458   2.141   3.821
   656TXY    C6 1492   2.618   2.170   3.680
   656TXY   H11 1493   2.638   2.221   3.586
   656TXY   H12 1494   2.689   2.208   3.754
   656TXY   H13 1495   2.639   2.064   3.666
   666TXY   H16 1496   0.181   1.365   1.632
   666TXY    C7 1497   0.287   1.370   1.608
   666TXY   H14 1498   0.327   1.460   1.654
   666TXY   H15 1499   0.295   1.382   1.500
   666TXY    C5 1500   0.362   1.245   1.655
   666TXY    H9 1501   0.466   1.252   1.622
   666TXY   H10 1502   0.319   1.157   1.607
   666TXY    C3 1503   0.359   1.226   1.809
   666TXY    H5 1504   0.397   1.317   1.856
   666TXY    H6 1505   0.430   1.146   1.834
   666TXY    C1 1506   0.220   1.192   1.865
   666TXY    H1 1507   0.152   1.273   1.842
   666TXY    H2 1508   0.182   1.103   1.814
   666TXY    C2 1509   0.220   1.169   2.017
   666TXY    H3 1510   0.313   1.205   2.061
   666TXY    H4 1511   0.141   1.229   2.062
   666TXY    C4 1512   0.200   1.022   2.059
   666TXY    H7 1513   0.183   1.017   2.167
   666TXY    H8 1514   0.110   0.983   2.012
   666TXY    C6 1515   0.319   0.932   2.023
   666TXY   H11 1516   0.410   0.966   2.072
   666TXY   H12 1517   0.301   0.829   2.055
   666TXY   H13 1518   0.337   0.931   1.916
   676TXY   H16 1519   0.359   0.627   0.390
   676TXY    C7 1520   0.409   0.558   0.457
   676TXY   H14 1521   0.359   0.462   0.449
   676TXY   H15 1522   0.393   0.595   0.559
   676TXY    C5 1523   0.559   0.546   0.426
   676TXY    H9 1524   0.604   0.479   0.499
   676TXY   H10 1525   0.606   0.643   0.438
   676TXY    C3 1526   0.589   0.492   0.284
   676TXY    H5 1527   0.535   0.398   0.271
   676TXY    H6 1528   0.695   0.468   0.278
   676TXY    C1 1529   0.551   0.590   0.172
   676TXY    H1 1530   0.444   0.610   0.177
   676TXY    H2 1531   0.602   0.685   0.188
   676TXY    C2 1532   0.584   0.535   0.031
   676TXY    H3 1533   0.605   0.428   0.036
   676TXY    H4 1534   0.496   0.546   4.967
   676TXY    C4 1535   0.703   0.606   4.962
   676TXY    H7 1536   0.712   0.570   4.860
   676TXY    H8 1537   0.683   0.713   4.957
   676TXY    C6 1538   0.837   0.584   0.034
   676TXY   H11 1539   0.861   0.478   0.041
   676TXY   H12 1540   0.919   0.632   4.980
   676TXY   H13 1541   0.836   0.625   0.135
   686TXY   H16 1542   4.587   4.886   1.739
   686TXY    C7 1543   4.657   4.968   1.758
   686TXY   H14 1544   4.749   4.925   1.797
   686TXY   H15 1545   4.614   0.031   1.836
   686TXY    C5 1546   4.684   0.049   1.631
   686TXY    H9 1547   4.752   0.131   1.655
   686TXY   H10 1548   4.591   0.094   1.597
   686TXY    C3 1549   4.745   4.966   1.515
   686TXY    H5 1550   4.834   4.915   1.551
   686TXY    H6 1551   4.777   0.035   1.437
   686TXY    C1 1552   4.647   4.863   1.456
   686TXY    H1 1553   4.622   4.789   1.533
   686TXY    H2 1554   4.554   4.913   1.429
   686TXY    C2 1555   4.705   4.788   1.334
   686TXY    H3 1556   4.813   4.801   1.329
   686TXY    H4 1557   4.687   4.681   1.346
   686TXY    C4 1558   4.644   4.833   1.198
   686TXY    H7 1559   4.678   4.765   1.120
   686TXY    H8 1560   4.535   4.824   1.203
   686TXY    C6 1561   4.680   4.976   1.159
   686TXY   H11 1562   4.788   4.989   1.152
   686TXY   H12 1563   4.638   0.002   1.062
   686TXY   H13 1564   4.643   0.048   1.231
   696TXY   H16 1565   0.304   0.771   0.853
   696TXY    C7 1566   0.395   0.798   0.906
   696TXY   H14 1567   0.410   0.905   0.894
   696TXY   H15 1568   0.478   0.748   0.857
   696TXY    C5 1569   0.387   0.759   1.054
   696TXY    H9 1570   0.483   0.781   1.101
   696TXY   H10 1571   0.372   0.652   1.062
   696TXY    C3 1572   0.275   0.832   1.133
   696TXY    H5 1573   0.290   0.940   1.123
   696TXY    H6 1574   0.287   0.809   1.239
   696TXY    C1 1575   0.133   0.795   1.087
   696TXY    H1 1576   0.121   0.821   0.982
   696TXY    H2 1577   0.121   0.686   1.094
   696TXY    C2 1578   0.023   0.865   1.168
   696TXY    H3 1579   0.065   0.944   1.230
   696TXY    H4 1580   4.954   0.915   1.099
   696TXY    C4 1581   4.940   0.770   1.258
   696TXY    H7 1582   4.855   0.825   1.299
   696TXY    H8 1583   4.900   0.689   1.198
   696TXY    C6 1584   0.020   0.711   1.374
   696TXY   H11 1585   0.060   0.789   1.439
   696TXY   H12 1586   4.958   0.646   1.436
   696TXY   H13 1587   0.104   0.651   1.339
   706TXY   H16 1588   4.397   0.545   3.221
   706TXY    C7 1589   4.298   0.561   3.179
   706TXY   H14 1590   4.246   0.633   3.241
   706TXY   H15 1591   4.244   0.466   3.185
   706TXY    C5 1592   4.306   0.609   3.033
   706TXY    H9 1593   4.205   0.619   2.994
   706TXY   H10 1594   4.356   0.533   2.973
   706TXY    C3 1595   4.379   0.744   3.016
   706TXY    H5 1596   4.330   0.819   3.079
   706TXY    H6 1597   4.367   0.778   2.913
   706TXY    C1 1598   4.529   0.739   3.051
   706TXY    H1 1599   4.541   0.707   3.154
   706TXY    H2 1600   4.577   0.663   2.988
   706TXY    C2 1601   4.600   0.874   3.032
   706TXY    H3 1602   4.527   0.954   3.015
   706TXY    H4 1603   4.652   0.900   3.125
   706TXY    C4 1604   4.703   0.877   2.917
   706TXY    H7 1605   4.756   0.972   2.919
   706TXY    H8 1606   4.778   0.799   2.933
   706TXY    C6 1607   4.640   0.858   2.778
   706TXY   H11 1608   4.566   0.935   2.758
   706TXY   H12 1609   4.716   0.863   2.700
   706TXY   H13 1610   4.591   0.761   2.770
   716TXY   H16 1611   0.113   1.268   4.529
   716TXY    C7 1612   0.120   1.315   4.430
   716TXY   H14 1613   0.066   1.252   4.359
   716TXY   H15 1614   0.225   1.315   4.401
   716TXY    C5 1615   0.062   1.457   4.432
   716TXY    H9 1616   0.079   1.503   4.334
   716TXY   H10 1617   0.117   1.516   4.505
   716TXY    C3 1618   4.911   1.463   4.464
   716TXY    H5 1619   4.858   1.398   4.395
   716TXY    H6 1620   4.876   1.564   4.446
   716TXY    C1 1621   4.878   1.422   4.609
   716TXY    H1 1622   4.910   1.319   4.625
   716TXY    H2 1623   4.935   1.485   4.677
   716TXY    C2 1624   4.728   1.431   4.641
   716TXY    H3 1625   4.669   1.439   4.549
   716TXY    H4 1626   4.696   1.339   4.690
   716TXY    C4 1627   4.690   1.550   4.734
   716TXY    H7 1628   4.585   1.540   4.762
   716TXY    H8 1629   4.748   1.544   4.825
   716TXY    C6 1630   4.712   1.687   4.669
   716TXY   H11 1631   4.652   1.698   4.578
   716TXY   H12 1632   4.683   1.767   4.737
   716TXY   H13 1633   4.816   1.702   4.643
   726TXY   H16 1634   2.007   1.594   0.619
   726TXY    C7 1635   2.097   1.612   0.677
   726TXY   H14 1636   2.069   1.612   0.783
   726TXY   H15 1637   2.131   1.713   0.653
   726TXY    C5 1638   2.205   1.508   0.648
   726TXY    H9 1639   2.296   1.535   0.702
   726TXY   H10 1640   2.230   1.512   0.541
   726TXY    C3 1641   2.165   1.364   0.685
   726TXY    H5 1642   2.137   1.361   0.791
   726TXY    H6 1643   2.253   1.300   0.675
   726TXY    C1 1644   2.050   1.307   0.600
   726TXY    H1 1645   1.961   1.369   0.615
   726TXY    H2 1646   2.076   1.315   0.495
   726TXY    C2 1647   2.014   1.162   0.636
   726TXY    H3 1648   2.061   1.133   0.731
   726TXY    H4 1649   1.907   1.154   0.652
   726TXY    C4 1650   2.055   1.058   0.528
   726TXY    H7 1651   2.015   0.960   0.556
   726TXY    H8 1652   2.009   1.085   0.433
   726TXY    C6 1653   2.207   1.046   0.509
   726TXY   H11 1654   2.256   1.018   0.602
   726TXY   H12 1655   2.231   0.970   0.434
   726TXY   H13 1656   2.250   1.140   0.475
   736TXY   H16 1657   2.094   3.454   4.120
   736TXY    C7 1658   1.994   3.428   4.087
   736TXY   H14 1659   1.996   3.324   4.054
   736TXY   H15 1660   1.971   3.489   4.000
   736TXY    C5 1661   1.890   3.450   4.198
   736TXY    H9 1662   1.791   3.431   4.157
   736TXY   H10 1663   1.892   3.554   4.228
   736TXY    C3 1664   1.911   3.360   4.323
   736TXY    H5 1665   1.906   3.256   4.292
   736TXY    H6 1666   1.827   3.377   4.390
   736TXY    C1 1667   2.043   3.386   4.397
   736TXY    H1 1668   2.126   3.367   4.329
   736TXY    H2 1669   2.049   3.491   4.425
   736TXY    C2 1670   2.060   3.297   4.521
   736TXY    H3 1671   1.990   3.213   4.518
   736TXY    H4 1672   2.160   3.253   4.520
   736TXY    C4 1673   2.041   3.371   4.656
   736TXY    H7 1674   2.066   3.303   4.737
   736TXY    H8 1675   2.112   3.454   4.661
   736TXY    C6 1676   1.899   3.425   4.677
   736TXY   H11 1677   1.826   3.344   4.672
   736TXY   H12 1678   1.889   3.472   4.774
   736TXY   H13 1679   1.873   3.499   4.601
   746TXY   H16 1680   2.123   2.317   1.784
   746TXY    C7 1681   2.082   2.394   1.719
   746TXY   H14 1682   2.020   2.344   1.644
   746TXY   H15 1683   2.166   2.440   1.667
   746TXY    C5 1684   2.002   2.498   1.798
   746TXY    H9 1685   1.968   2.576   1.729
   746TXY   H10 1686   2.068   2.546   1.870
   746TXY    C3 1687   1.878   2.440   1.872
   746TXY    H5 1688   1.815   2.389   1.799
   746TXY    H6 1689   1.820   2.523   1.911
   746TXY    C1 1690   1.914   2.343   1.986
   746TXY    H1 1691   1.966   2.257   1.944
   746TXY    H2 1692   1.984   2.393   2.054
   746TXY    C2 1693   1.791   2.294   2.064
   746TXY    H3 1694   1.699   2.318   2.010
   746TXY    H4 1695   1.794   2.185   2.070
   746TXY    C4 1696   1.781   2.350   2.208
   746TXY    H7 1697   1.700   2.299   2.260
   746TXY    H8 1698   1.873   2.328   2.262
   746TXY    C6 1699   1.755   2.501   2.212
   746TXY   H11 1700   1.663   2.527   2.160
   746TXY   H12 1701   1.746   2.536   2.315
   746TXY   H13 1702   1.837   2.557   2.166
   756TXY   H16 1703   1.459   2.129   3.370
   756TXY    C7 1704   1.543   2.073   3.411
   756TXY   H14 1705   1.544   1.975   3.361
   756TXY   H15 1706   1.522   2.055   3.516
   756TXY    C5 1707   1.676   2.147   3.392
   756TXY    H9 1708   1.755   2.090   3.441
   756TXY   H10 1709   1.670   2.243   3.443
   756TXY    C3 1710   1.714   2.169   3.244
   756TXY    H5 1711   1.715   2.073   3.193
   756TXY    H6 1712   1.816   2.207   3.240
   756TXY    C1 1713   1.621   2.266   3.169
   756TXY    H1 1714   1.519   2.225   3.171
   756TXY    H2 1715   1.617   2.361   3.223
   756TXY    C2 1716   1.662   2.289   3.023
   756TXY    H3 1717   1.735   2.215   2.992
   756TXY    H4 1718   1.575   2.276   2.959
   756TXY    C4 1719   1.721   2.430   2.995
   756TXY    H7 1720   1.734   2.442   2.888
   756TXY    H8 1721   1.649   2.506   3.027
   756TXY    C6 1722   1.855   2.455   3.065
   756TXY   H11 1723   1.929   2.381   3.035
   756TXY   H12 1724   1.894   2.554   3.041
   756TXY   H13 1725   1.845   2.450   3.174
   766TXY   H16 1726   4.635   1.384   1.934
   766TXY    C7 1727   4.680   1.308   1.871
   766TXY   H14 1728   4.764   1.354   1.818
   766TXY   H15 1729   4.606   1.280   1.795
   766TXY    C5 1730   4.724   1.186   1.952
   766TXY    H9 1731   4.761   1.110   1.883
   766TXY   H10 1732   4.638   1.144   2.003
   766TXY    C3 1733   4.835   1.217   2.056
   766TXY    H5 1734   4.920   1.260   2.004
   766TXY    H6 1735   4.869   1.122   2.098
   766TXY    C1 1736   4.790   1.311   2.169
   766TXY    H1 1737   4.765   1.408   2.126
   766TXY    H2 1738   4.698   1.272   2.214
   766TXY    C2 1739   4.897   1.332   2.277
   766TXY    H3 1740   4.993   1.292   2.244
   766TXY    H4 1741   4.912   1.438   2.293
   766TXY    C4 1742   4.862   1.267   2.413
   766TXY    H7 1743   4.937   1.297   2.487
   766TXY    H8 1744   4.767   1.306   2.448
   766TXY    C6 1745   4.855   1.114   2.409
   766TXY   H11 1746   4.950   1.071   2.378
   766TXY   H12 1747   4.830   1.073   2.507
   766TXY   H13 1748   4.779   1.080   2.339
   776TXY   H16 1749   0.708   3.345   2.520
   776TXY    C7 1750   0.735   3.272   2.445
   776TXY   H14 1751   0.668   3.285   2.360
   776TXY   H15 1752   0.716   3.173   2.487
   776TXY    C5 1753   0.882   3.286   2.402
   776TXY    H9 1754   0.906   3.207   2.331
   776TXY   H10 1755   0.945   3.270   2.489
   776TXY    C3 1756   0.915   3.423   2.338
   776TXY    H5 1757   0.848   3.439   2.254
   776TXY    H6 1758   1.016   3.417   2.296
   776TXY    C1 1759   0.906   3.541   2.435
   776TXY    H1 1760   0.803   3.549   2.471
   776TXY    H2 1761   0.968   3.520   2.523
   776TXY    C2 1762   0.947   3.675   2.372
   776TXY    H3 1763   0.962   3.663   2.264
   776TXY    H4 1764   0.865   3.747   2.383
   776TXY    C4 1765   1.074   3.738   2.433
   776TXY    H7 1766   1.088   3.838   2.392
   776TXY    H8 1767   1.060   3.749   2.540
   776TXY    C6 1768   1.201   3.655   2.407
   776TXY   H11 1769   1.218   3.642   2.300
   776TXY   H12 1770   1.289   3.704   2.449
   776TXY   H13 1771   1.194   3.556   2.452
   786TXY   H16 1772   3.446   1.849   3.087
   786TXY    C7 1773   3.514   1.849   3.172
   786TXY   H14 1774   3.605   1.797   3.141
   786TXY   H15 1775   3.468   1.789   3.251
   786TXY    C5 1776   3.545   1.991   3.220
   786TXY    H9 1777   3.608   1.985   3.309
   786TXY   H10 1778   3.451   2.038   3.251
   786TXY    C3 1779   3.614   2.080   3.114
   786TXY    H5 1780   3.706   2.030   3.082
   786TXY    H6 1781   3.645   2.173   3.163
   786TXY    C1 1782   3.526   2.112   2.992
   786TXY    H1 1783   3.503   2.019   2.941
   786TXY    H2 1784   3.432   2.154   3.027
   786TXY    C2 1785   3.594   2.208   2.893
   786TXY    H3 1786   3.700   2.219   2.917
   786TXY    H4 1787   3.590   2.164   2.793
   786TXY    C4 1788   3.529   2.348   2.886
   786TXY    H7 1789   3.576   2.405   2.806
   786TXY    H8 1790   3.424   2.338   2.861
   786TXY    C6 1791   3.542   2.428   3.017
   786TXY   H11 1792   3.647   2.441   3.044
   786TXY   H12 1793   3.498   2.527   3.006
   786TXY   H13 1794   3.492   2.378   3.099
   796TXY   H16 1795   0.297   2.258   1.371
   796TXY    C7 1796   0.268   2.357   1.337
   796TXY   H14 1797   0.225   2.346   1.237
   796TXY   H15 1798   0.359   2.416   1.326
   796TXY    C5 1799   0.170   2.424   1.433
   796TXY    H9 1800   0.151   2.526   1.399
   796TXY   H10 1801   0.217   2.433   1.531
   796TXY    C3 1802   0.035   2.349   1.448
   796TXY    H5 1803   4.991   2.338   1.349
   796TXY    H6 1804   4.968   2.412   1.506
   796TXY    C1 1805   0.048   2.211   1.514
   796TXY    H1 1806   0.114   2.149   1.455
   796TXY    H2 1807   0.095   2.223   1.612
   796TXY    C2 1808   4.913   2.139   1.530
   796TXY    H3 1809   4.836   2.189   1.470
   796TXY    H4 1810   4.921   2.038   1.490
   796TXY    C4 1811   4.862   2.129   1.676
   796TXY    H7 1812   4.773   2.067   1.678
   796TXY    H8 1813   4.937   2.079   1.737
   796TXY    C6 1814   4.829   2.265   1.739
   796TXY   H11 1815   4.753   2.318   1.682
   796TXY   H12 1816   4.792   2.253   1.840
   796TXY   H13 1817   4.918   2.329   1.744
   806TXY   H16 1818   1.056   3.383   4.944
   806TXY    C7 1819   1.054   3.291   0.002
   806TXY   H14 1820   0.950   3.268   0.025
   806TXY   H15 1821   1.105   3.310   0.096
   806TXY    C5 1822   1.121   3.176   4.926
   806TXY    H9 1823   1.122   3.087   4.990
   806TXY   H10 1824   1.225   3.201   4.907
   806TXY    C3 1825   1.051   3.140   4.792
   806TXY    H5 1826   0.947   3.117   4.812
   806TXY    H6 1827   1.097   3.049   4.753
   806TXY    C1 1828   1.060   3.252   4.687
   806TXY    H1 1829   1.011   3.341   4.725
   806TXY    H2 1830   1.165   3.278   4.672
   806TXY    C2 1831   0.996   3.213   4.552
   806TXY    H3 1832   0.943   3.118   4.561
   806TXY    H4 1833   0.921   3.288   4.526
   806TXY    C4 1834   1.097   3.203   4.435
   806TXY    H7 1835   1.042   3.188   4.342
   806TXY    H8 1836   1.150   3.298   4.426
   806TXY    C6 1837   1.198   3.090   4.452
   806TXY   H11 1838   1.148   2.993   4.457
   806TXY   H12 1839   1.268   3.086   4.367
   806TXY   H13 1840   1.257   3.102   4.542
   816TXY   H16 1841   2.988   2.777   0.194
   816TXY    C7 1842   2.999   2.874   0.242
   816TXY   H14 1843   3.103   2.884   0.275
   816TXY   H15 1844   2.936   2.874   0.331
   816TXY    C5 1845   2.960   2.988   0.147
   816TXY    H9 1846   2.965   3.083   0.202
   816TXY   H10 1847   2.856   2.975   0.117
   816TXY    C3 1848   3.050   2.999   0.021
   816TXY    H5 1849   3.153   3.011   0.053
   816TXY    H6 1850   3.023   3.091   4.969
   816TXY    C1 1851   3.038   2.880   4.926
   816TXY    H1 1852   3.070   2.789   4.978
   816TXY    H2 1853   2.933   2.865   4.900
   816TXY    C2 1854   3.123   2.895   4.799
   816TXY    H3 1855   3.188   2.983   4.807
   816TXY    H4 1856   3.189   2.809   4.789
   816TXY    C4 1857   3.040   2.908   4.668
   816TXY    H7 1858   3.108   2.907   4.583
   816TXY    H8 1859   2.976   2.821   4.658
   816TXY    C6 1860   2.955   3.035   4.661
   816TXY   H11 1861   3.016   3.124   4.667
   816TXY   H12 1862   2.899   3.039   4.567
   816TXY   H13 1863   2.882   3.039   4.743
   826TXY   H16 1864   2.630   3.504   2.493
   826TXY    C7 1865   2.635   3.563   2.402
   826TXY   H14 1866   2.711   3.520   2.338
   826TXY   H15 1867   2.668   3.664   2.429
   826TXY    C5 1868   2.499   3.568   2.331
   826TXY    H9 1869   2.506   3.635   2.245
   826TXY   H10 1870   2.425   3.612   2.398
   826TXY    C3 1871   2.449   3.430   2.283
   826TXY    H5 1872   2.525   3.386   2.218
   826TXY    H6 1873   2.361   3.445   2.220
   826TXY    C1 1874   2.415   3.333   2.397
   826TXY    H1 1875   2.505   3.315   2.456
   826TXY    H2 1876   2.342   3.379   2.463
   826TXY    C2 1877   2.362   3.197   2.347
   826TXY    H3 1878   2.383   3.184   2.241
   826TXY    H4 1879   2.415   3.117   2.398
   826TXY    C4 1880   2.210   3.176   2.370
   826TXY    H7 1881   2.184   3.073   2.343
   826TXY    H8 1882   2.188   3.187   2.476
   826TXY    C6 1883   2.122   3.272   2.290
   826TXY   H11 1884   2.141   3.263   2.183
   826TXY   H12 1885   2.016   3.252   2.307
   826TXY   H13 1886   2.140   3.376   2.318
   836TXY   H16 1887   4.568   0.309   3.924
   836TXY    C7 1888   4.523   0.408   3.916
   836TXY   H14 1889   4.603   0.482   3.925
   836TXY   H15 1890   4.456   0.421   4.001
   836TXY    C5 1891   4.448   0.424   3.783
   836TXY    H9 1892   4.397   0.521   3.782
   836TXY   H10 1893   4.370   0.348   3.779
   836TXY    C3 1894   4.538   0.412   3.658
   836TXY    H5 1895   4.622   0.481   3.669
   836TXY    H6 1896   4.481   0.446   3.571
   836TXY    C1 1897   4.589   0.269   3.634
   836TXY    H1 1898   4.647   0.237   3.720
   836TXY    H2 1899   4.504   0.201   3.626
   836TXY    C2 1900   4.678   0.257   3.509
   836TXY    H3 1901   4.713   0.355   3.477
   836TXY    H4 1902   4.767   0.199   3.533
   836TXY    C4 1903   4.609   0.189   3.388
   836TXY    H7 1904   4.683   0.168   3.311
   836TXY    H8 1905   4.568   0.092   3.419
   836TXY    C6 1906   4.496   0.273   3.327
   836TXY   H11 1907   4.534   0.369   3.292
   836TXY   H12 1908   4.450   0.222   3.242
   836TXY   H13 1909   4.418   0.293   3.400
   846TXY   H16 1910   0.312   3.314   1.922
   846TXY    C7 1911   0.352   3.228   1.869
   846TXY   H14 1912   0.448   3.203   1.913
   846TXY   H15 1913   0.369   3.258   1.766
   846TXY    C5 1914   0.255   3.109   1.874
   846TXY    H9 1915   0.296   3.027   1.815
   846TXY   H10 1916   0.161   3.138   1.829
   846TXY    C3 1917   0.228   3.057   2.018
   846TXY    H5 1918   0.324   3.034   2.065
   846TXY    H6 1919   0.174   2.963   2.010
   846TXY    C1 1920   0.150   3.156   2.106
   846TXY    H1 1921   0.211   3.244   2.123
   846TXY    H2 1922   0.061   3.189   2.052
   846TXY    C2 1923   0.110   3.097   2.242
   846TXY    H3 1924   0.174   3.012   2.267
   846TXY    H4 1925   0.127   3.171   2.320
   846TXY    C4 1926   4.962   3.051   2.251
   846TXY    H7 1927   4.942   3.016   2.352
   846TXY    H8 1928   4.897   3.136   2.232
   846TXY    C6 1929   4.927   2.939   2.152
   846TXY   H11 1930   4.990   2.852   2.166
   846TXY   H12 1931   4.824   2.908   2.163
   846TXY   H13 1932   4.940   2.973   2.049
   856TXY   H16 1933   0.684   2.777   1.460
   856TXY    C7 1934   0.628   2.690   1.426
   856TXY   H14 1935   0.699   2.611   1.403
   856TXY   H15 1936   0.578   2.717   1.334
   856TXY    C5 1937   0.527   2.645   1.532
   856TXY    H9 1938   0.468   2.562   1.492
   856TXY   H10 1939   0.457   2.726   1.552
   856TXY    C3 1940   0.592   2.600   1.666
   856TXY    H5 1941   0.663   2.521   1.645
   856TXY    H6 1942   0.514   2.556   1.728
   856TXY    C1 1943   0.661   2.714   1.742
   856TXY    H1 1944   0.743   2.752   1.681
   856TXY    H2 1945   0.591   2.796   1.756
   856TXY    C2 1946   0.718   2.670   1.878
   856TXY    H3 1947   0.719   2.561   1.886
   856TXY    H4 1948   0.822   2.701   1.886
   856TXY    C4 1949   0.641   2.727   2.000
   856TXY    H7 1950   0.695   2.701   2.091
   856TXY    H8 1951   0.640   2.836   1.994
   856TXY    C6 1952   0.497   2.676   2.012
   856TXY   H11 1953   0.494   2.567   2.020
   856TXY   H12 1954   0.448   2.717   2.100
   856TXY   H13 1955   0.438   2.704   1.925
   866TXY   H16 1956   0.472   1.580   2.302
   866TXY    C7 1957   0.445   1.484   2.257
   866TXY   H14 1958   0.339   1.468   2.273
   866TXY   H15 1959   0.500   1.407   2.311
   866TXY    C5 1960   0.479   1.481   2.107
   866TXY    H9 1961   0.458   1.382   2.069
   866TXY   H10 1962   0.586   1.498   2.095
   866TXY    C3 1963   0.401   1.585   2.023
   866TXY    H5 1964   0.294   1.571   2.041
   866TXY    H6 1965   0.418   1.564   1.918
   866TXY    C1 1966   0.440   1.731   2.054
   866TXY    H1 1967   0.417   1.752   2.159
   866TXY    H2 1968   0.547   1.743   2.042
   866TXY    C2 1969   0.365   1.833   1.967
   866TXY    H3 1970   0.280   1.787   1.918
   866TXY    H4 1971   0.325   1.912   2.030
   866TXY    C4 1972   0.454   1.900   1.858
   866TXY    H7 1973   0.397   1.979   1.810
   866TXY    H8 1974   0.540   1.947   1.906
   866TXY    C6 1975   0.503   1.802   1.751
   866TXY   H11 1976   0.420   1.754   1.700
   866TXY   H12 1977   0.563   1.854   1.676
   866TXY   H13 1978   0.566   1.724   1.794
   876TXY   H16 1979   3.908   2.644   4.332
   876TXY    C7 1980   4.015   2.655   4.316
   876TXY   H14 1981   4.060   2.556   4.326
   876TXY   H15 1982   4.055   2.717   4.396
   876TXY    C5 1983   4.046   2.716   4.179
   876TXY    H9 1984   4.154   2.731   4.171
   876TXY   H10 1985   4.000   2.814   4.173
   876TXY    C3 1986   3.998   2.630   4.059
   876TXY    H5 1987   4.044   2.532   4.067
   876TXY    H6 1988   4.036   2.675   3.967
   876TXY    C1 1989   3.846   2.616   4.050
   876TXY    H1 1990   3.810   2.564   4.139
   876TXY    H2 1991   3.800   2.714   4.051
   876TXY    C2 1992   3.799   2.537   3.926
   876TXY    H3 1993   3.884   2.487   3.879
   876TXY    H4 1994   3.731   2.458   3.957
   876TXY    C4 1995   3.728   2.624   3.820
   876TXY    H7 1996   3.687   2.559   3.742
   876TXY    H8 1997   3.643   2.675   3.866
   876TXY    C6 1998   3.818   2.729   3.754
   876TXY   H11 1999   3.905   2.682   3.707
   876TXY   H12 2000   3.765   2.785   3.678
   876TXY   H13 2001   3.856   2.801   3.827
   886TXY   H16 2002   2.465   2.598   4.912
   886TXY    C7 2003   2.369   2.619   4.864
   886TXY   H14 2004   2.379   2.592   4.758
   886TXY   H15 2005   2.353   2.726   4.869
   886TXY    C5 2006   2.254   2.542   4.929
   886TXY    H9 2007   2.161   2.571   4.881
   886TXY   H10 2008   2.247   2.571   0.034
   886TXY    C3 2009   2.269   2.388   4.920
   886TXY    H5 2010   2.282   2.361   4.815
   886TXY    H6 2011   2.176   2.343   4.953
   886TXY    C1 2012   2.387   2.333   0.002
   886TXY    H1 2013   2.480   2.374   4.964
   886TXY    H2 2014   2.378   2.366   0.106
   886TXY    C2 2015   2.397   2.179   4.998
   886TXY    H3 2016   2.338   2.140   4.915
   886TXY    H4 2017   2.500   2.150   4.978
   886TXY    C4 2018   2.351   2.109   0.128
   886TXY    H7 2019   2.371   2.002   0.120
   886TXY    H8 2020   2.411   2.146   0.212
   886TXY    C6 2021   2.202   2.130   0.160
   886TXY   H11 2022   2.140   2.093   0.079
   886TXY   H12 2023   2.174   2.076   0.250
   886TXY   H13 2024   2.179   2.235   0.175
   896TXY   H16 2025   1.732   0.617   2.090
   896TXY    C7 2026   1.706   0.721   2.112
   896TXY   H14 2027   1.779   0.759   2.184
   896TXY   H15 2028   1.609   0.720   2.161
   896TXY    C5 2029   1.703   0.806   1.985
   896TXY    H9 2030   1.669   0.907   2.011
   896TXY   H10 2031   1.630   0.765   1.916
   896TXY    C3 2032   1.840   0.818   1.914
   896TXY    H5 2033   1.913   0.858   1.985
   896TXY    H6 2034   1.831   0.891   1.834
   896TXY    C1 2035   1.892   0.685   1.856
   896TXY    H1 2036   1.906   0.614   1.938
   896TXY    H2 2037   1.816   0.643   1.790
   896TXY    C2 2038   2.025   0.699   1.781
   896TXY    H3 2039   2.068   0.798   1.798
   896TXY    H4 2040   2.097   0.628   1.821
   896TXY    C4 2041   2.014   0.676   1.628
   896TXY    H7 2042   2.114   0.675   1.585
   896TXY    H8 2043   1.970   0.578   1.609
   896TXY    C6 2044   1.931   0.783   1.556
   896TXY   H11 2045   1.973   0.882   1.571
   896TXY   H12 2046   1.928   0.764   1.449
   896TXY   H13 2047   1.828   0.784   1.592
   906TXY   H16 2048   4.892   3.785   4.941
   906TXY    C7 2049   4.973   3.713   4.931
   906TXY   H14 2050   0.001   3.708   4.826
   906TXY   H15 2051   4.935   3.616   4.960
   906TXY    C5 2052   0.093   3.753   0.018
   906TXY    H9 2053   0.168   3.674   0.013
   906TXY   H10 2054   0.061   3.758   0.122
   906TXY    C3 2055   0.159   3.887   4.978
   906TXY    H5 2056   0.190   3.880   4.873
   906TXY    H6 2057   0.250   3.900   0.036
   906TXY    C1 2058   0.068   4.009   4.997
   906TXY    H1 2059   4.979   3.997   4.934
   906TXY    H2 2060   0.032   4.011   0.100
   906TXY    C2 2061   0.136   4.142   4.961
   906TXY    H3 2062   0.227   4.124   4.904
   906TXY    H4 2063   0.070   4.200   4.897
   906TXY    C4 2064   0.171   4.230   0.084
   906TXY    H7 2065   0.204   4.328   0.049
   906TXY    H8 2066   0.081   4.246   0.144
   906TXY    C6 2067   0.280   4.170   0.173
   906TXY   H11 2068   0.372   4.153   0.117
   906TXY   H12 2069   0.304   4.236   0.256
   906TXY   H13 2070   0.249   4.074   0.215
   916TXY   H16 2071   4.076   1.535   4.717
   916TXY    C7 2072   4.045   1.452   4.780
   916TXY   H14 2073   3.978   1.492   4.856
   916TXY   H15 2074   4.133   1.414   4.831
   916TXY    C5 2075   3.976   1.342   4.698
   916TXY    H9 2076   3.949   1.260   4.765
   916TXY   H10 2077   4.048   1.302   4.626
   916TXY    C3 2078   3.850   1.389   4.622
   916TXY    H5 2079   3.781   1.435   4.694
   916TXY    H6 2080   3.799   1.301   4.582
   916TXY    C1 2081   3.878   1.488   4.507
   916TXY    H1 2082   3.920   1.580   4.549
   916TXY    H2 2083   3.954   1.446   4.442
   916TXY    C2 2084   3.752   1.523   4.427
   916TXY    H3 2085   3.662   1.499   4.483
   916TXY    H4 2086   3.749   1.631   4.410
   916TXY    C4 2087   3.743   1.454   4.288
   916TXY    H7 2088   3.650   1.485   4.240
   916TXY    H8 2089   3.824   1.490   4.225
   916TXY    C6 2090   3.748   1.301   4.293
   916TXY   H11 2091   3.672   1.261   4.361
   916TXY   H12 2092   3.730   1.258   4.195
   916TXY   H13 2093   3.845   1.266   4.328
   926TXY   H16 2094   4.871   3.472   2.499
   926TXY    C7 2095   4.800   3.478   2.416
   926TXY   H14 2096   4.752   3.575   2.421
   926TXY   H15 2097   4.724   3.402   2.433
   926TXY    C5 2098   4.869   3.457   2.281
   926TXY    H9 2099   4.794   3.455   2.203
   926TXY   H10 2100   4.918   3.359   2.281
   926TXY    C3 2101   4.975   3.565   2.247
   926TXY    H5 2102   4.927   3.663   2.253
   926TXY    H6 2103   0.006   3.551   2.144
   926TXY    C1 2104   0.098   3.562   2.340
   926TXY    H1 2105   0.065   3.577   2.443
   926TXY    H2 2106   0.144   3.463   2.335
   926TXY    C2 2107   0.202   3.670   2.305
   926TXY    H3 2108   0.158   3.745   2.239
   926TXY    H4 2109   0.231   3.722   2.396
   926TXY    C4 2110   0.331   3.615   2.238
   926TXY    H7 2111   0.404   3.695   2.231
   926TXY    H8 2112   0.374   3.538   2.302
   926TXY    C6 2113   0.307   3.557   2.099
   926TXY   H11 2114   0.266   3.632   2.031
   926TXY   H12 2115   0.400   3.520   2.055
   926TXY   H13 2116   0.237   3.473   2.102
   936TXY   H16 2117   3.282   0.507   4.427
   936TXY    C7 2118   3.385   0.542   4.417
   936TXY   H14 2119   3.381   0.648   4.392
   936TXY   H15 2120   3.429   0.490   4.332
   936TXY    C5 2121   3.465   0.518   4.545
   936TXY    H9 2122   3.569   0.548   4.527
   936TXY   H10 2123   3.467   0.411   4.566
   936TXY    C3 2124   3.411   0.594   4.668
   936TXY    H5 2125   3.406   0.700   4.644
   936TXY    H6 2126   3.483   0.584   4.749
   936TXY    C1 2127   3.273   0.545   4.715
   936TXY    H1 2128   3.201   0.560   4.635
   936TXY    H2 2129   3.278   0.438   4.734
   936TXY    C2 2130   3.223   0.619   4.840
   936TXY    H3 2131   3.279   0.711   4.856
   936TXY    H4 2132   3.119   0.649   4.824
   936TXY    C4 2133   3.228   0.535   4.970
   936TXY    H7 2134   3.180   0.591   0.051
   936TXY    H8 2135   3.169   0.444   4.956
   936TXY    C6 2136   3.370   0.497   0.014
   936TXY   H11 2137   3.431   0.585   0.030
   936TXY   H12 2138   3.368   0.440   0.107
   936TXY   H13 2139   3.419   0.435   4.939
   946TXY   H16 2140   4.293   0.424   4.502
   946TXY    C7 2141   4.210   0.409   4.432
   946TXY   H14 2142   4.212   0.491   4.361
   946TXY   H15 2143   4.117   0.418   4.489
   946TXY    C5 2144   4.219   0.274   4.362
   946TXY    H9 2145   4.132   0.261   4.298
   946TXY   H10 2146   4.215   0.194   4.436
   946TXY    C3 2147   4.347   0.257   4.276
   946TXY    H5 2148   4.354   0.341   4.208
   946TXY    H6 2149   4.335   0.168   4.214
   946TXY    C1 2150   4.476   0.246   4.359
   946TXY    H1 2151   4.487   0.336   4.420
   946TXY    H2 2152   4.466   0.162   4.429
   946TXY    C2 2153   4.602   0.229   4.273
   946TXY    H3 2154   4.582   0.256   4.170
   946TXY    H4 2155   4.678   0.298   4.309
   946TXY    C4 2156   4.663   0.086   4.276
   946TXY    H7 2157   4.758   0.087   4.224
   946TXY    H8 2158   4.683   0.058   4.380
   946TXY    C6 2159   4.573   4.980   4.212
   946TXY   H11 2160   4.551   0.004   4.108
   946TXY   H12 2161   4.620   4.882   4.213
   946TXY   H13 2162   4.478   4.971   4.265
   956TXY   H16 2163   4.833   2.697   3.249
   956TXY    C7 2164   4.769   2.640   3.317
   956TXY   H14 2165   4.808   2.538   3.321
   956TXY   H15 2166   4.670   2.636   3.273
   956TXY    C5 2167   4.765   2.703   3.457
   956TXY    H9 2168   4.692   2.649   3.517
   956TXY   H10 2169   4.729   2.805   3.448
   956TXY    C3 2170   4.901   2.703   3.530
   956TXY    H5 2171   4.936   2.600   3.538
   956TXY    H6 2172   4.886   2.739   3.632
   956TXY    C1 2173   0.009   2.789   3.461
   956TXY    H1 2174   0.029   2.748   3.362
   956TXY    H2 2175   4.970   2.890   3.447
   956TXY    C2 2176   0.142   2.793   3.539
   956TXY    H3 2177   0.141   2.720   3.620
   956TXY    H4 2178   0.223   2.765   3.472
   956TXY    C4 2179   0.175   2.932   3.599
   956TXY    H7 2180   0.276   2.929   3.641
   956TXY    H8 2181   0.176   3.006   3.519
   956TXY    C6 2182   0.077   2.977   3.708
   956TXY   H11 2183   0.076   2.906   3.791
   956TXY   H12 2184   0.106   3.074   3.748
   956TXY   H13 2185   4.976   2.986   3.669
   966TXY   H16 2186   1.134   1.571   1.873
   966TXY    C7 2187   1.040   1.620   1.849
   966TXY   H14 2188   1.032   1.708   1.913
   966TXY   H15 2189   0.960   1.553   1.877
   966TXY    C5 2190   1.032   1.658   1.701
   966TXY    H9 2191   0.935   1.701   1.681
   966TXY   H10 2192   1.040   1.567   1.641
   966TXY    C3 2193   1.142   1.758   1.656
   966TXY    H5 2194   1.138   1.845   1.722
   966TXY    H6 2195   1.118   1.793   1.556
   966TXY    C1 2196   1.284   1.699   1.658
   966TXY    H1 2197   1.307   1.666   1.759
   966TXY    H2 2198   1.286   1.610   1.595
   966TXY    C2 2199   1.392   1.798   1.613
   966TXY    H3 2200   1.354   1.900   1.617
   966TXY    H4 2201   1.476   1.794   1.682
   966TXY    C4 2202   1.447   1.773   1.470
   966TXY    H7 2203   1.534   1.836   1.454
   966TXY    H8 2204   1.481   1.669   1.463
   966TXY    C6 2205   1.345   1.798   1.359
   966TXY   H11 2206   1.309   1.901   1.362
   966TXY   H12 2207   1.389   1.782   1.261
   966TXY   H13 2208   1.259   1.732   1.368
   976TXY   H16 2209   0.856   4.842   0.274
   976TXY    C7 2210   0.889   4.739   0.256
   976TXY   H14 2211   0.800   4.680   0.234
   976TXY   H15 2212   0.931   4.702   0.350
   976TXY    C5 2213   0.992   4.731   0.143
   976TXY    H9 2214   1.027   4.628   0.134
   976TXY   H10 2215   1.078   4.792   0.169
   976TXY    C3 2216   0.936   4.777   0.006
   976TXY    H5 2217   0.848   4.718   4.983
   976TXY    H6 2218   1.010   4.753   4.929
   976TXY    C1 2219   0.902   4.927   4.999
   976TXY    H1 2220   0.828   4.950   0.076
   976TXY    H2 2221   0.992   4.985   0.023
   976TXY    C2 2222   0.846   4.970   4.863
   976TXY    H3 2223   0.812   4.884   4.806
   976TXY    H4 2224   0.759   0.033   4.879
   976TXY    C4 2225   0.947   0.050   4.775
   976TXY    H7 2226   0.895   0.088   4.688
   976TXY    H8 2227   0.983   0.136   4.832
   976TXY    C6 2228   1.067   4.966   4.729
   976TXY   H11 2229   1.035   4.879   4.671
   976TXY   H12 2230   1.133   0.025   4.665
   976TXY   H13 2231   1.126   4.930   4.813
   986TXY   H16 2232   0.827   0.957   2.195
   986TXY    C7 2233   0.847   0.998   2.294
   986TXY   H14 2234   0.770   1.071   2.317
   986TXY   H15 2235   0.942   1.051   2.289
   986TXY    C5 2236   0.852   0.887   2.401
   986TXY    H9 2237   0.881   0.932   2.496
   986TXY   H10 2238   0.930   0.816   2.374
   986TXY    C3 2239   0.718   0.812   2.419
   986TXY    H5 2240   0.641   0.885   2.445
   986TXY    H6 2241   0.728   0.745   2.505
   986TXY    C1 2242   0.674   0.732   2.295
   986TXY    H1 2243   0.657   0.801   2.213
   986TXY    H2 2244   0.756   0.667   2.264
   986TXY    C2 2245   0.546   0.650   2.318
   986TXY    H3 2246   0.499   0.678   2.412
   986TXY    H4 2247   0.475   0.672   2.239
   986TXY    C4 2248   0.570   0.496   2.320
   986TXY    H7 2249   0.473   0.446   2.325
   986TXY    H8 2250   0.617   0.466   2.227
   986TXY    C6 2251   0.656   0.449   2.437
   986TXY   H11 2252   0.611   0.476   2.533
   986TXY   H12 2253   0.668   0.340   2.436
   986TXY   H13 2254   0.756   0.493   2.434
   996TXY   H16 2255   0.517   4.074   1.227
   996TXY    C7 2256   0.581   3.990   1.198
   996TXY   H14 2257   0.684   4.024   1.201
   996TXY   H15 2258   0.557   3.966   1.094
   996TXY    C5 2259   0.559   3.869   1.289
   996TXY    H9 2260   0.619   3.787   1.252
   996TXY   H10 2261   0.455   3.838   1.282
   996TXY    C3 2262   0.595   3.896   1.437
   996TXY    H5 2263   0.698   3.932   1.442
   996TXY    H6 2264   0.593   3.801   1.490
   996TXY    C1 2265   0.501   3.996   1.506
   996TXY    H1 2266   0.508   4.092   1.455
   996TXY    H2 2267   0.398   3.962   1.496
   996TXY    C2 2268   0.535   4.017   1.655
   996TXY    H3 2269   0.635   3.980   1.677
   996TXY    H4 2270   0.537   4.124   1.677
   996TXY    C4 2271   0.436   3.950   1.753
   996TXY    H7 2272   0.460   3.981   1.855
   996TXY    H8 2273   0.335   3.985   1.732
   996TXY    C6 2274   0.438   3.797   1.747
   996TXY   H11 2275   0.537   3.757   1.768
   996TXY   H12 2276   0.369   3.754   1.820
   996TXY   H13 2277   0.408   3.760   1.648
  1006TXY   H16 2278   4.418   4.680   3.090
  1006TXY    C7 2279   4.470   4.769   3.124
  1006TXY   H14 2280   4.558   4.782   3.062
  1006TXY   H15 2281   4.504   4.749   3.226
  1006TXY    C5 2282   4.379   4.892   3.120
  1006TXY    H9 2283   4.434   4.977   3.162
  1006TXY   H10 2284   4.293   4.875   3.185
  1006TXY    C3 2285   4.330   4.929   2.978
  1006TXY    H5 2286   4.417   4.946   2.914
  1006TXY    H6 2287   4.278   0.025   2.984
  1006TXY    C1 2288   4.238   4.824   2.915
  1006TXY    H1 2289   4.295   4.731   2.901
  1006TXY    H2 2290   4.157   4.801   2.984
  1006TXY    C2 2291   4.181   4.866   2.778
  1006TXY    H3 2292   4.234   4.954   2.741
  1006TXY    H4 2293   4.199   4.787   2.705
  1006TXY    C4 2294   4.029   4.897   2.780
  1006TXY    H7 2295   3.995   4.912   2.678
  1006TXY    H8 2296   3.976   4.810   2.819
  1006TXY    C6 2297   3.993   0.020   2.864
  1006TXY   H11 2298   4.042   0.109   2.827
  1006TXY   H12 2299   3.885   0.038   2.861
  1006TXY   H13 2300   4.021   0.007   2.968
  1016TXY   H16 2301   2.976   2.234   2.361
  1016TXY    C7 2302   2.903   2.311   2.338
  1016TXY   H14 2303   2.836   2.272   2.262
  1016TXY   H15 2304   2.957   2.395   2.294
  1016TXY    C5 2305   2.826   2.355   2.463
  1016TXY    H9 2306   2.759   2.436   2.436
  1016TXY   H10 2307   2.896   2.395   2.536
  1016TXY    C3 2308   2.743   2.241   2.528
  1016TXY    H5 2309   2.677   2.199   2.452
  1016TXY    H6 2310   2.678   2.285   2.605
  1016TXY    C1 2311   2.828   2.130   2.590
  1016TXY    H1 2312   2.888   2.084   2.511
  1016TXY    H2 2313   2.898   2.174   2.661
  1016TXY    C2 2314   2.745   2.020   2.658
  1016TXY    H3 2315   2.640   2.029   2.631
  1016TXY    H4 2316   2.778   1.923   2.622
  1016TXY    C4 2317   2.755   2.019   2.813
  1016TXY    H7 2318   2.704   1.931   2.851
  1016TXY    H8 2319   2.860   2.011   2.842
  1016TXY    C6 2320   2.695   2.144   2.879
  1016TXY   H11 2321   2.590   2.155   2.854
  1016TXY   H12 2322   2.702   2.138   2.988
  1016TXY   H13 2323   2.747   2.235   2.848
  1026TXY   H16 2324   1.480   0.925   0.752
  1026TXY    C7 2325   1.456   0.840   0.816
  1026TXY   H14 2326   1.542   0.772   0.814
  1026TXY   H15 2327   1.372   0.787   0.771
  1026TXY    C5 2328   1.424   0.885   0.959
  1026TXY    H9 2329   1.394   0.797   1.017
  1026TXY   H10 2330   1.338   0.951   0.956
  1026TXY    C3 2331   1.541   0.956   1.031
  1026TXY    H5 2332   1.628   0.890   1.029
  1026TXY    H6 2333   1.514   0.969   1.136
  1026TXY    C1 2334   1.578   1.092   0.970
  1026TXY    H1 2335   1.609   1.077   0.866
  1026TXY    H2 2336   1.490   1.156   0.968
  1026TXY    C2 2337   1.693   1.162   1.044
  1026TXY    H3 2338   1.742   1.093   1.113
  1026TXY    H4 2339   1.769   1.192   0.972
  1026TXY    C4 2340   1.650   1.288   1.124
  1026TXY    H7 2341   1.739   1.338   1.163
  1026TXY    H8 2342   1.601   1.358   1.056
  1026TXY    C6 2343   1.556   1.257   1.240
  1026TXY   H11 2344   1.602   1.190   1.312
  1026TXY   H12 2345   1.528   1.348   1.293
  1026TXY   H13 2346   1.464   1.210   1.205
  1036TXY   H16 2347   3.836   1.832   4.718
  1036TXY    C7 2348   3.780   1.747   4.757
  1036TXY   H14 2349   3.852   1.669   4.783
  1036TXY   H15 2350   3.718   1.709   4.677
  1036TXY    C5 2351   3.695   1.787   4.878
  1036TXY    H9 2352   3.635   1.701   4.908
  1036TXY   H10 2353   3.627   1.866   4.849
  1036TXY    C3 2354   3.779   1.834   0.000
  1036TXY    H5 2355   3.848   1.755   0.028
  1036TXY    H6 2356   3.711   1.847   0.085
  1036TXY    C1 2357   3.856   1.965   4.976
  1036TXY    H1 2358   3.925   1.951   4.893
  1036TXY    H2 2359   3.786   2.043   4.948
  1036TXY    C2 2360   3.938   2.008   0.099
  1036TXY    H3 2361   3.937   1.930   0.176
  1036TXY    H4 2362   4.042   2.021   0.071
  1036TXY    C4 2363   3.889   2.140   0.165
  1036TXY    H7 2364   3.961   2.171   0.240
  1036TXY    H8 2365   3.886   2.219   0.089
  1036TXY    C6 2366   3.751   2.127   0.230
  1036TXY   H11 2367   3.751   2.052   0.309
  1036TXY   H12 2368   3.720   2.222   0.275
  1036TXY   H13 2369   3.675   2.099   0.157
  1046TXY   H16 2370   1.116   2.797   3.176
  1046TXY    C7 2371   1.162   2.861   3.101
  1046TXY   H14 2372   1.258   2.894   3.139
  1046TXY   H15 2373   1.099   2.949   3.091
  1046TXY    C5 2374   1.177   2.789   2.966
  1046TXY    H9 2375   1.216   2.860   2.893
  1046TXY   H10 2376   1.079   2.758   2.931
  1046TXY    C3 2377   1.271   2.666   2.972
  1046TXY    H5 2378   1.368   2.698   3.011
  1046TXY    H6 2379   1.288   2.632   2.871
  1046TXY    C1 2380   1.217   2.551   3.057
  1046TXY    H1 2381   1.197   2.586   3.158
  1046TXY    H2 2382   1.121   2.518   3.016
  1046TXY    C2 2383   1.314   2.431   3.065
  1046TXY    H3 2384   1.413   2.461   3.033
  1046TXY    H4 2385   1.323   2.400   3.169
  1046TXY    C4 2386   1.270   2.308   2.981
  1046TXY    H7 2387   1.336   2.225   3.003
  1046TXY    H8 2388   1.170   2.278   3.012
  1046TXY    C6 2389   1.271   2.334   2.830
  1046TXY   H11 2390   1.370   2.363   2.795
  1046TXY   H12 2391   1.242   2.244   2.775
  1046TXY   H13 2392   1.201   2.413   2.802
  1056TXY   H16 2393   4.546   3.615   4.561
  1056TXY    C7 2394   4.629   3.549   4.586
  1056TXY   H14 2395   4.714   3.612   4.614
  1056TXY   H15 2396   4.657   3.496   4.495
  1056TXY    C5 2397   4.593   3.451   4.697
  1056TXY    H9 2398   4.676   3.383   4.713
  1056TXY   H10 2399   4.508   3.390   4.665
  1056TXY    C3 2400   4.558   3.520   4.832
  1056TXY    H5 2401   4.642   3.582   4.862
  1056TXY    H6 2402   4.548   3.442   4.908
  1056TXY    C1 2403   4.429   3.604   4.828
  1056TXY    H1 2404   4.442   3.684   4.755
  1056TXY    H2 2405   4.347   3.542   4.793
  1056TXY    C2 2406   4.395   3.667   4.964
  1056TXY    H3 2407   4.480   3.660   0.032
  1056TXY    H4 2408   4.375   3.773   4.950
  1056TXY    C4 2409   4.272   3.604   0.034
  1056TXY    H7 2410   4.249   3.662   0.123
  1056TXY    H8 2411   4.185   3.611   4.968
  1056TXY    C6 2412   4.292   3.457   0.074
  1056TXY   H11 2413   4.377   3.446   0.141
  1056TXY   H12 2414   4.204   3.418   0.125
  1056TXY   H13 2415   4.311   3.394   4.987
  1066TXY   H16 2416   1.528   0.998   2.795
  1066TXY    C7 2417   1.458   0.935   2.740
  1066TXY   H14 2418   1.360   0.943   2.789
  1066TXY   H15 2419   1.491   0.832   2.752
  1066TXY    C5 2420   1.450   0.974   2.593
  1066TXY    H9 2421   1.384   0.904   2.541
  1066TXY   H10 2422   1.549   0.964   2.548
  1066TXY    C3 2423   1.398   1.118   2.569
  1066TXY    H5 2424   1.302   1.130   2.621
  1066TXY    H6 2425   1.378   1.131   2.463
  1066TXY    C1 2426   1.495   1.228   2.616
  1066TXY    H1 2427   1.515   1.214   2.723
  1066TXY    H2 2428   1.591   1.215   2.565
  1066TXY    C2 2429   1.442   1.370   2.594
  1066TXY    H3 2430   1.335   1.368   2.571
  1066TXY    H4 2431   1.451   1.426   2.688
  1066TXY    C4 2432   1.515   1.450   2.484
  1066TXY    H7 2433   1.479   1.553   2.485
  1066TXY    H8 2434   1.621   1.453   2.506
  1066TXY    C6 2435   1.495   1.392   2.343
  1066TXY   H11 2436   1.389   1.389   2.316
  1066TXY   H12 2437   1.545   1.453   2.268
  1066TXY   H13 2438   1.534   1.291   2.335
  1076TXY   H16 2439   3.701   1.708   3.820
  1076TXY    C7 2440   3.760   1.770   3.753
  1076TXY   H14 2441   3.725   1.873   3.763
  1076TXY   H15 2442   3.738   1.738   3.651
  1076TXY    C5 2443   3.910   1.759   3.783
  1076TXY    H9 2444   3.965   1.814   3.707
  1076TXY   H10 2445   3.940   1.654   3.774
  1076TXY    C3 2446   3.949   1.812   3.923
  1076TXY    H5 2447   3.913   1.915   3.932
  1076TXY    H6 2448   4.058   1.817   3.928
  1076TXY    C1 2449   3.895   1.728   4.039
  1076TXY    H1 2450   3.786   1.726   4.034
  1076TXY    H2 2451   3.929   1.625   4.028
  1076TXY    C2 2452   3.937   1.783   4.177
  1076TXY    H3 2453   3.969   1.886   4.169
  1076TXY    H4 2454   3.850   1.782   4.243
  1076TXY    C4 2455   4.050   1.702   4.246
  1076TXY    H7 2456   4.064   1.742   4.347
  1076TXY    H8 2457   4.019   1.598   4.257
  1076TXY    C6 2458   4.184   1.707   4.171
  1076TXY   H11 2459   4.218   1.810   4.159
  1076TXY   H12 2460   4.261   1.653   4.226
  1076TXY   H13 2461   4.175   1.662   4.072
  1086TXY   H16 2462   1.348   1.936   1.041
  1086TXY    C7 2463   1.384   2.036   1.017
  1086TXY   H14 2464   1.458   2.027   0.938
  1086TXY   H15 2465   1.435   2.074   1.106
  1086TXY    C5 2466   1.270   2.129   0.976
  1086TXY    H9 2467   1.309   2.229   0.960
  1086TXY   H10 2468   1.198   2.136   1.057
  1086TXY    C3 2469   1.196   2.084   0.847
  1086TXY    H5 2470   1.270   2.066   0.769
  1086TXY    H6 2471   1.133   2.166   0.813
  1086TXY    C1 2472   1.111   1.957   0.867
  1086TXY    H1 2473   1.175   1.876   0.901
  1086TXY    H2 2474   1.039   1.975   0.946
  1086TXY    C2 2475   1.038   1.912   0.739
  1086TXY    H3 2476   1.085   1.955   0.651
  1086TXY    H4 2477   1.049   1.804   0.729
  1086TXY    C4 2478   0.887   1.945   0.737
  1086TXY    H7 2479   0.841   1.896   0.651
  1086TXY    H8 2480   0.839   1.903   0.826
  1086TXY    C6 2481   0.857   2.095   0.730
  1086TXY   H11 2482   0.902   2.141   0.642
  1086TXY   H12 2483   0.749   2.113   0.725
  1086TXY   H13 2484   0.895   2.148   0.818
  1096TXY   H16 2485   1.584   0.362   3.324
  1096TXY    C7 2486   1.492   0.303   3.324
  1096TXY   H14 2487   1.409   0.371   3.302
  1096TXY   H15 2488   1.477   0.265   3.425
  1096TXY    C5 2489   1.498   0.188   3.223
  1096TXY    H9 2490   1.408   0.128   3.233
  1096TXY   H10 2491   1.583   0.124   3.248
  1096TXY    C3 2492   1.512   0.235   3.076
  1096TXY    H5 2493   1.429   0.302   3.053
  1096TXY    H6 2494   1.502   0.148   3.011
  1096TXY    C1 2495   1.645   0.306   3.046
  1096TXY    H1 2496   1.651   0.397   3.105
  1096TXY    H2 2497   1.728   0.242   3.079
  1096TXY    C2 2498   1.662   0.343   2.898
  1096TXY    H3 2499   1.567   0.335   2.845
  1096TXY    H4 2500   1.693   0.447   2.890
  1096TXY    C4 2501   1.768   0.257   2.822
  1096TXY    H7 2502   1.780   0.298   2.722
  1096TXY    H8 2503   1.864   0.266   2.873
  1096TXY    C6 2504   1.730   0.109   2.811
  1096TXY   H11 2505   1.636   0.096   2.758
  1096TXY   H12 2506   1.806   0.053   2.757
  1096TXY   H13 2507   1.719   0.063   2.909
  1106TXY   H16 2508   2.879   1.972   0.222
  1106TXY    C7 2509   2.801   1.932   0.287
  1106TXY   H14 2510   2.837   1.838   0.329
  1106TXY   H15 2511   2.715   1.908   0.224
  1106TXY    C5 2512   2.762   2.031   0.397
  1106TXY    H9 2513   2.679   1.989   0.454
  1106TXY   H10 2514   2.726   2.123   0.351
  1106TXY    C3 2515   2.878   2.065   0.494
  1106TXY    H5 2516   2.916   1.972   0.537
  1106TXY    H6 2517   2.837   2.123   0.577
  1106TXY    C1 2518   2.993   2.143   0.429
  1106TXY    H1 2519   3.039   2.080   0.352
  1106TXY    H2 2520   2.954   2.231   0.379
  1106TXY    C2 2521   3.103   2.184   0.529
  1106TXY    H3 2522   3.089   2.132   0.624
  1106TXY    H4 2523   3.200   2.151   0.491
  1106TXY    C4 2524   3.110   2.336   0.557
  1106TXY    H7 2525   3.197   2.356   0.620
  1106TXY    H8 2526   3.127   2.389   0.462
  1106TXY    C6 2527   2.985   2.392   0.624
  1106TXY   H11 2528   2.966   2.343   0.720
  1106TXY   H12 2529   2.995   2.499   0.644
  1106TXY   H13 2530   2.897   2.379   0.562
  1116TXY   H16 2531   3.860   3.310   4.697
  1116TXY    C7 2532   3.754   3.331   4.710
  1116TXY   H14 2533   3.738   3.437   4.686
  1116TXY   H15 2534   3.730   3.317   4.815
  1116TXY    C5 2535   3.667   3.241   4.621
  1116TXY    H9 2536   3.562   3.261   4.643
  1116TXY   H10 2537   3.686   3.137   4.648
  1116TXY    C3 2538   3.692   3.259   4.470
  1116TXY    H5 2539   3.677   3.364   4.444
  1116TXY    H6 2540   3.616   3.203   4.415
  1116TXY    C1 2541   3.832   3.215   4.424
  1116TXY    H1 2542   3.907   3.276   4.474
  1116TXY    H2 2543   3.849   3.112   4.455
  1116TXY    C2 2544   3.852   3.229   4.272
  1116TXY    H3 2545   3.771   3.285   4.227
  1116TXY    H4 2546   3.943   3.286   4.253
  1116TXY    C4 2547   3.865   3.093   4.197
  1116TXY    H7 2548   3.891   3.112   4.093
  1116TXY    H8 2549   3.946   3.035   4.241
  1116TXY    C6 2550   3.736   3.010   4.201
  1116TXY   H11 2551   3.652   3.064   4.157
  1116TXY   H12 2552   3.748   2.917   4.145
  1116TXY   H13 2553   3.708   2.983   4.303
  1126TXY   H16 2554   1.120   3.365   3.522
  1126TXY    C7 2555   1.162   3.460   3.489
  1126TXY   H14 2556   1.103   3.540   3.534
  1126TXY   H15 2557   1.149   3.466   3.381
  1126TXY    C5 2558   1.310   3.473   3.527
  1126TXY    H9 2559   1.349   3.566   3.485
  1126TXY   H10 2560   1.365   3.392   3.480
  1126TXY    C3 2561   1.336   3.472   3.679
  1126TXY    H5 2562   1.274   3.549   3.726
  1126TXY    H6 2563   1.440   3.500   3.697
  1126TXY    C1 2564   1.308   3.336   3.746
  1126TXY    H1 2565   1.203   3.309   3.729
  1126TXY    H2 2566   1.368   3.259   3.697
  1126TXY    C2 2567   1.334   3.336   3.897
  1126TXY    H3 2568   1.343   3.438   3.935
  1126TXY    H4 2569   1.249   3.291   3.949
  1126TXY    C4 2570   1.461   3.257   3.940
  1126TXY    H7 2571   1.464   3.251   4.048
  1126TXY    H8 2572   1.455   3.155   3.902
  1126TXY    C6 2573   1.592   3.321   3.891
  1126TXY   H11 2574   1.602   3.423   3.926
  1126TXY   H12 2575   1.678   3.265   3.927
  1126TXY   H13 2576   1.597   3.322   3.782
  1136TXY   H16 2577   2.758   3.313   1.657
  1136TXY    C7 2578   2.859   3.276   1.676
  1136TXY   H14 2579   2.857   3.167   1.668
  1136TXY   H15 2580   2.885   3.302   1.779
  1136TXY    C5 2581   2.960   3.337   1.578
  1136TXY    H9 2582   3.060   3.303   1.605
  1136TXY   H10 2583   2.960   3.445   1.589
  1136TXY    C3 2584   2.933   3.300   1.430
  1136TXY    H5 2585   2.928   3.192   1.421
  1136TXY    H6 2586   3.019   3.332   1.370
  1136TXY    C1 2587   2.805   3.363   1.373
  1136TXY    H1 2588   2.719   3.328   1.431
  1136TXY    H2 2589   2.809   3.471   1.386
  1136TXY    C2 2590   2.781   3.328   1.225
  1136TXY    H3 2591   2.848   3.248   1.193
  1136TXY    H4 2592   2.680   3.290   1.213
  1136TXY    C4 2593   2.798   3.448   1.129
  1136TXY    H7 2594   2.768   3.417   1.028
  1136TXY    H8 2595   2.730   3.528   1.158
  1136TXY    C6 2596   2.941   3.503   1.123
  1136TXY   H11 2597   3.011   3.425   1.094
  1136TXY   H12 2598   2.949   3.584   1.051
  1136TXY   H13 2599   2.973   3.541   1.220
  1146TXY   H16 2600   0.399   0.667   1.598
  1146TXY    C7 2601   0.329   0.746   1.627
  1146TXY   H14 2602   0.267   0.769   1.541
  1146TXY   H15 2603   0.387   0.835   1.650
  1146TXY    C5 2604   0.244   0.704   1.748
  1146TXY    H9 2605   0.182   0.788   1.778
  1146TXY   H10 2606   0.310   0.682   1.832
  1146TXY    C3 2607   0.153   0.581   1.722
  1146TXY    H5 2608   0.086   0.605   1.638
  1146TXY    H6 2609   0.089   0.567   1.809
  1146TXY    C1 2610   0.230   0.452   1.692
  1146TXY    H1 2611   0.287   0.465   1.600
  1146TXY    H2 2612   0.302   0.433   1.771
  1146TXY    C2 2613   0.138   0.329   1.674
  1146TXY    H3 2614   0.033   0.360   1.673
  1146TXY    H4 2615   0.157   0.283   1.577
  1146TXY    C4 2616   0.155   0.221   1.784
  1146TXY    H7 2617   0.095   0.134   1.757
  1146TXY    H8 2618   0.259   0.189   1.786
  1146TXY    C6 2619   0.114   0.268   1.924
  1146TXY   H11 2620   0.009   0.299   1.925
  1146TXY   H12 2621   0.125   0.188   1.997
  1146TXY   H13 2622   0.174   0.352   1.957
  1156TXY   H16 2623   3.092   4.967   1.688
  1156TXY    C7 2624   2.991   0.006   1.677
  1156TXY   H14 2625   2.988   0.107   1.718
  1156TXY   H15 2626   2.925   4.944   1.738
  1156TXY    C5 2627   2.945   0.004   1.530
  1156TXY    H9 2628   2.841   0.036   1.526
  1156TXY   H10 2629   2.949   4.902   1.493
  1156TXY    C3 2630   3.030   0.095   1.438
  1156TXY    H5 2631   3.027   0.197   1.476
  1156TXY    H6 2632   2.982   0.098   1.340
  1156TXY    C1 2633   3.176   0.050   1.423
  1156TXY    H1 2634   3.224   0.054   1.520
  1156TXY    H2 2635   3.178   4.945   1.391
  1156TXY    C2 2636   3.257   0.136   1.324
  1156TXY    H3 2637   3.202   0.226   1.298
  1156TXY    H4 2638   3.349   0.169   1.373
  1156TXY    C4 2639   3.297   0.063   1.194
  1156TXY    H7 2640   3.366   0.125   1.138
  1156TXY    H8 2641   3.350   4.971   1.218
  1156TXY    C6 2642   3.177   0.028   1.104
  1156TXY   H11 2643   3.123   0.118   1.074
  1156TXY   H12 2644   3.209   4.978   1.013
  1156TXY   H13 2645   3.107   4.963   1.155
  1166TXY   H16 2646   4.568   2.783   3.944
  1166TXY    C7 2647   4.484   2.800   4.012
  1166TXY   H14 2648   4.522   2.854   4.099
  1166TXY   H15 2649   4.449   2.703   4.045
  1166TXY    C5 2650   4.372   2.878   3.943
  1166TXY    H9 2651   4.287   2.885   4.011
  1166TXY   H10 2652   4.338   2.822   3.856
  1166TXY    C3 2653   4.413   3.021   3.899
  1166TXY    H5 2654   4.451   3.075   3.986
  1166TXY    H6 2655   4.323   3.074   3.866
  1166TXY    C1 2656   4.518   3.023   3.787
  1166TXY    H1 2657   4.609   2.976   3.823
  1166TXY    H2 2658   4.483   2.964   3.703
  1166TXY    C2 2659   4.553   3.166   3.740
  1166TXY    H3 2660   4.519   3.240   3.812
  1166TXY    H4 2661   4.662   3.176   3.735
  1166TXY    C4 2662   4.496   3.203   3.601
  1166TXY    H7 2663   4.537   3.299   3.570
  1166TXY    H8 2664   4.528   3.129   3.527
  1166TXY    C6 2665   4.343   3.212   3.598
  1166TXY   H11 2666   4.307   3.287   3.668
  1166TXY   H12 2667   4.307   3.240   3.499
  1166TXY   H13 2668   4.297   3.117   3.624
  1176TXY   H16 2669   1.146   0.583   1.246
  1176TXY    C7 2670   1.250   0.567   1.276
  1176TXY   H14 2671   1.251   0.548   1.383
  1176TXY   H15 2672   1.304   0.659   1.258
  1176TXY    C5 2673   1.313   0.451   1.198
  1176TXY    H9 2674   1.418   0.442   1.226
  1176TXY   H10 2675   1.310   0.474   1.091
  1176TXY    C3 2676   1.244   0.314   1.222
  1176TXY    H5 2677   1.245   0.292   1.328
  1176TXY    H6 2678   1.304   0.237   1.174
  1176TXY    C1 2679   1.100   0.308   1.169
  1176TXY    H1 2680   1.040   0.382   1.222
  1176TXY    H2 2681   1.098   0.335   1.064
  1176TXY    C2 2682   1.033   0.170   1.188
  1176TXY    H3 2683   1.086   0.114   1.265
  1176TXY    H4 2684   0.931   0.184   1.224
  1176TXY    C4 2685   1.027   0.084   1.060
  1176TXY    H7 2686   0.964   4.997   1.078
  1176TXY    H8 2687   0.981   0.141   0.980
  1176TXY    C6 2688   1.165   0.034   1.012
  1176TXY   H11 2689   1.214   4.976   1.089
  1176TXY   H12 2690   1.155   4.971   0.924
  1176TXY   H13 2691   1.230   0.118   0.986
  1186TXY   H16 2692   4.780   0.839   1.545
  1186TXY    C7 2693   4.827   0.915   1.608
  1186TXY   H14 2694   4.759   1.000   1.615
  1186TXY   H15 2695   4.917   0.948   1.557
  1186TXY    C5 2696   4.860   0.859   1.747
  1186TXY    H9 2697   4.913   0.936   1.804
  1186TXY   H10 2698   4.928   0.775   1.737
  1186TXY    C3 2699   4.735   0.815   1.827
  1186TXY    H5 2700   4.664   0.897   1.831
  1186TXY    H6 2701   4.765   0.796   1.930
  1186TXY    C1 2702   4.666   0.690   1.770
  1186TXY    H1 2703   4.636   0.710   1.667
  1186TXY    H2 2704   4.738   0.608   1.766
  1186TXY    C2 2705   4.542   0.648   1.851
  1186TXY    H3 2706   4.512   0.727   1.919
  1186TXY    H4 2707   4.458   0.633   1.783
  1186TXY    C4 2708   4.561   0.517   1.933
  1186TXY    H7 2709   4.465   0.489   1.976
  1186TXY    H8 2710   4.590   0.437   1.866
  1186TXY    C6 2711   4.665   0.530   2.045
  1186TXY   H11 2712   4.638   0.609   2.115
  1186TXY   H12 2713   4.672   0.437   2.102
  1186TXY   H13 2714   4.764   0.552   2.005
  1196TXY   H16 2715   1.163   2.071   0.233
  1196TXY    C7 2716   1.220   2.062   0.325
  1196TXY   H14 2717   1.320   2.100   0.308
  1196TXY   H15 2718   1.228   1.956   0.348
  1196TXY    C5 2719   1.151   2.137   0.440
  1196TXY    H9 2720   1.207   2.118   0.532
  1196TXY   H10 2721   1.051   2.096   0.455
  1196TXY    C3 2722   1.140   2.290   0.419
  1196TXY    H5 2723   1.241   2.330   0.407
  1196TXY    H6 2724   1.099   2.334   0.510
  1196TXY    C1 2725   1.053   2.330   0.299
  1196TXY    H1 2726   1.097   2.290   0.208
  1196TXY    H2 2727   0.955   2.285   0.310
  1196TXY    C2 2728   1.039   2.483   0.284
  1196TXY    H3 2729   1.112   2.534   0.347
  1196TXY    H4 2730   1.062   2.511   0.181
  1196TXY    C4 2731   0.898   2.537   0.319
  1196TXY    H7 2732   0.895   2.644   0.296
  1196TXY    H8 2733   0.824   2.489   0.255
  1196TXY    C6 2734   0.860   2.517   0.466
  1196TXY   H11 2735   0.931   2.565   0.533
  1196TXY   H12 2736   0.761   2.559   0.487
  1196TXY   H13 2737   0.856   2.411   0.492
  1206TXY   H16 2738   4.791   1.257   2.705
  1206TXY    C7 2739   4.781   1.298   2.805
  1206TXY   H14 2740   4.715   1.232   2.862
  1206TXY   H15 2741   4.731   1.394   2.796
  1206TXY    C5 2742   4.917   1.313   2.874
  1206TXY    H9 2743   4.903   1.361   2.971
  1206TXY   H10 2744   4.980   1.379   2.814
  1206TXY    C3 2745   4.990   1.178   2.896
  1206TXY    H5 2746   4.923   1.111   2.949
  1206TXY    H6 2747   0.075   1.196   2.961
  1206TXY    C1 2748   0.038   1.111   2.766
  1206TXY    H1 2749   4.953   1.100   2.699
  1206TXY    H2 2750   0.109   1.177   2.716
  1206TXY    C2 2751   0.101   0.973   2.788
  1206TXY    H3 2752   0.066   0.929   2.881
  1206TXY    H4 2753   0.069   0.906   2.709
  1206TXY    C4 2754   0.256   0.973   2.790
  1206TXY    H7 2755   0.291   0.869   2.793
  1206TXY    H8 2756   0.293   1.016   2.697
  1206TXY    C6 2757   0.317   1.049   2.908
  1206TXY   H11 2758   0.277   1.013   3.002
  1206TXY   H12 2759   0.425   1.037   2.911
  1206TXY   H13 2760   0.296   1.156   2.901
  1216TXY   H16 2761   0.810   0.703   3.583
  1216TXY    C7 2762   0.907   0.742   3.551
  1216TXY   H14 2763   0.949   0.672   3.479
  1216TXY   H15 2764   0.972   0.743   3.638
  1216TXY    C5 2765   0.894   0.882   3.490
  1216TXY    H9 2766   0.994   0.919   3.465
  1216TXY   H10 2767   0.853   0.950   3.565
  1216TXY    C3 2768   0.806   0.887   3.363
  1216TXY    H5 2769   0.846   0.817   3.289
  1216TXY    H6 2770   0.814   0.987   3.319
  1216TXY    C1 2771   0.658   0.854   3.389
  1216TXY    H1 2772   0.651   0.752   3.426
  1216TXY    H2 2773   0.620   0.920   3.468
  1216TXY    C2 2774   0.570   0.867   3.263
  1216TXY    H3 2775   0.632   0.882   3.175
  1216TXY    H4 2776   0.516   0.773   3.248
  1216TXY    C4 2777   0.466   0.981   3.271
  1216TXY    H7 2778   0.400   0.974   3.185
  1216TXY    H8 2779   0.405   0.968   3.360
  1216TXY    C6 2780   0.529   1.121   3.273
  1216TXY   H11 2781   0.591   1.138   3.185
  1216TXY   H12 2782   0.453   1.199   3.276
  1216TXY   H13 2783   0.593   1.134   3.361
  1226TXY   H16 2784   2.885   1.071   4.789
  1226TXY    C7 2785   2.949   1.033   4.710
  1226TXY   H14 2786   2.985   1.119   4.652
  1226TXY   H15 2787   2.887   0.973   4.643
  1226TXY    C5 2788   3.066   0.951   4.765
  1226TXY    H9 2789   3.123   0.909   4.682
  1226TXY   H10 2790   3.025   0.867   4.822
  1226TXY    C3 2791   3.161   1.032   4.856
  1226TXY    H5 2792   3.197   1.119   4.800
  1226TXY    H6 2793   3.248   0.971   4.878
  1226TXY    C1 2794   3.096   1.079   4.988
  1226TXY    H1 2795   3.015   1.148   4.965
  1226TXY    H2 2796   3.051   0.994   0.038
  1226TXY    C2 2797   3.196   1.150   0.082
  1226TXY    H3 2798   3.285   1.181   0.027
  1226TXY    H4 2799   3.150   1.241   0.120
  1226TXY    C4 2800   3.240   1.064   0.203
  1226TXY    H7 2801   3.303   1.125   0.268
  1226TXY    H8 2802   3.152   1.036   0.261
  1226TXY    C6 2803   3.317   0.937   0.164
  1226TXY   H11 2804   3.406   0.962   0.105
  1226TXY   H12 2805   3.350   0.883   0.252
  1226TXY   H13 2806   3.256   0.870   0.105
  1236TXY   H16 2807   3.181   3.243   3.325
  1236TXY    C7 2808   3.167   3.346   3.358
  1236TXY   H14 2809   3.061   3.371   3.344
  1236TXY   H15 2810   3.224   3.410   3.291
  1236TXY    C5 2811   3.210   3.365   3.504
  1236TXY    H9 2812   3.203   3.471   3.529
  1236TXY   H10 2813   3.314   3.337   3.514
  1236TXY    C3 2814   3.124   3.284   3.604
  1236TXY    H5 2815   3.019   3.311   3.590
  1236TXY    H6 2816   3.151   3.316   3.705
  1236TXY    C1 2817   3.141   3.132   3.591
  1236TXY    H1 2818   3.116   3.102   3.490
  1236TXY    H2 2819   3.246   3.106   3.606
  1236TXY    C2 2820   3.053   3.052   3.689
  1236TXY    H3 2821   2.970   3.113   3.724
  1236TXY    H4 2822   3.009   2.968   3.635
  1236TXY    C4 2823   3.129   2.995   3.812
  1236TXY    H7 2824   3.065   2.923   3.862
  1236TXY    H8 2825   3.217   2.940   3.778
  1236TXY    C6 2826   3.172   3.102   3.912
  1236TXY   H11 2827   3.086   3.156   3.951
  1236TXY   H12 2828   3.224   3.058   3.997
  1236TXY   H13 2829   3.239   3.175   3.867
  1246TXY   H16 2830   1.042   4.091   1.012
  1246TXY    C7 2831   1.145   4.093   0.974
  1246TXY   H14 2832   1.193   4.184   1.011
  1246TXY   H15 2833   1.139   4.102   0.865
  1246TXY    C5 2834   1.223   3.968   1.015
  1246TXY    H9 2835   1.321   3.972   0.970
  1246TXY   H10 2836   1.172   3.880   0.975
  1246TXY    C3 2837   1.239   3.953   1.168
  1246TXY    H5 2838   1.279   4.046   1.208
  1246TXY    H6 2839   1.313   3.876   1.188
  1246TXY    C1 2840   1.108   3.918   1.241
  1246TXY    H1 2841   1.033   3.994   1.218
  1246TXY    H2 2842   1.070   3.823   1.202
  1246TXY    C2 2843   1.125   3.909   1.393
  1246TXY    H3 2844   1.218   3.957   1.424
  1246TXY    H4 2845   1.045   3.966   1.440
  1246TXY    C4 2846   1.123   3.765   1.451
  1246TXY    H7 2847   1.127   3.771   1.559
  1246TXY    H8 2848   1.028   3.718   1.425
  1246TXY    C6 2849   1.237   3.677   1.401
  1246TXY   H11 2850   1.334   3.720   1.426
  1246TXY   H12 2851   1.233   3.578   1.447
  1246TXY   H13 2852   1.234   3.663   1.293
  1256TXY   H16 2853   4.250   0.616   0.364
  1256TXY    C7 2854   4.204   0.594   0.267
  1256TXY   H14 2855   4.201   0.486   0.256
  1256TXY   H15 2856   4.270   0.633   0.190
  1256TXY    C5 2857   4.064   0.655   0.256
  1256TXY    H9 2858   4.025   0.634   0.157
  1256TXY   H10 2859   4.072   0.764   0.264
  1256TXY    C3 2860   3.965   0.603   0.362
  1256TXY    H5 2861   3.963   0.494   0.357
  1256TXY    H6 2862   3.865   0.637   0.335
  1256TXY    C1 2863   3.997   0.647   0.506
  1256TXY    H1 2864   4.093   0.605   0.535
  1256TXY    H2 2865   4.007   0.756   0.509
  1256TXY    C2 2866   3.891   0.601   0.607
  1256TXY    H3 2867   3.824   0.528   0.562
  1256TXY    H4 2868   3.940   0.550   0.690
  1256TXY    C4 2869   3.805   0.716   0.667
  1256TXY    H7 2870   3.738   0.673   0.741
  1256TXY    H8 2871   3.870   0.786   0.719
  1256TXY    C6 2872   3.721   0.791   0.563
  1256TXY   H11 2873   3.654   0.724   0.510
  1256TXY   H12 2874   3.661   0.868   0.610
  1256TXY   H13 2875   3.784   0.840   0.488
  1266TXY   H16 2876   1.061   0.260   4.239
  1266TXY    C7 2877   1.047   0.364   4.269
  1266TXY   H14 2878   1.145   0.407   4.289
  1266TXY   H15 2879   0.990   0.364   4.362
  1266TXY    C5 2880   0.974   0.443   4.160
  1266TXY    H9 2881   0.955   0.544   4.197
  1266TXY   H10 2882   0.876   0.398   4.142
  1266TXY    C3 2883   1.051   0.453   4.026
  1266TXY    H5 2884   1.147   0.501   4.044
  1266TXY    H6 2885   0.995   0.518   3.959
  1266TXY    C1 2886   1.073   0.317   3.958
  1266TXY    H1 2887   1.139   0.257   4.021
  1266TXY    H2 2888   0.978   0.264   3.952
  1266TXY    C2 2889   1.137   0.328   3.819
  1266TXY    H3 2890   1.173   0.430   3.801
  1266TXY    H4 2891   1.226   0.264   3.814
  1266TXY    C4 2892   1.043   0.288   3.703
  1266TXY    H7 2893   1.099   0.289   3.609
  1266TXY    H8 2894   1.008   0.186   3.719
  1266TXY    C6 2895   0.921   0.380   3.689
  1266TXY   H11 2896   0.951   0.484   3.673
  1266TXY   H12 2897   0.860   0.351   3.603
  1266TXY   H13 2898   0.858   0.377   3.777
  1276TXY   H16 2899   3.327   4.879   0.609
  1276TXY    C7 2900   3.435   4.885   0.617
  1276TXY   H14 2901   3.474   4.919   0.521
  1276TXY   H15 2902   3.472   4.784   0.633
  1276TXY    C5 2903   3.479   4.978   0.731
  1276TXY    H9 2904   3.587   4.975   0.739
  1276TXY   H10 2905   3.438   4.940   0.825
  1276TXY    C3 2906   3.434   0.125   0.712
  1276TXY    H5 2907   3.472   0.161   0.616
  1276TXY    H6 2908   3.482   0.185   0.789
  1276TXY    C1 2909   3.282   0.145   0.718
  1276TXY    H1 2910   3.235   0.088   0.638
  1276TXY    H2 2911   3.244   0.103   0.812
  1276TXY    C2 2912   3.239   0.292   0.705
  1276TXY    H3 2913   3.322   0.352   0.666
  1276TXY    H4 2914   3.159   0.299   0.631
  1276TXY    C4 2915   3.189   0.356   0.837
  1276TXY    H7 2916   3.147   0.454   0.815
  1276TXY    H8 2917   3.108   0.295   0.878
  1276TXY    C6 2918   3.299   0.371   0.943
  1276TXY   H11 2919   3.380   0.434   0.907
  1276TXY   H12 2920   3.259   0.415   1.034
  1276TXY   H13 2921   3.342   0.274   0.969
  1286TXY   H16 2922   1.726   1.025   3.551
  1286TXY    C7 2923   1.767   1.028   3.451
  1286TXY   H14 2924   1.769   0.927   3.412
  1286TXY   H15 2925   1.870   1.062   3.459
  1286TXY    C5 2926   1.686   1.121   3.359
  1286TXY    H9 2927   1.735   1.126   3.262
  1286TXY   H10 2928   1.688   1.222   3.401
  1286TXY    C3 2929   1.539   1.077   3.339
  1286TXY    H5 2930   1.539   0.975   3.301
  1286TXY    H6 2931   1.495   1.140   3.261
  1286TXY    C1 2932   1.454   1.085   3.467
  1286TXY    H1 2933   1.495   1.017   3.541
  1286TXY    H2 2934   1.461   1.186   3.508
  1286TXY    C2 2935   1.306   1.048   3.443
  1286TXY    H3 2936   1.294   0.999   3.347
  1286TXY    H4 2937   1.275   0.976   3.519
  1286TXY    C4 2938   1.210   1.169   3.449
  1286TXY    H7 2939   1.107   1.133   3.445
  1286TXY    H8 2940   1.221   1.220   3.545
  1286TXY    C6 2941   1.231   1.270   3.336
  1286TXY   H11 2942   1.213   1.224   3.238
  1286TXY   H12 2943   1.164   1.355   3.346
  1286TXY   H13 2944   1.333   1.309   3.336
  1296TXY   H16 2945   2.743   1.654   0.048
  1296TXY    C7 2946   2.745   1.572   0.119
  1296TXY   H14 2947   2.699   1.485   0.073
  1296TXY   H15 2948   2.683   1.601   0.204
  1296TXY    C5 2949   2.888   1.541   0.165
  1296TXY    H9 2950   2.884   1.465   0.243
  1296TXY   H10 2951   2.931   1.631   0.210
  1296TXY    C3 2952   2.981   1.492   0.051
  1296TXY    H5 2953   2.938   1.402   0.007
  1296TXY    H6 2954   3.076   1.462   0.096
  1296TXY    C1 2955   3.006   1.596   4.941
  1296TXY    H1 2956   2.912   1.618   4.891
  1296TXY    H2 2957   3.040   1.689   4.987
  1296TXY    C2 2958   3.107   1.548   4.836
  1296TXY    H3 2959   3.126   1.441   4.846
  1296TXY    H4 2960   3.065   1.563   4.736
  1296TXY    C4 2961   3.244   1.622   4.841
  1296TXY    H7 2962   3.305   1.590   4.757
  1296TXY    H8 2963   3.227   1.729   4.829
  1296TXY    C6 2964   3.321   1.598   4.971
  1296TXY   H11 2965   3.340   1.492   4.986
  1296TXY   H12 2966   3.418   1.649   4.968
  1296TXY   H13 2967   3.267   1.635   0.057
  1306TXY   H16 2968   0.593   2.473   2.691
  1306TXY    C7 2969   0.551   2.550   2.755
  1306TXY   H14 2970   0.608   2.551   2.848
  1306TXY   H15 2971   0.449   2.521   2.779
  1306TXY    C5 2972   0.554   2.688   2.688
  1306TXY    H9 2973   0.508   2.761   2.754
  1306TXY   H10 2974   0.493   2.684   2.597
  1306TXY    C3 2975   0.697   2.736   2.652
  1306TXY    H5 2976   0.758   2.733   2.741
  1306TXY    H6 2977   0.691   2.841   2.622
  1306TXY    C1 2978   0.764   2.655   2.540
  1306TXY    H1 2979   0.771   2.551   2.571
  1306TXY    H2 2980   0.700   2.657   2.451
  1306TXY    C2 2981   0.905   2.705   2.505
  1306TXY    H3 2982   0.943   2.770   2.584
  1306TXY    H4 2983   0.973   2.620   2.500
  1306TXY    C4 2984   0.914   2.781   2.370
  1306TXY    H7 2985   1.019   2.798   2.345
  1306TXY    H8 2986   0.873   2.718   2.290
  1306TXY    C6 2987   0.840   2.915   2.370
  1306TXY   H11 2988   0.879   2.981   2.448
  1306TXY   H12 2989   0.852   2.967   2.275
  1306TXY   H13 2990   0.733   2.902   2.388
  1316TXY   H16 2991   2.632   1.910   2.214
  1316TXY    C7 2992   2.738   1.936   2.218
  1316TXY   H14 2993   2.786   1.871   2.291
  1316TXY   H15 2994   2.744   2.039   2.255
  1316TXY    C5 2995   2.804   1.923   2.080
  1316TXY    H9 2996   2.907   1.958   2.087
  1316TXY   H10 2997   2.753   1.989   2.010
  1316TXY    C3 2998   2.803   1.779   2.024
  1316TXY    H5 2999   2.851   1.713   2.096
  1316TXY    H6 3000   2.865   1.777   1.934
  1316TXY    C1 3001   2.662   1.727   1.991
  1316TXY    H1 3002   2.603   1.725   2.082
  1316TXY    H2 3003   2.614   1.796   1.922
  1316TXY    C2 3004   2.663   1.585   1.930
  1316TXY    H3 3005   2.761   1.538   1.944
  1316TXY    H4 3006   2.592   1.523   1.984
  1316TXY    C4 3007   2.627   1.580   1.780
  1316TXY    H7 3008   2.618   1.476   1.749
  1316TXY    H8 3009   2.530   1.627   1.764
  1316TXY    C6 3010   2.730   1.649   1.689
  1316TXY   H11 3011   2.829   1.604   1.701
  1316TXY   H12 3012   2.702   1.640   1.584
  1316TXY   H13 3013   2.739   1.755   1.713
  1326TXY   H16 3014   1.799   1.694   0.647
  1326TXY    C7 3015   1.695   1.724   0.634
  1326TXY   H14 3016   1.635   1.633   0.626
  1326TXY   H15 3017   1.687   1.777   0.539
  1326TXY    C5 3018   1.647   1.812   0.750
  1326TXY    H9 3019   1.545   1.845   0.730
  1326TXY   H10 3020   1.710   1.901   0.755
  1326TXY    C3 3021   1.649   1.741   0.888
  1326TXY    H5 3022   1.588   1.650   0.882
  1326TXY    H6 3023   1.600   1.806   0.961
  1326TXY    C1 3024   1.790   1.705   0.938
  1326TXY    H1 3025   1.836   1.636   0.867
  1326TXY    H2 3026   1.852   1.795   0.938
  1326TXY    C2 3027   1.791   1.641   1.077
  1326TXY    H3 3028   1.690   1.609   1.105
  1326TXY    H4 3029   1.851   1.550   1.074
  1326TXY    C4 3030   1.846   1.732   1.189
  1326TXY    H7 3031   1.856   1.674   1.281
  1326TXY    H8 3032   1.947   1.765   1.162
  1326TXY    C6 3033   1.759   1.855   1.217
  1326TXY   H11 3034   1.658   1.826   1.245
  1326TXY   H12 3035   1.800   1.914   1.299
  1326TXY   H13 3036   1.752   1.920   1.130
  1336TXY   H16 3037   2.801   2.050   1.063
  1336TXY    C7 3038   2.758   2.109   1.145
  1336TXY   H14 3039   2.819   2.199   1.157
  1336TXY   H15 3040   2.768   2.050   1.236
  1336TXY    C5 3041   2.611   2.144   1.119
  1336TXY    H9 3042   2.571   2.195   1.206
  1336TXY   H10 3043   2.554   2.052   1.107
  1336TXY    C3 3044   2.589   2.233   0.994
  1336TXY    H5 3045   2.649   2.324   1.004
  1336TXY    H6 3046   2.485   2.264   0.992
  1336TXY    C1 3047   2.624   2.163   0.861
  1336TXY    H1 3048   2.730   2.138   0.861
  1336TXY    H2 3049   2.570   2.069   0.855
  1336TXY    C2 3050   2.594   2.250   0.738
  1336TXY    H3 3051   2.565   2.350   0.768
  1336TXY    H4 3052   2.684   2.261   0.678
  1336TXY    C4 3053   2.483   2.193   0.646
  1336TXY    H7 3054   2.478   2.252   0.554
  1336TXY    H8 3055   2.508   2.091   0.617
  1336TXY    C6 3056   2.344   2.193   0.711
  1336TXY   H11 3057   2.314   2.293   0.740
  1336TXY   H12 3058   2.268   2.154   0.643
  1336TXY   H13 3059   2.342   2.131   0.801
  1346TXY   H16 3060   2.931   0.965   3.963
  1346TXY    C7 3061   2.958   0.973   3.858
  1346TXY   H14 3062   3.060   1.011   3.853
  1346TXY   H15 3063   2.893   1.047   3.813
  1346TXY    C5 3064   2.946   0.838   3.786
  1346TXY    H9 3065   2.973   0.851   3.681
  1346TXY   H10 3066   2.842   0.806   3.788
  1346TXY    C3 3067   3.035   0.727   3.847
  1346TXY    H5 3068   3.137   0.765   3.856
  1346TXY    H6 3069   3.039   0.644   3.777
  1346TXY    C1 3070   2.986   0.677   3.984
  1346TXY    H1 3071   2.983   0.761   4.053
  1346TXY    H2 3072   2.883   0.641   3.974
  1346TXY    C2 3073   3.075   0.567   4.043
  1346TXY    H3 3074   3.172   0.564   3.993
  1346TXY    H4 3075   3.095   0.590   4.148
  1346TXY    C4 3076   3.013   0.425   4.037
  1346TXY    H7 3077   3.077   0.356   4.092
  1346TXY    H8 3078   2.916   0.425   4.087
  1346TXY    C6 3079   2.995   0.372   3.894
  1346TXY   H11 3080   3.090   0.369   3.840
  1346TXY   H12 3081   2.955   0.271   3.894
  1346TXY   H13 3082   2.926   0.434   3.837
  1356TXY   H16 3083   1.809   0.628   2.560
  1356TXY    C7 3084   1.819   0.728   2.518
  1356TXY   H14 3085   1.719   0.768   2.503
  1356TXY   H15 3086   1.865   0.717   2.420
  1356TXY    C5 3087   1.903   0.819   2.608
  1356TXY    H9 3088   1.917   0.915   2.558
  1356TXY   H10 3089   2.002   0.775   2.620
  1356TXY    C3 3090   1.841   0.844   2.747
  1356TXY    H5 3091   1.741   0.884   2.734
  1356TXY    H6 3092   1.899   0.921   2.797
  1356TXY    C1 3093   1.835   0.718   2.836
  1356TXY    H1 3094   1.776   0.642   2.786
  1356TXY    H2 3095   1.936   0.678   2.848
  1356TXY    C2 3096   1.773   0.744   2.974
  1356TXY    H3 3097   1.718   0.839   2.974
  1356TXY    H4 3098   1.700   0.667   2.996
  1356TXY    C4 3099   1.875   0.747   3.091
  1356TXY    H7 3100   1.821   0.752   3.185
  1356TXY    H8 3101   1.932   0.654   3.091
  1356TXY    C6 3102   1.973   0.865   3.084
  1356TXY   H11 3103   1.921   0.960   3.085
  1356TXY   H12 3104   2.042   0.864   3.168
  1356TXY   H13 3105   2.034   0.861   2.993
  1366TXY   H16 3106   3.690   1.547   0.114
  1366TXY    C7 3107   3.624   1.575   0.196
  1366TXY   H14 3108   3.553   1.494   0.212
  1366TXY   H15 3109   3.566   1.662   0.163
  1366TXY    C5 3110   3.703   1.608   0.323
  1366TXY    H9 3111   3.633   1.644   0.399
  1366TXY   H10 3112   3.772   1.689   0.302
  1366TXY    C3 3113   3.781   1.487   0.380
  1366TXY    H5 3114   3.712   1.404   0.395
  1366TXY    H6 3115   3.819   1.514   0.478
  1366TXY    C1 3116   3.898   1.441   0.291
  1366TXY    H1 3117   3.859   1.411   0.194
  1366TXY    H2 3118   3.964   1.526   0.272
  1366TXY    C2 3119   3.977   1.324   0.351
  1366TXY    H3 3120   3.920   1.276   0.430
  1366TXY    H4 3121   3.992   1.248   0.274
  1366TXY    C4 3122   4.116   1.362   0.406
  1366TXY    H7 3123   4.169   1.272   0.436
  1366TXY    H8 3124   4.175   1.408   0.327
  1366TXY    C6 3125   4.111   1.458   0.526
  1366TXY   H11 3126   4.054   1.414   0.608
  1366TXY   H12 3127   4.211   1.480   0.563
  1366TXY   H13 3128   4.064   1.553   0.500
  1376TXY   H16 3129   4.973   2.094   1.068
  1376TXY    C7 3130   4.923   2.064   0.976
  1376TXY   H14 3131   4.837   2.003   1.004
  1376TXY   H15 3132   4.992   1.999   0.921
  1376TXY    C5 3133   4.882   2.185   0.892
  1376TXY    H9 3134   4.839   2.149   0.798
  1376TXY   H10 3135   4.971   2.242   0.867
  1376TXY    C3 3136   4.779   2.277   0.963
  1376TXY    H5 3137   4.694   2.217   0.994
  1376TXY    H6 3138   4.742   2.349   0.890
  1376TXY    C1 3139   4.837   2.351   1.084
  1376TXY    H1 3140   4.868   2.278   1.159
  1376TXY    H2 3141   4.927   2.406   1.054
  1376TXY    C2 3142   4.737   2.448   1.150
  1376TXY    H3 3143   4.635   2.427   1.116
  1376TXY    H4 3144   4.737   2.433   1.258
  1376TXY    C4 3145   4.767   2.598   1.123
  1376TXY    H7 3146   4.702   2.659   1.186
  1376TXY    H8 3147   4.869   2.620   1.153
  1376TXY    C6 3148   4.747   2.639   0.977
  1376TXY   H11 3149   4.645   2.621   0.944
  1376TXY   H12 3150   4.769   2.744   0.962
  1376TXY   H13 3151   4.813   2.582   0.910
  1386TXY   H16 3152   1.441   0.252   4.184
  1386TXY    C7 3153   1.416   0.159   4.134
  1386TXY   H14 3154   1.373   0.184   4.037
  1386TXY   H15 3155   1.338   0.110   4.192
  1386TXY    C5 3156   1.539   0.068   4.119
  1386TXY    H9 3157   1.507   4.974   4.075
  1386TXY   H10 3158   1.578   0.046   4.218
  1386TXY    C3 3159   1.651   0.129   4.032
  1386TXY    H5 3160   1.610   0.156   3.935
  1386TXY    H6 3161   1.726   0.052   4.013
  1386TXY    C1 3162   1.719   0.252   4.095
  1386TXY    H1 3163   1.645   0.329   4.112
  1386TXY    H2 3164   1.760   0.224   4.192
  1386TXY    C2 3165   1.831   0.311   4.006
  1386TXY    H3 3166   1.833   0.260   3.909
  1386TXY    H4 3167   1.809   0.415   3.985
  1386TXY    C4 3168   1.973   0.303   4.067
  1386TXY    H7 3169   2.041   0.361   4.005
  1386TXY    H8 3170   1.972   0.349   4.166
  1386TXY    C6 3171   2.026   0.160   4.079
  1386TXY   H11 3172   2.030   0.111   3.981
  1386TXY   H12 3173   2.127   0.159   4.120
  1386TXY   H13 3174   1.963   0.099   4.144
  1396TXY   H16 3175   2.499   3.948   2.681
  1396TXY    C7 3176   2.461   3.869   2.617
  1396TXY   H14 3177   2.546   3.811   2.581
  1396TXY   H15 3178   2.415   3.917   2.530
  1396TXY    C5 3179   2.361   3.779   2.690
  1396TXY    H9 3180   2.320   3.707   2.619
  1396TXY   H10 3181   2.277   3.840   2.725
  1396TXY    C3 3182   2.422   3.703   2.810
  1396TXY    H5 3183   2.505   3.643   2.774
  1396TXY    H6 3184   2.347   3.633   2.847
  1396TXY    C1 3185   2.469   3.793   2.924
  1396TXY    H1 3186   2.547   3.860   2.887
  1396TXY    H2 3187   2.386   3.857   2.957
  1396TXY    C2 3188   2.525   3.714   3.044
  1396TXY    H3 3189   2.537   3.609   3.018
  1396TXY    H4 3190   2.625   3.751   3.069
  1396TXY    C4 3191   2.438   3.723   3.172
  1396TXY    H7 3192   2.491   3.673   3.253
  1396TXY    H8 3193   2.427   3.827   3.201
  1396TXY    C6 3194   2.300   3.659   3.156
  1396TXY   H11 3195   2.308   3.554   3.127
  1396TXY   H12 3196   2.244   3.663   3.250
  1396TXY   H13 3197   2.241   3.710   3.080
  1406TXY   H16 3198   3.585   4.192   4.910
  1406TXY    C7 3199   3.597   4.296   4.881
  1406TXY   H14 3200   3.685   4.335   4.933
  1406TXY   H15 3201   3.510   4.351   4.919
  1406TXY    C5 3202   3.610   4.313   4.730
  1406TXY    H9 3203   3.615   4.419   4.706
  1406TXY   H10 3204   3.520   4.274   4.682
  1406TXY    C3 3205   3.735   4.242   4.670
  1406TXY    H5 3206   3.823   4.277   4.723
  1406TXY    H6 3207   3.745   4.273   4.566
  1406TXY    C1 3208   3.727   4.088   4.677
  1406TXY    H1 3209   3.718   4.058   4.782
  1406TXY    H2 3210   3.637   4.054   4.627
  1406TXY    C2 3211   3.850   4.019   4.617
  1406TXY    H3 3212   3.932   4.089   4.604
  1406TXY    H4 3213   3.886   3.942   4.686
  1406TXY    C4 3214   3.824   3.950   4.480
  1406TXY    H7 3215   3.912   3.893   4.451
  1406TXY    H8 3216   3.742   3.879   4.490
  1406TXY    C6 3217   3.791   4.049   4.367
  1406TXY   H11 3218   3.871   4.121   4.353
  1406TXY   H12 3219   3.776   3.997   4.273
  1406TXY   H13 3220   3.700   4.105   4.389
  1416TXY   H16 3221   2.796   2.922   1.710
  1416TXY    C7 3222   2.708   2.892   1.767
  1416TXY   H14 3223   2.624   2.951   1.732
  1416TXY   H15 3224   2.726   2.920   1.871
  1416TXY    C5 3225   2.680   2.742   1.754
  1416TXY    H9 3226   2.596   2.717   1.818
  1416TXY   H10 3227   2.766   2.687   1.792
  1416TXY    C3 3228   2.649   2.696   1.610
  1416TXY    H5 3229   2.563   2.752   1.573
  1416TXY    H6 3230   2.618   2.591   1.614
  1416TXY    C1 3231   2.767   2.711   1.512
  1416TXY    H1 3232   2.795   2.816   1.507
  1416TXY    H2 3233   2.853   2.657   1.552
  1416TXY    C2 3234   2.734   2.662   1.370
  1416TXY    H3 3235   2.627   2.643   1.360
  1416TXY    H4 3236   2.758   2.741   1.299
  1416TXY    C4 3237   2.810   2.534   1.328
  1416TXY    H7 3238   2.790   2.514   1.223
  1416TXY    H8 3239   2.917   2.552   1.337
  1416TXY    C6 3240   2.773   2.410   1.410
  1416TXY   H11 3241   2.667   2.388   1.403
  1416TXY   H12 3242   2.827   2.322   1.375
  1416TXY   H13 3243   2.797   2.423   1.516
  1426TXY   H16 3244   0.783   4.005   0.186
  1426TXY    C7 3245   0.753   4.110   0.182
  1426TXY   H14 3246   0.843   4.170   0.191
  1426TXY   H15 3247   0.692   4.129   0.270
  1426TXY    C5 3248   0.677   4.142   0.053
  1426TXY    H9 3249   0.648   4.247   0.055
  1426TXY   H10 3250   0.585   4.084   0.050
  1426TXY    C3 3251   0.758   4.114   4.924
  1426TXY    H5 3252   0.852   4.169   4.930
  1426TXY    H6 3253   0.703   4.156   4.840
  1426TXY    C1 3254   0.787   3.965   4.899
  1426TXY    H1 3255   0.845   3.926   4.983
  1426TXY    H2 3256   0.692   3.911   4.898
  1426TXY    C2 3257   0.864   3.939   4.769
  1426TXY    H3 3258   0.907   4.032   4.731
  1426TXY    H4 3259   0.948   3.873   4.790
  1426TXY    C4 3260   0.779   3.874   4.657
  1426TXY    H7 3261   0.845   3.848   4.574
  1426TXY    H8 3262   0.736   3.781   4.694
  1426TXY    C6 3263   0.667   3.964   4.605
  1426TXY   H11 3264   0.706   4.058   4.566
  1426TXY   H12 3265   0.611   3.916   4.525
  1426TXY   H13 3266   0.596   3.989   4.685
  1436TXY   H16 3267   1.197   3.635   2.703
  1436TXY    C7 3268   1.165   3.630   2.807
  1436TXY   H14 3269   1.252   3.600   2.866
  1436TXY   H15 3270   1.091   3.551   2.815
  1436TXY    C5 3271   1.109   3.765   2.855
  1436TXY    H9 3272   1.074   3.753   2.958
  1436TXY   H10 3273   1.021   3.790   2.795
  1436TXY    C3 3274   1.210   3.881   2.849
  1436TXY    H5 3275   1.300   3.853   2.904
  1436TXY    H6 3276   1.168   3.967   2.901
  1436TXY    C1 3277   1.249   3.923   2.706
  1436TXY    H1 3278   1.295   3.838   2.656
  1436TXY    H2 3279   1.158   3.947   2.650
  1436TXY    C2 3280   1.347   4.041   2.701
  1436TXY    H3 3281   1.391   4.059   2.799
  1436TXY    H4 3282   1.429   4.017   2.635
  1436TXY    C4 3283   1.283   4.174   2.652
  1436TXY    H7 3284   1.362   4.248   2.637
  1436TXY    H8 3285   1.237   4.157   2.554
  1436TXY    C6 3286   1.178   4.231   2.748
  1436TXY   H11 3287   1.222   4.251   2.846
  1436TXY   H12 3288   1.138   4.325   2.710
  1436TXY   H13 3289   1.095   4.162   2.762
  1446TXY   H16 3290   4.220   3.644   3.237
  1446TXY    C7 3291   4.214   3.538   3.260
  1446TXY   H14 3292   4.314   3.495   3.248
  1446TXY   H15 3293   4.150   3.491   3.186
  1446TXY    C5 3294   4.161   3.514   3.402
  1446TXY    H9 3295   4.149   3.407   3.418
  1446TXY   H10 3296   4.061   3.558   3.410
  1446TXY    C3 3297   4.251   3.572   3.514
  1446TXY    H5 3298   4.351   3.532   3.502
  1446TXY    H6 3299   4.214   3.536   3.610
  1446TXY    C1 3300   4.257   3.726   3.515
  1446TXY    H1 3301   4.296   3.761   3.419
  1446TXY    H2 3302   4.155   3.765   3.523
  1446TXY    C2 3303   4.344   3.783   3.628
  1446TXY    H3 3304   4.404   3.703   3.673
  1446TXY    H4 3305   4.416   3.854   3.586
  1446TXY    C4 3306   4.265   3.855   3.740
  1446TXY    H7 3307   4.336   3.904   3.807
  1446TXY    H8 3308   4.204   3.934   3.695
  1446TXY    C6 3309   4.175   3.762   3.821
  1446TXY   H11 3310   4.233   3.681   3.867
  1446TXY   H12 3311   4.124   3.816   3.901
  1446TXY   H13 3312   4.098   3.716   3.758
  1456TXY   H16 3313   4.365   4.055   1.907
  1456TXY    C7 3314   4.338   4.090   1.807
  1456TXY   H14 3315   4.416   4.157   1.773
  1456TXY   H15 3316   4.247   4.149   1.818
  1456TXY    C5 3317   4.317   3.974   1.710
  1456TXY    H9 3318   4.282   4.014   1.614
  1456TXY   H10 3319   4.238   3.909   1.748
  1456TXY    C3 3320   4.444   3.890   1.685
  1456TXY    H5 3321   4.525   3.956   1.654
  1456TXY    H6 3322   4.425   3.822   1.602
  1456TXY    C1 3323   4.489   3.809   1.808
  1456TXY    H1 3324   4.511   3.877   1.890
  1456TXY    H2 3325   4.407   3.745   1.841
  1456TXY    C2 3326   4.614   3.723   1.781
  1456TXY    H3 3327   4.664   3.756   1.690
  1456TXY    H4 3328   4.685   3.737   1.863
  1456TXY    C4 3329   4.586   3.571   1.769
  1456TXY    H7 3330   4.681   3.518   1.763
  1456TXY    H8 3331   4.535   3.536   1.859
  1456TXY    C6 3332   4.501   3.534   1.646
  1456TXY   H11 3333   4.549   3.566   1.554
  1456TXY   H12 3334   4.486   3.426   1.640
  1456TXY   H13 3335   4.402   3.580   1.650
  1466TXY   H16 3336   3.924   0.138   0.218
  1466TXY    C7 3337   3.976   0.224   0.177
  1466TXY   H14 3338   4.070   0.189   0.134
  1466TXY   H15 3339   4.002   0.289   0.261
  1466TXY    C5 3340   3.891   0.298   0.074
  1466TXY    H9 3341   3.943   0.388   0.043
  1466TXY   H10 3342   3.797   0.329   0.121
  1466TXY    C3 3343   3.858   0.213   4.948
  1466TXY    H5 3344   3.952   0.180   4.903
  1466TXY    H6 3345   3.809   0.278   4.875
  1466TXY    C1 3346   3.769   0.091   4.976
  1466TXY    H1 3347   3.820   0.025   0.046
  1466TXY    H2 3348   3.677   0.124   0.026
  1466TXY    C2 3349   3.734   0.011   4.850
  1466TXY    H3 3350   3.794   0.046   4.765
  1466TXY    H4 3351   3.761   4.907   4.865
  1466TXY    C4 3352   3.584   0.017   4.809
  1466TXY    H7 3353   3.568   4.947   4.727
  1466TXY    H8 3354   3.523   4.983   4.893
  1466TXY    C6 3355   3.537   0.156   4.766
  1466TXY   H11 3356   3.594   0.193   4.681
  1466TXY   H12 3357   3.432   0.155   4.737
  1466TXY   H13 3358   3.548   0.229   4.847
  1476TXY   H16 3359   1.103   4.196   4.994
  1476TXY    C7 3360   1.121   4.117   0.067
  1476TXY   H14 3361   1.032   4.054   0.070
  1476TXY   H15 3362   1.130   4.165   0.164
  1476TXY    C5 3363   1.246   4.036   0.033
  1476TXY    H9 3364   1.265   3.966   0.114
  1476TXY   H10 3365   1.332   4.104   0.029
  1476TXY    C3 3366   1.236   3.958   4.899
  1476TXY    H5 3367   1.151   3.891   4.905
  1476TXY    H6 3368   1.325   3.896   4.890
  1476TXY    C1 3369   1.223   4.049   4.776
  1476TXY    H1 3370   1.132   4.107   4.784
  1476TXY    H2 3371   1.306   4.120   4.774
  1476TXY    C2 3372   1.219   3.970   4.644
  1476TXY    H3 3373   1.207   3.863   4.663
  1476TXY    H4 3374   1.131   4.000   4.586
  1476TXY    C4 3375   1.344   3.990   4.554
  1476TXY    H7 3376   1.327   3.942   4.458
  1476TXY    H8 3377   1.358   4.097   4.535
  1476TXY    C6 3378   1.473   3.934   4.615
  1476TXY   H11 3379   1.464   3.827   4.634
  1476TXY   H12 3380   1.557   3.948   4.549
  1476TXY   H13 3381   1.496   3.982   4.710
  1486TXY   H16 3382   1.660   0.075   0.523
  1486TXY    C7 3383   1.625   4.984   0.571
  1486TXY   H14 3384   1.700   4.955   0.645
  1486TXY   H15 3385   1.623   4.906   0.495
  1486TXY    C5 3386   1.487   0.002   0.635
  1486TXY    H9 3387   1.453   4.906   0.673
  1486TXY   H10 3388   1.416   0.034   0.559
  1486TXY    C3 3389   1.485   0.105   0.751
  1486TXY    H5 3390   1.555   0.072   0.828
  1486TXY    H6 3391   1.386   0.104   0.796
  1486TXY    C1 3392   1.521   0.248   0.708
  1486TXY    H1 3393   1.624   0.249   0.671
  1486TXY    H2 3394   1.458   0.277   0.624
  1486TXY    C2 3395   1.509   0.351   0.822
  1486TXY    H3 3396   1.493   0.301   0.917
  1486TXY    H4 3397   1.603   0.405   0.832
  1486TXY    C4 3398   1.396   0.455   0.802
  1486TXY    H7 3399   1.402   0.530   0.881
  1486TXY    H8 3400   1.411   0.507   0.707
  1486TXY    C6 3401   1.256   0.393   0.803
  1486TXY   H11 3402   1.239   0.336   0.894
  1486TXY   H12 3403   1.179   0.470   0.799
  1486TXY   H13 3404   1.241   0.326   0.718
  1496TXY   H16 3405   2.380   2.239   4.210
  1496TXY    C7 3406   2.317   2.310   4.156
  1496TXY   H14 3407   2.372   2.344   4.069
  1496TXY   H15 3408   2.302   2.396   4.222
  1496TXY    C5 3409   2.182   2.248   4.116
  1496TXY    H9 3410   2.120   2.325   4.071
  1496TXY   H10 3411   2.131   2.215   4.207
  1496TXY    C3 3412   2.195   2.129   4.018
  1496TXY    H5 3413   2.247   2.163   3.929
  1496TXY    H6 3414   2.094   2.101   3.986
  1496TXY    C1 3415   2.266   2.007   4.077
  1496TXY    H1 3416   2.368   2.034   4.104
  1496TXY    H2 3417   2.216   1.977   4.169
  1496TXY    C2 3418   2.272   1.888   3.979
  1496TXY    H3 3419   2.245   1.919   3.879
  1496TXY    H4 3420   2.374   1.851   3.974
  1496TXY    C4 3421   2.181   1.769   4.019
  1496TXY    H7 3422   2.201   1.685   3.953
  1496TXY    H8 3423   2.206   1.736   4.120
  1496TXY    C6 3424   2.031   1.802   4.014
  1496TXY   H11 3425   2.001   1.834   3.914
  1496TXY   H12 3426   1.971   1.715   4.040
  1496TXY   H13 3427   2.005   1.882   4.084
  1506TXY   H16 3428   0.729   0.301   4.396
  1506TXY    C7 3429   0.666   0.389   4.387
  1506TXY   H14 3430   0.726   0.470   4.346
  1506TXY   H15 3431   0.635   0.419   4.487
  1506TXY    C5 3432   0.543   0.361   4.299
  1506TXY    H9 3433   0.478   0.449   4.299
  1506TXY   H10 3434   0.486   0.279   4.342
  1506TXY    C3 3435   0.579   0.326   4.152
  1506TXY    H5 3436   0.637   0.409   4.110
  1506TXY    H6 3437   0.487   0.321   4.094
  1506TXY    C1 3438   0.657   0.195   4.137
  1506TXY    H1 3439   0.750   0.201   4.193
  1506TXY    H2 3440   0.599   0.114   4.182
  1506TXY    C2 3441   0.690   0.161   3.990
  1506TXY    H3 3442   0.672   0.247   3.926
  1506TXY    H4 3443   0.796   0.138   3.982
  1506TXY    C4 3444   0.611   0.040   3.933
  1506TXY    H7 3445   0.648   0.018   3.833
  1506TXY    H8 3446   0.630   4.952   3.995
  1506TXY    C6 3447   0.459   0.064   3.926
  1506TXY   H11 3448   0.436   0.150   3.863
  1506TXY   H12 3449   0.408   4.977   3.883
  1506TXY   H13 3450   0.416   0.081   4.024
  1516TXY   H16 3451   0.132   3.631   1.071
  1516TXY    C7 3452   0.117   3.692   1.160
  1516TXY   H14 3453   0.104   3.795   1.128
  1516TXY   H15 3454   0.209   3.687   1.218
  1516TXY    C5 3455   4.997   3.643   1.242
  1516TXY    H9 3456   4.991   3.702   1.333
  1516TXY   H10 3457   0.014   3.540   1.271
  1516TXY    C3 3458   4.862   3.654   1.167
  1516TXY    H5 3459   4.847   3.757   1.136
  1516TXY    H6 3460   4.782   3.631   1.237
  1516TXY    C1 3461   4.851   3.561   1.045
  1516TXY    H1 3462   4.929   3.587   0.974
  1516TXY    H2 3463   4.869   3.458   1.076
  1516TXY    C2 3464   4.714   3.570   0.974
  1516TXY    H3 3465   4.658   3.656   1.011
  1516TXY    H4 3466   4.730   3.589   0.867
  1516TXY    C4 3467   4.627   3.443   0.988
  1516TXY    H7 3468   4.542   3.450   0.919
  1516TXY    H8 3469   4.685   3.356   0.958
  1516TXY    C6 3470   4.574   3.423   1.130
  1516TXY   H11 3471   4.514   3.508   1.163
  1516TXY   H12 3472   4.512   3.334   1.137
  1516TXY   H13 3473   4.655   3.411   1.202
  1526TXY   H16 3474   1.025   0.556   2.292
  1526TXY    C7 3475   1.029   0.585   2.187
  1526TXY   H14 3476   1.134   0.602   2.161
  1526TXY   H15 3477   0.977   0.680   2.178
  1526TXY    C5 3478   0.966   0.479   2.096
  1526TXY    H9 3479   0.962   0.518   1.995
  1526TXY   H10 3480   0.863   0.462   2.128
  1526TXY    C3 3481   1.042   0.344   2.095
  1526TXY    H5 3482   1.145   0.363   2.066
  1526TXY    H6 3483   0.999   0.281   2.018
  1526TXY    C1 3484   1.039   0.270   2.230
  1526TXY    H1 3485   1.085   0.333   2.306
  1526TXY    H2 3486   0.935   0.254   2.260
  1526TXY    C2 3487   1.114   0.136   2.227
  1526TXY    H3 3488   1.172   0.126   2.134
  1526TXY    H4 3489   1.187   0.133   2.308
  1526TXY    C4 3490   1.023   0.011   2.240
  1526TXY    H7 3491   1.086   4.923   2.251
  1526TXY    H8 3492   0.964   0.020   2.331
  1526TXY    C6 3493   0.929   4.991   2.121
  1526TXY   H11 3494   0.985   4.980   2.028
  1526TXY   H12 3495   0.869   4.901   2.134
  1526TXY   H13 3496   0.861   0.075   2.109
  1536TXY   H16 3497   2.799   3.075   2.536
  1536TXY    C7 3498   2.780   2.969   2.552
  1536TXY   H14 3499   2.774   2.921   2.455
  1536TXY   H15 3500   2.682   2.960   2.599
  1536TXY    C5 3501   2.889   2.905   2.639
  1536TXY    H9 3502   2.861   2.801   2.660
  1536TXY   H10 3503   2.893   2.956   2.735
  1536TXY    C3 3504   3.030   2.906   2.574
  1536TXY    H5 3505   3.024   2.857   2.477
  1536TXY    H6 3506   3.097   2.846   2.636
  1536TXY    C1 3507   3.089   3.047   2.557
  1536TXY    H1 3508   3.023   3.106   2.494
  1536TXY    H2 3509   3.092   3.097   2.654
  1536TXY    C2 3510   3.229   3.046   2.494
  1536TXY    H3 3511   3.252   2.948   2.452
  1536TXY    H4 3512   3.232   3.117   2.411
  1536TXY    C4 3513   3.343   3.085   2.592
  1536TXY    H7 3514   3.436   3.094   2.537
  1536TXY    H8 3515   3.322   3.182   2.636
  1536TXY    C6 3516   3.363   2.983   2.705
  1536TXY   H11 3517   3.387   2.884   2.666
  1536TXY   H12 3518   3.445   3.013   2.771
  1536TXY   H13 3519   3.274   2.974   2.767
  1546TXY   H16 3520   0.811   1.503   2.936
  1546TXY    C7 3521   0.908   1.455   2.923
  1546TXY   H14 3522   0.985   1.532   2.932
  1546TXY   H15 3523   0.912   1.416   2.822
  1546TXY    C5 3524   0.929   1.343   3.026
  1546TXY    H9 3525   1.024   1.294   3.005
  1546TXY   H10 3526   0.851   1.268   3.014
  1546TXY    C3 3527   0.930   1.393   3.173
  1546TXY    H5 3528   1.005   1.472   3.182
  1546TXY    H6 3529   0.964   1.311   3.236
  1546TXY    C1 3530   0.794   1.443   3.223
  1546TXY    H1 3531   0.760   1.525   3.159
  1546TXY    H2 3532   0.720   1.363   3.213
  1546TXY    C2 3533   0.798   1.494   3.368
  1546TXY    H3 3534   0.900   1.518   3.397
  1546TXY    H4 3535   0.741   1.587   3.375
  1546TXY    C4 3536   0.740   1.395   3.472
  1546TXY    H7 3537   0.734   1.444   3.569
  1546TXY    H8 3538   0.639   1.368   3.444
  1546TXY    C6 3539   0.823   1.267   3.488
  1546TXY   H11 3540   0.926   1.290   3.517
  1546TXY   H12 3541   0.781   1.201   3.564
  1546TXY   H13 3542   0.828   1.210   3.395
  1556TXY   H16 3543   2.689   3.677   0.044
  1556TXY    C7 3544   2.626   3.666   4.955
  1556TXY   H14 3545   2.671   3.590   4.892
  1556TXY   H15 3546   2.631   3.760   4.901
  1556TXY    C5 3547   2.482   3.630   4.992
  1556TXY    H9 3548   2.422   3.628   4.900
  1556TXY   H10 3549   2.440   3.709   0.054
  1556TXY    C3 3550   2.468   3.494   0.064
  1556TXY    H5 3551   2.513   3.417   0.003
  1556TXY    H6 3552   2.362   3.470   0.072
  1556TXY    C1 3553   2.531   3.492   0.205
  1556TXY    H1 3554   2.638   3.513   0.196
  1556TXY    H2 3555   2.488   3.573   0.264
  1556TXY    C2 3556   2.513   3.358   0.277
  1556TXY    H3 3557   2.481   3.281   0.207
  1556TXY    H4 3558   2.609   3.325   0.316
  1556TXY    C4 3559   2.412   3.362   0.394
  1556TXY    H7 3560   2.417   3.268   0.448
  1556TXY    H8 3561   2.442   3.440   0.464
  1556TXY    C6 3562   2.267   3.387   0.350
  1556TXY   H11 3563   2.233   3.309   0.282
  1556TXY   H12 3564   2.200   3.387   0.436
  1556TXY   H13 3565   2.257   3.482   0.299
  1566TXY   H16 3566   4.157   4.840   3.908
  1566TXY    C7 3567   4.117   4.761   3.972
  1566TXY   H14 3568   4.073   4.684   3.909
  1566TXY   H15 3569   4.036   4.805   4.031
  1566TXY    C5 3570   4.225   4.703   4.064
  1566TXY    H9 3571   4.179   4.630   4.131
  1566TXY   H10 3572   4.266   4.783   4.126
  1566TXY    C3 3573   4.341   4.634   3.987
  1566TXY    H5 3574   4.298   4.559   3.921
  1566TXY    H6 3575   4.402   4.580   4.060
  1566TXY    C1 3576   4.430   4.730   3.907
  1566TXY    H1 3577   4.368   4.784   3.835
  1566TXY    H2 3578   4.472   4.804   3.975
  1566TXY    C2 3579   4.542   4.658   3.830
  1566TXY    H3 3580   4.521   4.552   3.822
  1566TXY    H4 3581   4.546   4.697   3.728
  1566TXY    C4 3582   4.683   4.675   3.892
  1566TXY    H7 3583   4.757   4.633   3.824
  1566TXY    H8 3584   4.706   4.781   3.902
  1566TXY    C6 3585   4.698   4.608   4.029
  1566TXY   H11 3586   4.678   4.501   4.023
  1566TXY   H12 3587   4.799   4.620   4.068
  1566TXY   H13 3588   4.630   4.651   4.103
  1576TXY   H16 3589   4.510   1.447   2.713
  1576TXY    C7 3590   4.491   1.550   2.743
  1576TXY   H14 3591   4.568   1.613   2.697
  1576TXY   H15 3592   4.505   1.556   2.851
  1576TXY    C5 3593   4.350   1.596   2.704
  1576TXY    H9 3594   4.333   1.696   2.744
  1576TXY   H10 3595   4.277   1.530   2.750
  1576TXY    C3 3596   4.327   1.599   2.550
  1576TXY    H5 3597   4.400   1.665   2.505
  1576TXY    H6 3598   4.229   1.644   2.532
  1576TXY    C1 3599   4.333   1.460   2.484
  1576TXY    H1 3600   4.433   1.419   2.497
  1576TXY    H2 3601   4.264   1.393   2.535
  1576TXY    C2 3602   4.301   1.464   2.333
  1576TXY    H3 3603   4.297   1.567   2.298
  1576TXY    H4 3604   4.382   1.416   2.278
  1576TXY    C4 3605   4.169   1.394   2.295
  1576TXY    H7 3606   4.161   1.390   2.186
  1576TXY    H8 3607   4.172   1.290   2.330
  1576TXY    C6 3608   4.044   1.462   2.351
  1576TXY   H11 3609   4.036   1.565   2.317
  1576TXY   H12 3610   3.953   1.410   2.320
  1576TXY   H13 3611   4.045   1.463   2.460
  1586TXY   H16 3612   1.268   1.603   4.837
  1586TXY    C7 3613   1.185   1.566   4.777
  1586TXY   H14 3614   1.222   1.484   4.715
  1586TXY   H15 3615   1.155   1.646   4.709
  1586TXY    C5 3616   1.067   1.521   4.864
  1586TXY    H9 3617   0.984   1.494   4.799
  1586TXY   H10 3618   1.034   1.606   4.924
  1586TXY    C3 3619   1.099   1.402   4.957
  1586TXY    H5 3620   1.133   1.318   4.895
  1586TXY    H6 3621   1.007   1.370   0.005
  1586TXY    C1 3622   1.205   1.434   0.063
  1586TXY    H1 3623   1.300   1.455   0.014
  1586TXY    H2 3624   1.176   1.524   0.117
  1586TXY    C2 3625   1.227   1.318   0.162
  1586TXY    H3 3626   1.180   1.226   0.125
  1586TXY    H4 3627   1.334   1.296   0.169
  1586TXY    C4 3628   1.175   1.346   0.305
  1586TXY    H7 3629   1.204   1.264   0.371
  1586TXY    H8 3630   1.222   1.436   0.344
  1586TXY    C6 3631   1.022   1.362   0.312
  1586TXY   H11 3632   0.971   1.273   0.275
  1586TXY   H12 3633   0.989   1.379   0.415
  1586TXY   H13 3634   0.988   1.447   0.253
  1596TXY   H16 3635   3.436   1.191   2.777
  1596TXY    C7 3636   3.338   1.223   2.741
  1596TXY   H14 3637   3.282   1.133   2.714
  1596TXY   H15 3638   3.353   1.281   2.650
  1596TXY    C5 3639   3.263   1.305   2.847
  1596TXY    H9 3640   3.170   1.340   2.804
  1596TXY   H10 3641   3.322   1.393   2.872
  1596TXY    C3 3642   3.233   1.227   2.977
  1596TXY    H5 3643   3.174   1.139   2.952
  1596TXY    H6 3644   3.170   1.289   3.040
  1596TXY    C1 3645   3.358   1.184   3.056
  1596TXY    H1 3646   3.417   1.117   2.994
  1596TXY    H2 3647   3.419   1.272   3.075
  1596TXY    C2 3648   3.324   1.112   3.187
  1596TXY    H3 3649   3.218   1.089   3.193
  1596TXY    H4 3650   3.376   1.016   3.190
  1596TXY    C4 3651   3.364   1.191   3.315
  1596TXY    H7 3652   3.350   1.127   3.402
  1596TXY    H8 3653   3.470   1.216   3.310
  1596TXY    C6 3654   3.283   1.320   3.334
  1596TXY   H11 3655   3.177   1.299   3.343
  1596TXY   H12 3656   3.314   1.372   3.425
  1596TXY   H13 3657   3.297   1.389   3.251
  1606TXY   H16 3658   3.455   1.785   2.615
  1606TXY    C7 3659   3.490   1.870   2.673
  1606TXY   H14 3660   3.422   1.884   2.757
  1606TXY   H15 3661   3.483   1.959   2.611
  1606TXY    C5 3662   3.634   1.850   2.722
  1606TXY    H9 3663   3.669   1.941   2.770
  1606TXY   H10 3664   3.699   1.833   2.636
  1606TXY    C3 3665   3.649   1.732   2.821
  1606TXY    H5 3666   3.580   1.747   2.904
  1606TXY    H6 3667   3.750   1.736   2.864
  1606TXY    C1 3668   3.625   1.594   2.758
  1606TXY    H1 3669   3.525   1.591   2.716
  1606TXY    H2 3670   3.694   1.580   2.674
  1606TXY    C2 3671   3.641   1.478   2.858
  1606TXY    H3 3672   3.637   1.515   2.960
  1606TXY    H4 3673   3.556   1.410   2.847
  1606TXY    C4 3674   3.770   1.395   2.840
  1606TXY    H7 3675   3.766   1.308   2.906
  1606TXY    H8 3676   3.775   1.358   2.738
  1606TXY    C6 3677   3.898   1.474   2.870
  1606TXY   H11 3678   3.898   1.512   2.972
  1606TXY   H12 3679   3.987   1.410   2.860
  1606TXY   H13 3680   3.910   1.558   2.803
  1616TXY   H16 3681   3.038   1.373   1.168
  1616TXY    C7 3682   2.968   1.442   1.216
  1616TXY   H14 3683   2.904   1.383   1.282
  1616TXY   H15 3684   2.905   1.484   1.138
  1616TXY    C5 3685   3.041   1.552   1.294
  1616TXY    H9 3686   2.968   1.622   1.334
  1616TXY   H10 3687   3.104   1.608   1.224
  1616TXY    C3 3688   3.129   1.499   1.410
  1616TXY    H5 3689   3.066   1.439   1.476
  1616TXY    H6 3690   3.164   1.584   1.468
  1616TXY    C1 3691   3.249   1.415   1.364
  1616TXY    H1 3692   3.213   1.328   1.309
  1616TXY    H2 3693   3.309   1.473   1.294
  1616TXY    C2 3694   3.336   1.365   1.481
  1616TXY    H3 3695   3.283   1.376   1.575
  1616TXY    H4 3696   3.355   1.259   1.469
  1616TXY    C4 3697   3.473   1.437   1.493
  1616TXY    H7 3698   3.532   1.388   1.571
  1616TXY    H8 3699   3.528   1.425   1.400
  1616TXY    C6 3700   3.461   1.586   1.526
  1616TXY   H11 3701   3.404   1.602   1.617
  1616TXY   H12 3702   3.559   1.631   1.541
  1616TXY   H13 3703   3.412   1.641   1.446
  1626TXY   H16 3704   0.706   1.337   1.543
  1626TXY    C7 3705   0.700   1.438   1.583
  1626TXY   H14 3706   0.800   1.470   1.609
  1626TXY   H15 3707   0.641   1.434   1.674
  1626TXY    C5 3708   0.636   1.534   1.481
  1626TXY    H9 3709   0.626   1.632   1.527
  1626TXY   H10 3710   0.536   1.499   1.457
  1626TXY    C3 3711   0.718   1.549   1.350
  1626TXY    H5 3712   0.819   1.580   1.375
  1626TXY    H6 3713   0.674   1.630   1.292
  1626TXY    C1 3714   0.723   1.421   1.265
  1626TXY    H1 3715   0.772   1.342   1.322
  1626TXY    H2 3716   0.621   1.387   1.245
  1626TXY    C2 3717   0.799   1.440   1.132
  1626TXY    H3 3718   0.856   1.532   1.134
  1626TXY    H4 3719   0.871   1.359   1.121
  1626TXY    C4 3720   0.708   1.440   1.007
  1626TXY    H7 3721   0.771   1.441   0.918
  1626TXY    H8 3722   0.650   1.347   1.004
  1626TXY    C6 3723   0.611   1.559   1.001
  1626TXY   H11 3724   0.666   1.653   1.002
  1626TXY   H12 3725   0.552   1.556   0.909
  1626TXY   H13 3726   0.543   1.559   1.085
  1636TXY   H16 3727   1.727   2.210   1.487
  1636TXY    C7 3728   1.644   2.143   1.505
  1636TXY   H14 3729   1.644   2.067   1.427
  1636TXY   H15 3730   1.551   2.200   1.495
  1636TXY    C5 3731   1.652   2.078   1.644
  1636TXY    H9 3732   1.563   2.019   1.661
  1636TXY   H10 3733   1.652   2.157   1.720
  1636TXY    C3 3734   1.777   1.989   1.664
  1636TXY    H5 3735   1.781   1.916   1.583
  1636TXY    H6 3736   1.765   1.933   1.757
  1636TXY    C1 3737   1.908   2.068   1.669
  1636TXY    H1 3738   1.922   2.120   1.574
  1636TXY    H2 3739   1.901   2.145   1.746
  1636TXY    C2 3740   2.032   1.980   1.694
  1636TXY    H3 3741   2.008   1.875   1.675
  1636TXY    H4 3742   2.110   2.006   1.622
  1636TXY    C4 3743   2.092   1.993   1.836
  1636TXY    H7 3744   2.184   1.935   1.841
  1636TXY    H8 3745   2.119   2.097   1.854
  1636TXY    C6 3746   1.998   1.945   1.947
  1636TXY   H11 3747   1.970   1.841   1.933
  1636TXY   H12 3748   2.045   1.954   2.045
  1636TXY   H13 3749   1.906   2.004   1.950
  1646TXY   H16 3750   1.630   1.474   1.464
  1646TXY    C7 3751   1.721   1.516   1.508
  1646TXY   H14 3752   1.707   1.624   1.518
  1646TXY   H15 3753   1.802   1.500   1.436
  1646TXY    C5 3754   1.754   1.451   1.643
  1646TXY    H9 3755   1.846   1.495   1.681
  1646TXY   H10 3756   1.772   1.345   1.628
  1646TXY    C3 3757   1.642   1.469   1.749
  1646TXY    H5 3758   1.619   1.575   1.759
  1646TXY    H6 3759   1.681   1.436   1.845
  1646TXY    C1 3760   1.513   1.391   1.716
  1646TXY    H1 3761   1.470   1.432   1.625
  1646TXY    H2 3762   1.538   1.287   1.695
  1646TXY    C2 3763   1.408   1.399   1.829
  1646TXY    H3 3764   1.433   1.478   1.899
  1646TXY    H4 3765   1.312   1.424   1.786
  1646TXY    C4 3766   1.391   1.267   1.908
  1646TXY    H7 3767   1.308   1.278   1.978
  1646TXY    H8 3768   1.364   1.187   1.840
  1646TXY    C6 3769   1.516   1.225   1.987
  1646TXY   H11 3770   1.546   1.302   2.057
  1646TXY   H12 3771   1.498   1.134   2.044
  1646TXY   H13 3772   1.600   1.205   1.920
  1656TXY   H16 3773   3.466   2.728   4.045
  1656TXY    C7 3774   3.375   2.774   4.006
  1656TXY   H14 3775   3.399   2.817   3.908
  1656TXY   H15 3776   3.350   2.857   4.072
  1656TXY    C5 3777   3.260   2.674   3.996
  1656TXY    H9 3778   3.170   2.726   3.963
  1656TXY   H10 3779   3.239   2.634   4.096
  1656TXY    C3 3780   3.288   2.556   3.900
  1656TXY    H5 3781   3.314   2.597   3.802
  1656TXY    H6 3782   3.195   2.500   3.886
  1656TXY    C1 3783   3.399   2.461   3.948
  1656TXY    H1 3784   3.491   2.518   3.960
  1656TXY    H2 3785   3.373   2.423   4.046
  1656TXY    C2 3786   3.426   2.345   3.850
  1656TXY    H3 3787   3.368   2.358   3.759
  1656TXY    H4 3788   3.531   2.347   3.820
  1656TXY    C4 3789   3.396   2.205   3.909
  1656TXY    H7 3790   3.430   2.129   3.839
  1656TXY    H8 3791   3.452   2.191   4.001
  1656TXY    C6 3792   3.247   2.182   3.938
  1656TXY   H11 3793   3.187   2.192   3.847
  1656TXY   H12 3794   3.230   2.081   3.977
  1656TXY   H13 3795   3.209   2.253   4.011
  1666TXY   H16 3796   2.385   1.024   2.914
  1666TXY    C7 3797   2.330   1.038   3.006
  1666TXY   H14 3798   2.224   1.024   2.985
  1666TXY   H15 3799   2.343   1.142   3.037
  1666TXY    C5 3800   2.378   0.942   3.116
  1666TXY    H9 3801   2.325   0.965   3.208
  1666TXY   H10 3802   2.484   0.960   3.134
  1666TXY    C3 3803   2.357   0.793   3.081
  1666TXY    H5 3804   2.251   0.775   3.063
  1666TXY    H6 3805   2.384   0.733   3.169
  1666TXY    C1 3806   2.439   0.745   2.960
  1666TXY    H1 3807   2.403   0.798   2.871
  1666TXY    H2 3808   2.543   0.774   2.973
  1666TXY    C2 3809   2.428   0.594   2.935
  1666TXY    H3 3810   2.344   0.552   2.992
  1666TXY    H4 3811   2.406   0.576   2.830
  1666TXY    C4 3812   2.556   0.516   2.972
  1666TXY    H7 3813   2.545   0.412   2.940
  1666TXY    H8 3814   2.640   0.557   2.916
  1666TXY    C6 3815   2.590   0.519   3.121
  1666TXY   H11 3816   2.509   0.476   3.181
  1666TXY   H12 3817   2.681   0.463   3.142
  1666TXY   H13 3818   2.606   0.621   3.156
  1676TXY   H16 3819   3.846   3.240   1.880
  1676TXY    C7 3820   3.876   3.137   1.857
  1676TXY   H14 3821   3.809   3.070   1.910
  1676TXY   H15 3822   3.976   3.123   1.897
  1676TXY    C5 3823   3.873   3.111   1.706
  1676TXY    H9 3824   3.911   3.010   1.688
  1676TXY   H10 3825   3.942   3.179   1.656
  1676TXY    C3 3826   3.733   3.124   1.642
  1676TXY    H5 3827   3.665   3.056   1.693
  1676TXY    H6 3828   3.739   3.090   1.539
  1676TXY    C1 3829   3.676   3.267   1.646
  1676TXY    H1 3830   3.667   3.298   1.750
  1676TXY    H2 3831   3.747   3.335   1.599
  1676TXY    C2 3832   3.538   3.279   1.579
  1676TXY    H3 3833   3.496   3.180   1.561
  1676TXY    H4 3834   3.469   3.329   1.647
  1676TXY    C4 3835   3.539   3.357   1.446
  1676TXY    H7 3836   3.436   3.372   1.412
  1676TXY    H8 3837   3.581   3.456   1.463
  1676TXY    C6 3838   3.618   3.287   1.335
  1676TXY   H11 3839   3.578   3.188   1.314
  1676TXY   H12 3840   3.614   3.344   1.242
  1676TXY   H13 3841   3.723   3.276   1.361
  1686TXY   H16 3842   0.861   4.271   3.982
  1686TXY    C7 3843   0.759   4.300   3.958
  1686TXY   H14 3844   0.746   4.404   3.988
  1686TXY   H15 3845   0.692   4.240   4.019
  1686TXY    C5 3846   0.730   4.281   3.809
  1686TXY    H9 3847   0.625   4.304   3.791
  1686TXY   H10 3848   0.745   4.177   3.782
  1686TXY    C3 3849   0.817   4.370   3.717
  1686TXY    H5 3850   0.805   4.474   3.748
  1686TXY    H6 3851   0.778   4.363   3.615
  1686TXY    C1 3852   0.966   4.334   3.718
  1686TXY    H1 3853   1.005   4.346   3.819
  1686TXY    H2 3854   0.978   4.228   3.692
  1686TXY    C2 3855   1.050   4.421   3.622
  1686TXY    H3 3856   0.992   4.507   3.589
  1686TXY    H4 3857   1.136   4.461   3.676
  1686TXY    C4 3858   1.101   4.347   3.496
  1686TXY    H7 3859   1.170   4.412   3.442
  1686TXY    H8 3860   1.158   4.259   3.527
  1686TXY    C6 3861   0.989   4.304   3.401
  1686TXY   H11 3862   0.931   4.390   3.366
  1686TXY   H12 3863   1.029   4.253   3.313
  1686TXY   H13 3864   0.919   4.235   3.450
  1696TXY   H16 3865   1.606   2.980   4.672
  1696TXY    C7 3866   1.635   2.983   4.776
  1696TXY   H14 3867   1.740   3.012   4.781
  1696TXY   H15 3868   1.628   2.882   4.815
  1696TXY    C5 3869   1.548   3.080   4.857
  1696TXY    H9 3870   1.575   3.072   4.963
  1696TXY   H10 3871   1.443   3.049   4.849
  1696TXY    C3 3872   1.561   3.228   4.813
  1696TXY    H5 3873   1.666   3.256   4.818
  1696TXY    H6 3874   1.509   3.290   4.885
  1696TXY    C1 3875   1.506   3.255   4.672
  1696TXY    H1 3876   1.558   3.192   4.600
  1696TXY    H2 3877   1.401   3.226   4.669
  1696TXY    C2 3878   1.521   3.402   4.628
  1696TXY    H3 3879   1.591   3.454   4.694
  1696TXY    H4 3880   1.565   3.405   4.528
  1696TXY    C4 3881   1.388   3.481   4.625
  1696TXY    H7 3882   1.406   3.578   4.577
  1696TXY    H8 3883   1.316   3.428   4.562
  1696TXY    C6 3884   1.327   3.504   4.763
  1696TXY   H11 3885   1.395   3.561   4.827
  1696TXY   H12 3886   1.234   3.561   4.756
  1696TXY   H13 3887   1.305   3.410   4.813
  1706TXY   H16 3888   0.337   1.657   4.595
  1706TXY    C7 3889   0.307   1.746   4.540
  1706TXY   H14 3890   0.233   1.716   4.465
  1706TXY   H15 3891   0.394   1.784   4.487
  1706TXY    C5 3892   0.249   1.853   4.634
  1706TXY    H9 3893   0.224   1.942   4.575
  1706TXY   H10 3894   0.326   1.883   4.705
  1706TXY    C3 3895   0.123   1.807   4.711
  1706TXY    H5 3896   0.049   1.772   4.639
  1706TXY    H6 3897   0.080   1.894   4.761
  1706TXY    C1 3898   0.151   1.697   4.814
  1706TXY    H1 3899   0.187   1.608   4.762
  1706TXY    H2 3900   0.231   1.729   4.881
  1706TXY    C2 3901   0.026   1.658   4.896
  1706TXY    H3 3902   4.937   1.701   4.851
  1706TXY    H4 3903   0.013   1.550   4.892
  1706TXY    C4 3904   0.032   1.701   0.045
  1706TXY    H7 3905   4.946   1.659   0.097
  1706TXY    H8 3906   0.121   1.658   0.091
  1706TXY    C6 3907   0.033   1.853   0.065
  1706TXY   H11 3908   4.944   1.899   0.020
  1706TXY   H12 3909   0.034   1.879   0.170
  1706TXY   H13 3910   0.120   1.899   0.019
  1716TXY   H16 3911   3.374   4.453   0.076
  1716TXY    C7 3912   3.301   4.444   0.157
  1716TXY   H14 3913   3.269   4.544   0.185
  1716TXY   H15 3914   3.353   4.401   0.243
  1716TXY    C5 3915   3.182   4.356   0.116
  1716TXY    H9 3916   3.115   4.346   0.202
  1716TXY   H10 3917   3.218   4.257   0.091
  1716TXY    C3 3918   3.102   4.413   4.996
  1716TXY    H5 3919   3.074   4.516   0.018
  1716TXY    H6 3920   3.009   4.356   4.988
  1716TXY    C1 3921   3.178   4.407   4.863
  1716TXY    H1 3922   3.269   4.467   4.871
  1716TXY    H2 3923   3.210   4.304   4.844
  1716TXY    C2 3924   3.096   4.458   4.743
  1716TXY    H3 3925   3.012   4.519   4.778
  1716TXY    H4 3926   3.157   4.524   4.683
  1716TXY    C4 3927   3.041   4.346   4.651
  1716TXY    H7 3928   2.995   4.392   4.563
  1716TXY    H8 3929   3.124   4.285   4.615
  1716TXY    C6 3930   2.937   4.256   4.719
  1716TXY   H11 3931   2.852   4.313   4.754
  1716TXY   H12 3932   2.900   4.180   4.651
  1716TXY   H13 3933   2.980   4.204   4.805
  1726TXY   H16 3934   2.662   4.276   1.505
  1726TXY    C7 3935   2.712   4.335   1.428
  1726TXY   H14 3936   2.818   4.308   1.430
  1726TXY   H15 3937   2.705   4.440   1.456
  1726TXY    C5 3938   2.651   4.311   1.290
  1726TXY    H9 3939   2.700   4.377   1.218
  1726TXY   H10 3940   2.546   4.340   1.292
  1726TXY    C3 3941   2.663   4.165   1.240
  1726TXY    H5 3942   2.768   4.137   1.238
  1726TXY    H6 3943   2.628   4.161   1.136
  1726TXY    C1 3944   2.584   4.064   1.324
  1726TXY    H1 3945   2.625   4.062   1.425
  1726TXY    H2 3946   2.480   4.097   1.333
  1726TXY    C2 3947   2.588   3.921   1.267
  1726TXY    H3 3948   2.660   3.914   1.186
  1726TXY    H4 3949   2.623   3.852   1.345
  1726TXY    C4 3950   2.451   3.869   1.217
  1726TXY    H7 3951   2.460   3.763   1.192
  1726TXY    H8 3952   2.378   3.876   1.297
  1726TXY    C6 3953   2.399   3.944   1.094
  1726TXY   H11 3954   2.467   3.934   1.009
  1726TXY   H12 3955   2.302   3.906   1.062
  1726TXY   H13 3956   2.386   4.050   1.114
  1736TXY   H16 3957   4.042   0.937   0.754
  1736TXY    C7 3958   4.121   1.002   0.715
  1736TXY   H14 3959   4.073   1.084   0.662
  1736TXY   H15 3960   4.178   0.945   0.642
  1736TXY    C5 3961   4.211   1.055   0.827
  1736TXY    H9 3962   4.291   1.114   0.783
  1736TXY   H10 3963   4.259   0.970   0.877
  1736TXY    C3 3964   4.137   1.141   0.932
  1736TXY    H5 3965   4.085   1.222   0.880
  1736TXY    H6 3966   4.211   1.189   0.996
  1736TXY    C1 3967   4.037   1.063   1.019
  1736TXY    H1 3968   3.965   1.013   0.954
  1736TXY    H2 3969   4.091   0.985   1.073
  1736TXY    C2 3970   3.961   1.152   1.118
  1736TXY    H3 3971   3.968   1.257   1.088
  1736TXY    H4 3972   3.855   1.126   1.115
  1736TXY    C4 3973   4.007   1.141   1.265
  1736TXY    H7 3974   3.938   1.198   1.328
  1736TXY    H8 3975   4.001   1.037   1.297
  1736TXY    C6 3976   4.149   1.193   1.288
  1736TXY   H11 3977   4.160   1.296   1.254
  1736TXY   H12 3978   4.175   1.192   1.394
  1736TXY   H13 3979   4.223   1.132   1.235
  1746TXY   H16 3980   1.731   3.833   2.342
  1746TXY    C7 3981   1.834   3.867   2.328
  1746TXY   H14 3982   1.833   3.976   2.321
  1746TXY   H15 3983   1.868   3.829   2.231
  1746TXY    C5 3984   1.925   3.818   2.441
  1746TXY    H9 3985   2.028   3.848   2.419
  1746TXY   H10 3986   1.924   3.709   2.443
  1746TXY    C3 3987   1.886   3.873   2.580
  1746TXY    H5 3988   1.883   3.982   2.575
  1746TXY    H6 3989   1.966   3.848   2.651
  1746TXY    C1 3990   1.752   3.821   2.633
  1746TXY    H1 3991   1.672   3.853   2.565
  1746TXY    H2 3992   1.752   3.712   2.630
  1746TXY    C2 3993   1.719   3.871   2.774
  1746TXY    H3 3994   1.786   3.951   2.803
  1746TXY    H4 3995   1.618   3.913   2.775
  1746TXY    C4 3996   1.725   3.760   2.883
  1746TXY    H7 3997   1.688   3.801   2.977
  1746TXY    H8 3998   1.658   3.679   2.856
  1746TXY    C6 3999   1.866   3.704   2.906
  1746TXY   H11 4000   1.936   3.783   2.935
  1746TXY   H12 4001   1.866   3.629   2.984
  1746TXY   H13 4002   1.905   3.657   2.815
  1756TXY   H16 4003   1.495   2.719   4.986
  1756TXY    C7 4004   1.393   2.740   4.952
  1756TXY   H14 4005   1.342   2.645   4.939
  1756TXY   H15 4006   1.401   2.787   4.854
  1756TXY    C5 4007   1.318   2.831   0.050
  1756TXY    H9 4008   1.221   2.857   0.007
  1756TXY   H10 4009   1.373   2.925   0.061
  1756TXY    C3 4010   1.296   2.768   0.190
  1756TXY    H5 4011   1.243   2.674   0.177
  1756TXY    H6 4012   1.231   2.833   0.247
  1756TXY    C1 4013   1.426   2.743   0.268
  1756TXY    H1 4014   1.488   2.672   0.212
  1756TXY    H2 4015   1.483   2.836   0.274
  1756TXY    C2 4016   1.402   2.687   0.409
  1756TXY    H3 4017   1.299   2.655   0.420
  1756TXY    H4 4018   1.463   2.597   0.423
  1756TXY    C4 4019   1.436   2.786   0.523
  1756TXY    H7 4020   1.428   2.734   0.619
  1756TXY    H8 4021   1.539   2.819   0.513
  1756TXY    C6 4022   1.345   2.909   0.525
  1756TXY   H11 4023   1.240   2.881   0.537
  1756TXY   H12 4024   1.370   2.975   0.608
  1756TXY   H13 4025   1.353   2.967   0.433
  1766TXY   H16 4026   0.598   1.109   4.888
  1766TXY    C7 4027   0.660   1.030   4.845
  1766TXY   H14 4028   0.593   0.950   4.814
  1766TXY   H15 4029   0.723   0.991   4.925
  1766TXY    C5 4030   0.744   1.082   4.728
  1766TXY    H9 4031   0.806   1.000   4.691
  1766TXY   H10 4032   0.811   1.159   4.764
  1766TXY    C3 4033   0.659   1.138   4.611
  1766TXY    H5 4034   0.585   1.063   4.583
  1766TXY    H6 4035   0.725   1.151   4.525
  1766TXY    C1 4036   0.589   1.271   4.644
  1766TXY    H1 4037   0.524   1.256   4.730
  1766TXY    H2 4038   0.664   1.345   4.672
  1766TXY    C2 4039   0.504   1.324   4.527
  1766TXY    H3 4040   0.485   1.245   4.454
  1766TXY    H4 4041   0.406   1.354   4.565
  1766TXY    C4 4042   0.566   1.445   4.453
  1766TXY    H7 4043   0.494   1.483   4.380
  1766TXY    H8 4044   0.584   1.525   4.524
  1766TXY    C6 4045   0.697   1.412   4.380
  1766TXY   H11 4046   0.682   1.332   4.307
  1766TXY   H12 4047   0.734   1.499   4.326
  1766TXY   H13 4048   0.774   1.380   4.450
  1776TXY   H16 4049   3.811   3.734   2.361
  1776TXY    C7 4050   3.788   3.722   2.255
  1776TXY   H14 4051   3.880   3.737   2.198
  1776TXY   H15 4052   3.719   3.801   2.227
  1776TXY    C5 4053   3.727   3.584   2.226
  1776TXY    H9 4054   3.700   3.579   2.121
  1776TXY   H10 4055   3.634   3.574   2.283
  1776TXY    C3 4056   3.821   3.466   2.260
  1776TXY    H5 4057   3.915   3.480   2.207
  1776TXY    H6 4058   3.776   3.374   2.221
  1776TXY    C1 4059   3.848   3.450   2.411
  1776TXY    H1 4060   3.899   3.539   2.447
  1776TXY    H2 4061   3.753   3.443   2.464
  1776TXY    C2 4062   3.935   3.327   2.443
  1776TXY    H3 4063   3.982   3.288   2.353
  1776TXY    H4 4064   4.017   3.358   2.509
  1776TXY    C4 4065   3.859   3.211   2.513
  1776TXY    H7 4066   3.930   3.135   2.542
  1776TXY    H8 4067   3.812   3.249   2.604
  1776TXY    C6 4068   3.751   3.147   2.425
  1776TXY   H11 4069   3.794   3.107   2.333
  1776TXY   H12 4070   3.702   3.065   2.476
  1776TXY   H13 4071   3.674   3.219   2.397
  1786TXY   H16 4072   4.136   1.364   3.110
  1786TXY    C7 4073   4.222   1.426   3.083
  1786TXY   H14 4074   4.186   1.527   3.064
  1786TXY   H15 4075   4.262   1.387   2.989
  1786TXY    C5 4076   4.329   1.425   3.193
  1786TXY    H9 4077   4.415   1.482   3.158
  1786TXY   H10 4078   4.362   1.323   3.209
  1786TXY    C3 4079   4.281   1.485   3.328
  1786TXY    H5 4080   4.244   1.586   3.310
  1786TXY    H6 4081   4.367   1.494   3.394
  1786TXY    C1 4082   4.172   1.402   3.397
  1786TXY    H1 4083   4.084   1.398   3.333
  1786TXY    H2 4084   4.207   1.299   3.409
  1786TXY    C2 4085   4.130   1.459   3.534
  1786TXY    H3 4086   4.171   1.559   3.547
  1786TXY    H4 4087   4.021   1.470   3.536
  1786TXY    C4 4088   4.172   1.372   3.654
  1786TXY    H7 4089   4.127   1.412   3.745
  1786TXY    H8 4090   4.133   1.271   3.641
  1786TXY    C6 4091   4.324   1.364   3.674
  1786TXY   H11 4092   4.367   1.463   3.689
  1786TXY   H12 4093   4.349   1.304   3.761
  1786TXY   H13 4094   4.373   1.319   3.588
  1796TXY   H16 4095   0.485   2.834   3.108
  1796TXY    C7 4096   0.493   2.897   3.196
  1796TXY   H14 4097   0.559   2.847   3.267
  1796TXY   H15 4098   0.394   2.901   3.242
  1796TXY    C5 4099   0.544   3.037   3.162
  1796TXY    H9 4100   0.542   3.098   3.252
  1796TXY   H10 4101   0.475   3.083   3.091
  1796TXY    C3 4102   0.687   3.039   3.103
  1796TXY    H5 4103   0.754   2.990   3.173
  1796TXY    H6 4104   0.719   3.142   3.095
  1796TXY    C1 4105   0.698   2.970   2.965
  1796TXY    H1 4106   0.672   2.865   2.976
  1796TXY    H2 4107   0.626   3.014   2.897
  1796TXY    C2 4108   0.840   2.980   2.905
  1796TXY    H3 4109   0.911   3.015   2.980
  1796TXY    H4 4110   0.873   2.880   2.876
  1796TXY    C4 4111   0.850   3.072   2.781
  1796TXY    H7 4112   0.948   3.060   2.736
  1796TXY    H8 4113   0.777   3.040   2.706
  1796TXY    C6 4114   0.827   3.220   2.813
  1796TXY   H11 4115   0.899   3.256   2.887
  1796TXY   H12 4116   0.838   3.281   2.724
  1796TXY   H13 4117   0.727   3.237   2.853
  1806TXY   H16 4118   2.363   0.203   1.960
  1806TXY    C7 4119   2.308   0.290   1.997
  1806TXY   H14 4120   2.380   0.369   2.018
  1806TXY   H15 4121   2.263   0.261   2.092
  1806TXY    C5 4122   2.202   0.336   1.897
  1806TXY    H9 4123   2.143   0.416   1.942
  1806TXY   H10 4124   2.133   0.254   1.878
  1806TXY    C3 4125   2.260   0.386   1.763
  1806TXY    H5 4126   2.326   0.471   1.782
  1806TXY    H6 4127   2.177   0.425   1.703
  1806TXY    C1 4128   2.335   0.279   1.683
  1806TXY    H1 4129   2.420   0.244   1.741
  1806TXY    H2 4130   2.270   0.192   1.669
  1806TXY    C2 4131   2.386   0.329   1.547
  1806TXY    H3 4132   2.387   0.438   1.545
  1806TXY    H4 4133   2.489   0.297   1.533
  1806TXY    C4 4134   2.303   0.278   1.426
  1806TXY    H7 4135   2.352   0.309   1.334
  1806TXY    H8 4136   2.301   0.169   1.426
  1806TXY    C6 4137   2.158   0.330   1.424
  1806TXY   H11 4138   2.155   0.439   1.424
  1806TXY   H12 4139   2.106   0.296   1.335
  1806TXY   H13 4140   2.103   0.295   1.511
  1816TXY   H16 4141   4.441   0.210   0.489
  1816TXY    C7 4142   4.458   0.228   0.383
  1816TXY   H14 4143   4.376   0.290   0.346
  1816TXY   H15 4144   4.451   0.132   0.332
  1816TXY    C5 4145   4.593   0.294   0.357
  1816TXY    H9 4146   4.608   0.305   0.250
  1816TXY   H10 4147   4.672   0.229   0.394
  1816TXY    C3 4148   4.608   0.434   0.423
  1816TXY    H5 4149   4.524   0.496   0.392
  1816TXY    H6 4150   4.698   0.481   0.384
  1816TXY    C1 4151   4.614   0.429   0.577
  1816TXY    H1 4152   4.523   0.383   0.615
  1816TXY    H2 4153   4.697   0.364   0.607
  1816TXY    C2 4154   4.630   0.568   0.641
  1816TXY    H3 4155   4.606   0.646   0.570
  1816TXY    H4 4156   4.559   0.577   0.723
  1816TXY    C4 4157   4.772   0.596   0.698
  1816TXY    H7 4158   4.770   0.689   0.754
  1816TXY    H8 4159   4.798   0.517   0.769
  1816TXY    C6 4160   4.881   0.604   0.591
  1816TXY   H11 4161   4.858   0.682   0.518
  1816TXY   H12 4162   4.978   0.627   0.635
  1816TXY   H13 4163   4.891   0.510   0.537
  1826TXY   H16 4164   2.634   4.549   0.206
  1826TXY    C7 4165   2.593   4.457   0.248
  1826TXY   H14 4166   2.676   4.389   0.266
  1826TXY   H15 4167   2.529   4.412   0.172
  1826TXY    C5 4168   2.515   4.484   0.377
  1826TXY    H9 4169   2.469   4.391   0.411
  1826TXY   H10 4170   2.433   4.554   0.355
  1826TXY    C3 4171   2.601   4.542   0.491
  1826TXY    H5 4172   2.685   4.475   0.510
  1826TXY    H6 4173   2.541   4.544   0.583
  1826TXY    C1 4174   2.655   4.684   0.463
  1826TXY    H1 4175   2.718   4.680   0.374
  1826TXY    H2 4176   2.571   4.749   0.439
  1826TXY    C2 4177   2.736   4.743   0.579
  1826TXY    H3 4178   2.763   4.665   0.650
  1826TXY    H4 4179   2.830   4.782   0.540
  1826TXY    C4 4180   2.665   4.857   0.655
  1826TXY    H7 4181   2.734   4.900   0.727
  1826TXY    H8 4182   2.639   4.936   0.584
  1826TXY    C6 4183   2.538   4.812   0.728
  1826TXY   H11 4184   2.559   4.733   0.800
  1826TXY   H12 4185   2.493   4.895   0.783
  1826TXY   H13 4186   2.463   4.774   0.658
  1836TXY   H16 4187   0.735   3.628   1.059
  1836TXY    C7 4188   0.836   3.659   1.086
  1836TXY   H14 4189   0.830   3.762   1.121
  1836TXY   H15 4190   0.896   3.658   0.995
  1836TXY    C5 4191   0.896   3.567   1.192
  1836TXY    H9 4192   0.999   3.597   1.211
  1836TXY   H10 4193   0.900   3.465   1.153
  1836TXY    C3 4194   0.818   3.567   1.326
  1836TXY    H5 4195   0.807   3.670   1.360
  1836TXY    H6 4196   0.879   3.516   1.401
  1836TXY    C1 4197   0.680   3.500   1.318
  1836TXY    H1 4198   0.620   3.551   1.243
  1836TXY    H2 4199   0.692   3.397   1.283
  1836TXY    C2 4200   0.604   3.501   1.451
  1836TXY    H3 4201   0.650   3.571   1.521
  1836TXY    H4 4202   0.503   3.537   1.435
  1836TXY    C4 4203   0.595   3.363   1.521
  1836TXY    H7 4204   0.528   3.370   1.606
  1836TXY    H8 4205   0.551   3.291   1.451
  1836TXY    C6 4206   0.730   3.309   1.568
  1836TXY   H11 4207   0.777   3.378   1.638
  1836TXY   H12 4208   0.719   3.213   1.619
  1836TXY   H13 4209   0.799   3.294   1.485
  1846TXY   H16 4210   2.344   4.222   2.584
  1846TXY    C7 4211   2.362   4.298   2.660
  1846TXY   H14 4212   2.370   4.248   2.756
  1846TXY   H15 4213   2.275   4.363   2.664
  1846TXY    C5 4214   2.489   4.378   2.629
  1846TXY    H9 4215   2.500   4.457   2.704
  1846TXY   H10 4216   2.477   4.428   2.533
  1846TXY    C3 4217   2.618   4.293   2.626
  1846TXY    H5 4218   2.627   4.239   2.720
  1846TXY    H6 4219   2.704   4.361   2.621
  1846TXY    C1 4220   2.624   4.194   2.509
  1846TXY    H1 4221   2.539   4.126   2.515
  1846TXY    H2 4222   2.613   4.249   2.415
  1846TXY    C2 4223   2.754   4.111   2.506
  1846TXY    H3 4224   2.812   4.129   2.597
  1846TXY    H4 4225   2.729   4.005   2.506
  1846TXY    C4 4226   2.845   4.140   2.384
  1846TXY    H7 4227   2.928   4.069   2.384
  1846TXY    H8 4228   2.788   4.122   2.292
  1846TXY    C6 4229   2.902   4.282   2.381
  1846TXY   H11 4230   2.960   4.303   2.471
  1846TXY   H12 4231   2.967   4.296   2.295
  1846TXY   H13 4232   2.823   4.357   2.376
  1856TXY   H16 4233   3.481   1.884   4.094
  1856TXY    C7 4234   3.458   1.789   4.143
  1856TXY   H14 4235   3.359   1.797   4.188
  1856TXY   H15 4236   3.530   1.776   4.224
  1856TXY    C5 4237   3.464   1.673   4.044
  1856TXY    H9 4238   3.449   1.579   4.098
  1856TXY   H10 4239   3.564   1.668   4.001
  1856TXY    C3 4240   3.361   1.681   3.929
  1856TXY    H5 4241   3.261   1.683   3.972
  1856TXY    H6 4242   3.367   1.590   3.870
  1856TXY    C1 4243   3.379   1.803   3.837
  1856TXY    H1 4244   3.363   1.894   3.895
  1856TXY    H2 4245   3.482   1.806   3.801
  1856TXY    C2 4246   3.282   1.804   3.717
  1856TXY    H3 4247   3.204   1.729   3.730
  1856TXY    H4 4248   3.231   1.901   3.713
  1856TXY    C4 4249   3.351   1.781   3.580
  1856TXY    H7 4250   3.277   1.795   3.501
  1856TXY    H8 4251   3.428   1.856   3.565
  1856TXY    C6 4252   3.413   1.642   3.566
  1856TXY   H11 4253   3.338   1.564   3.579
  1856TXY   H12 4254   3.458   1.629   3.467
  1856TXY   H13 4255   3.491   1.625   3.640
  1866TXY   H16 4256   0.667   4.393   1.072
  1866TXY    C7 4257   0.576   4.418   1.018
  1866TXY   H14 4258   0.600   4.496   0.946
  1866TXY   H15 4259   0.506   4.460   1.090
  1866TXY    C5 4260   0.516   4.295   0.949
  1866TXY    H9 4261   0.420   4.323   0.904
  1866TXY   H10 4262   0.495   4.219   1.024
  1866TXY    C3 4263   0.606   4.235   0.839
  1866TXY    H5 4264   0.625   4.311   0.763
  1866TXY    H6 4265   0.551   4.155   0.790
  1866TXY    C1 4266   0.740   4.180   0.891
  1866TXY    H1 4267   0.800   4.263   0.929
  1866TXY    H2 4268   0.721   4.114   0.976
  1866TXY    C2 4269   0.822   4.107   0.783
  1866TXY    H3 4270   0.777   4.121   0.685
  1866TXY    H4 4271   0.921   4.151   0.777
  1866TXY    C4 4272   0.838   3.955   0.808
  1866TXY    H7 4273   0.908   3.914   0.736
  1866TXY    H8 4274   0.882   3.939   0.907
  1866TXY    C6 4275   0.706   3.878   0.799
  1866TXY   H11 4276   0.660   3.890   0.701
  1866TXY   H12 4277   0.722   3.771   0.815
  1866TXY   H13 4278   0.634   3.911   0.874
  1876TXY   H16 4279   4.149   4.736   0.505
  1876TXY    C7 4280   4.052   4.786   0.504
  1876TXY   H14 4281   4.062   4.881   0.557
  1876TXY   H15 4282   3.984   4.723   0.562
  1876TXY    C5 4283   4.001   4.806   0.362
  1876TXY    H9 4284   3.901   4.849   0.366
  1876TXY   H10 4285   3.991   4.709   0.313
  1876TXY    C3 4286   4.091   4.897   0.275
  1876TXY    H5 4287   4.104   4.993   0.327
  1876TXY    H6 4288   4.039   4.919   0.182
  1876TXY    C1 4289   4.229   4.837   0.244
  1876TXY    H1 4290   4.282   4.821   0.337
  1876TXY    H2 4291   4.215   4.739   0.198
  1876TXY    C2 4292   4.315   4.926   0.153
  1876TXY    H3 4293   4.275   0.028   0.151
  1876TXY    H4 4294   4.415   4.934   0.195
  1876TXY    C4 4295   4.327   4.875   0.007
  1876TXY    H7 4296   4.402   4.935   4.955
  1876TXY    H8 4297   4.365   4.773   0.009
  1876TXY    C6 4298   4.196   4.879   4.930
  1876TXY   H11 4299   4.155   4.980   4.926
  1876TXY   H12 4300   4.210   4.846   4.827
  1876TXY   H13 4301   4.120   4.815   4.975
  1886TXY   H16 4302   1.379   4.683   0.081
  1886TXY    C7 4303   1.457   4.743   0.128
  1886TXY   H14 4304   1.528   4.674   0.173
  1886TXY   H15 4305   1.410   4.800   0.208
  1886TXY    C5 4306   1.525   4.835   0.027
  1886TXY    H9 4307   1.598   4.897   0.079
  1886TXY   H10 4308   1.451   4.903   4.985
  1886TXY    C3 4309   1.597   4.761   4.911
  1886TXY    H5 4310   1.669   4.692   4.954
  1886TXY    H6 4311   1.654   4.834   4.854
  1886TXY    C1 4312   1.501   4.686   4.817
  1886TXY    H1 4313   1.451   4.607   4.874
  1886TXY    H2 4314   1.423   4.754   4.784
  1886TXY    C2 4315   1.572   4.622   4.697
  1886TXY    H3 4316   1.681   4.630   4.708
  1886TXY    H4 4317   1.550   4.516   4.694
  1886TXY    C4 4318   1.532   4.684   4.560
  1886TXY    H7 4319   1.578   4.626   4.480
  1886TXY    H8 4320   1.424   4.675   4.548
  1886TXY    C6 4321   1.573   4.831   4.545
  1886TXY   H11 4322   1.681   4.843   4.555
  1886TXY   H12 4323   1.545   4.869   4.446
  1886TXY   H13 4324   1.526   4.894   4.619
  1896TXY   H16 4325   2.699   2.496   0.627
  1896TXY    C7 4326   2.643   2.572   0.573
  1896TXY   H14 4327   2.541   2.571   0.611
  1896TXY   H15 4328   2.640   2.542   0.468
  1896TXY    C5 4329   2.708   2.710   0.588
  1896TXY    H9 4330   2.653   2.781   0.526
  1896TXY   H10 4331   2.810   2.706   0.550
  1896TXY    C3 4332   2.709   2.763   0.734
  1896TXY    H5 4333   2.607   2.764   0.771
  1896TXY    H6 4334   2.743   2.866   0.732
  1896TXY    C1 4335   2.798   2.680   0.829
  1896TXY    H1 4336   2.760   2.578   0.834
  1896TXY    H2 4337   2.899   2.674   0.787
  1896TXY    C2 4338   2.803   2.738   0.971
  1896TXY    H3 4339   2.726   2.814   0.985
  1896TXY    H4 4340   2.780   2.659   1.043
  1896TXY    C4 4341   2.939   2.800   1.010
  1896TXY    H7 4342   2.937   2.826   1.116
  1896TXY    H8 4343   3.018   2.726   0.997
  1896TXY    C6 4344   2.975   2.925   0.929
  1896TXY   H11 4345   2.899   3.003   0.941
  1896TXY   H12 4346   3.070   2.967   0.962
  1896TXY   H13 4347   2.983   2.903   0.823
  1906TXY   H16 4348   3.655   2.600   4.876
  1906TXY    C7 4349   3.695   2.582   4.976
  1906TXY   H14 4350   3.637   2.643   0.046
  1906TXY   H15 4351   3.797   2.619   4.978
  1906TXY    C5 4352   3.689   2.434   0.013
  1906TXY    H9 4353   3.736   2.420   0.111
  1906TXY   H10 4354   3.748   2.377   4.941
  1906TXY    C3 4355   3.546   2.375   0.017
  1906TXY    H5 4356   3.486   2.434   0.087
  1906TXY    H6 4357   3.551   2.274   0.058
  1906TXY    C1 4358   3.476   2.372   4.880
  1906TXY    H1 4359   3.465   2.474   4.844
  1906TXY    H2 4360   3.540   2.319   4.809
  1906TXY    C2 4361   3.337   2.306   4.885
  1906TXY    H3 4362   3.304   2.293   4.989
  1906TXY    H4 4363   3.264   2.371   4.838
  1906TXY    C4 4364   3.330   2.168   4.815
  1906TXY    H7 4365   3.227   2.134   4.812
  1906TXY    H8 4366   3.363   2.179   4.712
  1906TXY    C6 4367   3.415   2.060   4.883
  1906TXY   H11 4368   3.385   2.045   4.987
  1906TXY   H12 4369   3.405   1.964   4.832
  1906TXY   H13 4370   3.521   2.086   4.882
  1916TXY   H16 4371   0.795   0.586   2.984
  1916TXY    C7 4372   0.786   0.562   3.090
  1916TXY   H14 4373   0.703   0.619   3.131
  1916TXY   H15 4374   0.877   0.596   3.140
  1916TXY    C5 4375   0.765   0.411   3.112
  1916TXY    H9 4376   0.762   0.391   3.219
  1916TXY   H10 4377   0.850   0.357   3.071
  1916TXY    C3 4378   0.635   0.357   3.048
  1916TXY    H5 4379   0.552   0.418   3.082
  1916TXY    H6 4380   0.617   0.256   3.085
  1916TXY    C1 4381   0.637   0.355   2.894
  1916TXY    H1 4382   0.652   0.457   2.857
  1916TXY    H2 4383   0.723   0.297   2.860
  1916TXY    C2 4384   0.508   0.300   2.832
  1916TXY    H3 4385   0.429   0.295   2.908
  1916TXY    H4 4386   0.472   0.368   2.756
  1916TXY    C4 4387   0.523   0.159   2.768
  1916TXY    H7 4388   0.431   0.135   2.715
  1916TXY    H8 4389   0.602   0.162   2.694
  1916TXY    C6 4390   0.552   0.048   2.869
  1916TXY   H11 4391   0.473   0.040   2.944
  1916TXY   H12 4392   0.561   4.951   2.820
  1916TXY   H13 4393   0.645   0.066   2.923
  1926TXY   H16 4394   1.107   4.744   2.055
  1926TXY    C7 4395   1.177   4.677   2.105
  1926TXY   H14 4396   1.120   4.613   2.172
  1926TXY   H15 4397   1.243   4.738   2.167
  1926TXY    C5 4398   1.257   4.594   2.004
  1926TXY    H9 4399   1.330   4.533   2.058
  1926TXY   H10 4400   1.314   4.662   1.941
  1926TXY    C3 4401   1.169   4.503   1.915
  1926TXY    H5 4402   1.104   4.444   1.979
  1926TXY    H6 4403   1.235   4.433   1.863
  1926TXY    C1 4404   1.085   4.581   1.812
  1926TXY    H1 4405   1.020   4.651   1.865
  1926TXY    H2 4406   1.151   4.640   1.750
  1926TXY    C2 4407   0.997   4.490   1.724
  1926TXY    H3 4408   0.985   4.392   1.772
  1926TXY    H4 4409   0.898   4.533   1.717
  1926TXY    C4 4410   1.051   4.468   1.580
  1926TXY    H7 4411   0.976   4.414   1.523
  1926TXY    H8 4412   1.064   4.565   1.532
  1926TXY    C6 4413   1.183   4.391   1.574
  1926TXY   H11 4414   1.174   4.293   1.621
  1926TXY   H12 4415   1.215   4.376   1.471
  1926TXY   H13 4416   1.263   4.445   1.625
  1936TXY   H16 4417   4.942   2.290   2.872
  1936TXY    C7 4418   4.933   2.182   2.885
  1936TXY   H14 4419   4.851   2.147   2.821
  1936TXY   H15 4420   4.903   2.163   2.988
  1936TXY    C5 4421   0.064   2.110   2.852
  1936TXY    H9 4422   0.053   2.004   2.875
  1936TXY   H10 4423   0.142   2.148   2.917
  1936TXY    C3 4424   0.108   2.125   2.704
  1936TXY    H5 4425   0.026   2.093   2.640
  1936TXY    H6 4426   0.191   2.056   2.686
  1936TXY    C1 4427   0.151   2.267   2.666
  1936TXY    H1 4428   0.069   2.336   2.687
  1936TXY    H2 4429   0.234   2.298   2.730
  1936TXY    C2 4430   0.191   2.280   2.518
  1936TXY    H3 4431   0.195   2.181   2.471
  1936TXY    H4 4432   0.114   2.335   2.465
  1936TXY    C4 4433   0.327   2.350   2.494
  1936TXY    H7 4434   0.337   2.371   2.388
  1936TXY    H8 4435   0.327   2.446   2.546
  1936TXY    C6 4436   0.447   2.267   2.541
  1936TXY   H11 4437   0.449   2.170   2.491
  1936TXY   H12 4438   0.541   2.318   2.518
  1936TXY   H13 4439   0.444   2.249   2.648
  1946TXY   H16 4440   4.858   4.239   3.619
  1946TXY    C7 4441   4.883   4.294   3.710
  1946TXY   H14 4442   4.793   4.345   3.744
  1946TXY   H15 4443   4.956   4.370   3.683
  1946TXY    C5 4444   4.938   4.200   3.818
  1946TXY    H9 4445   4.969   4.260   3.904
  1946TXY   H10 4446   0.028   4.151   3.781
  1946TXY    C3 4447   4.837   4.093   3.866
  1946TXY    H5 4448   4.746   4.143   3.897
  1946TXY    H6 4449   4.878   4.044   3.954
  1946TXY    C1 4450   4.804   3.987   3.759
  1946TXY    H1 4451   4.763   4.037   3.671
  1946TXY    H2 4452   4.896   3.937   3.728
  1946TXY    C2 4453   4.701   3.883   3.808
  1946TXY    H3 4454   4.651   3.918   3.899
  1946TXY    H4 4455   4.623   3.872   3.733
  1946TXY    C4 4456   4.761   3.743   3.836
  1946TXY    H7 4457   4.679   3.674   3.858
  1946TXY    H8 4458   4.810   3.706   3.746
  1946TXY    C6 4459   4.860   3.740   3.953
  1946TXY   H11 4460   4.813   3.776   4.045
  1946TXY   H12 4461   4.896   3.639   3.971
  1946TXY   H13 4462   4.947   3.803   3.933
  1956TXY   H16 4463   2.926   0.740   1.749
  1956TXY    C7 4464   2.875   0.778   1.660
  1956TXY   H14 4465   2.865   0.695   1.590
  1956TXY   H15 4466   2.940   0.853   1.614
  1956TXY    C5 4467   2.738   0.837   1.694
  1956TXY    H9 4468   2.694   0.880   1.604
  1956TXY   H10 4469   2.752   0.920   1.765
  1956TXY    C3 4470   2.639   0.735   1.755
  1956TXY    H5 4471   2.629   0.651   1.686
  1956TXY    H6 4472   2.540   0.782   1.760
  1956TXY    C1 4473   2.679   0.684   1.894
  1956TXY    H1 4474   2.774   0.631   1.886
  1956TXY    H2 4475   2.697   0.769   1.960
  1956TXY    C2 4476   2.575   0.590   1.956
  1956TXY    H3 4477   2.506   0.554   1.880
  1956TXY    H4 4478   2.626   0.501   1.995
  1956TXY    C4 4479   2.493   0.653   2.072
  1956TXY    H7 4480   2.431   0.576   2.117
  1956TXY    H8 4481   2.561   0.688   2.149
  1956TXY    C6 4482   2.403   0.768   2.027
  1956TXY   H11 4483   2.332   0.736   1.951
  1956TXY   H12 4484   2.345   0.808   2.111
  1956TXY   H13 4485   2.461   0.851   1.986
  1966TXY   H16 4486   3.352   4.055   1.898
  1966TXY    C7 4487   3.451   4.026   1.864
  1966TXY   H14 4488   3.504   4.115   1.831
  1966TXY   H15 4489   3.438   3.962   1.776
  1966TXY    C5 4490   3.529   3.953   1.974
  1966TXY    H9 4491   3.623   3.916   1.932
  1966TXY   H10 4492   3.472   3.865   2.005
  1966TXY    C3 4493   3.559   4.041   2.097
  1966TXY    H5 4494   3.607   4.133   2.063
  1966TXY    H6 4495   3.632   3.990   2.160
  1966TXY    C1 4496   3.434   4.076   2.180
  1966TXY    H1 4497   3.366   4.134   2.118
  1966TXY    H2 4498   3.382   3.984   2.206
  1966TXY    C2 4499   3.467   4.156   2.307
  1966TXY    H3 4500   3.569   4.195   2.302
  1966TXY    H4 4501   3.401   4.242   2.313
  1966TXY    C4 4502   3.452   4.074   2.438
  1966TXY    H7 4503   3.464   4.142   2.523
  1966TXY    H8 4504   3.351   4.034   2.444
  1966TXY    C6 4505   3.552   3.959   2.452
  1966TXY   H11 4506   3.655   3.995   2.446
  1966TXY   H12 4507   3.541   3.908   2.547
  1966TXY   H13 4508   3.538   3.885   2.373
  1976TXY   H16 4509   0.475   1.958   3.002
  1976TXY    C7 4510   0.381   1.904   2.992
  1976TXY   H14 4511   0.404   1.797   2.997
  1976TXY   H15 4512   0.343   1.924   2.892
  1976TXY    C5 4513   0.280   1.944   3.099
  1976TXY    H9 4514   0.186   1.893   3.080
  1976TXY   H10 4515   0.260   2.051   3.090
  1976TXY    C3 4516   0.325   1.914   3.244
  1976TXY    H5 4517   0.346   1.807   3.252
  1976TXY    H6 4518   0.242   1.934   3.311
  1976TXY    C1 4519   0.448   1.994   3.289
  1976TXY    H1 4520   0.533   1.966   3.227
  1976TXY    H2 4521   0.430   2.100   3.271
  1976TXY    C2 4522   0.485   1.971   3.436
  1976TXY    H3 4523   0.431   1.885   3.476
  1976TXY    H4 4524   0.591   1.947   3.443
  1976TXY    C4 4525   0.458   2.093   3.528
  1976TXY    H7 4526   0.498   2.072   3.627
  1976TXY    H8 4527   0.512   2.180   3.489
  1976TXY    C6 4528   0.309   2.128   3.541
  1976TXY   H11 4529   0.252   2.044   3.580
  1976TXY   H12 4530   0.295   2.213   3.608
  1976TXY   H13 4531   0.266   2.155   3.444
  1986TXY   H16 4532   4.415   2.302   3.382
  1986TXY    C7 4533   4.309   2.277   3.375
  1986TXY   H14 4534   4.275   2.249   3.474
  1986TXY   H15 4535   4.300   2.189   3.311
  1986TXY    C5 4536   4.228   2.395   3.319
  1986TXY    H9 4537   4.125   2.362   3.304
  1986TXY   H10 4538   4.268   2.421   3.221
  1986TXY    C3 4539   4.229   2.520   3.411
  1986TXY    H5 4540   4.194   2.491   3.510
  1986TXY    H6 4541   4.157   2.591   3.371
  1986TXY    C1 4542   4.367   2.587   3.423
  1986TXY    H1 4543   4.437   2.516   3.466
  1986TXY    H2 4544   4.404   2.611   3.323
  1986TXY    C2 4545   4.365   2.713   3.510
  1986TXY    H3 4546   4.274   2.716   3.571
  1986TXY    H4 4547   4.448   2.710   3.581
  1986TXY    C4 4548   4.375   2.846   3.430
  1986TXY    H7 4549   4.385   2.928   3.501
  1986TXY    H8 4550   4.466   2.844   3.370
  1986TXY    C6 4551   4.255   2.872   3.339
  1986TXY   H11 4552   4.162   2.875   3.396
  1986TXY   H12 4553   4.266   2.968   3.288
  1986TXY   H13 4554   4.245   2.795   3.263
  1996TXY   H16 4555   2.035   1.957   2.944
  1996TXY    C7 4556   1.944   1.990   2.994
  1996TXY   H14 4557   1.947   2.099   3.001
  1996TXY   H15 4558   1.946   1.951   3.095
  1996TXY    C5 4559   1.818   1.943   2.920
  1996TXY    H9 4560   1.730   1.971   2.977
  1996TXY   H10 4561   1.819   1.834   2.915
  1996TXY    C3 4562   1.805   2.000   2.776
  1996TXY    H5 4563   1.810   2.109   2.782
  1996TXY    H6 4564   1.705   1.975   2.739
  1996TXY    C1 4565   1.911   1.947   2.679
  1996TXY    H1 4566   2.010   1.976   2.715
  1996TXY    H2 4567   1.909   1.838   2.678
  1996TXY    C2 4568   1.894   2.001   2.536
  1996TXY    H3 4569   1.825   2.086   2.535
  1996TXY    H4 4570   1.990   2.040   2.500
  1996TXY    C4 4571   1.844   1.896   2.433
  1996TXY    H7 4572   1.848   1.939   2.333
  1996TXY    H8 4573   1.912   1.811   2.434
  1996TXY    C6 4574   1.702   1.846   2.461
  1996TXY   H11 4575   1.630   1.929   2.459
  1996TXY   H12 4576   1.670   1.774   2.385
  1996TXY   H13 4577   1.695   1.798   2.558
  2006TXY   H16 4578   4.681   3.238   2.999
  2006TXY    C7 4579   4.683   3.298   3.090
  2006TXY   H14 4580   4.777   3.353   3.092
  2006TXY   H15 4581   4.684   3.228   3.175
  2006TXY    C5 4582   4.563   3.393   3.099
  2006TXY    H9 4583   4.566   3.444   3.195
  2006TXY   H10 4584   4.471   3.334   3.097
  2006TXY    C3 4585   4.559   3.498   2.986
  2006TXY    H5 4586   4.651   3.556   2.988
  2006TXY    H6 4587   4.478   3.568   3.007
  2006TXY    C1 4588   4.539   3.438   2.846
  2006TXY    H1 4589   4.624   3.374   2.823
  2006TXY    H2 4590   4.450   3.375   2.846
  2006TXY    C2 4591   4.527   3.545   2.735
  2006TXY    H3 4592   4.556   3.643   2.773
  2006TXY    H4 4593   4.598   3.521   2.655
  2006TXY    C4 4594   4.386   3.555   2.673
  2006TXY    H7 4595   4.390   3.622   2.587
  2006TXY    H8 4596   4.356   3.457   2.635
  2006TXY    C6 4597   4.279   3.606   2.770
  2006TXY   H11 4598   4.304   3.705   2.808
  2006TXY   H12 4599   4.182   3.613   2.722
  2006TXY   H13 4600   4.269   3.539   2.856
  2016TXY   H16 4601   3.270   2.169   1.519
  2016TXY    C7 4602   3.238   2.258   1.573
  2016TXY   H14 4603   3.327   2.316   1.596
  2016TXY   H15 4604   3.195   2.225   1.668
  2016TXY    C5 4605   3.137   2.340   1.492
  2016TXY    H9 4606   3.104   2.424   1.553
  2016TXY   H10 4607   3.049   2.278   1.473
  2016TXY    C3 4608   3.193   2.393   1.358
  2016TXY    H5 4609   3.284   2.449   1.379
  2016TXY    H6 4610   3.121   2.464   1.316
  2016TXY    C1 4611   3.223   2.283   1.255
  2016TXY    H1 4612   3.303   2.220   1.293
  2016TXY    H2 4613   3.135   2.218   1.245
  2016TXY    C2 4614   3.264   2.338   1.118
  2016TXY    H3 4615   3.289   2.444   1.125
  2016TXY    H4 4616   3.355   2.288   1.085
  2016TXY    C4 4617   3.156   2.321   1.007
  2016TXY    H7 4618   3.198   2.353   0.912
  2016TXY    H8 4619   3.132   2.215   0.997
  2016TXY    C6 4620   3.027   2.399   1.035
  2016TXY   H11 4621   3.047   2.506   1.043
  2016TXY   H12 4622   2.955   2.386   0.954
  2016TXY   H13 4623   2.980   2.367   1.127
  2026TXY   H16 4624   1.280   4.076   3.782
  2026TXY    C7 4625   1.375   4.043   3.825
  2026TXY   H14 4626   1.449   4.119   3.803
  2026TXY   H15 4627   1.405   3.952   3.772
  2026TXY    C5 4628   1.363   4.016   3.975
  2026TXY    H9 4629   1.459   3.979   4.012
  2026TXY   H10 4630   1.290   3.937   3.992
  2026TXY    C3 4631   1.324   4.141   4.058
  2026TXY    H5 4632   1.395   4.221   4.037
  2026TXY    H6 4633   1.334   4.117   4.164
  2026TXY    C1 4634   1.181   4.191   4.031
  2026TXY    H1 4635   1.173   4.219   3.926
  2026TXY    H2 4636   1.110   4.109   4.047
  2026TXY    C2 4637   1.142   4.312   4.117
  2026TXY    H3 4638   1.231   4.358   4.161
  2026TXY    H4 4639   1.096   4.388   4.054
  2026TXY    C4 4640   1.043   4.280   4.231
  2026TXY    H7 4641   1.013   4.373   4.280
  2026TXY    H8 4642   0.952   4.237   4.189
  2026TXY    C6 4643   1.099   4.184   4.337
  2026TXY   H11 4644   1.189   4.225   4.383
  2026TXY   H12 4645   1.026   4.167   4.417
  2026TXY   H13 4646   1.124   4.087   4.294
  2036TXY   H16 4647   2.678   3.860   0.939
  2036TXY    C7 4648   2.737   3.941   0.896
  2036TXY   H14 4649   2.832   3.899   0.862
  2036TXY   H15 4650   2.759   4.011   0.976
  2036TXY    C5 4651   2.663   4.010   0.781
  2036TXY    H9 4652   2.724   4.092   0.743
  2036TXY   H10 4653   2.571   4.054   0.820
  2036TXY    C3 4654   2.628   3.915   0.664
  2036TXY    H5 4655   2.719   3.864   0.632
  2036TXY    H6 4656   2.595   3.976   0.579
  2036TXY    C1 4657   2.519   3.812   0.698
  2036TXY    H1 4658   2.553   3.752   0.783
  2036TXY    H2 4659   2.429   3.864   0.730
  2036TXY    C2 4660   2.487   3.716   0.581
  2036TXY    H3 4661   2.568   3.717   0.508
  2036TXY    H4 4662   2.482   3.614   0.619
  2036TXY    C4 4663   2.354   3.747   0.509
  2036TXY    H7 4664   2.334   3.667   0.437
  2036TXY    H8 4665   2.272   3.747   0.581
  2036TXY    C6 4666   2.354   3.881   0.434
  2036TXY   H11 4667   2.435   3.886   0.362
  2036TXY   H12 4668   2.261   3.896   0.380
  2036TXY   H13 4669   2.365   3.965   0.503
  2046TXY   H16 4670   1.957   0.425   0.060
  2046TXY    C7 4671   2.038   0.498   0.068
  2046TXY   H14 4672   2.011   0.584   0.008
  2046TXY   H15 4673   2.127   0.453   0.024
  2046TXY    C5 4674   2.064   0.538   0.214
  2046TXY    H9 4675   2.149   0.606   0.217
  2046TXY   H10 4676   2.092   0.449   0.271
  2046TXY    C3 4677   1.943   0.606   0.282
  2046TXY    H5 4678   1.913   0.692   0.223
  2046TXY    H6 4679   1.976   0.645   0.379
  2046TXY    C1 4680   1.823   0.512   0.303
  2046TXY    H1 4681   1.790   0.475   0.206
  2046TXY    H2 4682   1.854   0.425   0.361
  2046TXY    C2 4683   1.704   0.581   0.372
  2046TXY    H3 4684   1.718   0.690   0.373
  2046TXY    H4 4685   1.613   0.564   0.313
  2046TXY    C4 4686   1.678   0.533   0.516
  2046TXY    H7 4687   1.585   0.578   0.553
  2046TXY    H8 4688   1.663   0.425   0.516
  2046TXY    C6 4689   1.791   0.567   0.614
  2046TXY   H11 4690   1.808   0.675   0.618
  2046TXY   H12 4691   1.767   0.534   0.715
  2046TXY   H13 4692   1.884   0.519   0.585
  2056TXY   H16 4693   0.711   4.388   4.500
  2056TXY    C7 4694   0.716   4.371   4.393
  2056TXY   H14 4695   0.769   4.277   4.377
  2056TXY   H15 4696   0.777   4.450   4.350
  2056TXY    C5 4697   0.577   4.367   4.330
  2056TXY    H9 4698   0.587   4.357   4.222
  2056TXY   H10 4699   0.527   4.462   4.348
  2056TXY    C3 4700   0.487   4.252   4.382
  2056TXY    H5 4701   0.539   4.157   4.365
  2056TXY    H6 4702   0.397   4.248   4.322
  2056TXY    C1 4703   0.450   4.264   4.531
  2056TXY    H1 4704   0.541   4.261   4.590
  2056TXY    H2 4705   0.404   4.362   4.548
  2056TXY    C2 4706   0.356   4.153   4.579
  2056TXY    H3 4707   0.352   4.072   4.506
  2056TXY    H4 4708   0.397   4.109   4.670
  2056TXY    C4 4709   0.212   4.199   4.610
  2056TXY    H7 4710   0.157   4.117   4.654
  2056TXY    H8 4711   0.215   4.279   4.684
  2056TXY    C6 4712   0.136   4.249   4.486
  2056TXY   H11 4713   0.127   4.171   4.411
  2056TXY   H12 4714   0.035   4.280   4.513
  2056TXY   H13 4715   0.185   4.334   4.440
  2066TXY   H16 4716   2.876   0.443   4.812
  2066TXY    C7 4717   2.804   0.362   4.816
  2066TXY   H14 4718   2.859   0.268   4.827
  2066TXY   H15 4719   2.752   0.359   4.720
  2066TXY    C5 4720   2.704   0.381   4.931
  2066TXY    H9 4721   2.630   0.301   4.927
  2066TXY   H10 4722   2.651   0.474   4.916
  2066TXY    C3 4723   2.770   0.382   0.071
  2066TXY    H5 4724   2.831   0.293   0.082
  2066TXY    H6 4725   2.691   0.376   0.146
  2066TXY    C1 4726   2.856   0.507   0.097
  2066TXY    H1 4727   2.934   0.513   0.022
  2066TXY    H2 4728   2.794   0.596   0.085
  2066TXY    C2 4729   2.921   0.508   0.237
  2066TXY    H3 4730   2.913   0.410   0.283
  2066TXY    H4 4731   3.028   0.528   0.226
  2066TXY    C4 4732   2.862   0.613   0.334
  2066TXY    H7 4733   2.923   0.616   0.424
  2066TXY    H8 4734   2.868   0.712   0.289
  2066TXY    C6 4735   2.716   0.585   0.373
  2066TXY   H11 4736   2.706   0.487   0.420
  2066TXY   H12 4737   2.680   0.659   0.444
  2066TXY   H13 4738   2.651   0.587   0.286
  2076TXY   H16 4739   4.243   4.414   0.726
  2076TXY    C7 4740   4.236   4.519   0.701
  2076TXY   H14 4741   4.131   4.545   0.692
  2076TXY   H15 4742   4.281   4.532   0.602
  2076TXY    C5 4743   4.306   4.607   0.805
  2076TXY    H9 4744   4.303   4.711   0.771
  2076TXY   H10 4745   4.411   4.579   0.810
  2076TXY    C3 4746   4.244   4.598   0.946
  2076TXY    H5 4747   4.138   4.626   0.940
  2076TXY    H6 4748   4.292   4.674   1.009
  2076TXY    C1 4749   4.258   4.460   1.011
  2076TXY    H1 4750   4.204   4.387   0.951
  2076TXY    H2 4751   4.362   4.430   1.011
  2076TXY    C2 4752   4.202   4.455   1.155
  2076TXY    H3 4753   4.139   4.542   1.174
  2076TXY    H4 4754   4.138   4.368   1.166
  2076TXY    C4 4755   4.311   4.448   1.265
  2076TXY    H7 4756   4.263   4.435   1.362
  2076TXY    H8 4757   4.374   4.360   1.248
  2076TXY    C6 4758   4.401   4.573   1.270
  2076TXY   H11 4759   4.343   4.663   1.289
  2076TXY   H12 4760   4.475   4.564   1.349
  2076TXY   H13 4761   4.455   4.587   1.176
  2086TXY   H16 4762   1.702   1.032   4.231
  2086TXY    C7 4763   1.739   0.950   4.294
  2086TXY   H14 4764   1.661   0.874   4.299
  2086TXY   H15 4765   1.752   0.990   4.395
  2086TXY    C5 4766   1.870   0.893   4.241
  2086TXY    H9 4767   1.907   0.818   4.311
  2086TXY   H10 4768   1.945   0.972   4.238
  2086TXY    C3 4769   1.858   0.828   4.101
  2086TXY    H5 4770   1.781   0.751   4.104
  2086TXY    H6 4771   1.952   0.777   4.078
  2086TXY    C1 4772   1.827   0.928   3.989
  2086TXY    H1 4773   1.730   0.975   4.009
  2086TXY    H2 4774   1.901   1.008   3.989
  2086TXY    C2 4775   1.821   0.863   3.849
  2086TXY    H3 4776   1.812   0.755   3.858
  2086TXY    H4 4777   1.731   0.897   3.798
  2086TXY    C4 4778   1.942   0.896   3.759
  2086TXY    H7 4779   1.923   0.857   3.659
  2086TXY    H8 4780   1.952   1.004   3.750
  2086TXY    C6 4781   2.074   0.838   3.810
  2086TXY   H11 4782   2.069   0.729   3.818
  2086TXY   H12 4783   2.157   0.862   3.743
  2086TXY   H13 4784   2.100   0.877   3.908
  2096TXY   H16 4785   0.582   4.861   0.204
  2096TXY    C7 4786   0.475   4.880   0.216
  2096TXY   H14 4787   0.450   4.967   0.154
  2096TXY   H15 4788   0.458   4.908   0.320
  2096TXY    C5 4789   0.391   4.758   0.178
  2096TXY    H9 4790   0.287   4.780   0.198
  2096TXY   H10 4791   0.419   4.674   0.242
  2096TXY    C3 4792   0.406   4.716   0.029
  2096TXY    H5 4793   0.377   4.800   4.966
  2096TXY    H6 4794   0.335   4.636   0.009
  2096TXY    C1 4795   0.548   4.670   4.992
  2096TXY    H1 4796   0.617   4.753   0.006
  2096TXY    H2 4797   0.579   4.590   0.060
  2096TXY    C2 4798   0.559   4.622   4.846
  2096TXY    H3 4799   0.472   4.653   4.788
  2096TXY    H4 4800   0.645   4.671   4.799
  2096TXY    C4 4801   0.577   4.469   4.831
  2096TXY    H7 4802   0.599   4.446   4.726
  2096TXY    H8 4803   0.664   4.437   4.888
  2096TXY    C6 4804   0.455   4.388   4.875
  2096TXY   H11 4805   0.366   4.417   4.819
  2096TXY   H12 4806   0.470   4.282   4.860
  2096TXY   H13 4807   0.433   4.403   4.981
  2106TXY   H16 4808   2.205   3.712   1.558
  2106TXY    C7 4809   2.104   3.711   1.517
  2106TXY   H14 4810   2.053   3.622   1.555
  2106TXY   H15 4811   2.113   3.701   1.409
  2106TXY    C5 4812   2.027   3.839   1.553
  2106TXY    H9 4813   1.930   3.837   1.504
  2106TXY   H10 4814   2.082   3.924   1.514
  2106TXY    C3 4815   2.006   3.859   1.705
  2106TXY    H5 4816   1.959   3.770   1.746
  2106TXY    H6 4817   1.936   3.941   1.720
  2106TXY    C1 4818   2.137   3.888   1.782
  2106TXY    H1 4819   2.204   3.802   1.771
  2106TXY    H2 4820   2.187   3.973   1.737
  2106TXY    C2 4821   2.114   3.913   1.932
  2106TXY    H3 4822   2.014   3.882   1.961
  2106TXY    H4 4823   2.183   3.852   1.990
  2106TXY    C4 4824   2.134   4.061   1.975
  2106TXY    H7 4825   2.129   4.067   2.083
  2106TXY    H8 4826   2.234   4.094   1.945
  2106TXY    C6 4827   2.030   4.157   1.915
  2106TXY   H11 4828   1.929   4.129   1.944
  2106TXY   H12 4829   2.047   4.259   1.949
  2106TXY   H13 4830   2.035   4.158   1.806
  2116TXY   H16 4831   4.903   4.755   1.753
  2116TXY    C7 4832   4.866   4.660   1.792
  2116TXY   H14 4833   4.897   4.582   1.722
  2116TXY   H15 4834   4.757   4.664   1.791
  2116TXY    C5 4835   4.919   4.633   1.933
  2116TXY    H9 4836   4.879   4.537   1.968
  2116TXY   H10 4837   4.880   4.709   2.001
  2116TXY    C3 4838   0.073   4.629   1.942
  2116TXY    H5 4839   0.111   4.558   1.869
  2116TXY    H6 4840   0.101   4.591   2.040
  2116TXY    C1 4841   0.139   4.766   1.920
  2116TXY    H1 4842   0.114   4.802   1.820
  2116TXY    H2 4843   0.097   4.838   1.990
  2116TXY    C2 4844   0.293   4.762   1.933
  2116TXY    H3 4845   0.328   4.659   1.930
  2116TXY    H4 4846   0.337   4.814   1.848
  2116TXY    C4 4847   0.347   4.828   2.063
  2116TXY    H7 4848   0.456   4.833   2.057
  2116TXY    H8 4849   0.311   4.931   2.069
  2116TXY    C6 4850   0.307   4.754   2.191
  2116TXY   H11 4851   0.342   4.651   2.189
  2116TXY   H12 4852   0.349   4.802   2.279
  2116TXY   H13 4853   0.198   4.752   2.204
  2126TXY   H16 4854   3.429   1.097   4.751
  2126TXY    C7 4855   3.491   1.171   4.801
  2126TXY   H14 4856   3.594   1.153   4.771
  2126TXY   H15 4857   3.484   1.152   4.908
  2126TXY    C5 4858   3.448   1.314   4.768
  2126TXY    H9 4859   3.510   1.384   4.824
  2126TXY   H10 4860   3.345   1.328   4.801
  2126TXY    C3 4861   3.458   1.347   4.617
  2126TXY    H5 4862   3.557   1.319   4.582
  2126TXY    H6 4863   3.450   1.456   4.605
  2126TXY    C1 4864   3.352   1.278   4.531
  2126TXY    H1 4865   3.357   1.170   4.547
  2126TXY    H2 4866   3.252   1.309   4.563
  2126TXY    C2 4867   3.369   1.306   4.380
  2126TXY    H3 4868   3.468   1.346   4.361
  2126TXY    H4 4869   3.363   1.212   4.325
  2126TXY    C4 4870   3.265   1.404   4.321
  2126TXY    H7 4871   3.276   1.405   4.212
  2126TXY    H8 4872   3.164   1.368   4.343
  2126TXY    C6 4873   3.279   1.547   4.373
  2126TXY   H11 4874   3.379   1.586   4.354
  2126TXY   H12 4875   3.208   1.614   4.325
  2126TXY   H13 4876   3.261   1.551   4.481
  2136TXY   H16 4877   1.465   3.282   1.758
  2136TXY    C7 4878   1.523   3.348   1.823
  2136TXY   H14 4879   1.567   3.425   1.760
  2136TXY   H15 4880   1.604   3.289   1.866
  2136TXY    C5 4881   1.435   3.409   1.933
  2136TXY    H9 4882   1.498   3.468   1.999
  2136TXY   H10 4883   1.393   3.329   1.993
  2136TXY    C3 4884   1.321   3.499   1.879
  2136TXY    H5 4885   1.364   3.577   1.817
  2136TXY    H6 4886   1.274   3.549   1.964
  2136TXY    C1 4887   1.214   3.421   1.799
  2136TXY    H1 4888   1.261   3.378   1.711
  2136TXY    H2 4889   1.178   3.338   1.860
  2136TXY    C2 4890   1.097   3.510   1.754
  2136TXY    H3 4891   1.124   3.615   1.761
  2136TXY    H4 4892   1.075   3.491   1.649
  2136TXY    C4 4893   0.967   3.487   1.835
  2136TXY    H7 4894   0.886   3.543   1.788
  2136TXY    H8 4895   0.940   3.382   1.830
  2136TXY    C6 4896   0.977   3.529   1.982
  2136TXY   H11 4897   1.005   3.634   1.991
  2136TXY   H12 4898   0.882   3.516   2.033
  2136TXY   H13 4899   1.051   3.470   2.035
  2146TXY   H16 4900   2.577   3.307   4.716
  2146TXY    C7 4901   2.536   3.221   4.769
  2146TXY   H14 4902   2.435   3.245   4.800
  2146TXY   H15 4903   2.595   3.207   4.860
  2146TXY    C5 4904   2.539   3.094   4.682
  2146TXY    H9 4905   2.505   3.010   4.742
  2146TXY   H10 4906   2.642   3.074   4.653
  2146TXY    C3 4907   2.451   3.104   4.555
  2146TXY    H5 4908   2.348   3.125   4.585
  2146TXY    H6 4909   2.450   3.006   4.508
  2146TXY    C1 4910   2.499   3.209   4.453
  2146TXY    H1 4911   2.498   3.307   4.501
  2146TXY    H2 4912   2.602   3.188   4.426
  2146TXY    C2 4913   2.411   3.215   4.327
  2146TXY    H3 4914   2.318   3.160   4.342
  2146TXY    H4 4915   2.382   3.318   4.308
  2146TXY    C4 4916   2.480   3.160   4.199
  2146TXY    H7 4917   2.416   3.180   4.113
  2146TXY    H8 4918   2.573   3.214   4.183
  2146TXY    C6 4919   2.509   3.010   4.205
  2146TXY   H11 4920   2.417   2.953   4.220
  2146TXY   H12 4921   2.554   2.975   4.112
  2146TXY   H13 4922   2.577   2.985   4.286
  2156TXY   H16 4923   2.597   0.168   1.915
  2156TXY    C7 4924   2.700   0.173   1.880
  2156TXY   H14 4925   2.714   0.270   1.831
  2156TXY   H15 4926   2.714   0.096   1.805
  2156TXY    C5 4927   2.800   0.156   1.996
  2156TXY    H9 4928   2.901   0.155   1.955
  2156TXY   H10 4929   2.783   0.059   2.043
  2156TXY    C3 4930   2.790   0.267   2.104
  2156TXY    H5 4931   2.801   0.364   2.055
  2156TXY    H6 4932   2.874   0.256   2.172
  2156TXY    C1 4933   2.658   0.264   2.183
  2156TXY    H1 4934   2.574   0.272   2.114
  2156TXY    H2 4935   2.649   0.168   2.234
  2156TXY    C2 4936   2.647   0.378   2.286
  2156TXY    H3 4937   2.724   0.454   2.268
  2156TXY    H4 4938   2.551   0.429   2.273
  2156TXY    C4 4939   2.657   0.333   2.434
  2156TXY    H7 4940   2.633   0.417   2.499
  2156TXY    H8 4941   2.582   0.256   2.453
  2156TXY    C6 4942   2.795   0.279   2.473
  2156TXY   H11 4943   2.872   0.354   2.458
  2156TXY   H12 4944   2.797   0.250   2.578
  2156TXY   H13 4945   2.821   0.191   2.414
  2166TXY   H16 4946   1.329   2.925   4.043
  2166TXY    C7 4947   1.249   2.996   4.060
  2166TXY   H14 4948   1.218   3.036   3.963
  2166TXY   H15 4949   1.289   3.079   4.118
  2166TXY    C5 4950   1.130   2.932   4.132
  2166TXY    H9 4951   1.056   3.008   4.154
  2166TXY   H10 4952   1.165   2.893   4.228
  2166TXY    C3 4953   1.063   2.817   4.053
  2166TXY    H5 4954   1.030   2.856   3.957
  2166TXY    H6 4955   0.973   2.787   4.107
  2166TXY    C1 4956   1.154   2.695   4.031
  2166TXY    H1 4957   1.236   2.724   3.966
  2166TXY    H2 4958   1.197   2.665   4.126
  2166TXY    C2 4959   1.080   2.577   3.966
  2166TXY    H3 4960   0.986   2.610   3.922
  2166TXY    H4 4961   1.140   2.537   3.884
  2166TXY    C4 4962   1.050   2.460   4.064
  2166TXY    H7 4963   1.006   2.377   4.009
  2166TXY    H8 4964   1.144   2.424   4.107
  2166TXY    C6 4965   0.955   2.499   4.179
  2166TXY   H11 4966   0.861   2.537   4.140
  2166TXY   H12 4967   0.932   2.413   4.241
  2166TXY   H13 4968   0.999   2.575   4.243
  2176TXY   H16 4969   3.427   1.414   2.331
  2176TXY    C7 4970   3.439   1.516   2.293
  2176TXY   H14 4971   3.480   1.509   2.192
  2176TXY   H15 4972   3.513   1.566   2.355
  2176TXY    C5 4973   3.306   1.592   2.294
  2176TXY    H9 4974   3.325   1.695   2.262
  2176TXY   H10 4975   3.269   1.597   2.396
  2176TXY    C3 4976   3.197   1.530   2.203
  2176TXY    H5 4977   3.237   1.523   2.101
  2176TXY    H6 4978   3.113   1.600   2.198
  2176TXY    C1 4979   3.148   1.393   2.250
  2176TXY    H1 4980   3.232   1.323   2.250
  2176TXY    H2 4981   3.114   1.400   2.353
  2176TXY    C2 4982   3.036   1.334   2.161
  2176TXY    H3 4983   3.018   1.399   2.075
  2176TXY    H4 4984   3.069   1.239   2.121
  2176TXY    C4 4985   2.902   1.312   2.234
  2176TXY    H7 4986   2.834   1.257   2.169
  2176TXY    H8 4987   2.918   1.250   2.322
  2176TXY    C6 4988   2.833   1.442   2.278
  2176TXY   H11 4989   2.811   1.506   2.192
  2176TXY   H12 4990   2.738   1.422   2.328
  2176TXY   H13 4991   2.895   1.500   2.346
  2186TXY   H16 4992   4.831   2.896   4.233
  2186TXY    C7 4993   4.900   2.811   4.229
  2186TXY   H14 4994   4.975   2.834   4.154
  2186TXY   H15 4995   4.843   2.725   4.194
  2186TXY    C5 4996   4.964   2.783   4.365
  2186TXY    H9 4997   0.027   2.695   4.357
  2186TXY   H10 4998   4.885   2.759   4.437
  2186TXY    C3 4999   0.049   2.901   4.420
  2186TXY    H5 5000   0.123   2.928   4.345
  2186TXY    H6 5001   0.104   2.865   4.507
  2186TXY    C1 5002   4.965   3.024   4.459
  2186TXY    H1 5003   4.917   3.063   4.369
  2186TXY    H2 5004   4.886   2.994   4.527
  2186TXY    C2 5005   0.050   3.136   4.521
  2186TXY    H3 5006   0.156   3.116   4.508
  2186TXY    H4 5007   0.030   3.230   4.470
  2186TXY    C4 5008   0.023   3.158   4.673
  2186TXY    H7 5009   0.078   3.247   4.706
  2186TXY    H8 5010   4.917   3.178   4.688
  2186TXY    C6 5011   0.065   3.039   4.760
  2186TXY   H11 5012   0.171   3.017   4.749
  2186TXY   H12 5013   0.047   3.060   4.866
  2186TXY   H13 5014   0.010   2.949   4.734
  2196TXY   H16 5015   2.320   2.430   0.501
  2196TXY    C7 5016   2.233   2.405   0.440
  2196TXY   H14 5017   2.147   2.397   0.506
  2196TXY   H15 5018   2.250   2.307   0.396
  2196TXY    C5 5019   2.210   2.511   0.331
  2196TXY    H9 5020   2.127   2.480   0.268
  2196TXY   H10 5021   2.298   2.517   0.267
  2196TXY    C3 5022   2.179   2.652   0.388
  2196TXY    H5 5023   2.093   2.645   0.454
  2196TXY    H6 5024   2.149   2.717   0.305
  2196TXY    C1 5025   2.298   2.716   0.462
  2196TXY    H1 5026   2.326   2.651   0.546
  2196TXY    H2 5027   2.384   2.720   0.395
  2196TXY    C2 5028   2.267   2.856   0.517
  2196TXY    H3 5029   2.160   2.874   0.518
  2196TXY    H4 5030   2.299   2.861   0.621
  2196TXY    C4 5031   2.337   2.971   0.440
  2196TXY    H7 5032   2.323   3.064   0.495
  2196TXY    H8 5033   2.444   2.952   0.437
  2196TXY    C6 5034   2.285   2.989   0.297
  2196TXY   H11 5035   2.178   3.010   0.297
  2196TXY   H12 5036   2.335   3.072   0.248
  2196TXY   H13 5037   2.302   2.900   0.237
  2206TXY   H16 5038   4.062   2.258   0.908
  2206TXY    C7 5039   4.018   2.334   0.844
  2206TXY   H14 5040   3.915   2.350   0.878
  2206TXY   H15 5041   4.013   2.292   0.743
  2206TXY    C5 5042   4.099   2.464   0.846
  2206TXY    H9 5043   4.054   2.534   0.776
  2206TXY   H10 5044   4.200   2.443   0.811
  2206TXY    C3 5045   4.106   2.530   0.986
  2206TXY    H5 5046   4.005   2.546   1.022
  2206TXY    H6 5047   4.151   2.629   0.974
  2206TXY    C1 5048   4.187   2.449   1.089
  2206TXY    H1 5049   4.139   2.352   1.103
  2206TXY    H2 5050   4.287   2.430   1.049
  2206TXY    C2 5051   4.197   2.519   1.225
  2206TXY    H3 5052   4.123   2.599   1.233
  2206TXY    H4 5053   4.172   2.448   1.304
  2206TXY    C4 5054   4.337   2.578   1.257
  2206TXY    H7 5055   4.337   2.616   1.359
  2206TXY    H8 5056   4.411   2.498   1.252
  2206TXY    C6 5057   4.379   2.691   1.161
  2206TXY   H11 5058   4.307   2.772   1.162
  2206TXY   H12 5059   4.476   2.732   1.190
  2206TXY   H13 5060   4.388   2.655   1.059
  2216TXY   H16 5061   0.802   1.250   2.578
  2216TXY    C7 5062   0.699   1.220   2.600
  2216TXY   H14 5063   0.669   1.146   2.526
  2216TXY   H15 5064   0.636   1.308   2.587
  2216TXY    C5 5065   0.687   1.164   2.742
  2216TXY    H9 5066   0.582   1.142   2.762
  2216TXY   H10 5067   0.717   1.240   2.814
  2216TXY    C3 5068   0.770   1.035   2.766
  2216TXY    H5 5069   0.739   0.960   2.693
  2216TXY    H6 5070   0.744   0.996   2.864
  2216TXY    C1 5071   0.922   1.057   2.758
  2216TXY    H1 5072   0.947   1.094   2.659
  2216TXY    H2 5073   0.950   1.135   2.828
  2216TXY    C2 5074   1.003   0.929   2.785
  2216TXY    H3 5075   0.938   0.841   2.778
  2216TXY    H4 5076   1.078   0.918   2.708
  2216TXY    C4 5077   1.074   0.928   2.923
  2216TXY    H7 5078   1.138   0.839   2.928
  2216TXY    H8 5079   1.140   1.015   2.930
  2216TXY    C6 5080   0.978   0.927   3.042
  2216TXY   H11 5081   0.911   0.841   3.038
  2216TXY   H12 5082   1.033   0.922   3.136
  2216TXY   H13 5083   0.917   1.017   3.044
  2226TXY   H16 5084   3.930   0.127   2.507
  2226TXY    C7 5085   3.833   0.160   2.544
  2226TXY   H14 5086   3.844   0.262   2.581
  2226TXY   H15 5087   3.807   0.097   2.629
  2226TXY    C5 5088   3.725   0.151   2.436
  2226TXY    H9 5089   3.629   0.177   2.480
  2226TXY   H10 5090   3.717   0.048   2.401
  2226TXY    C3 5091   3.751   0.244   2.314
  2226TXY    H5 5092   3.762   0.346   2.350
  2226TXY    H6 5093   3.662   0.243   2.251
  2226TXY    C1 5094   3.874   0.204   2.232
  2226TXY    H1 5095   3.963   0.209   2.295
  2226TXY    H2 5096   3.864   0.101   2.200
  2226TXY    C2 5097   3.897   0.295   2.109
  2226TXY    H3 5098   3.829   0.381   2.112
  2226TXY    H4 5099   3.998   0.336   2.113
  2226TXY    C4 5100   3.879   0.224   1.973
  2226TXY    H7 5101   3.909   0.291   1.893
  2226TXY    H8 5102   3.946   0.138   1.969
  2226TXY    C6 5103   3.735   0.177   1.947
  2226TXY   H11 5104   3.665   0.260   1.952
  2226TXY   H12 5105   3.726   0.132   1.848
  2226TXY   H13 5106   3.703   0.102   2.020
  2236TXY   H16 5107   0.275   4.295   1.117
  2236TXY    C7 5108   0.225   4.322   1.210
  2236TXY   H14 5109   0.225   4.431   1.218
  2236TXY   H15 5110   0.285   4.283   1.292
  2236TXY    C5 5111   0.082   4.266   1.215
  2236TXY    H9 5112   0.038   4.290   1.312
  2236TXY   H10 5113   0.086   4.157   1.208
  2236TXY    C3 5114   4.989   4.320   1.104
  2236TXY    H5 5115   4.985   4.429   1.112
  2236TXY    H6 5116   4.888   4.284   1.123
  2236TXY    C1 5117   0.031   4.280   0.962
  2236TXY    H1 5118   0.131   4.319   0.942
  2236TXY    H2 5119   0.039   4.171   0.956
  2236TXY    C2 5120   4.936   4.332   0.853
  2236TXY    H3 5121   4.868   4.407   0.895
  2236TXY    H4 5122   4.994   4.383   0.776
  2236TXY    C4 5123   4.851   4.222   0.785
  2236TXY    H7 5124   4.796   4.266   0.701
  2236TXY    H8 5125   4.917   4.146   0.744
  2236TXY    C6 5126   4.750   4.155   0.879
  2236TXY   H11 5127   4.681   4.228   0.922
  2236TXY   H12 5128   4.691   4.080   0.827
  2236TXY   H13 5129   4.800   4.105   0.962
  2246TXY   H16 5130   3.891   4.199   0.650
  2246TXY    C7 5131   3.933   4.120   0.712
  2246TXY   H14 5132   3.895   4.133   0.813
  2246TXY   H15 5133   4.041   4.135   0.715
  2246TXY    C5 5134   3.899   3.981   0.657
  2246TXY    H9 5135   3.950   3.906   0.718
  2246TXY   H10 5136   3.938   3.972   0.556
  2246TXY    C3 5137   3.747   3.950   0.656
  2246TXY    H5 5138   3.708   3.961   0.758
  2246TXY    H6 5139   3.733   3.845   0.630
  2246TXY    C1 5140   3.666   4.038   0.560
  2246TXY    H1 5141   3.679   4.143   0.589
  2246TXY    H2 5142   3.706   4.028   0.459
  2246TXY    C2 5143   3.515   4.006   0.560
  2246TXY    H3 5144   3.489   3.944   0.646
  2246TXY    H4 5145   3.459   4.099   0.571
  2246TXY    C4 5146   3.466   3.935   0.432
  2246TXY    H7 5147   3.357   3.932   0.433
  2246TXY    H8 5148   3.494   3.994   0.344
  2246TXY    C6 5149   3.519   3.793   0.416
  2246TXY   H11 5150   3.491   3.730   0.501
  2246TXY   H12 5151   3.480   3.746   0.326
  2246TXY   H13 5152   3.628   3.791   0.409
  2256TXY   H16 5153   0.363   3.275   2.753
  2256TXY    C7 5154   0.432   3.192   2.768
  2256TXY   H14 5155   0.473   3.201   2.869
  2256TXY   H15 5156   0.514   3.204   2.698
  2256TXY    C5 5157   0.362   3.057   2.749
  2256TXY    H9 5158   0.436   2.978   2.756
  2256TXY   H10 5159   0.321   3.053   2.648
  2256TXY    C3 5160   0.248   3.030   2.851
  2256TXY    H5 5161   0.290   3.037   2.951
  2256TXY    H6 5162   0.215   2.927   2.838
  2256TXY    C1 5163   0.128   3.125   2.837
  2256TXY    H1 5164   0.162   3.227   2.854
  2256TXY    H2 5165   0.091   3.121   2.734
  2256TXY    C2 5166   0.015   3.094   2.936
  2256TXY    H3 5167   0.050   3.027   3.015
  2256TXY    H4 5168   4.984   3.186   2.986
  2256TXY    C4 5169   4.889   3.030   2.870
  2256TXY    H7 5170   4.810   3.023   2.945
  2256TXY    H8 5171   4.852   3.096   2.792
  2256TXY    C6 5172   4.915   2.891   2.812
  2256TXY   H11 5173   4.949   2.822   2.888
  2256TXY   H12 5174   4.824   2.850   2.768
  2256TXY   H13 5175   4.990   2.895   2.733
  2266TXY   H16 5176   3.497   3.419   0.752
  2266TXY    C7 5177   3.528   3.506   0.694
  2266TXY   H14 5178   3.559   3.583   0.764
  2266TXY   H15 5179   3.439   3.543   0.642
  2266TXY    C5 5180   3.639   3.471   0.595
  2266TXY    H9 5181   3.663   3.560   0.536
  2266TXY   H10 5182   3.603   3.395   0.527
  2266TXY    C3 5183   3.769   3.421   0.664
  2266TXY    H5 5184   3.799   3.495   0.738
  2266TXY    H6 5185   3.848   3.418   0.589
  2266TXY    C1 5186   3.755   3.283   0.730
  2266TXY    H1 5187   3.682   3.290   0.811
  2266TXY    H2 5188   3.715   3.212   0.658
  2266TXY    C2 5189   3.887   3.232   0.788
  2266TXY    H3 5190   3.959   3.313   0.799
  2266TXY    H4 5191   3.870   3.193   0.889
  2266TXY    C4 5192   3.953   3.119   0.705
  2266TXY    H7 5193   4.041   3.082   0.757
  2266TXY    H8 5194   3.884   3.035   0.696
  2266TXY    C6 5195   3.995   3.163   0.564
  2266TXY   H11 5196   4.063   3.249   0.568
  2266TXY   H12 5197   4.045   3.083   0.511
  2266TXY   H13 5198   3.908   3.193   0.504
  2276TXY   H16 5199   1.548   4.148   4.943
  2276TXY    C7 5200   1.570   4.233   4.878
  2276TXY   H14 5201   1.475   4.277   4.847
  2276TXY   H15 5202   1.619   4.195   4.789
  2276TXY    C5 5203   1.658   4.337   4.949
  2276TXY    H9 5204   1.686   4.414   4.878
  2276TXY   H10 5205   1.750   4.289   4.981
  2276TXY    C3 5206   1.590   4.403   0.072
  2276TXY    H5 5207   1.494   4.443   0.040
  2276TXY    H6 5208   1.651   4.487   0.103
  2276TXY    C1 5209   1.570   4.307   0.190
  2276TXY    H1 5210   1.510   4.222   0.158
  2276TXY    H2 5211   1.666   4.267   0.221
  2276TXY    C2 5212   1.499   4.373   0.310
  2276TXY    H3 5213   1.447   4.463   0.279
  2276TXY    H4 5214   1.423   4.305   0.349
  2276TXY    C4 5215   1.594   4.409   0.428
  2276TXY    H7 5216   1.534   4.435   0.515
  2276TXY    H8 5217   1.653   4.322   0.455
  2276TXY    C6 5218   1.689   4.526   0.397
  2276TXY   H11 5219   1.633   4.617   0.374
  2276TXY   H12 5220   1.753   4.547   0.483
  2276TXY   H13 5221   1.753   4.504   0.312
  2286TXY   H16 5222   1.754   1.579   4.783
  2286TXY    C7 5223   1.694   1.496   4.747
  2286TXY   H14 5224   1.760   1.410   4.733
  2286TXY   H15 5225   1.656   1.523   4.649
  2286TXY    C5 5226   1.579   1.463   4.844
  2286TXY    H9 5227   1.514   1.389   4.797
  2286TXY   H10 5228   1.519   1.553   4.859
  2286TXY    C3 5229   1.627   1.410   4.981
  2286TXY    H5 5230   1.687   1.320   4.965
  2286TXY    H6 5231   1.539   1.379   0.038
  2286TXY    C1 5232   1.707   1.512   0.063
  2286TXY    H1 5233   1.797   1.540   0.006
  2286TXY    H2 5234   1.648   1.603   0.075
  2286TXY    C2 5235   1.751   1.459   0.200
  2286TXY    H3 5236   1.737   1.351   0.206
  2286TXY    H4 5237   1.858   1.476   0.213
  2286TXY    C4 5238   1.678   1.524   0.320
  2286TXY    H7 5239   1.724   1.490   0.413
  2286TXY    H8 5240   1.691   1.632   0.315
  2286TXY    C6 5241   1.528   1.492   0.324
  2286TXY   H11 5242   1.510   1.385   0.330
  2286TXY   H12 5243   1.480   1.538   0.411
  2286TXY   H13 5244   1.476   1.529   0.235
  2296TXY   H16 5245   4.443   4.371   3.987
  2296TXY    C7 5246   4.491   4.280   3.950
  2296TXY   H14 5247   4.581   4.309   3.896
  2296TXY   H15 5248   4.423   4.235   3.878
  2296TXY    C5 5249   4.523   4.183   4.064
  2296TXY    H9 5250   4.561   4.090   4.022
  2296TXY   H10 5251   4.430   4.159   4.116
  2296TXY    C3 5252   4.625   4.239   4.166
  2296TXY    H5 5253   4.711   4.277   4.111
  2296TXY    H6 5254   4.662   4.156   4.226
  2296TXY    C1 5255   4.568   4.348   4.257
  2296TXY    H1 5256   4.523   4.426   4.196
  2296TXY    H2 5257   4.488   4.306   4.318
  2296TXY    C2 5258   4.674   4.412   4.348
  2296TXY    H3 5259   4.774   4.393   4.310
  2296TXY    H4 5260   4.662   4.521   4.347
  2296TXY    C4 5261   4.669   4.367   4.496
  2296TXY    H7 5262   4.739   4.427   4.555
  2296TXY    H8 5263   4.569   4.385   4.536
  2296TXY    C6 5264   4.704   4.219   4.516
  2296TXY   H11 5265   4.802   4.195   4.475
  2296TXY   H12 5266   4.706   4.193   4.622
  2296TXY   H13 5267   4.631   4.154   4.468
  2306TXY   H16 5268   3.044   4.646   4.371
  2306TXY    C7 5269   3.061   4.687   4.271
  2306TXY   H14 5270   3.114   4.781   4.283
  2306TXY   H15 5271   2.963   4.710   4.229
  2306TXY    C5 5272   3.138   4.590   4.181
  2306TXY    H9 5273   3.154   4.637   4.085
  2306TXY   H10 5274   3.077   4.501   4.164
  2306TXY    C3 5275   3.276   4.547   4.238
  2306TXY    H5 5276   3.335   4.637   4.257
  2306TXY    H6 5277   3.328   4.491   4.162
  2306TXY    C1 5278   3.265   4.464   4.367
  2306TXY    H1 5279   3.217   4.523   4.444
  2306TXY    H2 5280   3.200   4.378   4.349
  2306TXY    C2 5281   3.402   4.416   4.420
  2306TXY    H3 5282   3.482   4.474   4.374
  2306TXY    H4 5283   3.407   4.436   4.527
  2306TXY    C4 5284   3.429   4.266   4.397
  2306TXY    H7 5285   3.522   4.239   4.448
  2306TXY    H8 5286   3.349   4.207   4.443
  2306TXY    C6 5287   3.441   4.227   4.249
  2306TXY   H11 5288   3.521   4.283   4.200
  2306TXY   H12 5289   3.464   4.121   4.238
  2306TXY   H13 5290   3.349   4.246   4.195
  2316TXY   H16 5291   0.131   2.194   4.956
  2316TXY    C7 5292   0.163   2.177   4.853
  2316TXY   H14 5293   0.073   2.165   4.792
  2316TXY   H15 5294   0.216   2.082   4.850
  2316TXY    C5 5295   0.251   2.291   4.801
  2316TXY    H9 5296   0.284   2.266   4.700
  2316TXY   H10 5297   0.340   2.298   4.863
  2316TXY    C3 5298   0.181   2.429   4.797
  2316TXY    H5 5299   0.092   2.421   4.734
  2316TXY    H6 5300   0.247   2.500   4.748
  2316TXY    C1 5301   0.141   2.482   4.936
  2316TXY    H1 5302   0.068   2.415   4.980
  2316TXY    H2 5303   0.229   2.481   0.001
  2316TXY    C2 5304   0.081   2.624   4.932
  2316TXY    H3 5305   0.059   2.653   4.829
  2316TXY    H4 5306   4.986   2.624   4.985
  2316TXY    C4 5307   0.172   2.733   4.994
  2316TXY    H7 5308   0.117   2.827   4.999
  2316TXY    H8 5309   0.196   2.705   0.097
  2316TXY    C6 5310   0.303   2.755   4.918
  2316TXY   H11 5311   0.284   2.784   4.815
  2316TXY   H12 5312   0.362   2.834   4.964
  2316TXY   H13 5313   0.364   2.665   4.916
  2326TXY   H16 5314   2.569   0.613   0.936
  2326TXY    C7 5315   2.526   0.700   0.885
  2326TXY   H14 5316   2.430   0.670   0.842
  2326TXY   H15 5317   2.592   0.725   0.802
  2326TXY    C5 5318   2.510   0.819   0.980
  2326TXY    H9 5319   2.475   0.905   0.923
  2326TXY   H10 5320   2.607   0.845   1.021
  2326TXY    C3 5321   2.411   0.792   1.097
  2326TXY    H5 5322   2.315   0.763   1.055
  2326TXY    H6 5323   2.394   0.886   1.149
  2326TXY    C1 5324   2.460   0.686   1.196
  2326TXY    H1 5325   2.474   0.591   1.143
  2326TXY    H2 5326   2.557   0.715   1.235
  2326TXY    C2 5327   2.361   0.661   1.312
  2326TXY    H3 5328   2.264   0.707   1.290
  2326TXY    H4 5329   2.343   0.554   1.321
  2326TXY    C4 5330   2.410   0.713   1.449
  2326TXY    H7 5331   2.342   0.679   1.527
  2326TXY    H8 5332   2.508   0.671   1.471
  2326TXY    C6 5333   2.420   0.866   1.456
  2326TXY   H11 5334   2.323   0.913   1.436
  2326TXY   H12 5335   2.452   0.899   1.555
  2326TXY   H13 5336   2.491   0.905   1.383
  2336TXY   H16 5337   4.213   3.439   1.364
  2336TXY    C7 5338   4.140   3.510   1.402
  2336TXY   H14 5339   4.193   3.597   1.441
  2336TXY   H15 5340   4.089   3.463   1.487
  2336TXY    C5 5341   4.039   3.550   1.294
  2336TXY    H9 5342   3.963   3.615   1.339
  2336TXY   H10 5343   3.987   3.461   1.259
  2336TXY    C3 5344   4.103   3.623   1.173
  2336TXY    H5 5345   4.159   3.709   1.211
  2336TXY    H6 5346   4.022   3.663   1.111
  2336TXY    C1 5347   4.194   3.534   1.089
  2336TXY    H1 5348   4.275   3.495   1.151
  2336TXY    H2 5349   4.138   3.448   1.053
  2336TXY    C2 5350   4.257   3.608   0.969
  2336TXY    H3 5351   4.242   3.716   0.979
  2336TXY    H4 5352   4.365   3.592   0.970
  2336TXY    C4 5353   4.203   3.563   0.831
  2336TXY    H7 5354   4.263   3.609   0.753
  2336TXY    H8 5355   4.214   3.455   0.821
  2336TXY    C6 5356   4.056   3.601   0.809
  2336TXY   H11 5357   4.041   3.709   0.817
  2336TXY   H12 5358   4.023   3.571   0.710
  2336TXY   H13 5359   3.991   3.553   0.882
  2346TXY   H16 5360   3.554   0.803   1.382
  2346TXY    C7 5361   3.457   0.852   1.385
  2346TXY   H14 5362   3.382   0.776   1.405
  2346TXY   H15 5363   3.438   0.892   1.285
  2346TXY    C5 5364   3.454   0.964   1.490
  2346TXY    H9 5365   3.358   1.015   1.484
  2346TXY   H10 5366   3.530   1.037   1.467
  2346TXY    C3 5367   3.474   0.913   1.635
  2346TXY    H5 5368   3.397   0.838   1.657
  2346TXY    H6 5369   3.457   0.996   1.703
  2346TXY    C1 5370   3.613   0.853   1.661
  2346TXY    H1 5371   3.627   0.766   1.596
  2346TXY    H2 5372   3.689   0.926   1.632
  2346TXY    C2 5373   3.634   0.808   1.806
  2346TXY    H3 5374   3.540   0.815   1.862
  2346TXY    H4 5375   3.663   0.703   1.808
  2346TXY    C4 5376   3.742   0.889   1.882
  2346TXY    H7 5377   3.760   0.842   1.979
  2346TXY    H8 5378   3.836   0.884   1.827
  2346TXY    C6 5379   3.704   1.036   1.905
  2346TXY   H11 5380   3.612   1.045   1.962
  2346TXY   H12 5381   3.782   1.088   1.960
  2346TXY   H13 5382   3.690   1.088   1.810
  2356TXY   H16 5383   0.067   1.227   0.011
  2356TXY    C7 5384   0.014   1.280   0.090
  2356TXY   H14 5385   4.923   1.225   0.112
  2356TXY   H15 5386   4.985   1.378   0.051
  2356TXY    C5 5387   0.101   1.296   0.216
  2356TXY    H9 5388   0.048   1.357   0.288
  2356TXY   H10 5389   0.192   1.350   0.189
  2356TXY    C3 5390   0.140   1.161   0.282
  2356TXY    H5 5391   0.049   1.106   0.304
  2356TXY    H6 5392   0.188   1.183   0.377
  2356TXY    C1 5393   0.233   1.074   0.196
  2356TXY    H1 5394   0.182   1.049   0.103
  2356TXY    H2 5395   0.321   1.132   0.168
  2356TXY    C2 5396   0.276   0.943   0.265
  2356TXY    H3 5397   0.211   0.922   0.350
  2356TXY    H4 5398   0.263   0.860   0.196
  2356TXY    C4 5399   0.423   0.943   0.314
  2356TXY    H7 5400   0.449   0.842   0.346
  2356TXY    H8 5401   0.489   0.967   0.230
  2356TXY    C6 5402   0.449   1.041   0.429
  2356TXY   H11 5403   0.388   1.017   0.516
  2356TXY   H12 5404   0.554   1.037   0.460
  2356TXY   H13 5405   0.427   1.143   0.399
  2366TXY   H16 5406   1.854   4.459   2.192
  2366TXY    C7 5407   1.899   4.558   2.185
  2366TXY   H14 5408   2.001   4.545   2.147
  2366TXY   H15 5409   1.907   4.598   2.285
  2366TXY    C5 5410   1.818   4.651   2.094
  2366TXY    H9 5411   1.864   4.749   2.095
  2366TXY   H10 5412   1.718   4.662   2.136
  2366TXY    C3 5413   1.806   4.602   1.948
  2366TXY    H5 5414   1.907   4.590   1.907
  2366TXY    H6 5415   1.758   4.681   1.889
  2366TXY    C1 5416   1.729   4.471   1.932
  2366TXY    H1 5417   1.785   4.390   1.981
  2366TXY    H2 5418   1.633   4.478   1.984
  2366TXY    C2 5419   1.705   4.432   1.785
  2366TXY    H3 5420   1.770   4.490   1.719
  2366TXY    H4 5421   1.732   4.327   1.771
  2366TXY    C4 5422   1.559   4.450   1.738
  2366TXY    H7 5423   1.549   4.411   1.637
  2366TXY    H8 5424   1.493   4.391   1.802
  2366TXY    C6 5425   1.512   4.596   1.740
  2366TXY   H11 5426   1.572   4.658   1.673
  2366TXY   H12 5427   1.408   4.604   1.708
  2366TXY   H13 5428   1.519   4.639   1.840
  2376TXY   H16 5429   4.673   4.170   2.317
  2376TXY    C7 5430   4.605   4.094   2.276
  2376TXY   H14 5431   4.644   4.063   2.179
  2376TXY   H15 5432   4.509   4.141   2.260
  2376TXY    C5 5433   4.592   3.974   2.371
  2376TXY    H9 5434   4.518   3.905   2.330
  2376TXY   H10 5435   4.553   4.009   2.467
  2376TXY    C3 5436   4.724   3.897   2.394
  2376TXY    H5 5437   4.762   3.863   2.298
  2376TXY    H6 5438   4.701   3.807   2.451
  2376TXY    C1 5439   4.832   3.978   2.467
  2376TXY    H1 5440   4.857   4.066   2.408
  2376TXY    H2 5441   4.792   4.015   2.562
  2376TXY    C2 5442   4.961   3.898   2.492
  2376TXY    H3 5443   4.960   3.805   2.435
  2376TXY    H4 5444   0.047   3.955   2.456
  2376TXY    C4 5445   4.986   3.863   2.641
  2376TXY    H7 5446   0.085   3.818   2.650
  2376TXY    H8 5447   4.988   3.954   2.700
  2376TXY    C6 5448   4.882   3.767   2.700
  2376TXY   H11 5449   4.880   3.673   2.645
  2376TXY   H12 5450   4.906   3.743   2.804
  2376TXY   H13 5451   4.782   3.810   2.698
  2386TXY   H16 5452   1.360   0.452   2.011
  2386TXY    C7 5453   1.386   0.553   1.980
  2386TXY   H14 5454   1.487   0.551   1.940
  2386TXY   H15 5455   1.387   0.616   2.069
  2386TXY    C5 5456   1.286   0.607   1.877
  2386TXY    H9 5457   1.312   0.710   1.854
  2386TXY   H10 5458   1.187   0.608   1.921
  2386TXY    C3 5459   1.283   0.526   1.745
  2386TXY    H5 5460   1.384   0.522   1.703
  2386TXY    H6 5461   1.222   0.580   1.673
  2386TXY    C1 5462   1.228   0.383   1.761
  2386TXY    H1 5463   1.292   0.328   1.831
  2386TXY    H2 5464   1.129   0.388   1.806
  2386TXY    C2 5465   1.223   0.305   1.629
  2386TXY    H3 5466   1.274   0.360   1.550
  2386TXY    H4 5467   1.276   0.211   1.640
  2386TXY    C4 5468   1.079   0.273   1.580
  2386TXY    H7 5469   1.085   0.207   1.494
  2386TXY    H8 5470   1.026   0.219   1.659
  2386TXY    C6 5471   0.998   0.397   1.542
  2386TXY   H11 5472   1.047   0.453   1.462
  2386TXY   H12 5473   0.899   0.370   1.506
  2386TXY   H13 5474   0.985   0.465   1.626
  2396TXY   H16 5475   0.247   3.186   0.250
  2396TXY    C7 5476   0.205   3.257   0.178
  2396TXY   H14 5477   0.099   3.269   0.203
  2396TXY   H15 5478   0.210   3.211   0.079
  2396TXY    C5 5479   0.279   3.391   0.180
  2396TXY    H9 5480   0.236   3.456   0.104
  2396TXY   H10 5481   0.383   3.374   0.153
  2396TXY    C3 5482   0.272   3.463   0.317
  2396TXY    H5 5483   0.168   3.466   0.350
  2396TXY    H6 5484   0.304   3.566   0.303
  2396TXY    C1 5485   0.358   3.396   0.426
  2396TXY    H1 5486   0.331   3.291   0.433
  2396TXY    H2 5487   0.463   3.399   0.395
  2396TXY    C2 5488   0.343   3.460   0.565
  2396TXY    H3 5489   0.246   3.510   0.573
  2396TXY    H4 5490   0.343   3.382   0.640
  2396TXY    C4 5491   0.453   3.563   0.601
  2396TXY    H7 5492   0.447   3.585   0.708
  2396TXY    H8 5493   0.551   3.518   0.585
  2396TXY    C6 5494   0.445   3.693   0.522
  2396TXY   H11 5495   0.349   3.742   0.537
  2396TXY   H12 5496   0.522   3.763   0.554
  2396TXY   H13 5497   0.458   3.676   0.416
  2406TXY   H16 5498   4.010   3.366   2.971
  2406TXY    C7 5499   3.965   3.274   2.937
  2406TXY   H14 5500   4.012   3.191   2.991
  2406TXY   H15 5501   3.990   3.262   2.831
  2406TXY    C5 5502   3.813   3.274   2.957
  2406TXY    H9 5503   3.771   3.183   2.915
  2406TXY   H10 5504   3.770   3.357   2.902
  2406TXY    C3 5505   3.770   3.283   3.106
  2406TXY    H5 5506   3.817   3.202   3.161
  2406TXY    H6 5507   3.662   3.267   3.111
  2406TXY    C1 5508   3.805   3.417   3.173
  2406TXY    H1 5509   3.913   3.433   3.167
  2406TXY    H2 5510   3.758   3.498   3.117
  2406TXY    C2 5511   3.763   3.424   3.321
  2406TXY    H3 5512   3.741   3.324   3.359
  2406TXY    H4 5513   3.846   3.462   3.380
  2406TXY    C4 5514   3.639   3.514   3.347
  2406TXY    H7 5515   3.626   3.524   3.455
  2406TXY    H8 5516   3.658   3.614   3.308
  2406TXY    C6 5517   3.510   3.459   3.286
  2406TXY   H11 5518   3.487   3.360   3.325
  2406TXY   H12 5519   3.426   3.524   3.309
  2406TXY   H13 5520   3.518   3.451   3.178
  2416TXY   H16 5521   4.626   1.531   1.660
  2416TXY    C7 5522   4.520   1.531   1.635
  2416TXY   H14 5523   4.471   1.459   1.701
  2416TXY   H15 5524   4.511   1.493   1.533
  2416TXY    C5 5525   4.458   1.670   1.648
  2416TXY    H9 5526   4.354   1.665   1.616
  2416TXY   H10 5527   4.509   1.738   1.579
  2416TXY    C3 5528   4.465   1.728   1.791
  2416TXY    H5 5529   4.417   1.658   1.860
  2416TXY    H6 5530   4.405   1.819   1.794
  2416TXY    C1 5531   4.607   1.759   1.839
  2416TXY    H1 5532   4.664   1.666   1.843
  2416TXY    H2 5533   4.657   1.824   1.767
  2416TXY    C2 5534   4.611   1.825   1.979
  2416TXY    H3 5535   4.515   1.813   2.029
  2416TXY    H4 5536   4.684   1.773   2.041
  2416TXY    C4 5537   4.648   1.975   1.977
  2416TXY    H7 5538   4.660   2.010   2.080
  2416TXY    H8 5539   4.745   1.988   1.928
  2416TXY    C6 5540   4.545   2.063   1.906
  2416TXY   H11 5541   4.446   2.053   1.952
  2416TXY   H12 5542   4.573   2.168   1.911
  2416TXY   H13 5543   4.535   2.036   1.801
  2426TXY   H16 5544   3.791   1.087   4.674
  2426TXY    C7 5545   3.843   0.996   4.645
  2426TXY   H14 5546   3.950   1.017   4.642
  2426TXY   H15 5547   3.812   0.971   4.544
  2426TXY    C5 5548   3.812   0.881   4.742
  2426TXY    H9 5549   3.859   0.790   4.706
  2426TXY   H10 5550   3.704   0.863   4.742
  2426TXY    C3 5551   3.860   0.908   4.887
  2426TXY    H5 5552   3.967   0.928   4.886
  2426TXY    H6 5553   3.846   0.816   4.945
  2426TXY    C1 5554   3.786   1.024   4.956
  2426TXY    H1 5555   3.808   1.116   4.903
  2426TXY    H2 5556   3.679   1.007   4.949
  2426TXY    C2 5557   3.827   1.042   0.103
  2426TXY    H3 5558   3.916   0.984   0.126
  2426TXY    H4 5559   3.853   1.146   0.120
  2426TXY    C4 5560   3.715   1.004   0.204
  2426TXY    H7 5561   3.749   1.027   0.305
  2426TXY    H8 5562   3.627   1.065   0.186
  2426TXY    C6 5563   3.676   0.856   0.199
  2426TXY   H11 5564   3.762   0.792   0.215
  2426TXY   H12 5565   3.602   0.832   0.275
  2426TXY   H13 5566   3.632   0.830   0.102
  2436TXY   H16 5567   4.459   0.981   1.319
  2436TXY    C7 5568   4.502   0.886   1.351
  2436TXY   H14 5569   4.606   0.904   1.376
  2436TXY   H15 5570   4.499   0.819   1.265
  2436TXY    C5 5571   4.424   0.826   1.469
  2436TXY    H9 5572   4.467   0.729   1.493
  2436TXY   H10 5573   4.321   0.809   1.438
  2436TXY    C3 5574   4.426   0.916   1.595
  2436TXY    H5 5575   4.529   0.934   1.624
  2436TXY    H6 5576   4.380   0.860   1.677
  2436TXY    C1 5577   4.352   1.050   1.577
  2436TXY    H1 5578   4.402   1.107   1.498
  2436TXY    H2 5579   4.251   1.030   1.543
  2436TXY    C2 5580   4.350   1.135   1.705
  2436TXY    H3 5581   4.408   1.088   1.784
  2436TXY    H4 5582   4.397   1.231   1.684
  2436TXY    C4 5583   4.207   1.163   1.759
  2436TXY    H7 5584   4.214   1.234   1.841
  2436TXY    H8 5585   4.147   1.209   1.681
  2436TXY    C6 5586   4.135   1.037   1.809
  2436TXY   H11 5587   4.191   0.988   1.889
  2436TXY   H12 5588   4.037   1.061   1.849
  2436TXY   H13 5589   4.122   0.964   1.729
  2446TXY   H16 5590   0.275   4.783   4.018
  2446TXY    C7 5591   0.174   4.761   3.985
  2446TXY   H14 5592   0.171   4.656   3.953
  2446TXY   H15 5593   0.154   4.822   3.897
  2446TXY    C5 5594   0.072   4.788   4.096
  2446TXY    H9 5595   4.971   4.773   4.056
  2446TXY   H10 5596   0.078   4.893   4.125
  2446TXY    C3 5597   0.090   4.699   4.221
  2446TXY    H5 5598   0.084   4.595   4.191
  2446TXY    H6 5599   0.006   4.717   4.288
  2446TXY    C1 5600   0.222   4.725   4.296
  2446TXY    H1 5601   0.305   4.699   4.231
  2446TXY    H2 5602   0.231   4.831   4.318
  2446TXY    C2 5603   0.235   4.643   4.426
  2446TXY    H3 5604   0.157   4.566   4.431
  2446TXY    H4 5605   0.330   4.590   4.426
  2446TXY    C4 5606   0.228   4.728   4.555
  2446TXY    H7 5607   0.252   4.665   4.640
  2446TXY    H8 5608   0.303   4.806   4.551
  2446TXY    C6 5609   0.090   4.791   4.578
  2446TXY   H11 5610   0.012   4.716   4.584
  2446TXY   H12 5611   0.088   4.848   4.671
  2446TXY   H13 5612   0.064   4.860   4.497
  2456TXY   H16 5613   4.177   4.180   2.779
  2456TXY    C7 5614   4.069   4.191   2.782
  2456TXY   H14 5615   4.043   4.280   2.725
  2456TXY   H15 5616   4.041   4.209   2.886
  2456TXY    C5 5617   3.998   4.067   2.727
  2456TXY    H9 5618   3.891   4.080   2.738
  2456TXY   H10 5619   4.026   3.980   2.788
  2456TXY    C3 5620   4.030   4.037   2.579
  2456TXY    H5 5621   4.002   4.124   2.519
  2456TXY    H6 5622   3.967   3.954   2.546
  2456TXY    C1 5623   4.178   4.002   2.553
  2456TXY    H1 5624   4.240   4.087   2.580
  2456TXY    H2 5625   4.207   3.920   2.619
  2456TXY    C2 5626   4.206   3.965   2.406
  2456TXY    H3 5627   4.118   3.982   2.345
  2456TXY    H4 5628   4.284   4.031   2.367
  2456TXY    C4 5629   4.252   3.818   2.386
  2456TXY    H7 5630   4.283   3.805   2.282
  2456TXY    H8 5631   4.339   3.799   2.448
  2456TXY    C6 5632   4.143   3.715   2.418
  2456TXY   H11 5633   4.056   3.729   2.354
  2456TXY   H12 5634   4.180   3.614   2.402
  2456TXY   H13 5635   4.110   3.723   2.521
  2466TXY   H16 5636   2.285   2.630   1.163
  2466TXY    C7 5637   2.327   2.663   1.068
  2466TXY   H14 5638   2.250   2.718   1.014
  2466TXY   H15 5639   2.349   2.573   1.009
  2466TXY    C5 5640   2.453   2.748   1.088
  2466TXY    H9 5641   2.497   2.769   0.990
  2466TXY   H10 5642   2.527   2.690   1.144
  2466TXY    C3 5643   2.427   2.882   1.160
  2466TXY    H5 5644   2.354   2.939   1.102
  2466TXY    H6 5645   2.519   2.940   1.160
  2466TXY    C1 5646   2.376   2.866   1.305
  2466TXY    H1 5647   2.282   2.811   1.304
  2466TXY    H2 5648   2.448   2.806   1.361
  2466TXY    C2 5649   2.353   3.001   1.375
  2466TXY    H3 5650   2.355   3.083   1.303
  2466TXY    H4 5651   2.253   3.002   1.419
  2466TXY    C4 5652   2.455   3.033   1.487
  2466TXY    H7 5653   2.425   3.125   1.537
  2466TXY    H8 5654   2.451   2.954   1.562
  2466TXY    C6 5655   2.599   3.048   1.437
  2466TXY   H11 5656   2.605   3.127   1.362
  2466TXY   H12 5657   2.666   3.074   1.518
  2466TXY   H13 5658   2.635   2.956   1.392
  2476TXY   H16 5659   0.217   1.522   0.641
  2476TXY    C7 5660   0.109   1.511   0.653
  2476TXY   H14 5661   0.087   1.519   0.759
  2476TXY   H15 5662   0.084   1.409   0.622
  2476TXY    C5 5663   0.032   1.615   0.571
  2476TXY    H9 5664   4.925   1.593   0.581
  2476TXY   H10 5665   0.057   1.603   0.466
  2476TXY    C3 5666   0.058   1.761   0.615
  2476TXY    H5 5667   0.032   1.771   0.721
  2476TXY    H6 5668   4.989   1.826   0.561
  2476TXY    C1 5669   0.202   1.808   0.591
  2476TXY    H1 5670   0.270   1.746   0.650
  2476TXY    H2 5671   0.228   1.792   0.487
  2476TXY    C2 5672   0.225   1.955   0.630
  2476TXY    H3 5673   0.136   1.997   0.678
  2476TXY    H4 5674   0.304   1.961   0.705
  2476TXY    C4 5675   0.264   2.047   0.511
  2476TXY    H7 5676   0.291   2.145   0.550
  2476TXY    H8 5677   0.353   2.006   0.462
  2476TXY    C6 5678   0.152   2.063   0.408
  2476TXY   H11 5679   0.063   2.106   0.452
  2476TXY   H12 5680   0.184   2.128   0.326
  2476TXY   H13 5681   0.124   1.967   0.364
  2486TXY   H16 5682   4.897   4.730   3.503
  2486TXY    C7 5683   4.789   4.732   3.509
  2486TXY   H14 5684   4.753   4.817   3.450
  2486TXY   H15 5685   4.762   4.751   3.613
  2486TXY    C5 5686   4.727   4.601   3.459
  2486TXY    H9 5687   4.619   4.605   3.474
  2486TXY   H10 5688   4.764   4.519   3.520
  2486TXY    C3 5689   4.755   4.572   3.309
  2486TXY    H5 5690   4.723   4.658   3.250
  2486TXY    H6 5691   4.694   4.488   3.279
  2486TXY    C1 5692   4.903   4.542   3.279
  2486TXY    H1 5693   4.964   4.626   3.311
  2486TXY    H2 5694   4.935   4.456   3.338
  2486TXY    C2 5695   4.930   4.516   3.130
  2486TXY    H3 5696   4.844   4.547   3.070
  2486TXY    H4 5697   0.013   4.578   3.097
  2486TXY    C4 5698   4.962   4.368   3.095
  2486TXY    H7 5699   4.994   4.363   2.991
  2486TXY    H8 5700   0.047   4.335   3.156
  2486TXY    C6 5701   4.844   4.273   3.116
  2486TXY   H11 5702   4.759   4.302   3.056
  2486TXY   H12 5703   4.871   4.171   3.088
  2486TXY   H13 5704   4.813   4.271   3.220
  2496TXY   H16 5705   2.843   4.762   4.511
  2496TXY    C7 5706   2.755   4.814   4.473
  2496TXY   H14 5707   2.780   4.856   4.376
  2496TXY   H15 5708   2.735   4.897   4.541
  2496TXY    C5 5709   2.634   4.720   4.463
  2496TXY    H9 5710   2.547   4.778   4.433
  2496TXY   H10 5711   2.612   4.680   4.562
  2496TXY    C3 5712   2.655   4.603   4.364
  2496TXY    H5 5713   2.682   4.645   4.267
  2496TXY    H6 5714   2.559   4.553   4.350
  2496TXY    C1 5715   2.760   4.501   4.408
  2496TXY    H1 5716   2.854   4.552   4.429
  2496TXY    H2 5717   2.728   4.455   4.502
  2496TXY    C2 5718   2.786   4.392   4.302
  2496TXY    H3 5719   2.719   4.405   4.217
  2496TXY    H4 5720   2.887   4.403   4.263
  2496TXY    C4 5721   2.771   4.247   4.354
  2496TXY    H7 5722   2.804   4.178   4.276
  2496TXY    H8 5723   2.837   4.232   4.439
  2496TXY    C6 5724   2.628   4.210   4.395
  2496TXY   H11 5725   2.559   4.222   4.312
  2496TXY   H12 5726   2.622   4.107   4.428
  2496TXY   H13 5727   2.592   4.273   4.477
  2506TXY   H16 5728   0.730   0.906   0.331
  2506TXY    C7 5729   0.804   0.969   0.281
  2506TXY   H14 5730   0.761   1.069   0.272
  2506TXY   H15 5731   0.817   0.930   0.180
  2506TXY    C5 5732   0.937   0.972   0.357
  2506TXY    H9 5733   1.009   1.029   0.299
  2506TXY   H10 5734   0.975   0.870   0.365
  2506TXY    C3 5735   0.926   1.033   0.499
  2506TXY    H5 5736   0.885   1.134   0.490
  2506TXY    H6 5737   1.027   1.044   0.539
  2506TXY    C1 5738   0.841   0.951   0.596
  2506TXY    H1 5739   0.738   0.947   0.559
  2506TXY    H2 5740   0.877   0.848   0.598
  2506TXY    C2 5741   0.839   1.008   0.739
  2506TXY    H3 5742   0.884   1.107   0.741
  2506TXY    H4 5743   0.735   1.022   0.771
  2506TXY    C4 5744   0.910   0.920   0.844
  2506TXY    H7 5745   0.894   0.963   0.943
  2506TXY    H8 5746   0.863   0.821   0.845
  2506TXY    C6 5747   1.060   0.904   0.820
  2506TXY   H11 5748   1.110   1.001   0.821
  2506TXY   H12 5749   1.106   0.844   0.898
  2506TXY   H13 5750   1.081   0.857   0.725
  2516TXY   H16 5751   0.889   3.399   3.993
  2516TXY    C7 5752   0.806   3.394   3.924
  2516TXY   H14 5753   0.728   3.332   3.969
  2516TXY   H15 5754   0.840   3.342   3.834
  2516TXY    C5 5755   0.753   3.534   3.890
  2516TXY    H9 5756   0.674   3.524   3.815
  2516TXY   H10 5757   0.833   3.592   3.845
  2516TXY    C3 5758   0.696   3.611   4.011
  2516TXY    H5 5759   0.616   3.551   4.056
  2516TXY    H6 5760   0.650   3.703   3.975
  2516TXY    C1 5761   0.801   3.645   4.118
  2516TXY    H1 5762   0.840   3.552   4.160
  2516TXY    H2 5763   0.885   3.696   4.071
  2516TXY    C2 5764   0.745   3.729   4.234
  2516TXY    H3 5765   0.636   3.738   4.226
  2516TXY    H4 5766   0.764   3.679   4.328
  2516TXY    C4 5767   0.805   3.872   4.242
  2516TXY    H7 5768   0.768   3.920   4.333
  2516TXY    H8 5769   0.913   3.865   4.251
  2516TXY    C6 5770   0.770   3.961   4.122
  2516TXY   H11 5771   0.662   3.971   4.111
  2516TXY   H12 5772   0.811   4.061   4.134
  2516TXY   H13 5773   0.809   3.919   4.029
  2526TXY   H16 5774   2.273   4.617   0.603
  2526TXY    C7 5775   2.194   4.626   0.528
  2526TXY   H14 5776   2.218   4.559   0.446
  2526TXY   H15 5777   2.197   4.728   0.490
  2526TXY    C5 5778   2.056   4.594   0.587
  2526TXY    H9 5779   1.980   4.611   0.511
  2526TXY   H10 5780   2.036   4.663   0.669
  2526TXY    C3 5781   2.042   4.448   0.639
  2526TXY    H5 5782   2.068   4.380   0.558
  2526TXY    H6 5783   1.937   4.430   0.663
  2526TXY    C1 5784   2.129   4.417   0.762
  2526TXY    H1 5785   2.234   4.438   0.738
  2526TXY    H2 5786   2.102   4.485   0.843
  2526TXY    C2 5787   2.117   4.271   0.808
  2526TXY    H3 5788   2.074   4.209   0.730
  2526TXY    H4 5789   2.217   4.231   0.827
  2526TXY    C4 5790   2.034   4.252   0.938
  2526TXY    H7 5791   2.039   4.147   0.968
  2526TXY    H8 5792   2.079   4.311   1.018
  2526TXY    C6 5793   1.887   4.292   0.922
  2526TXY   H11 5794   1.840   4.236   0.841
  2526TXY   H12 5795   1.831   4.272   1.013
  2526TXY   H13 5796   1.877   4.398   0.900
  2536TXY   H16 5797   3.589   1.127   0.949
  2536TXY    C7 5798   3.503   1.086   0.896
  2536TXY   H14 5799   3.534   1.070   0.792
  2536TXY   H15 5800   3.425   1.162   0.895
  2536TXY    C5 5801   3.453   0.956   0.960
  2536TXY    H9 5802   3.364   0.923   0.906
  2536TXY   H10 5803   3.423   0.977   1.062
  2536TXY    C3 5804   3.558   0.842   0.959
  2536TXY    H5 5805   3.591   0.825   0.856
  2536TXY    H6 5806   3.509   0.750   0.992
  2536TXY    C1 5807   3.680   0.870   1.048
  2536TXY    H1 5808   3.731   0.959   1.012
  2536TXY    H2 5809   3.647   0.892   1.149
  2536TXY    C2 5810   3.782   0.755   1.050
  2536TXY    H3 5811   3.765   0.687   0.966
  2536TXY    H4 5812   3.883   0.795   1.037
  2536TXY    C4 5813   3.781   0.671   1.181
  2536TXY    H7 5814   3.868   0.605   1.181
  2536TXY    H8 5815   3.792   0.738   1.266
  2536TXY    C6 5816   3.654   0.587   1.198
  2536TXY   H11 5817   3.641   0.518   1.115
  2536TXY   H12 5818   3.659   0.528   1.290
  2536TXY   H13 5819   3.565   0.650   1.203
  2546TXY   H16 5820   0.464   2.054   4.496
  2546TXY    C7 5821   0.557   2.037   4.442
  2546TXY   H14 5822   0.536   2.046   4.336
  2546TXY   H15 5823   0.587   1.935   4.462
  2546TXY    C5 5824   0.666   2.136   4.485
  2546TXY    H9 5825   0.759   2.110   4.435
  2546TXY   H10 5826   0.684   2.125   4.592
  2546TXY    C3 5827   0.632   2.284   4.455
  2546TXY    H5 5828   0.613   2.294   4.348
  2546TXY    H6 5829   0.721   2.344   4.476
  2546TXY    C1 5830   0.513   2.338   4.535
  2546TXY    H1 5831   0.423   2.281   4.508
  2546TXY    H2 5832   0.529   2.320   4.641
  2546TXY    C2 5833   0.485   2.487   4.510
  2546TXY    H3 5834   0.538   2.521   4.421
  2546TXY    H4 5835   0.379   2.501   4.490
  2546TXY    C4 5836   0.524   2.579   4.629
  2546TXY    H7 5837   0.491   2.681   4.608
  2546TXY    H8 5838   0.472   2.546   4.719
  2546TXY    C6 5839   0.675   2.582   4.658
  2546TXY   H11 5840   0.731   2.615   4.571
  2546TXY   H12 5841   0.698   2.650   4.740
  2546TXY   H13 5842   0.712   2.483   4.686
  2556TXY   H16 5843   4.555   2.838   4.427
  2556TXY    C7 5844   4.569   2.946   4.428
  2556TXY   H14 5845   4.501   2.990   4.355
  2556TXY   H15 5846   4.670   2.967   4.395
  2556TXY    C5 5847   4.544   3.005   4.568
  2556TXY    H9 5848   4.567   3.112   4.566
  2556TXY   H10 5849   4.613   2.959   4.639
  2556TXY    C3 5850   4.398   2.986   4.619
  2556TXY    H5 5851   4.330   3.030   4.546
  2556TXY    H6 5852   4.386   3.043   4.711
  2556TXY    C1 5853   4.360   2.839   4.644
  2556TXY    H1 5854   4.368   2.784   4.551
  2556TXY    H2 5855   4.432   2.795   4.713
  2556TXY    C2 5856   4.217   2.823   4.699
  2556TXY    H3 5857   4.161   2.916   4.689
  2556TXY    H4 5858   4.164   2.748   4.639
  2556TXY    C4 5859   4.211   2.778   4.847
  2556TXY    H7 5860   4.108   2.754   4.873
  2556TXY    H8 5861   4.268   2.686   4.860
  2556TXY    C6 5862   4.264   2.883   4.945
  2556TXY   H11 5863   4.208   2.976   4.937
  2556TXY   H12 5864   4.256   2.848   0.048
  2556TXY   H13 5865   4.369   2.906   4.926
  2566TXY   H16 5866   4.684   1.202   1.239
  2566TXY    C7 5867   4.633   1.254   1.320
  2566TXY   H14 5868   4.696   1.338   1.350
  2566TXY   H15 5869   4.627   1.185   1.404
  2566TXY    C5 5870   4.493   1.302   1.277
  2566TXY    H9 5871   4.443   1.346   1.364
  2566TXY   H10 5872   4.435   1.215   1.247
  2566TXY    C3 5873   4.495   1.405   1.162
  2566TXY    H5 5874   4.563   1.486   1.188
  2566TXY    H6 5875   4.395   1.449   1.154
  2566TXY    C1 5876   4.536   1.345   1.026
  2566TXY    H1 5877   4.636   1.302   1.035
  2566TXY    H2 5878   4.469   1.262   1.002
  2566TXY    C2 5879   4.536   1.447   0.911
  2566TXY    H3 5880   4.540   1.549   0.951
  2566TXY    H4 5881   4.627   1.435   0.852
  2566TXY    C4 5882   4.415   1.436   0.815
  2566TXY    H7 5883   4.432   1.500   0.729
  2566TXY    H8 5884   4.408   1.334   0.778
  2566TXY    C6 5885   4.282   1.475   0.880
  2566TXY   H11 5886   4.283   1.578   0.915
  2566TXY   H12 5887   4.199   1.464   0.810
  2566TXY   H13 5888   4.259   1.411   0.966
  2576TXY   H16 5889   3.134   0.579   2.491
  2576TXY    C7 5890   3.078   0.673   2.487
  2576TXY   H14 5891   2.987   0.655   2.430
  2576TXY   H15 5892   3.138   0.744   2.431
  2576TXY    C5 5893   3.046   0.726   2.627
  2576TXY    H9 5894   2.997   0.823   2.617
  2576TXY   H10 5895   3.139   0.743   2.681
  2576TXY    C3 5896   2.955   0.633   2.710
  2576TXY    H5 5897   2.863   0.615   2.655
  2576TXY    H6 5898   2.927   0.685   2.802
  2576TXY    C1 5899   3.021   0.498   2.746
  2576TXY    H1 5900   3.044   0.445   2.654
  2576TXY    H2 5901   3.116   0.517   2.796
  2576TXY    C2 5902   2.931   0.409   2.834
  2576TXY    H3 5903   2.830   0.448   2.837
  2576TXY    H4 5904   2.925   0.310   2.789
  2576TXY    C4 5905   2.982   0.392   2.979
  2576TXY    H7 5906   2.920   0.318   3.030
  2576TXY    H8 5907   3.084   0.352   2.978
  2576TXY    C6 5908   2.981   0.522   3.060
  2576TXY   H11 5909   2.881   0.565   3.065
  2576TXY   H12 5910   3.014   0.504   3.163
  2576TXY   H13 5911   3.048   0.596   3.017
  2586TXY   H16 5912   4.840   3.289   4.015
  2586TXY    C7 5913   4.861   3.194   3.966
  2586TXY   H14 5914   4.889   3.214   3.863
  2586TXY   H15 5915   4.768   3.137   3.964
  2586TXY    C5 5916   4.971   3.117   4.040
  2586TXY    H9 5917   4.984   3.020   3.991
  2586TXY   H10 5918   4.938   3.097   4.141
  2586TXY    C3 5919   0.107   3.190   4.044
  2586TXY    H5 5920   0.136   3.216   3.942
  2586TXY    H6 5921   0.182   3.121   4.081
  2586TXY    C1 5922   0.105   3.317   4.131
  2586TXY    H1 5923   0.032   3.387   4.091
  2586TXY    H2 5924   0.072   3.291   4.231
  2586TXY    C2 5925   0.242   3.387   4.137
  2586TXY    H3 5926   0.307   3.352   4.057
  2586TXY    H4 5927   0.228   3.494   4.120
  2586TXY    C4 5928   0.317   3.369   4.272
  2586TXY    H7 5929   0.405   3.434   4.272
  2586TXY    H8 5930   0.252   3.402   4.353
  2586TXY    C6 5931   0.360   3.225   4.298
  2586TXY   H11 5932   0.427   3.189   4.220
  2586TXY   H12 5933   0.414   3.217   4.393
  2586TXY   H13 5934   0.275   3.157   4.303
  2596TXY   H16 5935   3.403   4.602   1.350
  2596TXY    C7 5936   3.413   4.704   1.313
  2596TXY   H14 5937   3.313   4.747   1.307
  2596TXY   H15 5938   3.453   4.698   1.212
  2596TXY    C5 5939   3.505   4.788   1.403
  2596TXY    H9 5940   3.523   4.884   1.355
  2596TXY   H10 5941   3.601   4.738   1.412
  2596TXY    C3 5942   3.447   4.812   1.545
  2596TXY    H5 5943   3.349   4.858   1.535
  2596TXY    H6 5944   3.511   4.884   1.596
  2596TXY    C1 5945   3.435   4.685   1.630
  2596TXY    H1 5946   3.372   4.613   1.578
  2596TXY    H2 5947   3.533   4.638   1.639
  2596TXY    C2 5948   3.375   4.711   1.769
  2596TXY    H3 5949   3.328   4.809   1.773
  2596TXY    H4 5950   3.296   4.639   1.788
  2596TXY    C4 5951   3.478   4.702   1.885
  2596TXY    H7 5952   3.425   4.708   1.980
  2596TXY    H8 5953   3.526   4.604   1.882
  2596TXY    C6 5954   3.585   4.811   1.881
  2596TXY   H11 5955   3.540   4.910   1.886
  2596TXY   H12 5956   3.654   4.802   1.965
  2596TXY   H13 5957   3.644   4.805   1.790
  2606TXY   H16 5958   1.648   2.380   1.226
  2606TXY    C7 5959   1.570   2.441   1.271
  2606TXY   H14 5960   1.609   2.542   1.282
  2606TXY   H15 5961   1.553   2.402   1.372
  2606TXY    C5 5962   1.441   2.439   1.189
  2606TXY    H9 5963   1.364   2.493   1.244
  2606TXY   H10 5964   1.407   2.336   1.179
  2606TXY    C3 5965   1.456   2.502   1.048
  2606TXY    H5 5966   1.492   2.604   1.060
  2606TXY    H6 5967   1.357   2.509   1.004
  2606TXY    C1 5968   1.549   2.424   0.954
  2606TXY    H1 5969   1.648   2.419   0.999
  2606TXY    H2 5970   1.514   2.321   0.945
  2606TXY    C2 5971   1.562   2.488   0.815
  2606TXY    H3 5972   1.538   2.594   0.819
  2606TXY    H4 5973   1.666   2.481   0.782
  2606TXY    C4 5974   1.474   2.421   0.706
  2606TXY    H7 5975   1.505   2.459   0.608
  2606TXY    H8 5976   1.493   2.314   0.705
  2606TXY    C6 5977   1.324   2.446   0.724
  2606TXY   H11 5978   1.302   2.552   0.725
  2606TXY   H12 5979   1.268   2.401   0.643
  2606TXY   H13 5980   1.287   2.403   0.817
  2616TXY   H16 5981   2.203   4.939   3.495
  2616TXY    C7 5982   2.103   4.981   3.482
  2616TXY   H14 5983   2.070   4.958   3.381
  2616TXY   H15 5984   2.112   0.089   3.491
  2616TXY    C5 5985   2.006   4.925   3.587
  2616TXY    H9 5986   1.910   4.977   3.576
  2616TXY   H10 5987   2.043   4.949   3.687
  2616TXY    C3 5988   1.982   4.772   3.576
  2616TXY    H5 5989   1.946   4.750   3.475
  2616TXY    H6 5990   1.902   4.745   3.644
  2616TXY    C1 5991   2.107   4.688   3.606
  2616TXY    H1 5992   2.183   4.710   3.531
  2616TXY    H2 5993   2.149   4.719   3.702
  2616TXY    C2 5994   2.080   4.537   3.606
  2616TXY    H3 5995   1.986   4.515   3.556
  2616TXY    H4 5996   2.158   4.487   3.548
  2616TXY    C4 5997   2.077   4.473   3.748
  2616TXY    H7 5998   2.070   4.365   3.737
  2616TXY    H8 5999   2.171   4.495   3.798
  2616TXY    C6 6000   1.961   4.523   3.835
  2616TXY   H11 6001   1.865   4.502   3.788
  2616TXY   H12 6002   1.961   4.474   3.932
  2616TXY   H13 6003   1.967   4.630   3.852
  2626TXY   H16 6004   4.466   2.543   3.806
  2626TXY    C7 6005   4.407   2.461   3.846
  2626TXY   H14 6006   4.319   2.448   3.782
  2626TXY   H15 6007   4.372   2.490   3.945
  2626TXY    C5 6008   4.489   2.331   3.854
  2626TXY    H9 6009   4.429   2.255   3.903
  2626TXY   H10 6010   4.576   2.348   3.917
  2626TXY    C3 6011   4.535   2.278   3.716
  2626TXY    H5 6012   4.447   2.264   3.653
  2626TXY    H6 6013   4.579   2.179   3.730
  2626TXY    C1 6014   4.636   2.369   3.645
  2626TXY    H1 6015   4.592   2.468   3.632
  2626TXY    H2 6016   4.724   2.381   3.708
  2626TXY    C2 6017   4.678   2.316   3.506
  2626TXY    H3 6018   4.617   2.230   3.479
  2626TXY    H4 6019   4.657   2.393   3.431
  2626TXY    C4 6020   4.827   2.277   3.496
  2626TXY    H7 6021   4.851   2.258   3.391
  2626TXY    H8 6022   4.889   2.360   3.528
  2626TXY    C6 6023   4.863   2.153   3.578
  2626TXY   H11 6024   4.805   2.066   3.547
  2626TXY   H12 6025   4.968   2.128   3.568
  2626TXY   H13 6026   4.843   2.169   3.684
  2636TXY   H16 6027   0.224   4.401   1.542
  2636TXY    C7 6028   0.251   4.312   1.598
  2636TXY   H14 6029   0.306   4.245   1.531
  2636TXY   H15 6030   0.159   4.261   1.626
  2636TXY    C5 6031   0.334   4.346   1.723
  2636TXY    H9 6032   0.353   4.254   1.779
  2636TXY   H10 6033   0.275   4.411   1.787
  2636TXY    C3 6034   0.469   4.414   1.691
  2636TXY    H5 6035   0.524   4.351   1.621
  2636TXY    H6 6036   0.528   4.419   1.782
  2636TXY    C1 6037   0.454   4.556   1.632
  2636TXY    H1 6038   0.400   4.549   1.538
  2636TXY    H2 6039   0.394   4.617   1.699
  2636TXY    C2 6040   0.590   4.624   1.606
  2636TXY    H3 6041   0.670   4.551   1.606
  2636TXY    H4 6042   0.589   4.669   1.506
  2636TXY    C4 6043   0.625   4.736   1.708
  2636TXY    H7 6044   0.715   4.788   1.674
  2636TXY    H8 6045   0.545   4.810   1.710
  2636TXY    C6 6046   0.649   4.684   1.850
  2636TXY   H11 6047   0.730   4.612   1.853
  2636TXY   H12 6048   0.674   4.766   1.918
  2636TXY   H13 6049   0.560   4.636   1.890
  2646TXY   H16 6050   3.369   2.003   1.995
  2646TXY    C7 6051   3.294   1.954   1.934
  2646TXY   H14 6052   3.296   1.998   1.834
  2646TXY   H15 6053   3.196   1.976   1.977
  2646TXY    C5 6054   3.317   1.802   1.927
  2646TXY    H9 6055   3.235   1.757   1.871
  2646TXY   H10 6056   3.312   1.761   2.028
  2646TXY    C3 6057   3.451   1.762   1.862
  2646TXY    H5 6058   3.456   1.807   1.762
  2646TXY    H6 6059   3.451   1.654   1.847
  2646TXY    C1 6060   3.575   1.803   1.943
  2646TXY    H1 6061   3.576   1.912   1.955
  2646TXY    H2 6062   3.567   1.761   2.044
  2646TXY    C2 6063   3.707   1.760   1.878
  2646TXY    H3 6064   3.692   1.736   1.773
  2646TXY    H4 6065   3.777   1.843   1.880
  2646TXY    C4 6066   3.775   1.638   1.947
  2646TXY    H7 6067   3.874   1.624   1.903
  2646TXY    H8 6068   3.790   1.661   2.053
  2646TXY    C6 6069   3.695   1.508   1.934
  2646TXY   H11 6070   3.680   1.482   1.829
  2646TXY   H12 6071   3.748   1.425   1.981
  2646TXY   H13 6072   3.598   1.516   1.981
  2656TXY   H16 6073   3.948   2.169   2.852
  2656TXY    C7 6074   3.965   2.062   2.864
  2656TXY   H14 6075   3.981   2.020   2.765
  2656TXY   H15 6076   3.873   2.019   2.903
  2656TXY    C5 6077   4.083   2.034   2.957
  2656TXY    H9 6078   4.091   1.926   2.971
  2656TXY   H10 6079   4.062   2.077   3.055
  2656TXY    C3 6080   4.219   2.088   2.905
  2656TXY    H5 6081   4.235   2.049   2.804
  2656TXY    H6 6082   4.298   2.047   2.967
  2656TXY    C1 6083   4.228   2.241   2.903
  2656TXY    H1 6084   4.148   2.281   2.840
  2656TXY    H2 6085   4.209   2.279   3.004
  2656TXY    C2 6086   4.363   2.294   2.851
  2656TXY    H3 6087   4.418   2.214   2.801
  2656TXY    H4 6088   4.344   2.370   2.775
  2656TXY    C4 6089   4.453   2.356   2.960
  2656TXY    H7 6090   4.538   2.406   2.912
  2656TXY    H8 6091   4.397   2.433   3.014
  2656TXY    C6 6092   4.507   2.254   3.061
  2656TXY   H11 6093   4.567   2.178   3.012
  2656TXY   H12 6094   4.569   2.302   3.136
  2656TXY   H13 6095   4.425   2.203   3.113
  2666TXY   H16 6096   2.605   1.656   1.312
  2666TXY    C7 6097   2.545   1.612   1.232
  2666TXY   H14 6098   2.479   1.538   1.276
  2666TXY   H15 6099   2.614   1.560   1.165
  2666TXY    C5 6100   2.466   1.719   1.156
  2666TXY    H9 6101   2.414   1.671   1.072
  2666TXY   H10 6102   2.535   1.791   1.113
  2666TXY    C3 6103   2.362   1.793   1.243
  2666TXY    H5 6104   2.294   1.719   1.287
  2666TXY    H6 6105   2.301   1.856   1.178
  2666TXY    C1 6106   2.424   1.879   1.354
  2666TXY    H1 6107   2.480   1.814   1.422
  2666TXY    H2 6108   2.496   1.948   1.311
  2666TXY    C2 6109   2.320   1.957   1.436
  2666TXY    H3 6110   2.220   1.916   1.420
  2666TXY    H4 6111   2.341   1.944   1.542
  2666TXY    C4 6112   2.316   2.109   1.405
  2666TXY    H7 6113   2.252   2.158   1.479
  2666TXY    H8 6114   2.416   2.150   1.417
  2666TXY    C6 6115   2.265   2.141   1.265
  2666TXY   H11 6116   2.163   2.103   1.250
  2666TXY   H12 6117   2.262   2.249   1.248
  2666TXY   H13 6118   2.328   2.097   1.188
  2676TXY   H16 6119   1.681   4.174   0.708
  2676TXY    C7 6120   1.579   4.147   0.681
  2676TXY   H14 6121   1.584   4.088   0.590
  2676TXY   H15 6122   1.526   4.239   0.658
  2676TXY    C5 6123   1.509   4.070   0.793
  2676TXY    H9 6124   1.409   4.044   0.760
  2676TXY   H10 6125   1.498   4.136   0.880
  2676TXY    C3 6126   1.582   3.941   0.837
  2676TXY    H5 6127   1.604   3.881   0.748
  2676TXY    H6 6128   1.514   3.881   0.898
  2676TXY    C1 6129   1.713   3.966   0.914
  2676TXY    H1 6130   1.784   4.015   0.848
  2676TXY    H2 6131   1.693   4.036   0.996
  2676TXY    C2 6132   1.776   3.838   0.969
  2676TXY    H3 6133   1.732   3.750   0.922
  2676TXY    H4 6134   1.882   3.836   0.943
  2676TXY    C4 6135   1.764   3.822   1.123
  2676TXY    H7 6136   1.820   3.734   1.154
  2676TXY    H8 6137   1.810   3.908   1.171
  2676TXY    C6 6138   1.619   3.809   1.172
  2676TXY   H11 6139   1.571   3.722   1.128
  2676TXY   H12 6140   1.616   3.797   1.280
  2676TXY   H13 6141   1.560   3.896   1.146
  2686TXY   H16 6142   2.269   4.624   2.715
  2686TXY    C7 6143   2.291   4.687   2.629
  2686TXY   H14 6144   2.337   4.623   2.553
  2686TXY   H15 6145   2.365   4.760   2.659
  2686TXY    C5 6146   2.165   4.755   2.574
  2686TXY    H9 6147   2.193   4.819   2.491
  2686TXY   H10 6148   2.123   4.820   2.652
  2686TXY    C3 6149   2.056   4.656   2.527
  2686TXY    H5 6150   2.100   4.588   2.455
  2686TXY    H6 6151   1.979   4.713   2.474
  2686TXY    C1 6152   1.991   4.576   2.641
  2686TXY    H1 6153   2.068   4.517   2.692
  2686TXY    H2 6154   1.950   4.645   2.715
  2686TXY    C2 6155   1.881   4.480   2.593
  2686TXY    H3 6156   1.890   4.462   2.486
  2686TXY    H4 6157   1.893   4.384   2.641
  2686TXY    C4 6158   1.736   4.530   2.621
  2686TXY    H7 6159   1.666   4.451   2.595
  2686TXY    H8 6160   1.725   4.548   2.728
  2686TXY    C6 6161   1.699   4.657   2.544
  2686TXY   H11 6162   1.708   4.643   2.437
  2686TXY   H12 6163   1.595   4.686   2.565
  2686TXY   H13 6164   1.762   4.741   2.573
  2696TXY   H16 6165   3.836   4.799   4.277
  2696TXY    C7 6166   3.842   4.708   4.336
  2696TXY   H14 6167   3.752   4.703   4.398
  2696TXY   H15 6168   3.928   4.717   4.403
  2696TXY    C5 6169   3.854   4.583   4.248
  2696TXY    H9 6170   3.866   4.495   4.312
  2696TXY   H10 6171   3.945   4.591   4.188
  2696TXY    C3 6172   3.733   4.560   4.154
  2696TXY    H5 6173   3.643   4.554   4.214
  2696TXY    H6 6174   3.745   4.463   4.105
  2696TXY    C1 6175   3.716   4.670   4.047
  2696TXY    H1 6176   3.695   4.765   4.097
  2696TXY    H2 6177   3.810   4.683   3.994
  2696TXY    C2 6178   3.602   4.640   3.948
  2696TXY    H3 6179   3.544   4.554   3.981
  2696TXY    H4 6180   3.534   4.725   3.945
  2696TXY    C4 6181   3.651   4.613   3.803
  2696TXY    H7 6182   3.564   4.607   3.737
  2696TXY    H8 6183   3.710   4.698   3.769
  2696TXY    C6 6184   3.734   4.485   3.788
  2696TXY   H11 6185   3.677   4.398   3.819
  2696TXY   H12 6186   3.764   4.470   3.685
  2696TXY   H13 6187   3.824   4.489   3.849
  2706TXY   H16 6188   4.788   2.309   4.533
  2706TXY    C7 6189   4.881   2.264   4.568
  2706TXY   H14 6190   4.862   2.158   4.586
  2706TXY   H15 6191   4.906   2.309   4.664
  2706TXY    C5 6192   4.995   2.284   4.467
  2706TXY    H9 6193   0.087   2.243   4.509
  2706TXY   H10 6194   0.011   2.391   4.452
  2706TXY    C3 6195   4.968   2.217   4.330
  2706TXY    H5 6196   4.948   2.111   4.346
  2706TXY    H6 6197   0.059   2.222   4.270
  2706TXY    C1 6198   4.852   2.280   4.251
  2706TXY    H1 6199   4.761   2.273   4.311
  2706TXY    H2 6200   4.872   2.386   4.237
  2706TXY    C2 6201   4.826   2.212   4.115
  2706TXY    H3 6202   4.882   2.118   4.108
  2706TXY    H4 6203   4.721   2.185   4.108
  2706TXY    C4 6204   4.861   2.299   3.993
  2706TXY    H7 6205   4.827   2.249   3.902
  2706TXY    H8 6206   4.808   2.394   3.999
  2706TXY    C6 6207   0.011   2.328   3.979
  2706TXY   H11 6208   0.069   2.236   3.971
  2706TXY   H12 6209   0.032   2.388   3.890
  2706TXY   H13 6210   0.049   2.383   4.065
  2716TXY   H16 6211   0.500   4.409   0.398
  2716TXY    C7 6212   0.598   4.442   0.363
  2716TXY   H14 6213   0.583   4.513   0.282
  2716TXY   H15 6214   0.649   4.355   0.321
  2716TXY    C5 6215   0.681   4.503   0.477
  2716TXY    H9 6216   0.780   4.528   0.439
  2716TXY   H10 6217   0.694   4.429   0.555
  2716TXY    C3 6218   0.617   4.631   0.538
  2716TXY    H5 6219   0.594   4.700   0.457
  2716TXY    H6 6220   0.691   4.680   0.601
  2716TXY    C1 6221   0.490   4.603   0.620
  2716TXY    H1 6222   0.417   4.553   0.556
  2716TXY    H2 6223   0.514   4.533   0.700
  2716TXY    C2 6224   0.426   4.730   0.678
  2716TXY    H3 6225   0.464   4.818   0.627
  2716TXY    H4 6226   0.318   4.728   0.660
  2716TXY    C4 6227   0.448   4.748   0.831
  2716TXY    H7 6228   0.386   4.831   0.865
  2716TXY    H8 6229   0.414   4.659   0.883
  2716TXY    C6 6230   0.594   4.777   0.868
  2716TXY   H11 6231   0.630   4.867   0.820
  2716TXY   H12 6232   0.605   4.790   0.976
  2716TXY   H13 6233   0.659   4.695   0.838
  2726TXY   H16 6234   2.792   2.673   4.718
  2726TXY    C7 6235   2.707   2.738   4.736
  2726TXY   H14 6236   2.744   2.840   4.747
  2726TXY   H15 6237   2.663   2.709   4.832
  2726TXY    C5 6238   2.603   2.729   4.623
  2726TXY    H9 6239   2.517   2.791   4.649
  2726TXY   H10 6240   2.568   2.626   4.616
  2726TXY    C3 6241   2.658   2.773   4.485
  2726TXY    H5 6242   2.698   2.874   4.495
  2726TXY    H6 6243   2.574   2.780   4.416
  2726TXY    C1 6244   2.764   2.679   4.428
  2726TXY    H1 6245   2.853   2.683   4.491
  2726TXY    H2 6246   2.728   2.576   4.432
  2726TXY    C2 6247   2.805   2.715   4.284
  2726TXY    H3 6248   2.773   2.817   4.260
  2726TXY    H4 6249   2.914   2.715   4.276
  2726TXY    C4 6250   2.749   2.619   4.177
  2726TXY    H7 6251   2.791   2.645   4.080
  2726TXY    H8 6252   2.781   2.517   4.199
  2726TXY    C6 6253   2.596   2.621   4.166
  2726TXY   H11 6254   2.559   2.721   4.142
  2726TXY   H12 6255   2.561   2.553   4.088
  2726TXY   H13 6256   2.549   2.589   4.259
  2736TXY   H16 6257   3.901   0.506   3.377
  2736TXY    C7 6258   3.883   0.612   3.359
  2736TXY   H14 6259   3.841   0.622   3.259
  2736TXY   H15 6260   3.979   0.663   3.361
  2736TXY    C5 6261   3.788   0.672   3.465
  2736TXY    H9 6262   3.777   0.778   3.445
  2736TXY   H10 6263   3.834   0.662   3.563
  2736TXY    C3 6264   3.648   0.605   3.467
  2736TXY    H5 6265   3.606   0.609   3.367
  2736TXY    H6 6266   3.583   0.666   3.530
  2736TXY    C1 6267   3.649   0.460   3.519
  2736TXY    H1 6268   3.715   0.401   3.455
  2736TXY    H2 6269   3.692   0.458   3.619
  2736TXY    C2 6270   3.509   0.396   3.519
  2736TXY    H3 6271   3.440   0.454   3.458
  2736TXY    H4 6272   3.515   0.297   3.473
  2736TXY    C4 6273   3.448   0.378   3.661
  2736TXY    H7 6274   3.357   0.319   3.652
  2736TXY    H8 6275   3.517   0.322   3.723
  2736TXY    C6 6276   3.414   0.511   3.730
  2736TXY   H11 6277   3.344   0.570   3.671
  2736TXY   H12 6278   3.368   0.494   3.827
  2736TXY   H13 6279   3.504   0.571   3.746
  2746TXY   H16 6280   0.091   4.598   4.806
  2746TXY    C7 6281   0.061   4.495   4.789
  2746TXY   H14 6282   0.130   4.431   4.844
  2746TXY   H15 6283   0.074   4.474   4.683
  2746TXY    C5 6284   4.916   4.471   4.833
  2746TXY    H9 6285   4.889   4.368   4.810
  2746TXY   H10 6286   4.851   4.535   4.774
  2746TXY    C3 6287   4.892   4.497   4.984
  2746TXY    H5 6288   4.960   4.433   0.041
  2746TXY    H6 6289   4.791   4.464   0.008
  2746TXY    C1 6290   4.911   4.644   0.025
  2746TXY    H1 6291   0.014   4.674   0.004
  2746TXY    H2 6292   4.846   4.707   4.964
  2746TXY    C2 6293   4.883   4.668   0.174
  2746TXY    H3 6294   4.881   4.574   0.229
  2746TXY    H4 6295   4.966   4.726   0.217
  2746TXY    C4 6296   4.752   4.745   0.203
  2746TXY    H7 6297   4.747   4.769   0.309
  2746TXY    H8 6298   4.753   4.840   0.149
  2746TXY    C6 6299   4.626   4.667   0.163
  2746TXY   H11 6300   4.621   4.571   0.215
  2746TXY   H12 6301   4.536   4.722   0.190
  2746TXY   H13 6302   4.622   4.647   0.056
  2756TXY   H16 6303   3.985   0.499   4.049
  2756TXY    C7 6304   3.948   0.404   4.087
  2756TXY   H14 6305   3.840   0.402   4.074
  2756TXY   H15 6306   3.968   0.402   4.195
  2756TXY    C5 6307   4.015   0.285   4.017
  2756TXY    H9 6308   3.981   0.193   4.064
  2756TXY   H10 6309   4.123   0.290   4.032
  2756TXY    C3 6310   3.985   0.278   3.865
  2756TXY    H5 6311   3.877   0.275   3.851
  2756TXY    H6 6312   4.023   0.184   3.827
  2756TXY    C1 6313   4.045   0.395   3.785
  2756TXY    H1 6314   4.000   0.488   3.820
  2756TXY    H2 6315   4.151   0.402   3.806
  2756TXY    C2 6316   4.021   0.383   3.634
  2756TXY    H3 6317   3.940   0.313   3.613
  2756TXY    H4 6318   3.988   0.480   3.595
  2756TXY    C4 6319   4.146   0.339   3.553
  2756TXY    H7 6320   4.123   0.346   3.446
  2756TXY    H8 6321   4.228   0.408   3.573
  2756TXY    C6 6322   4.192   0.196   3.584
  2756TXY   H11 6323   4.112   0.124   3.565
  2756TXY   H12 6324   4.277   0.168   3.523
  2756TXY   H13 6325   4.222   0.186   3.689
  2766TXY   H16 6326   3.345   2.020   0.970
  2766TXY    C7 6327   3.332   1.982   1.071
  2766TXY   H14 6328   3.234   2.014   1.106
  2766TXY   H15 6329   3.407   2.031   1.134
  2766TXY    C5 6330   3.347   1.830   1.077
  2766TXY    H9 6331   3.341   1.798   1.181
  2766TXY   H10 6332   3.446   1.803   1.041
  2766TXY    C3 6333   3.240   1.753   0.994
  2766TXY    H5 6334   3.141   1.783   1.030
  2766TXY    H6 6335   3.250   1.647   1.016
  2766TXY    C1 6336   3.250   1.777   0.843
  2766TXY    H1 6337   3.233   1.883   0.823
  2766TXY    H2 6338   3.351   1.755   0.809
  2766TXY    C2 6339   3.148   1.695   0.762
  2766TXY    H3 6340   3.068   1.659   0.827
  2766TXY    H4 6341   3.100   1.760   0.688
  2766TXY    C4 6342   3.210   1.575   0.686
  2766TXY    H7 6343   3.134   1.532   0.620
  2766TXY    H8 6344   3.291   1.609   0.623
  2766TXY    C6 6345   3.262   1.464   0.779
  2766TXY   H11 6346   3.182   1.424   0.842
  2766TXY   H12 6347   3.304   1.382   0.723
  2766TXY   H13 6348   3.340   1.502   0.846
  2776TXY   H16 6349   3.751   3.785   0.062
  2776TXY    C7 6350   3.753   3.890   0.093
  2776TXY   H14 6351   3.671   3.907   0.162
  2776TXY   H15 6352   3.734   3.950   0.004
  2776TXY    C5 6353   3.888   3.927   0.157
  2776TXY    H9 6354   3.889   4.034   0.177
  2776TXY   H10 6355   3.968   3.908   0.085
  2776TXY    C3 6356   3.918   3.850   0.288
  2776TXY    H5 6357   3.836   3.868   0.358
  2776TXY    H6 6358   4.007   3.894   0.333
  2776TXY    C1 6359   3.938   3.699   0.269
  2776TXY    H1 6360   3.848   3.657   0.224
  2776TXY    H2 6361   4.020   3.683   0.198
  2776TXY    C2 6362   3.967   3.625   0.400
  2776TXY    H3 6363   3.937   3.686   0.486
  2776TXY    H4 6364   3.906   3.535   0.404
  2776TXY    C4 6365   4.115   3.583   0.418
  2776TXY    H7 6366   4.123   3.519   0.506
  2776TXY    H8 6367   4.147   3.524   0.332
  2776TXY    C6 6368   4.211   3.702   0.435
  2776TXY   H11 6369   4.183   3.763   0.521
  2776TXY   H12 6370   4.313   3.667   0.451
  2776TXY   H13 6371   4.211   3.766   0.347
  2786TXY   H16 6372   0.819   1.902   4.297
  2786TXY    C7 6373   0.912   1.864   4.341
  2786TXY   H14 6374   0.901   1.756   4.353
  2786TXY   H15 6375   0.922   1.907   4.440
  2786TXY    C5 6376   1.033   1.897   4.254
  2786TXY    H9 6377   1.124   1.863   4.305
  2786TXY   H10 6378   1.041   2.005   4.244
  2786TXY    C3 6379   1.029   1.833   4.113
  2786TXY    H5 6380   1.016   1.725   4.124
  2786TXY    H6 6381   1.125   1.848   4.065
  2786TXY    C1 6382   0.917   1.889   4.022
  2786TXY    H1 6383   0.821   1.872   4.070
  2786TXY    H2 6384   0.929   1.998   4.014
  2786TXY    C2 6385   0.915   1.825   3.882
  2786TXY    H3 6386   0.975   1.734   3.881
  2786TXY    H4 6387   0.813   1.795   3.859
  2786TXY    C4 6388   0.965   1.918   3.769
  2786TXY    H7 6389   0.948   1.870   3.673
  2786TXY    H8 6390   0.906   2.010   3.769
  2786TXY    C6 6391   1.114   1.954   3.780
  2786TXY   H11 6392   1.176   1.865   3.779
  2786TXY   H12 6393   1.145   2.017   3.697
  2786TXY   H13 6394   1.135   2.009   3.872
  2796TXY   H16 6395   0.439   4.313   3.370
  2796TXY    C7 6396   0.499   4.361   3.293
  2796TXY   H14 6397   0.432   4.413   3.226
  2796TXY   H15 6398   0.548   4.282   3.236
  2796TXY    C5 6399   0.603   4.456   3.353
  2796TXY    H9 6400   0.663   4.497   3.272
  2796TXY   H10 6401   0.671   4.399   3.417
  2796TXY    C3 6402   0.541   4.572   3.435
  2796TXY    H5 6403   0.472   4.627   3.370
  2796TXY    H6 6404   0.621   4.642   3.461
  2796TXY    C1 6405   0.469   4.526   3.562
  2796TXY    H1 6406   0.387   4.460   3.534
  2796TXY    H2 6407   0.538   4.468   3.623
  2796TXY    C2 6408   0.411   4.642   3.645
  2796TXY    H3 6409   0.410   4.734   3.586
  2796TXY    H4 6410   0.307   4.620   3.670
  2796TXY    C4 6411   0.488   4.669   3.777
  2796TXY    H7 6412   0.431   4.741   3.837
  2796TXY    H8 6413   0.494   4.577   3.835
  2796TXY    C6 6414   0.629   4.724   3.755
  2796TXY   H11 6415   0.626   4.819   3.701
  2796TXY   H12 6416   0.680   4.741   3.850
  2796TXY   H13 6417   0.690   4.656   3.697
  2806TXY   H16 6418   2.327   1.252   2.713
  2806TXY    C7 6419   2.220   1.232   2.703
  2806TXY   H14 6420   2.168   1.328   2.711
  2806TXY   H15 6421   2.190   1.172   2.789
  2806TXY    C5 6422   2.187   1.161   2.572
  2806TXY    H9 6423   2.081   1.135   2.571
  2806TXY   H10 6424   2.243   1.067   2.567
  2806TXY    C3 6425   2.219   1.245   2.446
  2806TXY    H5 6426   2.165   1.340   2.453
  2806TXY    H6 6427   2.179   1.193   2.359
  2806TXY    C1 6428   2.369   1.272   2.425
  2806TXY    H1 6429   2.407   1.326   2.511
  2806TXY    H2 6430   2.422   1.176   2.421
  2806TXY    C2 6431   2.399   1.354   2.298
  2806TXY    H3 6432   2.307   1.398   2.258
  2806TXY    H4 6433   2.464   1.438   2.324
  2806TXY    C4 6434   2.468   1.273   2.185
  2806TXY    H7 6435   2.495   1.341   2.105
  2806TXY    H8 6436   2.561   1.230   2.223
  2806TXY    C6 6437   2.381   1.161   2.128
  2806TXY   H11 6438   2.287   1.200   2.088
  2806TXY   H12 6439   2.432   1.109   2.047
  2806TXY   H13 6440   2.356   1.087   2.204
  2816TXY   H16 6441   3.306   2.656   2.566
  2816TXY    C7 6442   3.235   2.591   2.515
  2816TXY   H14 6443   3.143   2.648   2.501
  2816TXY   H15 6444   3.213   2.508   2.583
  2816TXY    C5 6445   3.290   2.540   2.382
  2816TXY    H9 6446   3.216   2.474   2.336
  2816TXY   H10 6447   3.379   2.481   2.400
  2816TXY    C3 6448   3.324   2.654   2.282
  2816TXY    H5 6449   3.236   2.718   2.270
  2816TXY    H6 6450   3.342   2.609   2.184
  2816TXY    C1 6451   3.445   2.739   2.323
  2816TXY    H1 6452   3.425   2.785   2.420
  2816TXY    H2 6453   3.531   2.673   2.336
  2816TXY    C2 6454   3.478   2.850   2.222
  2816TXY    H3 6455   3.394   2.867   2.155
  2816TXY    H4 6456   3.494   2.943   2.276
  2816TXY    C4 6457   3.604   2.822   2.136
  2816TXY    H7 6458   3.628   2.912   2.078
  2816TXY    H8 6459   3.689   2.804   2.202
  2816TXY    C6 6460   3.589   2.704   2.041
  2816TXY   H11 6461   3.506   2.719   1.972
  2816TXY   H12 6462   3.679   2.689   1.981
  2816TXY   H13 6463   3.571   2.611   2.095
  2826TXY   H16 6464   4.947   2.567   1.737
  2826TXY    C7 6465   0.045   2.600   1.770
  2826TXY   H14 6466   0.107   2.615   1.681
  2826TXY   H15 6467   0.090   2.520   1.828
  2826TXY    C5 6468   0.036   2.729   1.853
  2826TXY    H9 6469   0.136   2.756   1.887
  2826TXY   H10 6470   4.975   2.711   1.941
  2826TXY    C3 6471   4.977   2.849   1.774
  2826TXY    H5 6472   0.035   2.861   1.682
  2826TXY    H6 6473   4.992   2.940   1.832
  2826TXY    C1 6474   4.828   2.833   1.739
  2826TXY    H1 6475   4.816   2.745   1.676
  2826TXY    H2 6476   4.772   2.813   1.831
  2826TXY    C2 6477   4.770   2.955   1.666
  2826TXY    H3 6478   4.848   3.028   1.646
  2826TXY    H4 6479   4.732   2.924   1.569
  2826TXY    C4 6480   4.655   3.026   1.742
  2826TXY    H7 6481   4.613   3.104   1.678
  2826TXY    H8 6482   4.576   2.955   1.762
  2826TXY    C6 6483   4.700   3.091   1.874
  2826TXY   H11 6484   4.781   3.162   1.858
  2826TXY   H12 6485   4.618   3.145   1.921
  2826TXY   H13 6486   4.735   3.016   1.945
  2836TXY   H16 6487   2.221   3.426   3.875
  2836TXY    C7 6488   2.279   3.334   3.867
  2836TXY   H14 6489   2.220   3.253   3.911
  2836TXY   H15 6490   2.368   3.346   3.928
  2836TXY    C5 6491   2.315   3.303   3.721
  2836TXY    H9 6492   2.379   3.215   3.719
  2836TXY   H10 6493   2.374   3.385   3.681
  2836TXY    C3 6494   2.193   3.279   3.630
  2836TXY    H5 6495   2.130   3.202   3.675
  2836TXY    H6 6496   2.228   3.239   3.534
  2836TXY    C1 6497   2.109   3.405   3.605
  2836TXY    H1 6498   2.072   3.442   3.701
  2836TXY    H2 6499   2.173   3.483   3.564
  2836TXY    C2 6500   1.989   3.382   3.512
  2836TXY    H3 6501   1.969   3.275   3.502
  2836TXY    H4 6502   1.899   3.425   3.556
  2836TXY    C4 6503   2.006   3.442   3.370
  2836TXY    H7 6504   1.911   3.435   3.317
  2836TXY    H8 6505   2.030   3.548   3.379
  2836TXY    C6 6506   2.114   3.373   3.287
  2836TXY   H11 6507   2.094   3.267   3.276
  2836TXY   H12 6508   2.119   3.416   3.187
  2836TXY   H13 6509   2.213   3.384   3.332
  2846TXY   H16 6510   2.192   0.414   4.573
  2846TXY    C7 6511   2.230   0.318   4.610
  2846TXY   H14 6512   2.322   0.295   4.556
  2846TXY   H15 6513   2.157   0.242   4.584
  2846TXY    C5 6514   2.254   0.321   4.761
  2846TXY    H9 6515   2.284   0.222   4.794
  2846TXY   H10 6516   2.159   0.344   4.812
  2846TXY    C3 6517   2.361   0.424   4.805
  2846TXY    H5 6518   2.451   0.409   4.745
  2846TXY    H6 6519   2.388   0.403   4.909
  2846TXY    C1 6520   2.314   0.570   4.792
  2846TXY    H1 6521   2.286   0.590   4.689
  2846TXY    H2 6522   2.224   0.585   4.852
  2846TXY    C2 6523   2.421   0.673   4.834
  2846TXY    H3 6524   2.521   0.630   4.825
  2846TXY    H4 6525   2.418   0.757   4.764
  2846TXY    C4 6526   2.404   0.730   4.977
  2846TXY    H7 6527   2.475   0.811   4.991
  2846TXY    H8 6528   2.305   0.773   4.987
  2846TXY    C6 6529   2.425   0.626   0.088
  2846TXY   H11 6530   2.523   0.580   0.082
  2846TXY   H12 6531   2.416   0.672   0.186
  2846TXY   H13 6532   2.351   0.546   0.082
  2856TXY   H16 6533   2.224   2.551   2.678
  2856TXY    C7 6534   2.208   2.646   2.730
  2856TXY   H14 6535   2.283   2.653   2.809
  2856TXY   H15 6536   2.110   2.642   2.777
  2856TXY    C5 6537   2.218   2.765   2.634
  2856TXY    H9 6538   2.194   2.856   2.688
  2856TXY   H10 6539   2.142   2.753   2.556
  2856TXY    C3 6540   2.357   2.781   2.568
  2856TXY    H5 6541   2.432   2.788   2.647
  2856TXY    H6 6542   2.359   2.876   2.514
  2856TXY    C1 6543   2.394   2.667   2.472
  2856TXY    H1 6544   2.393   2.572   2.526
  2856TXY    H2 6545   2.317   2.659   2.394
  2856TXY    C2 6546   2.532   2.684   2.407
  2856TXY    H3 6547   2.589   2.761   2.459
  2856TXY    H4 6548   2.589   2.591   2.418
  2856TXY    C4 6549   2.528   2.720   2.256
  2856TXY    H7 6550   2.630   2.715   2.216
  2856TXY    H8 6551   2.470   2.644   2.203
  2856TXY    C6 6552   2.469   2.858   2.228
  2856TXY   H11 6553   2.527   2.936   2.277
  2856TXY   H12 6554   2.470   2.880   2.121
  2856TXY   H13 6555   2.366   2.865   2.262
  2866TXY   H16 6556   3.602   3.120   3.907
  2866TXY    C7 6557   3.561   3.220   3.889
  2866TXY   H14 6558   3.642   3.292   3.903
  2866TXY   H15 6559   3.486   3.240   3.965
  2866TXY    C5 6560   3.501   3.231   3.748
  2866TXY    H9 6561   3.455   3.330   3.737
  2866TXY   H10 6562   3.421   3.158   3.738
  2866TXY    C3 6563   3.603   3.210   3.634
  2866TXY    H5 6564   3.686   3.280   3.647
  2866TXY    H6 6565   3.555   3.235   3.540
  2866TXY    C1 6566   3.657   3.066   3.627
  2866TXY    H1 6567   3.711   3.044   3.719
  2866TXY    H2 6568   3.574   2.996   3.622
  2866TXY    C2 6569   3.753   3.043   3.508
  2866TXY    H3 6570   3.790   3.138   3.471
  2866TXY    H4 6571   3.840   2.988   3.543
  2866TXY    C4 6572   3.689   2.964   3.391
  2866TXY    H7 6573   3.766   2.947   3.315
  2866TXY    H8 6574   3.657   2.866   3.426
  2866TXY    C6 6575   3.570   3.035   3.326
  2866TXY   H11 6576   3.597   3.135   3.292
  2866TXY   H12 6577   3.534   2.980   3.239
  2866TXY   H13 6578   3.486   3.045   3.396
  2876TXY   H16 6579   1.768   2.709   3.216
  2876TXY    C7 6580   1.735   2.799   3.165
  2876TXY   H14 6581   1.686   2.770   3.072
  2876TXY   H15 6582   1.824   2.857   3.139
  2876TXY    C5 6583   1.640   2.882   3.253
  2876TXY    H9 6584   1.617   2.976   3.201
  2876TXY   H10 6585   1.691   2.909   3.345
  2876TXY    C3 6586   1.508   2.810   3.287
  2876TXY    H5 6587   1.460   2.780   3.194
  2876TXY    H6 6588   1.441   2.882   3.334
  2876TXY    C1 6589   1.524   2.687   3.378
  2876TXY    H1 6590   1.589   2.615   3.328
  2876TXY    H2 6591   1.575   2.717   3.469
  2876TXY    C2 6592   1.391   2.619   3.411
  2876TXY    H3 6593   1.313   2.652   3.343
  2876TXY    H4 6594   1.401   2.511   3.395
  2876TXY    C4 6595   1.342   2.642   3.556
  2876TXY    H7 6596   1.254   2.579   3.574
  2876TXY    H8 6597   1.419   2.609   3.626
  2876TXY    C6 6598   1.305   2.787   3.586
  2876TXY   H11 6599   1.226   2.823   3.519
  2876TXY   H12 6600   1.268   2.798   3.688
  2876TXY   H13 6601   1.390   2.853   3.575
  2886TXY   H16 6602   4.570   1.736   0.501
  2886TXY    C7 6603   4.660   1.710   0.556
  2886TXY   H14 6604   4.746   1.743   0.498
  2886TXY   H15 6605   4.665   1.601   0.563
  2886TXY    C5 6606   4.660   1.773   0.696
  2886TXY    H9 6607   4.747   1.736   0.751
  2886TXY   H10 6608   4.572   1.739   0.751
  2886TXY    C3 6609   4.664   1.928   0.695
  2886TXY    H5 6610   4.753   1.960   0.642
  2886TXY    H6 6611   4.674   1.962   0.798
  2886TXY    C1 6612   4.539   1.992   0.632
  2886TXY    H1 6613   4.532   1.960   0.528
  2886TXY    H2 6614   4.450   1.955   0.683
  2886TXY    C2 6615   4.542   2.146   0.635
  2886TXY    H3 6616   4.628   2.182   0.692
  2886TXY    H4 6617   4.555   2.184   0.534
  2886TXY    C4 6618   4.414   2.210   0.695
  2886TXY    H7 6619   4.418   2.318   0.678
  2886TXY    H8 6620   4.327   2.173   0.641
  2886TXY    C6 6621   4.397   2.184   0.845
  2886TXY   H11 6622   4.481   2.224   0.902
  2886TXY   H12 6623   4.306   2.231   0.882
  2886TXY   H13 6624   4.390   2.078   0.866
  2896TXY   H16 6625   3.416   2.457   0.535
  2896TXY    C7 6626   3.507   2.460   0.595
  2896TXY   H14 6627   3.591   2.445   0.527
  2896TXY   H15 6628   3.505   2.375   0.663
  2896TXY    C5 6629   3.520   2.592   0.672
  2896TXY    H9 6630   3.609   2.587   0.734
  2896TXY   H10 6631   3.435   2.602   0.739
  2896TXY    C3 6632   3.529   2.717   0.581
  2896TXY    H5 6633   3.612   2.704   0.511
  2896TXY    H6 6634   3.554   2.803   0.643
  2896TXY    C1 6635   3.400   2.746   0.502
  2896TXY    H1 6636   3.378   2.662   0.437
  2896TXY    H2 6637   3.316   2.755   0.572
  2896TXY    C2 6638   3.409   2.873   0.416
  2896TXY    H3 6639   3.513   2.905   0.405
  2896TXY    H4 6640   3.373   2.851   0.315
  2896TXY    C4 6641   3.327   2.993   0.470
  2896TXY    H7 6642   3.327   3.073   0.396
  2896TXY    H8 6643   3.223   2.962   0.483
  2896TXY    C6 6644   3.380   3.048   0.603
  2896TXY   H11 6645   3.483   3.082   0.593
  2896TXY   H12 6646   3.321   3.134   0.636
  2896TXY   H13 6647   3.376   2.973   0.682
  2906TXY   H16 6648   1.925   2.436   4.785
  2906TXY    C7 6649   1.923   2.526   4.725
  2906TXY   H14 6650   2.000   2.518   4.649
  2906TXY   H15 6651   1.949   2.610   4.790
  2906TXY    C5 6652   1.785   2.548   4.661
  2906TXY    H9 6653   1.785   2.644   4.610
  2906TXY   H10 6654   1.710   2.554   4.740
  2906TXY    C3 6655   1.744   2.438   4.560
  2906TXY    H5 6656   1.820   2.433   4.482
  2906TXY    H6 6657   1.651   2.468   4.512
  2906TXY    C1 6658   1.727   2.299   4.624
  2906TXY    H1 6659   1.823   2.266   4.664
  2906TXY    H2 6660   1.659   2.306   4.709
  2906TXY    C2 6661   1.677   2.193   4.525
  2906TXY    H3 6662   1.683   2.230   4.422
  2906TXY    H4 6663   1.742   2.106   4.529
  2906TXY    C4 6664   1.532   2.146   4.551
  2906TXY    H7 6665   1.508   2.065   4.482
  2906TXY    H8 6666   1.525   2.105   4.652
  2906TXY    C6 6667   1.427   2.256   4.534
  2906TXY   H11 6668   1.430   2.299   4.434
  2906TXY   H12 6669   1.326   2.218   4.550
  2906TXY   H13 6670   1.443   2.338   4.605
  2916TXY   H16 6671   3.995   3.101   1.353
  2916TXY    C7 6672   4.043   3.008   1.384
  2916TXY   H14 6673   3.989   2.969   1.470
  2916TXY   H15 6674   4.144   3.034   1.417
  2916TXY    C5 6675   4.047   2.906   1.270
  2916TXY    H9 6676   4.102   2.818   1.304
  2916TXY   H10 6677   4.103   2.948   1.186
  2916TXY    C3 6678   3.907   2.861   1.221
  2916TXY    H5 6679   3.852   2.821   1.306
  2916TXY    H6 6680   3.920   2.779   1.151
  2916TXY    C1 6681   3.826   2.974   1.155
  2916TXY    H1 6682   3.809   3.053   1.228
  2916TXY    H2 6683   3.885   3.018   1.074
  2916TXY    C2 6684   3.690   2.926   1.102
  2916TXY    H3 6685   3.665   2.827   1.141
  2916TXY    H4 6686   3.612   2.993   1.138
  2916TXY    C4 6687   3.680   2.921   0.947
  2916TXY    H7 6688   3.577   2.897   0.919
  2916TXY    H8 6689   3.702   3.020   0.906
  2916TXY    C6 6690   3.774   2.818   0.883
  2916TXY   H11 6691   3.754   2.718   0.920
  2916TXY   H12 6692   3.762   2.816   0.775
  2916TXY   H13 6693   3.879   2.841   0.904
  2926TXY   H16 6694   0.168   4.734   0.902
  2926TXY    C7 6695   0.067   4.698   0.920
  2926TXY   H14 6696   0.071   4.590   0.927
  2926TXY   H15 6697   0.007   4.723   0.833
  2926TXY    C5 6698   0.008   4.760   1.047
  2926TXY    H9 6699   4.904   4.729   1.056
  2926TXY   H10 6700   0.007   4.869   1.037
  2926TXY    C3 6701   0.083   4.721   1.177
  2926TXY    H5 6702   0.083   4.613   1.186
  2926TXY    H6 6703   0.026   4.759   1.262
  2926TXY    C1 6704   0.227   4.774   1.185
  2926TXY    H1 6705   0.284   4.731   1.102
  2926TXY    H2 6706   0.227   4.882   1.171
  2926TXY    C2 6707   0.297   4.737   1.317
  2926TXY    H3 6708   0.244   4.657   1.367
  2926TXY    H4 6709   0.397   4.698   1.295
  2926TXY    C4 6710   0.313   4.856   1.415
  2926TXY    H7 6711   0.374   4.824   1.499
  2926TXY    H8 6712   0.366   4.937   1.366
  2926TXY    C6 6713   0.179   4.908   1.470
  2926TXY   H11 6714   0.124   4.830   1.521
  2926TXY   H12 6715   0.195   4.990   1.540
  2926TXY   H13 6716   0.116   4.947   1.390
  2936TXY   H16 6717   3.270   4.556   2.562
  2936TXY    C7 6718   3.301   4.658   2.538
  2936TXY   H14 6719   3.212   4.720   2.533
  2936TXY   H15 6720   3.346   4.656   2.439
  2936TXY    C5 6721   3.401   4.712   2.642
  2936TXY    H9 6722   3.436   4.810   2.609
  2936TXY   H10 6723   3.488   4.646   2.645
  2936TXY    C3 6724   3.342   4.724   2.784
  2936TXY    H5 6725   3.252   4.785   2.780
  2936TXY    H6 6726   3.413   4.779   2.846
  2936TXY    C1 6727   3.309   4.589   2.851
  2936TXY    H1 6728   3.245   4.531   2.784
  2936TXY    H2 6729   3.402   4.532   2.863
  2936TXY    C2 6730   3.238   4.605   2.986
  2936TXY    H3 6731   3.194   4.704   2.994
  2936TXY    H4 6732   3.155   4.534   2.991
  2936TXY    C4 6733   3.329   4.582   3.110
  2936TXY    H7 6734   3.266   4.581   3.199
  2936TXY    H8 6735   3.375   4.483   3.103
  2936TXY    C6 6736   3.438   4.687   3.126
  2936TXY   H11 6737   3.396   4.787   3.135
  2936TXY   H12 6738   3.497   4.669   3.216
  2936TXY   H13 6739   3.507   4.687   3.042
  2946TXY   H16 6740   0.742   3.256   0.604
  2946TXY    C7 6741   0.691   3.253   0.700
  2946TXY   H14 6742   0.619   3.335   0.701
  2946TXY   H15 6743   0.765   3.273   0.777
  2946TXY    C5 6744   0.622   3.119   0.723
  2946TXY    H9 6745   0.576   3.119   0.822
  2946TXY   H10 6746   0.697   3.040   0.723
  2946TXY    C3 6747   0.513   3.085   0.617
  2946TXY    H5 6748   0.440   3.166   0.616
  2946TXY    H6 6749   0.460   2.996   0.650
  2946TXY    C1 6750   0.570   3.063   0.476
  2946TXY    H1 6751   0.614   3.156   0.441
  2946TXY    H2 6752   0.650   2.989   0.480
  2946TXY    C2 6753   0.462   3.019   0.375
  2946TXY    H3 6754   0.363   3.042   0.413
  2946TXY    H4 6755   0.474   3.077   0.283
  2946TXY    C4 6756   0.468   2.868   0.338
  2946TXY    H7 6757   0.398   2.849   0.257
  2946TXY    H8 6758   0.567   2.844   0.301
  2946TXY    C6 6759   0.435   2.776   0.456
  2946TXY   H11 6760   0.335   2.797   0.495
  2946TXY   H12 6761   0.437   2.671   0.426
  2946TXY   H13 6762   0.506   2.788   0.537
  2956TXY   H16 6763   4.081   4.165   4.935
  2956TXY    C7 6764   4.185   4.137   4.953
  2956TXY   H14 6765   4.201   4.037   4.914
  2956TXY   H15 6766   4.199   4.133   0.061
  2956TXY    C5 6767   4.282   4.237   4.889
  2956TXY    H9 6768   4.384   4.210   4.916
  2956TXY   H10 6769   4.264   4.336   4.932
  2956TXY    C3 6770   4.271   4.245   4.735
  2956TXY    H5 6771   4.282   4.145   4.694
  2956TXY    H6 6772   4.355   4.304   4.697
  2956TXY    C1 6773   4.139   4.306   4.685
  2956TXY    H1 6774   4.056   4.246   4.722
  2956TXY    H2 6775   4.127   4.406   4.729
  2956TXY    C2 6776   4.130   4.314   4.532
  2956TXY    H3 6777   4.208   4.254   4.486
  2956TXY    H4 6778   4.035   4.271   4.499
  2956TXY    C4 6779   4.138   4.458   4.475
  2956TXY    H7 6780   4.119   4.455   4.368
  2956TXY    H8 6781   4.060   4.519   4.520
  2956TXY    C6 6782   4.274   4.525   4.498
  2956TXY   H11 6783   4.355   4.468   4.453
  2956TXY   H12 6784   4.276   4.625   4.455
  2956TXY   H13 6785   4.296   4.535   4.605
  2966TXY   H16 6786   0.625   0.802   3.937
  2966TXY    C7 6787   0.729   0.816   3.908
  2966TXY   H14 6788   0.746   0.923   3.893
  2966TXY   H15 6789   0.743   0.767   3.811
  2966TXY    C5 6790   0.826   0.759   4.012
  2966TXY    H9 6791   0.928   0.770   3.976
  2966TXY   H10 6792   0.807   0.652   4.023
  2966TXY    C3 6793   0.815   0.826   4.151
  2966TXY    H5 6794   0.824   0.934   4.138
  2966TXY    H6 6795   0.900   0.795   4.212
  2966TXY    C1 6796   0.684   0.795   4.225
  2966TXY    H1 6797   0.599   0.827   4.163
  2966TXY    H2 6798   0.675   0.687   4.237
  2966TXY    C2 6799   0.673   0.864   4.362
  2966TXY    H3 6800   0.748   0.943   4.371
  2966TXY    H4 6801   0.576   0.912   4.370
  2966TXY    C4 6802   0.689   0.768   4.483
  2966TXY    H7 6803   0.663   0.821   4.574
  2966TXY    H8 6804   0.618   0.686   4.473
  2966TXY    C6 6805   0.830   0.711   4.497
  2966TXY   H11 6806   0.904   0.790   4.510
  2966TXY   H12 6807   0.837   0.644   4.583
  2966TXY   H13 6808   0.859   0.653   4.409
  2976TXY   H16 6809   2.582   0.986   4.821
  2976TXY    C7 6810   2.587   1.075   4.884
  2976TXY   H14 6811   2.668   1.138   4.846
  2976TXY   H15 6812   2.614   1.043   4.984
  2976TXY    C5 6813   2.454   1.152   4.884
  2976TXY    H9 6814   2.462   1.236   4.953
  2976TXY   H10 6815   2.376   1.086   4.922
  2976TXY    C3 6816   2.412   1.205   4.744
  2976TXY    H5 6817   2.493   1.266   4.705
  2976TXY    H6 6818   2.327   1.271   4.757
  2976TXY    C1 6819   2.378   1.093   4.644
  2976TXY    H1 6820   2.468   1.034   4.626
  2976TXY    H2 6821   2.305   1.026   4.688
  2976TXY    C2 6822   2.327   1.146   4.509
  2976TXY    H3 6823   2.355   1.250   4.495
  2976TXY    H4 6824   2.374   1.090   4.428
  2976TXY    C4 6825   2.173   1.134   4.491
  2976TXY    H7 6826   2.148   1.153   4.387
  2976TXY    H8 6827   2.142   1.032   4.513
  2976TXY    C6 6828   2.093   1.230   4.580
  2976TXY   H11 6829   2.118   1.334   4.558
  2976TXY   H12 6830   1.986   1.219   4.563
  2976TXY   H13 6831   2.112   1.213   4.685
  2986TXY   H16 6832   3.960   2.398   4.858
  2986TXY    C7 6833   4.032   2.346   4.796
  2986TXY   H14 6834   4.075   2.419   4.727
  2986TXY   H15 6835   3.978   2.272   4.737
  2986TXY    C5 6836   4.142   2.280   4.881
  2986TXY    H9 6837   4.209   2.225   4.815
  2986TXY   H10 6838   4.095   2.207   4.947
  2986TXY    C3 6839   4.225   2.379   4.965
  2986TXY    H5 6840   4.268   2.454   4.898
  2986TXY    H6 6841   4.308   2.325   0.009
  2986TXY    C1 6842   4.145   2.450   0.075
  2986TXY    H1 6843   4.064   2.507   0.030
  2986TXY    H2 6844   4.098   2.375   0.139
  2986TXY    C2 6845   4.230   2.546   0.160
  2986TXY    H3 6846   4.325   2.566   0.111
  2986TXY    H4 6847   4.179   2.642   0.167
  2986TXY    C4 6848   4.258   2.496   0.304
  2986TXY    H7 6849   4.309   2.575   0.360
  2986TXY    H8 6850   4.164   2.477   0.355
  2986TXY    C6 6851   4.344   2.369   0.309
  2986TXY   H11 6852   4.440   2.384   0.260
  2986TXY   H12 6853   4.364   2.339   0.412
  2986TXY   H13 6854   4.294   2.285   0.260
  2996TXY   H16 6855   0.977   2.175   2.889
  2996TXY    C7 6856   0.933   2.118   2.971
  2996TXY   H14 6857   0.827   2.108   2.950
  2996TXY   H15 6858   0.943   2.178   3.061
  2996TXY    C5 6859   1.001   1.982   2.987
  2996TXY    H9 6860   0.958   1.932   3.075
  2996TXY   H10 6861   1.107   1.997   3.008
  2996TXY    C3 6862   0.985   1.889   2.864
  2996TXY    H5 6863   0.879   1.878   2.842
  2996TXY    H6 6864   1.022   1.790   2.892
  2996TXY    C1 6865   1.059   1.939   2.739
  2996TXY    H1 6866   1.020   2.037   2.712
  2996TXY    H2 6867   1.165   1.953   2.763
  2996TXY    C2 6868   1.044   1.845   2.619
  2996TXY    H3 6869   0.962   1.776   2.634
  2996TXY    H4 6870   1.019   1.904   2.530
  2996TXY    C4 6871   1.172   1.763   2.586
  2996TXY    H7 6872   1.156   1.709   2.493
  2996TXY    H8 6873   1.255   1.831   2.570
  2996TXY    C6 6874   1.210   1.663   2.696
  2996TXY   H11 6875   1.129   1.592   2.714
  2996TXY   H12 6876   1.299   1.607   2.669
  2996TXY   H13 6877   1.231   1.714   2.791
  3006TXY   H16 6878   0.068   2.520   0.831
  3006TXY    C7 6879   0.078   2.624   0.801
  3006TXY   H14 6880   0.072   2.686   0.891
  3006TXY   H15 6881   4.992   2.649   0.739
  3006TXY    C5 6882   0.209   2.649   0.725
  3006TXY    H9 6883   0.210   2.752   0.691
  3006TXY   H10 6884   0.211   2.586   0.636
  3006TXY    C3 6885   0.336   2.623   0.809
  3006TXY    H5 6886   0.334   2.687   0.897
  3006TXY    H6 6887   0.423   2.654   0.750
  3006TXY    C1 6888   0.353   2.476   0.852
  3006TXY    H1 6889   0.270   2.448   0.916
  3006TXY    H2 6890   0.349   2.412   0.764
  3006TXY    C2 6891   0.484   2.451   0.930
  3006TXY    H3 6892   0.534   2.546   0.952
  3006TXY    H4 6893   0.461   2.406   1.026
  3006TXY    C4 6894   0.584   2.359   0.856
  3006TXY    H7 6895   0.668   2.337   0.923
  3006TXY    H8 6896   0.536   2.264   0.834
  3006TXY    C6 6897   0.639   2.419   0.726
  3006TXY   H11 6898   0.690   2.514   0.745
  3006TXY   H12 6899   0.711   2.352   0.680
  3006TXY   H13 6900   0.560   2.438   0.654
  3016TXY   H16 6901   4.649   0.111   2.520
  3016TXY    C7 6902   4.750   0.139   2.492
  3016TXY   H14 6903   4.743   0.225   2.425
  3016TXY   H15 6904   4.793   0.057   2.435
  3016TXY    C5 6905   4.836   0.171   2.614
  3016TXY    H9 6906   4.937   0.193   2.582
  3016TXY   H10 6907   4.841   0.083   2.678
  3016TXY    C3 6908   4.784   0.291   2.698
  3016TXY    H5 6909   4.776   0.378   2.633
  3016TXY    H6 6910   4.859   0.315   2.773
  3016TXY    C1 6911   4.649   0.265   2.766
  3016TXY    H1 6912   4.574   0.243   2.690
  3016TXY    H2 6913   4.656   0.176   2.829
  3016TXY    C2 6914   4.599   0.384   2.851
  3016TXY    H3 6915   4.650   0.476   2.820
  3016TXY    H4 6916   4.493   0.400   2.831
  3016TXY    C4 6917   4.618   0.365   3.003
  3016TXY    H7 6918   4.564   0.443   3.056
  3016TXY    H8 6919   4.574   0.270   3.033
  3016TXY    C6 6920   4.765   0.368   3.048
  3016TXY   H11 6921   4.813   0.462   3.021
  3016TXY   H12 6922   4.772   0.357   3.156
  3016TXY   H13 6923   4.822   0.286   3.003
  3026TXY   H16 6924   2.964   4.591   0.481
  3026TXY    C7 6925   3.009   4.508   0.427
  3026TXY   H14 6926   3.114   4.533   0.412
  3026TXY   H15 6927   2.962   4.503   0.329
  3026TXY    C5 6928   2.993   4.376   0.503
  3026TXY    H9 6929   3.036   4.296   0.443
  3026TXY   H10 6930   2.887   4.354   0.514
  3026TXY    C3 6931   3.060   4.376   0.643
  3026TXY    H5 6932   3.165   4.403   0.631
  3026TXY    H6 6933   3.058   4.274   0.681
  3026TXY    C1 6934   2.993   4.470   0.744
  3026TXY    H1 6935   2.998   4.572   0.706
  3026TXY    H2 6936   2.887   4.445   0.752
  3026TXY    C2 6937   3.058   4.466   0.883
  3026TXY    H3 6938   3.156   4.418   0.878
  3026TXY    H4 6939   3.076   4.568   0.917
  3026TXY    C4 6940   2.974   4.394   0.991
  3026TXY    H7 6941   3.022   4.407   1.088
  3026TXY    H8 6942   2.876   4.441   0.998
  3026TXY    C6 6943   2.955   4.244   0.965
  3026TXY   H11 6944   3.051   4.193   0.958
  3026TXY   H12 6945   2.899   4.197   1.045
  3026TXY   H13 6946   2.901   4.226   0.872
  3036TXY   H16 6947   0.295   1.773   0.189
  3036TXY    C7 6948   0.383   1.837   0.180
  3036TXY   H14 6949   0.412   1.866   0.281
  3036TXY   H15 6950   0.353   1.927   0.127
  3036TXY    C5 6951   0.498   1.766   0.108
  3036TXY    H9 6952   0.582   1.834   0.099
  3036TXY   H10 6953   0.466   1.742   0.006
  3036TXY    C3 6954   0.546   1.637   0.179
  3036TXY    H5 6955   0.561   1.659   0.284
  3036TXY    H6 6956   0.643   1.610   0.138
  3036TXY    C1 6957   0.448   1.519   0.164
  3036TXY    H1 6958   0.352   1.548   0.205
  3036TXY    H2 6959   0.432   1.499   0.058
  3036TXY    C2 6960   0.497   1.392   0.235
  3036TXY    H3 6961   0.568   1.417   0.314
  3036TXY    H4 6962   0.412   1.344   0.285
  3036TXY    C4 6963   0.562   1.287   0.141
  3036TXY    H7 6964   0.578   1.195   0.197
  3036TXY    H8 6965   0.492   1.263   0.060
  3036TXY    C6 6966   0.695   1.332   0.080
  3036TXY   H11 6967   0.766   1.360   0.158
  3036TXY   H12 6968   0.740   1.252   0.022
  3036TXY   H13 6969   0.682   1.418   0.014
  3046TXY   H16 6970   4.243   0.996   4.952
  3046TXY    C7 6971   4.215   1.101   4.956
  3046TXY   H14 6972   4.111   1.107   4.987
  3046TXY   H15 6973   4.221   1.141   4.854
  3046TXY    C5 6974   4.306   1.180   0.051
  3046TXY    H9 6975   4.278   1.286   0.046
  3046TXY   H10 6976   4.409   1.172   0.017
  3046TXY    C3 6977   4.297   1.133   0.198
  3046TXY    H5 6978   4.192   1.134   0.229
  3046TXY    H6 6979   4.349   1.206   0.261
  3046TXY    C1 6980   4.356   0.993   0.223
  3046TXY    H1 6981   4.301   0.921   0.163
  3046TXY    H2 6982   4.459   0.991   0.189
  3046TXY    C2 6983   4.348   0.950   0.371
  3046TXY    H3 6984   4.280   1.015   0.426
  3046TXY    H4 6985   4.306   0.850   0.377
  3046TXY    C4 6986   4.485   0.950   0.444
  3046TXY    H7 6987   4.472   0.904   0.543
  3046TXY    H8 6988   4.555   0.887   0.389
  3046TXY    C6 6989   4.545   1.089   0.461
  3046TXY   H11 6990   4.478   1.155   0.517
  3046TXY   H12 6991   4.639   1.085   0.516
  3046TXY   H13 6992   4.566   1.136   0.365
  3056TXY   H16 6993   4.547   0.388   2.468
  3056TXY    C7 6994   4.588   0.483   2.434
  3056TXY   H14 6995   4.565   0.494   2.328
  3056TXY   H15 6996   4.696   0.478   2.444
  3056TXY    C5 6997   4.532   0.601   2.515
  3056TXY    H9 6998   4.585   0.692   2.486
  3056TXY   H10 6999   4.552   0.584   2.620
  3056TXY    C3 7000   4.380   0.623   2.495
  3056TXY    H5 7001   4.360   0.634   2.388
  3056TXY    H6 7002   4.353   0.718   2.541
  3056TXY    C1 7003   4.292   0.511   2.552
  3056TXY    H1 7004   4.321   0.416   2.505
  3056TXY    H2 7005   4.313   0.500   2.658
  3056TXY    C2 7006   4.142   0.534   2.529
  3056TXY    H3 7007   4.126   0.610   2.453
  3056TXY    H4 7008   4.097   0.442   2.489
  3056TXY    C4 7009   4.063   0.574   2.656
  3056TXY    H7 7010   3.957   0.576   2.633
  3056TXY    H8 7011   4.078   0.498   2.733
  3056TXY    C6 7012   4.104   0.711   2.712
  3056TXY   H11 7013   4.090   0.790   2.638
  3056TXY   H12 7014   4.045   0.736   2.800
  3056TXY   H13 7015   4.209   0.712   2.742
  3066TXY   H16 7016   3.446   3.609   3.647
  3066TXY    C7 7017   3.410   3.701   3.601
  3066TXY   H14 7018   3.320   3.678   3.546
  3066TXY   H15 7019   3.486   3.733   3.529
  3066TXY    C5 7020   3.385   3.810   3.706
  3066TXY    H9 7021   3.354   3.901   3.656
  3066TXY   H10 7022   3.478   3.832   3.758
  3066TXY    C3 7023   3.277   3.772   3.811
  3066TXY    H5 7024   3.185   3.746   3.758
  3066TXY    H6 7025   3.254   3.860   3.871
  3066TXY    C1 7026   3.318   3.656   3.903
  3066TXY    H1 7027   3.334   3.566   3.843
  3066TXY    H2 7028   3.413   3.680   3.951
  3066TXY    C2 7029   3.211   3.624   4.010
  3066TXY    H3 7030   3.119   3.677   3.989
  3066TXY    H4 7031   3.187   3.518   4.006
  3066TXY    C4 7032   3.255   3.657   4.155
  3066TXY    H7 7033   3.179   3.620   4.224
  3066TXY    H8 7034   3.348   3.605   4.178
  3066TXY    C6 7035   3.275   3.807   4.181
  3066TXY   H11 7036   3.184   3.863   4.160
  3066TXY   H12 7037   3.302   3.826   4.285
  3066TXY   H13 7038   3.355   3.848   4.119
  3076TXY   H16 7039   1.299   1.106   4.036
  3076TXY    C7 7040   1.206   1.058   4.006
  3076TXY   H14 7041   1.220   0.950   4.016
  3076TXY   H15 7042   1.190   1.079   3.901
  3076TXY    C5 7043   1.088   1.106   4.091
  3076TXY    H9 7044   0.997   1.061   4.053
  3076TXY   H10 7045   1.078   1.214   4.079
  3076TXY    C3 7046   1.102   1.074   4.242
  3076TXY    H5 7047   1.116   0.966   4.253
  3076TXY    H6 7048   1.007   1.098   4.291
  3076TXY    C1 7049   1.216   1.149   4.311
  3076TXY    H1 7050   1.311   1.122   4.264
  3076TXY    H2 7051   1.204   1.256   4.295
  3076TXY    C2 7052   1.227   1.119   4.462
  3076TXY    H3 7053   1.167   1.031   4.487
  3076TXY    H4 7054   1.330   1.093   4.486
  3076TXY    C4 7055   1.184   1.236   4.553
  3076TXY    H7 7056   1.206   1.211   4.657
  3076TXY    H8 7057   1.243   1.324   4.529
  3076TXY    C6 7058   1.035   1.271   4.542
  3076TXY   H11 7059   0.973   1.186   4.566
  3076TXY   H12 7060   1.009   1.352   4.610
  3076TXY   H13 7061   1.010   1.304   4.441
  3086TXY   H16 7062   3.351   4.196   1.247
  3086TXY    C7 7063   3.299   4.228   1.156
  3086TXY   H14 7064   3.234   4.312   1.182
  3086TXY   H15 7065   3.236   4.146   1.124
  3086TXY    C5 7066   3.398   4.267   1.046
  3086TXY    H9 7067   3.343   4.293   0.956
  3086TXY   H10 7068   3.460   4.181   1.022
  3086TXY    C3 7069   3.490   4.386   1.084
  3086TXY    H5 7070   3.427   4.470   1.115
  3086TXY    H6 7071   3.543   4.418   0.995
  3086TXY    C1 7072   3.591   4.353   1.195
  3086TXY    H1 7073   3.537   4.325   1.286
  3086TXY    H2 7074   3.650   4.266   1.166
  3086TXY    C2 7075   3.684   4.471   1.229
  3086TXY    H3 7076   3.645   4.564   1.188
  3086TXY    H4 7077   3.688   4.485   1.337
  3086TXY    C4 7078   3.830   4.453   1.179
  3086TXY    H7 7079   3.891   4.534   1.218
  3086TXY    H8 7080   3.871   4.360   1.218
  3086TXY    C6 7081   3.842   4.453   1.026
  3086TXY   H11 7082   3.804   4.545   0.983
  3086TXY   H12 7083   3.946   4.443   0.995
  3086TXY   H13 7084   3.787   4.369   0.982
  3096TXY   H16 7085   4.099   4.206   2.007
  3096TXY    C7 7086   4.074   4.138   2.089
  3096TXY   H14 7087   3.989   4.180   2.142
  3096TXY   H15 7088   4.159   4.138   2.157
  3096TXY    C5 7089   4.044   3.997   2.038
  3096TXY    H9 7090   4.026   3.932   2.123
  3096TXY   H10 7091   4.132   3.958   1.986
  3096TXY    C3 7092   3.922   3.990   1.942
  3096TXY    H5 7093   3.835   4.031   1.993
  3096TXY    H6 7094   3.900   3.885   1.922
  3096TXY    C1 7095   3.943   4.064   1.809
  3096TXY    H1 7096   3.957   4.170   1.829
  3096TXY    H2 7097   4.035   4.029   1.762
  3096TXY    C2 7098   3.826   4.048   1.711
  3096TXY    H3 7099   3.739   4.005   1.762
  3096TXY    H4 7100   3.795   4.146   1.676
  3096TXY    C4 7101   3.858   3.960   1.587
  3096TXY    H7 7102   3.774   3.964   1.518
  3096TXY    H8 7103   3.944   4.002   1.535
  3096TXY    C6 7104   3.887   3.814   1.621
  3096TXY   H11 7105   3.802   3.768   1.672
  3096TXY   H12 7106   3.907   3.756   1.531
  3096TXY   H13 7107   3.974   3.804   1.686
  3106TXY   H16 7108   2.167   2.787   3.902
  3106TXY    C7 7109   2.263   2.838   3.908
  3106TXY   H14 7110   2.342   2.763   3.901
  3106TXY   H15 7111   2.269   2.883   4.008
  3106TXY    C5 7112   2.277   2.945   3.799
  3106TXY    H9 7113   2.370   2.998   3.815
  3106TXY   H10 7114   2.197   3.018   3.811
  3106TXY    C3 7115   2.274   2.889   3.655
  3106TXY    H5 7116   2.354   2.816   3.644
  3106TXY    H6 7117   2.297   2.971   3.586
  3106TXY    C1 7118   2.140   2.826   3.615
  3106TXY    H1 7119   2.119   2.742   3.682
  3106TXY    H2 7120   2.060   2.898   3.629
  3106TXY    C2 7121   2.138   2.774   3.470
  3106TXY    H3 7122   2.237   2.784   3.425
  3106TXY    H4 7123   2.116   2.667   3.470
  3106TXY    C4 7124   2.035   2.844   3.379
  3106TXY    H7 7125   2.031   2.792   3.283
  3106TXY    H8 7126   1.935   2.836   3.423
  3106TXY    C6 7127   2.066   2.992   3.353
  3106TXY   H11 7128   2.163   3.004   3.306
  3106TXY   H12 7129   1.992   3.037   3.287
  3106TXY   H13 7130   2.066   3.049   3.446
  3116TXY   H16 7131   1.166   4.156   2.131
  3116TXY    C7 7132   1.093   4.130   2.208
  3116TXY   H14 7133   1.030   4.218   2.225
  3116TXY   H15 7134   1.148   4.112   2.300
  3116TXY    C5 7135   1.009   4.008   2.169
  3116TXY    H9 7136   0.947   3.980   2.253
  3116TXY   H10 7137   1.076   3.924   2.149
  3116TXY    C3 7138   0.919   4.032   2.046
  3116TXY    H5 7139   0.849   4.112   2.069
  3116TXY    H6 7140   0.859   3.942   2.030
  3116TXY    C1 7141   0.995   4.066   1.917
  3116TXY    H1 7142   1.049   4.160   1.931
  3116TXY    H2 7143   1.071   3.990   1.899
  3116TXY    C2 7144   0.903   4.081   1.795
  3116TXY    H3 7145   0.798   4.082   1.825
  3116TXY    H4 7146   0.922   4.176   1.746
  3116TXY    C4 7147   0.922   3.968   1.690
  3116TXY    H7 7148   0.865   3.994   1.600
  3116TXY    H8 7149   1.027   3.965   1.661
  3116TXY    C6 7150   0.880   3.830   1.739
  3116TXY   H11 7151   0.776   3.829   1.771
  3116TXY   H12 7152   0.890   3.755   1.660
  3116TXY   H13 7153   0.941   3.797   1.823
  3126TXY   H16 7154   1.810   4.256   4.394
  3126TXY    C7 7155   1.748   4.171   4.422
  3126TXY   H14 7156   1.647   4.207   4.440
  3126TXY   H15 7157   1.786   4.131   4.516
  3126TXY    C5 7158   1.749   4.063   4.313
  3126TXY    H9 7159   1.693   3.976   4.348
  3126TXY   H10 7160   1.852   4.030   4.297
  3126TXY    C3 7161   1.690   4.110   4.178
  3126TXY    H5 7162   1.590   4.149   4.196
  3126TXY    H6 7163   1.678   4.023   4.113
  3126TXY    C1 7164   1.775   4.216   4.106
  3126TXY    H1 7165   1.783   4.304   4.170
  3126TXY    H2 7166   1.876   4.178   4.092
  3126TXY    C2 7167   1.716   4.259   3.971
  3126TXY    H3 7168   1.611   4.229   3.963
  3126TXY    H4 7169   1.716   4.368   3.964
  3126TXY    C4 7170   1.792   4.204   3.847
  3126TXY    H7 7171   1.752   4.252   3.757
  3126TXY    H8 7172   1.897   4.232   3.855
  3126TXY    C6 7173   1.782   4.052   3.832
  3126TXY   H11 7174   1.678   4.020   3.824
  3126TXY   H12 7175   1.834   4.019   3.742
  3126TXY   H13 7176   1.826   4.000   3.917
  3136TXY   H16 7177   0.993   3.726   0.197
  3136TXY    C7 7178   1.018   3.792   0.280
  3136TXY   H14 7179   0.928   3.805   0.340
  3136TXY   H15 7180   1.044   3.889   0.238
  3136TXY    C5 7181   1.134   3.736   0.364
  3136TXY    H9 7182   1.160   3.808   0.441
  3136TXY   H10 7183   1.221   3.724   0.300
  3136TXY    C3 7184   1.101   3.600   0.432
  3136TXY    H5 7185   1.011   3.612   0.492
  3136TXY    H6 7186   1.182   3.577   0.502
  3136TXY    C1 7187   1.083   3.484   0.333
  3136TXY    H1 7188   0.999   3.506   0.267
  3136TXY    H2 7189   1.172   3.476   0.270
  3136TXY    C2 7190   1.056   3.349   0.402
  3136TXY    H3 7191   1.029   3.365   0.507
  3136TXY    H4 7192   0.970   3.302   0.356
  3136TXY    C4 7193   1.175   3.250   0.396
  3136TXY    H7 7194   1.142   3.154   0.438
  3136TXY    H8 7195   1.201   3.232   0.292
  3136TXY    C6 7196   1.299   3.297   0.472
  3136TXY   H11 7197   1.277   3.314   0.577
  3136TXY   H12 7198   1.378   3.223   0.467
  3136TXY   H13 7199   1.338   3.390   0.431
  3146TXY   H16 7200   1.652   2.828   1.741
  3146TXY    C7 7201   1.662   2.732   1.691
  3146TXY   H14 7202   1.700   2.660   1.764
  3146TXY   H15 7203   1.738   2.743   1.614
  3146TXY    C5 7204   1.529   2.685   1.632
  3146TXY    H9 7205   1.546   2.593   1.576
  3146TXY   H10 7206   1.494   2.759   1.560
  3146TXY    C3 7207   1.419   2.660   1.738
  3146TXY    H5 7208   1.455   2.586   1.809
  3146TXY    H6 7209   1.333   2.616   1.687
  3146TXY    C1 7210   1.375   2.787   1.812
  3146TXY    H1 7211   1.459   2.826   1.869
  3146TXY    H2 7212   1.347   2.864   1.740
  3146TXY    C2 7213   1.258   2.762   1.910
  3146TXY    H3 7214   1.243   2.656   1.925
  3146TXY    H4 7215   1.284   2.803   2.008
  3146TXY    C4 7216   1.124   2.826   1.865
  3146TXY    H7 7217   1.051   2.814   1.945
  3146TXY    H8 7218   1.138   2.933   1.851
  3146TXY    C6 7219   1.068   2.765   1.736
  3146TXY   H11 7220   1.050   2.658   1.747
  3146TXY   H12 7221   0.973   2.811   1.709
  3146TXY   H13 7222   1.136   2.779   1.652
  3156TXY   H16 7223   1.037   0.206   0.262
  3156TXY    C7 7224   1.073   0.119   0.315
  3156TXY   H14 7225   1.019   0.032   0.277
  3156TXY   H15 7226   1.045   0.131   0.420
  3156TXY    C5 7227   1.224   0.102   0.300
  3156TXY    H9 7228   1.257   0.017   0.362
  3156TXY   H10 7229   1.274   0.190   0.339
  3156TXY    C3 7230   1.271   0.077   0.154
  3156TXY    H5 7231   1.220   4.988   0.116
  3156TXY    H6 7232   1.377   0.055   0.156
  3156TXY    C1 7233   1.245   0.196   0.060
  3156TXY    H1 7234   1.138   0.215   0.056
  3156TXY    H2 7235   1.292   0.285   0.102
  3156TXY    C2 7236   1.295   0.172   4.917
  3156TXY    H3 7237   1.318   0.066   4.902
  3156TXY    H4 7238   1.216   0.196   4.847
  3156TXY    C4 7239   1.420   0.255   4.879
  3156TXY    H7 7240   1.440   0.242   4.772
  3156TXY    H8 7241   1.398   0.361   4.894
  3156TXY    C6 7242   1.546   0.219   4.958
  3156TXY   H11 7243   1.573   0.114   4.942
  3156TXY   H12 7244   1.631   0.280   4.926
  3156TXY   H13 7245   1.532   0.234   0.065
  3166TXY   H16 7246   1.316   3.075   1.077
  3166TXY    C7 7247   1.231   3.075   1.146
  3166TXY   H14 7248   1.238   2.985   1.208
  3166TXY   H15 7249   1.140   3.067   1.086
  3166TXY    C5 7250   1.228   3.202   1.232
  3166TXY    H9 7251   1.138   3.201   1.294
  3166TXY   H10 7252   1.222   3.289   1.167
  3166TXY    C3 7253   1.352   3.217   1.325
  3166TXY    H5 7254   1.359   3.127   1.387
  3166TXY    H6 7255   1.334   3.300   1.392
  3166TXY    C1 7256   1.484   3.238   1.249
  3166TXY    H1 7257   1.503   3.151   1.186
  3166TXY    H2 7258   1.474   3.324   1.183
  3166TXY    C2 7259   1.604   3.257   1.343
  3166TXY    H3 7260   1.579   3.226   1.444
  3166TXY    H4 7261   1.686   3.192   1.310
  3166TXY    C4 7262   1.658   3.402   1.348
  3166TXY    H7 7263   1.750   3.404   1.406
  3166TXY    H8 7264   1.685   3.435   1.247
  3166TXY    C6 7265   1.559   3.502   1.408
  3166TXY   H11 7266   1.530   3.473   1.509
  3166TXY   H12 7267   1.603   3.602   1.414
  3166TXY   H13 7268   1.469   3.510   1.347
  3176TXY   H16 7269   2.762   1.003   4.402
  3176TXY    C7 7270   2.762   1.112   4.400
  3176TXY   H14 7271   2.786   1.147   4.501
  3176TXY   H15 7272   2.660   1.144   4.377
  3176TXY    C5 7273   2.861   1.167   4.297
  3176TXY    H9 7274   2.856   1.275   4.298
  3176TXY   H10 7275   2.831   1.134   4.198
  3176TXY    C3 7276   3.008   1.124   4.322
  3176TXY    H5 7277   3.037   1.154   4.422
  3176TXY    H6 7278   3.072   1.180   4.253
  3176TXY    C1 7279   3.033   0.973   4.303
  3176TXY    H1 7280   2.975   0.918   4.378
  3176TXY    H2 7281   2.995   0.942   4.205
  3176TXY    C2 7282   3.181   0.934   4.317
  3176TXY    H3 7283   3.237   1.014   4.367
  3176TXY    H4 7284   3.189   0.846   4.381
  3176TXY    C4 7285   3.251   0.903   4.182
  3176TXY    H7 7286   3.352   0.866   4.203
  3176TXY    H8 7287   3.198   0.822   4.132
  3176TXY    C6 7288   3.261   1.023   4.087
  3176TXY   H11 7289   3.318   1.104   4.132
  3176TXY   H12 7290   3.310   0.995   3.994
  3176TXY   H13 7291   3.162   1.061   4.062
  3186TXY   H16 7292   0.961   2.480   3.387
  3186TXY    C7 7293   0.889   2.560   3.368
  3186TXY   H14 7294   0.815   2.523   3.296
  3186TXY   H15 7295   0.943   2.642   3.320
  3186TXY    C5 7296   0.821   2.607   3.497
  3186TXY    H9 7297   0.757   2.692   3.475
  3186TXY   H10 7298   0.898   2.643   3.566
  3186TXY    C3 7299   0.737   2.497   3.568
  3186TXY    H5 7300   0.664   2.459   3.497
  3186TXY    H6 7301   0.681   2.544   3.649
  3186TXY    C1 7302   0.821   2.381   3.623
  3186TXY    H1 7303   0.875   2.333   3.540
  3186TXY    H2 7304   0.896   2.420   3.691
  3186TXY    C2 7305   0.736   2.274   3.693
  3186TXY    H3 7306   0.630   2.290   3.674
  3186TXY    H4 7307   0.760   2.176   3.652
  3186TXY    C4 7308   0.756   2.267   3.847
  3186TXY    H7 7309   0.703   2.180   3.886
  3186TXY    H8 7310   0.862   2.251   3.868
  3186TXY    C6 7311   0.708   2.392   3.920
  3186TXY   H11 7312   0.602   2.411   3.900
  3186TXY   H12 7313   0.719   2.382   4.028
  3186TXY   H13 7314   0.764   2.481   3.889
  3196TXY   H16 7315   4.630   4.290   1.597
  3196TXY    C7 7316   4.560   4.359   1.551
  3196TXY   H14 7317   4.464   4.307   1.540
  3196TXY   H15 7318   4.597   4.381   1.451
  3196TXY    C5 7319   4.544   4.487   1.634
  3196TXY    H9 7320   4.478   4.556   1.581
  3196TXY   H10 7321   4.641   4.536   1.642
  3196TXY    C3 7322   4.488   4.463   1.776
  3196TXY    H5 7323   4.393   4.410   1.767
  3196TXY    H6 7324   4.465   4.560   1.821
  3196TXY    C1 7325   4.582   4.384   1.868
  3196TXY    H1 7326   4.605   4.288   1.823
  3196TXY    H2 7327   4.677   4.438   1.877
  3196TXY    C2 7328   4.523   4.359   2.008
  3196TXY    H3 7329   4.416   4.382   2.009
  3196TXY    H4 7330   4.531   4.253   2.032
  3196TXY    C4 7331   4.591   4.439   2.121
  3196TXY    H7 7332   4.552   4.406   2.217
  3196TXY    H8 7333   4.698   4.417   2.122
  3196TXY    C6 7334   4.572   4.591   2.110
  3196TXY   H11 7335   4.466   4.617   2.111
  3196TXY   H12 7336   4.620   4.643   2.193
  3196TXY   H13 7337   4.615   4.630   2.017
  3206TXY   H16 7338   2.687   3.706   3.508
  3206TXY    C7 7339   2.609   3.782   3.517
  3206TXY   H14 7340   2.592   3.799   3.624
  3206TXY   H15 7341   2.517   3.740   3.476
  3206TXY    C5 7342   2.647   3.911   3.445
  3206TXY    H9 7343   2.563   3.980   3.449
  3206TXY   H10 7344   2.666   3.890   3.340
  3206TXY    C3 7345   2.772   3.981   3.506
  3206TXY    H5 7346   2.755   3.995   3.613
  3206TXY    H6 7347   2.780   4.081   3.463
  3206TXY    C1 7348   2.903   3.904   3.483
  3206TXY    H1 7349   2.894   3.805   3.527
  3206TXY    H2 7350   2.918   3.891   3.376
  3206TXY    C2 7351   3.026   3.974   3.545
  3206TXY    H3 7352   2.994   4.047   3.620
  3206TXY    H4 7353   3.085   3.899   3.598
  3206TXY    C4 7354   3.118   4.044   3.442
  3206TXY    H7 7355   3.209   4.076   3.493
  3206TXY    H8 7356   3.147   3.973   3.366
  3206TXY    C6 7357   3.053   4.165   3.375
  3206TXY   H11 7358   3.023   4.240   3.448
  3206TXY   H12 7359   3.122   4.213   3.305
  3206TXY   H13 7360   2.964   4.137   3.319
  3216TXY   H16 7361   1.905   4.695   0.859
  3216TXY    C7 7362   1.799   4.697   0.830
  3216TXY   H14 7363   1.777   4.602   0.780
  3216TXY   H15 7364   1.787   4.776   0.757
  3216TXY    C5 7365   1.709   4.719   0.952
  3216TXY    H9 7366   1.606   4.727   0.918
  3216TXY   H10 7367   1.735   4.813   0.999
  3216TXY    C3 7368   1.718   4.605   1.057
  3216TXY    H5 7369   1.694   4.511   1.008
  3216TXY    H6 7370   1.640   4.622   1.132
  3216TXY    C1 7371   1.855   4.596   1.126
  3216TXY    H1 7372   1.932   4.580   1.051
  3216TXY    H2 7373   1.877   4.691   1.175
  3216TXY    C2 7374   1.862   4.481   1.229
  3216TXY    H3 7375   1.781   4.411   1.214
  3216TXY    H4 7376   1.954   4.425   1.212
  3216TXY    C4 7377   1.861   4.527   1.376
  3216TXY    H7 7378   1.878   4.441   1.441
  3216TXY    H8 7379   1.944   4.596   1.394
  3216TXY    C6 7380   1.730   4.595   1.418
  3216TXY   H11 7381   1.645   4.528   1.406
  3216TXY   H12 7382   1.734   4.625   1.523
  3216TXY   H13 7383   1.710   4.684   1.359
  3226TXY   H16 7384   4.859   1.644   2.561
  3226TXY    C7 7385   4.823   1.744   2.534
  3226TXY   H14 7386   4.715   1.737   2.518
  3226TXY   H15 7387   4.869   1.771   2.439
  3226TXY    C5 7388   4.857   1.847   2.642
  3226TXY    H9 7389   4.826   1.946   2.607
  3226TXY   H10 7390   4.965   1.851   2.655
  3226TXY    C3 7391   4.790   1.818   2.779
  3226TXY    H5 7392   4.682   1.810   2.764
  3226TXY    H6 7393   4.806   1.905   2.843
  3226TXY    C1 7394   4.843   1.692   2.848
  3226TXY    H1 7395   4.829   1.606   2.782
  3226TXY    H2 7396   4.951   1.702   2.863
  3226TXY    C2 7397   4.774   1.662   2.982
  3226TXY    H3 7398   4.682   1.721   2.990
  3226TXY    H4 7399   4.743   1.558   2.984
  3226TXY    C4 7400   4.861   1.688   3.106
  3226TXY    H7 7401   4.810   1.651   3.195
  3226TXY    H8 7402   4.954   1.632   3.098
  3226TXY    C6 7403   4.894   1.837   3.128
  3226TXY   H11 7404   4.804   1.896   3.140
  3226TXY   H12 7405   4.955   1.851   3.217
  3226TXY   H13 7406   4.950   1.878   3.043
  3236TXY   H16 7407   0.925   0.437   0.404
  3236TXY    C7 7408   0.957   0.540   0.416
  3236TXY   H14 7409   0.877   0.604   0.379
  3236TXY   H15 7410   1.044   0.556   0.352
  3236TXY    C5 7411   0.990   0.573   0.562
  3236TXY    H9 7412   1.028   0.675   0.568
  3236TXY   H10 7413   1.071   0.507   0.595
  3236TXY    C3 7414   0.869   0.558   0.658
  3236TXY    H5 7415   0.786   0.617   0.618
  3236TXY    H6 7416   0.896   0.602   0.754
  3236TXY    C1 7417   0.825   0.413   0.679
  3236TXY    H1 7418   0.802   0.368   0.582
  3236TXY    H2 7419   0.907   0.356   0.722
  3236TXY    C2 7420   0.700   0.400   0.768
  3236TXY    H3 7421   0.649   0.496   0.776
  3236TXY    H4 7422   0.629   0.332   0.721
  3236TXY    C4 7423   0.729   0.348   0.911
  3236TXY    H7 7424   0.634   0.330   0.962
  3236TXY    H8 7425   0.780   0.252   0.905
  3236TXY    C6 7426   0.813   0.444   0.995
  3236TXY   H11 7427   0.765   0.542   1.004
  3236TXY   H12 7428   0.828   0.405   1.096
  3236TXY   H13 7429   0.912   0.460   0.952
  3246TXY   H16 7430   4.117   0.368   1.516
  3246TXY    C7 7431   4.015   0.374   1.478
  3246TXY   H14 7432   4.015   0.340   1.374
  3246TXY   H15 7433   3.987   0.480   1.477
  3246TXY    C5 7434   3.918   0.293   1.564
  3246TXY    H9 7435   3.816   0.308   1.526
  3246TXY   H10 7436   3.920   0.331   1.666
  3246TXY    C3 7437   3.948   0.141   1.565
  3246TXY    H5 7438   3.950   0.105   1.462
  3246TXY    H6 7439   3.865   0.090   1.614
  3246TXY    C1 7440   4.080   0.104   1.636
  3246TXY    H1 7441   4.162   0.159   1.588
  3246TXY    H2 7442   4.075   0.138   1.739
  3246TXY    C2 7443   4.112   4.954   1.631
  3246TXY    H3 7444   4.054   4.905   1.552
  3246TXY    H4 7445   4.217   4.941   1.603
  3246TXY    C4 7446   4.088   4.879   1.764
  3246TXY    H7 7447   4.130   4.779   1.756
  3246TXY    H8 7448   4.142   4.930   1.844
  3246TXY    C6 7449   3.940   4.867   1.802
  3246TXY   H11 7450   3.884   4.815   1.726
  3246TXY   H12 7451   3.928   4.813   1.896
  3246TXY   H13 7452   3.895   4.966   1.815
  3256TXY   H16 7453   4.831   2.493   2.763
  3256TXY    C7 7454   4.750   2.453   2.701
  3256TXY   H14 7455   4.669   2.526   2.702
  3256TXY   H15 7456   4.714   2.362   2.748
  3256TXY    C5 7457   4.798   2.425   2.558
  3256TXY    H9 7458   4.715   2.381   2.502
  3256TXY   H10 7459   4.877   2.351   2.561
  3256TXY    C3 7460   4.848   2.551   2.483
  3256TXY    H5 7461   4.768   2.625   2.483
  3256TXY    H6 7462   4.866   2.524   2.379
  3256TXY    C1 7463   4.975   2.613   2.543
  3256TXY    H1 7464   4.953   2.648   2.643
  3256TXY    H2 7465   0.052   2.537   2.552
  3256TXY    C2 7466   0.029   2.732   2.460
  3256TXY    H3 7467   4.952   2.767   2.391
  3256TXY    H4 7468   0.050   2.815   2.527
  3256TXY    C4 7469   0.157   2.700   2.380
  3256TXY    H7 7470   0.196   2.793   2.337
  3256TXY    H8 7471   0.234   2.663   2.448
  3256TXY    C6 7472   0.136   2.598   2.267
  3256TXY   H11 7473   0.062   2.633   2.196
  3256TXY   H12 7474   0.229   2.581   2.212
  3256TXY   H13 7475   0.103   2.502   2.306
  3266TXY   H16 7476   4.801   3.442   0.683
  3266TXY    C7 7477   4.904   3.472   0.666
  3266TXY   H14 7478   4.969   3.388   0.690
  3266TXY   H15 7479   4.927   3.552   0.737
  3266TXY    C5 7480   4.926   3.519   0.522
  3266TXY    H9 7481   0.028   3.556   0.512
  3266TXY   H10 7482   4.860   3.604   0.501
  3266TXY    C3 7483   4.901   3.409   0.417
  3266TXY    H5 7484   4.958   3.320   0.446
  3266TXY    H6 7485   4.942   3.442   0.321
  3266TXY    C1 7486   4.753   3.372   0.400
  3266TXY    H1 7487   4.713   3.339   0.496
  3266TXY    H2 7488   4.697   3.461   0.371
  3266TXY    C2 7489   4.729   3.261   0.297
  3266TXY    H3 7490   4.818   3.198   0.287
  3266TXY    H4 7491   4.650   3.195   0.333
  3266TXY    C4 7492   4.689   3.311   0.155
  3266TXY    H7 7493   4.658   3.226   0.095
  3266TXY    H8 7494   4.603   3.377   0.164
  3266TXY    C6 7495   4.802   3.385   0.083
  3266TXY   H11 7496   4.892   3.324   0.078
  3266TXY   H12 7497   4.773   3.409   4.980
  3266TXY   H13 7498   4.826   3.479   0.133
  3276TXY   H16 7499   2.523   2.480   1.884
  3276TXY    C7 7500   2.586   2.466   1.972
  3276TXY   H14 7501   2.526   2.416   2.048
  3276TXY   H15 7502   2.612   2.565   2.009
  3276TXY    C5 7503   2.712   2.386   1.939
  3276TXY    H9 7504   2.775   2.381   2.028
  3276TXY   H10 7505   2.769   2.439   1.862
  3276TXY    C3 7506   2.683   2.242   1.889
  3276TXY    H5 7507   2.622   2.191   1.964
  3276TXY    H6 7508   2.777   2.188   1.885
  3276TXY    C1 7509   2.613   2.236   1.752
  3276TXY    H1 7510   2.518   2.288   1.758
  3276TXY    H2 7511   2.674   2.289   1.679
  3276TXY    C2 7512   2.588   2.092   1.705
  3276TXY    H3 7513   2.598   2.021   1.788
  3276TXY    H4 7514   2.485   2.083   1.670
  3276TXY    C4 7515   2.681   2.045   1.590
  3276TXY    H7 7516   2.649   1.947   1.556
  3276TXY    H8 7517   2.670   2.113   1.505
  3276TXY    C6 7518   2.829   2.038   1.630
  3276TXY   H11 7519   2.843   1.971   1.716
  3276TXY   H12 7520   2.890   1.999   1.548
  3276TXY   H13 7521   2.868   2.136   1.657
  3286TXY   H16 7522   3.881   3.030   4.817
  3286TXY    C7 7523   3.822   2.938   4.826
  3286TXY   H14 7524   3.886   2.861   4.869
  3286TXY   H15 7525   3.797   2.906   4.725
  3286TXY    C5 7526   3.696   2.960   4.910
  3286TXY    H9 7527   3.637   2.868   4.909
  3286TXY   H10 7528   3.635   3.037   4.864
  3286TXY    C3 7529   3.725   2.999   0.057
  3286TXY    H5 7530   3.790   2.923   0.101
  3286TXY    H6 7531   3.632   2.997   0.113
  3286TXY    C1 7532   3.791   3.137   0.072
  3286TXY    H1 7533   3.886   3.138   0.019
  3286TXY    H2 7534   3.728   3.212   0.023
  3286TXY    C2 7535   3.815   3.178   0.218
  3286TXY    H3 7536   3.802   3.092   0.284
  3286TXY    H4 7537   3.919   3.210   0.230
  3286TXY    C4 7538   3.724   3.293   0.268
  3286TXY    H7 7539   3.758   3.324   0.367
  3286TXY    H8 7540   3.735   3.378   0.202
  3286TXY    C6 7541   3.576   3.254   0.276
  3286TXY   H11 7542   3.561   3.170   0.345
  3286TXY   H12 7543   3.515   3.337   0.312
  3286TXY   H13 7544   3.537   3.224   0.179
  3296TXY   H16 7545   1.009   4.659   2.564
  3296TXY    C7 7546   1.015   4.691   2.460
  3296TXY   H14 7547   1.115   4.668   2.424
  3296TXY   H15 7548   1.003   4.799   2.459
  3296TXY    C5 7549   0.908   4.622   2.375
  3296TXY    H9 7550   0.917   4.658   2.272
  3296TXY   H10 7551   0.809   4.653   2.410
  3296TXY    C3 7552   0.918   4.468   2.376
  3296TXY    H5 7553   1.021   4.439   2.357
  3296TXY    H6 7554   0.859   4.429   2.293
  3296TXY    C1 7555   0.870   4.405   2.508
  3296TXY    H1 7556   0.928   4.446   2.591
  3296TXY    H2 7557   0.766   4.434   2.526
  3296TXY    C2 7558   0.882   4.252   2.512
  3296TXY    H3 7559   0.958   4.218   2.441
  3296TXY    H4 7560   0.917   4.221   2.610
  3296TXY    C4 7561   0.750   4.176   2.483
  3296TXY    H7 7562   0.768   4.069   2.496
  3296TXY    H8 7563   0.675   4.205   2.556
  3296TXY    C6 7564   0.694   4.200   2.343
  3296TXY   H11 7565   0.767   4.174   2.266
  3296TXY   H12 7566   0.605   4.138   2.325
  3296TXY   H13 7567   0.665   4.304   2.328
  3306TXY   H16 7568   1.392   1.742   3.716
  3306TXY    C7 7569   1.437   1.643   3.714
  3306TXY   H14 7570   1.369   1.575   3.764
  3306TXY   H15 7571   1.529   1.647   3.774
  3306TXY    C5 7572   1.468   1.597   3.571
  3306TXY    H9 7573   1.521   1.502   3.575
  3306TXY   H10 7574   1.535   1.669   3.524
  3306TXY    C3 7575   1.342   1.580   3.483
  3306TXY    H5 7576   1.274   1.511   3.533
  3306TXY    H6 7577   1.372   1.532   3.390
  3306TXY    C1 7578   1.269   1.712   3.451
  3306TXY    H1 7579   1.240   1.760   3.545
  3306TXY    H2 7580   1.339   1.780   3.401
  3306TXY    C2 7581   1.144   1.691   3.365
  3306TXY    H3 7582   1.113   1.587   3.367
  3306TXY    H4 7583   1.061   1.748   3.408
  3306TXY    C4 7584   1.159   1.735   3.217
  3306TXY    H7 7585   1.062   1.728   3.168
  3306TXY    H8 7586   1.190   1.840   3.213
  3306TXY    C6 7587   1.260   1.650   3.138
  3306TXY   H11 7588   1.232   1.545   3.139
  3306TXY   H12 7589   1.265   1.682   3.034
  3306TXY   H13 7590   1.360   1.659   3.180
  3316TXY   H16 7591   1.374   3.157   2.698
  3316TXY    C7 7592   1.321   3.251   2.710
  3316TXY   H14 7593   1.395   3.331   2.709
  3316TXY   H15 7594   1.275   3.250   2.808
  3316TXY    C5 7595   1.216   3.271   2.600
  3316TXY    H9 7596   1.161   3.363   2.620
  3316TXY   H10 7597   1.144   3.189   2.605
  3316TXY    C3 7598   1.275   3.278   2.457
  3316TXY    H5 7599   1.351   3.356   2.455
  3316TXY    H6 7600   1.196   3.309   2.389
  3316TXY    C1 7601   1.335   3.145   2.408
  3316TXY    H1 7602   1.416   3.116   2.475
  3316TXY    H2 7603   1.259   3.067   2.414
  3316TXY    C2 7604   1.390   3.154   2.264
  3316TXY    H3 7605   1.397   3.258   2.232
  3316TXY    H4 7606   1.492   3.114   2.263
  3316TXY    C4 7607   1.307   3.075   2.160
  3316TXY    H7 7608   1.360   3.076   2.065
  3316TXY    H8 7609   1.299   2.971   2.191
  3316TXY    C6 7610   1.166   3.132   2.139
  3316TXY   H11 7611   1.170   3.236   2.107
  3316TXY   H12 7612   1.112   3.076   2.063
  3316TXY   H13 7613   1.107   3.127   2.231
  3326TXY   H16 7614   1.250   4.837   4.325
  3326TXY    C7 7615   1.171   4.777   4.370
  3326TXY   H14 7616   1.102   4.844   4.419
  3326TXY   H15 7617   1.217   4.715   4.447
  3326TXY    C5 7618   1.100   4.690   4.266
  3326TXY    H9 7619   1.029   4.625   4.317
  3326TXY   H10 7620   1.173   4.625   4.217
  3326TXY    C3 7621   1.024   4.771   4.158
  3326TXY    H5 7622   0.952   4.836   4.208
  3326TXY    H6 7623   0.966   4.701   4.097
  3326TXY    C1 7624   1.116   4.854   4.067
  3326TXY    H1 7625   1.170   4.926   4.128
  3326TXY    H2 7626   1.190   4.789   4.021
  3326TXY    C2 7627   1.038   4.931   3.959
  3326TXY    H3 7628   0.931   4.926   3.977
  3326TXY    H4 7629   1.065   0.037   3.964
  3326TXY    C4 7630   1.066   4.883   3.814
  3326TXY    H7 7631   1.016   4.949   3.744
  3326TXY    H8 7632   1.173   4.889   3.794
  3326TXY    C6 7633   1.019   4.739   3.788
  3326TXY   H11 7634   0.912   4.728   3.807
  3326TXY   H12 7635   1.036   4.711   3.684
  3326TXY   H13 7636   1.072   4.667   3.850
  3336TXY   H16 7637   2.452   4.369   1.649
  3336TXY    C7 7638   2.382   4.442   1.689
  3336TXY   H14 7639   2.399   4.536   1.637
  3336TXY   H15 7640   2.406   4.457   1.794
  3336TXY    C5 7641   2.237   4.394   1.673
  3336TXY    H9 7642   2.171   4.467   1.720
  3336TXY   H10 7643   2.224   4.300   1.726
  3336TXY    C3 7644   2.193   4.375   1.525
  3336TXY    H5 7645   2.211   4.469   1.471
  3336TXY    H6 7646   2.085   4.358   1.523
  3336TXY    C1 7647   2.265   4.260   1.454
  3336TXY    H1 7648   2.372   4.278   1.456
  3336TXY    H2 7649   2.247   4.167   1.509
  3336TXY    C2 7650   2.222   4.243   1.307
  3336TXY    H3 7651   2.166   4.330   1.273
  3336TXY    H4 7652   2.310   4.236   1.244
  3336TXY    C4 7653   2.135   4.117   1.281
  3336TXY    H7 7654   2.127   4.100   1.174
  3336TXY    H8 7655   2.185   4.029   1.323
  3336TXY    C6 7656   1.994   4.127   1.341
  3336TXY   H11 7657   1.938   4.210   1.297
  3336TXY   H12 7658   1.937   4.036   1.322
  3336TXY   H13 7659   1.997   4.142   1.449
  3346TXY   H16 7660   0.234   0.261   3.054
  3346TXY    C7 7661   0.241   0.329   3.138
  3346TXY   H14 7662   0.344   0.367   3.142
  3346TXY   H15 7663   0.225   0.272   3.229
  3346TXY    C5 7664   0.141   0.444   3.127
  3346TXY    H9 7665   0.147   0.505   3.217
  3346TXY   H10 7666   0.040   0.403   3.123
  3346TXY    C3 7667   0.163   0.536   3.004
  3346TXY    H5 7668   0.263   0.579   3.010
  3346TXY    H6 7669   0.093   0.620   3.011
  3346TXY    C1 7670   0.144   0.465   2.869
  3346TXY    H1 7671   0.218   0.386   2.860
  3346TXY    H2 7672   0.046   0.417   2.867
  3346TXY    C2 7673   0.159   0.560   2.749
  3346TXY    H3 7674   0.182   0.661   2.783
  3346TXY    H4 7675   0.245   0.528   2.689
  3346TXY    C4 7676   0.035   0.566   2.657
  3346TXY    H7 7677   0.059   0.626   2.569
  3346TXY    H8 7678   0.011   0.466   2.621
  3346TXY    C6 7679   4.911   0.626   2.724
  3346TXY   H11 7680   4.931   0.728   2.759
  3346TXY   H12 7681   4.827   0.630   2.655
  3346TXY   H13 7682   4.880   0.567   2.811
  3356TXY   H16 7683   2.942   1.093   0.751
  3356TXY    C7 7684   2.925   0.992   0.713
  3356TXY   H14 7685   3.022   0.947   0.692
  3356TXY   H15 7686   2.872   1.002   0.618
  3356TXY    C5 7687   2.844   0.907   0.812
  3356TXY    H9 7688   2.823   0.810   0.766
  3356TXY   H10 7689   2.748   0.955   0.830
  3356TXY    C3 7690   2.916   0.884   0.947
  3356TXY    H5 7691   3.013   0.838   0.928
  3356TXY    H6 7692   2.859   0.811   1.004
  3356TXY    C1 7693   2.935   1.012   1.031
  3356TXY    H1 7694   2.996   1.082   0.975
  3356TXY    H2 7695   2.838   1.059   1.045
  3356TXY    C2 7696   3.002   0.986   1.167
  3356TXY    H3 7697   3.045   0.885   1.169
  3356TXY    H4 7698   3.086   1.055   1.179
  3356TXY    C4 7699   2.908   1.002   1.288
  3356TXY    H7 7700   2.966   0.993   1.380
  3356TXY    H8 7701   2.865   1.102   1.288
  3356TXY    C6 7702   2.794   0.899   1.292
  3356TXY   H11 7703   2.833   0.797   1.294
  3356TXY   H12 7704   2.732   0.912   1.381
  3356TXY   H13 7705   2.729   0.908   1.205
  3366TXY   H16 7706   3.134   0.439   2.020
  3366TXY    C7 7707   3.162   0.541   2.046
  3366TXY   H14 7708   3.234   0.536   2.128
  3366TXY   H15 7709   3.072   0.590   2.084
  3366TXY    C5 7710   3.219   0.617   1.926
  3366TXY    H9 7711   3.237   0.720   1.955
  3366TXY   H10 7712   3.144   0.620   1.847
  3366TXY    C3 7713   3.351   0.557   1.870
  3366TXY    H5 7714   3.424   0.554   1.951
  3366TXY    H6 7715   3.390   0.624   1.795
  3366TXY    C1 7716   3.334   0.416   1.810
  3366TXY    H1 7717   3.301   0.348   1.889
  3366TXY    H2 7718   3.254   0.419   1.735
  3366TXY    C2 7719   3.463   0.361   1.749
  3366TXY    H3 7720   3.549   0.420   1.780
  3366TXY    H4 7721   3.481   0.260   1.786
  3366TXY    C4 7722   3.461   0.354   1.594
  3366TXY    H7 7723   3.550   0.301   1.560
  3366TXY    H8 7724   3.375   0.297   1.562
  3366TXY    C6 7725   3.458   0.492   1.527
  3366TXY   H11 7726   3.545   0.552   1.554
  3366TXY   H12 7727   3.456   0.483   1.418
  3366TXY   H13 7728   3.369   0.548   1.556
  3376TXY   H16 7729   2.159   4.318   0.362
  3376TXY    C7 7730   2.101   4.334   0.271
  3376TXY   H14 7731   2.155   4.286   0.189
  3376TXY   H15 7732   2.101   4.442   0.251
  3376TXY    C5 7733   1.958   4.280   0.283
  3376TXY    H9 7734   1.904   4.301   0.191
  3376TXY   H10 7735   1.907   4.335   0.363
  3376TXY    C3 7736   1.952   4.129   0.313
  3376TXY    H5 7737   2.020   4.077   0.246
  3376TXY    H6 7738   1.852   4.093   0.289
  3376TXY    C1 7739   1.987   4.094   0.459
  3376TXY    H1 7740   2.084   4.136   0.483
  3376TXY    H2 7741   1.914   4.142   0.525
  3376TXY    C2 7742   1.991   3.943   0.487
  3376TXY    H3 7743   2.010   3.888   0.395
  3376TXY    H4 7744   2.075   3.921   0.553
  3376TXY    C4 7745   1.863   3.886   0.554
  3376TXY    H7 7746   1.882   3.785   0.588
  3376TXY    H8 7747   1.839   3.945   0.642
  3376TXY    C6 7748   1.741   3.885   0.461
  3376TXY   H11 7749   1.760   3.826   0.371
  3376TXY   H12 7750   1.654   3.841   0.511
  3376TXY   H13 7751   1.713   3.986   0.430
  3386TXY   H16 7752   4.440   3.939   4.791
  3386TXY    C7 7753   4.530   3.970   4.739
  3386TXY   H14 7754   4.518   4.075   4.712
  3386TXY   H15 7755   4.536   3.913   4.646
  3386TXY    C5 7756   4.655   3.949   4.824
  3386TXY    H9 7757   4.743   3.976   4.766
  3386TXY   H10 7758   4.665   3.843   4.848
  3386TXY    C3 7759   4.656   4.031   4.956
  3386TXY    H5 7760   4.642   4.137   4.931
  3386TXY    H6 7761   4.754   4.023   0.001
  3386TXY    C1 7762   4.548   3.987   0.056
  3386TXY    H1 7763   4.450   4.000   0.011
  3386TXY    H2 7764   4.560   3.880   0.075
  3386TXY    C2 7765   4.553   4.065   0.189
  3386TXY    H3 7766   4.621   4.150   0.181
  3386TXY    H4 7767   4.454   4.107   0.209
  3386TXY    C4 7768   4.595   3.979   0.310
  3386TXY    H7 7769   4.584   4.039   0.401
  3386TXY    H8 7770   4.527   3.894   0.320
  3386TXY    C6 7771   4.739   3.927   0.302
  3386TXY   H11 7772   4.810   4.009   0.294
  3386TXY   H12 7773   4.765   3.869   0.391
  3386TXY   H13 7774   4.753   3.863   0.215
  3396TXY   H16 7775   1.478   4.204   3.534
  3396TXY    C7 7776   1.562   4.144   3.501
  3396TXY   H14 7777   1.526   4.043   3.483
  3396TXY   H15 7778   1.634   4.140   3.583
  3396TXY    C5 7779   1.627   4.204   3.375
  3396TXY    H9 7780   1.715   4.144   3.349
  3396TXY   H10 7781   1.663   4.304   3.397
  3396TXY    C3 7782   1.532   4.209   3.253
  3396TXY    H5 7783   1.492   4.109   3.235
  3396TXY    H6 7784   1.591   4.235   3.165
  3396TXY    C1 7785   1.416   4.309   3.270
  3396TXY    H1 7786   1.358   4.281   3.357
  3396TXY    H2 7787   1.457   4.408   3.290
  3396TXY    C2 7788   1.322   4.315   3.148
  3396TXY    H3 7789   1.338   4.228   3.083
  3396TXY    H4 7790   1.219   4.309   3.182
  3396TXY    C4 7791   1.337   4.443   3.062
  3396TXY    H7 7792   1.257   4.446   2.988
  3396TXY    H8 7793   1.324   4.531   3.126
  3396TXY    C6 7794   1.472   4.453   2.990
  3396TXY   H11 7795   1.488   4.368   2.925
  3396TXY   H12 7796   1.477   4.544   2.929
  3396TXY   H13 7797   1.555   4.457   3.061
  3406TXY   H16 7798   2.400   4.712   2.184
  3406TXY    C7 7799   2.362   4.814   2.180
  3406TXY   H14 7800   2.425   4.875   2.245
  3406TXY   H15 7801   2.262   4.813   2.223
  3406TXY    C5 7802   2.361   4.868   2.037
  3406TXY    H9 7803   2.315   4.967   2.038
  3406TXY   H10 7804   2.297   4.805   1.976
  3406TXY    C3 7805   2.501   4.878   1.972
  3406TXY    H5 7806   2.565   4.938   2.036
  3406TXY    H6 7807   2.491   4.932   1.878
  3406TXY    C1 7808   2.567   4.741   1.947
  3406TXY    H1 7809   2.580   4.690   2.042
  3406TXY    H2 7810   2.500   4.679   1.887
  3406TXY    C2 7811   2.705   4.752   1.878
  3406TXY    H3 7812   2.739   4.856   1.877
  3406TXY    H4 7813   2.778   4.697   1.936
  3406TXY    C4 7814   2.708   4.699   1.733
  3406TXY    H7 7815   2.811   4.699   1.697
  3406TXY    H8 7816   2.674   4.595   1.732
  3406TXY    C6 7817   2.622   4.780   1.636
  3406TXY   H11 7818   2.654   4.885   1.633
  3406TXY   H12 7819   2.628   4.741   1.534
  3406TXY   H13 7820   2.516   4.779   1.665
  3416TXY   H16 7821   4.509   3.469   3.964
  3416TXY    C7 7822   4.583   3.440   4.039
  3416TXY   H14 7823   4.679   3.481   4.009
  3416TXY   H15 7824   4.591   3.332   4.036
  3416TXY    C5 7825   4.543   3.489   4.178
  3416TXY    H9 7826   4.616   3.452   4.251
  3416TXY   H10 7827   4.447   3.445   4.205
  3416TXY    C3 7828   4.533   3.643   4.191
  3416TXY    H5 7829   4.629   3.686   4.162
  3416TXY    H6 7830   4.518   3.668   4.296
  3416TXY    C1 7831   4.421   3.705   4.106
  3416TXY    H1 7832   4.442   3.685   4.000
  3416TXY    H2 7833   4.327   3.656   4.129
  3416TXY    C2 7834   4.408   3.857   4.124
  3416TXY    H3 7835   4.495   3.897   4.176
  3416TXY    H4 7836   4.407   3.905   4.026
  3416TXY    C4 7837   4.280   3.901   4.200
  3416TXY    H7 7838   4.271   4.010   4.195
  3416TXY    H8 7839   4.193   3.860   4.151
  3416TXY    C6 7840   4.279   3.859   4.348
  3416TXY   H11 7841   4.365   3.900   4.401
  3416TXY   H12 7842   4.189   3.894   4.398
  3416TXY   H13 7843   4.283   3.750   4.358
  3426TXY   H16 7844   4.697   0.878   3.925
  3426TXY    C7 7845   4.648   0.940   4.000
  3426TXY   H14 7846   4.665   1.044   3.973
  3426TXY   H15 7847   4.698   0.922   4.095
  3426TXY    C5 7848   4.499   0.909   4.010
  3426TXY    H9 7849   4.456   0.968   4.091
  3426TXY   H10 7850   4.486   0.804   4.037
  3426TXY    C3 7851   4.420   0.937   3.879
  3426TXY    H5 7852   4.435   1.042   3.851
  3426TXY    H6 7853   4.313   0.926   3.901
  3426TXY    C1 7854   4.458   0.846   3.762
  3426TXY    H1 7855   4.563   0.861   3.738
  3426TXY    H2 7856   4.447   0.742   3.793
  3426TXY    C2 7857   4.374   0.872   3.636
  3426TXY    H3 7858   4.323   0.968   3.643
  3426TXY    H4 7859   4.441   0.879   3.550
  3426TXY    C4 7860   4.268   0.762   3.605
  3426TXY    H7 7861   4.223   0.782   3.508
  3426TXY    H8 7862   4.318   0.665   3.598
  3426TXY    C6 7863   4.157   0.754   3.710
  3426TXY   H11 7864   4.106   0.849   3.722
  3426TXY   H12 7865   4.082   0.680   3.682
  3426TXY   H13 7866   4.196   0.725   3.808
  3436TXY   H16 7867   1.844   2.920   1.209
  3436TXY    C7 7868   1.738   2.922   1.180
  3436TXY   H14 7869   1.717   3.020   1.136
  3436TXY   H15 7870   1.680   2.914   1.272
  3436TXY    C5 7871   1.704   2.809   1.083
  3436TXY    H9 7872   1.596   2.811   1.064
  3436TXY   H10 7873   1.726   2.713   1.130
  3436TXY    C3 7874   1.778   2.818   0.947
  3436TXY    H5 7875   1.755   2.915   0.901
  3436TXY    H6 7876   1.738   2.742   0.881
  3436TXY    C1 7877   1.931   2.801   0.958
  3436TXY    H1 7878   1.971   2.882   1.020
  3436TXY    H2 7879   1.953   2.708   1.010
  3436TXY    C2 7880   2.002   2.804   0.822
  3436TXY    H3 7881   1.935   2.843   0.745
  3436TXY    H4 7882   2.086   2.873   0.827
  3436TXY    C4 7883   2.055   2.666   0.776
  3436TXY    H7 7884   2.115   2.679   0.686
  3436TXY    H8 7885   2.122   2.626   0.852
  3436TXY    C6 7886   1.945   2.563   0.748
  3436TXY   H11 7887   1.876   2.599   0.672
  3436TXY   H12 7888   1.987   2.469   0.712
  3436TXY   H13 7889   1.888   2.541   0.838
  3446TXY   H16 7890   1.940   4.165   2.835
  3446TXY    C7 7891   2.038   4.160   2.788
  3446TXY   H14 7892   2.078   4.261   2.780
  3446TXY   H15 7893   2.024   4.123   2.686
  3446TXY    C5 7894   2.134   4.069   2.865
  3446TXY    H9 7895   2.226   4.057   2.808
  3446TXY   H10 7896   2.089   3.970   2.875
  3446TXY    C3 7897   2.170   4.122   3.006
  3446TXY    H5 7898   2.211   4.223   2.995
  3446TXY    H6 7899   2.250   4.060   3.047
  3446TXY    C1 7900   2.051   4.125   3.104
  3446TXY    H1 7901   1.972   4.187   3.062
  3446TXY    H2 7902   2.010   4.024   3.113
  3446TXY    C2 7903   2.088   4.180   3.242
  3446TXY    H3 7904   2.186   4.229   3.239
  3446TXY    H4 7905   2.017   4.257   3.271
  3446TXY    C4 7906   2.090   4.073   3.355
  3446TXY    H7 7907   2.105   4.123   3.451
  3446TXY    H8 7908   1.993   4.024   3.359
  3446TXY    C6 7909   2.200   3.968   3.337
  3446TXY   H11 7910   2.299   4.013   3.337
  3446TXY   H12 7911   2.198   3.895   3.418
  3446TXY   H13 7912   2.188   3.914   3.243
  3456TXY   H16 7913   4.197   4.355   3.989
  3456TXY    C7 7914   4.130   4.273   4.014
  3456TXY   H14 7915   4.033   4.316   4.039
  3456TXY   H15 7916   4.169   4.225   4.104
  3456TXY    C5 7917   4.118   4.172   3.900
  3456TXY    H9 7918   4.055   4.089   3.932
  3456TXY   H10 7919   4.217   4.130   3.879
  3456TXY    C3 7920   4.059   4.232   3.770
  3456TXY    H5 7921   3.962   4.276   3.793
  3456TXY    H6 7922   4.040   4.150   3.700
  3456TXY    C1 7923   4.149   4.336   3.702
  3456TXY    H1 7924   4.168   4.418   3.772
  3456TXY    H2 7925   4.246   4.291   3.680
  3456TXY    C2 7926   4.088   4.394   3.573
  3456TXY    H3 7927   3.982   4.370   3.568
  3456TXY    H4 7928   4.094   4.503   3.577
  3456TXY    C4 7929   4.156   4.346   3.442
  3456TXY    H7 7930   4.113   4.401   3.358
  3456TXY    H8 7931   4.262   4.371   3.446
  3456TXY    C6 7932   4.141   4.196   3.416
  3456TXY   H11 7933   4.036   4.167   3.412
  3456TXY   H12 7934   4.186   4.168   3.321
  3456TXY   H13 7935   4.188   4.137   3.494
  3466TXY   H16 7936   0.279   0.478   3.975
  3466TXY    C7 7937   0.280   0.587   3.968
  3466TXY   H14 7938   0.363   0.624   4.029
  3466TXY   H15 7939   0.188   0.624   4.012
  3466TXY    C5 7940   0.293   0.633   3.822
  3466TXY    H9 7941   0.288   0.742   3.819
  3466TXY   H10 7942   0.208   0.596   3.765
  3466TXY    C3 7943   0.425   0.587   3.754
  3466TXY    H5 7944   0.509   0.621   3.814
  3466TXY    H6 7945   0.433   0.638   3.658
  3466TXY    C1 7946   0.433   0.435   3.733
  3466TXY    H1 7947   0.429   0.386   3.830
  3466TXY    H2 7948   0.346   0.402   3.677
  3466TXY    C2 7949   0.563   0.391   3.662
  3466TXY    H3 7950   0.636   0.472   3.663
  3466TXY    H4 7951   0.608   0.309   3.717
  3466TXY    C4 7952   0.543   0.345   3.516
  3466TXY    H7 7953   0.636   0.303   3.479
  3466TXY    H8 7954   0.468   0.266   3.513
  3466TXY    C6 7955   0.499   0.458   3.421
  3466TXY   H11 7956   0.571   0.539   3.420
  3466TXY   H12 7957   0.489   0.421   3.319
  3466TXY   H13 7958   0.402   0.500   3.451
  3476TXY   H16 7959   1.748   2.678   2.857
  3476TXY    C7 7960   1.806   2.747   2.796
  3476TXY   H14 7961   1.875   2.688   2.735
  3476TXY   H15 7962   1.867   2.808   2.864
  3476TXY    C5 7963   1.715   2.835   2.710
  3476TXY    H9 7964   1.777   2.908   2.657
  3476TXY   H10 7965   1.648   2.891   2.775
  3476TXY    C3 7966   1.632   2.756   2.606
  3476TXY    H5 7967   1.699   2.697   2.544
  3476TXY    H6 7968   1.583   2.827   2.540
  3476TXY    C1 7969   1.526   2.663   2.669
  3476TXY    H1 7970   1.576   2.587   2.728
  3476TXY    H2 7971   1.464   2.721   2.738
  3476TXY    C2 7972   1.438   2.594   2.564
  3476TXY    H3 7973   1.483   2.600   2.465
  3476TXY    H4 7974   1.431   2.487   2.587
  3476TXY    C4 7975   1.293   2.649   2.556
  3476TXY    H7 7976   1.236   2.589   2.485
  3476TXY    H8 7977   1.244   2.638   2.653
  3476TXY    C6 7978   1.286   2.796   2.512
  3476TXY   H11 7979   1.331   2.810   2.414
  3476TXY   H12 7980   1.183   2.831   2.507
  3476TXY   H13 7981   1.339   2.861   2.583
  3486TXY   H16 7982   0.154   0.398   4.205
  3486TXY    C7 7983   0.053   0.380   4.169
  3486TXY   H14 7984   0.040   0.273   4.156
  3486TXY   H15 7985   0.044   0.426   4.070
  3486TXY    C5 7986   4.947   0.437   4.265
  3486TXY    H9 7987   4.849   0.425   4.220
  3486TXY   H10 7988   4.964   0.544   4.276
  3486TXY    C3 7989   4.948   0.370   4.405
  3486TXY    H5 7990   4.940   0.262   4.391
  3486TXY    H6 7991   4.859   0.402   4.458
  3486TXY    C1 7992   0.073   0.404   4.488
  3486TXY    H1 7993   0.162   0.374   4.432
  3486TXY    H2 7994   0.079   0.512   4.502
  3486TXY    C2 7995   0.076   0.332   4.624
  3486TXY    H3 7996   0.007   0.248   4.624
  3486TXY    H4 7997   0.175   0.291   4.641
  3486TXY    C4 7998   0.041   0.424   4.745
  3486TXY    H7 7999   0.064   0.371   4.837
  3486TXY    H8 8000   0.105   0.512   4.742
  3486TXY    C6 8001   4.894   0.468   4.749
  3486TXY   H11 8002   4.828   0.382   4.755
  3486TXY   H12 8003   4.875   0.531   4.835
  3486TXY   H13 8004   4.867   0.525   4.660
  3496TXY   H16 8005   2.727   0.328   4.392
  3496TXY    C7 8006   2.668   0.258   4.451
  3496TXY   H14 8007   2.593   0.315   4.506
  3496TXY   H15 8008   2.735   0.213   4.524
  3496TXY    C5 8009   2.603   0.151   4.363
  3496TXY    H9 8010   2.550   0.080   4.427
  3496TXY   H10 8011   2.681   0.095   4.312
  3496TXY    C3 8012   2.503   0.207   4.259
  3496TXY    H5 8013   2.429   0.268   4.310
  3496TXY    H6 8014   2.449   0.124   4.214
  3496TXY    C1 8015   2.571   0.291   4.148
  3496TXY    H1 8016   2.619   0.377   4.194
  3496TXY    H2 8017   2.650   0.231   4.102
  3496TXY    C2 8018   2.472   0.340   4.041
  3496TXY    H3 8019   2.370   0.333   4.077
  3496TXY    H4 8020   2.491   0.446   4.021
  3496TXY    C4 8021   2.482   0.264   3.906
  3496TXY    H7 8022   2.419   0.314   3.833
  3496TXY    H8 8023   2.585   0.270   3.869
  3496TXY    C6 8024   2.441   0.117   3.916
  3496TXY   H11 8025   2.338   0.107   3.951
  3496TXY   H12 8026   2.447   0.068   3.818
  3496TXY   H13 8027   2.505   0.061   3.984
  3506TXY   H16 8028   3.025   3.359   0.655
  3506TXY    C7 8029   2.930   3.406   0.681
  3506TXY   H14 8030   2.950   3.482   0.757
  3506TXY   H15 8031   2.867   3.330   0.727
  3506TXY    C5 8032   2.861   3.467   0.558
  3506TXY    H9 8033   2.765   3.508   0.589
  3506TXY   H10 8034   2.840   3.387   0.486
  3506TXY    C3 8035   2.944   3.577   0.489
  3506TXY    H5 8036   2.968   3.654   0.562
  3506TXY    H6 8037   2.881   3.625   0.413
  3506TXY    C1 8038   3.074   3.526   0.423
  3506TXY    H1 8039   3.139   3.486   0.501
  3506TXY    H2 8040   3.050   3.443   0.356
  3506TXY    C2 8041   3.150   3.636   0.347
  3506TXY    H3 8042   3.114   3.735   0.375
  3506TXY    H4 8043   3.255   3.632   0.375
  3506TXY    C4 8044   3.142   3.622   0.192
  3506TXY    H7 8045   3.207   3.697   0.147
  3506TXY    H8 8046   3.180   3.524   0.163
  3506TXY    C6 8047   3.000   3.640   0.137
  3506TXY   H11 8048   2.959   3.738   0.163
  3506TXY   H12 8049   3.000   3.634   0.028
  3506TXY   H13 8050   2.932   3.564   0.174
  3516TXY   H16 8051   2.109   0.362   3.070
  3516TXY    C7 8052   2.020   0.357   3.133
  3516TXY   H14 8053   1.933   0.375   3.070
  3516TXY   H15 8054   2.026   0.440   3.204
  3516TXY    C5 8055   2.010   0.223   3.205
  3516TXY    H9 8056   1.924   0.225   3.272
  3516TXY   H10 8057   2.098   0.210   3.268
  3516TXY    C3 8058   1.997   0.100   3.111
  3516TXY    H5 8059   1.908   0.113   3.050
  3516TXY    H6 8060   1.980   0.012   3.173
  3516TXY    C1 8061   2.119   0.077   3.021
  3516TXY    H1 8062   2.130   0.163   2.954
  3516TXY    H2 8063   2.209   0.073   3.082
  3516TXY    C2 8064   2.106   4.950   2.935
  3516TXY    H3 8065   2.005   4.910   2.940
  3516TXY    H4 8066   2.123   4.976   2.831
  3516TXY    C4 8067   2.205   4.838   2.974
  3516TXY    H7 8068   2.195   4.756   2.903
  3516TXY    H8 8069   2.307   4.875   2.966
  3516TXY    C6 8070   2.183   4.783   3.116
  3516TXY   H11 8071   2.082   4.743   3.128
  3516TXY   H12 8072   2.253   4.701   3.137
  3516TXY   H13 8073   2.198   4.860   3.191
  3526TXY   H16 8074   3.408   0.441   2.574
  3526TXY    C7 8075   3.509   0.477   2.553
  3526TXY   H14 8076   3.503   0.584   2.533
  3526TXY   H15 8077   3.542   0.429   2.461
  3526TXY    C5 8078   3.605   0.447   2.668
  3526TXY    H9 8079   3.705   0.478   2.640
  3526TXY   H10 8080   3.608   0.339   2.684
  3526TXY    C3 8081   3.566   0.517   2.801
  3526TXY    H5 8082   3.560   0.624   2.784
  3526TXY    H6 8083   3.647   0.502   2.873
  3526TXY    C1 8084   3.434   0.466   2.862
  3526TXY    H1 8085   3.353   0.488   2.792
  3526TXY    H2 8086   3.438   0.358   2.872
  3526TXY    C2 8087   3.401   0.531   2.997
  3526TXY    H3 8088   3.461   0.620   3.013
  3526TXY    H4 8089   3.297   0.564   2.997
  3526TXY    C4 8090   3.420   0.436   3.119
  3526TXY    H7 8091   3.383   0.486   3.209
  3526TXY    H8 8092   3.359   0.347   3.105
  3526TXY    C6 8093   3.565   0.394   3.142
  3526TXY   H11 8094   3.630   0.481   3.157
  3526TXY   H12 8095   3.575   0.330   3.230
  3526TXY   H13 8096   3.605   0.339   3.057
  3536TXY   H16 8097   0.804   3.349   4.839
  3536TXY    C7 8098   0.708   3.337   4.790
  3536TXY   H14 8099   0.660   3.249   4.832
  3536TXY   H15 8100   0.726   3.317   4.685
  3536TXY    C5 8101   0.620   3.462   4.807
  3536TXY    H9 8102   0.527   3.448   4.753
  3536TXY   H10 8103   0.671   3.547   4.762
  3536TXY    C3 8104   0.588   3.494   4.955
  3536TXY    H5 8105   0.547   3.404   0.002
  3536TXY    H6 8106   0.509   3.569   4.958
  3536TXY    C1 8107   0.709   3.543   0.036
  3536TXY    H1 8108   0.786   3.467   0.034
  3536TXY    H2 8109   0.751   3.631   4.987
  3536TXY    C2 8110   0.676   3.576   0.182
  3536TXY    H3 8111   0.584   3.525   0.213
  3536TXY    H4 8112   0.755   3.537   0.247
  3536TXY    C4 8113   0.660   3.728   0.211
  3536TXY    H7 8114   0.657   3.743   0.319
  3536TXY    H8 8115   0.748   3.780   0.174
  3536TXY    C6 8116   0.535   3.790   0.148
  3536TXY   H11 8117   0.445   3.738   0.179
  3536TXY   H12 8118   0.525   3.894   0.177
  3536TXY   H13 8119   0.540   3.786   0.039
  3546TXY   H16 8120   0.378   3.140   1.435
  3546TXY    C7 8121   0.365   3.047   1.489
  3546TXY   H14 8122   0.375   3.068   1.595
  3546TXY   H15 8123   0.448   2.981   1.462
  3546TXY    C5 8124   0.231   2.981   1.457
  3546TXY    H9 8125   0.226   2.884   1.507
  3546TXY   H10 8126   0.225   2.962   1.350
  3546TXY    C3 8127   0.108   3.065   1.500
  3546TXY    H5 8128   0.113   3.082   1.608
  3546TXY    H6 8129   0.018   3.005   1.483
  3546TXY    C1 8130   0.094   3.199   1.427
  3546TXY    H1 8131   0.182   3.261   1.449
  3546TXY    H2 8132   0.094   3.182   1.319
  3546TXY    C2 8133   4.969   3.278   1.468
  3546TXY    H3 8134   4.923   3.234   1.557
  3546TXY    H4 8135   4.997   3.379   1.496
  3546TXY    C4 8136   4.861   3.287   1.358
  3546TXY    H7 8137   4.782   3.354   1.391
  3546TXY    H8 8138   4.904   3.331   1.268
  3546TXY    C6 8139   4.798   3.152   1.321
  3546TXY   H11 8140   4.750   3.106   1.407
  3546TXY   H12 8141   4.722   3.164   1.243
  3546TXY   H13 8142   4.873   3.083   1.283
  3556TXY   H16 8143   2.611   0.086   4.704
  3556TXY    C7 8144   2.517   0.031   4.707
  3556TXY   H14 8145   2.532   4.936   4.657
  3556TXY   H15 8146   2.444   0.088   4.649
  3556TXY    C5 8147   2.469   0.012   4.851
  3556TXY    H9 8148   2.371   4.964   4.849
  3556TXY   H10 8149   2.456   0.109   4.898
  3556TXY    C3 8150   2.564   4.926   4.938
  3556TXY    H5 8151   2.576   4.828   4.891
  3556TXY    H6 8152   2.515   4.908   0.034
  3556TXY    C1 8153   2.702   4.990   4.961
  3556TXY    H1 8154   2.754   4.996   4.866
  3556TXY    H2 8155   2.688   0.093   4.996
  3556TXY    C2 8156   2.788   4.912   0.061
  3556TXY    H3 8157   2.744   4.814   0.082
  3556TXY    H4 8158   2.886   4.892   0.016
  3556TXY    C4 8159   2.812   4.985   0.196
  3556TXY    H7 8160   2.878   4.925   0.258
  3556TXY    H8 8161   2.863   0.079   0.176
  3556TXY    C6 8162   2.683   0.013   0.274
  3556TXY   H11 8163   2.628   4.921   0.293
  3556TXY   H12 8164   2.705   0.059   0.370
  3556TXY   H13 8165   2.617   0.081   0.219
  3566TXY   H16 8166   1.797   3.015   3.822
  3566TXY    C7 8167   1.890   3.067   3.843
  3566TXY   H14 8168   1.870   3.174   3.837
  3566TXY   H15 8169   1.960   3.043   3.764
  3566TXY    C5 8170   1.947   3.028   3.980
  3566TXY    H9 8171   2.042   3.079   3.994
  3566TXY   H10 8172   1.967   2.921   3.981
  3566TXY    C3 8173   1.853   3.064   4.098
  3566TXY    H5 8174   1.827   3.170   4.090
  3566TXY    H6 8175   1.910   3.053   4.191
  3566TXY    C1 8176   1.725   2.980   4.106
  3566TXY    H1 8177   1.670   2.990   4.012
  3566TXY    H2 8178   1.751   2.875   4.116
  3566TXY    C2 8179   1.632   3.023   4.221
  3566TXY    H3 8180   1.656   3.124   4.254
  3566TXY    H4 8181   1.529   3.026   4.185
  3566TXY    C4 8182   1.637   2.929   4.345
  3566TXY    H7 8183   1.557   2.958   4.414
  3566TXY    H8 8184   1.615   2.827   4.313
  3566TXY    C6 8185   1.770   2.932   4.419
  3566TXY   H11 8186   1.795   3.033   4.454
  3566TXY   H12 8187   1.768   2.867   4.507
  3566TXY   H13 8188   1.852   2.898   4.356
  3576TXY   H16 8189   3.987   0.980   2.791
  3576TXY    C7 8190   3.902   1.036   2.831
  3576TXY   H14 8191   3.931   1.141   2.835
  3576TXY   H15 8192   3.886   1.003   2.933
  3576TXY    C5 8193   3.776   1.016   2.746
  3576TXY    H9 8194   3.693   1.067   2.795
  3576TXY   H10 8195   3.751   0.910   2.744
  3576TXY    C3 8196   3.789   1.068   2.601
  3576TXY    H5 8197   3.814   1.174   2.604
  3576TXY    H6 8198   3.691   1.061   2.553
  3576TXY    C1 8199   3.893   0.993   2.517
  3576TXY    H1 8200   3.991   1.006   2.563
  3576TXY    H2 8201   3.871   0.886   2.520
  3576TXY    C2 8202   3.900   1.042   2.371
  3576TXY    H3 8203   3.845   1.136   2.360
  3576TXY    H4 8204   4.004   1.064   2.346
  3576TXY    C4 8205   3.846   0.940   2.268
  3576TXY    H7 8206   3.866   0.978   2.167
  3576TXY    H8 8207   3.899   0.846   2.278
  3576TXY    C6 8208   3.695   0.914   2.281
  3576TXY   H11 8209   3.638   1.006   2.269
  3576TXY   H12 8210   3.661   0.844   2.205
  3576TXY   H13 8211   3.671   0.872   2.378
  3586TXY   H16 8212   4.590   0.418   1.590
  3586TXY    C7 8213   4.487   0.383   1.585
  3586TXY   H14 8214   4.422   0.468   1.608
  3586TXY   H15 8215   4.474   0.310   1.665
  3586TXY    C5 8216   4.454   0.323   1.449
  3586TXY    H9 8217   4.352   0.283   1.452
  3586TXY   H10 8218   4.521   0.239   1.429
  3586TXY    C3 8219   4.464   0.424   1.332
  3586TXY    H5 8220   4.398   0.509   1.353
  3586TXY    H6 8221   4.426   0.376   1.242
  3586TXY    C1 8222   4.607   0.475   1.307
  3586TXY    H1 8223   4.641   0.530   1.395
  3586TXY    H2 8224   4.674   0.390   1.295
  3586TXY    C2 8225   4.617   0.568   1.184
  3586TXY    H3 8226   4.518   0.597   1.150
  3586TXY    H4 8227   4.668   0.660   1.214
  3586TXY    C4 8228   4.694   0.507   1.064
  3586TXY    H7 8229   4.707   0.584   0.988
  3586TXY    H8 8230   4.794   0.477   1.097
  3586TXY    C6 8231   4.623   0.386   1.001
  3586TXY   H11 8232   4.523   0.413   0.967
  3586TXY   H12 8233   4.679   0.350   0.915
  3586TXY   H13 8234   4.614   0.304   1.072
  3596TXY   H16 8235   3.556   3.968   3.216
  3596TXY    C7 8236   3.454   3.965   3.254
  3596TXY   H14 8237   3.397   4.044   3.205
  3596TXY   H15 8238   3.457   3.989   3.360
  3596TXY    C5 8239   3.389   3.828   3.232
  3596TXY    H9 8240   3.290   3.827   3.277
  3596TXY   H10 8241   3.448   3.753   3.284
  3596TXY    C3 8242   3.376   3.788   3.083
  3596TXY    H5 8243   3.326   3.870   3.029
  3596TXY    H6 8244   3.309   3.702   3.076
  3596TXY    C1 8245   3.510   3.756   3.016
  3596TXY    H1 8246   3.576   3.843   3.024
  3596TXY    H2 8247   3.559   3.675   3.071
  3596TXY    C2 8248   3.497   3.718   2.867
  3596TXY    H3 8249   3.401   3.752   2.828
  3596TXY    H4 8250   3.574   3.770   2.810
  3596TXY    C4 8251   3.511   3.566   2.839
  3596TXY    H7 8252   3.519   3.551   2.731
  3596TXY    H8 8253   3.603   3.530   2.883
  3596TXY    C6 8254   3.393   3.483   2.892
  3596TXY   H11 8255   3.299   3.515   2.847
  3596TXY   H12 8256   3.407   3.377   2.868
  3596TXY   H13 8257   3.384   3.492   3.000
  3606TXY   H16 8258   2.862   3.711   1.925
  3606TXY    C7 8259   2.884   3.624   1.987
  3606TXY   H14 8260   2.834   3.538   1.942
  3606TXY   H15 8261   2.838   3.641   2.084
  3606TXY    C5 8262   3.034   3.600   2.001
  3606TXY    H9 8263   3.051   3.517   2.070
  3606TXY   H10 8264   3.080   3.688   2.045
  3606TXY    C3 8265   3.105   3.568   1.866
  3606TXY    H5 8266   3.055   3.482   1.821
  3606TXY    H6 8267   3.207   3.537   1.888
  3606TXY    C1 8268   3.107   3.685   1.767
  3606TXY    H1 8269   3.004   3.713   1.744
  3606TXY    H2 8270   3.153   3.772   1.815
  3606TXY    C2 8271   3.180   3.652   1.636
  3606TXY    H3 8272   3.195   3.545   1.626
  3606TXY    H4 8273   3.117   3.682   1.552
  3606TXY    C4 8274   3.317   3.723   1.620
  3606TXY    H7 8275   3.354   3.705   1.520
  3606TXY    H8 8276   3.303   3.830   1.631
  3606TXY    C6 8277   3.422   3.675   1.721
  3606TXY   H11 8278   3.439   3.567   1.712
  3606TXY   H12 8279   3.518   3.725   1.705
  3606TXY   H13 8280   3.392   3.695   1.824
  3616TXY   H16 8281   2.650   4.717   3.393
  3616TXY    C7 8282   2.680   4.726   3.497
  3616TXY   H14 8283   2.722   4.630   3.528
  3616TXY   H15 8284   2.590   4.743   3.556
  3616TXY    C5 8285   2.781   4.840   3.517
  3616TXY    H9 8286   2.802   4.850   3.624
  3616TXY   H10 8287   2.735   4.934   3.485
  3616TXY    C3 8288   2.914   4.819   3.441
  3616TXY    H5 8289   2.955   4.722   3.468
  3616TXY    H6 8290   2.986   4.894   3.476
  3616TXY    C1 8291   2.900   4.829   3.288
  3616TXY    H1 8292   2.829   4.754   3.255
  3616TXY    H2 8293   2.857   4.926   3.263
  3616TXY    C2 8294   3.032   4.808   3.213
  3616TXY    H3 8295   3.106   4.760   3.277
  3616TXY    H4 8296   3.015   4.740   3.130
  3616TXY    C4 8297   3.095   4.938   3.156
  3616TXY    H7 8298   3.177   4.912   3.089
  3616TXY    H8 8299   3.020   4.990   3.095
  3616TXY    C6 8300   3.148   0.033   3.263
  3616TXY   H11 8301   3.226   4.986   3.323
  3616TXY   H12 8302   3.191   0.123   3.218
  3616TXY   H13 8303   3.069   0.065   3.331
   5.00000   5.00000   5.00000
