UNNAMED in water
 2645
    1ALA      N    1   1.741   1.499   1.529
    1ALA     H1    2   1.701   1.507   1.434
    1ALA     H2    3   1.708   1.417   1.583
    1ALA     H3    4   1.712   1.585   1.580
    1ALA     CA    5   1.890   1.504   1.526
    1ALA     HA    6   1.926   1.411   1.484
    1ALA     CB    7   1.932   1.623   1.439
    1ALA    HB1    8   2.042   1.635   1.441
    1ALA    HB2    9   1.900   1.611   1.333
    1ALA    HB3   10   1.888   1.717   1.478
    1ALA      C   11   1.953   1.511   1.665
    1ALA    OT1   12   1.879   1.495   1.765
    1ALA    OT2   13   2.078   1.529   1.672
    2GLU      N   14   1.012   1.431   1.556
    2GLU     H1   15   0.947   1.420   1.476
    2GLU     H2   16   0.984   1.367   1.633
    2GLU     H3   17   1.009   1.530   1.589
    2GLU     CA   18   1.153   1.396   1.520
    2GLU     HA   19   1.150   1.298   1.475
    2GLU     CB   20   1.211   1.502   1.421
    2GLU    HB1   21   1.148   1.506   1.330
    2GLU    HB2   22   1.206   1.602   1.468
    2GLU     CG   23   1.358   1.476   1.380
    2GLU    HG1   24   1.425   1.489   1.468
    2GLU    HG2   25   1.368   1.373   1.341
    2GLU     CD   26   1.408   1.572   1.275
    2GLU    OE1   27   1.467   1.524   1.176
    2GLU    OE2   28   1.387   1.695   1.292
    2GLU      C   29   1.241   1.388   1.646
    2GLU    OT1   30   1.194   1.429   1.753
    2GLU    OT2   31   1.358   1.340   1.636
    3SOL     OW   32   0.236   0.660   0.106
    3SOL    HW1   33   0.169   0.611   0.154
    3SOL    HW2   34   0.251   0.609   0.027
    4SOL     OW   35   0.205   0.270   1.000
    4SOL    HW1   36   0.248   0.248   1.082
    4SOL    HW2   37   0.113   0.250   1.015
    5SOL     OW   38   0.007   0.400   0.665
    5SOL    HW1   39   2.943   0.385   0.734
    5SOL    HW2   40   2.988   0.332   0.599
    6SOL     OW   41   0.569   1.284   1.174
    6SOL    HW1   42   0.480   1.281   1.140
    6SOL    HW2   43   0.579   1.373   1.208
    7SOL     OW   44   1.558   1.512   0.702
    7SOL    HW1   45   1.514   1.493   0.786
    7SOL    HW2   46   1.486   1.518   0.639
    8SOL     OW   47   1.130   0.699   0.702
    8SOL    HW1   48   1.180   0.779   0.689
    8SOL    HW2   49   1.082   0.713   0.784
    9SOL     OW   50   1.771   0.592   0.232
    9SOL    HW1   51   1.743   0.583   0.141
    9SOL    HW2   52   1.727   0.519   0.277
   10SOL     OW   53   0.759   1.145   1.037
   10SOL    HW1   54   0.689   1.178   1.092
   10SOL    HW2   55   0.792   1.222   0.991
   11SOL     OW   56   0.856   0.783   1.819
   11SOL    HW1   57   0.861   0.853   1.884
   11SOL    HW2   58   0.885   0.824   1.738
   12SOL     OW   59   0.685   1.005   0.651
   12SOL    HW1   60   0.750   0.993   0.720
   12SOL    HW2   61   0.615   1.056   0.692
   13SOL     OW   62   0.705   1.152   1.809
   13SOL    HW1   63   0.751   1.233   1.831
   13SOL    HW2   64   0.619   1.182   1.777
   14SOL     OW   65   0.333   1.429   1.071
   14SOL    HW1   66   0.266   1.383   1.021
   14SOL    HW2   67   0.384   1.477   1.005
   15SOL     OW   68   0.450   0.402   1.491
   15SOL    HW1   69   0.525   0.342   1.496
   15SOL    HW2   70   0.374   0.345   1.506
   16SOL     OW   71   1.612   0.458   0.735
   16SOL    HW1   72   1.536   0.482   0.683
   16SOL    HW2   73   1.626   0.532   0.793
   17SOL     OW   74   0.219   1.715   0.480
   17SOL    HW1   75   0.240   1.797   0.525
   17SOL    HW2   76   0.288   1.704   0.415
   18SOL     OW   77   0.248   1.450   0.529
   18SOL    HW1   78   0.212   1.538   0.525
   18SOL    HW2   79   0.187   1.401   0.584
   19SOL     OW   80   0.253   1.080   0.889
   19SOL    HW1   81   0.254   0.996   0.934
   19SOL    HW2   82   0.195   1.135   0.942
   20SOL     OW   83   0.619   1.789   1.435
   20SOL    HW1   84   0.535   1.771   1.476
   20SOL    HW2   85   0.638   1.880   1.456
   21SOL     OW   86   0.590   0.976   0.149
   21SOL    HW1   87   0.607   1.047   0.087
   21SOL    HW2   88   0.631   1.004   0.230
   22SOL     OW   89   1.551   0.144   1.459
   22SOL    HW1   90   1.589   0.220   1.414
   22SOL    HW2   91   1.619   0.116   1.520
   23SOL     OW   92   0.115   0.634   0.565
   23SOL    HW1   93   0.084   0.553   0.607
   23SOL    HW2   94   0.117   0.698   0.636
   24SOL     OW   95   1.844   1.760   0.335
   24SOL    HW1   96   1.899   1.726   0.406
   24SOL    HW2   97   1.871   1.851   0.326
   25SOL     OW   98   0.022   1.599   0.116
   25SOL    HW1   99   0.020   1.505   0.131
   25SOL    HW2  100   2.989   1.637   0.198
   26SOL     OW  101   1.688   0.916   0.635
   26SOL    HW1  102   1.775   0.881   0.617
   26SOL    HW2  103   1.667   0.970   0.559
   27SOL     OW  104   1.646   1.108   0.432
   27SOL    HW1  105   1.732   1.115   0.389
   27SOL    HW2  106   1.651   1.169   0.506
   28SOL     OW  107   0.129   0.746   1.589
   28SOL    HW1  108   0.224   0.757   1.594
   28SOL    HW2  109   0.094   0.835   1.594
   29SOL     OW  110   0.611   1.382   0.735
   29SOL    HW1  111   0.565   1.299   0.744
   29SOL    HW2  112   0.595   1.410   0.645
   30SOL     OW  113   1.323   1.128   1.467
   30SOL    HW1  114   1.359   1.138   1.379
   30SOL    HW2  115   1.351   1.207   1.513
   31SOL     OW  116   0.819   0.012   0.513
   31SOL    HW1  117   0.849   0.102   0.497
   31SOL    HW2  118   0.725   0.015   0.499
   32SOL     OW  119   0.189   0.958   1.273
   32SOL    HW1  120   0.273   0.918   1.252
   32SOL    HW2  121   0.126   0.911   1.219
   33SOL     OW  122   1.507   1.006   0.210
   33SOL    HW1  123   1.442   0.946   0.248
   33SOL    HW2  124   1.560   1.035   0.284
   34SOL     OW  125   1.180   1.804   1.622
   34SOL    HW1  126   1.197   1.869   1.554
   34SOL    HW2  127   1.222   1.724   1.590
   35SOL     OW  128   0.331   0.253   1.793
   35SOL    HW1  129   0.383   0.328   1.822
   35SOL    HW2  130   0.248   0.262   1.841
   36SOL     OW  131   1.440   1.428   0.931
   36SOL    HW1  132   1.439   1.456   1.023
   36SOL    HW2  133   1.437   1.333   0.935
   37SOL     OW  134   1.664   1.733   0.577
   37SOL    HW1  135   1.638   1.704   0.489
   37SOL    HW2  136   1.635   1.662   0.634
   38SOL     OW  137   0.592   0.720   0.265
   38SOL    HW1  138   0.602   0.802   0.218
   38SOL    HW2  139   0.530   0.740   0.336
   39SOL     OW  140   1.286   0.341   0.930
   39SOL    HW1  141   1.194   0.317   0.939
   39SOL    HW2  142   1.331   0.292   0.998
   40SOL     OW  143   1.583   1.668   0.310
   40SOL    HW1  144   1.672   1.703   0.302
   40SOL    HW2  145   1.558   1.647   0.220
   41SOL     OW  146   0.792   0.617   1.455
   41SOL    HW1  147   0.764   0.595   1.543
   41SOL    HW2  148   0.750   0.552   1.399
   42SOL     OW  149   1.396   0.477   1.677
   42SOL    HW1  150   1.397   0.522   1.762
   42SOL    HW2  151   1.455   0.402   1.688
   43SOL     OW  152   0.958   0.888   1.583
   43SOL    HW1  153   1.014   0.819   1.549
   43SOL    HW2  154   0.911   0.922   1.507
   44SOL     OW  155   0.996   0.422   1.229
   44SOL    HW1  156   0.919   0.437   1.284
   44SOL    HW2  157   0.962   0.372   1.155
   45SOL     OW  158   1.048   0.705   0.425
   45SOL    HW1  159   1.065   0.696   0.518
   45SOL    HW2  160   0.968   0.655   0.410
   46SOL     OW  161   0.103   0.815   0.764
   46SOL    HW1  162   0.181   0.812   0.819
   46SOL    HW2  163   0.044   0.875   0.809
   47SOL     OW  164   0.139   1.834   1.571
   47SOL    HW1  165   0.125   1.814   1.664
   47SOL    HW2  166   0.053   1.863   1.540
   48SOL     OW  167   0.929   0.338   0.220
   48SOL    HW1  168   0.938   0.399   0.147
   48SOL    HW2  169   0.881   0.264   0.183
   49SOL     OW  170   1.712   0.578   1.829
   49SOL    HW1  171   1.673   0.655   1.787
   49SOL    HW2  172   1.733   0.520   1.756
   50SOL     OW  173   1.373   1.139   0.539
   50SOL    HW1  174   1.454   1.130   0.489
   50SOL    HW2  175   1.322   1.205   0.492
   51SOL     OW  176   0.505   0.200   0.915
   51SOL    HW1  177   0.534   0.211   1.005
   51SOL    HW2  178   0.551   0.269   0.866
   52SOL     OW  179   1.007   1.446   0.473
   52SOL    HW1  180   0.966   1.517   0.425
   52SOL    HW2  181   0.995   1.470   0.565
   53SOL     OW  182   0.354   1.806   0.855
   53SOL    HW1  183   0.400   1.723   0.867
   53SOL    HW2  184   0.419   1.873   0.873
   54SOL     OW  185   1.798   1.056   0.866
   54SOL    HW1  186   1.739   1.046   0.791
   54SOL    HW2  187   1.740   1.064   0.941
   55SOL     OW  188   0.320   0.949   0.234
   55SOL    HW1  189   0.411   0.958   0.206
   55SOL    HW2  190   0.294   0.862   0.203
   56SOL     OW  191   1.476   0.737   0.727
   56SOL    HW1  192   1.464   0.695   0.812
   56SOL    HW2  193   1.550   0.796   0.739
   57SOL     OW  194   0.466   1.261   1.733
   57SOL    HW1  195   0.436   1.268   1.643
   57SOL    HW2  196   0.386   1.267   1.785
   58SOL     OW  197   1.110   1.777   0.223
   58SOL    HW1  198   1.053   1.728   0.283
   58SOL    HW2  199   1.141   1.711   0.161
   59SOL     OW  200   0.199   0.296   1.494
   59SOL    HW1  201   0.115   0.342   1.495
   59SOL    HW2  202   0.188   0.224   1.556
   60SOL     OW  203   1.627   1.363   0.084
   60SOL    HW1  204   1.599   1.454   0.076
   60SOL    HW2  205   1.545   1.313   0.078
   61SOL     OW  206   0.467   1.724   0.334
   61SOL    HW1  207   0.499   1.793   0.392
   61SOL    HW2  208   0.533   1.717   0.265
   62SOL     OW  209   1.409   0.107   0.436
   62SOL    HW1  210   1.390   0.081   0.346
   62SOL    HW2  211   1.503   0.127   0.436
   63SOL     OW  212   0.266   1.798   1.233
   63SOL    HW1  213   0.302   1.724   1.282
   63SOL    HW2  214   0.227   1.758   1.155
   64SOL     OW  215   0.937   1.699   0.903
   64SOL    HW1  216   1.021   1.655   0.919
   64SOL    HW2  217   0.896   1.647   0.834
   65SOL     OW  218   0.391   0.694   0.472
   65SOL    HW1  219   0.421   0.605   0.489
   65SOL    HW2  220   0.298   0.694   0.498
   66SOL     OW  221   1.539   0.248   1.734
   66SOL    HW1  222   1.542   0.257   1.830
   66SOL    HW2  223   1.483   0.172   1.719
   67SOL     OW  224   0.609   0.111   0.108
   67SOL    HW1  225   0.704   0.109   0.119
   67SOL    HW2  226   0.596   0.142   0.018
   68SOL     OW  227   0.764   0.268   1.748
   68SOL    HW1  228   0.841   0.213   1.764
   68SOL    HW2  229   0.725   0.280   1.834
   69SOL     OW  230   0.876   1.516   1.190
   69SOL    HW1  231   0.854   1.499   1.099
   69SOL    HW2  232   0.937   1.446   1.214
   70SOL     OW  233   1.342   0.588   1.432
   70SOL    HW1  234   1.372   0.558   1.518
   70SOL    HW2  235   1.376   0.677   1.424
   71SOL     OW  236   0.812   1.399   0.936
   71SOL    HW1  237   0.897   1.390   0.892
   71SOL    HW2  238   0.748   1.397   0.865
   72SOL     OW  239   0.926   0.510   0.904
   72SOL    HW1  240   0.904   0.502   0.811
   72SOL    HW2  241   0.960   0.423   0.927
   73SOL     OW  242   0.541   0.052   0.501
   73SOL    HW1  243   0.453   0.041   0.538
   73SOL    HW2  244   0.532   0.126   0.441
   74SOL     OW  245   1.412   1.208   0.049
   74SOL    HW1  246   1.432   1.133   0.104
   74SOL    HW2  247   1.323   1.234   0.075
   75SOL     OW  248   0.300   0.082   0.198
   75SOL    HW1  249   0.383   0.128   0.187
   75SOL    HW2  250   0.324   2.989   0.199
   76SOL     OW  251   0.944   0.253   0.474
   76SOL    HW1  252   0.922   0.290   0.388
   76SOL    HW2  253   1.039   0.261   0.479
   77SOL     OW  254   1.080   0.680   1.459
   77SOL    HW1  255   1.011   0.613   1.467
   77SOL    HW2  256   1.161   0.629   1.452
   78SOL     OW  257   1.218   1.571   0.793
   78SOL    HW1  258   1.245   1.639   0.731
   78SOL    HW2  259   1.287   1.569   0.859
   79SOL     OW  260   0.466   1.147   0.738
   79SOL    HW1  261   0.394   1.128   0.798
   79SOL    HW2  262   0.429   1.134   0.651
   80SOL     OW  263   1.270   1.794   0.600
   80SOL    HW1  264   1.315   1.858   0.544
   80SOL    HW2  265   1.211   1.847   0.653
   81SOL     OW  266   1.044   0.499   0.030
   81SOL    HW1  267   1.001   0.584   0.020
   81SOL    HW2  268   1.112   0.514   0.096
   82SOL     OW  269   0.079   0.569   1.386
   82SOL    HW1  270   0.169   0.561   1.355
   82SOL    HW2  271   0.085   0.631   1.459
   83SOL     OW  272   0.580   0.210   1.177
   83SOL    HW1  273   0.614   0.167   1.255
   83SOL    HW2  274   0.487   0.222   1.195
   84SOL     OW  275   0.875   0.470   0.639
   84SOL    HW1  276   0.824   0.517   0.574
   84SOL    HW2  277   0.886   0.382   0.602
   85SOL     OW  278   0.998   0.054   0.766
   85SOL    HW1  279   0.963   0.062   0.677
   85SOL    HW2  280   0.975   2.966   0.793
   86SOL     OW  281   1.439   1.155   0.863
   86SOL    HW1  282   1.368   1.091   0.856
   86SOL    HW2  283   1.459   1.179   0.773
   87SOL     OW  284   1.469   0.598   0.978
   87SOL    HW1  285   1.419   0.518   0.989
   87SOL    HW2  286   1.529   0.599   1.053
   88SOL     OW  287   1.848   0.818   0.382
   88SOL    HW1  288   1.902   0.760   0.435
   88SOL    HW2  289   1.821   0.764   0.307
   89SOL     OW  290   0.490   1.406   0.153
   89SOL    HW1  291   0.424   1.375   0.216
   89SOL    HW2  292   0.442   1.413   0.070
   90SOL     OW  293   1.668   1.265   0.649
   90SOL    HW1  294   1.763   1.272   0.662
   90SOL    HW2  295   1.634   1.352   0.671
   91SOL     OW  296   1.414   0.576   0.098
   91SOL    HW1  297   1.342   0.568   0.161
   91SOL    HW2  298   1.460   0.492   0.104
   92SOL     OW  299   0.527   0.264   0.328
   92SOL    HW1  300   0.568   0.213   0.258
   92SOL    HW2  301   0.502   0.347   0.286
   93SOL     OW  302   1.123   1.191   1.104
   93SOL    HW1  303   1.059   1.229   1.165
   93SOL    HW2  304   1.101   1.230   1.020
   94SOL     OW  305   1.634   1.100   1.076
   94SOL    HW1  306   1.627   1.164   1.147
   94SOL    HW2  307   1.552   1.110   1.027
   95SOL     OW  308   0.901   0.109   1.387
   95SOL    HW1  309   0.941   0.092   1.302
   95SOL    HW2  310   0.965   0.162   1.434
   96SOL     OW  311   0.969   1.133   1.705
   96SOL    HW1  312   0.880   1.125   1.739
   96SOL    HW2  313   0.986   1.049   1.662
   97SOL     OW  314   0.704   1.062   0.379
   97SOL    HW1  315   0.690   1.049   0.473
   97SOL    HW2  316   0.784   1.013   0.359
   98SOL     OW  317   0.419   0.812   1.249
   98SOL    HW1  318   0.487   0.824   1.315
   98SOL    HW2  319   0.383   0.725   1.267
   99SOL     OW  320   1.272   0.388   1.259
   99SOL    HW1  321   1.300   0.459   1.316
   99SOL    HW2  322   1.178   0.402   1.248
  100SOL     OW  323   0.068   1.572   1.308
  100SOL    HW1  324   0.024   1.652   1.339
  100SOL    HW2  325   0.155   1.575   1.348
  101SOL     OW  326   0.358   1.109   0.491
  101SOL    HW1  327   0.350   1.184   0.432
  101SOL    HW2  328   0.356   1.032   0.434
  102SOL     OW  329   0.552   0.542   0.862
  102SOL    HW1  330   0.572   0.597   0.786
  102SOL    HW2  331   0.617   0.567   0.927
  103SOL     OW  332   1.247   1.346   0.396
  103SOL    HW1  333   1.302   1.419   0.423
  103SOL    HW2  334   1.160   1.368   0.427
  104SOL     OW  335   1.584   0.627   0.476
  104SOL    HW1  336   1.540   0.681   0.542
  104SOL    HW2  337   1.628   0.690   0.419
  105SOL     OW  338   0.350   1.527   1.322
  105SOL    HW1  339   0.331   1.486   1.237
  105SOL    HW2  340   0.445   1.538   1.323
  106SOL     OW  341   0.411   0.740   1.601
  106SOL    HW1  342   0.468   0.791   1.543
  106SOL    HW2  343   0.461   0.660   1.619
  107SOL     OW  344   1.595   0.773   1.676
  107SOL    HW1  345   1.510   0.817   1.673
  107SOL    HW2  346   1.647   0.819   1.610
  108SOL     OW  347   1.004   0.111   1.762
  108SOL    HW1  348   1.047   0.192   1.737
  108SOL    HW2  349   1.027   0.050   1.691
  109SOL     OW  350   0.503   0.051   1.749
  109SOL    HW1  351   0.470   2.989   1.684
  109SOL    HW2  352   0.434   0.117   1.757
  110SOL     OW  353   0.582   0.872   1.030
  110SOL    HW1  354   0.613   0.963   1.028
  110SOL    HW2  355   0.526   0.868   1.108
  111SOL     OW  356   1.359   0.854   1.023
  111SOL    HW1  357   1.274   0.844   0.979
  111SOL    HW2  358   1.394   0.765   1.026
  112SOL     OW  359   1.205   0.530   0.271
  112SOL    HW1  360   1.214   0.450   0.323
  112SOL    HW2  361   1.165   0.593   0.331
  113SOL     OW  362   0.324   0.207   1.247
  113SOL    HW1  363   0.290   0.252   1.324
  113SOL    HW2  364   0.276   0.124   1.244
  114SOL     OW  365   0.033   1.305   1.279
  114SOL    HW1  366   0.067   1.260   1.356
  114SOL    HW2  367   0.044   1.398   1.299
  115SOL     OW  368   0.725   0.631   1.059
  115SOL    HW1  369   0.799   0.613   1.001
  115SOL    HW2  370   0.699   0.720   1.038
  116SOL     OW  371   1.734   0.955   1.852
  116SOL    HW1  372   1.679   0.909   1.788
  116SOL    HW2  373   1.675   0.974   1.925
  117SOL     OW  374   0.305   0.073   0.641
  117SOL    HW1  375   0.306   0.156   0.689
  117SOL    HW2  376   0.281   0.008   0.706
  118SOL     OW  377   1.614   0.373   0.368
  118SOL    HW1  378   1.645   0.310   0.433
  118SOL    HW2  379   1.589   0.450   0.419
  119SOL     OW  380   1.028   0.759   0.962
  119SOL    HW1  381   1.027   0.778   1.056
  119SOL    HW2  382   1.001   0.668   0.956
  120SOL     OW  383   0.355   0.915   1.809
  120SOL    HW1  384   0.437   0.935   1.855
  120SOL    HW2  385   0.381   0.852   1.741
  121SOL     OW  386   1.505   0.300   0.125
  121SOL    HW1  387   1.463   0.215   0.142
  121SOL    HW2  388   1.559   0.316   0.202
  122SOL     OW  389   1.292   0.824   0.033
  122SOL    HW1  390   1.335   0.739   0.048
  122SOL    HW2  391   1.324   0.852   2.947
  123SOL     OW  392   1.065   1.334   0.855
  123SOL    HW1  393   1.069   1.263   0.791
  123SOL    HW2  394   1.127   1.399   0.822
  124SOL     OW  395   0.312   0.808   0.948
  124SOL    HW1  396   0.405   0.830   0.944
  124SOL    HW2  397   0.310   0.720   0.987
  125SOL     OW  398   0.334   0.515   1.016
  125SOL    HW1  399   0.295   0.431   0.991
  125SOL    HW2  400   0.408   0.525   0.956
  126SOL     OW  401   1.140   0.382   1.699
  126SOL    HW1  402   1.096   0.437   1.764
  126SOL    HW2  403   1.227   0.420   1.691
  127SOL     OW  404   1.100   0.254   1.472
  127SOL    HW1  405   1.121   0.306   1.549
  127SOL    HW2  406   1.184   0.237   1.430
  128SOL     OW  407   0.008   1.315   0.172
  128SOL    HW1  408   2.916   1.331   0.150
  128SOL    HW2  409   0.006   1.241   0.232
  129SOL     OW  410   0.099   1.806   0.967
  129SOL    HW1  411   0.056   1.741   0.911
  129SOL    HW2  412   0.184   1.821   0.927
  130SOL     OW  413   0.497   1.573   0.903
  130SOL    HW1  414   0.566   1.634   0.929
  130SOL    HW2  415   0.543   1.508   0.849
  131SOL     OW  416   0.986   0.796   1.229
  131SOL    HW1  417   1.042   0.771   1.302
  131SOL    HW2  418   0.901   0.756   1.248
  132SOL     OW  419   0.044   0.548   1.101
  132SOL    HW1  420   0.138   0.537   1.083
  132SOL    HW2  421   0.038   0.544   1.197
  133SOL     OW  422   0.192   0.518   1.719
  133SOL    HW1  423   0.267   0.495   1.663
  133SOL    HW2  424   0.158   0.599   1.681
  134SOL     OW  425   1.383   0.946   1.670
  134SOL    HW1  426   1.384   1.039   1.691
  134SOL    HW2  427   1.366   0.942   1.576
  135SOL     OW  428   0.817   0.575   0.350
  135SOL    HW1  429   0.822   0.498   0.294
  135SOL    HW2  430   0.737   0.620   0.323
  136SOL     OW  431   1.642   0.602   1.188
  136SOL    HW1  432   1.628   0.546   1.264
  136SOL    HW2  433   1.729   0.578   1.156
  137SOL     OW  434   0.282   1.560   1.746
  137SOL    HW1  435   0.221   1.617   1.793
  137SOL    HW2  436   0.253   1.472   1.768
  138SOL     OW  437   0.692   0.457   1.264
  138SOL    HW1  438   0.647   0.379   1.229
  138SOL    HW2  439   0.694   0.518   1.190
  139SOL     OW  440   0.925   1.684   1.459
  139SOL    HW1  441   0.894   1.669   1.370
  139SOL    HW2  442   0.930   1.779   1.467
  140SOL     OW  443   0.446   0.495   0.202
  140SOL    HW1  444   0.512   0.561   0.219
  140SOL    HW2  445   0.365   0.545   0.188
  141SOL     OW  446   0.161   1.144   1.465
  141SOL    HW1  447   0.145   1.095   1.545
  141SOL    HW2  448   0.169   1.077   1.397
  142SOL     OW  449   1.352   1.056   1.202
  142SOL    HW1  450   1.364   0.985   1.139
  142SOL    HW2  451   1.270   1.098   1.176
  143SOL     OW  452   1.308   0.849   0.311
  143SOL    HW1  453   1.230   0.823   0.359
  143SOL    HW2  454   1.283   0.840   0.219
  144SOL     OW  455   1.755   1.753   1.136
  144SOL    HW1  456   1.824   1.774   1.073
  144SOL    HW2  457   1.739   1.659   1.123
  145SOL     OW  458   1.224   1.726   1.083
  145SOL    HW1  459   1.305   1.755   1.040
  145SOL    HW2  460   1.254   1.683   1.163
  146SOL     OW  461   0.093   1.244   1.026
  146SOL    HW1  462   0.077   1.259   1.120
  146SOL    HW2  463   0.009   1.264   0.984
  147SOL     OW  464   0.691   1.668   1.718
  147SOL    HW1  465   0.628   1.739   1.727
  147SOL    HW2  466   0.734   1.683   1.634
  148SOL     OW  467   0.881   0.081   0.143
  148SOL    HW1  468   0.940   0.065   0.070
  148SOL    HW2  469   0.915   0.027   0.215
  149SOL     OW  470   1.717   0.141   0.506
  149SOL    HW1  471   1.789   0.136   0.443
  149SOL    HW2  472   1.726   0.061   0.558
  150SOL     OW  473   1.388   1.568   0.480
  150SOL    HW1  474   1.451   1.601   0.416
  150SOL    HW2  475   1.343   1.646   0.512
  151SOL     OW  476   0.124   1.798   1.843
  151SOL    HW1  477   0.082   1.729   1.894
  151SOL    HW2  478   0.182   1.842   1.906
  152SOL     OW  479   1.277   0.924   0.669
  152SOL    HW1  480   1.351   0.863   0.675
  152SOL    HW2  481   1.310   0.998   0.619
  153SOL     OW  482   0.813   1.281   1.415
  153SOL    HW1  483   0.775   1.304   1.499
  153SOL    HW2  484   0.741   1.291   1.353
  154SOL     OW  485   0.672   1.609   0.159
  154SOL    HW1  486   0.672   1.627   0.065
  154SOL    HW2  487   0.617   1.531   0.168
  155SOL     OW  488   1.656   1.736   1.401
  155SOL    HW1  489   1.667   1.743   1.306
  155SOL    HW2  490   1.607   1.814   1.425
  156SOL     OW  491   1.850   0.157   0.966
  156SOL    HW1  492   1.852   0.075   0.918
  156SOL    HW2  493   1.768   0.199   0.939
  157SOL     OW  494   0.270   0.333   0.740
  157SOL    HW1  495   0.183   0.371   0.729
  157SOL    HW2  496   0.271   0.302   0.831
  158SOL     OW  497   1.205   1.604   0.034
  158SOL    HW1  498   1.199   1.514   0.066
  158SOL    HW2  499   1.153   1.604   2.953
  159SOL     OW  500   0.824   1.007   1.372
  159SOL    HW1  501   0.871   0.998   1.289
  159SOL    HW2  502   0.829   1.101   1.392
  160SOL     OW  503   0.919   0.925   0.302
  160SOL    HW1  504   0.985   0.964   0.244
  160SOL    HW2  505   0.967   0.861   0.355
  161SOL     OW  506   1.488   1.601   0.050
  161SOL    HW1  507   1.393   1.613   0.053
  161SOL    HW2  508   1.514   1.637   2.965
  162SOL     OW  509   0.375   1.303   1.489
  162SOL    HW1  510   0.356   1.383   1.440
  162SOL    HW2  511   0.298   1.248   1.476
  163SOL     OW  512   1.610   1.287   1.273
  163SOL    HW1  513   1.644   1.272   1.361
  163SOL    HW2  514   1.542   1.353   1.284
  164SOL     OW  515   1.047   1.105   0.704
  164SOL    HW1  516   0.978   1.053   0.746
  164SOL    HW2  517   1.110   1.040   0.672
  165SOL     OW  518   1.017   0.243   0.965
  165SOL    HW1  519   1.011   0.191   0.885
  165SOL    HW2  520   1.020   0.178   1.035
  166SOL     OW  521   0.601   1.491   0.484
  166SOL    HW1  522   0.641   1.440   0.413
  166SOL    HW2  523   0.537   1.547   0.441
  167SOL     OW  524   1.719   0.391   1.379
  167SOL    HW1  525   1.790   0.455   1.377
  167SOL    HW2  526   1.747   0.321   1.320
  168SOL     OW  527   0.265   1.333   0.293
  168SOL    HW1  528   0.176   1.340   0.258
  168SOL    HW2  529   0.262   1.379   0.376
  169SOL     OW  530   0.124   1.007   1.704
  169SOL    HW1  531   0.049   0.976   1.754
  169SOL    HW2  532   0.200   0.977   1.752
  170SOL     OW  533   0.664   0.209   1.492
  170SOL    HW1  534   0.746   0.180   1.453
  170SOL    HW2  535   0.685   0.225   1.584
  171SOL     OW  536   0.071   0.316   0.049
  171SOL    HW1  537   2.979   0.330   0.028
  171SOL    HW2  538   0.114   0.397   0.022
  172SOL     OW  539   1.432   0.849   1.392
  172SOL    HW1  540   1.385   0.918   1.345
  172SOL    HW2  541   1.524   0.863   1.370
  173SOL     OW  542   0.030   0.188   0.287
  173SOL    HW1  543   0.044   0.244   0.210
  173SOL    HW2  544   0.116   0.149   0.304
  174SOL     OW  545   1.184   1.348   0.124
  174SOL    HW1  546   1.090   1.334   0.115
  174SOL    HW2  547   1.200   1.338   0.218
  175SOL     OW  548   0.618   0.832   1.432
  175SOL    HW1  549   0.673   0.909   1.419
  175SOL    HW2  550   0.679   0.759   1.442
  176SOL     OW  551   1.479   1.782   0.961
  176SOL    HW1  552   1.531   1.840   0.906
  176SOL    HW2  553   1.540   1.754   1.030
  177SOL     OW  554   0.714   0.566   1.708
  177SOL    HW1  555   0.752   0.634   1.765
  177SOL    HW2  556   0.758   0.485   1.735
  178SOL     OW  557   0.388   1.737   1.564
  178SOL    HW1  558   0.302   1.776   1.550
  178SOL    HW2  559   0.370   1.656   1.612
  179SOL     OW  560   1.680   0.884   1.252
  179SOL    HW1  561   1.662   0.799   1.213
  179SOL    HW2  562   1.663   0.947   1.182
  180SOL     OW  563   1.225   0.317   0.454
  180SOL    HW1  564   1.287   0.243   0.454
  180SOL    HW2  565   1.248   0.367   0.532
  181SOL     OW  566   0.592   0.740   0.664
  181SOL    HW1  567   0.632   0.826   0.654
  181SOL    HW2  568   0.521   0.738   0.601
  182SOL     OW  569   1.766   0.352   1.645
  182SOL    HW1  570   1.745   0.376   1.555
  182SOL    HW2  571   1.685   0.317   1.681
  183SOL     OW  572   1.735   0.934   1.513
  183SOL    HW1  573   1.786   1.014   1.526
  183SOL    HW2  574   1.728   0.925   1.418
  184SOL     OW  575   0.906   1.386   0.061
  184SOL    HW1  576   0.833   1.387   0.123
  184SOL    HW2  577   0.868   1.415   2.979
  185SOL     OW  578   0.659   1.793   0.949
  185SOL    HW1  579   0.637   1.883   0.923
  185SOL    HW2  580   0.753   1.787   0.938
  186SOL     OW  581   0.866   0.964   0.856
  186SOL    HW1  582   0.917   0.894   0.897
  186SOL    HW2  583   0.834   1.017   0.929
  187SOL     OW  584   1.098   1.018   0.100
  187SOL    HW1  585   1.065   1.057   0.019
  187SOL    HW2  586   1.165   0.956   0.071
  188SOL     OW  587   1.857   1.553   0.844
  188SOL    HW1  588   1.778   1.549   0.790
  188SOL    HW2  589   1.838   1.497   0.919
  189SOL     OW  590   0.227   1.304   1.856
  189SOL    HW1  591   0.173   1.229   1.830
  189SOL    HW2  592   0.211   1.314   1.950
  190SOL     OW  593   0.127   1.252   0.665
  190SOL    HW1  594   0.084   1.185   0.718
  190SOL    HW2  595   0.176   1.202   0.599
  191SOL     OW  596   0.682   1.401   1.619
  191SOL    HW1  597   0.605   1.354   1.649
  191SOL    HW2  598   0.678   1.485   1.663
  192SOL     OW  599   1.799   0.178   1.235
  192SOL    HW1  600   1.841   0.100   1.270
  192SOL    HW2  601   1.824   0.179   1.142
  193SOL     OW  602   0.452   0.437   0.540
  193SOL    HW1  603   0.456   0.369   0.473
  193SOL    HW2  604   0.409   0.394   0.615
  194SOL     OW  605   1.715   1.486   1.096
  194SOL    HW1  606   1.621   1.502   1.100
  194SOL    HW2  607   1.728   1.409   1.151
  195SOL     OW  608   0.331   0.553   1.290
  195SOL    HW1  609   0.387   0.500   1.347
  195SOL    HW2  610   0.353   0.525   1.201
  196SOL     OW  611   0.825   1.578   0.680
  196SOL    HW1  612   0.820   1.625   0.597
  196SOL    HW2  613   0.746   1.524   0.681
  197SOL     OW  614   1.428   0.215   1.128
  197SOL    HW1  615   1.450   0.145   1.189
  197SOL    HW2  616   1.379   0.278   1.180
  198SOL     OW  617   1.013   0.028   1.148
  198SOL    HW1  618   0.935   2.989   1.108
  198SOL    HW2  619   1.081   2.961   1.138
  199SOL     OW  620   0.765   1.329   0.313
  199SOL    HW1  621   0.734   1.240   0.330
  199SOL    HW2  622   0.851   1.333   0.354
  200SOL     OW  623   0.621   1.558   1.284
  200SOL    HW1  624   0.623   1.639   1.335
  200SOL    HW2  625   0.708   1.552   1.245
  201SOL     OW  626   1.357   0.056   0.170
  201SOL    HW1  627   1.413   2.984   0.142
  201SOL    HW2  628   1.268   0.026   0.155
  202SOL     OW  629   1.297   0.459   0.681
  202SOL    HW1  630   1.243   0.538   0.690
  202SOL    HW2  631   1.295   0.419   0.768
  203SOL     OW  632   1.605   0.231   0.886
  203SOL    HW1  633   1.526   0.229   0.940
  203SOL    HW2  634   1.595   0.307   0.830
  204SOL     OW  635   0.069   1.089   0.341
  204SOL    HW1  636   0.150   1.054   0.305
  204SOL    HW2  637   0.006   1.018   0.333
  205SOL     OW  638   0.881   1.651   0.345
  205SOL    HW1  639   0.811   1.630   0.284
  205SOL    HW2  640   0.848   1.726   0.395
  206SOL     OW  641   0.240   0.646   1.973
  206SOL    HW1  642   0.171   0.609   2.028
  206SOL    HW2  643   0.226   0.606   1.887
  207SOL     OW  644   0.236   0.248   2.849
  207SOL    HW1  645   0.252   0.234   2.943
  207SOL    HW2  646   0.141   0.237   2.840
  208SOL     OW  647   0.007   0.385   2.523
  208SOL    HW1  648   2.922   0.424   2.544
  208SOL    HW2  649   2.986   0.314   2.463
  209SOL     OW  650   1.557   1.508   2.567
  209SOL    HW1  651   1.510   1.492   2.648
  209SOL    HW2  652   1.489   1.516   2.500
  210SOL     OW  653   1.132   0.698   2.565
  210SOL    HW1  654   1.183   0.778   2.550
  210SOL    HW2  655   1.084   0.716   2.646
  211SOL     OW  656   1.766   0.605   2.093
  211SOL    HW1  657   1.746   0.600   2.000
  211SOL    HW2  658   1.730   0.524   2.130
  212SOL     OW  659   0.750   1.145   2.896
  212SOL    HW1  660   0.684   1.192   2.947
  212SOL    HW2  661   0.802   1.214   2.855
  213SOL     OW  662   0.684   1.008   2.510
  213SOL    HW1  663   0.749   0.993   2.579
  213SOL    HW2  664   0.614   1.057   2.553
  214SOL     OW  665   0.330   1.451   2.933
  214SOL    HW1  666   0.279   1.387   2.884
  214SOL    HW2  667   0.387   1.491   2.867
  215SOL     OW  668   1.615   0.456   2.593
  215SOL    HW1  669   1.541   0.480   2.538
  215SOL    HW2  670   1.617   0.522   2.662
  216SOL     OW  671   0.221   1.711   2.347
  216SOL    HW1  672   0.241   1.795   2.388
  216SOL    HW2  673   0.279   1.707   2.272
  217SOL     OW  674   0.250   1.446   2.389
  217SOL    HW1  675   0.217   1.536   2.387
  217SOL    HW2  676   0.188   1.399   2.444
  218SOL     OW  677   0.238   1.084   2.749
  218SOL    HW1  678   0.258   1.003   2.796
  218SOL    HW2  679   0.192   1.138   2.812
  219SOL     OW  680   0.587   0.981   1.995
  219SOL    HW1  681   0.630   1.031   1.926
  219SOL    HW2  682   0.630   1.009   2.076
  220SOL     OW  683   0.131   0.624   2.436
  220SOL    HW1  684   0.085   0.549   2.474
  220SOL    HW2  685   0.123   0.693   2.501
  221SOL     OW  686   1.831   1.771   2.218
  221SOL    HW1  687   1.902   1.736   2.272
  221SOL    HW2  688   1.866   1.852   2.183
  222SOL     OW  689   0.031   1.598   1.999
  222SOL    HW1  690   0.021   1.503   2.006
  222SOL    HW2  691   2.975   1.634   2.068
  223SOL     OW  692   1.688   0.916   2.497
  223SOL    HW1  693   1.774   0.880   2.476
  223SOL    HW2  694   1.666   0.970   2.421
  224SOL     OW  695   1.644   1.107   2.294
  224SOL    HW1  696   1.726   1.117   2.246
  224SOL    HW2  697   1.651   1.169   2.366
  225SOL     OW  698   0.609   1.380   2.593
  225SOL    HW1  699   0.562   1.297   2.602
  225SOL    HW2  700   0.593   1.407   2.503
  226SOL     OW  701   0.820   0.011   2.375
  226SOL    HW1  702   0.851   0.099   2.353
  226SOL    HW2  703   0.726   0.014   2.359
  227SOL     OW  704   1.535   0.982   2.063
  227SOL    HW1  705   1.462   0.930   2.096
  227SOL    HW2  706   1.572   1.023   2.141
  228SOL     OW  707   1.433   1.422   2.801
  228SOL    HW1  708   1.415   1.420   2.895
  228SOL    HW2  709   1.442   1.330   2.776
  229SOL     OW  710   1.651   1.738   2.447
  229SOL    HW1  711   1.643   1.710   2.356
  229SOL    HW2  712   1.631   1.659   2.498
  230SOL     OW  713   0.597   0.723   2.125
  230SOL    HW1  714   0.606   0.802   2.073
  230SOL    HW2  715   0.532   0.745   2.192
  231SOL     OW  716   1.294   0.335   2.809
  231SOL    HW1  717   1.200   0.324   2.801
  231SOL    HW2  718   1.316   0.298   2.894
  232SOL     OW  719   1.580   1.670   2.174
  232SOL    HW1  720   1.668   1.707   2.171
  232SOL    HW2  721   1.558   1.652   2.082
  233SOL     OW  722   1.048   0.698   2.290
  233SOL    HW1  723   1.064   0.691   2.384
  233SOL    HW2  724   0.966   0.651   2.275
  234SOL     OW  725   0.104   0.815   2.625
  234SOL    HW1  726   0.182   0.813   2.680
  234SOL    HW2  727   0.048   0.881   2.665
  235SOL     OW  728   0.871   0.353   2.045
  235SOL    HW1  729   0.930   0.414   2.001
  235SOL    HW2  730   0.912   0.267   2.031
  236SOL     OW  731   1.377   1.140   2.405
  236SOL    HW1  732   1.454   1.127   2.350
  236SOL    HW2  733   1.325   1.205   2.358
  237SOL     OW  734   0.557   0.197   2.836
  237SOL    HW1  735   0.510   0.273   2.871
  237SOL    HW2  736   0.576   0.220   2.745
  238SOL     OW  737   1.004   1.446   2.337
  238SOL    HW1  738   0.965   1.519   2.289
  238SOL    HW2  739   0.992   1.469   2.429
  239SOL     OW  740   0.353   1.801   2.714
  239SOL    HW1  741   0.400   1.719   2.728
  239SOL    HW2  742   0.416   1.869   2.738
  240SOL     OW  743   1.806   1.057   2.720
  240SOL    HW1  744   1.746   1.045   2.647
  240SOL    HW2  745   1.749   1.060   2.797
  241SOL     OW  746   0.316   0.949   2.107
  241SOL    HW1  747   0.398   0.976   2.067
  241SOL    HW2  748   0.296   0.864   2.067
  242SOL     OW  749   1.474   0.743   2.588
  242SOL    HW1  750   1.472   0.691   2.669
  242SOL    HW2  751   1.554   0.794   2.595
  243SOL     OW  752   1.112   1.789   2.105
  243SOL    HW1  753   1.044   1.741   2.152
  243SOL    HW2  754   1.143   1.726   2.039
  244SOL     OW  755   1.626   1.374   1.954
  244SOL    HW1  756   1.583   1.458   1.939
  244SOL    HW2  757   1.562   1.309   1.926
  245SOL     OW  758   0.466   1.740   2.182
  245SOL    HW1  759   0.507   1.795   2.249
  245SOL    HW2  760   0.539   1.711   2.127
  246SOL     OW  761   1.409   0.109   2.296
  246SOL    HW1  762   1.392   0.078   2.207
  246SOL    HW2  763   1.502   0.129   2.297
  247SOL     OW  764   0.264   1.799   0.099
  247SOL    HW1  765   0.301   1.728   0.152
  247SOL    HW2  766   0.204   1.755   0.039
  248SOL     OW  767   0.942   1.691   2.757
  248SOL    HW1  768   1.022   1.640   2.760
  248SOL    HW2  769   0.888   1.648   2.691
  249SOL     OW  770   0.393   0.693   2.337
  249SOL    HW1  771   0.425   0.604   2.352
  249SOL    HW2  772   0.300   0.689   2.361
  250SOL     OW  773   0.624   0.118   1.976
  250SOL    HW1  774   0.716   0.090   1.969
  250SOL    HW2  775   0.587   0.103   1.889
  251SOL     OW  776   0.804   1.400   2.791
  251SOL    HW1  777   0.891   1.392   2.752
  251SOL    HW2  778   0.744   1.394   2.717
  252SOL     OW  779   0.920   0.518   2.759
  252SOL    HW1  780   0.903   0.499   2.667
  252SOL    HW2  781   0.951   0.435   2.795
  253SOL     OW  782   0.545   0.061   2.369
  253SOL    HW1  783   0.456   0.044   2.401
  253SOL    HW2  784   0.533   0.130   2.303
  254SOL     OW  785   1.437   1.188   1.898
  254SOL    HW1  786   1.450   1.116   1.960
  254SOL    HW2  787   1.352   1.224   1.921
  255SOL     OW  788   0.291   0.035   2.051
  255SOL    HW1  789   0.343   0.109   2.022
  255SOL    HW2  790   0.355   2.971   2.083
  256SOL     OW  791   0.938   0.254   2.324
  256SOL    HW1  792   0.910   0.299   2.245
  256SOL    HW2  793   1.033   0.265   2.326
  257SOL     OW  794   1.219   1.585   2.670
  257SOL    HW1  795   1.244   1.642   2.597
  257SOL    HW2  796   1.301   1.567   2.716
  258SOL     OW  797   0.462   1.146   2.602
  258SOL    HW1  798   0.389   1.129   2.661
  258SOL    HW2  799   0.426   1.130   2.514
  259SOL     OW  800   1.271   1.796   2.466
  259SOL    HW1  801   1.316   1.857   2.408
  259SOL    HW2  802   1.207   1.850   2.513
  260SOL     OW  803   1.022   0.549   1.885
  260SOL    HW1  804   0.985   0.635   1.865
  260SOL    HW2  805   1.089   0.567   1.951
  261SOL     OW  806   0.872   0.466   2.498
  261SOL    HW1  807   0.824   0.515   2.431
  261SOL    HW2  808   0.887   0.380   2.458
  262SOL     OW  809   0.999   0.049   2.624
  262SOL    HW1  810   0.965   0.056   2.534
  262SOL    HW2  811   0.976   2.960   2.651
  263SOL     OW  812   1.439   1.159   2.713
  263SOL    HW1  813   1.364   1.100   2.703
  263SOL    HW2  814   1.468   1.176   2.623
  264SOL     OW  815   1.489   0.585   2.820
  264SOL    HW1  816   1.424   0.514   2.825
  264SOL    HW2  817   1.508   0.607   2.911
  265SOL     OW  818   1.849   0.816   2.246
  265SOL    HW1  819   1.907   0.762   2.300
  265SOL    HW2  820   1.818   0.758   2.177
  266SOL     OW  821   0.492   1.412   2.026
  266SOL    HW1  822   0.415   1.383   2.075
  266SOL    HW2  823   0.469   1.398   1.934
  267SOL     OW  824   1.668   1.263   2.515
  267SOL    HW1  825   1.763   1.270   2.522
  267SOL    HW2  826   1.636   1.352   2.531
  268SOL     OW  827   1.393   0.570   1.933
  268SOL    HW1  828   1.333   0.553   2.005
  268SOL    HW2  829   1.478   0.540   1.964
  269SOL     OW  830   0.525   0.263   2.183
  269SOL    HW1  831   0.565   0.211   2.113
  269SOL    HW2  832   0.508   0.348   2.143
  270SOL     OW  833   1.648   1.104   2.931
  270SOL    HW1  834   1.647   1.171   2.999
  270SOL    HW2  835   1.563   1.112   2.889
  271SOL     OW  836   0.708   1.060   2.234
  271SOL    HW1  837   0.695   1.046   2.328
  271SOL    HW2  838   0.784   1.007   2.212
  272SOL     OW  839   0.351   1.107   2.354
  272SOL    HW1  840   0.356   1.181   2.293
  272SOL    HW2  841   0.356   1.029   2.299
  273SOL     OW  842   0.545   0.546   2.731
  273SOL    HW1  843   0.566   0.593   2.651
  273SOL    HW2  844   0.617   0.568   2.791
  274SOL     OW  845   1.247   1.346   2.277
  274SOL    HW1  846   1.302   1.422   2.295
  274SOL    HW2  847   1.159   1.374   2.302
  275SOL     OW  848   1.585   0.626   2.339
  275SOL    HW1  849   1.539   0.684   2.400
  275SOL    HW2  850   1.627   0.686   2.277
  276SOL     OW  851   0.576   0.872   2.880
  276SOL    HW1  852   0.618   0.954   2.854
  276SOL    HW2  853   0.553   0.885   2.972
  277SOL     OW  854   1.210   0.533   2.133
  277SOL    HW1  855   1.214   0.452   2.184
  277SOL    HW2  856   1.166   0.596   2.190
  278SOL     OW  857   0.730   0.640   2.917
  278SOL    HW1  858   0.798   0.615   2.855
  278SOL    HW2  859   0.699   0.725   2.885
  279SOL     OW  860   0.307   0.069   2.504
  279SOL    HW1  861   0.302   0.155   2.546
  279SOL    HW2  862   0.282   0.007   2.572
  280SOL     OW  863   1.606   0.373   2.233
  280SOL    HW1  864   1.647   0.313   2.295
  280SOL    HW2  865   1.589   0.452   2.283
  281SOL     OW  866   1.020   0.763   2.819
  281SOL    HW1  867   1.024   0.770   2.914
  281SOL    HW2  868   0.995   0.672   2.803
  282SOL     OW  869   1.531   0.272   1.995
  282SOL    HW1  870   1.467   0.207   2.024
  282SOL    HW2  871   1.564   0.311   2.076
  283SOL     OW  872   1.293   0.826   1.897
  283SOL    HW1  873   1.337   0.741   1.899
  283SOL    HW2  874   1.327   0.869   1.818
  284SOL     OW  875   1.051   1.348   2.697
  284SOL    HW1  876   1.063   1.266   2.650
  284SOL    HW2  877   1.128   1.400   2.675
  285SOL     OW  878   0.311   0.811   2.812
  285SOL    HW1  879   0.404   0.831   2.810
  285SOL    HW2  880   0.306   0.721   2.845
  286SOL     OW  881   0.320   0.519   2.874
  286SOL    HW1  882   0.290   0.431   2.849
  286SOL    HW2  883   0.399   0.533   2.822
  287SOL     OW  884   2.994   1.319   2.039
  287SOL    HW1  885   2.901   1.324   2.018
  287SOL    HW2  886   0.002   1.238   2.091
  288SOL     OW  887   0.094   1.820   2.811
  288SOL    HW1  888   0.057   1.741   2.771
  288SOL    HW2  889   0.185   1.822   2.780
  289SOL     OW  890   0.504   1.574   2.762
  289SOL    HW1  891   0.573   1.635   2.785
  289SOL    HW2  892   0.547   1.507   2.709
  290SOL     OW  893   0.976   0.750   0.087
  290SOL    HW1  894   1.028   0.754   0.167
  290SOL    HW2  895   0.888   0.776   0.114
  291SOL     OW  896   0.814   0.568   2.217
  291SOL    HW1  897   0.817   0.495   2.155
  291SOL    HW2  898   0.741   0.622   2.187
  292SOL     OW  899   0.699   0.440   0.094
  292SOL    HW1  900   0.604   0.427   0.093
  292SOL    HW2  901   0.712   0.516   0.037
  293SOL     OW  902   0.466   0.494   2.049
  293SOL    HW1  903   0.528   0.565   2.067
  293SOL    HW2  904   0.381   0.538   2.041
  294SOL     OW  905   1.309   0.854   2.170
  294SOL    HW1  906   1.229   0.826   2.216
  294SOL    HW2  907   1.288   0.843   2.078
  295SOL     OW  908   1.736   1.768   2.972
  295SOL    HW1  909   1.813   1.789   2.918
  295SOL    HW2  910   1.762   1.691   0.022
  296SOL     OW  911   0.069   1.243   2.904
  296SOL    HW1  912   0.045   1.278   2.990
  296SOL    HW2  913   0.002   1.277   2.845
  297SOL     OW  914   1.723   0.144   2.369
  297SOL    HW1  915   1.784   0.138   2.295
  297SOL    HW2  916   1.731   0.060   2.414
  298SOL     OW  917   1.390   1.569   2.348
  298SOL    HW1  918   1.452   1.597   2.280
  298SOL    HW2  919   1.345   1.650   2.373
  299SOL     OW  920   1.276   0.926   2.532
  299SOL    HW1  921   1.349   0.864   2.538
  299SOL    HW2  922   1.311   0.998   2.480
  300SOL     OW  923   0.670   1.618   2.019
  300SOL    HW1  924   0.684   1.625   1.924
  300SOL    HW2  925   0.619   1.537   2.030
  301SOL     OW  926   1.851   0.162   2.816
  301SOL    HW1  927   1.850   0.077   2.774
  301SOL    HW2  928   1.766   0.200   2.795
  302SOL     OW  929   0.270   0.334   2.599
  302SOL    HW1  930   0.181   0.367   2.589
  302SOL    HW2  931   0.274   0.302   2.689
  303SOL     OW  932   1.207   1.623   1.920
  303SOL    HW1  933   1.217   1.528   1.921
  303SOL    HW2  934   1.173   1.643   1.832
  304SOL     OW  935   0.915   0.910   2.152
  304SOL    HW1  936   0.974   0.940   2.083
  304SOL    HW2  937   0.963   0.840   2.196
  305SOL     OW  938   1.495   1.633   1.909
  305SOL    HW1  939   1.402   1.612   1.904
  305SOL    HW2  940   1.527   1.620   1.819
  306SOL     OW  941   1.050   1.104   2.571
  306SOL    HW1  942   0.978   1.052   2.605
  306SOL    HW2  943   1.110   1.041   2.533
  307SOL     OW  944   1.015   0.246   2.810
  307SOL    HW1  945   1.010   0.182   2.740
  307SOL    HW2  946   1.044   0.196   2.887
  308SOL     OW  947   0.603   1.489   2.342
  308SOL    HW1  948   0.640   1.439   2.270
  308SOL    HW2  949   0.532   1.540   2.302
  309SOL     OW  950   0.253   1.345   2.144
  309SOL    HW1  951   0.159   1.344   2.128
  309SOL    HW2  952   0.263   1.384   2.231
  310SOL     OW  953   0.098   0.326   1.911
  310SOL    HW1  954   0.012   0.298   1.877
  310SOL    HW2  955   0.111   0.412   1.873
  311SOL     OW  956   0.018   0.216   2.145
  311SOL    HW1  957   0.064   0.262   2.075
  311SOL    HW2  958   0.076   0.142   2.167
  312SOL     OW  959   1.207   1.303   2.012
  312SOL    HW1  960   1.113   1.308   1.993
  312SOL    HW2  961   1.213   1.316   2.107
  313SOL     OW  962   1.504   1.780   2.831
  313SOL    HW1  963   1.518   1.830   2.750
  313SOL    HW2  964   1.586   1.789   2.879
  314SOL     OW  965   1.717   0.849   0.065
  314SOL    HW1  966   1.635   0.814   0.100
  314SOL    HW2  967   1.697   0.941   0.045
  315SOL     OW  968   1.222   0.317   2.318
  315SOL    HW1  969   1.285   0.244   2.317
  315SOL    HW2  970   1.246   0.368   2.395
  316SOL     OW  971   0.591   0.741   2.529
  316SOL    HW1  972   0.632   0.826   2.512
  316SOL    HW2  973   0.521   0.735   2.464
  317SOL     OW  974   0.840   1.381   1.886
  317SOL    HW1  975   0.816   1.378   1.978
  317SOL    HW2  976   0.908   1.448   1.881
  318SOL     OW  977   0.662   1.796   2.822
  318SOL    HW1  978   0.639   1.883   2.790
  318SOL    HW2  979   0.756   1.788   2.805
  319SOL     OW  980   0.861   0.964   2.716
  319SOL    HW1  981   0.914   0.894   2.755
  319SOL    HW2  982   0.833   1.017   2.791
  320SOL     OW  983   1.068   0.980   1.940
  320SOL    HW1  984   1.068   1.051   1.876
  320SOL    HW2  985   1.151   0.934   1.924
  321SOL     OW  986   1.854   1.558   2.713
  321SOL    HW1  987   1.781   1.545   2.653
  321SOL    HW2  988   1.861   1.476   2.761
  322SOL     OW  989   0.126   1.249   2.524
  322SOL    HW1  990   0.089   1.183   2.582
  322SOL    HW2  991   0.183   1.199   2.465
  323SOL     OW  992   1.819   0.188   0.086
  323SOL    HW1  993   1.831   0.099   0.119
  323SOL    HW2  994   1.829   0.181   2.992
  324SOL     OW  995   0.461   0.435   2.402
  324SOL    HW1  996   0.455   0.370   2.332
  324SOL    HW2  997   0.408   0.398   2.473
  325SOL     OW  998   0.819   1.584   2.539
  325SOL    HW1  999   0.817   1.625   2.452
  325SOL    HW2 1000   0.743   1.525   2.540
  326SOL     OW 1001   0.778   1.329   2.164
  326SOL    HW1 1002   0.741   1.242   2.177
  326SOL    HW2 1003   0.856   1.330   2.220
  327SOL     OW 1004   1.346   0.048   2.029
  327SOL    HW1 1005   1.411   2.987   1.993
  327SOL    HW2 1006   1.266   2.996   2.035
  328SOL     OW 1007   1.297   0.456   2.547
  328SOL    HW1 1008   1.244   0.535   2.555
  328SOL    HW2 1009   1.295   0.418   2.635
  329SOL     OW 1010   1.600   0.236   2.751
  329SOL    HW1 1011   1.508   0.230   2.779
  329SOL    HW2 1012   1.601   0.309   2.690
  330SOL     OW 1013   0.063   1.080   2.160
  330SOL    HW1 1014   0.152   1.045   2.163
  330SOL    HW2 1015   0.009   1.014   2.201
  331SOL     OW 1016   0.878   1.649   2.209
  331SOL    HW1 1017   0.808   1.632   2.147
  331SOL    HW2 1018   0.849   1.727   2.257
  332SOL     OW 1019   0.234   2.518   0.098
  332SOL    HW1 1020   0.169   2.471   0.150
  332SOL    HW2 1021   0.248   2.461   0.022
  333SOL     OW 1022   0.211   2.137   0.990
  333SOL    HW1 1023   0.246   2.108   1.075
  333SOL    HW2 1024   0.125   2.096   0.983
  334SOL     OW 1025   0.016   2.248   0.646
  334SOL    HW1 1026   2.929   2.283   0.669
  334SOL    HW2 1027   2.997   2.165   0.601
  335SOL     OW 1028   1.133   2.568   0.702
  335SOL    HW1 1029   1.179   2.652   0.694
  335SOL    HW2 1030   1.081   2.578   0.782
  336SOL     OW 1031   1.761   2.456   0.228
  336SOL    HW1 1032   1.746   2.434   0.136
  336SOL    HW2 1033   1.726   2.381   0.276
  337SOL     OW 1034   0.757   0.009   1.032
  337SOL    HW1 1035   0.679   0.046   1.073
  337SOL    HW2 1036   0.784   0.075   0.968
  338SOL     OW 1037   0.866   2.639   1.822
  338SOL    HW1 1038   0.845   2.704   1.889
  338SOL    HW2 1039   0.889   2.691   1.745
  339SOL     OW 1040   0.651   2.851   0.709
  339SOL    HW1 1041   0.745   2.853   0.725
  339SOL    HW2 1042   0.632   2.933   0.665
  340SOL     OW 1043   0.473   2.272   1.489
  340SOL    HW1 1044   0.542   2.206   1.492
  340SOL    HW2 1045   0.392   2.223   1.504
  341SOL     OW 1046   1.613   2.311   0.738
  341SOL    HW1 1047   1.536   2.336   0.688
  341SOL    HW2 1048   1.632   2.387   0.793
  342SOL     OW 1049   0.202   0.315   0.467
  342SOL    HW1 1050   0.235   0.383   0.526
  342SOL    HW2 1051   0.211   0.234   0.517
  343SOL     OW 1052   0.227   2.943   0.878
  343SOL    HW1 1053   0.259   2.862   0.917
  343SOL    HW2 1054   0.208   0.000   0.953
  344SOL     OW 1055   0.615   2.833   0.148
  344SOL    HW1 1056   0.601   2.925   0.126
  344SOL    HW2 1057   0.679   2.834   0.219
  345SOL     OW 1058   1.584   1.988   1.474
  345SOL    HW1 1059   1.588   2.063   1.415
  345SOL    HW2 1060   1.582   2.027   1.562
  346SOL     OW 1061   0.116   2.497   0.564
  346SOL    HW1 1062   0.095   2.411   0.601
  346SOL    HW2 1063   0.114   2.557   0.638
  347SOL     OW 1064   1.702   2.807   0.622
  347SOL    HW1 1065   1.778   2.750   0.634
  347SOL    HW2 1066   1.693   2.817   0.528
  348SOL     OW 1067   0.129   2.609   1.588
  348SOL    HW1 1068   0.223   2.621   1.596
  348SOL    HW2 1069   0.091   2.694   1.607
  349SOL     OW 1070   0.658   0.242   0.692
  349SOL    HW1 1071   0.595   0.172   0.710
  349SOL    HW2 1072   0.618   0.294   0.623
  350SOL     OW 1073   1.304   0.051   1.446
  350SOL    HW1 1074   1.327   2.994   1.372
  350SOL    HW2 1075   1.385   0.098   1.465
  351SOL     OW 1076   0.813   1.861   0.506
  351SOL    HW1 1077   0.852   1.947   0.492
  351SOL    HW2 1078   0.719   1.879   0.515
  352SOL     OW 1079   0.190   2.835   1.255
  352SOL    HW1 1080   0.274   2.790   1.248
  352SOL    HW2 1081   0.125   2.769   1.231
  353SOL     OW 1082   1.523   2.842   0.205
  353SOL    HW1 1083   1.452   2.797   0.250
  353SOL    HW2 1084   1.588   2.860   0.273
  354SOL     OW 1085   0.336   2.112   1.806
  354SOL    HW1 1086   0.383   2.192   1.826
  354SOL    HW2 1087   0.250   2.124   1.846
  355SOL     OW 1088   0.593   2.582   0.269
  355SOL    HW1 1089   0.596   2.662   0.217
  355SOL    HW2 1090   0.527   2.600   0.336
  356SOL     OW 1091   1.280   2.211   0.933
  356SOL    HW1 1092   1.191   2.176   0.940
  356SOL    HW2 1093   1.332   2.158   0.995
  357SOL     OW 1094   0.792   2.479   1.454
  357SOL    HW1 1095   0.765   2.456   1.543
  357SOL    HW2 1096   0.750   2.413   1.398
  358SOL     OW 1097   1.394   2.336   1.678
  358SOL    HW1 1098   1.395   2.380   1.763
  358SOL    HW2 1099   1.457   2.264   1.687
  359SOL     OW 1100   0.962   2.758   1.590
  359SOL    HW1 1101   1.013   2.687   1.553
  359SOL    HW2 1102   0.908   2.790   1.517
  360SOL     OW 1103   0.992   2.278   1.238
  360SOL    HW1 1104   0.908   2.297   1.280
  360SOL    HW2 1105   0.969   2.226   1.161
  361SOL     OW 1106   1.049   2.568   0.423
  361SOL    HW1 1107   1.063   2.560   0.518
  361SOL    HW2 1108   0.968   2.519   0.407
  362SOL     OW 1109   0.103   2.670   0.768
  362SOL    HW1 1110   0.180   2.673   0.824
  362SOL    HW2 1111   0.048   2.743   0.798
  363SOL     OW 1112   0.928   2.194   0.221
  363SOL    HW1 1113   0.935   2.256   0.149
  363SOL    HW2 1114   0.895   2.114   0.181
  364SOL     OW 1115   1.710   2.439   1.828
  364SOL    HW1 1116   1.673   2.514   1.781
  364SOL    HW2 1117   1.735   2.377   1.759
  365SOL     OW 1118   0.546   2.045   0.892
  365SOL    HW1 1119   0.551   2.072   0.984
  365SOL    HW2 1120   0.551   2.127   0.842
  366SOL     OW 1121   1.798   2.908   0.867
  366SOL    HW1 1122   1.742   2.892   0.791
  366SOL    HW2 1123   1.737   2.916   0.940
  367SOL     OW 1124   1.481   2.600   0.727
  367SOL    HW1 1125   1.460   2.548   0.805
  367SOL    HW2 1126   1.553   2.657   0.755
  368SOL     OW 1127   0.234   2.163   1.506
  368SOL    HW1 1128   0.153   2.208   1.482
  368SOL    HW2 1129   0.205   2.087   1.558
  369SOL     OW 1130   1.402   1.971   0.430
  369SOL    HW1 1131   1.393   1.948   0.337
  369SOL    HW2 1132   1.497   1.977   0.443
  370SOL     OW 1133   0.388   2.556   0.474
  370SOL    HW1 1134   0.412   2.464   0.484
  370SOL    HW2 1135   0.295   2.559   0.496
  371SOL     OW 1136   1.538   2.092   1.727
  371SOL    HW1 1137   1.546   2.112   1.820
  371SOL    HW2 1138   1.473   2.022   1.723
  372SOL     OW 1139   0.627   1.984   0.117
  372SOL    HW1 1140   0.720   1.963   0.118
  372SOL    HW2 1141   0.592   1.937   0.041
  373SOL     OW 1142   0.768   2.138   1.752
  373SOL    HW1 1143   0.840   2.076   1.759
  373SOL    HW2 1144   0.717   2.125   1.832
  374SOL     OW 1145   1.340   2.451   1.433
  374SOL    HW1 1146   1.371   2.417   1.517
  374SOL    HW2 1147   1.378   2.539   1.427
  375SOL     OW 1148   0.928   2.372   0.902
  375SOL    HW1 1149   0.904   2.362   0.810
  375SOL    HW2 1150   0.960   2.285   0.928
  376SOL     OW 1151   0.548   1.924   0.505
  376SOL    HW1 1152   0.466   1.926   0.555
  376SOL    HW2 1153   0.544   2.001   0.449
  377SOL     OW 1154   0.941   2.104   0.473
  377SOL    HW1 1155   0.918   2.142   0.388
  377SOL    HW2 1156   1.036   2.115   0.478
  378SOL     OW 1157   1.078   2.545   1.458
  378SOL    HW1 1158   1.008   2.481   1.467
  378SOL    HW2 1159   1.159   2.493   1.453
  379SOL     OW 1160   1.050   2.360   0.027
  379SOL    HW1 1161   1.001   2.441   0.017
  379SOL    HW2 1162   1.110   2.376   0.099
  380SOL     OW 1163   0.087   2.416   1.400
  380SOL    HW1 1164   0.172   2.421   1.356
  380SOL    HW2 1165   0.088   2.487   1.463
  381SOL     OW 1166   0.561   2.089   1.163
  381SOL    HW1 1167   0.599   2.009   1.199
  381SOL    HW2 1168   0.470   2.087   1.191
  382SOL     OW 1169   0.870   2.323   0.639
  382SOL    HW1 1170   0.821   2.376   0.577
  382SOL    HW2 1171   0.890   2.242   0.592
  383SOL     OW 1172   1.012   1.916   0.755
  383SOL    HW1 1173   0.955   1.906   0.679
  383SOL    HW2 1174   0.994   1.839   0.809
  384SOL     OW 1175   1.427   2.992   0.872
  384SOL    HW1 1176   1.360   2.936   0.833
  384SOL    HW2 1177   1.446   0.058   0.805
  385SOL     OW 1178   1.467   2.464   0.981
  385SOL    HW1 1179   1.420   2.380   0.985
  385SOL    HW2 1180   1.529   2.460   1.054
  386SOL     OW 1181   1.832   2.668   0.389
  386SOL    HW1 1182   1.894   2.619   0.443
  386SOL    HW2 1183   1.816   2.611   0.314
  387SOL     OW 1184   1.414   2.437   0.100
  387SOL    HW1 1185   1.341   2.428   0.162
  387SOL    HW2 1186   1.461   2.354   0.105
  388SOL     OW 1187   0.521   2.124   0.325
  388SOL    HW1 1188   0.557   2.073   0.253
  388SOL    HW2 1189   0.501   2.210   0.287
  389SOL     OW 1190   1.780   0.076   1.590
  389SOL    HW1 1191   1.869   0.042   1.578
  389SOL    HW2 1192   1.792   0.161   1.634
  390SOL     OW 1193   1.626   2.956   1.073
  390SOL    HW1 1194   1.637   0.038   1.121
  390SOL    HW2 1195   1.549   2.971   1.018
  391SOL     OW 1196   0.918   1.962   1.399
  391SOL    HW1 1197   0.941   1.941   1.308
  391SOL    HW2 1198   0.997   2.002   1.435
  392SOL     OW 1199   0.415   2.679   1.253
  392SOL    HW1 1200   0.485   2.685   1.318
  392SOL    HW2 1201   0.381   2.590   1.263
  393SOL     OW 1202   1.266   2.240   1.274
  393SOL    HW1 1203   1.299   2.317   1.320
  393SOL    HW2 1204   1.177   2.263   1.248
  394SOL     OW 1205   0.556   2.398   0.861
  394SOL    HW1 1206   0.572   2.453   0.785
  394SOL    HW2 1207   0.619   2.428   0.926
  395SOL     OW 1208   1.579   2.488   0.475
  395SOL    HW1 1209   1.540   2.543   0.542
  395SOL    HW2 1210   1.635   2.547   0.424
  396SOL     OW 1211   0.412   2.599   1.603
  396SOL    HW1 1212   0.470   2.648   1.544
  396SOL    HW2 1213   0.458   2.517   1.619
  397SOL     OW 1214   1.595   2.636   1.679
  397SOL    HW1 1215   1.509   2.676   1.671
  397SOL    HW2 1216   1.649   2.680   1.613
  398SOL     OW 1217   0.996   1.981   1.755
  398SOL    HW1 1218   1.046   2.057   1.725
  398SOL    HW2 1219   1.047   1.906   1.726
  399SOL     OW 1220   0.501   1.903   1.746
  399SOL    HW1 1221   0.459   1.848   1.680
  399SOL    HW2 1222   0.440   1.976   1.758
  400SOL     OW 1223   0.590   2.729   1.037
  400SOL    HW1 1224   0.600   2.822   1.016
  400SOL    HW2 1225   0.526   2.727   1.108
  401SOL     OW 1226   1.349   2.713   1.034
  401SOL    HW1 1227   1.281   2.706   0.968
  401SOL    HW2 1228   1.394   2.629   1.033
  402SOL     OW 1229   1.205   2.395   0.271
  402SOL    HW1 1230   1.211   2.311   0.316
  402SOL    HW2 1231   1.159   2.452   0.334
  403SOL     OW 1232   0.300   2.065   1.243
  403SOL    HW1 1233   0.281   2.095   1.332
  403SOL    HW2 1234   0.285   1.971   1.244
  404SOL     OW 1235   0.052   0.169   1.270
  404SOL    HW1 1236   0.085   0.136   1.353
  404SOL    HW2 1237   0.018   0.256   1.291
  405SOL     OW 1238   0.729   2.493   1.061
  405SOL    HW1 1239   0.799   2.476   0.998
  405SOL    HW2 1240   0.698   2.581   1.039
  406SOL     OW 1241   1.735   2.819   1.845
  406SOL    HW1 1242   1.687   2.761   1.786
  406SOL    HW2 1243   1.679   2.829   1.921
  407SOL     OW 1244   0.301   1.931   0.622
  407SOL    HW1 1245   0.285   2.022   0.649
  407SOL    HW2 1246   0.309   1.883   0.704
  408SOL     OW 1247   1.620   2.235   0.369
  408SOL    HW1 1248   1.643   2.169   0.434
  408SOL    HW2 1249   1.590   2.310   0.420
  409SOL     OW 1250   1.027   2.618   0.966
  409SOL    HW1 1251   1.028   2.632   1.061
  409SOL    HW2 1252   1.001   2.526   0.956
  410SOL     OW 1253   0.357   2.787   1.797
  410SOL    HW1 1254   0.420   2.784   1.869
  410SOL    HW2 1255   0.381   2.714   1.741
  411SOL     OW 1256   1.505   2.167   0.126
  411SOL    HW1 1257   1.468   2.079   0.138
  411SOL    HW2 1258   1.559   2.180   0.204
  412SOL     OW 1259   1.296   2.685   0.037
  412SOL    HW1 1260   1.336   2.599   0.049
  412SOL    HW2 1261   1.325   2.713   2.950
  413SOL     OW 1262   0.314   2.678   0.950
  413SOL    HW1 1263   0.408   2.686   0.937
  413SOL    HW2 1264   0.302   2.590   0.986
  414SOL     OW 1265   0.336   2.379   1.014
  414SOL    HW1 1266   0.295   2.295   0.993
  414SOL    HW2 1267   0.410   2.386   0.954
  415SOL     OW 1268   1.134   2.241   1.680
  415SOL    HW1 1269   1.089   2.296   1.744
  415SOL    HW2 1270   1.223   2.277   1.677
  416SOL     OW 1271   1.159   2.066   1.473
  416SOL    HW1 1272   1.150   2.131   1.542
  416SOL    HW2 1273   1.200   2.113   1.400
  417SOL     OW 1274   0.983   2.669   1.233
  417SOL    HW1 1275   1.037   2.638   1.305
  417SOL    HW2 1276   0.902   2.618   1.241
  418SOL     OW 1277   0.048   2.443   1.117
  418SOL    HW1 1278   0.120   2.394   1.077
  418SOL    HW2 1279   0.032   2.399   1.200
  419SOL     OW 1280   0.196   2.381   1.721
  419SOL    HW1 1281   0.265   2.352   1.661
  419SOL    HW2 1282   0.161   2.460   1.681
  420SOL     OW 1283   1.378   2.807   1.661
  420SOL    HW1 1284   1.402   2.900   1.658
  420SOL    HW2 1285   1.371   2.781   1.569
  421SOL     OW 1286   0.820   2.438   0.349
  421SOL    HW1 1287   0.819   2.360   0.293
  421SOL    HW2 1288   0.739   2.484   0.326
  422SOL     OW 1289   1.643   2.465   1.190
  422SOL    HW1 1290   1.632   2.403   1.262
  422SOL    HW2 1291   1.730   2.445   1.155
  423SOL     OW 1292   0.699   2.314   1.262
  423SOL    HW1 1293   0.646   2.240   1.231
  423SOL    HW2 1294   0.697   2.376   1.189
  424SOL     OW 1295   0.439   2.358   0.208
  424SOL    HW1 1296   0.512   2.419   0.220
  424SOL    HW2 1297   0.363   2.414   0.189
  425SOL     OW 1298   0.160   0.007   1.468
  425SOL    HW1 1299   0.149   2.955   1.547
  425SOL    HW2 1300   0.173   2.942   1.398
  426SOL     OW 1301   1.351   2.908   1.220
  426SOL    HW1 1302   1.366   2.845   1.150
  426SOL    HW2 1303   1.278   2.962   1.190
  427SOL     OW 1304   1.299   2.723   0.313
  427SOL    HW1 1305   1.229   2.677   0.358
  427SOL    HW2 1306   1.289   2.699   0.221
  428SOL     OW 1307   0.898   1.937   0.124
  428SOL    HW1 1308   0.955   1.922   0.049
  428SOL    HW2 1309   0.945   1.897   0.198
  429SOL     OW 1310   1.713   2.004   0.512
  429SOL    HW1 1311   1.793   1.994   0.460
  429SOL    HW2 1312   1.701   1.918   0.553
  430SOL     OW 1313   1.293   2.796   0.683
  430SOL    HW1 1314   1.360   2.727   0.681
  430SOL    HW2 1315   1.305   2.844   0.602
  431SOL     OW 1316   1.841   2.035   0.966
  431SOL    HW1 1317   1.869   1.948   0.940
  431SOL    HW2 1318   1.754   2.045   0.929
  432SOL     OW 1319   0.268   2.180   0.722
  432SOL    HW1 1320   0.184   2.217   0.695
  432SOL    HW2 1321   0.259   2.168   0.817
  433SOL     OW 1322   0.812   2.858   1.373
  433SOL    HW1 1323   0.869   2.835   1.300
  433SOL    HW2 1324   0.833   2.950   1.392
  434SOL     OW 1325   0.900   2.791   0.285
  434SOL    HW1 1326   0.980   2.818   0.240
  434SOL    HW2 1327   0.931   2.739   0.360
  435SOL     OW 1328   1.019   2.102   0.966
  435SOL    HW1 1329   1.014   2.054   0.883
  435SOL    HW2 1330   1.015   2.035   1.034
  436SOL     OW 1331   1.719   2.255   1.379
  436SOL    HW1 1332   1.792   2.317   1.378
  436SOL    HW2 1333   1.749   2.182   1.324
  437SOL     OW 1334   0.117   2.866   1.695
  437SOL    HW1 1335   0.048   2.844   1.757
  437SOL    HW2 1336   0.198   2.852   1.744
  438SOL     OW 1337   0.673   2.058   1.498
  438SOL    HW1 1338   0.758   2.040   1.456
  438SOL    HW2 1339   0.696   2.085   1.587
  439SOL     OW 1340   0.053   2.170   0.054
  439SOL    HW1 1341   2.967   2.200   0.026
  439SOL    HW2 1342   0.113   2.235   0.018
  440SOL     OW 1343   1.435   2.718   1.404
  440SOL    HW1 1344   1.392   2.777   1.342
  440SOL    HW2 1345   1.527   2.719   1.379
  441SOL     OW 1346   0.062   2.060   0.321
  441SOL    HW1 1347   0.050   2.099   0.234
  441SOL    HW2 1348   0.126   1.990   0.307
  442SOL     OW 1349   1.141   0.211   0.094
  442SOL    HW1 1350   1.069   0.253   0.143
  442SOL    HW2 1351   1.217   0.221   0.151
  443SOL     OW 1352   0.613   2.689   1.436
  443SOL    HW1 1353   0.670   2.764   1.419
  443SOL    HW2 1354   0.673   2.615   1.444
  444SOL     OW 1355   0.717   2.427   1.707
  444SOL    HW1 1356   0.755   2.491   1.767
  444SOL    HW2 1357   0.751   2.343   1.735
  445SOL     OW 1358   1.676   2.745   1.254
  445SOL    HW1 1359   1.666   2.658   1.216
  445SOL    HW2 1360   1.659   2.805   1.181
  446SOL     OW 1361   1.221   2.182   0.459
  446SOL    HW1 1362   1.285   2.111   0.448
  446SOL    HW2 1363   1.251   2.230   0.536
  447SOL     OW 1364   0.592   2.587   0.663
  447SOL    HW1 1365   0.617   2.680   0.672
  447SOL    HW2 1366   0.522   2.588   0.598
  448SOL     OW 1367   1.765   2.226   1.648
  448SOL    HW1 1368   1.746   2.237   1.555
  448SOL    HW2 1369   1.696   2.167   1.680
  449SOL     OW 1370   1.733   2.796   1.515
  449SOL    HW1 1371   1.750   2.889   1.534
  449SOL    HW2 1372   1.727   2.792   1.420
  450SOL     OW 1373   0.887   2.830   0.862
  450SOL    HW1 1374   0.924   2.749   0.898
  450SOL    HW2 1375   0.827   2.862   0.929
  451SOL     OW 1376   1.110   2.888   0.084
  451SOL    HW1 1377   1.062   2.887   0.001
  451SOL    HW2 1378   1.172   2.815   0.077
  452SOL     OW 1379   1.816   2.048   1.239
  452SOL    HW1 1380   1.814   1.954   1.256
  452SOL    HW2 1381   1.824   2.054   1.143
  453SOL     OW 1382   0.429   2.296   0.527
  453SOL    HW1 1383   0.460   2.225   0.470
  453SOL    HW2 1384   0.385   2.251   0.599
  454SOL     OW 1385   0.335   2.418   1.290
  454SOL    HW1 1386   0.393   2.363   1.342
  454SOL    HW2 1387   0.349   2.389   1.200
  455SOL     OW 1388   1.433   2.084   1.119
  455SOL    HW1 1389   1.454   2.001   1.161
  455SOL    HW2 1390   1.381   2.131   1.184
  456SOL     OW 1391   1.005   1.882   1.145
  456SOL    HW1 1392   0.951   1.817   1.101
  456SOL    HW2 1393   1.094   1.847   1.140
  457SOL     OW 1394   1.354   1.914   0.163
  457SOL    HW1 1395   1.380   1.864   0.086
  457SOL    HW2 1396   1.269   1.879   0.187
  458SOL     OW 1397   1.301   2.325   0.685
  458SOL    HW1 1398   1.243   2.400   0.693
  458SOL    HW2 1399   1.295   2.281   0.770
  459SOL     OW 1400   1.589   2.066   0.877
  459SOL    HW1 1401   1.525   2.082   0.946
  459SOL    HW2 1402   1.586   2.145   0.823
  460SOL     OW 1403   3.000   2.888   0.288
  460SOL    HW1 1404   0.085   2.914   0.252
  460SOL    HW2 1405   0.021   2.844   0.370
  461SOL     OW 1406   0.230   2.505   1.971
  461SOL    HW1 1407   0.165   2.459   2.024
  461SOL    HW2 1408   0.223   2.465   1.884
  462SOL     OW 1409   0.234   2.125   2.838
  462SOL    HW1 1410   0.270   2.101   2.923
  462SOL    HW2 1411   0.147   2.085   2.836
  463SOL     OW 1412   0.015   2.248   2.506
  463SOL    HW1 1413   2.929   2.282   2.531
  463SOL    HW2 1414   2.996   2.162   2.467
  464SOL     OW 1415   1.136   2.568   2.565
  464SOL    HW1 1416   1.182   2.651   2.556
  464SOL    HW2 1417   1.083   2.579   2.645
  465SOL     OW 1418   1.760   2.467   2.092
  465SOL    HW1 1419   1.744   2.458   1.998
  465SOL    HW2 1420   1.731   2.384   2.129
  466SOL     OW 1421   0.775   0.012   2.876
  466SOL    HW1 1422   0.683   0.030   2.896
  466SOL    HW2 1423   0.804   0.087   2.825
  467SOL     OW 1424   0.649   2.849   2.569
  467SOL    HW1 1425   0.743   2.849   2.590
  467SOL    HW2 1426   0.634   2.933   2.528
  468SOL     OW 1427   1.617   2.310   2.594
  468SOL    HW1 1428   1.540   2.335   2.542
  468SOL    HW2 1429   1.622   2.378   2.662
  469SOL     OW 1430   0.211   0.314   2.325
  469SOL    HW1 1431   0.222   0.386   2.387
  469SOL    HW2 1432   0.202   0.236   2.380
  470SOL     OW 1433   0.232   2.945   2.743
  470SOL    HW1 1434   0.258   2.861   2.779
  470SOL    HW2 1435   0.210   2.999   2.819
  471SOL     OW 1436   0.606   2.824   1.993
  471SOL    HW1 1437   0.597   2.908   1.948
  471SOL    HW2 1438   0.667   2.841   2.064
  472SOL     OW 1439   0.121   2.495   2.425
  472SOL    HW1 1440   0.096   2.411   2.464
  472SOL    HW2 1441   0.119   2.557   2.498
  473SOL     OW 1442   1.701   2.806   2.484
  473SOL    HW1 1443   1.778   2.751   2.496
  473SOL    HW2 1444   1.693   2.816   2.389
  474SOL     OW 1445   0.623   0.241   2.574
  474SOL    HW1 1446   0.593   0.157   2.538
  474SOL    HW2 1447   0.616   0.302   2.500
  475SOL     OW 1448   0.812   1.861   2.367
  475SOL    HW1 1449   0.853   1.946   2.351
  475SOL    HW2 1450   0.719   1.881   2.379
  476SOL     OW 1451   0.211   2.806   0.107
  476SOL    HW1 1452   0.278   2.737   0.101
  476SOL    HW2 1453   0.128   2.760   0.092
  477SOL     OW 1454   1.537   2.841   2.046
  477SOL    HW1 1455   1.469   2.787   2.086
  477SOL    HW2 1456   1.592   2.869   2.119
  478SOL     OW 1457   0.596   2.579   2.127
  478SOL    HW1 1458   0.602   2.658   2.073
  478SOL    HW2 1459   0.531   2.601   2.195
  479SOL     OW 1460   1.297   2.199   2.809
  479SOL    HW1 1461   1.204   2.181   2.801
  479SOL    HW2 1462   1.322   2.164   2.894
  480SOL     OW 1463   1.051   2.563   2.289
  480SOL    HW1 1464   1.063   2.557   2.384
  480SOL    HW2 1465   0.969   2.517   2.272
  481SOL     OW 1466   0.106   2.671   2.626
  481SOL    HW1 1467   0.182   2.673   2.684
  481SOL    HW2 1468   0.047   2.738   2.661
  482SOL     OW 1469   0.886   2.208   2.056
  482SOL    HW1 1470   0.930   2.269   1.996
  482SOL    HW2 1471   0.907   2.121   2.020
  483SOL     OW 1472   0.552   2.047   2.766
  483SOL    HW1 1473   0.518   2.082   2.849
  483SOL    HW2 1474   0.559   2.124   2.709
  484SOL     OW 1475   1.799   2.910   2.729
  484SOL    HW1 1476   1.741   2.891   2.655
  484SOL    HW2 1477   1.740   2.913   2.804
  485SOL     OW 1478   1.480   2.604   2.586
  485SOL    HW1 1479   1.465   2.547   2.662
  485SOL    HW2 1480   1.557   2.656   2.609
  486SOL     OW 1481   1.401   1.971   2.292
  486SOL    HW1 1482   1.390   1.945   2.201
  486SOL    HW2 1483   1.496   1.975   2.305
  487SOL     OW 1484   0.395   2.555   2.336
  487SOL    HW1 1485   0.412   2.462   2.350
  487SOL    HW2 1486   0.302   2.565   2.356
  488SOL     OW 1487   0.629   1.988   1.968
  488SOL    HW1 1488   0.704   1.929   1.980
  488SOL    HW2 1489   0.584   1.954   1.892
  489SOL     OW 1490   0.922   2.381   2.757
  489SOL    HW1 1491   0.902   2.358   2.666
  489SOL    HW2 1492   0.958   2.300   2.794
  490SOL     OW 1493   0.549   1.925   2.367
  490SOL    HW1 1494   0.467   1.926   2.417
  490SOL    HW2 1495   0.543   2.003   2.312
  491SOL     OW 1496   0.291   1.905   2.042
  491SOL    HW1 1497   0.350   1.974   2.013
  491SOL    HW2 1498   0.347   1.841   2.085
  492SOL     OW 1499   0.936   2.105   2.325
  492SOL    HW1 1500   0.908   2.149   2.244
  492SOL    HW2 1501   1.031   2.118   2.326
  493SOL     OW 1502   1.026   2.407   1.881
  493SOL    HW1 1503   0.982   2.490   1.862
  493SOL    HW2 1504   1.089   2.429   1.950
  494SOL     OW 1505   0.869   2.319   2.499
  494SOL    HW1 1506   0.822   2.375   2.438
  494SOL    HW2 1507   0.888   2.239   2.449
  495SOL     OW 1508   1.011   1.912   2.613
  495SOL    HW1 1509   0.955   1.904   2.536
  495SOL    HW2 1510   0.992   1.833   2.665
  496SOL     OW 1511   1.422   2.998   2.736
  496SOL    HW1 1512   1.355   2.941   2.698
  496SOL    HW2 1513   1.448   0.056   2.665
  497SOL     OW 1514   1.486   2.449   2.819
  497SOL    HW1 1515   1.423   2.377   2.827
  497SOL    HW2 1516   1.509   2.469   2.910
  498SOL     OW 1517   1.837   2.668   2.253
  498SOL    HW1 1518   1.898   2.618   2.308
  498SOL    HW2 1519   1.815   2.608   2.181
  499SOL     OW 1520   1.394   2.435   1.934
  499SOL    HW1 1521   1.335   2.413   2.006
  499SOL    HW2 1522   1.479   2.400   1.962
  500SOL     OW 1523   0.527   2.124   2.182
  500SOL    HW1 1524   0.567   2.075   2.111
  500SOL    HW2 1525   0.508   2.210   2.145
  501SOL     OW 1526   1.625   2.966   2.935
  501SOL    HW1 1527   1.628   0.044   2.990
  501SOL    HW2 1528   1.550   2.981   2.877
  502SOL     OW 1529   0.553   2.396   2.726
  502SOL    HW1 1530   0.568   2.451   2.649
  502SOL    HW2 1531   0.615   2.428   2.791
  503SOL     OW 1532   1.578   2.486   2.336
  503SOL    HW1 1533   1.540   2.544   2.401
  503SOL    HW2 1534   1.633   2.543   2.282
  504SOL     OW 1535   0.575   2.727   2.884
  504SOL    HW1 1536   0.615   2.807   2.851
  504SOL    HW2 1537   0.562   2.743   2.978
  505SOL     OW 1538   1.207   2.392   2.132
  505SOL    HW1 1539   1.216   2.313   2.185
  505SOL    HW2 1540   1.162   2.454   2.189
  506SOL     OW 1541   0.327   2.062   0.080
  506SOL    HW1 1542   0.316   2.104   0.165
  506SOL    HW2 1543   0.304   1.970   0.094
  507SOL     OW 1544   0.730   2.500   2.915
  507SOL    HW1 1545   0.797   2.478   2.850
  507SOL    HW2 1546   0.696   2.585   2.885
  508SOL     OW 1547   0.303   1.931   2.483
  508SOL    HW1 1548   0.285   2.021   2.509
  508SOL    HW2 1549   0.307   1.882   2.565
  509SOL     OW 1550   1.613   2.233   2.231
  509SOL    HW1 1551   1.643   2.170   2.297
  509SOL    HW2 1552   1.591   2.311   2.281
  510SOL     OW 1553   1.024   2.621   2.822
  510SOL    HW1 1554   1.027   2.626   2.918
  510SOL    HW2 1555   0.996   2.531   2.804
  511SOL     OW 1556   1.528   2.138   1.990
  511SOL    HW1 1557   1.466   2.070   2.016
  511SOL    HW2 1558   1.563   2.172   2.072
  512SOL     OW 1559   1.293   2.687   1.895
  512SOL    HW1 1560   1.335   2.601   1.900
  512SOL    HW2 1561   1.325   2.725   1.813
  513SOL     OW 1562   0.311   2.676   2.811
  513SOL    HW1 1563   0.405   2.691   2.811
  513SOL    HW2 1564   0.301   2.586   2.844
  514SOL     OW 1565   0.321   2.386   2.867
  514SOL    HW1 1566   0.290   2.297   2.852
  514SOL    HW2 1567   0.401   2.393   2.815
  515SOL     OW 1568   0.983   2.615   0.089
  515SOL    HW1 1569   1.027   2.605   0.173
  515SOL    HW2 1570   0.893   2.636   0.111
  516SOL     OW 1571   0.817   2.431   2.217
  516SOL    HW1 1572   0.817   2.356   2.157
  516SOL    HW2 1573   0.742   2.483   2.189
  517SOL     OW 1574   0.703   2.312   0.104
  517SOL    HW1 1575   0.620   2.266   0.089
  517SOL    HW2 1576   0.704   2.382   0.039
  518SOL     OW 1577   0.464   2.355   2.048
  518SOL    HW1 1578   0.527   2.425   2.069
  518SOL    HW2 1579   0.379   2.400   2.045
  519SOL     OW 1580   1.303   2.726   2.171
  519SOL    HW1 1581   1.230   2.684   2.218
  519SOL    HW2 1582   1.287   2.703   2.079
  520SOL     OW 1583   1.718   2.006   2.375
  520SOL    HW1 1584   1.790   1.990   2.314
  520SOL    HW2 1585   1.702   1.920   2.415
  521SOL     OW 1586   1.294   2.799   2.545
  521SOL    HW1 1587   1.359   2.729   2.545
  521SOL    HW2 1588   1.306   2.843   2.460
  522SOL     OW 1589   1.840   2.041   2.822
  522SOL    HW1 1590   1.870   1.953   2.798
  522SOL    HW2 1591   1.751   2.046   2.789
  523SOL     OW 1592   0.270   2.181   2.577
  523SOL    HW1 1593   0.185   2.218   2.554
  523SOL    HW2 1594   0.265   2.167   2.672
  524SOL     OW 1595   0.903   2.760   2.114
  524SOL    HW1 1596   0.979   2.809   2.081
  524SOL    HW2 1597   0.937   2.711   2.189
  525SOL     OW 1598   1.034   2.106   2.806
  525SOL    HW1 1599   1.022   2.051   2.729
  525SOL    HW2 1600   1.007   2.051   2.880
  526SOL     OW 1601   0.093   2.181   1.918
  526SOL    HW1 1602   0.010   2.151   1.880
  526SOL    HW2 1603   0.105   2.269   1.881
  527SOL     OW 1604   0.065   2.060   2.177
  527SOL    HW1 1605   0.071   2.106   2.094
  527SOL    HW2 1606   0.132   1.991   2.170
  528SOL     OW 1607   1.126   0.240   2.005
  528SOL    HW1 1608   1.105   0.158   1.961
  528SOL    HW2 1609   1.211   0.224   2.047
  529SOL     OW 1610   1.730   2.713   0.054
  529SOL    HW1 1611   1.659   2.666   0.096
  529SOL    HW2 1612   1.697   2.802   0.041
  530SOL     OW 1613   1.219   2.182   2.319
  530SOL    HW1 1614   1.282   2.111   2.309
  530SOL    HW2 1615   1.248   2.229   2.397
  531SOL     OW 1616   0.594   2.585   2.526
  531SOL    HW1 1617   0.618   2.677   2.535
  531SOL    HW2 1618   0.525   2.585   2.460
  532SOL     OW 1619   0.882   2.824   2.716
  532SOL    HW1 1620   0.926   2.749   2.757
  532SOL    HW2 1621   0.845   2.873   2.789
  533SOL     OW 1622   1.104   2.875   1.953
  533SOL    HW1 1623   1.062   2.899   1.871
  533SOL    HW2 1624   1.160   2.800   1.930
  534SOL     OW 1625   1.825   2.051   0.096
  534SOL    HW1 1626   1.794   1.960   0.103
  534SOL    HW2 1627   1.831   2.067   0.002
  535SOL     OW 1628   0.426   2.294   2.382
  535SOL    HW1 1629   0.459   2.220   2.329
  535SOL    HW2 1630   0.382   2.252   2.456
  536SOL     OW 1631   1.351   1.916   2.026
  536SOL    HW1 1632   1.382   1.848   1.966
  536SOL    HW2 1633   1.264   1.887   2.052
  537SOL     OW 1634   1.298   2.320   2.548
  537SOL    HW1 1635   1.243   2.398   2.557
  537SOL    HW2 1636   1.297   2.280   2.636
  538SOL     OW 1637   1.583   2.075   2.739
  538SOL    HW1 1638   1.499   2.094   2.781
  538SOL    HW2 1639   1.597   2.147   2.678
  539SOL     OW 1640   0.018   2.932   2.155
  539SOL    HW1 1641   0.113   2.925   2.141
  539SOL    HW2 1642   0.001   2.873   2.228
  540SOL     OW 1643   2.092   0.633   0.122
  540SOL    HW1 1644   1.998   0.630   0.137
  540SOL    HW2 1645   2.103   0.603   0.032
  541SOL     OW 1646   2.081   0.283   1.009
  541SOL    HW1 1647   2.109   0.249   1.094
  541SOL    HW2 1648   1.995   0.242   0.994
  542SOL     OW 1649   1.864   0.380   0.642
  542SOL    HW1 1650   1.783   0.408   0.685
  542SOL    HW2 1651   1.838   0.304   0.591
  543SOL     OW 1652   2.427   1.281   1.169
  543SOL    HW1 1653   2.338   1.287   1.134
  543SOL    HW2 1654   2.444   1.366   1.209
  544SOL     OW 1655   2.618   1.143   1.034
  544SOL    HW1 1656   2.550   1.176   1.092
  544SOL    HW2 1657   2.657   1.222   0.995
  545SOL     OW 1658   2.719   0.778   1.817
  545SOL    HW1 1659   2.708   0.847   1.883
  545SOL    HW2 1660   2.745   0.825   1.738
  546SOL     OW 1661   2.546   1.003   0.651
  546SOL    HW1 1662   2.607   0.991   0.723
  546SOL    HW2 1663   2.476   1.056   0.688
  547SOL     OW 1664   2.569   1.154   1.809
  547SOL    HW1 1665   2.615   1.234   1.833
  547SOL    HW2 1666   2.484   1.184   1.776
  548SOL     OW 1667   2.190   1.428   1.064
  548SOL    HW1 1668   2.120   1.393   1.009
  548SOL    HW2 1669   2.244   1.480   1.005
  549SOL     OW 1670   2.313   0.400   1.483
  549SOL    HW1 1671   2.387   0.339   1.493
  549SOL    HW2 1672   2.236   0.347   1.503
  550SOL     OW 1673   2.083   1.714   0.473
  550SOL    HW1 1674   2.105   1.790   0.527
  550SOL    HW2 1675   2.158   1.705   0.414
  551SOL     OW 1676   2.983   1.345   1.686
  551SOL    HW1 1677   0.026   1.350   1.772
  551SOL    HW2 1678   2.935   1.262   1.688
  552SOL     OW 1679   2.085   1.441   0.535
  552SOL    HW1 1680   2.073   1.536   0.542
  552SOL    HW2 1681   2.025   1.405   0.600
  553SOL     OW 1682   2.117   1.089   0.889
  553SOL    HW1 1683   2.112   1.004   0.933
  553SOL    HW2 1684   2.059   1.146   0.941
  554SOL     OW 1685   2.476   1.787   1.436
  554SOL    HW1 1686   2.393   1.769   1.480
  554SOL    HW2 1687   2.494   1.879   1.457
  555SOL     OW 1688   2.455   0.977   0.145
  555SOL    HW1 1689   2.480   1.049   0.086
  555SOL    HW2 1690   2.489   1.003   0.230
  556SOL     OW 1691   1.982   0.642   0.564
  556SOL    HW1 1692   1.934   0.563   0.588
  556SOL    HW2 1693   1.973   0.701   0.639
  557SOL     OW 1694   1.877   1.590   0.120
  557SOL    HW1 1695   1.889   1.499   0.149
  557SOL    HW2 1696   1.878   1.640   0.202
  558SOL     OW 1697   1.986   0.743   1.584
  558SOL    HW1 1698   2.078   0.760   1.600
  558SOL    HW2 1699   1.941   0.825   1.605
  559SOL     OW 1700   2.474   1.382   0.735
  559SOL    HW1 1701   2.427   1.299   0.743
  559SOL    HW2 1702   2.457   1.410   0.645
  560SOL     OW 1703   2.690   0.023   0.525
  560SOL    HW1 1704   2.699   0.113   0.491
  560SOL    HW2 1705   2.599   0.000   0.508
  561SOL     OW 1706   2.054   0.969   1.265
  561SOL    HW1 1707   2.138   0.925   1.251
  561SOL    HW2 1708   1.989   0.909   1.230
  562SOL     OW 1709   2.188   0.254   1.801
  562SOL    HW1 1710   2.236   0.333   1.825
  562SOL    HW2 1711   2.101   0.266   1.839
  563SOL     OW 1712   2.460   0.723   0.272
  563SOL    HW1 1713   2.465   0.802   0.218
  563SOL    HW2 1714   2.391   0.743   0.336
  564SOL     OW 1715   2.656   0.627   1.452
  564SOL    HW1 1716   2.631   0.602   1.541
  564SOL    HW2 1717   2.617   0.560   1.396
  565SOL     OW 1718   2.830   0.883   1.574
  565SOL    HW1 1719   2.856   0.797   1.542
  565SOL    HW2 1720   2.782   0.923   1.501
  566SOL     OW 1721   2.843   0.375   1.263
  566SOL    HW1 1722   2.771   0.429   1.295
  566SOL    HW2 1723   2.833   0.376   1.168
  567SOL     OW 1724   2.886   0.717   0.407
  567SOL    HW1 1725   2.938   0.702   0.487
  567SOL    HW2 1726   2.816   0.652   0.412
  568SOL     OW 1727   1.953   0.820   0.772
  568SOL    HW1 1728   2.033   0.814   0.824
  568SOL    HW2 1729   1.907   0.896   0.808
  569SOL     OW 1730   2.013   1.894   1.598
  569SOL    HW1 1731   2.007   1.861   1.688
  569SOL    HW2 1732   1.930   1.867   1.557
  570SOL     OW 1733   2.779   0.342   0.220
  570SOL    HW1 1734   2.779   0.396   0.142
  570SOL    HW2 1735   2.773   0.252   0.188
  571SOL     OW 1736   2.404   0.198   0.903
  571SOL    HW1 1737   2.400   0.205   0.999
  571SOL    HW2 1738   2.384   0.286   0.871
  572SOL     OW 1739   2.861   1.441   0.470
  572SOL    HW1 1740   2.828   1.517   0.422
  572SOL    HW2 1741   2.860   1.467   0.562
  573SOL     OW 1742   2.216   1.806   0.856
  573SOL    HW1 1743   2.260   1.721   0.867
  573SOL    HW2 1744   2.284   1.871   0.876
  574SOL     OW 1745   2.182   0.951   0.247
  574SOL    HW1 1746   2.263   0.970   0.199
  574SOL    HW2 1747   2.151   0.868   0.209
  575SOL     OW 1748   2.326   1.260   1.736
  575SOL    HW1 1749   2.295   1.268   1.646
  575SOL    HW2 1750   2.246   1.257   1.789
  576SOL     OW 1751   2.063   0.295   1.499
  576SOL    HW1 1752   1.979   0.342   1.499
  576SOL    HW2 1753   2.052   0.226   1.564
  577SOL     OW 1754   2.329   1.724   0.334
  577SOL    HW1 1755   2.362   1.793   0.391
  577SOL    HW2 1756   2.395   1.716   0.265
  578SOL     OW 1757   2.127   1.796   1.232
  578SOL    HW1 1758   2.160   1.723   1.284
  578SOL    HW2 1759   2.098   1.755   1.150
  579SOL     OW 1760   2.801   1.696   0.899
  579SOL    HW1 1761   2.863   1.628   0.928
  579SOL    HW2 1762   2.752   1.654   0.828
  580SOL     OW 1763   2.255   0.691   0.479
  580SOL    HW1 1764   2.280   0.599   0.488
  580SOL    HW2 1765   2.162   0.692   0.499
  581SOL     OW 1766   2.474   0.112   0.108
  581SOL    HW1 1767   2.569   0.111   0.119
  581SOL    HW2 1768   2.460   0.140   0.018
  582SOL     OW 1769   2.633   0.276   1.752
  582SOL    HW1 1770   2.701   0.211   1.768
  582SOL    HW2 1771   2.579   0.274   1.831
  583SOL     OW 1772   2.742   1.518   1.193
  583SOL    HW1 1773   2.720   1.483   1.107
  583SOL    HW2 1774   2.804   1.455   1.230
  584SOL     OW 1775   2.669   1.402   0.938
  584SOL    HW1 1776   2.753   1.390   0.894
  584SOL    HW2 1777   2.604   1.398   0.868
  585SOL     OW 1778   2.798   0.500   0.898
  585SOL    HW1 1779   2.728   0.467   0.842
  585SOL    HW2 1780   2.835   0.422   0.939
  586SOL     OW 1781   2.406   0.055   0.500
  586SOL    HW1 1782   2.321   0.041   0.541
  586SOL    HW2 1783   2.392   0.129   0.441
  587SOL     OW 1784   0.318   1.152   0.043
  587SOL    HW1 1785   0.311   1.100   0.123
  587SOL    HW2 1786   0.253   1.221   0.054
  588SOL     OW 1787   2.161   0.085   0.195
  588SOL    HW1 1788   2.247   0.123   0.180
  588SOL    HW2 1789   2.176   2.991   0.198
  589SOL     OW 1790   2.801   0.276   0.470
  589SOL    HW1 1791   2.788   0.305   0.380
  589SOL    HW2 1792   2.876   0.217   0.466
  590SOL     OW 1793   0.084   1.581   0.797
  590SOL    HW1 1794   0.110   1.620   0.714
  590SOL    HW2 1795   0.166   1.554   0.837
  591SOL     OW 1796   2.329   1.146   0.735
  591SOL    HW1 1797   2.259   1.129   0.797
  591SOL    HW2 1798   2.289   1.131   0.649
  592SOL     OW 1799   2.887   0.504   0.027
  592SOL    HW1 1800   2.840   0.584   0.005
  592SOL    HW2 1801   2.942   0.528   0.102
  593SOL     OW 1802   1.937   0.557   1.390
  593SOL    HW1 1803   2.029   0.554   1.364
  593SOL    HW2 1804   1.933   0.627   1.455
  594SOL     OW 1805   2.425   0.213   1.178
  594SOL    HW1 1806   2.463   0.168   1.253
  594SOL    HW2 1807   2.333   0.225   1.200
  595SOL     OW 1808   2.856   0.058   0.752
  595SOL    HW1 1809   2.815   0.048   0.666
  595SOL    HW2 1810   2.839   2.975   0.796
  596SOL     OW 1811   2.353   1.401   0.152
  596SOL    HW1 1812   2.287   1.373   0.215
  596SOL    HW2 1813   2.306   1.409   0.069
  597SOL     OW 1814   2.406   0.269   0.325
  597SOL    HW1 1815   2.434   0.213   0.253
  597SOL    HW2 1816   2.367   0.345   0.283
  598SOL     OW 1817   2.780   0.111   1.398
  598SOL    HW1 1818   2.808   0.103   1.307
  598SOL    HW2 1819   2.842   0.173   1.437
  599SOL     OW 1820   2.841   1.110   1.730
  599SOL    HW1 1821   2.748   1.132   1.741
  599SOL    HW2 1822   2.841   1.042   1.662
  600SOL     OW 1823   2.562   1.063   0.379
  600SOL    HW1 1824   2.548   1.049   0.473
  600SOL    HW2 1825   2.645   1.020   0.360
  601SOL     OW 1826   2.278   0.812   1.249
  601SOL    HW1 1827   2.346   0.825   1.316
  601SOL    HW2 1828   2.242   0.725   1.269
  602SOL     OW 1829   2.217   1.107   0.489
  602SOL    HW1 1830   2.214   1.184   0.431
  602SOL    HW2 1831   2.213   1.032   0.430
  603SOL     OW 1832   2.431   0.536   0.854
  603SOL    HW1 1833   2.437   0.604   0.787
  603SOL    HW2 1834   2.481   0.570   0.928
  604SOL     OW 1835   2.214   1.513   1.315
  604SOL    HW1 1836   2.203   1.480   1.226
  604SOL    HW2 1837   2.308   1.532   1.322
  605SOL     OW 1838   2.275   0.744   1.601
  605SOL    HW1 1839   2.335   0.792   1.543
  605SOL    HW2 1840   2.319   0.661   1.618
  606SOL     OW 1841   2.867   0.117   1.761
  606SOL    HW1 1842   2.901   0.192   1.712
  606SOL    HW2 1843   2.903   0.040   1.717
  607SOL     OW 1844   2.366   0.056   1.746
  607SOL    HW1 1845   2.329   2.986   1.693
  607SOL    HW2 1846   2.295   0.119   1.757
  608SOL     OW 1847   2.442   0.872   1.031
  608SOL    HW1 1848   2.474   0.962   1.027
  608SOL    HW2 1849   2.387   0.870   1.109
  609SOL     OW 1850   0.064   0.529   0.271
  609SOL    HW1 1851   0.089   0.447   0.313
  609SOL    HW2 1852   0.047   0.589   0.344
  610SOL     OW 1853   2.160   0.198   1.253
  610SOL    HW1 1854   2.130   0.240   1.333
  610SOL    HW2 1855   2.137   0.106   1.264
  611SOL     OW 1856   1.907   1.314   1.272
  611SOL    HW1 1857   1.942   1.250   1.334
  611SOL    HW2 1858   1.969   1.386   1.274
  612SOL     OW 1859   2.587   0.635   1.055
  612SOL    HW1 1860   2.672   0.633   1.010
  612SOL    HW2 1861   2.556   0.725   1.046
  613SOL     OW 1862   2.173   0.058   0.640
  613SOL    HW1 1863   2.163   0.150   0.664
  613SOL    HW2 1864   2.154   0.010   0.721
  614SOL     OW 1865   2.863   0.767   0.975
  614SOL    HW1 1866   2.891   0.778   1.066
  614SOL    HW2 1867   2.882   0.676   0.955
  615SOL     OW 1868   2.834   1.569   1.703
  615SOL    HW1 1869   2.827   1.609   1.617
  615SOL    HW2 1870   2.890   1.492   1.690
  616SOL     OW 1871   2.214   0.910   1.813
  616SOL    HW1 1872   2.297   0.939   1.850
  616SOL    HW2 1873   2.239   0.852   1.741
  617SOL     OW 1874   2.907   1.345   0.834
  617SOL    HW1 1875   2.912   1.267   0.779
  617SOL    HW2 1876   2.980   1.400   0.805
  618SOL     OW 1877   2.173   0.808   0.946
  618SOL    HW1 1878   2.265   0.835   0.947
  618SOL    HW2 1879   2.173   0.721   0.986
  619SOL     OW 1880   2.207   0.522   1.013
  619SOL    HW1 1881   2.162   0.438   0.998
  619SOL    HW2 1882   2.275   0.525   0.946
  620SOL     OW 1883   2.966   0.367   1.664
  620SOL    HW1 1884   2.908   0.430   1.707
  620SOL    HW2 1885   0.053   0.407   1.670
  621SOL     OW 1886   1.873   1.320   0.185
  621SOL    HW1 1887   1.782   1.334   0.159
  621SOL    HW2 1888   1.872   1.234   0.229
  622SOL     OW 1889   1.952   1.788   0.935
  622SOL    HW1 1890   1.922   1.708   0.892
  622SOL    HW2 1891   2.042   1.800   0.905
  623SOL     OW 1892   2.361   1.573   0.906
  623SOL    HW1 1893   2.429   1.635   0.931
  623SOL    HW2 1894   2.406   1.508   0.852
  624SOL     OW 1895   2.865   0.790   1.249
  624SOL    HW1 1896   2.911   0.732   1.310
  624SOL    HW2 1897   2.773   0.765   1.256
  625SOL     OW 1898   1.897   0.538   1.117
  625SOL    HW1 1899   1.980   0.526   1.071
  625SOL    HW2 1900   1.923   0.550   1.209
  626SOL     OW 1901   2.049   0.519   1.725
  626SOL    HW1 1902   2.107   0.484   1.657
  626SOL    HW2 1903   2.005   0.593   1.682
  627SOL     OW 1904   2.659   0.552   0.367
  627SOL    HW1 1905   2.678   0.495   0.292
  627SOL    HW2 1906   2.594   0.614   0.334
  628SOL     OW 1907   2.559   0.459   1.263
  628SOL    HW1 1908   2.509   0.382   1.235
  628SOL    HW2 1909   2.555   0.519   1.188
  629SOL     OW 1910   2.805   1.689   1.458
  629SOL    HW1 1911   2.770   1.640   1.383
  629SOL    HW2 1912   2.775   1.779   1.444
  630SOL     OW 1913   2.309   0.493   0.211
  630SOL    HW1 1914   2.371   0.565   0.220
  630SOL    HW2 1915   2.226   0.536   0.188
  631SOL     OW 1916   2.006   1.143   1.464
  631SOL    HW1 1917   2.007   1.096   1.547
  631SOL    HW2 1918   2.029   1.077   1.399
  632SOL     OW 1919   1.946   1.260   1.012
  632SOL    HW1 1920   1.927   1.272   1.105
  632SOL    HW2 1921   1.869   1.213   0.978
  633SOL     OW 1922   2.539   1.665   1.730
  633SOL    HW1 1923   2.483   1.741   1.720
  633SOL    HW2 1924   2.602   1.671   1.658
  634SOL     OW 1925   2.766   0.085   0.145
  634SOL    HW1 1926   2.796   0.041   0.065
  634SOL    HW2 1927   2.819   0.046   0.215
  635SOL     OW 1928   1.987   1.809   1.848
  635SOL    HW1 1929   1.963   1.721   1.877
  635SOL    HW2 1930   2.042   1.844   1.918
  636SOL     OW 1931   2.677   1.268   1.426
  636SOL    HW1 1932   2.668   1.313   1.510
  636SOL    HW2 1933   2.603   1.299   1.374
  637SOL     OW 1934   2.530   1.610   0.159
  637SOL    HW1 1935   2.534   1.628   0.065
  637SOL    HW2 1936   2.478   1.530   0.166
  638SOL     OW 1937   2.145   0.358   0.763
  638SOL    HW1 1938   2.060   0.370   0.721
  638SOL    HW2 1939   2.125   0.318   0.847
  639SOL     OW 1940   2.690   1.006   1.373
  639SOL    HW1 1941   2.733   1.005   1.288
  639SOL    HW2 1942   2.687   1.098   1.398
  640SOL     OW 1943   2.785   0.943   0.303
  640SOL    HW1 1944   2.839   0.960   0.226
  640SOL    HW2 1945   2.825   0.865   0.343
  641SOL     OW 1946   2.238   1.291   1.486
  641SOL    HW1 1947   2.222   1.377   1.448
  641SOL    HW2 1948   2.155   1.245   1.477
  642SOL     OW 1949   2.915   1.082   0.723
  642SOL    HW1 1950   2.838   1.041   0.761
  642SOL    HW2 1951   2.930   1.033   0.642
  643SOL     OW 1952   2.871   0.238   0.960
  643SOL    HW1 1953   2.871   0.180   0.884
  643SOL    HW2 1954   2.871   0.179   1.035
  644SOL     OW 1955   2.460   1.488   0.483
  644SOL    HW1 1956   2.503   1.440   0.412
  644SOL    HW2 1957   2.401   1.549   0.439
  645SOL     OW 1958   2.131   1.333   0.297
  645SOL    HW1 1959   2.046   1.339   0.254
  645SOL    HW2 1960   2.118   1.378   0.381
  646SOL     OW 1961   1.969   1.001   1.707
  646SOL    HW1 1962   1.895   0.994   1.767
  646SOL    HW2 1963   2.046   0.987   1.762
  647SOL     OW 1964   2.529   0.209   1.490
  647SOL    HW1 1965   2.613   0.181   1.452
  647SOL    HW2 1966   2.547   0.222   1.583
  648SOL     OW 1967   1.925   0.202   0.334
  648SOL    HW1 1968   1.885   0.231   0.252
  648SOL    HW2 1969   2.003   0.152   0.307
  649SOL     OW 1970   2.478   0.834   1.430
  649SOL    HW1 1971   2.533   0.912   1.418
  649SOL    HW2 1972   2.540   0.762   1.439
  650SOL     OW 1973   2.580   0.564   1.703
  650SOL    HW1 1974   2.612   0.628   1.766
  650SOL    HW2 1975   2.614   0.480   1.735
  651SOL     OW 1976   2.242   1.733   1.573
  651SOL    HW1 1977   2.163   1.787   1.567
  651SOL    HW2 1978   2.211   1.649   1.607
  652SOL     OW 1979   2.465   0.733   0.657
  652SOL    HW1 1980   2.497   0.823   0.654
  652SOL    HW2 1981   2.387   0.733   0.601
  653SOL     OW 1982   2.765   1.379   0.063
  653SOL    HW1 1983   2.693   1.387   0.125
  653SOL    HW2 1984   2.733   1.423   2.984
  654SOL     OW 1985   2.521   1.795   0.947
  654SOL    HW1 1986   2.498   1.885   0.923
  654SOL    HW2 1987   2.616   1.791   0.938
  655SOL     OW 1988   2.717   0.960   0.857
  655SOL    HW1 1989   2.766   0.890   0.900
  655SOL    HW2 1990   2.687   1.016   0.929
  656SOL     OW 1991   2.953   1.011   0.079
  656SOL    HW1 1992   2.931   1.061   0.000
  656SOL    HW2 1993   0.019   0.948   0.049
  657SOL     OW 1994   2.092   1.268   1.868
  657SOL    HW1 1995   2.014   1.273   1.812
  657SOL    HW2 1996   2.078   1.335   1.935
  658SOL     OW 1997   1.944   1.234   0.664
  658SOL    HW1 1998   1.948   1.184   0.745
  658SOL    HW2 1999   2.015   1.199   0.610
  659SOL     OW 2000   2.541   1.402   1.627
  659SOL    HW1 2001   2.461   1.356   1.653
  659SOL    HW2 2002   2.534   1.489   1.666
  660SOL     OW 2003   2.348   0.428   0.549
  660SOL    HW1 2004   2.323   0.377   0.471
  660SOL    HW2 2005   2.276   0.414   0.610
  661SOL     OW 2006   2.188   0.552   1.290
  661SOL    HW1 2007   2.244   0.499   1.347
  661SOL    HW2 2008   2.213   0.526   1.201
  662SOL     OW 2009   2.684   1.582   0.679
  662SOL    HW1 2010   2.681   1.620   0.592
  662SOL    HW2 2011   2.607   1.525   0.683
  663SOL     OW 2012   2.857   0.022   1.137
  663SOL    HW1 2013   2.822   2.940   1.103
  663SOL    HW2 2014   2.945   0.000   1.168
  664SOL     OW 2015   2.629   1.330   0.313
  664SOL    HW1 2016   2.600   1.241   0.332
  664SOL    HW2 2017   2.712   1.339   0.360
  665SOL     OW 2018   2.483   1.559   1.283
  665SOL    HW1 2019   2.485   1.639   1.335
  665SOL    HW2 2020   2.571   1.552   1.245
  666SOL     OW 2021   1.902   1.075   0.305
  666SOL    HW1 2022   1.996   1.068   0.288
  666SOL    HW2 2023   1.875   0.986   0.326
  667SOL     OW 2024   2.738   1.649   0.347
  667SOL    HW1 2025   2.668   1.633   0.283
  667SOL    HW2 2026   2.709   1.727   0.394
  668SOL     OW 2027   2.093   0.617   1.985
  668SOL    HW1 2028   2.003   0.625   2.017
  668SOL    HW2 2029   2.083   0.597   1.892
  669SOL     OW 2030   2.087   0.276   2.881
  669SOL    HW1 2031   2.100   0.240   2.968
  669SOL    HW2 2032   2.002   0.242   2.853
  670SOL     OW 2033   1.865   0.378   2.504
  670SOL    HW1 2034   1.785   0.410   2.546
  670SOL    HW2 2035   1.837   0.303   2.452
  671SOL     OW 2036   2.613   1.147   2.897
  671SOL    HW1 2037   2.548   1.193   2.950
  671SOL    HW2 2038   2.662   1.217   2.853
  672SOL     OW 2039   2.548   1.007   2.508
  672SOL    HW1 2040   2.607   0.991   2.582
  672SOL    HW2 2041   2.476   1.057   2.546
  673SOL     OW 2042   2.203   1.431   2.931
  673SOL    HW1 2043   2.125   1.399   2.886
  673SOL    HW2 2044   2.248   1.484   2.865
  674SOL     OW 2045   2.078   1.712   2.337
  674SOL    HW1 2046   2.106   1.790   2.386
  674SOL    HW2 2047   2.143   1.704   2.267
  675SOL     OW 2048   2.096   1.443   2.404
  675SOL    HW1 2049   2.075   1.536   2.401
  675SOL    HW2 2050   2.027   1.405   2.459
  676SOL     OW 2051   2.117   1.092   2.755
  676SOL    HW1 2052   2.108   1.005   2.794
  676SOL    HW2 2053   2.057   1.147   2.806
  677SOL     OW 2054   2.459   0.976   1.992
  677SOL    HW1 2055   2.496   1.035   1.925
  677SOL    HW2 2056   2.492   1.010   2.075
  678SOL     OW 2057   1.982   0.643   2.426
  678SOL    HW1 2058   1.933   0.564   2.450
  678SOL    HW2 2059   1.973   0.700   2.502
  679SOL     OW 2060   1.925   1.607   2.018
  679SOL    HW1 2061   1.890   1.526   1.981
  679SOL    HW2 2062   1.863   1.631   2.087
  680SOL     OW 2063   2.470   1.381   2.592
  680SOL    HW1 2064   2.423   1.298   2.600
  680SOL    HW2 2065   2.454   1.410   2.503
  681SOL     OW 2066   2.683   0.015   2.381
  681SOL    HW1 2067   2.710   0.103   2.357
  681SOL    HW2 2068   2.589   0.012   2.362
  682SOL     OW 2069   2.458   0.726   2.127
  682SOL    HW1 2070   2.463   0.804   2.072
  682SOL    HW2 2071   2.390   0.746   2.192
  683SOL     OW 2072   2.892   0.706   2.281
  683SOL    HW1 2073   2.917   0.693   2.372
  683SOL    HW2 2074   2.815   0.651   2.270
  684SOL     OW 2075   1.952   0.818   2.636
  684SOL    HW1 2076   2.032   0.813   2.688
  684SOL    HW2 2077   1.906   0.895   2.670
  685SOL     OW 2078   2.737   0.344   2.050
  685SOL    HW1 2079   2.790   0.406   2.000
  685SOL    HW2 2080   2.780   0.259   2.037
  686SOL     OW 2081   2.419   0.200   2.834
  686SOL    HW1 2082   2.358   0.266   2.870
  686SOL    HW2 2083   2.434   0.228   2.744
  687SOL     OW 2084   2.865   1.441   2.333
  687SOL    HW1 2085   2.828   1.515   2.284
  687SOL    HW2 2086   2.861   1.468   2.424
  688SOL     OW 2087   2.216   1.804   2.717
  688SOL    HW1 2088   2.259   1.719   2.729
  688SOL    HW2 2089   2.285   1.869   2.736
  689SOL     OW 2090   2.188   0.947   2.116
  689SOL    HW1 2091   2.260   0.981   2.063
  689SOL    HW2 2092   2.152   0.874   2.065
  690SOL     OW 2093   2.329   1.739   2.183
  690SOL    HW1 2094   2.371   1.794   2.250
  690SOL    HW2 2095   2.402   1.709   2.129
  691SOL     OW 2096   2.126   1.800   0.102
  691SOL    HW1 2097   2.166   1.730   0.154
  691SOL    HW2 2098   2.079   1.755   0.032
  692SOL     OW 2099   2.794   1.699   2.758
  692SOL    HW1 2100   2.859   1.638   2.794
  692SOL    HW2 2101   2.754   1.650   2.686
  693SOL     OW 2102   2.257   0.690   2.343
  693SOL    HW1 2103   2.284   0.599   2.355
  693SOL    HW2 2104   2.163   0.690   2.360
  694SOL     OW 2105   2.488   0.121   1.973
  694SOL    HW1 2106   2.577   0.086   1.968
  694SOL    HW2 2107   2.449   0.101   1.887
  695SOL     OW 2108   2.662   1.401   2.791
  695SOL    HW1 2109   2.748   1.393   2.749
  695SOL    HW2 2110   2.600   1.396   2.718
  696SOL     OW 2111   2.784   0.519   2.757
  696SOL    HW1 2112   2.758   0.497   2.667
  696SOL    HW2 2113   2.814   0.436   2.794
  697SOL     OW 2114   2.407   0.060   2.366
  697SOL    HW1 2115   2.319   0.043   2.401
  697SOL    HW2 2116   2.394   0.132   2.304
  698SOL     OW 2117   2.150   0.035   2.059
  698SOL    HW1 2118   2.194   0.110   2.019
  698SOL    HW2 2119   2.221   2.975   2.082
  699SOL     OW 2120   2.813   0.251   2.321
  699SOL    HW1 2121   2.762   0.295   2.252
  699SOL    HW2 2122   2.892   0.221   2.277
  700SOL     OW 2123   0.084   1.577   2.661
  700SOL    HW1 2124   0.111   1.622   2.580
  700SOL    HW2 2125   0.166   1.556   2.705
  701SOL     OW 2126   2.329   1.144   2.598
  701SOL    HW1 2127   2.257   1.129   2.659
  701SOL    HW2 2128   2.290   1.130   2.512
  702SOL     OW 2129   2.887   0.551   1.877
  702SOL    HW1 2130   2.841   0.632   1.858
  702SOL    HW2 2131   2.938   0.571   1.956
  703SOL     OW 2132   2.743   0.467   2.494
  703SOL    HW1 2133   2.679   0.519   2.446
  703SOL    HW2 2134   2.740   0.380   2.453
  704SOL     OW 2135   2.858   0.055   2.618
  704SOL    HW1 2136   2.821   0.053   2.530
  704SOL    HW2 2137   2.837   2.969   2.654
  705SOL     OW 2138   2.353   1.411   2.023
  705SOL    HW1 2139   2.280   1.382   2.077
  705SOL    HW2 2140   2.325   1.394   1.933
  706SOL     OW 2141   2.394   0.265   2.183
  706SOL    HW1 2142   2.428   0.212   2.110
  706SOL    HW2 2143   2.371   0.349   2.142
  707SOL     OW 2144   2.570   1.062   2.233
  707SOL    HW1 2145   2.553   1.046   2.326
  707SOL    HW2 2146   2.648   1.009   2.213
  708SOL     OW 2147   2.219   1.107   2.351
  708SOL    HW1 2148   2.213   1.182   2.292
  708SOL    HW2 2149   2.214   1.031   2.294
  709SOL     OW 2150   2.414   0.542   2.729
  709SOL    HW1 2151   2.431   0.593   2.649
  709SOL    HW2 2152   2.480   0.573   2.791
  710SOL     OW 2153   2.440   0.869   2.880
  710SOL    HW1 2154   2.479   0.951   2.851
  710SOL    HW2 2155   2.416   0.885   2.971
  711SOL     OW 2156   0.055   0.531   2.132
  711SOL    HW1 2157   0.084   0.455   2.182
  711SOL    HW2 2158   0.024   0.593   2.199
  712SOL     OW 2159   2.597   0.645   2.916
  712SOL    HW1 2160   2.662   0.622   2.850
  712SOL    HW2 2161   2.560   0.728   2.886
  713SOL     OW 2162   2.174   0.060   2.506
  713SOL    HW1 2163   2.163   0.152   2.532
  713SOL    HW2 2164   2.153   0.010   2.585
  714SOL     OW 2165   2.873   0.777   2.830
  714SOL    HW1 2166   2.882   0.769   2.925
  714SOL    HW2 2167   2.867   0.687   2.798
  715SOL     OW 2168   2.909   1.343   2.698
  715SOL    HW1 2169   2.915   1.268   2.639
  715SOL    HW2 2170   2.976   1.404   2.667
  716SOL     OW 2171   2.171   0.810   2.813
  716SOL    HW1 2172   2.264   0.831   2.807
  716SOL    HW2 2173   2.168   0.719   2.840
  717SOL     OW 2174   2.186   0.533   2.871
  717SOL    HW1 2175   2.149   0.445   2.864
  717SOL    HW2 2176   2.263   0.532   2.813
  718SOL     OW 2177   1.867   1.325   2.066
  718SOL    HW1 2178   1.783   1.340   2.022
  718SOL    HW2 2179   1.866   1.232   2.088
  719SOL     OW 2180   1.952   1.795   2.796
  719SOL    HW1 2181   1.920   1.713   2.760
  719SOL    HW2 2182   2.043   1.801   2.767
  720SOL     OW 2183   2.366   1.576   2.765
  720SOL    HW1 2184   2.437   1.637   2.786
  720SOL    HW2 2185   2.407   1.509   2.711
  721SOL     OW 2186   2.847   0.752   0.102
  721SOL    HW1 2187   2.887   0.746   0.189
  721SOL    HW2 2188   2.757   0.781   0.119
  722SOL     OW 2189   2.670   0.565   2.214
  722SOL    HW1 2190   2.669   0.489   2.156
  722SOL    HW2 2191   2.596   0.619   2.186
  723SOL     OW 2192   2.561   0.453   0.097
  723SOL    HW1 2193   2.469   0.427   0.092
  723SOL    HW2 2194   2.570   0.523   0.033
  724SOL     OW 2195   2.331   0.495   2.050
  724SOL    HW1 2196   2.385   0.571   2.071
  724SOL    HW2 2197   2.243   0.530   2.038
  725SOL     OW 2198   1.943   1.267   2.886
  725SOL    HW1 2199   1.928   1.277   2.980
  725SOL    HW2 2200   1.869   1.214   2.856
  726SOL     OW 2201   2.532   1.616   2.016
  726SOL    HW1 2202   2.540   1.628   1.922
  726SOL    HW2 2203   2.477   1.539   2.027
  727SOL     OW 2204   2.135   0.334   2.617
  727SOL    HW1 2205   2.048   0.365   2.590
  727SOL    HW2 2206   2.124   0.310   2.709
  728SOL     OW 2207   2.787   0.921   2.157
  728SOL    HW1 2208   2.835   0.929   2.074
  728SOL    HW2 2209   2.820   0.841   2.196
  729SOL     OW 2210   2.914   1.078   2.585
  729SOL    HW1 2211   2.834   1.039   2.620
  729SOL    HW2 2212   2.929   1.032   2.503
  730SOL     OW 2213   2.880   0.236   2.821
  730SOL    HW1 2214   2.875   0.191   2.737
  730SOL    HW2 2215   2.878   0.166   2.886
  731SOL     OW 2216   2.463   1.490   2.343
  731SOL    HW1 2217   2.502   1.439   2.272
  731SOL    HW2 2218   2.393   1.540   2.301
  732SOL     OW 2219   2.125   1.342   2.159
  732SOL    HW1 2220   2.036   1.345   2.126
  732SOL    HW2 2221   2.120   1.385   2.245
  733SOL     OW 2222   1.940   0.335   1.898
  733SOL    HW1 2223   1.849   0.318   1.872
  733SOL    HW2 2224   1.966   0.411   1.846
  734SOL     OW 2225   1.903   0.208   2.163
  734SOL    HW1 2226   1.920   0.265   2.088
  734SOL    HW2 2227   1.970   0.140   2.158
  735SOL     OW 2228   2.458   0.740   2.528
  735SOL    HW1 2229   2.493   0.828   2.512
  735SOL    HW2 2230   2.386   0.731   2.466
  736SOL     OW 2231   2.734   1.370   1.899
  736SOL    HW1 2232   2.680   1.400   1.972
  736SOL    HW2 2233   2.747   1.448   1.844
  737SOL     OW 2234   2.526   1.798   2.824
  737SOL    HW1 2235   2.504   1.885   2.790
  737SOL    HW2 2236   2.619   1.787   2.804
  738SOL     OW 2237   2.711   0.961   2.720
  738SOL    HW1 2238   2.766   0.893   2.759
  738SOL    HW2 2239   2.687   1.017   2.794
  739SOL     OW 2240   2.938   0.950   1.929
  739SOL    HW1 2241   2.907   1.026   1.881
  739SOL    HW2 2242   0.026   0.974   1.959
  740SOL     OW 2243   1.944   1.239   2.527
  740SOL    HW1 2244   1.945   1.182   2.604
  740SOL    HW2 2245   2.010   1.203   2.469
  741SOL     OW 2246   2.335   0.428   2.410
  741SOL    HW1 2247   2.322   0.373   2.333
  741SOL    HW2 2248   2.266   0.401   2.470
  742SOL     OW 2249   2.684   1.580   2.537
  742SOL    HW1 2250   2.683   1.620   2.451
  742SOL    HW2 2251   2.605   1.525   2.539
  743SOL     OW 2252   2.635   1.332   2.172
  743SOL    HW1 2253   2.602   1.243   2.181
  743SOL    HW2 2254   2.714   1.334   2.225
  744SOL     OW 2255   1.902   1.072   2.170
  744SOL    HW1 2256   1.994   1.068   2.146
  744SOL    HW2 2257   1.879   0.982   2.192
  745SOL     OW 2258   2.738   1.646   2.209
  745SOL    HW1 2259   2.669   1.630   2.145
  745SOL    HW2 2260   2.713   1.726   2.254
  746SOL     OW 2261   2.089   2.503   0.111
  746SOL    HW1 2262   2.000   2.475   0.135
  746SOL    HW2 2263   2.105   2.460   0.027
  747SOL     OW 2264   2.086   2.142   0.992
  747SOL    HW1 2265   2.115   2.110   1.077
  747SOL    HW2 2266   1.997   2.108   0.982
  748SOL     OW 2267   1.869   2.246   0.639
  748SOL    HW1 2268   1.785   2.266   0.680
  748SOL    HW2 2269   1.852   2.167   0.587
  749SOL     OW 2270   2.594   2.998   1.026
  749SOL    HW1 2271   2.524   0.045   1.071
  749SOL    HW2 2272   2.647   0.066   0.985
  750SOL     OW 2273   2.722   2.639   1.819
  750SOL    HW1 2274   2.719   2.699   1.893
  750SOL    HW2 2275   2.752   2.692   1.745
  751SOL     OW 2276   2.519   2.843   0.698
  751SOL    HW1 2277   2.610   2.854   0.727
  751SOL    HW2 2278   2.487   2.932   0.686
  752SOL     OW 2279   2.310   2.261   1.489
  752SOL    HW1 2280   2.383   2.200   1.494
  752SOL    HW2 2281   2.232   2.207   1.504
  753SOL     OW 2282   2.108   0.312   0.495
  753SOL    HW1 2283   2.051   0.388   0.494
  753SOL    HW2 2284   2.050   0.238   0.479
  754SOL     OW 2285   2.112   2.952   0.886
  754SOL    HW1 2286   2.126   2.862   0.918
  754SOL    HW2 2287   2.052   2.990   0.950
  755SOL     OW 2288   2.477   2.832   0.147
  755SOL    HW1 2289   2.466   2.925   0.127
  755SOL    HW2 2290   2.544   2.830   0.216
  756SOL     OW 2291   1.976   2.510   0.560
  756SOL    HW1 2292   1.948   2.421   0.581
  756SOL    HW2 2293   1.968   2.558   0.643
  757SOL     OW 2294   1.984   2.604   1.584
  757SOL    HW1 2295   2.077   2.620   1.602
  757SOL    HW2 2296   1.942   2.687   1.605
  758SOL     OW 2297   2.526   0.262   0.669
  758SOL    HW1 2298   2.504   0.197   0.735
  758SOL    HW2 2299   2.442   0.288   0.632
  759SOL     OW 2300   2.674   1.863   0.505
  759SOL    HW1 2301   2.712   1.950   0.493
  759SOL    HW2 2302   2.580   1.879   0.516
  760SOL     OW 2303   2.057   2.841   1.255
  760SOL    HW1 2304   2.138   2.792   1.248
  760SOL    HW2 2305   1.988   2.777   1.234
  761SOL     OW 2306   2.197   2.115   1.812
  761SOL    HW1 2307   2.236   2.200   1.827
  761SOL    HW2 2308   2.106   2.125   1.840
  762SOL     OW 2309   2.454   2.581   0.269
  762SOL    HW1 2310   2.460   2.661   0.217
  762SOL    HW2 2311   2.388   2.601   0.336
  763SOL     OW 2312   2.653   2.489   1.452
  763SOL    HW1 2313   2.630   2.462   1.541
  763SOL    HW2 2314   2.617   2.421   1.396
  764SOL     OW 2315   2.829   2.747   1.580
  764SOL    HW1 2316   2.855   2.661   1.548
  764SOL    HW2 2317   2.774   2.783   1.510
  765SOL     OW 2318   2.848   2.241   1.256
  765SOL    HW1 2319   2.769   2.285   1.287
  765SOL    HW2 2320   2.834   2.228   1.162
  766SOL     OW 2321   2.887   2.583   0.411
  766SOL    HW1 2322   2.930   2.562   0.495
  766SOL    HW2 2323   2.815   2.520   0.405
  767SOL     OW 2324   1.947   2.682   0.776
  767SOL    HW1 2325   2.030   2.671   0.822
  767SOL    HW2 2326   1.911   2.764   0.811
  768SOL     OW 2327   2.789   2.194   0.218
  768SOL    HW1 2328   2.782   2.261   0.150
  768SOL    HW2 2329   2.758   2.114   0.175
  769SOL     OW 2330   2.411   2.046   0.892
  769SOL    HW1 2331   2.413   2.072   0.984
  769SOL    HW2 2332   2.412   2.129   0.844
  770SOL     OW 2333   2.063   2.148   1.503
  770SOL    HW1 2334   1.976   2.189   1.501
  770SOL    HW2 2335   2.050   2.068   1.553
  771SOL     OW 2336   2.250   2.556   0.475
  771SOL    HW1 2337   2.275   2.464   0.485
  771SOL    HW2 2338   2.156   2.558   0.495
  772SOL     OW 2339   2.486   1.982   0.114
  772SOL    HW1 2340   2.580   1.965   0.117
  772SOL    HW2 2341   2.456   1.937   0.036
  773SOL     OW 2342   2.632   2.144   1.758
  773SOL    HW1 2343   2.702   2.080   1.767
  773SOL    HW2 2344   2.569   2.122   1.827
  774SOL     OW 2345   2.787   2.367   0.902
  774SOL    HW1 2346   2.760   2.355   0.811
  774SOL    HW2 2347   2.824   2.283   0.928
  775SOL     OW 2348   2.410   1.924   0.505
  775SOL    HW1 2349   2.329   1.925   0.557
  775SOL    HW2 2350   2.403   2.001   0.449
  776SOL     OW 2351   2.810   2.101   0.466
  776SOL    HW1 2352   2.776   2.148   0.390
  776SOL    HW2 2353   2.897   2.072   0.439
  777SOL     OW 2354   2.886   2.380   0.032
  777SOL    HW1 2355   2.843   2.463   0.012
  777SOL    HW2 2356   2.943   2.399   0.106
  778SOL     OW 2357   1.938   2.419   1.388
  778SOL    HW1 2358   2.030   2.414   1.363
  778SOL    HW2 2359   1.935   2.488   1.455
  779SOL     OW 2360   2.423   2.089   1.164
  779SOL    HW1 2361   2.461   2.009   1.200
  779SOL    HW2 2362   2.332   2.088   1.194
  780SOL     OW 2363   2.742   2.320   0.635
  780SOL    HW1 2364   2.685   2.378   0.585
  780SOL    HW2 2365   2.744   2.239   0.584
  781SOL     OW 2366   2.858   1.924   0.756
  781SOL    HW1 2367   2.811   1.903   0.675
  781SOL    HW2 2368   2.851   1.844   0.809
  782SOL     OW 2369   2.379   2.122   0.323
  782SOL    HW1 2370   2.421   2.073   0.252
  782SOL    HW2 2371   2.364   2.209   0.287
  783SOL     OW 2372   2.754   1.950   1.390
  783SOL    HW1 2373   2.780   1.934   1.299
  783SOL    HW2 2374   2.831   1.992   1.429
  784SOL     OW 2375   2.276   2.678   1.253
  784SOL    HW1 2376   2.346   2.685   1.318
  784SOL    HW2 2377   2.241   2.589   1.264
  785SOL     OW 2378   2.419   2.398   0.861
  785SOL    HW1 2379   2.434   2.455   0.786
  785SOL    HW2 2380   2.482   2.427   0.927
  786SOL     OW 2381   2.274   2.604   1.604
  786SOL    HW1 2382   2.336   2.647   1.545
  786SOL    HW2 2383   2.312   2.517   1.618
  787SOL     OW 2384   2.857   1.989   1.771
  787SOL    HW1 2385   2.900   2.042   1.704
  787SOL    HW2 2386   2.899   1.903   1.764
  788SOL     OW 2387   2.362   1.908   1.745
  788SOL    HW1 2388   2.318   1.848   1.685
  788SOL    HW2 2389   2.299   1.979   1.758
  789SOL     OW 2390   2.448   2.731   1.033
  789SOL    HW1 2391   2.468   2.824   1.023
  789SOL    HW2 2392   2.388   2.728   1.108
  790SOL     OW 2393   0.063   2.399   0.271
  790SOL    HW1 2394   0.077   2.317   0.318
  790SOL    HW2 2395   0.037   2.461   0.340
  791SOL     OW 2396   2.164   2.066   1.245
  791SOL    HW1 2397   2.127   2.096   1.328
  791SOL    HW2 2398   2.147   1.971   1.245
  792SOL     OW 2399   2.589   2.493   1.060
  792SOL    HW1 2400   2.665   2.479   1.004
  792SOL    HW2 2401   2.560   2.582   1.039
  793SOL     OW 2402   2.163   1.928   0.622
  793SOL    HW1 2403   2.146   2.019   0.648
  793SOL    HW2 2404   2.170   1.881   0.705
  794SOL     OW 2405   2.859   2.626   0.981
  794SOL    HW1 2406   2.910   2.620   1.061
  794SOL    HW2 2407   2.862   2.538   0.943
  795SOL     OW 2408   2.226   2.789   1.800
  795SOL    HW1 2409   2.289   2.778   1.870
  795SOL    HW2 2410   2.243   2.717   1.739
  796SOL     OW 2411   2.173   2.674   0.947
  796SOL    HW1 2412   2.267   2.691   0.937
  796SOL    HW2 2413   2.168   2.586   0.982
  797SOL     OW 2414   2.195   2.386   1.010
  797SOL    HW1 2415   2.159   2.299   0.995
  797SOL    HW2 2416   2.272   2.391   0.953
  798SOL     OW 2417   2.969   2.242   1.667
  798SOL    HW1 2418   2.911   2.301   1.716
  798SOL    HW2 2419   0.056   2.282   1.674
  799SOL     OW 2420   2.977   2.064   1.470
  799SOL    HW1 2421   2.964   2.135   1.533
  799SOL    HW2 2422   2.981   2.108   1.385
  800SOL     OW 2423   2.856   2.669   1.265
  800SOL    HW1 2424   2.909   2.601   1.306
  800SOL    HW2 2425   2.776   2.624   1.239
  801SOL     OW 2426   1.898   2.410   1.115
  801SOL    HW1 2427   1.978   2.386   1.068
  801SOL    HW2 2428   1.923   2.412   1.207
  802SOL     OW 2429   2.052   2.380   1.725
  802SOL    HW1 2430   2.103   2.336   1.656
  802SOL    HW2 2431   2.005   2.450   1.679
  803SOL     OW 2432   2.671   2.428   0.355
  803SOL    HW1 2433   2.673   2.357   0.290
  803SOL    HW2 2434   2.596   2.481   0.330
  804SOL     OW 2435   2.559   2.317   1.264
  804SOL    HW1 2436   2.509   2.241   1.234
  804SOL    HW2 2437   2.557   2.377   1.190
  805SOL     OW 2438   2.305   2.356   0.208
  805SOL    HW1 2439   2.372   2.422   0.222
  805SOL    HW2 2440   2.226   2.406   0.187
  806SOL     OW 2441   2.021   2.996   1.474
  806SOL    HW1 2442   2.024   2.939   1.550
  806SOL    HW2 2443   2.035   2.937   1.400
  807SOL     OW 2444   2.762   1.935   0.125
  807SOL    HW1 2445   2.818   1.908   0.052
  807SOL    HW2 2446   2.803   1.897   0.203
  808SOL     OW 2447   2.126   2.179   0.719
  808SOL    HW1 2448   2.041   2.215   0.694
  808SOL    HW2 2449   2.121   2.169   0.814
  809SOL     OW 2450   2.672   2.866   1.375
  809SOL    HW1 2451   2.731   2.837   1.306
  809SOL    HW2 2452   2.700   2.955   1.395
  810SOL     OW 2453   2.743   2.788   0.288
  810SOL    HW1 2454   2.825   2.834   0.269
  810SOL    HW2 2455   2.768   2.722   0.354
  811SOL     OW 2456   2.879   2.103   0.967
  811SOL    HW1 2457   2.875   2.054   0.885
  811SOL    HW2 2458   2.869   2.037   1.035
  812SOL     OW 2459   1.974   2.864   1.708
  812SOL    HW1 2460   1.899   2.857   1.767
  812SOL    HW2 2461   2.050   2.846   1.764
  813SOL     OW 2462   2.527   2.062   1.499
  813SOL    HW1 2463   2.609   2.039   1.454
  813SOL    HW2 2464   2.555   2.090   1.587
  814SOL     OW 2465   1.937   2.019   0.341
  814SOL    HW1 2466   1.901   2.064   0.264
  814SOL    HW2 2467   2.027   1.998   0.316
  815SOL     OW 2468   2.474   2.693   1.434
  815SOL    HW1 2469   2.532   2.768   1.418
  815SOL    HW2 2470   2.534   2.618   1.442
  816SOL     OW 2471   2.580   2.425   1.702
  816SOL    HW1 2472   2.613   2.489   1.765
  816SOL    HW2 2473   2.609   2.341   1.736
  817SOL     OW 2474   2.455   2.585   0.662
  817SOL    HW1 2475   2.483   2.676   0.669
  817SOL    HW2 2476   2.384   2.586   0.598
  818SOL     OW 2477   2.749   2.839   0.863
  818SOL    HW1 2478   2.780   2.754   0.896
  818SOL    HW2 2479   2.682   2.866   0.926
  819SOL     OW 2480   2.293   2.295   0.528
  819SOL    HW1 2481   2.320   2.225   0.470
  819SOL    HW2 2482   2.245   2.251   0.599
  820SOL     OW 2483   2.190   2.416   1.290
  820SOL    HW1 2484   2.244   2.360   1.347
  820SOL    HW2 2485   2.211   2.386   1.201
  821SOL     OW 2486   2.867   1.881   1.144
  821SOL    HW1 2487   2.813   1.811   1.106
  821SOL    HW2 2488   2.957   1.857   1.122
  822SOL     OW 2489   1.875   2.920   0.304
  822SOL    HW1 2490   1.959   2.919   0.259
  822SOL    HW2 2491   1.864   2.831   0.337
  823SOL     OW 2492   2.095   2.475   1.981
  823SOL    HW1 2493   2.006   2.486   2.015
  823SOL    HW2 2494   2.083   2.451   1.890
  824SOL     OW 2495   2.089   2.143   2.846
  824SOL    HW1 2496   2.117   2.115   2.933
  824SOL    HW2 2497   2.000   2.110   2.837
  825SOL     OW 2498   1.870   2.245   2.498
  825SOL    HW1 2499   1.786   2.268   2.538
  825SOL    HW2 2500   1.851   2.164   2.450
  826SOL     OW 2501   2.637   0.020   2.881
  826SOL    HW1 2502   2.542   0.028   2.893
  826SOL    HW2 2503   2.659   0.090   2.820
  827SOL     OW 2504   2.511   2.846   2.567
  827SOL    HW1 2505   2.604   2.849   2.591
  827SOL    HW2 2506   2.493   2.932   2.529
  828SOL     OW 2507   2.101   0.302   2.340
  828SOL    HW1 2508   2.054   0.384   2.356
  828SOL    HW2 2509   2.041   0.233   2.369
  829SOL     OW 2510   2.114   2.953   2.752
  829SOL    HW1 2511   2.126   2.862   2.781
  829SOL    HW2 2512   2.050   2.990   2.813
  830SOL     OW 2513   2.465   2.824   1.996
  830SOL    HW1 2514   2.460   2.907   1.948
  830SOL    HW2 2515   2.531   2.839   2.063
  831SOL     OW 2516   1.978   2.509   2.424
  831SOL    HW1 2517   1.949   2.420   2.444
  831SOL    HW2 2518   1.969   2.557   2.506
  832SOL     OW 2519   2.499   0.245   2.567
  832SOL    HW1 2520   2.459   0.162   2.542
  832SOL    HW2 2521   2.467   0.307   2.502
  833SOL     OW 2522   2.674   1.863   2.367
  833SOL    HW1 2523   2.713   1.949   2.354
  833SOL    HW2 2524   2.581   1.880   2.379
  834SOL     OW 2525   2.063   2.808   0.117
  834SOL    HW1 2526   2.129   2.739   0.106
  834SOL    HW2 2527   1.981   2.766   0.093
  835SOL     OW 2528   2.458   2.580   2.129
  835SOL    HW1 2529   2.463   2.658   2.073
  835SOL    HW2 2530   2.392   2.602   2.194
  836SOL     OW 2531   2.895   2.579   2.275
  836SOL    HW1 2532   2.924   2.566   2.365
  836SOL    HW2 2533   2.817   2.524   2.267
  837SOL     OW 2534   1.946   2.682   2.638
  837SOL    HW1 2535   2.029   2.670   2.685
  837SOL    HW2 2536   1.909   2.763   2.675
  838SOL     OW 2537   2.750   2.205   2.061
  838SOL    HW1 2538   2.788   2.267   1.998
  838SOL    HW2 2539   2.749   2.121   2.014
  839SOL     OW 2540   2.413   2.048   2.765
  839SOL    HW1 2541   2.380   2.083   2.848
  839SOL    HW2 2542   2.420   2.124   2.708
  840SOL     OW 2543   2.250   2.555   2.337
  840SOL    HW1 2544   2.275   2.463   2.348
  840SOL    HW2 2545   2.157   2.558   2.358
  841SOL     OW 2546   2.498   1.989   1.964
  841SOL    HW1 2547   2.560   1.919   1.982
  841SOL    HW2 2548   2.446   1.957   1.891
  842SOL     OW 2549   2.785   2.377   2.756
  842SOL    HW1 2550   2.761   2.354   2.666
  842SOL    HW2 2551   2.814   2.294   2.795
  843SOL     OW 2552   2.411   1.927   2.368
  843SOL    HW1 2553   2.329   1.925   2.417
  843SOL    HW2 2554   2.404   2.004   2.312
  844SOL     OW 2555   2.154   1.913   2.050
  844SOL    HW1 2556   2.213   1.972   2.005
  844SOL    HW2 2557   2.210   1.844   2.085
  845SOL     OW 2558   2.805   2.103   2.318
  845SOL    HW1 2559   2.767   2.148   2.243
  845SOL    HW2 2560   2.892   2.077   2.288
  846SOL     OW 2561   2.888   2.414   1.877
  846SOL    HW1 2562   2.840   2.494   1.856
  846SOL    HW2 2563   2.935   2.435   1.958
  847SOL     OW 2564   2.742   2.318   2.494
  847SOL    HW1 2565   2.683   2.377   2.447
  847SOL    HW2 2566   2.742   2.238   2.442
  848SOL     OW 2567   2.855   1.924   2.611
  848SOL    HW1 2568   2.807   1.898   2.533
  848SOL    HW2 2569   2.852   1.848   2.669
  849SOL     OW 2570   2.392   2.125   2.183
  849SOL    HW1 2571   2.429   2.075   2.110
  849SOL    HW2 2572   2.370   2.210   2.145
  850SOL     OW 2573   2.418   2.394   2.724
  850SOL    HW1 2574   2.432   2.451   2.648
  850SOL    HW2 2575   2.478   2.428   2.791
  851SOL     OW 2576   2.434   2.727   2.885
  851SOL    HW1 2577   2.478   2.805   2.852
  851SOL    HW2 2578   2.423   2.743   2.978
  852SOL     OW 2579   0.056   2.392   2.138
  852SOL    HW1 2580   0.086   2.317   2.189
  852SOL    HW2 2581   0.017   2.451   2.202
  853SOL     OW 2582   2.160   2.070   0.092
  853SOL    HW1 2583   2.189   2.101   0.177
  853SOL    HW2 2584   2.153   1.975   0.102
  854SOL     OW 2585   2.592   2.500   2.914
  854SOL    HW1 2586   2.663   2.480   2.852
  854SOL    HW2 2587   2.560   2.586   2.887
  855SOL     OW 2588   2.165   1.928   2.483
  855SOL    HW1 2589   2.146   2.019   2.509
  855SOL    HW2 2590   2.167   1.880   2.566
  856SOL     OW 2591   2.871   2.633   2.825
  856SOL    HW1 2592   2.895   2.633   2.918
  856SOL    HW2 2593   2.867   2.540   2.802
  857SOL     OW 2594   2.170   2.673   2.810
  857SOL    HW1 2595   2.263   2.693   2.811
  857SOL    HW2 2596   2.165   2.582   2.838
  858SOL     OW 2597   2.184   2.397   2.866
  858SOL    HW1 2598   2.148   2.308   2.859
  858SOL    HW2 2599   2.264   2.394   2.813
  859SOL     OW 2600   2.877   2.642   0.097
  859SOL    HW1 2601   2.914   2.630   0.184
  859SOL    HW2 2602   2.786   2.667   0.113
  860SOL     OW 2603   2.675   2.429   2.217
  860SOL    HW1 2604   2.674   2.353   2.160
  860SOL    HW2 2605   2.600   2.482   2.189
  861SOL     OW 2606   2.567   2.310   0.102
  861SOL    HW1 2607   2.480   2.270   0.090
  861SOL    HW2 2608   2.570   2.381   0.038
  862SOL     OW 2609   2.331   2.353   2.050
  862SOL    HW1 2610   2.385   2.429   2.073
  862SOL    HW2 2611   2.243   2.390   2.037
  863SOL     OW 2612   0.163   2.703   2.161
  863SOL    HW1 2613   0.107   2.646   2.214
  863SOL    HW2 2614   0.197   2.645   2.092
  864SOL     OW 2615   2.127   2.180   2.578
  864SOL    HW1 2616   2.042   2.215   2.553
  864SOL    HW2 2617   2.122   2.172   2.673
  865SOL     OW 2618   2.758   2.765   2.114
  865SOL    HW1 2619   2.836   2.815   2.088
  865SOL    HW2 2620   2.789   2.706   2.182
  866SOL     OW 2621   2.877   2.101   2.819
  866SOL    HW1 2622   2.872   2.057   2.734
  866SOL    HW2 2623   2.895   2.032   2.882
  867SOL     OW 2624   1.938   2.200   1.900
  867SOL    HW1 2625   1.855   2.173   1.861
  867SOL    HW2 2626   1.968   2.273   1.846
  868SOL     OW 2627   1.934   2.024   2.174
  868SOL    HW1 2628   1.920   2.101   2.119
  868SOL    HW2 2629   2.016   1.987   2.144
  869SOL     OW 2630   2.457   2.584   2.523
  869SOL    HW1 2631   2.481   2.676   2.534
  869SOL    HW2 2632   2.385   2.585   2.460
  870SOL     OW 2633   2.741   2.834   2.716
  870SOL    HW1 2634   2.783   2.755   2.750
  870SOL    HW2 2635   2.707   2.878   2.793
  871SOL     OW 2636   2.950   2.834   1.901
  871SOL    HW1 2637   2.917   2.923   1.911
  871SOL    HW2 2638   0.011   2.822   1.973
  872SOL     OW 2639   2.294   2.295   2.388
  872SOL    HW1 2640   2.319   2.223   2.329
  872SOL    HW2 2641   2.245   2.252   2.458
  873SOL     OW 2642   1.886   2.921   2.176
  873SOL    HW1 2643   1.971   2.930   2.132
  873SOL    HW2 2644   1.880   2.827   2.196
  874NA      NA 2645   2.612   0.416   0.537
   3.00000   3.00000   3.00000
