; topol.top file for Liquid  Argon 
;
; Defiing the force field parameter
[ defaults ]
; nbfunc     comb-rule     gen-pairs     fudgeLJ     fudgeQQ
    1            3            yes           0.5       0.833
;
[ atomtypes ]
;  name      mass      charge      ptype     sigma(nm)      epsilon(kJ/mol)
    AR      39.948      0.00        A        3.41e-01       2.7458e-02
;
; Molecule Definition
[ moleculetype ]
; molecule-name     nrexcl
    AR                3
[ atoms ]
; nr     type     resnr     residue     atom     cgnr     charge     mass
  1       AR        1         LIG        AR       1        0.00      39.948
;
; System definition
[ system ]
Liquid Argon
;
[ molecules ]
; molecules-name     nr
      AR            108

