PNI in water
33614
    1CT1    CH1    1   0.741   3.149   3.475
    1CT1    CH1    2   0.758   3.288   3.414
    1CT1    CH1    3   0.880   3.363   3.467
    1CT1    CH1    4   0.932   3.490   3.398
    1CT1    CH1    5   1.014   3.581   3.490
    1CT1    CH1    6   1.139   3.650   3.435
    1CT1    CH1    7   1.243   3.703   3.537
    1CT1    CH1    8   1.391   3.706   3.498
    1CT1    CH1    9   1.492   3.780   3.588
    1CT1    CH1   10   1.636   3.734   3.569
    1CT2    CH2   11   1.773   3.752   3.641
    1CT2    CH2   12   1.877   3.678   3.558
    1CT2    CH2   13   2.030   3.676   3.586
    1CT2    CH2   14   2.100   3.544   3.619
    1CT2    CH2   15   2.243   3.511   3.572
    1CT2    CH2   16   2.345   3.482   3.682
    1CT2    CH2   17   2.493   3.518   3.658
    1CT2    CH2   18   2.609   3.456   3.737
    1CT2    CH2   19   2.745   3.495   3.677
    1CT2    CH2   20   2.856   3.391   3.661
    1CT1    CH1   21   2.993   3.458   3.639
    1CT1    CH1   22   3.113   3.389   3.575
    1CT1    CH1   23   3.197   3.427   3.453
    1CT1    CH1   24   3.328   3.350   3.465
    1CT1    CH1   25   3.467   3.390   3.414
    1CT1    CH1   26   3.574   3.373   3.523
    1CT1    CH1   27   3.694   3.467   3.526
    1CT1    CH1   28   3.829   3.403   3.559
    1CT1    CH1   29   3.920   3.490   3.648
    1CT1    CH1   30   4.050   3.416   3.676
    1CT2    CH2   31   4.174   3.488   3.727
    1CT2    CH2   32   4.299   3.429   3.661
    1CT2    CH2   33   4.433   3.502   3.667
    1CT2    CH2   34   4.509   3.456   3.542
    1CT2    CH2   35   4.641   3.532   3.527
    1CT2    CH2   36   4.706   3.506   3.391
    1CT2    CH2   37   4.849   3.558   3.390
    1CT2    CH2   38   4.950   3.466   3.321
    1CT2    CH2   39   5.089   3.521   3.349
    1CT2    CH2   40   5.218   3.476   3.279
    1CT1    CH1   41   5.331   3.531   3.367
    1CT1    CH1   42   5.439   3.622   3.307
    1CT1    CH1   43   5.537   3.677   3.412
    1CT1    CH1   44   5.674   3.712   3.354
    1CT1    CH1   45   5.798   3.650   3.420
    1CT1    CH1   46   5.939   3.677   3.368
    1CT1    CH1   47   6.047   3.576   3.407
    1CT1    CH1   48   6.182   3.624   3.353
    1CT1    CH1   49   6.314   3.594   3.425
    1CT1    CH1   50   6.426   3.563   3.325
    2SOL     OW   51   0.219   0.662   0.124
    2SOL    HW1   52   0.152   0.598   0.162
    2SOL    HW2   53   0.250   0.629   0.035
    3SOL     OW   54   0.221   0.289   0.985
    3SOL    HW1   55   0.280   0.248   1.055
    3SOL    HW2   56   0.126   0.261   1.002
    4SOL     OW   57   6.993   0.391   0.657
    4SOL    HW1   58   6.938   0.409   0.739
    4SOL    HW2   59   0.023   0.295   0.658
    5SOL     OW   60   0.569   1.297   1.186
    5SOL    HW1   61   0.479   1.294   1.143
    5SOL    HW2   62   0.587   1.389   1.220
    6SOL     OW   63   1.563   1.515   0.707
    6SOL    HW1   64   1.521   1.489   0.794
    6SOL    HW2   65   1.493   1.518   0.636
    7SOL     OW   66   1.133   0.701   0.695
    7SOL    HW1   67   1.186   0.784   0.679
    7SOL    HW2   68   1.082   0.710   0.780
    8SOL     OW   69   1.784   0.583   0.200
    8SOL    HW1   70   1.718   0.633   0.145
    8SOL    HW2   71   1.737   0.515   0.256
    9SOL     OW   72   0.744   1.141   1.041
    9SOL    HW1   73   0.675   1.175   1.105
    9SOL    HW2   74   0.788   1.218   0.995
   10SOL     OW   75   0.871   0.766   1.820
   10SOL    HW1   76   0.862   0.834   1.892
   10SOL    HW2   77   0.897   0.811   1.734
   11SOL     OW   78   0.682   0.999   0.651
   11SOL    HW1   79   0.754   0.989   0.720
   11SOL    HW2   80   0.608   1.055   0.688
   12SOL     OW   81   0.713   1.152   1.819
   12SOL    HW1   82   0.765   1.231   1.852
   12SOL    HW2   83   0.628   1.184   1.776
   13SOL     OW   84   0.333   1.421   1.065
   13SOL    HW1   85   0.255   1.379   1.017
   13SOL    HW2   86   0.384   1.478   1.001
   14SOL     OW   87   1.458   1.501   1.358
   14SOL    HW1   88   1.515   1.583   1.365
   14SOL    HW2   89   1.387   1.504   1.428
   15SOL     OW   90   0.451   0.404   1.491
   15SOL    HW1   91   0.536   0.352   1.492
   15SOL    HW2   92   0.373   0.343   1.503
   16SOL     OW   93   1.615   0.460   0.732
   16SOL    HW1   94   1.553   0.487   0.659
   16SOL    HW2   95   1.624   0.535   0.798
   17SOL     OW   96   0.198   1.752   0.466
   17SOL    HW1   97   0.240   1.817   0.529
   17SOL    HW2   98   0.268   1.705   0.414
   18SOL     OW   99   1.137   1.340   1.698
   18SOL    HW1  100   1.184   1.338   1.786
   18SOL    HW2  101   1.081   1.258   1.687
   19SOL     OW  102   0.267   1.466   0.540
   19SOL    HW1  103   0.240   1.558   0.566
   19SOL    HW2  104   0.225   1.400   0.603
   20SOL     OW  105   0.272   1.083   0.910
   20SOL    HW1  106   0.266   0.987   0.937
   20SOL    HW2  107   0.198   1.135   0.953
   21SOL     OW  108   0.601   1.796   1.427
   21SOL    HW1  109   0.516   1.773   1.474
   21SOL    HW2  110   0.631   1.888   1.455
   22SOL     OW  111   0.585   0.967   0.147
   22SOL    HW1  112   0.642   0.989   0.068
   22SOL    HW2  113   0.621   1.012   0.229
   23SOL     OW  114   1.578   0.132   1.447
   23SOL    HW1  115   1.591   0.226   1.416
   23SOL    HW2  116   1.601   0.125   1.544
   24SOL     OW  117   0.133   0.618   0.568
   24SOL    HW1  118   0.069   0.546   0.592
   24SOL    HW2  119   0.124   0.694   0.633
   25SOL     OW  120   1.847   1.763   0.345
   25SOL    HW1  121   1.914   1.730   0.411
   25SOL    HW2  122   1.846   1.863   0.345
   26SOL     OW  123   6.973   1.551   0.121
   26SOL    HW1  124   6.968   1.456   0.150
   26SOL    HW2  125   0.023   1.604   0.189
   27SOL     OW  126   1.691   0.916   0.649
   27SOL    HW1  127   1.774   0.864   0.629
   27SOL    HW2  128   1.668   0.973   0.570
   28SOL     OW  129   1.653   1.099   0.444
   28SOL    HW1  130   1.724   1.117   0.376
   28SOL    HW2  131   1.660   1.167   0.518
   29SOL     OW  132   0.147   0.734   1.575
   29SOL    HW1  133   0.245   0.742   1.560
   29SOL    HW2  134   0.111   0.821   1.608
   30SOL     OW  135   0.612   1.389   0.737
   30SOL    HW1  136   0.565   1.302   0.750
   30SOL    HW2  137   0.601   1.418   0.641
   31SOL     OW  138   1.288   1.235   1.422
   31SOL    HW1  139   1.315   1.164   1.356
   31SOL    HW2  140   1.348   1.231   1.502
   32SOL     OW  141   0.833   0.028   0.521
   32SOL    HW1  142   0.875   0.116   0.501
   32SOL    HW2  143   0.734   0.036   0.520
   33SOL     OW  144   0.203   0.960   1.263
   33SOL    HW1  145   0.287   0.908   1.245
   33SOL    HW2  146   0.132   0.933   1.198
   34SOL     OW  147   1.489   1.016   0.209
   34SOL    HW1  148   1.423   0.950   0.246
   34SOL    HW2  149   1.575   1.009   0.260
   35SOL     OW  150   1.182   1.811   1.622
   35SOL    HW1  151   1.190   1.880   1.550
   35SOL    HW2  152   1.202   1.721   1.585
   36SOL     OW  153   0.329   0.267   1.808
   36SOL    HW1  154   0.388   0.333   1.855
   36SOL    HW2  155   0.238   0.269   1.850
   37SOL     OW  156   1.464   1.421   0.947
   37SOL    HW1  157   1.398   1.440   1.019
   37SOL    HW2  158   1.457   1.325   0.919
   38SOL     OW  159   1.649   1.749   0.580
   38SOL    HW1  160   1.627   1.723   0.486
   38SOL    HW2  161   1.627   1.674   0.642
   39SOL     OW  162   0.594   0.716   0.263
   39SOL    HW1  163   0.600   0.806   0.221
   39SOL    HW2  164   0.529   0.718   0.339
   40SOL     OW  165   1.283   0.367   0.949
   40SOL    HW1  166   1.186   0.343   0.952
   40SOL    HW2  167   1.332   0.316   1.020
   41SOL     OW  168   1.583   1.678   0.317
   41SOL    HW1  169   1.681   1.692   0.311
   41SOL    HW2  170   1.544   1.676   0.225
   42SOL     OW  171   0.793   0.616   1.456
   42SOL    HW1  172   0.765   0.590   1.549
   42SOL    HW2  173   0.755   0.551   1.390
   43SOL     OW  174   1.394   0.473   1.680
   43SOL    HW1  175   1.392   0.520   1.769
   43SOL    HW2  176   1.451   0.392   1.686
   44SOL     OW  177   0.953   0.885   1.583
   44SOL    HW1  178   1.011   0.814   1.544
   44SOL    HW2  179   0.899   0.927   1.509
   45SOL     OW  180   0.995   0.412   1.227
   45SOL    HW1  181   0.909   0.435   1.272
   45SOL    HW2  182   0.976   0.362   1.143
   46SOL     OW  183   1.052   0.700   0.427
   46SOL    HW1  184   1.075   0.697   0.524
   46SOL    HW2  185   0.964   0.654   0.412
   47SOL     OW  186   0.105   0.815   0.772
   47SOL    HW1  187   0.196   0.805   0.812
   47SOL    HW2  188   0.044   0.857   0.839
   48SOL     OW  189   0.120   1.870   1.591
   48SOL    HW1  190   0.131   1.844   1.687
   48SOL    HW2  191   0.030   1.842   1.559
   49SOL     OW  192   0.886   0.370   0.209
   49SOL    HW1  193   0.930   0.423   0.138
   49SOL    HW2  194   0.871   0.276   0.177
   50SOL     OW  195   1.701   0.573   1.825
   50SOL    HW1  196   1.665   0.652   1.776
   50SOL    HW2  197   1.729   0.503   1.759
   51SOL     OW  198   1.381   1.141   0.547
   51SOL    HW1  199   1.467   1.131   0.496
   51SOL    HW2  200   1.323   1.210   0.503
   52SOL     OW  201   0.507   0.197   0.908
   52SOL    HW1  202   0.550   0.223   0.994
   52SOL    HW2  203   0.532   0.262   0.837
   53SOL     OW  204   0.989   1.440   0.471
   53SOL    HW1  205   0.959   1.521   0.422
   53SOL    HW2  206   0.972   1.452   0.569
   54SOL     OW  207   0.358   1.817   0.867
   54SOL    HW1  208   0.397   1.725   0.878
   54SOL    HW2  209   0.427   1.885   0.891
   55SOL     OW  210   1.800   1.054   0.873
   55SOL    HW1  211   1.749   1.034   0.790
   55SOL    HW2  212   1.736   1.061   0.950
   56SOL     OW  213   1.227   1.536   1.514
   56SOL    HW1  214   1.214   1.462   1.580
   56SOL    HW2  215   1.159   1.528   1.441
   57SOL     OW  216   0.308   0.939   0.224
   57SOL    HW1  217   0.400   0.959   0.191
   57SOL    HW2  218   0.282   0.847   0.197
   58SOL     OW  219   1.484   0.747   0.724
   58SOL    HW1  220   1.478   0.707   0.815
   58SOL    HW2  221   1.563   0.808   0.720
   59SOL     OW  222   0.472   1.261   1.728
   59SOL    HW1  223   0.445   1.271   1.632
   59SOL    HW2  224   0.391   1.262   1.786
   60SOL     OW  225   1.119   1.766   0.235
   60SOL    HW1  226   1.049   1.721   0.291
   60SOL    HW2  227   1.157   1.701   0.170
   61SOL     OW  228   0.204   0.279   1.511
   61SOL    HW1  229   0.146   0.359   1.503
   61SOL    HW2  230   0.208   0.250   1.607
   62SOL     OW  231   1.622   1.429   0.073
   62SOL    HW1  232   1.584   1.520   0.086
   62SOL    HW2  233   1.559   1.361   0.112
   63SOL     OW  234   0.482   1.712   0.352
   63SOL    HW1  235   0.514   1.787   0.411
   63SOL    HW2  236   0.558   1.678   0.298
   64SOL     OW  237   1.426   0.133   0.425
   64SOL    HW1  238   1.411   0.062   0.356
   64SOL    HW2  239   1.524   0.142   0.443
   65SOL     OW  240   0.259   1.794   1.223
   65SOL    HW1  241   0.309   1.720   1.267
   65SOL    HW2  242   0.213   1.759   1.141
   66SOL     OW  243   0.936   1.702   0.897
   66SOL    HW1  244   1.019   1.655   0.927
   66SOL    HW2  245   0.893   1.650   0.823
   67SOL     OW  246   0.402   0.687   0.468
   67SOL    HW1  247   0.428   0.592   0.487
   67SOL    HW2  248   0.305   0.699   0.489
   68SOL     OW  249   1.529   0.230   1.727
   68SOL    HW1  250   1.544   0.236   1.825
   68SOL    HW2  251   1.443   0.182   1.709
   69SOL     OW  252   0.625   0.120   0.108
   69SOL    HW1  253   0.724   0.110   0.116
   69SOL    HW2  254   0.600   0.130   0.012
   70SOL     OW  255   0.762   0.277   1.766
   70SOL    HW1  256   0.850   0.231   1.759
   70SOL    HW2  257   0.708   0.235   1.838
   71SOL     OW  258   0.876   1.516   1.192
   71SOL    HW1  259   0.856   1.479   1.101
   71SOL    HW2  260   0.948   1.461   1.235
   72SOL     OW  261   1.342   0.591   1.437
   72SOL    HW1  262   1.371   0.556   1.526
   72SOL    HW2  263   1.377   0.684   1.424
   73SOL     OW  264   0.820   1.389   0.942
   73SOL    HW1  265   0.909   1.378   0.899
   73SOL    HW2  266   0.749   1.394   0.871
   74SOL     OW  267   0.927   0.510   0.896
   74SOL    HW1  268   0.899   0.504   0.800
   74SOL    HW2  269   0.960   0.421   0.927
   75SOL     OW  270   0.571   0.066   0.490
   75SOL    HW1  271   0.492   0.055   0.550
   75SOL    HW2  272   0.552   0.138   0.423
   76SOL     OW  273   1.418   1.212   0.013
   76SOL    HW1  274   1.448   1.133   0.065
   76SOL    HW2  275   1.335   1.249   0.054
   77SOL     OW  276   0.307   0.089   0.171
   77SOL    HW1  277   0.368   0.161   0.204
   77SOL    HW2  278   0.302   0.016   0.240
   78SOL     OW  279   0.952   0.265   0.458
   78SOL    HW1  280   0.920   0.305   0.372
   78SOL    HW2  281   1.052   0.274   0.463
   79SOL     OW  282   1.080   0.684   1.454
   79SOL    HW1  283   1.006   0.618   1.465
   79SOL    HW2  284   1.168   0.635   1.453
   80SOL     OW  285   1.218   1.570   0.795
   80SOL    HW1  286   1.234   1.638   0.724
   80SOL    HW2  287   1.291   1.576   0.863
   81SOL     OW  288   0.469   1.152   0.735
   81SOL    HW1  289   0.401   1.130   0.805
   81SOL    HW2  290   0.429   1.136   0.644
   82SOL     OW  291   1.263   1.792   0.610
   82SOL    HW1  292   1.316   1.855   0.554
   82SOL    HW2  293   1.190   1.842   0.656
   83SOL     OW  294   1.055   0.559   0.034
   83SOL    HW1  295   0.967   0.604   0.048
   83SOL    HW2  296   1.110   0.566   0.117
   84SOL     OW  297   0.082   0.540   1.381
   84SOL    HW1  298   0.176   0.541   1.348
   84SOL    HW2  299   0.069   0.613   1.449
   85SOL     OW  300   0.581   0.240   1.169
   85SOL    HW1  301   0.633   0.166   1.212
   85SOL    HW2  302   0.486   0.236   1.198
   86SOL     OW  303   0.865   0.463   0.637
   86SOL    HW1  304   0.818   0.524   0.574
   86SOL    HW2  305   0.894   0.380   0.589
   87SOL     OW  306   0.959   0.027   0.772
   87SOL    HW1  307   0.904   0.028   0.688
   87SOL    HW2  308   1.031   6.958   0.763
   88SOL     OW  309   1.447   1.161   0.860
   88SOL    HW1  310   1.370   1.098   0.861
   88SOL    HW2  311   1.481   1.172   0.767
   89SOL     OW  312   1.466   0.609   0.971
   89SOL    HW1  313   1.405   0.530   0.972
   89SOL    HW2  314   1.529   0.603   1.049
   90SOL     OW  315   1.828   0.804   0.392
   90SOL    HW1  316   1.889   0.744   0.444
   90SOL    HW2  317   1.822   0.771   0.298
   91SOL     OW  318   0.477   1.418   0.172
   91SOL    HW1  319   0.436   1.353   0.236
   91SOL    HW2  320   0.425   1.418   0.087
   92SOL     OW  321   1.672   1.265   0.654
   92SOL    HW1  322   1.771   1.264   0.661
   92SOL    HW2  323   1.639   1.359   0.666
   93SOL     OW  324   1.389   0.556   0.065
   93SOL    HW1  325   1.334   0.548   0.148
   93SOL    HW2  326   1.463   0.489   0.068
   94SOL     OW  327   0.509   0.259   0.304
   94SOL    HW1  328   0.562   0.204   0.239
   94SOL    HW2  329   0.492   0.350   0.265
   95SOL     OW  330   1.753   1.241   1.561
   95SOL    HW1  331   1.842   1.199   1.548
   95SOL    HW2  332   1.764   1.334   1.595
   96SOL     OW  333   1.053   1.350   1.336
   96SOL    HW1  334   0.972   1.320   1.386
   96SOL    HW2  335   1.135   1.310   1.378
   97SOL     OW  336   1.614   1.630   1.657
   97SOL    HW1  337   1.598   1.665   1.565
   97SOL    HW2  338   1.699   1.578   1.659
   98SOL     OW  339   1.137   1.219   1.105
   98SOL    HW1  340   1.077   1.253   1.177
   98SOL    HW2  341   1.103   1.250   1.016
   99SOL     OW  342   1.624   1.096   1.079
   99SOL    HW1  343   1.619   1.162   1.155
   99SOL    HW2  344   1.549   1.113   1.016
  100SOL     OW  345   0.895   0.149   1.388
  100SOL    HW1  346   0.911   0.114   1.295
  100SOL    HW2  347   0.981   0.177   1.429
  101SOL     OW  348   0.980   1.114   1.721
  101SOL    HW1  349   0.886   1.134   1.748
  101SOL    HW2  350   0.982   1.032   1.664
  102SOL     OW  351   0.713   1.058   0.376
  102SOL    HW1  352   0.695   1.041   0.473
  102SOL    HW2  353   0.793   1.005   0.347
  103SOL     OW  354   0.430   0.807   1.248
  103SOL    HW1  355   0.501   0.822   1.318
  103SOL    HW2  356   0.388   0.717   1.262
  104SOL     OW  357   1.260   0.378   1.286
  104SOL    HW1  358   1.298   0.457   1.335
  104SOL    HW2  359   1.166   0.397   1.260
  105SOL     OW  360   0.068   1.565   1.319
  105SOL    HW1  361   0.018   1.650   1.334
  105SOL    HW2  362   0.165   1.579   1.339
  106SOL     OW  363   0.355   1.099   0.495
  106SOL    HW1  364   0.336   1.173   0.430
  106SOL    HW2  365   0.360   1.013   0.445
  107SOL     OW  366   0.551   0.548   0.863
  107SOL    HW1  367   0.565   0.606   0.783
  107SOL    HW2  368   0.621   0.567   0.931
  108SOL     OW  369   1.238   1.343   0.408
  108SOL    HW1  370   1.300   1.417   0.433
  108SOL    HW2  371   1.145   1.367   0.437
  109SOL     OW  372   1.287   1.462   1.147
  109SOL    HW1  373   1.346   1.467   1.228
  109SOL    HW2  374   1.233   1.378   1.151
  110SOL     OW  375   1.583   0.633   0.484
  110SOL    HW1  376   1.527   0.681   0.552
  110SOL    HW2  377   1.644   0.698   0.439
  111SOL     OW  378   0.351   1.533   1.309
  111SOL    HW1  379   0.332   1.486   1.223
  111SOL    HW2  380   0.450   1.545   1.319
  112SOL     OW  381   0.425   0.734   1.598
  112SOL    HW1  382   0.484   0.788   1.538
  112SOL    HW2  383   0.472   0.648   1.621
  113SOL     OW  384   1.608   0.786   1.685
  113SOL    HW1  385   1.517   0.826   1.682
  113SOL    HW2  386   1.665   0.826   1.613
  114SOL     OW  387   0.997   0.136   1.735
  114SOL    HW1  388   1.040   0.181   1.657
  114SOL    HW2  389   1.000   0.037   1.721
  115SOL     OW  390   0.471   0.040   1.758
  115SOL    HW1  391   0.412   6.969   1.720
  115SOL    HW2  392   0.417   0.124   1.771
  116SOL     OW  393   0.588   0.873   1.032
  116SOL    HW1  394   0.619   0.968   1.028
  116SOL    HW2  395   0.528   0.860   1.111
  117SOL     OW  396   1.352   0.857   1.025
  117SOL    HW1  397   1.261   0.850   0.982
  117SOL    HW2  398   1.399   0.770   1.016
  118SOL     OW  399   1.199   0.523   0.272
  118SOL    HW1  400   1.217   0.444   0.331
  118SOL    HW2  401   1.157   0.596   0.326
  119SOL     OW  402   0.325   0.212   1.246
  119SOL    HW1  403   0.273   0.233   1.329
  119SOL    HW2  404   0.298   0.122   1.212
  120SOL     OW  405   0.096   1.306   1.263
  120SOL    HW1  406   0.105   1.244   1.341
  120SOL    HW2  407   0.087   1.400   1.297
  121SOL     OW  408   0.729   0.636   1.055
  121SOL    HW1  409   0.804   0.615   0.992
  121SOL    HW2  410   0.693   0.727   1.034
  122SOL     OW  411   1.736   0.960   1.856
  122SOL    HW1  412   1.693   0.892   1.797
  122SOL    HW2  413   1.676   0.980   1.934
  123SOL     OW  414   0.344   0.063   0.625
  123SOL    HW1  415   0.313   0.147   0.670
  123SOL    HW2  416   0.289   6.986   0.657
  124SOL     OW  417   1.627   0.398   0.354
  124SOL    HW1  418   1.658   0.323   0.412
  124SOL    HW2  419   1.601   0.476   0.411
  125SOL     OW  420   1.025   0.756   0.958
  125SOL    HW1  421   1.020   0.778   1.055
  125SOL    HW2  422   0.997   0.661   0.943
  126SOL     OW  423   0.982   1.563   1.717
  126SOL    HW1  424   0.965   1.610   1.631
  126SOL    HW2  425   1.030   1.477   1.699
  127SOL     OW  426   1.855   1.503   1.604
  127SOL    HW1  427   1.873   1.529   1.509
  127SOL    HW2  428   1.938   1.515   1.658
  128SOL     OW  429   0.365   0.916   1.798
  128SOL    HW1  430   0.442   0.942   1.857
  128SOL    HW2  431   0.395   0.848   1.731
  129SOL     OW  432   1.521   0.268   0.138
  129SOL    HW1  433   1.449   0.202   0.160
  129SOL    HW2  434   1.552   0.312   0.223
  130SOL     OW  435   1.289   0.820   0.032
  130SOL    HW1  436   1.339   0.734   0.024
  130SOL    HW2  437   1.317   0.881   6.958
  131SOL     OW  438   1.069   1.338   0.855
  131SOL    HW1  439   1.073   1.259   0.792
  131SOL    HW2  440   1.128   1.411   0.821
  132SOL     OW  441   0.321   0.802   0.941
  132SOL    HW1  442   0.417   0.829   0.941
  132SOL    HW2  443   0.313   0.709   0.976
  133SOL     OW  444   0.331   0.529   1.012
  133SOL    HW1  445   0.288   0.441   0.995
  133SOL    HW2  446   0.412   0.538   0.955
  134SOL     OW  447   1.125   0.412   1.672
  134SOL    HW1  448   1.077   0.453   1.749
  134SOL    HW2  449   1.223   0.432   1.679
  135SOL     OW  450   1.135   0.225   1.486
  135SOL    HW1  451   1.134   0.300   1.552
  135SOL    HW2  452   1.192   0.249   1.407
  136SOL     OW  453   6.994   1.298   0.222
  136SOL    HW1  454   6.925   1.322   0.290
  136SOL    HW2  455   0.025   1.205   0.237
  137SOL     OW  456   0.098   1.758   0.949
  137SOL    HW1  457   0.075   1.684   0.885
  137SOL    HW2  458   0.184   1.800   0.923
  138SOL     OW  459   0.493   1.578   0.903
  138SOL    HW1  460   0.563   1.644   0.931
  138SOL    HW2  461   0.534   1.509   0.843
  139SOL     OW  462   0.976   0.794   1.224
  139SOL    HW1  463   1.035   0.769   1.300
  139SOL    HW2  464   0.886   0.752   1.236
  140SOL     OW  465   0.051   0.600   1.108
  140SOL    HW1  466   0.133   0.566   1.062
  140SOL    HW2  467   0.057   0.580   1.206
  141SOL     OW  468   0.203   0.521   1.727
  141SOL    HW1  469   0.290   0.482   1.697
  141SOL    HW2  470   0.185   0.605   1.676
  142SOL     OW  471   1.380   0.935   1.655
  142SOL    HW1  472   1.403   1.033   1.656
  142SOL    HW2  473   1.377   0.903   1.560
  143SOL     OW  474   0.814   0.578   0.373
  143SOL    HW1  475   0.827   0.499   0.314
  143SOL    HW2  476   0.733   0.629   0.343
  144SOL     OW  477   1.642   0.605   1.180
  144SOL    HW1  478   1.623   0.544   1.258
  144SOL    HW2  479   1.733   0.585   1.145
  145SOL     OW  480   0.285   1.560   1.740
  145SOL    HW1  481   0.230   1.628   1.789
  145SOL    HW2  482   0.266   1.469   1.776
  146SOL     OW  483   0.708   0.462   1.256
  146SOL    HW1  484   0.657   0.381   1.228
  146SOL    HW2  485   0.708   0.529   1.182
  147SOL     OW  486   0.921   1.681   1.471
  147SOL    HW1  487   0.895   1.634   1.387
  147SOL    HW2  488   0.920   1.780   1.457
  148SOL     OW  489   0.454   0.493   0.182
  148SOL    HW1  490   0.511   0.572   0.203
  148SOL    HW2  491   0.359   0.513   0.205
  149SOL     OW  492   0.165   1.123   1.470
  149SOL    HW1  493   0.154   1.062   1.549
  149SOL    HW2  494   0.179   1.068   1.387
  150SOL     OW  495   1.315   1.044   1.219
  150SOL    HW1  496   1.343   0.976   1.151
  150SOL    HW2  497   1.248   1.106   1.179
  151SOL     OW  498   1.301   0.844   0.306
  151SOL    HW1  499   1.219   0.816   0.357
  151SOL    HW2  500   1.288   0.825   0.209
  152SOL     OW  501   1.781   1.730   1.157
  152SOL    HW1  502   1.842   1.764   1.085
  152SOL    HW2  503   1.749   1.638   1.133
  153SOL     OW  504   1.241   1.733   1.106
  153SOL    HW1  505   1.327   1.762   1.063
  153SOL    HW2  506   1.246   1.636   1.129
  154SOL     OW  507   0.071   1.245   1.005
  154SOL    HW1  508   0.088   1.265   1.101
  154SOL    HW2  509   6.973   1.231   0.991
  155SOL     OW  510   0.682   1.674   1.737
  155SOL    HW1  511   0.617   1.750   1.732
  155SOL    HW2  512   0.753   1.686   1.667
  156SOL     OW  513   0.894   0.111   0.129
  156SOL    HW1  514   0.983   0.137   0.093
  156SOL    HW2  515   0.904   0.032   0.189
  157SOL     OW  516   1.718   0.175   0.482
  157SOL    HW1  517   1.795   0.147   0.425
  157SOL    HW2  518   1.704   0.108   0.555
  158SOL     OW  519   1.389   1.566   0.491
  158SOL    HW1  520   1.455   1.592   0.421
  158SOL    HW2  521   1.339   1.647   0.521
  159SOL     OW  522   0.139   1.785   1.853
  159SOL    HW1  523   0.094   1.712   1.903
  159SOL    HW2  524   0.194   1.840   1.916
  160SOL     OW  525   1.282   0.924   0.669
  160SOL    HW1  526   1.357   0.860   0.684
  160SOL    HW2  527   1.316   1.002   0.617
  161SOL     OW  528   0.803   1.279   1.426
  161SOL    HW1  529   0.775   1.322   1.512
  161SOL    HW2  530   0.734   1.294   1.356
  162SOL     OW  531   0.674   1.605   0.192
  162SOL    HW1  532   0.680   1.651   0.103
  162SOL    HW2  533   0.617   1.523   0.183
  163SOL     OW  534   1.617   1.728   1.387
  163SOL    HW1  535   1.675   1.729   1.306
  163SOL    HW2  536   1.603   1.822   1.419
  164SOL     OW  537   1.867   0.161   0.956
  164SOL    HW1  538   1.864   0.061   0.947
  164SOL    HW2  539   1.775   0.198   0.939
  165SOL     OW  540   0.285   0.336   0.717
  165SOL    HW1  541   0.199   0.378   0.690
  165SOL    HW2  542   0.282   0.310   0.813
  166SOL     OW  543   1.217   1.595   0.037
  166SOL    HW1  544   1.211   1.501   0.070
  166SOL    HW2  545   1.130   1.621   6.994
  167SOL     OW  546   0.823   1.010   1.378
  167SOL    HW1  547   0.873   0.995   1.293
  167SOL    HW2  548   0.820   1.108   1.397
  168SOL     OW  549   0.923   0.914   0.293
  168SOL    HW1  550   0.978   0.942   0.214
  168SOL    HW2  551   0.971   0.842   0.343
  169SOL     OW  552   1.479   1.671   0.049
  169SOL    HW1  553   1.384   1.641   0.042
  169SOL    HW2  554   1.523   1.663   6.959
  170SOL     OW  555   0.372   1.307   1.486
  170SOL    HW1  556   0.359   1.388   1.428
  170SOL    HW2  557   0.302   1.239   1.464
  171SOL     OW  558   1.613   1.284   1.284
  171SOL    HW1  559   1.676   1.265   1.359
  171SOL    HW2  560   1.547   1.354   1.313
  172SOL     OW  561   1.061   1.106   0.715
  172SOL    HW1  562   0.984   1.056   0.755
  172SOL    HW2  563   1.129   1.041   0.680
  173SOL     OW  564   1.024   0.249   0.952
  173SOL    HW1  565   1.002   0.202   0.866
  173SOL    HW2  566   1.014   0.185   1.028
  174SOL     OW  567   0.612   1.482   0.483
  174SOL    HW1  568   0.654   1.430   0.409
  174SOL    HW2  569   0.539   1.540   0.446
  175SOL     OW  570   1.733   0.392   1.376
  175SOL    HW1  571   1.802   0.464   1.381
  175SOL    HW2  572   1.770   0.315   1.323
  176SOL     OW  573   0.284   1.301   0.332
  176SOL    HW1  574   0.197   1.300   0.282
  176SOL    HW2  575   0.279   1.366   0.408
  177SOL     OW  576   0.120   0.973   1.703
  177SOL    HW1  577   0.066   1.024   1.770
  177SOL    HW2  578   0.211   0.955   1.740
  178SOL     OW  579   0.670   0.238   1.508
  178SOL    HW1  580   0.751   0.211   1.456
  178SOL    HW2  581   0.699   0.268   1.599
  179SOL     OW  582   0.067   0.424   0.051
  179SOL    HW1  583   6.982   0.374   0.067
  179SOL    HW2  584   0.104   0.400   6.961
  180SOL     OW  585   1.424   0.858   1.395
  180SOL    HW1  586   1.368   0.921   1.342
  180SOL    HW2  587   1.518   0.859   1.361
  181SOL     OW  588   0.023   0.179   0.328
  181SOL    HW1  589   0.082   0.258   0.313
  181SOL    HW2  590   0.059   0.100   0.279
  182SOL     OW  591   1.187   1.343   0.130
  182SOL    HW1  592   1.089   1.328   0.115
  182SOL    HW2  593   1.207   1.335   0.228
  183SOL     OW  594   0.625   0.830   1.434
  183SOL    HW1  595   0.680   0.912   1.419
  183SOL    HW2  596   0.685   0.751   1.445
  184SOL     OW  597   1.485   1.789   0.988
  184SOL    HW1  598   1.507   1.850   0.912
  184SOL    HW2  599   1.569   1.752   1.027
  185SOL     OW  600   0.716   0.560   1.708
  185SOL    HW1  601   0.764   0.630   1.761
  185SOL    HW2  602   0.739   0.469   1.744
  186SOL     OW  603   1.474   1.196   1.634
  186SOL    HW1  604   1.459   1.210   1.732
  186SOL    HW2  605   1.570   1.215   1.613
  187SOL     OW  606   0.371   1.746   1.563
  187SOL    HW1  607   0.284   1.792   1.548
  187SOL    HW2  608   0.356   1.662   1.615
  188SOL     OW  609   1.666   0.879   1.256
  188SOL    HW1  610   1.661   0.788   1.214
  188SOL    HW2  611   1.653   0.948   1.185
  189SOL     OW  612   1.226   0.317   0.455
  189SOL    HW1  613   1.295   0.246   0.444
  189SOL    HW2  614   1.246   0.372   0.536
  190SOL     OW  615   0.589   0.737   0.667
  190SOL    HW1  616   0.629   0.829   0.659
  190SOL    HW2  617   0.519   0.726   0.596
  191SOL     OW  618   1.750   0.369   1.648
  191SOL    HW1  619   1.741   0.384   1.550
  191SOL    HW2  620   1.677   0.308   1.679
  192SOL     OW  621   1.753   0.932   1.509
  192SOL    HW1  622   1.740   1.029   1.531
  192SOL    HW2  623   1.731   0.917   1.413
  193SOL     OW  624   0.904   1.383   0.053
  193SOL    HW1  625   0.841   1.358   0.127
  193SOL    HW2  626   0.906   1.482   0.043
  194SOL     OW  627   0.666   1.787   0.941
  194SOL    HW1  628   0.644   1.882   0.919
  194SOL    HW2  629   0.764   1.771   0.931
  195SOL     OW  630   0.869   0.970   0.856
  195SOL    HW1  631   0.920   0.893   0.893
  195SOL    HW2  632   0.826   1.021   0.932
  196SOL     OW  633   1.079   0.983   0.079
  196SOL    HW1  634   1.081   1.046   0.001
  196SOL    HW2  635   1.158   0.922   0.075
  197SOL     OW  636   1.846   1.558   0.846
  197SOL    HW1  637   1.769   1.544   0.783
  197SOL    HW2  638   1.846   1.485   0.915
  198SOL     OW  639   0.242   1.308   1.865
  198SOL    HW1  640   0.150   1.276   1.843
  198SOL    HW2  641   0.252   1.318   1.964
  199SOL     OW  642   0.149   1.276   0.692
  199SOL    HW1  643   0.095   1.230   0.762
  199SOL    HW2  644   0.184   1.207   0.628
  200SOL     OW  645   0.686   1.409   1.635
  200SOL    HW1  646   0.604   1.359   1.664
  200SOL    HW2  647   0.681   1.502   1.671
  201SOL     OW  648   1.851   0.183   1.246
  201SOL    HW1  649   1.772   0.123   1.240
  201SOL    HW2  650   1.880   0.209   1.154
  202SOL     OW  651   0.454   0.432   0.524
  202SOL    HW1  652   0.488   0.356   0.469
  202SOL    HW2  653   0.407   0.397   0.605
  203SOL     OW  654   1.692   1.484   1.095
  203SOL    HW1  655   1.612   1.465   1.038
  203SOL    HW2  656   1.700   1.412   1.164
  204SOL     OW  657   0.334   0.553   1.289
  204SOL    HW1  658   0.394   0.500   1.349
  204SOL    HW2  659   0.351   0.528   1.194
  205SOL     OW  660   0.827   1.579   0.681
  205SOL    HW1  661   0.815   1.637   0.600
  205SOL    HW2  662   0.750   1.515   0.688
  206SOL     OW  663   1.413   0.216   1.130
  206SOL    HW1  664   1.495   0.172   1.167
  206SOL    HW2  665   1.365   0.265   1.203
  207SOL     OW  666   0.976   0.055   1.137
  207SOL    HW1  667   0.920   6.991   1.084
  207SOL    HW2  668   1.032   0.005   1.203
  208SOL     OW  669   0.781   1.320   0.310
  208SOL    HW1  670   0.749   1.227   0.329
  208SOL    HW2  671   0.860   1.340   0.368
  209SOL     OW  672   0.626   1.559   1.290
  209SOL    HW1  673   0.623   1.645   1.339
  209SOL    HW2  674   0.716   1.547   1.249
  210SOL     OW  675   1.345   0.057   0.156
  210SOL    HW1  676   1.360   6.961   0.134
  210SOL    HW2  677   1.249   0.080   0.141
  211SOL     OW  678   1.268   0.452   0.687
  211SOL    HW1  679   1.223   0.542   0.683
  211SOL    HW2  680   1.287   0.429   0.782
  212SOL     OW  681   1.619   0.256   0.913
  212SOL    HW1  682   1.530   0.238   0.956
  212SOL    HW2  683   1.607   0.322   0.839
  213SOL     OW  684   0.074   1.053   0.311
  213SOL    HW1  685   0.164   1.011   0.299
  213SOL    HW2  686   0.004   0.982   0.312
  214SOL     OW  687   0.890   1.663   0.353
  214SOL    HW1  688   0.814   1.635   0.294
  214SOL    HW2  689   0.861   1.742   0.407
  215SOL     OW  690   0.194   0.649   1.990
  215SOL    HW1  691   0.169   0.581   2.058
  215SOL    HW2  692   0.219   0.603   1.904
  216SOL     OW  693   0.221   0.289   2.848
  216SOL    HW1  694   0.280   0.248   2.917
  216SOL    HW2  695   0.126   0.261   2.864
  217SOL     OW  696   6.996   0.391   2.519
  217SOL    HW1  697   6.940   0.409   2.600
  217SOL    HW2  698   0.024   0.295   2.518
  218SOL     OW  699   0.569   1.297   3.048
  218SOL    HW1  700   0.479   1.295   3.005
  218SOL    HW2  701   0.587   1.389   3.083
  219SOL     OW  702   1.565   1.513   2.569
  219SOL    HW1  703   1.522   1.489   2.657
  219SOL    HW2  704   1.494   1.520   2.499
  220SOL     OW  705   1.134   0.702   2.557
  220SOL    HW1  706   1.186   0.786   2.540
  220SOL    HW2  707   1.083   0.711   2.643
  221SOL     OW  708   1.768   0.602   2.084
  221SOL    HW1  709   1.747   0.598   1.986
  221SOL    HW2  710   1.730   0.521   2.130
  222SOL     OW  711   0.743   1.141   2.902
  222SOL    HW1  712   0.675   1.176   2.967
  222SOL    HW2  713   0.788   1.218   2.856
  223SOL     OW  714   0.871   0.766   3.682
  223SOL    HW1  715   0.863   0.834   3.754
  223SOL    HW2  716   0.897   0.811   3.596
  224SOL     OW  717   0.683   1.001   2.512
  224SOL    HW1  718   0.755   0.990   2.581
  224SOL    HW2  719   0.608   1.056   2.550
  225SOL     OW  720   0.713   1.152   3.681
  225SOL    HW1  721   0.765   1.231   3.714
  225SOL    HW2  722   0.628   1.184   3.638
  226SOL     OW  723   0.333   1.420   2.927
  226SOL    HW1  724   0.255   1.381   2.879
  226SOL    HW2  725   0.385   1.478   2.863
  227SOL     OW  726   1.458   1.502   3.220
  227SOL    HW1  727   1.515   1.583   3.227
  227SOL    HW2  728   1.387   1.504   3.290
  228SOL     OW  729   0.451   0.405   3.353
  228SOL    HW1  730   0.536   0.352   3.354
  228SOL    HW2  731   0.373   0.343   3.365
  229SOL     OW  732   1.616   0.457   2.591
  229SOL    HW1  733   1.555   0.487   2.517
  229SOL    HW2  734   1.625   0.530   2.659
  230SOL     OW  735   0.226   1.710   2.328
  230SOL    HW1  736   0.241   1.789   2.387
  230SOL    HW2  737   0.297   1.707   2.258
  231SOL     OW  738   1.137   1.340   3.559
  231SOL    HW1  739   1.184   1.338   3.648
  231SOL    HW2  740   1.081   1.258   3.549
  232SOL     OW  741   0.277   1.443   2.382
  232SOL    HW1  742   0.254   1.540   2.388
  232SOL    HW2  743   0.227   1.392   2.452
  233SOL     OW  744   0.270   1.082   2.769
  233SOL    HW1  745   0.266   0.987   2.797
  233SOL    HW2  746   0.198   1.134   2.815
  234SOL     OW  747   0.602   1.796   3.289
  234SOL    HW1  748   0.516   1.773   3.336
  234SOL    HW2  749   0.631   1.888   3.317
  235SOL     OW  750   0.581   0.988   2.003
  235SOL    HW1  751   0.629   1.035   1.929
  235SOL    HW2  752   0.620   1.015   2.091
  236SOL     OW  753   1.578   0.132   3.309
  236SOL    HW1  754   1.591   0.226   3.278
  236SOL    HW2  755   1.602   0.125   3.406
  237SOL     OW  756   0.131   0.620   2.430
  237SOL    HW1  757   0.070   0.545   2.456
  237SOL    HW2  758   0.121   0.695   2.495
  238SOL     OW  759   1.846   1.756   2.195
  238SOL    HW1  760   1.916   1.725   2.259
  238SOL    HW2  761   1.862   1.851   2.171
  239SOL     OW  762   0.036   1.592   2.009
  239SOL    HW1  763   0.026   1.494   2.022
  239SOL    HW2  764   6.960   1.639   2.054
  240SOL     OW  765   1.690   0.920   2.509
  240SOL    HW1  766   1.775   0.870   2.493
  240SOL    HW2  767   1.668   0.974   2.428
  241SOL     OW  768   1.653   1.104   2.294
  241SOL    HW1  769   1.742   1.101   2.249
  241SOL    HW2  770   1.655   1.171   2.368
  242SOL     OW  771   0.147   0.734   3.437
  242SOL    HW1  772   0.245   0.741   3.422
  242SOL    HW2  773   0.111   0.821   3.470
  243SOL     OW  774   0.612   1.390   2.597
  243SOL    HW1  775   0.565   1.303   2.610
  243SOL    HW2  776   0.599   1.421   2.502
  244SOL     OW  777   1.288   1.235   3.284
  244SOL    HW1  778   1.315   1.164   3.218
  244SOL    HW2  779   1.348   1.231   3.364
  245SOL     OW  780   0.833   0.027   2.381
  245SOL    HW1  781   0.873   0.116   2.361
  245SOL    HW2  782   0.733   0.033   2.380
  246SOL     OW  783   0.204   0.960   3.125
  246SOL    HW1  784   0.288   0.908   3.107
  246SOL    HW2  785   0.133   0.932   3.060
  247SOL     OW  786   1.532   1.000   2.066
  247SOL    HW1  787   1.458   0.939   2.096
  247SOL    HW2  788   1.579   1.038   2.146
  248SOL     OW  789   1.182   1.811   3.484
  248SOL    HW1  790   1.190   1.880   3.411
  248SOL    HW2  791   1.202   1.721   3.447
  249SOL     OW  792   0.328   0.267   3.670
  249SOL    HW1  793   0.388   0.333   3.717
  249SOL    HW2  794   0.238   0.269   3.712
  250SOL     OW  795   1.465   1.420   2.809
  250SOL    HW1  796   1.398   1.439   2.881
  250SOL    HW2  797   1.457   1.325   2.781
  251SOL     OW  798   1.650   1.749   2.438
  251SOL    HW1  799   1.633   1.720   2.344
  251SOL    HW2  800   1.629   1.674   2.500
  252SOL     OW  801   0.591   0.718   2.127
  252SOL    HW1  802   0.600   0.805   2.081
  252SOL    HW2  803   0.526   0.727   2.203
  253SOL     OW  804   1.283   0.367   2.811
  253SOL    HW1  805   1.186   0.343   2.814
  253SOL    HW2  806   1.332   0.316   2.881
  254SOL     OW  807   1.583   1.673   2.170
  254SOL    HW1  808   1.679   1.700   2.166
  254SOL    HW2  809   1.550   1.655   2.077
  255SOL     OW  810   0.792   0.616   3.318
  255SOL    HW1  811   0.765   0.590   3.411
  255SOL    HW2  812   0.755   0.551   3.253
  256SOL     OW  813   1.394   0.473   3.542
  256SOL    HW1  814   1.392   0.520   3.631
  256SOL    HW2  815   1.451   0.391   3.548
  257SOL     OW  816   0.953   0.885   3.445
  257SOL    HW1  817   1.011   0.813   3.406
  257SOL    HW2  818   0.899   0.927   3.372
  258SOL     OW  819   0.995   0.412   3.089
  258SOL    HW1  820   0.909   0.434   3.134
  258SOL    HW2  821   0.976   0.361   3.005
  259SOL     OW  822   1.050   0.698   2.287
  259SOL    HW1  823   1.072   0.694   2.385
  259SOL    HW2  824   0.964   0.652   2.270
  260SOL     OW  825   0.102   0.817   2.636
  260SOL    HW1  826   0.195   0.807   2.672
  260SOL    HW2  827   0.042   0.853   2.708
  261SOL     OW  828   0.120   1.870   3.453
  261SOL    HW1  829   0.131   1.845   3.549
  261SOL    HW2  830   0.030   1.842   3.421
  262SOL     OW  831   0.890   0.356   2.062
  262SOL    HW1  832   0.936   0.416   1.997
  262SOL    HW2  833   0.867   0.270   2.016
  263SOL     OW  834   1.701   0.573   3.687
  263SOL    HW1  835   1.665   0.652   3.638
  263SOL    HW2  836   1.729   0.503   3.621
  264SOL     OW  837   1.380   1.143   2.396
  264SOL    HW1  838   1.464   1.128   2.345
  264SOL    HW2  839   1.323   1.210   2.348
  265SOL     OW  840   0.506   0.197   2.770
  265SOL    HW1  841   0.550   0.224   2.856
  265SOL    HW2  842   0.531   0.262   2.698
  266SOL     OW  843   0.995   1.443   2.326
  266SOL    HW1  844   0.963   1.523   2.276
  266SOL    HW2  845   0.979   1.456   2.424
  267SOL     OW  846   0.357   1.819   2.729
  267SOL    HW1  847   0.397   1.728   2.740
  267SOL    HW2  848   0.426   1.888   2.750
  268SOL     OW  849   1.798   1.057   2.734
  268SOL    HW1  850   1.746   1.034   2.651
  268SOL    HW2  851   1.735   1.062   2.812
  269SOL     OW  852   1.227   1.536   3.376
  269SOL    HW1  853   1.214   1.462   3.442
  269SOL    HW2  854   1.158   1.528   3.304
  270SOL     OW  855   0.317   0.946   2.112
  270SOL    HW1  856   0.405   0.971   2.071
  270SOL    HW2  857   0.289   0.856   2.077
  271SOL     OW  858   1.483   0.750   2.586
  271SOL    HW1  859   1.477   0.706   2.676
  271SOL    HW2  860   1.563   0.810   2.584
  272SOL     OW  861   0.472   1.261   3.590
  272SOL    HW1  862   0.445   1.271   3.494
  272SOL    HW2  863   0.391   1.262   3.648
  273SOL     OW  864   1.122   1.776   2.089
  273SOL    HW1  865   1.042   1.738   2.137
  273SOL    HW2  866   1.151   1.712   2.018
  274SOL     OW  867   0.204   0.278   3.373
  274SOL    HW1  868   0.146   0.359   3.365
  274SOL    HW2  869   0.208   0.249   3.469
  275SOL     OW  870   1.625   1.382   1.950
  275SOL    HW1  871   1.586   1.473   1.935
  275SOL    HW2  872   1.555   1.312   1.931
  276SOL     OW  873   0.468   1.734   2.179
  276SOL    HW1  874   0.509   1.796   2.247
  276SOL    HW2  875   0.540   1.698   2.119
  277SOL     OW  876   1.425   0.132   2.287
  277SOL    HW1  877   1.404   0.088   2.200
  277SOL    HW2  878   1.524   0.138   2.299
  278SOL     OW  879   0.258   1.794   3.085
  278SOL    HW1  880   0.309   1.720   3.129
  278SOL    HW2  881   0.214   1.759   3.002
  279SOL     OW  882   0.936   1.702   2.758
  279SOL    HW1  883   1.018   1.655   2.790
  279SOL    HW2  884   0.894   1.650   2.684
  280SOL     OW  885   0.399   0.688   2.333
  280SOL    HW1  886   0.427   0.593   2.349
  280SOL    HW2  887   0.303   0.699   2.356
  281SOL     OW  888   1.529   0.230   3.589
  281SOL    HW1  889   1.543   0.236   3.688
  281SOL    HW2  890   1.443   0.182   3.570
  282SOL     OW  891   0.645   0.111   1.965
  282SOL    HW1  892   0.685   0.036   2.018
  282SOL    HW2  893   0.584   0.073   1.896
  283SOL     OW  894   0.762   0.277   3.628
  283SOL    HW1  895   0.851   0.231   3.621
  283SOL    HW2  896   0.708   0.235   3.700
  284SOL     OW  897   0.876   1.515   3.054
  284SOL    HW1  898   0.856   1.479   2.963
  284SOL    HW2  899   0.948   1.461   3.096
  285SOL     OW  900   1.342   0.591   3.299
  285SOL    HW1  901   1.371   0.556   3.388
  285SOL    HW2  902   1.377   0.684   3.287
  286SOL     OW  903   0.820   1.389   2.803
  286SOL    HW1  904   0.910   1.378   2.761
  286SOL    HW2  905   0.750   1.395   2.732
  287SOL     OW  906   0.927   0.511   2.757
  287SOL    HW1  907   0.899   0.505   2.662
  287SOL    HW2  908   0.959   0.421   2.788
  288SOL     OW  909   0.569   0.063   2.346
  288SOL    HW1  910   0.492   0.054   2.409
  288SOL    HW2  911   0.553   0.140   2.285
  289SOL     OW  912   1.426   1.199   1.905
  289SOL    HW1  913   1.459   1.121   1.959
  289SOL    HW2  914   1.337   1.228   1.941
  290SOL     OW  915   0.307   0.045   2.059
  290SOL    HW1  916   0.337   0.140   2.046
  290SOL    HW2  917   0.371   6.998   2.119
  291SOL     OW  918   0.951   0.267   2.318
  291SOL    HW1  919   0.920   0.302   2.230
  291SOL    HW2  920   1.050   0.275   2.324
  292SOL     OW  921   1.080   0.684   3.316
  292SOL    HW1  922   1.006   0.618   3.327
  292SOL    HW2  923   1.168   0.635   3.315
  293SOL     OW  924   1.220   1.569   2.656
  293SOL    HW1  925   1.234   1.639   2.586
  293SOL    HW2  926   1.291   1.578   2.726
  294SOL     OW  927   0.467   1.150   2.595
  294SOL    HW1  928   0.401   1.129   2.667
  294SOL    HW2  929   0.424   1.137   2.505
  295SOL     OW  930   1.263   1.792   2.472
  295SOL    HW1  931   1.315   1.854   2.413
  295SOL    HW2  932   1.190   1.842   2.518
  296SOL     OW  933   1.017   0.537   1.895
  296SOL    HW1  934   0.974   0.624   1.871
  296SOL    HW2  935   1.089   0.553   1.962
  297SOL     OW  936   0.081   0.540   3.243
  297SOL    HW1  937   0.176   0.541   3.210
  297SOL    HW2  938   0.069   0.613   3.311
  298SOL     OW  939   0.581   0.241   3.032
  298SOL    HW1  940   0.632   0.165   3.072
  298SOL    HW2  941   0.486   0.236   3.061
  299SOL     OW  942   0.865   0.465   2.498
  299SOL    HW1  943   0.814   0.525   2.437
  299SOL    HW2  944   0.894   0.383   2.448
  300SOL     OW  945   0.959   0.027   2.633
  300SOL    HW1  946   0.904   0.028   2.550
  300SOL    HW2  947   1.030   6.958   2.625
  301SOL     OW  948   1.445   1.161   2.720
  301SOL    HW1  949   1.369   1.097   2.724
  301SOL    HW2  950   1.474   1.172   2.625
  302SOL     OW  951   1.466   0.609   2.832
  302SOL    HW1  952   1.405   0.529   2.834
  302SOL    HW2  953   1.529   0.603   2.910
  303SOL     OW  954   1.842   0.810   2.242
  303SOL    HW1  955   1.900   0.762   2.308
  303SOL    HW2  956   1.812   0.746   2.171
  304SOL     OW  957   0.496   1.421   2.015
  304SOL    HW1  958   0.414   1.395   2.067
  304SOL    HW2  959   0.485   1.392   1.920
  305SOL     OW  960   1.675   1.267   2.506
  305SOL    HW1  961   1.774   1.264   2.517
  305SOL    HW2  962   1.641   1.358   2.526
  306SOL     OW  963   1.391   0.575   1.933
  306SOL    HW1  964   1.328   0.552   2.007
  306SOL    HW2  965   1.485   0.560   1.964
  307SOL     OW  966   0.525   0.262   2.164
  307SOL    HW1  967   0.579   0.211   2.097
  307SOL    HW2  968   0.502   0.352   2.126
  308SOL     OW  969   1.753   1.241   3.423
  308SOL    HW1  970   1.842   1.199   3.410
  308SOL    HW2  971   1.764   1.334   3.457
  309SOL     OW  972   1.053   1.349   3.197
  309SOL    HW1  973   0.972   1.320   3.248
  309SOL    HW2  974   1.135   1.310   3.240
  310SOL     OW  975   1.614   1.629   3.519
  310SOL    HW1  976   1.598   1.665   3.427
  310SOL    HW2  977   1.699   1.578   3.521
  311SOL     OW  978   1.137   1.219   2.967
  311SOL    HW1  979   1.077   1.253   3.039
  311SOL    HW2  980   1.103   1.250   2.878
  312SOL     OW  981   1.624   1.097   2.941
  312SOL    HW1  982   1.620   1.162   3.017
  312SOL    HW2  983   1.548   1.113   2.879
  313SOL     OW  984   0.894   0.150   3.250
  313SOL    HW1  985   0.911   0.114   3.158
  313SOL    HW2  986   0.981   0.177   3.291
  314SOL     OW  987   0.980   1.114   3.583
  314SOL    HW1  988   0.886   1.134   3.610
  314SOL    HW2  989   0.982   1.032   3.526
  315SOL     OW  990   0.711   1.057   2.236
  315SOL    HW1  991   0.695   1.041   2.333
  315SOL    HW2  992   0.790   1.004   2.206
  316SOL     OW  993   0.430   0.807   3.110
  316SOL    HW1  994   0.500   0.822   3.180
  316SOL    HW2  995   0.389   0.717   3.124
  317SOL     OW  996   1.260   0.378   3.148
  317SOL    HW1  997   1.298   0.457   3.197
  317SOL    HW2  998   1.166   0.397   3.122
  318SOL     OW  999   0.068   1.565   3.180
  318SOL    HW1 1000   0.018   1.650   3.196
  318SOL    HW2 1001   0.165   1.579   3.200
  319SOL     OW 1002   0.340   1.116   2.354
  319SOL    HW1 1003   0.351   1.196   2.294
  319SOL    HW2 1004   0.339   1.033   2.299
  320SOL     OW 1005   0.551   0.548   2.725
  320SOL    HW1 1006   0.565   0.607   2.646
  320SOL    HW2 1007   0.621   0.567   2.794
  321SOL     OW 1008   1.246   1.354   2.254
  321SOL    HW1 1009   1.307   1.427   2.285
  321SOL    HW2 1010   1.153   1.374   2.285
  322SOL     OW 1011   1.288   1.462   3.009
  322SOL    HW1 1012   1.346   1.467   3.090
  322SOL    HW2 1013   1.233   1.378   3.014
  323SOL     OW 1014   1.572   0.622   2.347
  323SOL    HW1 1015   1.524   0.677   2.416
  323SOL    HW2 1016   1.625   0.683   2.287
  324SOL     OW 1017   0.351   1.533   3.171
  324SOL    HW1 1018   0.332   1.486   3.085
  324SOL    HW2 1019   0.450   1.545   3.181
  325SOL     OW 1020   0.425   0.733   3.460
  325SOL    HW1 1021   0.484   0.788   3.400
  325SOL    HW2 1022   0.471   0.648   3.483
  326SOL     OW 1023   1.608   0.786   3.547
  326SOL    HW1 1024   1.517   0.826   3.544
  326SOL    HW2 1025   1.665   0.826   3.475
  327SOL     OW 1026   0.998   0.136   3.597
  327SOL    HW1 1027   1.041   0.181   3.518
  327SOL    HW2 1028   0.999   0.037   3.583
  328SOL     OW 1029   0.471   0.040   3.620
  328SOL    HW1 1030   0.412   6.969   3.581
  328SOL    HW2 1031   0.417   0.124   3.633
  329SOL     OW 1032   0.588   0.873   2.894
  329SOL    HW1 1033   0.620   0.968   2.892
  329SOL    HW2 1034   0.528   0.860   2.973
  330SOL     OW 1035   1.351   0.858   2.886
  330SOL    HW1 1036   1.260   0.849   2.846
  330SOL    HW2 1037   1.400   0.770   2.878
  331SOL     OW 1038   1.198   0.527   2.126
  331SOL    HW1 1039   1.211   0.444   2.180
  331SOL    HW2 1040   1.153   0.597   2.181
  332SOL     OW 1041   0.325   0.211   3.108
  332SOL    HW1 1042   0.273   0.232   3.191
  332SOL    HW2 1043   0.298   0.122   3.074
  333SOL     OW 1044   0.097   1.306   3.125
  333SOL    HW1 1045   0.105   1.244   3.203
  333SOL    HW2 1046   0.087   1.400   3.158
  334SOL     OW 1047   0.730   0.636   2.917
  334SOL    HW1 1048   0.804   0.615   2.854
  334SOL    HW2 1049   0.693   0.727   2.895
  335SOL     OW 1050   1.736   0.961   3.718
  335SOL    HW1 1051   1.693   0.892   3.659
  335SOL    HW2 1052   1.676   0.980   3.796
  336SOL     OW 1053   0.347   0.062   2.491
  336SOL    HW1 1054   0.314   0.146   2.533
  336SOL    HW2 1055   0.291   6.985   2.521
  337SOL     OW 1056   1.626   0.393   2.206
  337SOL    HW1 1057   1.656   0.315   2.261
  337SOL    HW2 1058   1.595   0.466   2.267
  338SOL     OW 1059   1.025   0.756   2.820
  338SOL    HW1 1060   1.020   0.778   2.917
  338SOL    HW2 1061   0.997   0.662   2.805
  339SOL     OW 1062   0.983   1.563   3.579
  339SOL    HW1 1063   0.965   1.610   3.493
  339SOL    HW2 1064   1.030   1.477   3.561
  340SOL     OW 1065   1.855   1.503   3.466
  340SOL    HW1 1066   1.873   1.530   3.371
  340SOL    HW2 1067   1.938   1.515   3.520
  341SOL     OW 1068   0.365   0.917   3.660
  341SOL    HW1 1069   0.442   0.942   3.719
  341SOL    HW2 1070   0.395   0.848   3.593
  342SOL     OW 1071   1.539   0.234   1.997
  342SOL    HW1 1072   1.439   0.231   2.005
  342SOL    HW2 1073   1.577   0.293   2.069
  343SOL     OW 1074   1.289   0.826   1.888
  343SOL    HW1 1075   1.329   0.735   1.896
  343SOL    HW2 1076   1.320   0.869   1.803
  344SOL     OW 1077   1.070   1.338   2.717
  344SOL    HW1 1078   1.074   1.260   2.654
  344SOL    HW2 1079   1.129   1.411   2.682
  345SOL     OW 1080   0.322   0.803   2.803
  345SOL    HW1 1081   0.418   0.829   2.803
  345SOL    HW2 1082   0.312   0.710   2.837
  346SOL     OW 1083   0.330   0.530   2.874
  346SOL    HW1 1084   0.287   0.441   2.857
  346SOL    HW2 1085   0.412   0.539   2.817
  347SOL     OW 1086   1.125   0.412   3.534
  347SOL    HW1 1087   1.077   0.454   3.611
  347SOL    HW2 1088   1.223   0.432   3.541
  348SOL     OW 1089   1.135   0.225   3.348
  348SOL    HW1 1090   1.134   0.300   3.414
  348SOL    HW2 1091   1.192   0.249   3.270
  349SOL     OW 1092   6.991   1.322   2.080
  349SOL    HW1 1093   6.919   1.347   2.144
  349SOL    HW2 1094   0.021   1.228   2.097
  350SOL     OW 1095   0.097   1.757   2.811
  350SOL    HW1 1096   0.077   1.683   2.747
  350SOL    HW2 1097   0.183   1.800   2.785
  351SOL     OW 1098   0.494   1.578   2.766
  351SOL    HW1 1099   0.563   1.645   2.793
  351SOL    HW2 1100   0.534   1.510   2.705
  352SOL     OW 1101   0.975   0.794   3.086
  352SOL    HW1 1102   1.035   0.769   3.162
  352SOL    HW2 1103   0.886   0.752   3.097
  353SOL     OW 1104   0.052   0.603   2.971
  353SOL    HW1 1105   0.132   0.565   2.924
  353SOL    HW2 1106   0.057   0.581   3.068
  354SOL     OW 1107   0.203   0.521   3.589
  354SOL    HW1 1108   0.290   0.481   3.559
  354SOL    HW2 1109   0.185   0.605   3.538
  355SOL     OW 1110   1.380   0.935   3.517
  355SOL    HW1 1111   1.403   1.033   3.518
  355SOL    HW2 1112   1.377   0.903   3.422
  356SOL     OW 1113   0.816   0.576   2.221
  356SOL    HW1 1114   0.828   0.495   2.164
  356SOL    HW2 1115   0.737   0.629   2.189
  357SOL     OW 1116   1.642   0.605   3.042
  357SOL    HW1 1117   1.623   0.545   3.119
  357SOL    HW2 1118   1.733   0.586   3.007
  358SOL     OW 1119   0.285   1.560   3.602
  358SOL    HW1 1120   0.230   1.628   3.651
  358SOL    HW2 1121   0.266   1.469   3.638
  359SOL     OW 1122   0.709   0.462   3.119
  359SOL    HW1 1123   0.657   0.381   3.091
  359SOL    HW2 1124   0.709   0.529   3.044
  360SOL     OW 1125   0.921   1.681   3.333
  360SOL    HW1 1126   0.894   1.635   3.248
  360SOL    HW2 1127   0.920   1.780   3.319
  361SOL     OW 1128   0.457   0.492   2.037
  361SOL    HW1 1129   0.520   0.567   2.055
  361SOL    HW2 1130   0.367   0.514   2.076
  362SOL     OW 1131   0.165   1.123   3.332
  362SOL    HW1 1132   0.154   1.062   3.410
  362SOL    HW2 1133   0.179   1.068   3.249
  363SOL     OW 1134   1.316   1.044   3.081
  363SOL    HW1 1135   1.343   0.976   3.013
  363SOL    HW2 1136   1.248   1.106   3.041
  364SOL     OW 1137   1.316   0.856   2.161
  364SOL    HW1 1138   1.239   0.830   2.219
  364SOL    HW2 1139   1.290   0.844   2.065
  365SOL     OW 1140   1.780   1.730   3.018
  365SOL    HW1 1141   1.841   1.764   2.947
  365SOL    HW2 1142   1.749   1.638   2.994
  366SOL     OW 1143   1.241   1.733   2.967
  366SOL    HW1 1144   1.327   1.762   2.924
  366SOL    HW2 1145   1.247   1.636   2.991
  367SOL     OW 1146   0.071   1.244   2.867
  367SOL    HW1 1147   0.088   1.264   2.963
  367SOL    HW2 1148   6.972   1.231   2.853
  368SOL     OW 1149   0.682   1.674   3.599
  368SOL    HW1 1150   0.617   1.750   3.594
  368SOL    HW2 1151   0.753   1.686   3.529
  369SOL     OW 1152   1.706   0.165   2.331
  369SOL    HW1 1153   1.791   0.149   2.282
  369SOL    HW2 1154   1.703   0.108   2.413
  370SOL     OW 1155   1.395   1.570   2.349
  370SOL    HW1 1156   1.458   1.602   2.278
  370SOL    HW2 1157   1.340   1.647   2.382
  371SOL     OW 1158   0.139   1.785   3.715
  371SOL    HW1 1159   0.094   1.712   3.765
  371SOL    HW2 1160   0.194   1.840   3.778
  372SOL     OW 1161   1.282   0.928   2.527
  372SOL    HW1 1162   1.357   0.864   2.545
  372SOL    HW2 1163   1.315   1.005   2.473
  373SOL     OW 1164   0.804   1.279   3.288
  373SOL    HW1 1165   0.775   1.322   3.374
  373SOL    HW2 1166   0.734   1.294   3.218
  374SOL     OW 1167   0.673   1.623   2.016
  374SOL    HW1 1168   0.687   1.642   1.918
  374SOL    HW2 1169   0.615   1.542   2.025
  375SOL     OW 1170   1.617   1.729   3.249
  375SOL    HW1 1171   1.674   1.729   3.167
  375SOL    HW2 1172   1.603   1.822   3.281
  376SOL     OW 1173   1.866   0.161   2.818
  376SOL    HW1 1174   1.864   0.062   2.808
  376SOL    HW2 1175   1.775   0.198   2.802
  377SOL     OW 1176   0.286   0.336   2.580
  377SOL    HW1 1177   0.198   0.374   2.552
  377SOL    HW2 1178   0.282   0.310   2.677
  378SOL     OW 1179   1.208   1.601   1.895
  378SOL    HW1 1180   1.199   1.507   1.928
  378SOL    HW2 1181   1.141   1.618   1.823
  379SOL     OW 1182   0.823   1.010   3.240
  379SOL    HW1 1183   0.874   0.994   3.155
  379SOL    HW2 1184   0.820   1.108   3.259
  380SOL     OW 1185   0.919   0.910   2.149
  380SOL    HW1 1186   0.980   0.946   2.078
  380SOL    HW2 1187   0.966   0.839   2.201
  381SOL     OW 1188   1.488   1.630   1.904
  381SOL    HW1 1189   1.390   1.619   1.893
  381SOL    HW2 1190   1.532   1.635   1.814
  382SOL     OW 1191   0.372   1.307   3.348
  382SOL    HW1 1192   0.359   1.388   3.290
  382SOL    HW2 1193   0.302   1.239   3.326
  383SOL     OW 1194   1.613   1.284   3.146
  383SOL    HW1 1195   1.676   1.265   3.222
  383SOL    HW2 1196   1.547   1.354   3.175
  384SOL     OW 1197   1.061   1.106   2.576
  384SOL    HW1 1198   0.985   1.057   2.617
  384SOL    HW2 1199   1.130   1.041   2.543
  385SOL     OW 1200   1.024   0.249   2.813
  385SOL    HW1 1201   1.002   0.202   2.728
  385SOL    HW2 1202   1.014   0.185   2.890
  386SOL     OW 1203   0.607   1.487   2.343
  386SOL    HW1 1204   0.658   1.433   2.275
  386SOL    HW2 1205   0.530   1.532   2.299
  387SOL     OW 1206   1.733   0.392   3.237
  387SOL    HW1 1207   1.802   0.464   3.243
  387SOL    HW2 1208   1.770   0.315   3.185
  388SOL     OW 1209   0.256   1.351   2.136
  388SOL    HW1 1210   0.158   1.351   2.119
  388SOL    HW2 1211   0.274   1.387   2.227
  389SOL     OW 1212   0.120   0.973   3.565
  389SOL    HW1 1213   0.066   1.024   3.631
  389SOL    HW2 1214   0.211   0.955   3.602
  390SOL     OW 1215   0.670   0.238   3.370
  390SOL    HW1 1216   0.751   0.211   3.318
  390SOL    HW2 1217   0.699   0.268   3.461
  391SOL     OW 1218   0.081   0.315   1.911
  391SOL    HW1 1219   6.989   0.276   1.905
  391SOL    HW2 1220   0.082   0.405   1.869
  392SOL     OW 1221   1.424   0.858   3.257
  392SOL    HW1 1222   1.368   0.921   3.204
  392SOL    HW2 1223   1.518   0.859   3.223
  393SOL     OW 1224   0.038   0.182   2.188
  393SOL    HW1 1225   0.064   0.257   2.127
  393SOL    HW2 1226   0.073   0.096   2.152
  394SOL     OW 1227   1.180   1.337   1.982
  394SOL    HW1 1228   1.084   1.311   1.975
  394SOL    HW2 1229   1.207   1.338   2.078
  395SOL     OW 1230   0.625   0.831   3.296
  395SOL    HW1 1231   0.680   0.912   3.281
  395SOL    HW2 1232   0.684   0.751   3.307
  396SOL     OW 1233   1.485   1.788   2.850
  396SOL    HW1 1234   1.506   1.850   2.774
  396SOL    HW2 1235   1.570   1.754   2.889
  397SOL     OW 1236   0.716   0.560   3.570
  397SOL    HW1 1237   0.764   0.630   3.624
  397SOL    HW2 1238   0.739   0.469   3.606
  398SOL     OW 1239   1.474   1.196   3.496
  398SOL    HW1 1240   1.458   1.210   3.594
  398SOL    HW2 1241   1.570   1.215   3.475
  399SOL     OW 1242   0.371   1.746   3.425
  399SOL    HW1 1243   0.284   1.792   3.410
  399SOL    HW2 1244   0.355   1.662   3.477
  400SOL     OW 1245   1.666   0.878   3.118
  400SOL    HW1 1246   1.661   0.787   3.077
  400SOL    HW2 1247   1.653   0.948   3.047
  401SOL     OW 1248   1.225   0.319   2.318
  401SOL    HW1 1249   1.295   0.248   2.310
  401SOL    HW2 1250   1.244   0.376   2.398
  402SOL     OW 1251   0.589   0.738   2.530
  402SOL    HW1 1252   0.629   0.829   2.521
  402SOL    HW2 1253   0.519   0.725   2.459
  403SOL     OW 1254   1.750   0.370   3.510
  403SOL    HW1 1255   1.741   0.384   3.411
  403SOL    HW2 1256   1.677   0.308   3.541
  404SOL     OW 1257   1.752   0.932   3.372
  404SOL    HW1 1258   1.740   1.029   3.393
  404SOL    HW2 1259   1.731   0.917   3.275
  405SOL     OW 1260   0.870   1.364   1.907
  405SOL    HW1 1261   0.825   1.388   1.993
  405SOL    HW2 1262   0.882   1.446   1.851
  406SOL     OW 1263   0.666   1.786   2.805
  406SOL    HW1 1264   0.643   1.880   2.782
  406SOL    HW2 1265   0.764   1.772   2.793
  407SOL     OW 1266   0.869   0.971   2.718
  407SOL    HW1 1267   0.920   0.893   2.755
  407SOL    HW2 1268   0.826   1.021   2.793
  408SOL     OW 1269   1.076   0.987   1.946
  408SOL    HW1 1270   1.050   1.043   1.867
  408SOL    HW2 1271   1.155   0.931   1.921
  409SOL     OW 1272   1.846   1.556   2.709
  409SOL    HW1 1273   1.769   1.544   2.646
  409SOL    HW2 1274   1.841   1.487   2.781
  410SOL     OW 1275   0.242   1.308   3.727
  410SOL    HW1 1276   0.150   1.275   3.706
  410SOL    HW2 1277   0.252   1.318   3.826
  411SOL     OW 1278   0.151   1.273   2.553
  411SOL    HW1 1279   0.102   1.226   2.626
  411SOL    HW2 1280   0.198   1.205   2.496
  412SOL     OW 1281   0.685   1.409   3.497
  412SOL    HW1 1282   0.604   1.359   3.526
  412SOL    HW2 1283   0.681   1.502   3.533
  413SOL     OW 1284   1.851   0.183   3.108
  413SOL    HW1 1285   1.772   0.122   3.103
  413SOL    HW2 1286   1.880   0.209   3.016
  414SOL     OW 1287   0.454   0.433   2.386
  414SOL    HW1 1288   0.489   0.357   2.331
  414SOL    HW2 1289   0.405   0.397   2.465
  415SOL     OW 1290   1.693   1.482   2.956
  415SOL    HW1 1291   1.612   1.465   2.900
  415SOL    HW2 1292   1.702   1.411   3.026
  416SOL     OW 1293   0.334   0.553   3.151
  416SOL    HW1 1294   0.394   0.500   3.211
  416SOL    HW2 1295   0.351   0.528   3.056
  417SOL     OW 1296   0.829   1.579   2.540
  417SOL    HW1 1297   0.815   1.641   2.462
  417SOL    HW2 1298   0.752   1.516   2.546
  418SOL     OW 1299   1.413   0.216   2.991
  418SOL    HW1 1300   1.495   0.172   3.029
  418SOL    HW2 1301   1.365   0.265   3.064
  419SOL     OW 1302   0.976   0.055   2.999
  419SOL    HW1 1303   0.920   6.991   2.946
  419SOL    HW2 1304   1.032   0.005   3.065
  420SOL     OW 1305   0.775   1.331   2.183
  420SOL    HW1 1306   0.747   1.235   2.192
  420SOL    HW2 1307   0.860   1.345   2.234
  421SOL     OW 1308   0.626   1.558   3.152
  421SOL    HW1 1309   0.623   1.645   3.202
  421SOL    HW2 1310   0.716   1.547   3.111
  422SOL     OW 1311   1.322   0.015   2.054
  422SOL    HW1 1312   1.369   6.948   1.998
  422SOL    HW2 1313   1.246   6.972   2.102
  423SOL     OW 1314   1.268   0.454   2.549
  423SOL    HW1 1315   1.223   0.543   2.546
  423SOL    HW2 1316   1.287   0.430   2.644
  424SOL     OW 1317   1.619   0.257   2.777
  424SOL    HW1 1318   1.530   0.237   2.818
  424SOL    HW2 1319   1.607   0.321   2.701
  425SOL     OW 1320   0.071   1.064   2.139
  425SOL    HW1 1321   0.164   1.027   2.138
  425SOL    HW2 1322   0.006   0.991   2.160
  426SOL     OW 1323   0.885   1.663   2.203
  426SOL    HW1 1324   0.811   1.641   2.139
  426SOL    HW2 1325   0.858   1.740   2.260
  427SOL     OW 1326   0.193   0.649   3.851
  427SOL    HW1 1327   0.169   0.581   3.921
  427SOL    HW2 1328   0.219   0.603   3.767
  428SOL     OW 1329   0.221   0.290   4.710
  428SOL    HW1 1330   0.280   0.248   4.779
  428SOL    HW2 1331   0.126   0.261   4.726
  429SOL     OW 1332   6.996   0.391   4.381
  429SOL    HW1 1333   6.940   0.409   4.462
  429SOL    HW2 1334   0.024   0.295   4.380
  430SOL     OW 1335   0.569   1.297   4.910
  430SOL    HW1 1336   0.479   1.295   4.867
  430SOL    HW2 1337   0.587   1.389   4.945
  431SOL     OW 1338   1.565   1.513   4.431
  431SOL    HW1 1339   1.522   1.489   4.519
  431SOL    HW2 1340   1.494   1.520   4.361
  432SOL     OW 1341   1.134   0.702   4.419
  432SOL    HW1 1342   1.186   0.786   4.402
  432SOL    HW2 1343   1.083   0.711   4.505
  433SOL     OW 1344   1.768   0.602   3.946
  433SOL    HW1 1345   1.746   0.598   3.848
  433SOL    HW2 1346   1.730   0.521   3.992
  434SOL     OW 1347   0.743   1.141   4.764
  434SOL    HW1 1348   0.675   1.176   4.829
  434SOL    HW2 1349   0.788   1.218   4.718
  435SOL     OW 1350   0.871   0.766   5.544
  435SOL    HW1 1351   0.863   0.834   5.616
  435SOL    HW2 1352   0.897   0.811   5.458
  436SOL     OW 1353   0.683   1.001   4.374
  436SOL    HW1 1354   0.755   0.990   4.443
  436SOL    HW2 1355   0.608   1.056   4.412
  437SOL     OW 1356   0.713   1.152   5.543
  437SOL    HW1 1357   0.765   1.231   5.576
  437SOL    HW2 1358   0.628   1.184   5.500
  438SOL     OW 1359   0.333   1.420   4.789
  438SOL    HW1 1360   0.255   1.381   4.741
  438SOL    HW2 1361   0.385   1.478   4.725
  439SOL     OW 1362   1.458   1.502   5.082
  439SOL    HW1 1363   1.515   1.583   5.089
  439SOL    HW2 1364   1.387   1.504   5.152
  440SOL     OW 1365   0.451   0.405   5.215
  440SOL    HW1 1366   0.536   0.352   5.216
  440SOL    HW2 1367   0.373   0.343   5.227
  441SOL     OW 1368   1.616   0.457   4.453
  441SOL    HW1 1369   1.556   0.487   4.379
  441SOL    HW2 1370   1.625   0.530   4.521
  442SOL     OW 1371   0.226   1.710   4.190
  442SOL    HW1 1372   0.241   1.789   4.249
  442SOL    HW2 1373   0.297   1.707   4.120
  443SOL     OW 1374   1.137   1.340   5.421
  443SOL    HW1 1375   1.184   1.338   5.510
  443SOL    HW2 1376   1.081   1.258   5.411
  444SOL     OW 1377   0.277   1.443   4.244
  444SOL    HW1 1378   0.254   1.540   4.250
  444SOL    HW2 1379   0.227   1.392   4.314
  445SOL     OW 1380   0.270   1.082   4.631
  445SOL    HW1 1381   0.266   0.987   4.659
  445SOL    HW2 1382   0.198   1.134   4.677
  446SOL     OW 1383   0.602   1.796   5.151
  446SOL    HW1 1384   0.516   1.773   5.198
  446SOL    HW2 1385   0.631   1.887   5.179
  447SOL     OW 1386   0.581   0.988   3.865
  447SOL    HW1 1387   0.629   1.035   3.791
  447SOL    HW2 1388   0.620   1.015   3.953
  448SOL     OW 1389   1.578   0.132   5.171
  448SOL    HW1 1390   1.591   0.226   5.140
  448SOL    HW2 1391   1.602   0.125   5.268
  449SOL     OW 1392   0.131   0.620   4.292
  449SOL    HW1 1393   0.070   0.545   4.318
  449SOL    HW2 1394   0.121   0.695   4.357
  450SOL     OW 1395   1.846   1.756   4.057
  450SOL    HW1 1396   1.916   1.725   4.121
  450SOL    HW2 1397   1.862   1.852   4.033
  451SOL     OW 1398   0.036   1.592   3.871
  451SOL    HW1 1399   0.026   1.494   3.884
  451SOL    HW2 1400   6.960   1.639   3.917
  452SOL     OW 1401   1.690   0.920   4.371
  452SOL    HW1 1402   1.775   0.870   4.355
  452SOL    HW2 1403   1.668   0.974   4.290
  453SOL     OW 1404   1.653   1.104   4.156
  453SOL    HW1 1405   1.742   1.101   4.111
  453SOL    HW2 1406   1.655   1.171   4.230
  454SOL     OW 1407   0.147   0.734   5.299
  454SOL    HW1 1408   0.245   0.741   5.284
  454SOL    HW2 1409   0.111   0.821   5.332
  455SOL     OW 1410   0.612   1.390   4.459
  455SOL    HW1 1411   0.565   1.303   4.472
  455SOL    HW2 1412   0.599   1.421   4.364
  456SOL     OW 1413   1.288   1.235   5.146
  456SOL    HW1 1414   1.315   1.164   5.080
  456SOL    HW2 1415   1.348   1.231   5.226
  457SOL     OW 1416   0.833   0.027   4.243
  457SOL    HW1 1417   0.873   0.116   4.223
  457SOL    HW2 1418   0.733   0.033   4.242
  458SOL     OW 1419   0.204   0.960   4.987
  458SOL    HW1 1420   0.288   0.908   4.969
  458SOL    HW2 1421   0.133   0.932   4.922
  459SOL     OW 1422   1.532   1.000   3.928
  459SOL    HW1 1423   1.458   0.940   3.958
  459SOL    HW2 1424   1.579   1.038   4.008
  460SOL     OW 1425   1.182   1.811   5.346
  460SOL    HW1 1426   1.190   1.880   5.274
  460SOL    HW2 1427   1.202   1.721   5.309
  461SOL     OW 1428   0.328   0.267   5.532
  461SOL    HW1 1429   0.388   0.332   5.579
  461SOL    HW2 1430   0.238   0.269   5.575
  462SOL     OW 1431   1.465   1.420   4.671
  462SOL    HW1 1432   1.398   1.439   4.743
  462SOL    HW2 1433   1.457   1.325   4.643
  463SOL     OW 1434   1.650   1.749   4.300
  463SOL    HW1 1435   1.633   1.720   4.206
  463SOL    HW2 1436   1.629   1.674   4.362
  464SOL     OW 1437   0.591   0.717   3.989
  464SOL    HW1 1438   0.600   0.805   3.943
  464SOL    HW2 1439   0.526   0.727   4.065
  465SOL     OW 1440   1.283   0.367   4.673
  465SOL    HW1 1441   1.186   0.343   4.676
  465SOL    HW2 1442   1.332   0.316   4.744
  466SOL     OW 1443   1.583   1.673   4.032
  466SOL    HW1 1444   1.679   1.700   4.028
  466SOL    HW2 1445   1.550   1.655   3.939
  467SOL     OW 1446   0.792   0.616   5.181
  467SOL    HW1 1447   0.765   0.590   5.273
  467SOL    HW2 1448   0.755   0.551   5.115
  468SOL     OW 1449   1.394   0.473   5.404
  468SOL    HW1 1450   1.392   0.520   5.493
  468SOL    HW2 1451   1.451   0.391   5.410
  469SOL     OW 1452   0.953   0.885   5.307
  469SOL    HW1 1453   1.011   0.813   5.268
  469SOL    HW2 1454   0.899   0.927   5.234
  470SOL     OW 1455   0.995   0.412   4.951
  470SOL    HW1 1456   0.909   0.434   4.996
  470SOL    HW2 1457   0.976   0.361   4.867
  471SOL     OW 1458   1.050   0.698   4.149
  471SOL    HW1 1459   1.072   0.694   4.247
  471SOL    HW2 1460   0.964   0.652   4.132
  472SOL     OW 1461   0.102   0.817   4.498
  472SOL    HW1 1462   0.195   0.807   4.534
  472SOL    HW2 1463   0.042   0.852   4.570
  473SOL     OW 1464   0.120   1.870   5.315
  473SOL    HW1 1465   0.131   1.844   5.411
  473SOL    HW2 1466   0.030   1.842   5.283
  474SOL     OW 1467   0.890   0.355   3.924
  474SOL    HW1 1468   0.936   0.416   3.859
  474SOL    HW2 1469   0.867   0.270   3.879
  475SOL     OW 1470   1.701   0.573   5.549
  475SOL    HW1 1471   1.665   0.652   5.500
  475SOL    HW2 1472   1.729   0.503   5.483
  476SOL     OW 1473   1.380   1.143   4.258
  476SOL    HW1 1474   1.464   1.128   4.207
  476SOL    HW2 1475   1.323   1.210   4.210
  477SOL     OW 1476   0.506   0.197   4.633
  477SOL    HW1 1477   0.550   0.224   4.718
  477SOL    HW2 1478   0.531   0.261   4.560
  478SOL     OW 1479   0.995   1.443   4.188
  478SOL    HW1 1480   0.963   1.523   4.138
  478SOL    HW2 1481   0.979   1.456   4.286
  479SOL     OW 1482   0.357   1.819   4.591
  479SOL    HW1 1483   0.397   1.728   4.602
  479SOL    HW2 1484   0.426   1.888   4.612
  480SOL     OW 1485   1.798   1.057   4.596
  480SOL    HW1 1486   1.746   1.034   4.513
  480SOL    HW2 1487   1.735   1.062   4.674
  481SOL     OW 1488   1.227   1.536   5.238
  481SOL    HW1 1489   1.214   1.462   5.304
  481SOL    HW2 1490   1.158   1.529   5.166
  482SOL     OW 1491   0.317   0.946   3.974
  482SOL    HW1 1492   0.405   0.971   3.933
  482SOL    HW2 1493   0.289   0.856   3.939
  483SOL     OW 1494   1.483   0.750   4.448
  483SOL    HW1 1495   1.477   0.706   4.538
  483SOL    HW2 1496   1.563   0.810   4.446
  484SOL     OW 1497   0.472   1.261   5.452
  484SOL    HW1 1498   0.445   1.271   5.356
  484SOL    HW2 1499   0.391   1.262   5.510
  485SOL     OW 1500   1.122   1.776   3.951
  485SOL    HW1 1501   1.042   1.738   3.999
  485SOL    HW2 1502   1.151   1.712   3.880
  486SOL     OW 1503   0.204   0.278   5.235
  486SOL    HW1 1504   0.146   0.359   5.227
  486SOL    HW2 1505   0.208   0.249   5.331
  487SOL     OW 1506   1.625   1.382   3.812
  487SOL    HW1 1507   1.586   1.473   3.797
  487SOL    HW2 1508   1.555   1.312   3.793
  488SOL     OW 1509   0.468   1.734   4.041
  488SOL    HW1 1510   0.509   1.796   4.109
  488SOL    HW2 1511   0.540   1.698   3.981
  489SOL     OW 1512   1.425   0.132   4.149
  489SOL    HW1 1513   1.404   0.088   4.062
  489SOL    HW2 1514   1.524   0.138   4.161
  490SOL     OW 1515   0.258   1.794   4.947
  490SOL    HW1 1516   0.309   1.720   4.991
  490SOL    HW2 1517   0.214   1.759   4.864
  491SOL     OW 1518   0.936   1.702   4.620
  491SOL    HW1 1519   1.018   1.655   4.652
  491SOL    HW2 1520   0.894   1.650   4.546
  492SOL     OW 1521   0.399   0.688   4.195
  492SOL    HW1 1522   0.427   0.593   4.211
  492SOL    HW2 1523   0.302   0.699   4.218
  493SOL     OW 1524   1.529   0.230   5.451
  493SOL    HW1 1525   1.543   0.236   5.550
  493SOL    HW2 1526   1.444   0.182   5.432
  494SOL     OW 1527   0.645   0.111   3.827
  494SOL    HW1 1528   0.685   0.036   3.880
  494SOL    HW2 1529   0.584   0.073   3.757
  495SOL     OW 1530   0.762   0.277   5.490
  495SOL    HW1 1531   0.851   0.231   5.483
  495SOL    HW2 1532   0.708   0.235   5.563
  496SOL     OW 1533   0.876   1.515   4.916
  496SOL    HW1 1534   0.856   1.479   4.825
  496SOL    HW2 1535   0.948   1.461   4.958
  497SOL     OW 1536   1.342   0.591   5.161
  497SOL    HW1 1537   1.371   0.556   5.250
  497SOL    HW2 1538   1.377   0.684   5.149
  498SOL     OW 1539   0.820   1.389   4.665
  498SOL    HW1 1540   0.910   1.378   4.623
  498SOL    HW2 1541   0.750   1.395   4.594
  499SOL     OW 1542   0.927   0.511   4.619
  499SOL    HW1 1543   0.899   0.505   4.524
  499SOL    HW2 1544   0.959   0.421   4.650
  500SOL     OW 1545   0.569   0.063   4.208
  500SOL    HW1 1546   0.492   0.054   4.271
  500SOL    HW2 1547   0.553   0.140   4.147
  501SOL     OW 1548   1.425   1.199   3.767
  501SOL    HW1 1549   1.459   1.121   3.820
  501SOL    HW2 1550   1.337   1.228   3.803
  502SOL     OW 1551   0.307   0.045   3.921
  502SOL    HW1 1552   0.337   0.140   3.908
  502SOL    HW2 1553   0.371   6.997   3.980
  503SOL     OW 1554   0.951   0.267   4.180
  503SOL    HW1 1555   0.920   0.302   4.092
  503SOL    HW2 1556   1.050   0.275   4.186
  504SOL     OW 1557   1.080   0.684   5.178
  504SOL    HW1 1558   1.006   0.618   5.190
  504SOL    HW2 1559   1.168   0.635   5.177
  505SOL     OW 1560   1.220   1.569   4.518
  505SOL    HW1 1561   1.234   1.639   4.448
  505SOL    HW2 1562   1.291   1.578   4.588
  506SOL     OW 1563   0.467   1.150   4.457
  506SOL    HW1 1564   0.401   1.129   4.529
  506SOL    HW2 1565   0.424   1.137   4.367
  507SOL     OW 1566   1.263   1.792   4.334
  507SOL    HW1 1567   1.315   1.854   4.275
  507SOL    HW2 1568   1.190   1.842   4.380
  508SOL     OW 1569   1.017   0.537   3.757
  508SOL    HW1 1570   0.974   0.624   3.733
  508SOL    HW2 1571   1.089   0.552   3.824
  509SOL     OW 1572   0.081   0.540   5.105
  509SOL    HW1 1573   0.176   0.541   5.072
  509SOL    HW2 1574   0.069   0.613   5.173
  510SOL     OW 1575   0.581   0.241   4.894
  510SOL    HW1 1576   0.632   0.165   4.934
  510SOL    HW2 1577   0.486   0.236   4.923
  511SOL     OW 1578   0.865   0.465   4.360
  511SOL    HW1 1579   0.814   0.525   4.298
  511SOL    HW2 1580   0.894   0.383   4.310
  512SOL     OW 1581   0.959   0.027   4.495
  512SOL    HW1 1582   0.904   0.028   4.412
  512SOL    HW2 1583   1.031   6.958   4.487
  513SOL     OW 1584   1.445   1.161   4.582
  513SOL    HW1 1585   1.369   1.097   4.586
  513SOL    HW2 1586   1.474   1.172   4.487
  514SOL     OW 1587   1.466   0.609   4.694
  514SOL    HW1 1588   1.405   0.529   4.696
  514SOL    HW2 1589   1.529   0.603   4.772
  515SOL     OW 1590   1.842   0.810   4.104
  515SOL    HW1 1591   1.900   0.762   4.170
  515SOL    HW2 1592   1.812   0.746   4.033
  516SOL     OW 1593   0.496   1.421   3.877
  516SOL    HW1 1594   0.414   1.395   3.929
  516SOL    HW2 1595   0.485   1.391   3.782
  517SOL     OW 1596   1.675   1.267   4.368
  517SOL    HW1 1597   1.774   1.264   4.379
  517SOL    HW2 1598   1.641   1.358   4.388
  518SOL     OW 1599   1.391   0.575   3.795
  518SOL    HW1 1600   1.328   0.552   3.869
  518SOL    HW2 1601   1.485   0.560   3.826
  519SOL     OW 1602   0.525   0.262   4.025
  519SOL    HW1 1603   0.579   0.211   3.959
  519SOL    HW2 1604   0.502   0.352   3.988
  520SOL     OW 1605   1.753   1.241   5.285
  520SOL    HW1 1606   1.842   1.199   5.272
  520SOL    HW2 1607   1.764   1.334   5.319
  521SOL     OW 1608   1.053   1.349   5.059
  521SOL    HW1 1609   0.972   1.320   5.110
  521SOL    HW2 1610   1.135   1.310   5.102
  522SOL     OW 1611   1.614   1.629   5.381
  522SOL    HW1 1612   1.598   1.665   5.289
  522SOL    HW2 1613   1.699   1.578   5.383
  523SOL     OW 1614   1.137   1.219   4.829
  523SOL    HW1 1615   1.077   1.253   4.901
  523SOL    HW2 1616   1.103   1.250   4.740
  524SOL     OW 1617   1.624   1.097   4.803
  524SOL    HW1 1618   1.620   1.162   4.879
  524SOL    HW2 1619   1.548   1.113   4.741
  525SOL     OW 1620   0.894   0.150   5.112
  525SOL    HW1 1621   0.911   0.114   5.020
  525SOL    HW2 1622   0.981   0.177   5.153
  526SOL     OW 1623   0.980   1.114   5.445
  526SOL    HW1 1624   0.886   1.134   5.472
  526SOL    HW2 1625   0.982   1.032   5.388
  527SOL     OW 1626   0.711   1.057   4.098
  527SOL    HW1 1627   0.695   1.041   4.195
  527SOL    HW2 1628   0.790   1.004   4.068
  528SOL     OW 1629   0.430   0.807   4.972
  528SOL    HW1 1630   0.500   0.822   5.042
  528SOL    HW2 1631   0.389   0.717   4.986
  529SOL     OW 1632   1.260   0.378   5.010
  529SOL    HW1 1633   1.298   0.457   5.059
  529SOL    HW2 1634   1.166   0.397   4.984
  530SOL     OW 1635   0.068   1.565   5.042
  530SOL    HW1 1636   0.018   1.650   5.059
  530SOL    HW2 1637   0.165   1.579   5.062
  531SOL     OW 1638   0.340   1.116   4.216
  531SOL    HW1 1639   0.351   1.195   4.156
  531SOL    HW2 1640   0.339   1.033   4.161
  532SOL     OW 1641   0.551   0.548   4.587
  532SOL    HW1 1642   0.565   0.607   4.508
  532SOL    HW2 1643   0.621   0.567   4.656
  533SOL     OW 1644   1.246   1.354   4.116
  533SOL    HW1 1645   1.307   1.427   4.147
  533SOL    HW2 1646   1.153   1.374   4.147
  534SOL     OW 1647   1.288   1.462   4.871
  534SOL    HW1 1648   1.346   1.467   4.952
  534SOL    HW2 1649   1.233   1.378   4.876
  535SOL     OW 1650   1.572   0.622   4.209
  535SOL    HW1 1651   1.525   0.677   4.278
  535SOL    HW2 1652   1.625   0.683   4.149
  536SOL     OW 1653   0.351   1.533   5.033
  536SOL    HW1 1654   0.332   1.486   4.947
  536SOL    HW2 1655   0.450   1.545   5.043
  537SOL     OW 1656   0.425   0.733   5.322
  537SOL    HW1 1657   0.484   0.788   5.262
  537SOL    HW2 1658   0.471   0.648   5.345
  538SOL     OW 1659   1.608   0.786   5.409
  538SOL    HW1 1660   1.517   0.826   5.406
  538SOL    HW2 1661   1.665   0.826   5.337
  539SOL     OW 1662   0.998   0.136   5.459
  539SOL    HW1 1663   1.041   0.181   5.380
  539SOL    HW2 1664   1.000   0.037   5.445
  540SOL     OW 1665   0.470   0.040   5.482
  540SOL    HW1 1666   0.412   6.969   5.442
  540SOL    HW2 1667   0.417   0.123   5.495
  541SOL     OW 1668   0.588   0.873   4.756
  541SOL    HW1 1669   0.620   0.968   4.754
  541SOL    HW2 1670   0.528   0.860   4.835
  542SOL     OW 1671   1.351   0.858   4.748
  542SOL    HW1 1672   1.260   0.849   4.708
  542SOL    HW2 1673   1.400   0.770   4.740
  543SOL     OW 1674   1.198   0.527   3.988
  543SOL    HW1 1675   1.211   0.444   4.042
  543SOL    HW2 1676   1.153   0.597   4.043
  544SOL     OW 1677   0.325   0.211   4.970
  544SOL    HW1 1678   0.273   0.232   5.053
  544SOL    HW2 1679   0.298   0.122   4.935
  545SOL     OW 1680   0.097   1.306   4.987
  545SOL    HW1 1681   0.105   1.244   5.065
  545SOL    HW2 1682   0.087   1.400   5.020
  546SOL     OW 1683   0.730   0.636   4.779
  546SOL    HW1 1684   0.804   0.615   4.716
  546SOL    HW2 1685   0.693   0.727   4.757
  547SOL     OW 1686   1.736   0.961   5.580
  547SOL    HW1 1687   1.693   0.892   5.521
  547SOL    HW2 1688   1.676   0.980   5.658
  548SOL     OW 1689   0.347   0.062   4.353
  548SOL    HW1 1690   0.314   0.146   4.395
  548SOL    HW2 1691   0.291   6.985   4.383
  549SOL     OW 1692   1.626   0.393   4.068
  549SOL    HW1 1693   1.656   0.315   4.123
  549SOL    HW2 1694   1.595   0.466   4.129
  550SOL     OW 1695   1.025   0.756   4.682
  550SOL    HW1 1696   1.020   0.778   4.779
  550SOL    HW2 1697   0.997   0.662   4.667
  551SOL     OW 1698   0.982   1.563   5.441
  551SOL    HW1 1699   0.965   1.610   5.355
  551SOL    HW2 1700   1.030   1.477   5.423
  552SOL     OW 1701   1.855   1.503   5.328
  552SOL    HW1 1702   1.873   1.530   5.233
  552SOL    HW2 1703   1.938   1.515   5.382
  553SOL     OW 1704   0.365   0.916   5.522
  553SOL    HW1 1705   0.442   0.942   5.581
  553SOL    HW2 1706   0.395   0.848   5.455
  554SOL     OW 1707   1.539   0.234   3.859
  554SOL    HW1 1708   1.439   0.231   3.868
  554SOL    HW2 1709   1.576   0.293   3.931
  555SOL     OW 1710   1.288   0.826   3.750
  555SOL    HW1 1711   1.329   0.735   3.758
  555SOL    HW2 1712   1.320   0.869   3.665
  556SOL     OW 1713   1.070   1.338   4.579
  556SOL    HW1 1714   1.074   1.260   4.516
  556SOL    HW2 1715   1.129   1.411   4.544
  557SOL     OW 1716   0.322   0.803   4.665
  557SOL    HW1 1717   0.418   0.829   4.665
  557SOL    HW2 1718   0.312   0.710   4.699
  558SOL     OW 1719   0.330   0.530   4.736
  558SOL    HW1 1720   0.287   0.441   4.719
  558SOL    HW2 1721   0.412   0.539   4.679
  559SOL     OW 1722   1.125   0.413   5.395
  559SOL    HW1 1723   1.077   0.454   5.473
  559SOL    HW2 1724   1.223   0.432   5.403
  560SOL     OW 1725   1.135   0.225   5.210
  560SOL    HW1 1726   1.134   0.300   5.276
  560SOL    HW2 1727   1.192   0.249   5.132
  561SOL     OW 1728   6.991   1.322   3.942
  561SOL    HW1 1729   6.919   1.347   4.006
  561SOL    HW2 1730   0.021   1.228   3.959
  562SOL     OW 1731   0.097   1.757   4.673
  562SOL    HW1 1732   0.077   1.683   4.609
  562SOL    HW2 1733   0.183   1.800   4.647
  563SOL     OW 1734   0.494   1.578   4.628
  563SOL    HW1 1735   0.563   1.645   4.655
  563SOL    HW2 1736   0.534   1.510   4.567
  564SOL     OW 1737   0.975   0.794   4.948
  564SOL    HW1 1738   1.035   0.769   5.024
  564SOL    HW2 1739   0.886   0.752   4.959
  565SOL     OW 1740   0.052   0.603   4.833
  565SOL    HW1 1741   0.132   0.566   4.786
  565SOL    HW2 1742   0.057   0.581   4.930
  566SOL     OW 1743   0.203   0.521   5.451
  566SOL    HW1 1744   0.290   0.482   5.421
  566SOL    HW2 1745   0.185   0.605   5.400
  567SOL     OW 1746   1.380   0.935   5.379
  567SOL    HW1 1747   1.403   1.033   5.380
  567SOL    HW2 1748   1.377   0.903   5.284
  568SOL     OW 1749   0.816   0.576   4.083
  568SOL    HW1 1750   0.828   0.495   4.026
  568SOL    HW2 1751   0.737   0.629   4.051
  569SOL     OW 1752   1.642   0.605   4.904
  569SOL    HW1 1753   1.623   0.545   4.981
  569SOL    HW2 1754   1.733   0.586   4.869
  570SOL     OW 1755   0.285   1.560   5.464
  570SOL    HW1 1756   0.230   1.628   5.513
  570SOL    HW2 1757   0.266   1.469   5.500
  571SOL     OW 1758   0.708   0.462   4.981
  571SOL    HW1 1759   0.657   0.381   4.953
  571SOL    HW2 1760   0.709   0.529   4.906
  572SOL     OW 1761   0.921   1.681   5.195
  572SOL    HW1 1762   0.894   1.635   5.110
  572SOL    HW2 1763   0.920   1.780   5.181
  573SOL     OW 1764   0.456   0.492   3.899
  573SOL    HW1 1765   0.520   0.567   3.917
  573SOL    HW2 1766   0.367   0.513   3.939
  574SOL     OW 1767   0.165   1.123   5.194
  574SOL    HW1 1768   0.154   1.062   5.272
  574SOL    HW2 1769   0.179   1.068   5.111
  575SOL     OW 1770   1.316   1.044   4.943
  575SOL    HW1 1771   1.343   0.976   4.875
  575SOL    HW2 1772   1.248   1.106   4.903
  576SOL     OW 1773   1.316   0.856   4.023
  576SOL    HW1 1774   1.239   0.829   4.081
  576SOL    HW2 1775   1.290   0.844   3.927
  577SOL     OW 1776   1.780   1.730   4.880
  577SOL    HW1 1777   1.841   1.764   4.809
  577SOL    HW2 1778   1.749   1.638   4.856
  578SOL     OW 1779   1.241   1.733   4.829
  578SOL    HW1 1780   1.327   1.762   4.786
  578SOL    HW2 1781   1.247   1.636   4.853
  579SOL     OW 1782   0.071   1.244   4.729
  579SOL    HW1 1783   0.088   1.265   4.825
  579SOL    HW2 1784   6.972   1.231   4.715
  580SOL     OW 1785   0.682   1.674   5.461
  580SOL    HW1 1786   0.617   1.750   5.456
  580SOL    HW2 1787   0.752   1.686   5.391
  581SOL     OW 1788   1.706   0.165   4.193
  581SOL    HW1 1789   1.791   0.149   4.143
  581SOL    HW2 1790   1.703   0.108   4.275
  582SOL     OW 1791   1.395   1.570   4.211
  582SOL    HW1 1792   1.458   1.602   4.140
  582SOL    HW2 1793   1.340   1.647   4.244
  583SOL     OW 1794   0.139   1.785   5.577
  583SOL    HW1 1795   0.094   1.712   5.627
  583SOL    HW2 1796   0.194   1.840   5.640
  584SOL     OW 1797   1.282   0.928   4.389
  584SOL    HW1 1798   1.357   0.864   4.407
  584SOL    HW2 1799   1.315   1.005   4.335
  585SOL     OW 1800   0.804   1.279   5.150
  585SOL    HW1 1801   0.775   1.322   5.236
  585SOL    HW2 1802   0.734   1.294   5.080
  586SOL     OW 1803   0.672   1.623   3.878
  586SOL    HW1 1804   0.687   1.642   3.780
  586SOL    HW2 1805   0.615   1.542   3.887
  587SOL     OW 1806   1.617   1.729   5.111
  587SOL    HW1 1807   1.674   1.729   5.029
  587SOL    HW2 1808   1.603   1.822   5.143
  588SOL     OW 1809   1.866   0.161   4.680
  588SOL    HW1 1810   1.864   0.062   4.670
  588SOL    HW2 1811   1.775   0.198   4.664
  589SOL     OW 1812   0.286   0.336   4.442
  589SOL    HW1 1813   0.198   0.374   4.414
  589SOL    HW2 1814   0.282   0.310   4.539
  590SOL     OW 1815   1.208   1.601   3.757
  590SOL    HW1 1816   1.199   1.507   3.790
  590SOL    HW2 1817   1.141   1.618   3.685
  591SOL     OW 1818   0.823   1.010   5.102
  591SOL    HW1 1819   0.874   0.994   5.017
  591SOL    HW2 1820   0.820   1.108   5.121
  592SOL     OW 1821   0.919   0.910   4.011
  592SOL    HW1 1822   0.980   0.946   3.940
  592SOL    HW2 1823   0.966   0.839   4.063
  593SOL     OW 1824   1.488   1.630   3.766
  593SOL    HW1 1825   1.390   1.619   3.755
  593SOL    HW2 1826   1.532   1.635   3.676
  594SOL     OW 1827   0.372   1.307   5.210
  594SOL    HW1 1828   0.359   1.388   5.152
  594SOL    HW2 1829   0.302   1.239   5.188
  595SOL     OW 1830   1.613   1.284   5.008
  595SOL    HW1 1831   1.676   1.265   5.084
  595SOL    HW2 1832   1.547   1.354   5.037
  596SOL     OW 1833   1.061   1.106   4.438
  596SOL    HW1 1834   0.985   1.057   4.479
  596SOL    HW2 1835   1.130   1.041   4.405
  597SOL     OW 1836   1.024   0.249   4.675
  597SOL    HW1 1837   1.002   0.202   4.590
  597SOL    HW2 1838   1.014   0.185   4.752
  598SOL     OW 1839   0.607   1.487   4.205
  598SOL    HW1 1840   0.658   1.433   4.137
  598SOL    HW2 1841   0.529   1.531   4.161
  599SOL     OW 1842   1.733   0.392   5.099
  599SOL    HW1 1843   1.802   0.464   5.105
  599SOL    HW2 1844   1.770   0.315   5.047
  600SOL     OW 1845   0.256   1.351   3.998
  600SOL    HW1 1846   0.158   1.351   3.981
  600SOL    HW2 1847   0.274   1.387   4.089
  601SOL     OW 1848   0.120   0.973   5.427
  601SOL    HW1 1849   0.066   1.024   5.493
  601SOL    HW2 1850   0.211   0.955   5.464
  602SOL     OW 1851   0.670   0.238   5.232
  602SOL    HW1 1852   0.751   0.211   5.180
  602SOL    HW2 1853   0.699   0.268   5.323
  603SOL     OW 1854   0.081   0.315   3.774
  603SOL    HW1 1855   6.989   0.276   3.767
  603SOL    HW2 1856   0.082   0.405   3.731
  604SOL     OW 1857   1.424   0.858   5.119
  604SOL    HW1 1858   1.368   0.921   5.066
  604SOL    HW2 1859   1.518   0.859   5.085
  605SOL     OW 1860   0.038   0.182   4.050
  605SOL    HW1 1861   0.064   0.257   3.988
  605SOL    HW2 1862   0.074   0.096   4.014
  606SOL     OW 1863   1.180   1.337   3.844
  606SOL    HW1 1864   1.084   1.311   3.837
  606SOL    HW2 1865   1.207   1.338   3.940
  607SOL     OW 1866   0.625   0.831   5.158
  607SOL    HW1 1867   0.680   0.912   5.143
  607SOL    HW2 1868   0.684   0.751   5.169
  608SOL     OW 1869   1.485   1.788   4.711
  608SOL    HW1 1870   1.506   1.850   4.636
  608SOL    HW2 1871   1.570   1.754   4.751
  609SOL     OW 1872   0.716   0.560   5.432
  609SOL    HW1 1873   0.764   0.630   5.486
  609SOL    HW2 1874   0.739   0.469   5.468
  610SOL     OW 1875   1.474   1.196   5.358
  610SOL    HW1 1876   1.458   1.210   5.456
  610SOL    HW2 1877   1.570   1.215   5.337
  611SOL     OW 1878   0.371   1.746   5.287
  611SOL    HW1 1879   0.284   1.792   5.272
  611SOL    HW2 1880   0.355   1.662   5.339
  612SOL     OW 1881   1.666   0.878   4.980
  612SOL    HW1 1882   1.661   0.787   4.939
  612SOL    HW2 1883   1.653   0.948   4.909
  613SOL     OW 1884   1.225   0.319   4.180
  613SOL    HW1 1885   1.295   0.247   4.172
  613SOL    HW2 1886   1.244   0.376   4.260
  614SOL     OW 1887   0.589   0.738   4.392
  614SOL    HW1 1888   0.629   0.829   4.383
  614SOL    HW2 1889   0.519   0.725   4.321
  615SOL     OW 1890   1.750   0.370   5.372
  615SOL    HW1 1891   1.741   0.384   5.273
  615SOL    HW2 1892   1.677   0.308   5.403
  616SOL     OW 1893   1.752   0.932   5.234
  616SOL    HW1 1894   1.740   1.029   5.255
  616SOL    HW2 1895   1.731   0.917   5.137
  617SOL     OW 1896   0.870   1.364   3.769
  617SOL    HW1 1897   0.825   1.387   3.855
  617SOL    HW2 1898   0.882   1.446   3.713
  618SOL     OW 1899   0.666   1.786   4.667
  618SOL    HW1 1900   0.643   1.880   4.644
  618SOL    HW2 1901   0.764   1.772   4.655
  619SOL     OW 1902   0.869   0.971   4.580
  619SOL    HW1 1903   0.920   0.893   4.617
  619SOL    HW2 1904   0.826   1.021   4.655
  620SOL     OW 1905   1.076   0.988   3.807
  620SOL    HW1 1906   1.050   1.043   3.729
  620SOL    HW2 1907   1.155   0.931   3.783
  621SOL     OW 1908   1.846   1.556   4.571
  621SOL    HW1 1909   1.769   1.544   4.508
  621SOL    HW2 1910   1.841   1.487   4.643
  622SOL     OW 1911   0.242   1.308   5.589
  622SOL    HW1 1912   0.150   1.276   5.568
  622SOL    HW2 1913   0.252   1.318   5.688
  623SOL     OW 1914   0.151   1.272   4.415
  623SOL    HW1 1915   0.102   1.226   4.489
  623SOL    HW2 1916   0.198   1.205   4.358
  624SOL     OW 1917   0.686   1.409   5.359
  624SOL    HW1 1918   0.604   1.359   5.388
  624SOL    HW2 1919   0.681   1.502   5.395
  625SOL     OW 1920   1.851   0.183   4.970
  625SOL    HW1 1921   1.772   0.122   4.965
  625SOL    HW2 1922   1.880   0.209   4.878
  626SOL     OW 1923   0.454   0.433   4.248
  626SOL    HW1 1924   0.489   0.357   4.193
  626SOL    HW2 1925   0.405   0.397   4.327
  627SOL     OW 1926   1.693   1.482   4.818
  627SOL    HW1 1927   1.612   1.465   4.762
  627SOL    HW2 1928   1.702   1.412   4.888
  628SOL     OW 1929   0.334   0.553   5.013
  628SOL    HW1 1930   0.394   0.500   5.073
  628SOL    HW2 1931   0.351   0.528   4.918
  629SOL     OW 1932   0.829   1.579   4.402
  629SOL    HW1 1933   0.815   1.641   4.325
  629SOL    HW2 1934   0.752   1.516   4.409
  630SOL     OW 1935   1.413   0.216   4.853
  630SOL    HW1 1936   1.495   0.172   4.891
  630SOL    HW2 1937   1.365   0.265   4.926
  631SOL     OW 1938   0.976   0.055   4.861
  631SOL    HW1 1939   0.920   6.991   4.808
  631SOL    HW2 1940   1.032   0.005   4.927
  632SOL     OW 1941   0.775   1.331   4.045
  632SOL    HW1 1942   0.747   1.235   4.054
  632SOL    HW2 1943   0.860   1.345   4.096
  633SOL     OW 1944   0.626   1.558   5.014
  633SOL    HW1 1945   0.623   1.645   5.064
  633SOL    HW2 1946   0.716   1.547   4.973
  634SOL     OW 1947   1.322   0.015   3.915
  634SOL    HW1 1948   1.369   6.947   3.860
  634SOL    HW2 1949   1.245   6.972   3.963
  635SOL     OW 1950   1.268   0.454   4.411
  635SOL    HW1 1951   1.223   0.543   4.408
  635SOL    HW2 1952   1.287   0.430   4.506
  636SOL     OW 1953   1.619   0.257   4.639
  636SOL    HW1 1954   1.530   0.237   4.680
  636SOL    HW2 1955   1.607   0.321   4.563
  637SOL     OW 1956   0.071   1.064   4.001
  637SOL    HW1 1957   0.164   1.027   4.000
  637SOL    HW2 1958   0.006   0.991   4.022
  638SOL     OW 1959   0.885   1.662   4.065
  638SOL    HW1 1960   0.811   1.641   4.001
  638SOL    HW2 1961   0.858   1.740   4.122
  639SOL     OW 1962   0.194   0.649   5.714
  639SOL    HW1 1963   0.169   0.581   5.783
  639SOL    HW2 1964   0.219   0.603   5.629
  640SOL     OW 1965   0.219   0.291   6.572
  640SOL    HW1 1966   0.281   0.247   6.638
  640SOL    HW2 1967   0.125   0.264   6.591
  641SOL     OW 1968   6.995   0.391   6.244
  641SOL    HW1 1969   6.940   0.407   6.325
  641SOL    HW2 1970   0.024   0.295   6.242
  642SOL     OW 1971   0.560   1.283   6.758
  642SOL    HW1 1972   0.473   1.303   6.714
  642SOL    HW2 1973   0.588   1.361   6.815
  643SOL     OW 1974   1.564   1.513   6.294
  643SOL    HW1 1975   1.519   1.490   6.380
  643SOL    HW2 1976   1.495   1.520   6.222
  644SOL     OW 1977   1.133   0.702   6.282
  644SOL    HW1 1978   1.185   0.786   6.266
  644SOL    HW2 1979   1.081   0.711   6.366
  645SOL     OW 1980   1.769   0.602   5.808
  645SOL    HW1 1981   1.747   0.598   5.710
  645SOL    HW2 1982   1.731   0.521   5.854
  646SOL     OW 1983   0.756   1.143   6.628
  646SOL    HW1 1984   0.683   1.170   6.690
  646SOL    HW2 1985   0.789   1.224   6.579
  647SOL     OW 1986   0.683   1.000   6.236
  647SOL    HW1 1987   0.755   0.989   6.305
  647SOL    HW2 1988   0.609   1.056   6.273
  648SOL     OW 1989   0.336   1.404   6.640
  648SOL    HW1 1990   0.254   1.372   6.593
  648SOL    HW2 1991   0.385   1.469   6.581
  649SOL     OW 1992   1.618   0.459   6.314
  649SOL    HW1 1993   1.556   0.487   6.240
  649SOL    HW2 1994   1.619   0.530   6.385
  650SOL     OW 1995   0.226   1.710   6.052
  650SOL    HW1 1996   0.241   1.789   6.111
  650SOL    HW2 1997   0.297   1.707   5.982
  651SOL     OW 1998   0.277   1.443   6.105
  651SOL    HW1 1999   0.254   1.540   6.112
  651SOL    HW2 2000   0.228   1.392   6.176
  652SOL     OW 2001   0.269   1.081   6.490
  652SOL    HW1 2002   0.267   0.986   6.521
  652SOL    HW2 2003   0.196   1.132   6.535
  653SOL     OW 2004   0.611   1.805   6.985
  653SOL    HW1 2005   0.517   1.784   0.014
  653SOL    HW2 2006   0.636   1.896   0.018
  654SOL     OW 2007   0.581   0.988   5.727
  654SOL    HW1 2008   0.629   1.035   5.653
  654SOL    HW2 2009   0.620   1.015   5.815
  655SOL     OW 2010   0.131   0.619   6.153
  655SOL    HW1 2011   0.070   0.545   6.180
  655SOL    HW2 2012   0.122   0.695   6.218
  656SOL     OW 2013   1.846   1.756   5.918
  656SOL    HW1 2014   1.916   1.725   5.983
  656SOL    HW2 2015   1.862   1.852   5.895
  657SOL     OW 2016   0.036   1.592   5.733
  657SOL    HW1 2017   0.026   1.494   5.746
  657SOL    HW2 2018   6.960   1.639   5.779
  658SOL     OW 2019   1.691   0.920   6.231
  658SOL    HW1 2020   1.775   0.869   6.215
  658SOL    HW2 2021   1.668   0.973   6.150
  659SOL     OW 2022   1.653   1.104   6.017
  659SOL    HW1 2023   1.742   1.102   5.972
  659SOL    HW2 2024   1.655   1.171   6.092
  660SOL     OW 2025   0.611   1.390   6.320
  660SOL    HW1 2026   0.564   1.303   6.334
  660SOL    HW2 2027   0.598   1.421   6.226
  661SOL     OW 2028   0.833   0.026   6.101
  661SOL    HW1 2029   0.873   0.116   6.083
  661SOL    HW2 2030   0.733   0.033   6.101
  662SOL     OW 2031   0.203   0.953   6.830
  662SOL    HW1 2032   0.292   0.907   6.823
  662SOL    HW2 2033   0.142   0.917   6.760
  663SOL     OW 2034   1.532   1.000   5.790
  663SOL    HW1 2035   1.458   0.940   5.820
  663SOL    HW2 2036   1.579   1.038   5.870
  664SOL     OW 2037   1.455   1.423   6.533
  664SOL    HW1 2038   1.397   1.437   6.613
  664SOL    HW2 2039   1.452   1.327   6.505
  665SOL     OW 2040   1.650   1.749   6.162
  665SOL    HW1 2041   1.632   1.720   6.068
  665SOL    HW2 2042   1.629   1.674   6.225
  666SOL     OW 2043   0.591   0.718   5.851
  666SOL    HW1 2044   0.600   0.805   5.804
  666SOL    HW2 2045   0.526   0.727   5.927
  667SOL     OW 2046   1.282   0.365   6.537
  667SOL    HW1 2047   1.185   0.341   6.537
  667SOL    HW2 2048   1.330   0.314   6.609
  668SOL     OW 2049   1.583   1.672   5.894
  668SOL    HW1 2050   1.679   1.700   5.890
  668SOL    HW2 2051   1.550   1.655   5.801
  669SOL     OW 2052   0.794   0.624   0.040
  669SOL    HW1 2053   0.735   0.653   0.115
  669SOL    HW2 2054   0.743   0.563   6.980
  670SOL     OW 2055   1.005   0.391   6.793
  670SOL    HW1 2056   0.959   0.448   6.861
  670SOL    HW2 2057   0.938   0.353   6.730
  671SOL     OW 2058   1.050   0.698   6.011
  671SOL    HW1 2059   1.072   0.694   6.109
  671SOL    HW2 2060   0.964   0.652   5.994
  672SOL     OW 2061   0.104   0.816   6.358
  672SOL    HW1 2062   0.197   0.807   6.395
  672SOL    HW2 2063   0.043   0.851   6.430
  673SOL     OW 2064   0.108   1.832   0.174
  673SOL    HW1 2065   0.097   1.801   0.269
  673SOL    HW2 2066   0.019   1.853   0.135
  674SOL     OW 2067   0.890   0.356   5.786
  674SOL    HW1 2068   0.936   0.416   5.721
  674SOL    HW2 2069   0.868   0.269   5.741
  675SOL     OW 2070   1.379   1.143   6.120
  675SOL    HW1 2071   1.464   1.127   6.069
  675SOL    HW2 2072   1.323   1.210   6.071
  676SOL     OW 2073   0.507   0.203   6.498
  676SOL    HW1 2074   0.558   0.238   6.576
  676SOL    HW2 2075   0.526   0.259   6.417
  677SOL     OW 2076   0.995   1.443   6.050
  677SOL    HW1 2077   0.964   1.523   5.999
  677SOL    HW2 2078   0.978   1.456   6.148
  678SOL     OW 2079   0.357   1.819   6.450
  678SOL    HW1 2080   0.396   1.728   6.465
  678SOL    HW2 2081   0.426   1.888   6.473
  679SOL     OW 2082   1.803   1.057   6.450
  679SOL    HW1 2083   1.752   1.032   6.367
  679SOL    HW2 2084   1.741   1.056   6.529
  680SOL     OW 2085   0.317   0.946   5.836
  680SOL    HW1 2086   0.405   0.971   5.795
  680SOL    HW2 2087   0.289   0.856   5.801
  681SOL     OW 2088   1.483   0.749   6.308
  681SOL    HW1 2089   1.475   0.705   6.397
  681SOL    HW2 2090   1.563   0.810   6.307
  682SOL     OW 2091   1.122   1.776   5.813
  682SOL    HW1 2092   1.042   1.738   5.861
  682SOL    HW2 2093   1.151   1.712   5.742
  683SOL     OW 2094   1.625   1.382   5.674
  683SOL    HW1 2095   1.586   1.473   5.659
  683SOL    HW2 2096   1.555   1.312   5.655
  684SOL     OW 2097   0.468   1.734   5.903
  684SOL    HW1 2098   0.509   1.796   5.971
  684SOL    HW2 2099   0.540   1.698   5.843
  685SOL     OW 2100   1.425   0.132   6.010
  685SOL    HW1 2101   1.405   0.088   5.922
  685SOL    HW2 2102   1.524   0.138   6.022
  686SOL     OW 2103   0.255   1.809   6.780
  686SOL    HW1 2104   0.308   1.735   6.822
  686SOL    HW2 2105   0.189   1.770   6.715
  687SOL     OW 2106   0.936   1.701   6.481
  687SOL    HW1 2107   1.019   1.655   6.510
  687SOL    HW2 2108   0.894   1.649   6.406
  688SOL     OW 2109   0.399   0.688   6.056
  688SOL    HW1 2110   0.427   0.593   6.073
  688SOL    HW2 2111   0.302   0.699   6.079
  689SOL     OW 2112   0.645   0.111   5.689
  689SOL    HW1 2113   0.685   0.036   5.742
  689SOL    HW2 2114   0.584   0.073   5.619
  690SOL     OW 2115   0.875   1.517   6.760
  690SOL    HW1 2116   0.853   1.483   6.668
  690SOL    HW2 2117   0.913   1.443   6.815
  691SOL     OW 2118   0.819   1.388   6.520
  691SOL    HW1 2119   0.909   1.378   6.477
  691SOL    HW2 2120   0.749   1.394   6.449
  692SOL     OW 2121   0.928   0.510   6.482
  692SOL    HW1 2122   0.899   0.505   6.387
  692SOL    HW2 2123   0.966   0.422   6.511
  693SOL     OW 2124   0.569   0.063   6.070
  693SOL    HW1 2125   0.492   0.054   6.134
  693SOL    HW2 2126   0.552   0.140   6.009
  694SOL     OW 2127   1.426   1.199   5.629
  694SOL    HW1 2128   1.459   1.121   5.682
  694SOL    HW2 2129   1.337   1.228   5.665
  695SOL     OW 2130   0.306   0.046   5.783
  695SOL    HW1 2131   0.337   0.140   5.770
  695SOL    HW2 2132   0.372   6.997   5.841
  696SOL     OW 2133   0.951   0.267   6.042
  696SOL    HW1 2134   0.920   0.302   5.954
  696SOL    HW2 2135   1.050   0.275   6.049
  697SOL     OW 2136   1.219   1.570   6.381
  697SOL    HW1 2137   1.233   1.641   6.311
  697SOL    HW2 2138   1.296   1.571   6.445
  698SOL     OW 2139   0.468   1.150   6.318
  698SOL    HW1 2140   0.402   1.129   6.390
  698SOL    HW2 2141   0.425   1.137   6.229
  699SOL     OW 2142   1.262   1.792   6.197
  699SOL    HW1 2143   1.314   1.854   6.138
  699SOL    HW2 2144   1.188   1.842   6.241
  700SOL     OW 2145   1.017   0.537   5.619
  700SOL    HW1 2146   0.974   0.624   5.595
  700SOL    HW2 2147   1.089   0.552   5.686
  701SOL     OW 2148   0.593   0.218   6.767
  701SOL    HW1 2149   0.612   0.123   6.743
  701SOL    HW2 2150   0.496   0.227   6.790
  702SOL     OW 2151   0.864   0.466   6.222
  702SOL    HW1 2152   0.814   0.525   6.159
  702SOL    HW2 2153   0.894   0.383   6.174
  703SOL     OW 2154   0.957   0.031   6.350
  703SOL    HW1 2155   0.905   0.027   6.265
  703SOL    HW2 2156   1.028   6.960   6.349
  704SOL     OW 2157   1.440   1.161   6.442
  704SOL    HW1 2158   1.370   1.089   6.445
  704SOL    HW2 2159   1.469   1.174   6.347
  705SOL     OW 2160   1.465   0.605   6.550
  705SOL    HW1 2161   1.404   0.526   6.557
  705SOL    HW2 2162   1.530   0.603   6.626
  706SOL     OW 2163   1.842   0.810   5.966
  706SOL    HW1 2164   1.900   0.762   6.032
  706SOL    HW2 2165   1.813   0.746   5.895
  707SOL     OW 2166   0.496   1.421   5.739
  707SOL    HW1 2167   0.414   1.395   5.791
  707SOL    HW2 2168   0.485   1.392   5.644
  708SOL     OW 2169   1.674   1.267   6.228
  708SOL    HW1 2170   1.773   1.265   6.241
  708SOL    HW2 2171   1.640   1.359   6.250
  709SOL     OW 2172   1.391   0.575   5.657
  709SOL    HW1 2173   1.327   0.552   5.731
  709SOL    HW2 2174   1.485   0.560   5.688
  710SOL     OW 2175   0.525   0.262   5.888
  710SOL    HW1 2176   0.579   0.211   5.821
  710SOL    HW2 2177   0.502   0.352   5.850
  711SOL     OW 2178   1.752   1.195   0.182
  711SOL    HW1 2179   1.850   1.175   0.184
  711SOL    HW2 2180   1.738   1.291   0.156
  712SOL     OW 2181   1.119   1.238   6.694
  712SOL    HW1 2182   1.035   1.196   6.730
  712SOL    HW2 2183   1.105   1.263   6.598
  713SOL     OW 2184   1.621   1.078   6.647
  713SOL    HW1 2185   1.623   1.148   6.719
  713SOL    HW2 2186   1.545   1.098   6.584
  714SOL     OW 2187   0.711   1.057   5.960
  714SOL    HW1 2188   0.695   1.041   6.057
  714SOL    HW2 2189   0.790   1.004   5.930
  715SOL     OW 2190   0.438   0.807   6.846
  715SOL    HW1 2191   0.491   0.833   6.927
  715SOL    HW2 2192   0.396   0.718   6.860
  716SOL     OW 2193   1.264   0.384   6.872
  716SOL    HW1 2194   1.294   0.462   6.927
  716SOL    HW2 2195   1.172   0.401   6.837
  717SOL     OW 2196   0.084   1.570   6.857
  717SOL    HW1 2197   0.035   1.603   6.938
  717SOL    HW2 2198   0.182   1.576   6.872
  718SOL     OW 2199   0.340   1.116   6.077
  718SOL    HW1 2200   0.351   1.196   6.017
  718SOL    HW2 2201   0.339   1.033   6.022
  719SOL     OW 2202   0.549   0.548   6.449
  719SOL    HW1 2203   0.563   0.607   6.369
  719SOL    HW2 2204   0.620   0.567   6.517
  720SOL     OW 2205   1.246   1.354   5.978
  720SOL    HW1 2206   1.307   1.427   6.009
  720SOL    HW2 2207   1.153   1.374   6.009
  721SOL     OW 2208   1.283   1.450   6.747
  721SOL    HW1 2209   1.315   1.442   6.841
  721SOL    HW2 2210   1.221   1.374   6.726
  722SOL     OW 2211   1.572   0.623   6.069
  722SOL    HW1 2212   1.525   0.677   6.139
  722SOL    HW2 2213   1.624   0.685   6.010
  723SOL     OW 2214   0.364   1.571   6.851
  723SOL    HW1 2215   0.343   1.500   6.783
  723SOL    HW2 2216   0.461   1.567   6.874
  724SOL     OW 2217   0.587   0.871   6.621
  724SOL    HW1 2218   0.619   0.966   6.617
  724SOL    HW2 2219   0.532   0.857   6.703
  725SOL     OW 2220   1.347   0.857   6.593
  725SOL    HW1 2221   1.255   0.840   6.556
  725SOL    HW2 2222   1.399   0.772   6.591
  726SOL     OW 2223   1.198   0.527   5.850
  726SOL    HW1 2224   1.211   0.445   5.904
  726SOL    HW2 2225   1.153   0.597   5.905
  727SOL     OW 2226   0.331   0.212   6.829
  727SOL    HW1 2227   0.275   0.221   6.911
  727SOL    HW2 2228   0.317   0.121   6.789
  728SOL     OW 2229   0.054   1.300   6.833
  728SOL    HW1 2230   0.086   1.235   6.902
  728SOL    HW2 2231   0.086   1.391   6.856
  729SOL     OW 2232   0.727   0.628   6.641
  729SOL    HW1 2233   0.805   0.608   6.581
  729SOL    HW2 2234   0.695   0.722   6.624
  730SOL     OW 2235   0.350   0.062   6.221
  730SOL    HW1 2236   0.311   0.146   6.257
  730SOL    HW2 2237   0.293   6.984   6.246
  731SOL     OW 2238   1.627   0.393   5.930
  731SOL    HW1 2239   1.655   0.315   5.985
  731SOL    HW2 2240   1.595   0.467   5.990
  732SOL     OW 2241   1.023   0.757   6.550
  732SOL    HW1 2242   1.016   0.778   6.648
  732SOL    HW2 2243   0.997   0.662   6.534
  733SOL     OW 2244   1.918   1.475   0.195
  733SOL    HW1 2245   1.897   1.508   0.103
  733SOL    HW2 2246   1.924   1.553   0.257
  734SOL     OW 2247   1.539   0.234   5.721
  734SOL    HW1 2248   1.439   0.231   5.730
  734SOL    HW2 2249   1.577   0.293   5.793
  735SOL     OW 2250   1.288   0.826   5.612
  735SOL    HW1 2251   1.329   0.735   5.620
  735SOL    HW2 2252   1.320   0.869   5.527
  736SOL     OW 2253   1.072   1.337   6.439
  736SOL    HW1 2254   1.076   1.259   6.376
  736SOL    HW2 2255   1.130   1.411   6.403
  737SOL     OW 2256   0.322   0.803   6.531
  737SOL    HW1 2257   0.418   0.829   6.530
  737SOL    HW2 2258   0.313   0.709   6.564
  738SOL     OW 2259   0.333   0.530   6.603
  738SOL    HW1 2260   0.289   0.441   6.586
  738SOL    HW2 2261   0.413   0.539   6.544
  739SOL     OW 2262   1.134   0.221   0.065
  739SOL    HW1 2263   1.158   0.286   0.137
  739SOL    HW2 2264   1.165   0.256   6.977
  740SOL     OW 2265   6.991   1.322   5.804
  740SOL    HW1 2266   6.919   1.347   5.868
  740SOL    HW2 2267   0.020   1.228   5.822
  741SOL     OW 2268   0.097   1.759   6.533
  741SOL    HW1 2269   0.077   1.685   6.469
  741SOL    HW2 2270   0.185   1.801   6.509
  742SOL     OW 2271   0.493   1.578   6.491
  742SOL    HW1 2272   0.563   1.644   6.519
  742SOL    HW2 2273   0.535   1.511   6.430
  743SOL     OW 2274   0.978   0.795   6.822
  743SOL    HW1 2275   1.058   0.779   6.880
  743SOL    HW2 2276   0.898   0.751   6.862
  744SOL     OW 2277   0.065   0.610   6.698
  744SOL    HW1 2278   0.121   0.564   6.630
  744SOL    HW2 2279   0.099   0.589   6.790
  745SOL     OW 2280   0.816   0.576   5.946
  745SOL    HW1 2281   0.828   0.495   5.888
  745SOL    HW2 2282   0.737   0.629   5.914
  746SOL     OW 2283   1.647   0.611   6.751
  746SOL    HW1 2284   1.633   0.553   6.832
  746SOL    HW2 2285   1.742   0.601   6.720
  747SOL     OW 2286   0.675   0.468   6.852
  747SOL    HW1 2287   0.650   0.377   6.822
  747SOL    HW2 2288   0.688   0.527   6.773
  748SOL     OW 2289   0.942   1.662   6.997
  748SOL    HW1 2290   0.911   1.652   6.903
  748SOL    HW2 2291   0.924   1.755   0.029
  749SOL     OW 2292   0.456   0.492   5.761
  749SOL    HW1 2293   0.520   0.567   5.779
  749SOL    HW2 2294   0.367   0.514   5.800
  750SOL     OW 2295   0.162   1.125   0.028
  750SOL    HW1 2296   0.182   1.077   0.113
  750SOL    HW2 2297   0.177   1.064   6.951
  751SOL     OW 2298   1.284   1.004   6.813
  751SOL    HW1 2299   1.322   0.954   6.736
  751SOL    HW2 2300   1.259   1.097   6.783
  752SOL     OW 2301   1.315   0.856   5.885
  752SOL    HW1 2302   1.239   0.829   5.943
  752SOL    HW2 2303   1.290   0.844   5.789
  753SOL     OW 2304   1.784   1.746   6.742
  753SOL    HW1 2305   1.845   1.771   6.667
  753SOL    HW2 2306   1.745   1.656   6.724
  754SOL     OW 2307   1.246   1.725   6.699
  754SOL    HW1 2308   1.329   1.754   6.652
  754SOL    HW2 2309   1.251   1.627   6.719
  755SOL     OW 2310   0.061   1.242   6.574
  755SOL    HW1 2311   0.069   1.262   6.672
  755SOL    HW2 2312   6.965   1.230   6.550
  756SOL     OW 2313   1.706   0.166   6.055
  756SOL    HW1 2314   1.791   0.148   6.006
  756SOL    HW2 2315   1.702   0.108   6.137
  757SOL     OW 2316   1.395   1.570   6.074
  757SOL    HW1 2317   1.458   1.602   6.003
  757SOL    HW2 2318   1.340   1.647   6.106
  758SOL     OW 2319   1.282   0.928   6.252
  758SOL    HW1 2320   1.356   0.864   6.269
  758SOL    HW2 2321   1.315   1.005   6.197
  759SOL     OW 2322   0.673   1.623   5.740
  759SOL    HW1 2323   0.687   1.642   5.643
  759SOL    HW2 2324   0.615   1.542   5.749
  760SOL     OW 2325   1.866   0.163   6.534
  760SOL    HW1 2326   1.862   0.063   6.530
  760SOL    HW2 2327   1.774   0.200   6.519
  761SOL     OW 2328   0.286   0.338   6.305
  761SOL    HW1 2329   0.198   0.374   6.275
  761SOL    HW2 2330   0.280   0.312   6.401
  762SOL     OW 2331   1.208   1.601   5.619
  762SOL    HW1 2332   1.199   1.507   5.652
  762SOL    HW2 2333   1.141   1.618   5.547
  763SOL     OW 2334   0.776   1.025   6.952
  763SOL    HW1 2335   0.835   0.981   6.885
  763SOL    HW2 2336   0.823   1.105   6.991
  764SOL     OW 2337   0.919   0.910   5.873
  764SOL    HW1 2338   0.980   0.946   5.802
  764SOL    HW2 2339   0.966   0.839   5.925
  765SOL     OW 2340   1.488   1.630   5.628
  765SOL    HW1 2341   1.390   1.619   5.617
  765SOL    HW2 2342   1.532   1.635   5.538
  766SOL     OW 2343   1.618   1.269   6.832
  766SOL    HW1 2344   1.702   1.283   6.885
  766SOL    HW2 2345   1.542   1.252   6.895
  767SOL     OW 2346   1.061   1.106   6.300
  767SOL    HW1 2347   0.984   1.055   6.340
  767SOL    HW2 2348   1.130   1.041   6.267
  768SOL     OW 2349   1.025   0.246   6.523
  768SOL    HW1 2350   0.998   0.194   6.442
  768SOL    HW2 2351   1.023   0.186   6.603
  769SOL     OW 2352   0.607   1.487   6.067
  769SOL    HW1 2353   0.658   1.433   5.999
  769SOL    HW2 2354   0.529   1.531   6.023
  770SOL     OW 2355   1.700   0.430   6.947
  770SOL    HW1 2356   1.764   0.440   0.024
  770SOL    HW2 2357   1.716   0.342   6.902
  771SOL     OW 2358   0.256   1.351   5.860
  771SOL    HW1 2359   0.157   1.351   5.843
  771SOL    HW2 2360   0.274   1.387   5.951
  772SOL     OW 2361   0.081   0.315   5.636
  772SOL    HW1 2362   6.989   0.276   5.629
  772SOL    HW2 2363   0.082   0.405   5.593
  773SOL     OW 2364   0.038   0.182   5.911
  773SOL    HW1 2365   0.064   0.257   5.849
  773SOL    HW2 2366   0.074   0.096   5.877
  774SOL     OW 2367   1.180   1.337   5.706
  774SOL    HW1 2368   1.084   1.311   5.699
  774SOL    HW2 2369   1.207   1.338   5.802
  775SOL     OW 2370   1.487   1.783   6.575
  775SOL    HW1 2371   1.502   1.847   6.500
  775SOL    HW2 2372   1.575   1.756   6.613
  776SOL     OW 2373   1.494   1.297   0.285
  776SOL    HW1 2374   1.409   1.250   0.309
  776SOL    HW2 2375   1.566   1.229   0.266
  777SOL     OW 2376   0.375   1.763   0.101
  777SOL    HW1 2377   0.286   1.809   0.101
  777SOL    HW2 2378   0.401   1.741   0.195
  778SOL     OW 2379   1.699   0.877   6.830
  778SOL    HW1 2380   1.667   0.786   6.801
  778SOL    HW2 2381   1.665   0.946   6.765
  779SOL     OW 2382   1.225   0.319   6.042
  779SOL    HW1 2383   1.294   0.247   6.035
  779SOL    HW2 2384   1.244   0.375   6.123
  780SOL     OW 2385   0.587   0.739   6.254
  780SOL    HW1 2386   0.628   0.829   6.245
  780SOL    HW2 2387   0.519   0.726   6.182
  781SOL     OW 2388   1.771   0.912   0.093
  781SOL    HW1 2389   1.758   1.008   0.118
  781SOL    HW2 2390   1.744   0.898   6.998
  782SOL     OW 2391   0.870   1.364   5.631
  782SOL    HW1 2392   0.825   1.388   5.717
  782SOL    HW2 2393   0.882   1.446   5.575
  783SOL     OW 2394   0.667   1.785   6.533
  783SOL    HW1 2395   0.643   1.879   6.506
  783SOL    HW2 2396   0.765   1.771   6.518
  784SOL     OW 2397   0.869   0.970   6.442
  784SOL    HW1 2398   0.919   0.892   6.480
  784SOL    HW2 2399   0.828   1.023   6.517
  785SOL     OW 2400   1.076   0.987   5.669
  785SOL    HW1 2401   1.050   1.043   5.590
  785SOL    HW2 2402   1.155   0.930   5.645
  786SOL     OW 2403   1.849   1.556   6.432
  786SOL    HW1 2404   1.771   1.544   6.371
  786SOL    HW2 2405   1.849   1.484   6.502
  787SOL     OW 2406   0.152   1.273   6.276
  787SOL    HW1 2407   0.108   1.227   6.354
  787SOL    HW2 2408   0.197   1.204   6.218
  788SOL     OW 2409   1.849   0.190   6.849
  788SOL    HW1 2410   1.778   0.121   6.864
  788SOL    HW2 2411   1.858   0.208   6.751
  789SOL     OW 2412   0.454   0.433   6.110
  789SOL    HW1 2413   0.488   0.357   6.055
  789SOL    HW2 2414   0.404   0.397   6.189
  790SOL     OW 2415   1.679   1.503   6.683
  790SOL    HW1 2416   1.604   1.483   6.619
  790SOL    HW2 2417   1.688   1.427   6.747
  791SOL     OW 2418   0.324   0.553   6.880
  791SOL    HW1 2419   0.389   0.496   6.929
  791SOL    HW2 2420   0.332   0.537   6.782
  792SOL     OW 2421   0.829   1.579   6.262
  792SOL    HW1 2422   0.816   1.642   6.186
  792SOL    HW2 2423   0.751   1.516   6.268
  793SOL     OW 2424   1.411   0.214   6.720
  793SOL    HW1 2425   1.499   0.181   6.753
  793SOL    HW2 2426   1.367   0.269   6.791
  794SOL     OW 2427   0.995   0.051   6.710
  794SOL    HW1 2428   0.912   6.997   6.694
  794SOL    HW2 2429   1.039   0.020   6.795
  795SOL     OW 2430   0.774   1.331   5.907
  795SOL    HW1 2431   0.747   1.235   5.916
  795SOL    HW2 2432   0.860   1.345   5.958
  796SOL     OW 2433   0.634   1.561   6.874
  796SOL    HW1 2434   0.629   1.657   6.901
  796SOL    HW2 2435   0.719   1.544   6.824
  797SOL     OW 2436   1.322   0.015   5.777
  797SOL    HW1 2437   1.369   6.947   5.721
  797SOL    HW2 2438   1.246   6.973   5.826
  798SOL     OW 2439   1.269   0.454   6.274
  798SOL    HW1 2440   1.224   0.543   6.272
  798SOL    HW2 2441   1.287   0.428   6.369
  799SOL     OW 2442   1.617   0.260   6.498
  799SOL    HW1 2443   1.526   0.238   6.534
  799SOL    HW2 2444   1.608   0.324   6.421
  800SOL     OW 2445   0.070   1.064   5.863
  800SOL    HW1 2446   0.163   1.027   5.862
  800SOL    HW2 2447   0.006   0.991   5.884
  801SOL     OW 2448   0.885   1.663   5.926
  801SOL    HW1 2449   0.811   1.642   5.863
  801SOL    HW2 2450   0.858   1.740   5.984
  802SOL     OW 2451   0.230   2.513   0.128
  802SOL    HW1 2452   0.154   2.460   0.167
  802SOL    HW2 2453   0.250   2.480   0.036
  803SOL     OW 2454   0.231   2.134   0.988
  803SOL    HW1 2455   0.282   2.101   1.068
  803SOL    HW2 2456   0.133   2.117   1.002
  804SOL     OW 2457   6.987   2.249   0.657
  804SOL    HW1 2458   6.939   2.247   0.745
  804SOL    HW2 2459   0.003   2.155   0.627
  805SOL     OW 2460   0.569   3.159   1.186
  805SOL    HW1 2461   0.479   3.156   1.143
  805SOL    HW2 2462   0.587   3.251   1.220
  806SOL     OW 2463   1.563   3.376   0.707
  806SOL    HW1 2464   1.521   3.351   0.794
  806SOL    HW2 2465   1.493   3.380   0.636
  807SOL     OW 2466   1.131   2.564   0.696
  807SOL    HW1 2467   1.185   2.647   0.680
  807SOL    HW2 2468   1.081   2.573   0.782
  808SOL     OW 2469   1.786   2.439   0.196
  808SOL    HW1 2470   1.719   2.492   0.144
  808SOL    HW2 2471   1.738   2.379   0.261
  809SOL     OW 2472   0.744   3.003   1.041
  809SOL    HW1 2473   0.675   3.037   1.105
  809SOL    HW2 2474   0.788   3.080   0.995
  810SOL     OW 2475   0.873   2.627   1.820
  810SOL    HW1 2476   0.863   2.695   1.893
  810SOL    HW2 2477   0.897   2.672   1.735
  811SOL     OW 2478   0.682   2.860   0.651
  811SOL    HW1 2479   0.754   2.851   0.720
  811SOL    HW2 2480   0.608   2.916   0.688
  812SOL     OW 2481   0.713   3.014   1.819
  812SOL    HW1 2482   0.765   3.093   1.852
  812SOL    HW2 2483   0.628   3.046   1.776
  813SOL     OW 2484   0.333   3.283   1.065
  813SOL    HW1 2485   0.255   3.241   1.018
  813SOL    HW2 2486   0.384   3.340   1.001
  814SOL     OW 2487   1.458   3.363   1.358
  814SOL    HW1 2488   1.515   3.445   1.365
  814SOL    HW2 2489   1.387   3.366   1.428
  815SOL     OW 2490   0.443   2.256   1.492
  815SOL    HW1 2491   0.526   2.200   1.494
  815SOL    HW2 2492   0.363   2.197   1.501
  816SOL     OW 2493   1.611   2.310   0.744
  816SOL    HW1 2494   1.533   2.328   0.684
  816SOL    HW2 2495   1.619   2.384   0.811
  817SOL     OW 2496   0.198   3.614   0.466
  817SOL    HW1 2497   0.240   3.679   0.530
  817SOL    HW2 2498   0.269   3.567   0.414
  818SOL     OW 2499   1.137   3.202   1.697
  818SOL    HW1 2500   1.183   3.200   1.786
  818SOL    HW2 2501   1.081   3.119   1.687
  819SOL     OW 2502   0.267   3.327   0.541
  819SOL    HW1 2503   0.240   3.420   0.565
  819SOL    HW2 2504   0.225   3.262   0.604
  820SOL     OW 2505   0.272   2.945   0.909
  820SOL    HW1 2506   0.265   2.849   0.937
  820SOL    HW2 2507   0.199   2.997   0.953
  821SOL     OW 2508   0.601   3.658   1.427
  821SOL    HW1 2509   0.516   3.635   1.474
  821SOL    HW2 2510   0.631   3.750   1.455
  822SOL     OW 2511   0.586   2.830   0.147
  822SOL    HW1 2512   0.643   2.852   0.068
  822SOL    HW2 2513   0.622   2.875   0.228
  823SOL     OW 2514   1.597   1.987   1.469
  823SOL    HW1 2515   1.616   2.067   1.412
  823SOL    HW2 2516   1.582   2.016   1.564
  824SOL     OW 2517   0.130   2.481   0.572
  824SOL    HW1 2518   0.063   2.411   0.596
  824SOL    HW2 2519   0.122   2.558   0.636
  825SOL     OW 2520   1.847   3.624   0.344
  825SOL    HW1 2521   1.914   3.592   0.411
  825SOL    HW2 2522   1.846   3.724   0.344
  826SOL     OW 2523   6.972   3.414   0.121
  826SOL    HW1 2524   6.968   3.318   0.150
  826SOL    HW2 2525   0.023   3.467   0.188
  827SOL     OW 2526   1.691   2.778   0.649
  827SOL    HW1 2527   1.775   2.727   0.629
  827SOL    HW2 2528   1.668   2.836   0.570
  828SOL     OW 2529   1.654   2.961   0.443
  828SOL    HW1 2530   1.724   2.980   0.375
  828SOL    HW2 2531   1.660   3.029   0.517
  829SOL     OW 2532   0.146   2.593   1.580
  829SOL    HW1 2533   0.245   2.600   1.565
  829SOL    HW2 2534   0.111   2.681   1.612
  830SOL     OW 2535   0.612   3.251   0.737
  830SOL    HW1 2536   0.565   3.164   0.750
  830SOL    HW2 2537   0.601   3.280   0.641
  831SOL     OW 2538   1.288   3.097   1.422
  831SOL    HW1 2539   1.315   3.026   1.356
  831SOL    HW2 2540   1.348   3.093   1.502
  832SOL     OW 2541   0.820   1.874   0.513
  832SOL    HW1 2542   0.866   1.960   0.490
  832SOL    HW2 2543   0.722   1.890   0.521
  833SOL     OW 2544   0.204   2.823   1.262
  833SOL    HW1 2545   0.287   2.770   1.246
  833SOL    HW2 2546   0.132   2.793   1.200
  834SOL     OW 2547   1.490   2.878   0.209
  834SOL    HW1 2548   1.424   2.812   0.245
  834SOL    HW2 2549   1.574   2.873   0.263
  835SOL     OW 2550   1.183   3.673   1.622
  835SOL    HW1 2551   1.190   3.742   1.549
  835SOL    HW2 2552   1.202   3.583   1.585
  836SOL     OW 2553   0.353   2.113   1.831
  836SOL    HW1 2554   0.402   2.196   1.859
  836SOL    HW2 2555   0.256   2.122   1.854
  837SOL     OW 2556   1.464   3.283   0.947
  837SOL    HW1 2557   1.398   3.302   1.019
  837SOL    HW2 2558   1.457   3.187   0.919
  838SOL     OW 2559   1.649   3.611   0.580
  838SOL    HW1 2560   1.627   3.585   0.486
  838SOL    HW2 2561   1.627   3.536   0.642
  839SOL     OW 2562   0.600   2.581   0.265
  839SOL    HW1 2563   0.605   2.671   0.222
  839SOL    HW2 2564   0.535   2.584   0.341
  840SOL     OW 2565   1.277   2.220   0.933
  840SOL    HW1 2566   1.183   2.186   0.940
  840SOL    HW2 2567   1.336   2.168   0.994
  841SOL     OW 2568   1.583   3.540   0.317
  841SOL    HW1 2569   1.681   3.555   0.311
  841SOL    HW2 2570   1.544   3.538   0.225
  842SOL     OW 2571   0.790   2.475   1.450
  842SOL    HW1 2572   0.764   2.451   1.544
  842SOL    HW2 2573   0.752   2.407   1.387
  843SOL     OW 2574   1.391   2.332   1.679
  843SOL    HW1 2575   1.392   2.381   1.766
  843SOL    HW2 2576   1.452   2.253   1.686
  844SOL     OW 2577   0.952   2.747   1.583
  844SOL    HW1 2578   1.011   2.675   1.545
  844SOL    HW2 2579   0.899   2.789   1.509
  845SOL     OW 2580   0.994   2.268   1.230
  845SOL    HW1 2581   0.904   2.291   1.268
  845SOL    HW2 2582   0.982   2.218   1.144
  846SOL     OW 2583   1.051   2.562   0.428
  846SOL    HW1 2584   1.074   2.559   0.525
  846SOL    HW2 2585   0.965   2.514   0.412
  847SOL     OW 2586   0.105   2.678   0.773
  847SOL    HW1 2587   0.196   2.668   0.813
  847SOL    HW2 2588   0.043   2.717   0.841
  848SOL     OW 2589   0.120   3.732   1.591
  848SOL    HW1 2590   0.131   3.706   1.687
  848SOL    HW2 2591   0.030   3.704   1.559
  849SOL     OW 2592   0.889   2.206   0.208
  849SOL    HW1 2593   0.939   2.265   0.145
  849SOL    HW2 2594   0.904   2.110   0.182
  850SOL     OW 2595   1.701   2.435   1.826
  850SOL    HW1 2596   1.666   2.514   1.776
  850SOL    HW2 2597   1.731   2.365   1.761
  851SOL     OW 2598   1.381   3.003   0.548
  851SOL    HW1 2599   1.466   2.994   0.496
  851SOL    HW2 2600   1.323   3.072   0.503
  852SOL     OW 2601   0.552   2.040   0.900
  852SOL    HW1 2602   0.556   2.065   0.997
  852SOL    HW2 2603   0.559   2.123   0.844
  853SOL     OW 2604   0.989   3.302   0.471
  853SOL    HW1 2605   0.959   3.383   0.421
  853SOL    HW2 2606   0.972   3.314   0.569
  854SOL     OW 2607   0.358   3.679   0.867
  854SOL    HW1 2608   0.397   3.587   0.878
  854SOL    HW2 2609   0.427   3.747   0.891
  855SOL     OW 2610   1.800   2.916   0.873
  855SOL    HW1 2611   1.749   2.895   0.790
  855SOL    HW2 2612   1.736   2.923   0.950
  856SOL     OW 2613   1.227   3.398   1.514
  856SOL    HW1 2614   1.214   3.324   1.580
  856SOL    HW2 2615   1.158   3.390   1.442
  857SOL     OW 2616   0.310   2.801   0.227
  857SOL    HW1 2617   0.401   2.824   0.192
  857SOL    HW2 2618   0.287   2.708   0.200
  858SOL     OW 2619   1.484   2.608   0.723
  858SOL    HW1 2620   1.479   2.567   0.813
  858SOL    HW2 2621   1.564   2.669   0.718
  859SOL     OW 2622   0.472   3.123   1.728
  859SOL    HW1 2623   0.445   3.133   1.632
  859SOL    HW2 2624   0.391   3.124   1.786
  860SOL     OW 2625   1.119   3.628   0.236
  860SOL    HW1 2626   1.049   3.583   0.292
  860SOL    HW2 2627   1.157   3.563   0.170
  861SOL     OW 2628   0.196   2.130   1.490
  861SOL    HW1 2629   0.113   2.183   1.474
  861SOL    HW2 2630   0.172   2.045   1.538
  862SOL     OW 2631   1.623   3.290   0.074
  862SOL    HW1 2632   1.584   3.382   0.086
  862SOL    HW2 2633   1.559   3.223   0.111
  863SOL     OW 2634   0.482   3.574   0.352
  863SOL    HW1 2635   0.513   3.649   0.411
  863SOL    HW2 2636   0.558   3.540   0.297
  864SOL     OW 2637   1.405   1.968   0.443
  864SOL    HW1 2638   1.396   1.939   0.348
  864SOL    HW2 2639   1.501   1.978   0.466
  865SOL     OW 2640   0.259   3.656   1.223
  865SOL    HW1 2641   0.309   3.582   1.267
  865SOL    HW2 2642   0.213   3.621   1.141
  866SOL     OW 2643   0.936   3.564   0.897
  866SOL    HW1 2644   1.019   3.517   0.927
  866SOL    HW2 2645   0.893   3.512   0.823
  867SOL     OW 2646   0.402   2.549   0.468
  867SOL    HW1 2647   0.424   2.453   0.487
  867SOL    HW2 2648   0.306   2.566   0.489
  868SOL     OW 2649   1.528   2.085   1.728
  868SOL    HW1 2650   1.539   2.106   1.825
  868SOL    HW2 2651   1.456   2.017   1.716
  869SOL     OW 2652   0.763   2.139   1.757
  869SOL    HW1 2653   0.848   2.086   1.750
  869SOL    HW2 2654   0.711   2.109   1.837
  870SOL     OW 2655   0.876   3.378   1.192
  870SOL    HW1 2656   0.856   3.341   1.101
  870SOL    HW2 2657   0.948   3.323   1.235
  871SOL     OW 2658   1.340   2.451   1.435
  871SOL    HW1 2659   1.370   2.416   1.524
  871SOL    HW2 2660   1.375   2.543   1.422
  872SOL     OW 2661   0.820   3.251   0.942
  872SOL    HW1 2662   0.909   3.240   0.899
  872SOL    HW2 2663   0.749   3.256   0.871
  873SOL     OW 2664   0.927   2.368   0.899
  873SOL    HW1 2665   0.900   2.361   0.803
  873SOL    HW2 2666   0.960   2.280   0.932
  874SOL     OW 2667   0.552   1.930   0.502
  874SOL    HW1 2668   0.470   1.930   0.560
  874SOL    HW2 2669   0.546   2.006   0.437
  875SOL     OW 2670   1.418   3.075   0.013
  875SOL    HW1 2671   1.448   2.994   0.064
  875SOL    HW2 2672   1.335   3.111   0.054
  876SOL     OW 2673   0.949   2.112   0.462
  876SOL    HW1 2674   0.917   2.153   0.376
  876SOL    HW2 2675   1.048   2.126   0.470
  877SOL     OW 2676   1.080   2.545   1.455
  877SOL    HW1 2677   1.005   2.478   1.461
  877SOL    HW2 2678   1.167   2.497   1.451
  878SOL     OW 2679   1.218   3.431   0.795
  878SOL    HW1 2680   1.234   3.500   0.724
  878SOL    HW2 2681   1.291   3.438   0.863
  879SOL     OW 2682   0.469   3.013   0.734
  879SOL    HW1 2683   0.401   2.992   0.805
  879SOL    HW2 2684   0.429   2.998   0.644
  880SOL     OW 2685   1.263   3.654   0.610
  880SOL    HW1 2686   1.316   3.717   0.554
  880SOL    HW2 2687   1.190   3.704   0.656
  881SOL     OW 2688   1.062   2.438   0.032
  881SOL    HW1 2689   0.967   2.464   0.051
  881SOL    HW2 2690   1.111   2.428   0.119
  882SOL     OW 2691   0.073   2.414   1.375
  882SOL    HW1 2692   0.169   2.406   1.347
  882SOL    HW2 2693   0.066   2.482   1.448
  883SOL     OW 2694   0.565   2.084   1.171
  883SOL    HW1 2695   0.615   2.008   1.212
  883SOL    HW2 2696   0.470   2.082   1.202
  884SOL     OW 2697   0.864   2.318   0.639
  884SOL    HW1 2698   0.823   2.381   0.573
  884SOL    HW2 2699   0.894   2.236   0.591
  885SOL     OW 2700   1.015   1.914   0.745
  885SOL    HW1 2701   0.954   1.912   0.666
  885SOL    HW2 2702   0.993   1.839   0.807
  886SOL     OW 2703   1.447   3.023   0.860
  886SOL    HW1 2704   1.370   2.959   0.861
  886SOL    HW2 2705   1.480   3.034   0.767
  887SOL     OW 2706   1.468   2.470   0.971
  887SOL    HW1 2707   1.406   2.391   0.971
  887SOL    HW2 2708   1.529   2.464   1.050
  888SOL     OW 2709   1.827   2.666   0.391
  888SOL    HW1 2710   1.889   2.605   0.442
  888SOL    HW2 2711   1.823   2.636   0.296
  889SOL     OW 2712   0.477   3.280   0.173
  889SOL    HW1 2713   0.436   3.215   0.236
  889SOL    HW2 2714   0.425   3.279   0.087
  890SOL     OW 2715   1.671   3.127   0.653
  890SOL    HW1 2716   1.771   3.126   0.661
  890SOL    HW2 2717   1.638   3.221   0.666
  891SOL     OW 2718   1.391   2.414   0.067
  891SOL    HW1 2719   1.331   2.412   0.147
  891SOL    HW2 2720   1.454   2.337   0.071
  892SOL     OW 2721   0.513   2.122   0.313
  892SOL    HW1 2722   0.517   2.055   0.239
  892SOL    HW2 2723   0.492   2.212   0.276
  893SOL     OW 2724   1.753   3.103   1.561
  893SOL    HW1 2725   1.842   3.060   1.548
  893SOL    HW2 2726   1.764   3.196   1.595
  894SOL     OW 2727   1.053   3.212   1.336
  894SOL    HW1 2728   0.972   3.182   1.386
  894SOL    HW2 2729   1.135   3.172   1.378
  895SOL     OW 2730   1.614   3.492   1.657
  895SOL    HW1 2731   1.598   3.527   1.565
  895SOL    HW2 2732   1.699   3.440   1.659
  896SOL     OW 2733   1.137   3.081   1.105
  896SOL    HW1 2734   1.077   3.115   1.177
  896SOL    HW2 2735   1.103   3.112   1.016
  897SOL     OW 2736   1.624   2.958   1.079
  897SOL    HW1 2737   1.620   3.024   1.155
  897SOL    HW2 2738   1.549   2.976   1.016
  898SOL     OW 2739   0.923   1.957   1.391
  898SOL    HW1 2740   0.944   1.933   1.296
  898SOL    HW2 2741   1.002   2.000   1.434
  899SOL     OW 2742   0.980   2.976   1.721
  899SOL    HW1 2743   0.886   2.996   1.748
  899SOL    HW2 2744   0.982   2.894   1.665
  900SOL     OW 2745   0.713   2.920   0.376
  900SOL    HW1 2746   0.695   2.903   0.473
  900SOL    HW2 2747   0.793   2.867   0.347
  901SOL     OW 2748   0.429   2.667   1.249
  901SOL    HW1 2749   0.499   2.683   1.318
  901SOL    HW2 2750   0.387   2.578   1.264
  902SOL     OW 2751   1.263   2.238   1.280
  902SOL    HW1 2752   1.299   2.317   1.329
  902SOL    HW2 2753   1.167   2.256   1.255
  903SOL     OW 2754   0.068   3.427   1.318
  903SOL    HW1 2755   0.017   3.512   1.335
  903SOL    HW2 2756   0.165   3.441   1.339
  904SOL     OW 2757   0.355   2.961   0.494
  904SOL    HW1 2758   0.335   3.036   0.431
  904SOL    HW2 2759   0.361   2.875   0.443
  905SOL     OW 2760   0.550   2.402   0.859
  905SOL    HW1 2761   0.563   2.464   0.781
  905SOL    HW2 2762   0.616   2.423   0.930
  906SOL     OW 2763   1.237   3.205   0.408
  906SOL    HW1 2764   1.300   3.279   0.433
  906SOL    HW2 2765   1.145   3.229   0.437
  907SOL     OW 2766   1.288   3.324   1.147
  907SOL    HW1 2767   1.346   3.329   1.228
  907SOL    HW2 2768   1.233   3.240   1.151
  908SOL     OW 2769   1.587   2.492   0.479
  908SOL    HW1 2770   1.529   2.532   0.549
  908SOL    HW2 2771   1.643   2.563   0.437
  909SOL     OW 2772   0.351   3.395   1.309
  909SOL    HW1 2773   0.332   3.348   1.223
  909SOL    HW2 2774   0.450   3.407   1.319
  910SOL     OW 2775   0.424   2.597   1.598
  910SOL    HW1 2776   0.485   2.649   1.538
  910SOL    HW2 2777   0.467   2.510   1.622
  911SOL     OW 2778   1.608   2.647   1.684
  911SOL    HW1 2779   1.517   2.689   1.682
  911SOL    HW2 2780   1.665   2.688   1.613
  912SOL     OW 2781   0.997   1.996   1.750
  912SOL    HW1 2782   1.055   2.076   1.734
  912SOL    HW2 2783   1.046   1.913   1.724
  913SOL     OW 2784   0.496   1.897   1.749
  913SOL    HW1 2785   0.450   1.841   1.680
  913SOL    HW2 2786   0.440   1.978   1.769
  914SOL     OW 2787   0.587   2.733   1.032
  914SOL    HW1 2788   0.619   2.827   1.028
  914SOL    HW2 2789   0.528   2.721   1.112
  915SOL     OW 2790   1.352   2.719   1.025
  915SOL    HW1 2791   1.263   2.712   0.982
  915SOL    HW2 2792   1.401   2.632   1.016
  916SOL     OW 2793   1.197   2.385   0.273
  916SOL    HW1 2794   1.215   2.306   0.331
  916SOL    HW2 2795   1.157   2.459   0.328
  917SOL     OW 2796   0.308   2.057   1.246
  917SOL    HW1 2797   0.269   2.093   1.330
  917SOL    HW2 2798   0.291   1.959   1.240
  918SOL     OW 2799   0.097   3.168   1.263
  918SOL    HW1 2800   0.105   3.106   1.341
  918SOL    HW2 2801   0.087   3.262   1.296
  919SOL     OW 2802   0.722   2.491   1.053
  919SOL    HW1 2803   0.801   2.472   0.995
  919SOL    HW2 2804   0.689   2.584   1.036
  920SOL     OW 2805   1.736   2.822   1.856
  920SOL    HW1 2806   1.693   2.754   1.797
  920SOL    HW2 2807   1.676   2.842   1.934
  921SOL     OW 2808   0.311   1.935   0.632
  921SOL    HW1 2809   0.288   2.030   0.654
  921SOL    HW2 2810   0.321   1.882   0.716
  922SOL     OW 2811   1.630   2.245   0.368
  922SOL    HW1 2812   1.646   2.173   0.436
  922SOL    HW2 2813   1.604   2.329   0.416
  923SOL     OW 2814   1.023   2.617   0.958
  923SOL    HW1 2815   1.019   2.639   1.055
  923SOL    HW2 2816   0.996   2.521   0.944
  924SOL     OW 2817   0.983   3.425   1.717
  924SOL    HW1 2818   0.965   3.473   1.631
  924SOL    HW2 2819   1.030   3.339   1.699
  925SOL     OW 2820   1.855   3.365   1.604
  925SOL    HW1 2821   1.873   3.392   1.509
  925SOL    HW2 2822   1.938   3.377   1.658
  926SOL     OW 2823   0.365   2.779   1.798
  926SOL    HW1 2824   0.443   2.804   1.856
  926SOL    HW2 2825   0.394   2.711   1.731
  927SOL     OW 2826   1.491   2.155   0.147
  927SOL    HW1 2827   1.450   2.064   0.160
  927SOL    HW2 2828   1.544   2.180   0.228
  928SOL     OW 2829   1.292   2.682   0.033
  928SOL    HW1 2830   1.340   2.595   0.024
  928SOL    HW2 2831   1.318   2.743   6.958
  929SOL     OW 2832   1.069   3.199   0.855
  929SOL    HW1 2833   1.074   3.121   0.792
  929SOL    HW2 2834   1.129   3.273   0.821
  930SOL     OW 2835   0.321   2.662   0.941
  930SOL    HW1 2836   0.418   2.688   0.943
  930SOL    HW2 2837   0.311   2.571   0.981
  931SOL     OW 2838   0.331   2.382   1.014
  931SOL    HW1 2839   0.292   2.291   1.000
  931SOL    HW2 2840   0.410   2.394   0.954
  932SOL     OW 2841   1.134   2.235   1.692
  932SOL    HW1 2842   1.081   2.292   1.755
  932SOL    HW2 2843   1.226   2.272   1.683
  933SOL     OW 2844   1.161   2.065   1.475
  933SOL    HW1 2845   1.147   2.128   1.552
  933SOL    HW2 2846   1.204   2.115   1.400
  934SOL     OW 2847   6.994   3.161   0.222
  934SOL    HW1 2848   6.925   3.185   0.290
  934SOL    HW2 2849   0.025   3.067   0.237
  935SOL     OW 2850   0.098   3.620   0.949
  935SOL    HW1 2851   0.075   3.546   0.885
  935SOL    HW2 2852   0.184   3.662   0.923
  936SOL     OW 2853   0.493   3.440   0.903
  936SOL    HW1 2854   0.563   3.506   0.930
  936SOL    HW2 2855   0.534   3.371   0.843
  937SOL     OW 2856   0.975   2.655   1.224
  937SOL    HW1 2857   1.036   2.632   1.300
  937SOL    HW2 2858   0.885   2.615   1.240
  938SOL     OW 2859   0.050   2.470   1.106
  938SOL    HW1 2860   0.125   2.421   1.061
  938SOL    HW2 2861   0.051   2.449   1.204
  939SOL     OW 2862   0.210   2.373   1.723
  939SOL    HW1 2863   0.285   2.327   1.676
  939SOL    HW2 2864   0.189   2.459   1.676
  940SOL     OW 2865   1.380   2.797   1.655
  940SOL    HW1 2866   1.403   2.894   1.656
  940SOL    HW2 2867   1.377   2.765   1.560
  941SOL     OW 2868   0.817   2.430   0.371
  941SOL    HW1 2869   0.826   2.353   0.309
  941SOL    HW2 2870   0.741   2.488   0.341
  942SOL     OW 2871   1.643   2.465   1.181
  942SOL    HW1 2872   1.626   2.405   1.260
  942SOL    HW2 2873   1.734   2.447   1.145
  943SOL     OW 2874   0.285   3.422   1.740
  943SOL    HW1 2875   0.230   3.490   1.789
  943SOL    HW2 2876   0.266   3.331   1.776
  944SOL     OW 2877   0.706   2.311   1.254
  944SOL    HW1 2878   0.652   2.231   1.229
  944SOL    HW2 2879   0.703   2.378   1.180
  945SOL     OW 2880   0.921   3.543   1.471
  945SOL    HW1 2881   0.894   3.497   1.386
  945SOL    HW2 2882   0.920   3.642   1.457
  946SOL     OW 2883   0.462   2.358   0.194
  946SOL    HW1 2884   0.521   2.436   0.213
  946SOL    HW2 2885   0.366   2.387   0.194
  947SOL     OW 2886   0.165   2.985   1.469
  947SOL    HW1 2887   0.154   2.924   1.548
  947SOL    HW2 2888   0.179   2.930   1.387
  948SOL     OW 2889   1.315   2.906   1.219
  948SOL    HW1 2890   1.343   2.838   1.151
  948SOL    HW2 2891   1.248   2.968   1.179
  949SOL     OW 2892   1.301   2.707   0.307
  949SOL    HW1 2893   1.219   2.679   0.357
  949SOL    HW2 2894   1.289   2.687   0.209
  950SOL     OW 2895   1.781   3.592   1.157
  950SOL    HW1 2896   1.842   3.626   1.085
  950SOL    HW2 2897   1.749   3.500   1.133
  951SOL     OW 2898   1.241   3.595   1.106
  951SOL    HW1 2899   1.327   3.624   1.063
  951SOL    HW2 2900   1.246   3.498   1.129
  952SOL     OW 2901   0.071   3.107   1.004
  952SOL    HW1 2902   0.088   3.127   1.101
  952SOL    HW2 2903   6.973   3.092   0.991
  953SOL     OW 2904   0.682   3.536   1.737
  953SOL    HW1 2905   0.617   3.612   1.732
  953SOL    HW2 2906   0.753   3.548   1.667
  954SOL     OW 2907   0.938   1.941   0.112
  954SOL    HW1 2908   1.009   1.995   0.066
  954SOL    HW2 2909   0.981   1.880   0.178
  955SOL     OW 2910   1.702   2.013   0.509
  955SOL    HW1 2911   1.783   2.013   0.450
  955SOL    HW2 2912   1.692   1.924   0.553
  956SOL     OW 2913   1.389   3.428   0.491
  956SOL    HW1 2914   1.455   3.454   0.421
  956SOL    HW2 2915   1.339   3.509   0.521
  957SOL     OW 2916   0.139   3.647   1.853
  957SOL    HW1 2917   0.094   3.574   1.903
  957SOL    HW2 2918   0.194   3.702   1.916
  958SOL     OW 2919   1.282   2.786   0.669
  958SOL    HW1 2920   1.357   2.721   0.683
  958SOL    HW2 2921   1.316   2.864   0.617
  959SOL     OW 2922   0.803   3.141   1.426
  959SOL    HW1 2923   0.775   3.184   1.512
  959SOL    HW2 2924   0.733   3.156   1.356
  960SOL     OW 2925   0.674   3.467   0.192
  960SOL    HW1 2926   0.680   3.513   0.103
  960SOL    HW2 2927   0.617   3.385   0.183
  961SOL     OW 2928   1.617   3.591   1.387
  961SOL    HW1 2929   1.675   3.591   1.306
  961SOL    HW2 2930   1.603   3.684   1.419
  962SOL     OW 2931   1.843   2.032   0.963
  962SOL    HW1 2932   1.876   1.940   0.941
  962SOL    HW2 2933   1.751   2.043   0.924
  963SOL     OW 2934   0.261   2.186   0.718
  963SOL    HW1 2935   0.183   2.244   0.696
  963SOL    HW2 2936   0.262   2.165   0.816
  964SOL     OW 2937   1.217   3.457   0.037
  964SOL    HW1 2938   1.211   3.363   0.070
  964SOL    HW2 2939   1.130   3.483   6.994
  965SOL     OW 2940   0.824   2.872   1.378
  965SOL    HW1 2941   0.873   2.857   1.292
  965SOL    HW2 2942   0.820   2.970   1.398
  966SOL     OW 2943   0.923   2.775   0.292
  966SOL    HW1 2944   0.978   2.804   0.214
  966SOL    HW2 2945   0.972   2.704   0.343
  967SOL     OW 2946   1.479   3.533   0.049
  967SOL    HW1 2947   1.384   3.503   0.042
  967SOL    HW2 2948   1.523   3.525   6.959
  968SOL     OW 2949   0.372   3.169   1.485
  968SOL    HW1 2950   0.359   3.250   1.428
  968SOL    HW2 2951   0.302   3.101   1.464
  969SOL     OW 2952   1.613   3.146   1.284
  969SOL    HW1 2953   1.676   3.127   1.360
  969SOL    HW2 2954   1.547   3.216   1.313
  970SOL     OW 2955   1.061   2.968   0.715
  970SOL    HW1 2956   0.985   2.918   0.755
  970SOL    HW2 2957   1.129   2.903   0.680
  971SOL     OW 2958   1.022   2.101   0.967
  971SOL    HW1 2959   1.018   2.057   0.877
  971SOL    HW2 2960   1.020   2.031   1.038
  972SOL     OW 2961   0.611   3.344   0.483
  972SOL    HW1 2962   0.654   3.292   0.409
  972SOL    HW2 2963   0.539   3.402   0.446
  973SOL     OW 2964   1.731   2.256   1.381
  973SOL    HW1 2965   1.804   2.324   1.381
  973SOL    HW2 2966   1.757   2.180   1.320
  974SOL     OW 2967   0.284   3.163   0.332
  974SOL    HW1 2968   0.198   3.163   0.282
  974SOL    HW2 2969   0.279   3.228   0.408
  975SOL     OW 2970   0.121   2.835   1.702
  975SOL    HW1 2971   0.066   2.886   1.769
  975SOL    HW2 2972   0.212   2.817   1.740
  976SOL     OW 2973   0.683   2.057   1.499
  976SOL    HW1 2974   0.769   2.032   1.456
  976SOL    HW2 2975   0.701   2.090   1.592
  977SOL     OW 2976   0.063   2.243   0.020
  977SOL    HW1 2977   6.972   2.231   6.980
  977SOL    HW2 2978   0.125   2.281   6.952
  978SOL     OW 2979   1.423   2.718   1.395
  978SOL    HW1 2980   1.368   2.782   1.341
  978SOL    HW2 2981   1.517   2.720   1.361
  979SOL     OW 2982   0.029   2.052   0.357
  979SOL    HW1 2983   0.066   2.139   0.326
  979SOL    HW2 2984   0.103   1.987   0.372
  980SOL     OW 2985   1.187   3.205   0.130
  980SOL    HW1 2986   1.089   3.190   0.115
  980SOL    HW2 2987   1.207   3.197   0.228
  981SOL     OW 2988   0.624   2.692   1.434
  981SOL    HW1 2989   0.680   2.774   1.419
  981SOL    HW2 2990   0.683   2.612   1.443
  982SOL     OW 2991   1.485   3.651   0.988
  982SOL    HW1 2992   1.507   3.712   0.912
  982SOL    HW2 2993   1.570   3.614   1.027
  983SOL     OW 2994   0.718   2.421   1.703
  983SOL    HW1 2995   0.765   2.488   1.761
  983SOL    HW2 2996   0.739   2.329   1.736
  984SOL     OW 2997   1.474   3.058   1.634
  984SOL    HW1 2998   1.458   3.071   1.732
  984SOL    HW2 2999   1.569   3.077   1.613
  985SOL     OW 3000   0.371   3.608   1.563
  985SOL    HW1 3001   0.284   3.654   1.548
  985SOL    HW2 3002   0.356   3.524   1.615
  986SOL     OW 3003   1.666   2.740   1.256
  986SOL    HW1 3004   1.661   2.649   1.214
  986SOL    HW2 3005   1.653   2.810   1.185
  987SOL     OW 3006   1.222   2.176   0.461
  987SOL    HW1 3007   1.286   2.100   0.453
  987SOL    HW2 3008   1.246   2.232   0.540
  988SOL     OW 3009   0.588   2.597   0.667
  988SOL    HW1 3010   0.629   2.688   0.661
  988SOL    HW2 3011   0.519   2.588   0.596
  989SOL     OW 3012   1.751   2.227   1.653
  989SOL    HW1 3013   1.741   2.243   1.554
  989SOL    HW2 3014   1.677   2.167   1.684
  990SOL     OW 3015   1.752   2.794   1.509
  990SOL    HW1 3016   1.741   2.891   1.531
  990SOL    HW2 3017   1.731   2.779   1.413
  991SOL     OW 3018   0.904   3.245   0.053
  991SOL    HW1 3019   0.841   3.220   0.127
  991SOL    HW2 3020   0.906   3.344   0.043
  992SOL     OW 3021   0.666   3.649   0.941
  992SOL    HW1 3022   0.644   3.744   0.919
  992SOL    HW2 3023   0.764   3.633   0.931
  993SOL     OW 3024   0.869   2.832   0.856
  993SOL    HW1 3025   0.920   2.754   0.893
  993SOL    HW2 3026   0.826   2.883   0.932
  994SOL     OW 3027   1.080   2.845   0.080
  994SOL    HW1 3028   1.082   2.906   7.000
  994SOL    HW2 3029   1.158   2.783   0.076
  995SOL     OW 3030   1.846   3.419   0.846
  995SOL    HW1 3031   1.769   3.405   0.783
  995SOL    HW2 3032   1.846   3.347   0.915
  996SOL     OW 3033   0.242   3.170   1.865
  996SOL    HW1 3034   0.150   3.138   1.843
  996SOL    HW2 3035   0.252   3.180   1.964
  997SOL     OW 3036   0.149   3.138   0.692
  997SOL    HW1 3037   0.097   3.093   0.765
  997SOL    HW2 3038   0.183   3.069   0.628
  998SOL     OW 3039   0.686   3.271   1.635
  998SOL    HW1 3040   0.604   3.221   1.664
  998SOL    HW2 3041   0.681   3.364   1.671
  999SOL     OW 3042   1.805   2.044   1.233
  999SOL    HW1 3043   1.819   1.948   1.258
  999SOL    HW2 3044   1.818   2.056   1.135
 1000SOL     OW 3045   0.438   2.291   0.527
 1000SOL    HW1 3046   0.485   2.219   0.476
 1000SOL    HW2 3047   0.399   2.252   0.610
 1001SOL     OW 3048   1.692   3.346   1.095
 1001SOL    HW1 3049   1.612   3.327   1.038
 1001SOL    HW2 3050   1.700   3.274   1.164
 1002SOL     OW 3051   0.331   2.414   1.291
 1002SOL    HW1 3052   0.388   2.358   1.352
 1002SOL    HW2 3053   0.348   2.387   1.197
 1003SOL     OW 3054   0.827   3.441   0.681
 1003SOL    HW1 3055   0.815   3.499   0.600
 1003SOL    HW2 3056   0.750   3.377   0.688
 1004SOL     OW 3057   1.430   2.093   1.117
 1004SOL    HW1 3058   1.452   2.002   1.153
 1004SOL    HW2 3059   1.376   2.144   1.184
 1005SOL     OW 3060   1.010   1.878   1.138
 1005SOL    HW1 3061   0.946   1.814   1.095
 1005SOL    HW2 3062   1.101   1.838   1.139
 1006SOL     OW 3063   0.781   3.182   0.310
 1006SOL    HW1 3064   0.749   3.089   0.329
 1006SOL    HW2 3065   0.860   3.203   0.368
 1007SOL     OW 3066   0.626   3.421   1.289
 1007SOL    HW1 3067   0.623   3.507   1.339
 1007SOL    HW2 3068   0.716   3.409   1.249
 1008SOL     OW 3069   1.361   1.906   0.180
 1008SOL    HW1 3070   1.404   1.843   0.116
 1008SOL    HW2 3071   1.267   1.876   0.197
 1009SOL     OW 3072   1.289   2.325   0.680
 1009SOL    HW1 3073   1.238   2.411   0.683
 1009SOL    HW2 3074   1.288   2.283   0.771
 1010SOL     OW 3075   1.587   2.066   0.884
 1010SOL    HW1 3076   1.528   2.085   0.962
 1010SOL    HW2 3077   1.588   2.146   0.823
 1011SOL     OW 3078   0.075   2.915   0.311
 1011SOL    HW1 3079   0.166   2.874   0.300
 1011SOL    HW2 3080   0.006   2.843   0.312
 1012SOL     OW 3081   0.890   3.525   0.353
 1012SOL    HW1 3082   0.814   3.497   0.293
 1012SOL    HW2 3083   0.861   3.604   0.407
 1013SOL     OW 3084   0.185   2.514   1.983
 1013SOL    HW1 3085   0.175   2.448   2.057
 1013SOL    HW2 3086   0.226   2.469   1.904
 1014SOL     OW 3087   0.231   2.133   2.850
 1014SOL    HW1 3088   0.281   2.101   2.930
 1014SOL    HW2 3089   0.133   2.116   2.863
 1015SOL     OW 3090   6.990   2.247   2.515
 1015SOL    HW1 3091   6.942   2.243   2.603
 1015SOL    HW2 3092   0.012   2.154   2.485
 1016SOL     OW 3093   0.560   3.149   3.039
 1016SOL    HW1 3094   0.471   3.164   2.997
 1016SOL    HW2 3095   0.591   3.233   3.083
 1017SOL     OW 3096   1.564   3.375   2.570
 1017SOL    HW1 3097   1.522   3.352   2.657
 1017SOL    HW2 3098   1.494   3.382   2.499
 1018SOL     OW 3099   1.133   2.565   2.557
 1018SOL    HW1 3100   1.185   2.649   2.540
 1018SOL    HW2 3101   1.082   2.573   2.643
 1019SOL     OW 3102   1.770   2.461   2.085
 1019SOL    HW1 3103   1.746   2.457   1.988
 1019SOL    HW2 3104   1.732   2.382   2.132
 1020SOL     OW 3105   0.745   3.002   2.905
 1020SOL    HW1 3106   0.672   3.037   2.963
 1020SOL    HW2 3107   0.789   3.078   2.857
 1021SOL     OW 3108   0.874   2.625   3.683
 1021SOL    HW1 3109   0.877   2.691   3.758
 1021SOL    HW2 3110   0.897   2.671   3.598
 1022SOL     OW 3111   0.683   2.862   2.512
 1022SOL    HW1 3112   0.755   2.852   2.581
 1022SOL    HW2 3113   0.608   2.917   2.549
 1023SOL     OW 3114   0.333   3.280   2.926
 1023SOL    HW1 3115   0.254   3.242   2.877
 1023SOL    HW2 3116   0.385   3.339   2.864
 1024SOL     OW 3117   1.469   3.361   3.203
 1024SOL    HW1 3118   1.521   3.446   3.212
 1024SOL    HW2 3119   1.402   3.355   3.278
 1025SOL     OW 3120   0.443   2.256   3.354
 1025SOL    HW1 3121   0.526   2.200   3.356
 1025SOL    HW2 3122   0.363   2.198   3.363
 1026SOL     OW 3123   1.611   2.308   2.607
 1026SOL    HW1 3124   1.536   2.327   2.543
 1026SOL    HW2 3125   1.619   2.383   2.672
 1027SOL     OW 3126   0.226   3.572   2.328
 1027SOL    HW1 3127   0.241   3.651   2.387
 1027SOL    HW2 3128   0.297   3.569   2.258
 1028SOL     OW 3129   1.166   3.196   3.572
 1028SOL    HW1 3130   1.195   3.198   3.668
 1028SOL    HW2 3131   1.114   3.112   3.555
 1029SOL     OW 3132   0.276   3.304   2.381
 1029SOL    HW1 3133   0.254   3.402   2.388
 1029SOL    HW2 3134   0.227   3.254   2.452
 1030SOL     OW 3135   0.268   2.944   2.768
 1030SOL    HW1 3136   0.265   2.848   2.798
 1030SOL    HW2 3137   0.198   2.996   2.815
 1031SOL     OW 3138   0.609   3.651   3.305
 1031SOL    HW1 3139   0.519   3.634   3.344
 1031SOL    HW2 3140   0.636   3.746   3.325
 1032SOL     OW 3141   0.581   2.850   2.003
 1032SOL    HW1 3142   0.629   2.897   1.929
 1032SOL    HW2 3143   0.620   2.877   2.091
 1033SOL     OW 3144   1.597   1.987   3.331
 1033SOL    HW1 3145   1.617   2.067   3.274
 1033SOL    HW2 3146   1.582   2.016   3.426
 1034SOL     OW 3147   0.132   2.477   2.436
 1034SOL    HW1 3148   0.063   2.408   2.460
 1034SOL    HW2 3149   0.122   2.556   2.497
 1035SOL     OW 3150   1.846   3.618   2.194
 1035SOL    HW1 3151   1.916   3.587   2.259
 1035SOL    HW2 3152   1.862   3.714   2.171
 1036SOL     OW 3153   0.036   3.454   2.009
 1036SOL    HW1 3154   0.026   3.356   2.022
 1036SOL    HW2 3155   6.960   3.501   2.055
 1037SOL     OW 3156   1.691   2.783   2.509
 1037SOL    HW1 3157   1.775   2.732   2.492
 1037SOL    HW2 3158   1.667   2.837   2.428
 1038SOL     OW 3159   1.652   2.967   2.294
 1038SOL    HW1 3160   1.741   2.964   2.248
 1038SOL    HW2 3161   1.655   3.034   2.368
 1039SOL     OW 3162   0.146   2.593   3.442
 1039SOL    HW1 3163   0.244   2.600   3.426
 1039SOL    HW2 3164   0.110   2.681   3.473
 1040SOL     OW 3165   0.611   3.252   2.596
 1040SOL    HW1 3166   0.564   3.165   2.609
 1040SOL    HW2 3167   0.598   3.282   2.502
 1041SOL     OW 3168   1.279   3.072   3.284
 1041SOL    HW1 3169   1.314   3.007   3.217
 1041SOL    HW2 3170   1.344   3.078   3.361
 1042SOL     OW 3171   0.817   1.871   2.370
 1042SOL    HW1 3172   0.863   1.957   2.348
 1042SOL    HW2 3173   0.718   1.887   2.378
 1043SOL     OW 3174   0.204   2.823   3.124
 1043SOL    HW1 3175   0.287   2.770   3.108
 1043SOL    HW2 3176   0.132   2.792   3.062
 1044SOL     OW 3177   1.532   2.862   2.066
 1044SOL    HW1 3178   1.458   2.802   2.096
 1044SOL    HW2 3179   1.579   2.900   2.146
 1045SOL     OW 3180   0.353   2.113   3.693
 1045SOL    HW1 3181   0.402   2.196   3.721
 1045SOL    HW2 3182   0.256   2.122   3.716
 1046SOL     OW 3183   1.465   3.282   2.810
 1046SOL    HW1 3184   1.397   3.302   2.880
 1046SOL    HW2 3185   1.456   3.187   2.781
 1047SOL     OW 3186   1.651   3.610   2.438
 1047SOL    HW1 3187   1.633   3.582   2.344
 1047SOL    HW2 3188   1.628   3.535   2.500
 1048SOL     OW 3189   0.589   2.579   2.128
 1048SOL    HW1 3190   0.599   2.666   2.081
 1048SOL    HW2 3191   0.526   2.589   2.204
 1049SOL     OW 3192   1.277   2.221   2.796
 1049SOL    HW1 3193   1.184   2.186   2.802
 1049SOL    HW2 3194   1.336   2.168   2.857
 1050SOL     OW 3195   1.583   3.535   2.170
 1050SOL    HW1 3196   1.679   3.562   2.166
 1050SOL    HW2 3197   1.550   3.518   2.077
 1051SOL     OW 3198   0.788   2.476   3.312
 1051SOL    HW1 3199   0.764   2.451   3.406
 1051SOL    HW2 3200   0.752   2.407   3.249
 1052SOL     OW 3201   1.391   2.332   3.541
 1052SOL    HW1 3202   1.392   2.381   3.628
 1052SOL    HW2 3203   1.452   2.253   3.547
 1053SOL     OW 3204   0.950   2.749   3.444
 1053SOL    HW1 3205   1.007   2.676   3.407
 1053SOL    HW2 3206   0.899   2.793   3.370
 1054SOL     OW 3207   0.993   2.269   3.091
 1054SOL    HW1 3208   0.903   2.289   3.128
 1054SOL    HW2 3209   0.984   2.219   3.005
 1055SOL     OW 3210   1.049   2.560   2.287
 1055SOL    HW1 3211   1.071   2.556   2.384
 1055SOL    HW2 3212   0.963   2.513   2.270
 1056SOL     OW 3213   0.102   2.680   2.637
 1056SOL    HW1 3214   0.194   2.670   2.672
 1056SOL    HW2 3215   0.042   2.715   2.709
 1057SOL     OW 3216   0.122   3.736   3.453
 1057SOL    HW1 3217   0.129   3.709   3.549
 1057SOL    HW2 3218   0.036   3.702   3.415
 1058SOL     OW 3219   0.896   2.215   2.059
 1058SOL    HW1 3220   0.936   2.282   1.997
 1058SOL    HW2 3221   0.903   2.123   2.019
 1059SOL     OW 3222   1.700   2.435   3.688
 1059SOL    HW1 3223   1.665   2.514   3.638
 1059SOL    HW2 3224   1.731   2.365   3.623
 1060SOL     OW 3225   1.379   3.005   2.396
 1060SOL    HW1 3226   1.464   2.990   2.345
 1060SOL    HW2 3227   1.323   3.072   2.348
 1061SOL     OW 3228   0.550   2.037   2.761
 1061SOL    HW1 3229   0.556   2.067   2.857
 1061SOL    HW2 3230   0.555   2.117   2.701
 1062SOL     OW 3231   0.995   3.305   2.326
 1062SOL    HW1 3232   0.964   3.385   2.276
 1062SOL    HW2 3233   0.978   3.318   2.424
 1063SOL     OW 3234   0.357   3.681   2.730
 1063SOL    HW1 3235   0.398   3.590   2.740
 1063SOL    HW2 3236   0.426   3.751   2.750
 1064SOL     OW 3237   1.799   2.919   2.733
 1064SOL    HW1 3238   1.747   2.895   2.651
 1064SOL    HW2 3239   1.736   2.925   2.811
 1065SOL     OW 3240   1.264   3.351   3.371
 1065SOL    HW1 3241   1.240   3.288   3.445
 1065SOL    HW2 3242   1.186   3.362   3.310
 1066SOL     OW 3243   0.318   2.807   2.113
 1066SOL    HW1 3244   0.405   2.833   2.071
 1066SOL    HW2 3245   0.287   2.720   2.075
 1067SOL     OW 3246   1.483   2.612   2.584
 1067SOL    HW1 3247   1.477   2.567   2.674
 1067SOL    HW2 3248   1.564   2.671   2.582
 1068SOL     OW 3249   0.445   3.090   3.621
 1068SOL    HW1 3250   0.445   3.113   3.524
 1068SOL    HW2 3251   0.357   3.113   3.661
 1069SOL     OW 3252   1.122   3.638   2.089
 1069SOL    HW1 3253   1.043   3.600   2.137
 1069SOL    HW2 3254   1.151   3.574   2.018
 1070SOL     OW 3255   0.196   2.130   3.352
 1070SOL    HW1 3256   0.113   2.183   3.336
 1070SOL    HW2 3257   0.172   2.045   3.400
 1071SOL     OW 3258   1.625   3.244   1.950
 1071SOL    HW1 3259   1.586   3.335   1.935
 1071SOL    HW2 3260   1.555   3.175   1.932
 1072SOL     OW 3261   0.468   3.596   2.179
 1072SOL    HW1 3262   0.509   3.657   2.247
 1072SOL    HW2 3263   0.540   3.560   2.119
 1073SOL     OW 3264   1.401   1.966   2.298
 1073SOL    HW1 3265   1.389   1.941   2.202
 1073SOL    HW2 3266   1.499   1.975   2.318
 1074SOL     OW 3267   0.255   3.654   3.087
 1074SOL    HW1 3268   0.309   3.581   3.129
 1074SOL    HW2 3269   0.218   3.622   3.000
 1075SOL     OW 3270   0.935   3.564   2.757
 1075SOL    HW1 3271   1.015   3.516   2.791
 1075SOL    HW2 3272   0.893   3.511   2.683
 1076SOL     OW 3273   0.401   2.545   2.336
 1076SOL    HW1 3274   0.429   2.451   2.357
 1076SOL    HW2 3275   0.304   2.555   2.355
 1077SOL     OW 3276   1.528   2.085   3.590
 1077SOL    HW1 3277   1.539   2.106   3.687
 1077SOL    HW2 3278   1.456   2.017   3.578
 1078SOL     OW 3279   0.642   1.978   1.964
 1078SOL    HW1 3280   0.711   1.908   1.985
 1078SOL    HW2 3281   0.585   1.947   1.888
 1079SOL     OW 3282   0.763   2.139   3.619
 1079SOL    HW1 3283   0.848   2.086   3.612
 1079SOL    HW2 3284   0.711   2.108   3.699
 1080SOL     OW 3285   0.867   3.362   3.043
 1080SOL    HW1 3286   0.848   3.325   2.952
 1080SOL    HW2 3287   0.945   3.314   3.083
 1081SOL     OW 3288   1.338   2.452   3.298
 1081SOL    HW1 3289   1.369   2.416   3.386
 1081SOL    HW2 3290   1.375   2.543   3.284
 1082SOL     OW 3291   0.819   3.245   2.797
 1082SOL    HW1 3292   0.909   3.237   2.754
 1082SOL    HW2 3293   0.749   3.253   2.726
 1083SOL     OW 3294   0.927   2.370   2.760
 1083SOL    HW1 3295   0.901   2.362   2.664
 1083SOL    HW2 3296   0.959   2.281   2.793
 1084SOL     OW 3297   0.546   1.926   2.358
 1084SOL    HW1 3298   0.464   1.922   2.414
 1084SOL    HW2 3299   0.543   2.006   2.298
 1085SOL     OW 3300   1.426   3.061   1.905
 1085SOL    HW1 3301   1.459   2.983   1.958
 1085SOL    HW2 3302   1.337   3.090   1.941
 1086SOL     OW 3303   0.291   1.905   2.050
 1086SOL    HW1 3304   0.341   1.984   2.015
 1086SOL    HW2 3305   0.357   1.839   2.088
 1087SOL     OW 3306   0.946   2.113   2.319
 1087SOL    HW1 3307   0.915   2.154   2.233
 1087SOL    HW2 3308   1.045   2.126   2.328
 1088SOL     OW 3309   1.078   2.546   3.318
 1088SOL    HW1 3310   1.005   2.478   3.323
 1088SOL    HW2 3311   1.167   2.500   3.314
 1089SOL     OW 3312   1.222   3.430   2.655
 1089SOL    HW1 3313   1.234   3.501   2.585
 1089SOL    HW2 3314   1.291   3.442   2.726
 1090SOL     OW 3315   0.467   3.012   2.595
 1090SOL    HW1 3316   0.401   2.991   2.666
 1090SOL    HW2 3317   0.424   2.999   2.505
 1091SOL     OW 3318   1.263   3.653   2.472
 1091SOL    HW1 3319   1.314   3.716   2.414
 1091SOL    HW2 3320   1.189   3.704   2.518
 1092SOL     OW 3321   1.021   2.398   1.891
 1092SOL    HW1 3322   0.976   2.485   1.867
 1092SOL    HW2 3323   1.090   2.415   1.961
 1093SOL     OW 3324   0.074   2.414   3.237
 1093SOL    HW1 3325   0.169   2.406   3.208
 1093SOL    HW2 3326   0.066   2.482   3.310
 1094SOL     OW 3327   0.565   2.086   3.033
 1094SOL    HW1 3328   0.615   2.008   3.072
 1094SOL    HW2 3329   0.470   2.083   3.064
 1095SOL     OW 3330   0.866   2.321   2.499
 1095SOL    HW1 3331   0.816   2.381   2.438
 1095SOL    HW2 3332   0.894   2.239   2.449
 1096SOL     OW 3333   1.017   1.915   2.608
 1096SOL    HW1 3334   0.957   1.915   2.528
 1096SOL    HW2 3335   0.993   1.839   2.668
 1097SOL     OW 3336   1.445   3.024   2.721
 1097SOL    HW1 3337   1.369   2.959   2.724
 1097SOL    HW2 3338   1.474   3.035   2.626
 1098SOL     OW 3339   1.468   2.468   2.832
 1098SOL    HW1 3340   1.406   2.390   2.831
 1098SOL    HW2 3341   1.529   2.463   2.911
 1099SOL     OW 3342   1.842   2.671   2.242
 1099SOL    HW1 3343   1.900   2.623   2.307
 1099SOL    HW2 3344   1.812   2.608   2.171
 1100SOL     OW 3345   0.496   3.282   2.015
 1100SOL    HW1 3346   0.414   3.257   2.067
 1100SOL    HW2 3347   0.485   3.253   1.920
 1101SOL     OW 3348   1.674   3.129   2.505
 1101SOL    HW1 3349   1.774   3.127   2.517
 1101SOL    HW2 3350   1.640   3.221   2.526
 1102SOL     OW 3351   1.390   2.436   1.933
 1102SOL    HW1 3352   1.327   2.414   2.007
 1102SOL    HW2 3353   1.483   2.410   1.958
 1103SOL     OW 3354   0.530   2.124   2.172
 1103SOL    HW1 3355   0.578   2.069   2.103
 1103SOL    HW2 3356   0.503   2.211   2.132
 1104SOL     OW 3357   1.749   3.081   3.416
 1104SOL    HW1 3358   1.838   3.034   3.414
 1104SOL    HW2 3359   1.762   3.176   3.442
 1105SOL     OW 3360   1.051   3.192   3.202
 1105SOL    HW1 3361   0.988   3.199   3.279
 1105SOL    HW2 3362   1.137   3.150   3.233
 1106SOL     OW 3363   1.593   3.414   3.502
 1106SOL    HW1 3364   1.580   3.467   3.418
 1106SOL    HW2 3365   1.686   3.376   3.504
 1107SOL     OW 3366   1.141   3.080   2.965
 1107SOL    HW1 3367   1.078   3.108   3.038
 1107SOL    HW2 3368   1.105   3.111   2.877
 1108SOL     OW 3369   1.626   2.958   2.941
 1108SOL    HW1 3370   1.623   3.023   3.017
 1108SOL    HW2 3371   1.549   2.976   2.879
 1109SOL     OW 3372   0.923   1.957   3.253
 1109SOL    HW1 3373   0.944   1.933   3.159
 1109SOL    HW2 3374   1.002   2.000   3.296
 1110SOL     OW 3375   1.008   2.974   3.581
 1110SOL    HW1 3376   0.917   3.007   3.606
 1110SOL    HW2 3377   1.000   2.891   3.526
 1111SOL     OW 3378   0.711   2.919   2.236
 1111SOL    HW1 3379   0.695   2.903   2.333
 1111SOL    HW2 3380   0.790   2.866   2.206
 1112SOL     OW 3381   0.429   2.667   3.111
 1112SOL    HW1 3382   0.499   2.683   3.180
 1112SOL    HW2 3383   0.387   2.578   3.126
 1113SOL     OW 3384   1.262   2.239   3.143
 1113SOL    HW1 3385   1.299   2.318   3.191
 1113SOL    HW2 3386   1.167   2.256   3.117
 1114SOL     OW 3387   0.070   3.430   3.191
 1114SOL    HW1 3388   0.029   3.520   3.177
 1114SOL    HW2 3389   0.168   3.440   3.205
 1115SOL     OW 3390   0.340   2.978   2.354
 1115SOL    HW1 3391   0.351   3.058   2.294
 1115SOL    HW2 3392   0.339   2.895   2.298
 1116SOL     OW 3393   0.549   2.405   2.726
 1116SOL    HW1 3394   0.562   2.464   2.646
 1116SOL    HW2 3395   0.618   2.426   2.795
 1117SOL     OW 3396   1.246   3.216   2.254
 1117SOL    HW1 3397   1.307   3.289   2.285
 1117SOL    HW2 3398   1.153   3.236   2.285
 1118SOL     OW 3399   1.283   3.322   3.007
 1118SOL    HW1 3400   1.346   3.327   3.085
 1118SOL    HW2 3401   1.234   3.235   3.009
 1119SOL     OW 3402   1.577   2.483   2.345
 1119SOL    HW1 3403   1.527   2.531   2.416
 1119SOL    HW2 3404   1.624   2.549   2.287
 1120SOL     OW 3405   0.352   3.394   3.171
 1120SOL    HW1 3406   0.331   3.344   3.087
 1120SOL    HW2 3407   0.450   3.410   3.176
 1121SOL     OW 3408   0.424   2.595   3.458
 1121SOL    HW1 3409   0.485   2.648   3.399
 1121SOL    HW2 3410   0.467   2.507   3.481
 1122SOL     OW 3411   1.607   2.647   3.547
 1122SOL    HW1 3412   1.516   2.688   3.544
 1122SOL    HW2 3413   1.664   2.687   3.475
 1123SOL     OW 3414   0.997   1.996   3.612
 1123SOL    HW1 3415   1.056   2.075   3.596
 1123SOL    HW2 3416   1.046   1.913   3.586
 1124SOL     OW 3417   0.496   1.897   3.611
 1124SOL    HW1 3418   0.450   1.841   3.542
 1124SOL    HW2 3419   0.439   1.978   3.631
 1125SOL     OW 3420   0.588   2.733   2.896
 1125SOL    HW1 3421   0.618   2.828   2.891
 1125SOL    HW2 3422   0.527   2.721   2.974
 1126SOL     OW 3423   1.351   2.716   2.881
 1126SOL    HW1 3424   1.261   2.707   2.839
 1126SOL    HW2 3425   1.400   2.629   2.873
 1127SOL     OW 3426   1.197   2.389   2.126
 1127SOL    HW1 3427   1.210   2.306   2.181
 1127SOL    HW2 3428   1.154   2.459   2.182
 1128SOL     OW 3429   0.308   2.057   3.108
 1128SOL    HW1 3430   0.269   2.093   3.193
 1128SOL    HW2 3431   0.291   1.959   3.102
 1129SOL     OW 3432   0.092   3.171   3.127
 1129SOL    HW1 3433   0.109   3.106   3.201
 1129SOL    HW2 3434   0.086   3.264   3.165
 1130SOL     OW 3435   0.727   2.493   2.918
 1130SOL    HW1 3436   0.802   2.473   2.855
 1130SOL    HW2 3437   0.691   2.585   2.898
 1131SOL     OW 3438   1.736   2.822   3.718
 1131SOL    HW1 3439   1.692   2.753   3.660
 1131SOL    HW2 3440   1.677   2.843   3.796
 1132SOL     OW 3441   0.301   1.922   2.487
 1132SOL    HW1 3442   0.282   2.019   2.505
 1132SOL    HW2 3443   0.314   1.874   2.573
 1133SOL     OW 3444   1.627   2.243   2.224
 1133SOL    HW1 3445   1.653   2.169   2.287
 1133SOL    HW2 3446   1.599   2.323   2.277
 1134SOL     OW 3447   1.024   2.618   2.821
 1134SOL    HW1 3448   1.018   2.641   2.918
 1134SOL    HW2 3449   0.997   2.523   2.807
 1135SOL     OW 3450   1.849   3.330   3.459
 1135SOL    HW1 3451   1.881   3.375   3.375
 1135SOL    HW2 3452   1.913   3.351   3.533
 1136SOL     OW 3453   0.354   2.767   3.661
 1136SOL    HW1 3454   0.431   2.804   3.714
 1136SOL    HW2 3455   0.388   2.702   3.593
 1137SOL     OW 3456   1.527   2.131   1.992
 1137SOL    HW1 3457   1.458   2.063   2.017
 1137SOL    HW2 3458   1.564   2.173   2.075
 1138SOL     OW 3459   1.289   2.688   1.888
 1138SOL    HW1 3460   1.330   2.597   1.897
 1138SOL    HW2 3461   1.320   2.731   1.803
 1139SOL     OW 3462   1.072   3.199   2.716
 1139SOL    HW1 3463   1.076   3.122   2.653
 1139SOL    HW2 3464   1.131   3.273   2.681
 1140SOL     OW 3465   0.321   2.663   2.803
 1140SOL    HW1 3466   0.418   2.687   2.802
 1140SOL    HW2 3467   0.310   2.572   2.842
 1141SOL     OW 3468   0.329   2.382   2.876
 1141SOL    HW1 3469   0.290   2.291   2.861
 1141SOL    HW2 3470   0.409   2.394   2.818
 1142SOL     OW 3471   1.134   2.235   3.554
 1142SOL    HW1 3472   1.082   2.291   3.618
 1142SOL    HW2 3473   1.226   2.272   3.545
 1143SOL     OW 3474   1.161   2.065   3.337
 1143SOL    HW1 3475   1.147   2.127   3.414
 1143SOL    HW2 3476   1.204   2.115   3.262
 1144SOL     OW 3477   6.991   3.184   2.080
 1144SOL    HW1 3478   6.919   3.209   2.144
 1144SOL    HW2 3479   0.021   3.090   2.097
 1145SOL     OW 3480   0.098   3.617   2.811
 1145SOL    HW1 3481   0.077   3.544   2.747
 1145SOL    HW2 3482   0.183   3.662   2.785
 1146SOL     OW 3483   0.493   3.440   2.766
 1146SOL    HW1 3484   0.562   3.506   2.794
 1146SOL    HW2 3485   0.534   3.372   2.706
 1147SOL     OW 3486   0.969   2.659   3.089
 1147SOL    HW1 3487   1.031   2.634   3.164
 1147SOL    HW2 3488   0.885   2.606   3.097
 1148SOL     OW 3489   0.050   2.470   2.968
 1148SOL    HW1 3490   0.124   2.422   2.922
 1148SOL    HW2 3491   0.051   2.449   3.066
 1149SOL     OW 3492   0.210   2.373   3.585
 1149SOL    HW1 3493   0.285   2.327   3.538
 1149SOL    HW2 3494   0.188   2.459   3.539
 1150SOL     OW 3495   1.379   2.794   3.516
 1150SOL    HW1 3496   1.402   2.892   3.518
 1150SOL    HW2 3497   1.376   2.763   3.422
 1151SOL     OW 3498   0.816   2.434   2.221
 1151SOL    HW1 3499   0.827   2.354   2.162
 1151SOL    HW2 3500   0.738   2.488   2.189
 1152SOL     OW 3501   1.642   2.465   3.043
 1152SOL    HW1 3502   1.626   2.405   3.122
 1152SOL    HW2 3503   1.734   2.447   3.006
 1153SOL     OW 3504   0.280   3.425   3.600
 1153SOL    HW1 3505   0.228   3.494   3.651
 1153SOL    HW2 3506   0.259   3.334   3.637
 1154SOL     OW 3507   0.707   2.311   3.116
 1154SOL    HW1 3508   0.652   2.231   3.090
 1154SOL    HW2 3509   0.704   2.378   3.042
 1155SOL     OW 3510   0.455   2.350   2.044
 1155SOL    HW1 3511   0.511   2.431   2.061
 1155SOL    HW2 3512   0.368   2.359   2.095
 1156SOL     OW 3513   0.169   2.988   3.330
 1156SOL    HW1 3514   0.155   2.928   3.409
 1156SOL    HW2 3515   0.183   2.932   3.249
 1157SOL     OW 3516   1.319   2.900   3.075
 1157SOL    HW1 3517   1.345   2.833   3.005
 1157SOL    HW2 3518   1.253   2.964   3.036
 1158SOL     OW 3519   1.316   2.719   2.161
 1158SOL    HW1 3520   1.239   2.691   2.220
 1158SOL    HW2 3521   1.290   2.706   2.065
 1159SOL     OW 3522   1.785   3.586   3.017
 1159SOL    HW1 3523   1.845   3.623   2.946
 1159SOL    HW2 3524   1.753   3.495   2.990
 1160SOL     OW 3525   1.241   3.594   2.969
 1160SOL    HW1 3526   1.327   3.622   2.925
 1160SOL    HW2 3527   1.246   3.497   2.991
 1161SOL     OW 3528   0.071   3.107   2.868
 1161SOL    HW1 3529   0.087   3.128   2.965
 1161SOL    HW2 3530   6.973   3.092   2.853
 1162SOL     OW 3531   0.670   3.578   3.635
 1162SOL    HW1 3532   0.600   3.649   3.628
 1162SOL    HW2 3533   0.692   3.545   3.543
 1163SOL     OW 3534   1.720   2.012   2.361
 1163SOL    HW1 3535   1.795   2.002   2.296
 1163SOL    HW2 3536   1.702   1.924   2.406
 1164SOL     OW 3537   1.395   3.432   2.349
 1164SOL    HW1 3538   1.458   3.465   2.278
 1164SOL    HW2 3539   1.340   3.509   2.382
 1165SOL     OW 3540   0.136   3.649   3.715
 1165SOL    HW1 3541   0.094   3.574   3.767
 1165SOL    HW2 3542   0.192   3.703   3.777
 1166SOL     OW 3543   1.282   2.790   2.528
 1166SOL    HW1 3544   1.357   2.726   2.544
 1166SOL    HW2 3545   1.315   2.867   2.473
 1167SOL     OW 3546   0.672   3.485   2.015
 1167SOL    HW1 3547   0.687   3.504   1.918
 1167SOL    HW2 3548   0.615   3.404   2.025
 1168SOL     OW 3549   1.620   3.588   3.238
 1168SOL    HW1 3550   1.684   3.580   3.160
 1168SOL    HW2 3551   1.598   3.684   3.254
 1169SOL     OW 3552   1.842   2.031   2.826
 1169SOL    HW1 3553   1.876   1.940   2.803
 1169SOL    HW2 3554   1.751   2.043   2.786
 1170SOL     OW 3555   0.263   2.178   2.576
 1170SOL    HW1 3556   0.187   2.240   2.556
 1170SOL    HW2 3557   0.265   2.158   2.674
 1171SOL     OW 3558   1.209   3.463   1.895
 1171SOL    HW1 3559   1.199   3.369   1.928
 1171SOL    HW2 3560   1.141   3.480   1.823
 1172SOL     OW 3561   0.824   2.877   3.235
 1172SOL    HW1 3562   0.874   2.842   3.156
 1172SOL    HW2 3563   0.798   2.973   3.218
 1173SOL     OW 3564   0.919   2.772   2.149
 1173SOL    HW1 3565   0.980   2.808   2.078
 1173SOL    HW2 3566   0.966   2.701   2.201
 1174SOL     OW 3567   1.488   3.492   1.904
 1174SOL    HW1 3568   1.390   3.481   1.893
 1174SOL    HW2 3569   1.532   3.497   1.814
 1175SOL     OW 3570   0.378   3.169   3.362
 1175SOL    HW1 3571   0.368   3.250   3.304
 1175SOL    HW2 3572   0.309   3.101   3.337
 1176SOL     OW 3573   1.619   3.141   3.147
 1176SOL    HW1 3574   1.673   3.117   3.228
 1176SOL    HW2 3575   1.556   3.215   3.171
 1177SOL     OW 3576   1.061   2.968   2.576
 1177SOL    HW1 3577   0.985   2.918   2.616
 1177SOL    HW2 3578   1.130   2.903   2.543
 1178SOL     OW 3579   1.022   2.101   2.829
 1178SOL    HW1 3580   1.018   2.058   2.740
 1178SOL    HW2 3581   1.020   2.031   2.901
 1179SOL     OW 3582   0.607   3.348   2.342
 1179SOL    HW1 3583   0.657   3.295   2.274
 1179SOL    HW2 3584   0.530   3.394   2.298
 1180SOL     OW 3585   1.731   2.256   3.243
 1180SOL    HW1 3586   1.804   2.324   3.243
 1180SOL    HW2 3587   1.757   2.181   3.182
 1181SOL     OW 3588   0.256   3.213   2.135
 1181SOL    HW1 3589   0.157   3.213   2.118
 1181SOL    HW2 3590   0.274   3.249   2.227
 1182SOL     OW 3591   0.116   2.836   3.562
 1182SOL    HW1 3592   0.064   2.888   3.629
 1182SOL    HW2 3593   0.206   2.814   3.600
 1183SOL     OW 3594   0.683   2.057   3.361
 1183SOL    HW1 3595   0.769   2.032   3.318
 1183SOL    HW2 3596   0.701   2.090   3.454
 1184SOL     OW 3597   0.100   2.179   1.899
 1184SOL    HW1 3598   0.003   2.154   1.898
 1184SOL    HW2 3599   0.112   2.265   1.849
 1185SOL     OW 3600   1.424   2.717   3.256
 1185SOL    HW1 3601   1.369   2.780   3.200
 1185SOL    HW2 3602   1.519   2.719   3.225
 1186SOL     OW 3603   0.076   2.050   2.203
 1186SOL    HW1 3604   0.021   2.041   2.120
 1186SOL    HW2 3605   0.153   1.986   2.199
 1187SOL     OW 3606   1.180   3.199   1.982
 1187SOL    HW1 3607   1.084   3.173   1.975
 1187SOL    HW2 3608   1.207   3.200   2.078
 1188SOL     OW 3609   0.625   2.694   3.296
 1188SOL    HW1 3610   0.681   2.775   3.281
 1188SOL    HW2 3611   0.684   2.613   3.305
 1189SOL     OW 3612   1.484   3.647   2.848
 1189SOL    HW1 3613   1.504   3.711   2.774
 1189SOL    HW2 3614   1.570   3.616   2.889
 1190SOL     OW 3615   0.719   2.420   3.565
 1190SOL    HW1 3616   0.765   2.486   3.624
 1190SOL    HW2 3617   0.739   2.327   3.597
 1191SOL     OW 3618   1.470   3.053   3.493
 1191SOL    HW1 3619   1.452   3.072   3.590
 1191SOL    HW2 3620   1.567   3.072   3.473
 1192SOL     OW 3621   0.370   3.609   3.424
 1192SOL    HW1 3622   0.283   3.656   3.408
 1192SOL    HW2 3623   0.353   3.525   3.476
 1193SOL     OW 3624   1.666   2.739   3.117
 1193SOL    HW1 3625   1.661   2.649   3.075
 1193SOL    HW2 3626   1.654   2.809   3.046
 1194SOL     OW 3627   1.219   2.179   2.322
 1194SOL    HW1 3628   1.283   2.102   2.312
 1194SOL    HW2 3629   1.246   2.234   2.401
 1195SOL     OW 3630   0.588   2.600   2.532
 1195SOL    HW1 3631   0.629   2.690   2.523
 1195SOL    HW2 3632   0.520   2.586   2.461
 1196SOL     OW 3633   1.751   2.227   3.514
 1196SOL    HW1 3634   1.741   2.243   3.416
 1196SOL    HW2 3635   1.677   2.167   3.546
 1197SOL     OW 3636   1.748   2.794   3.371
 1197SOL    HW1 3637   1.731   2.890   3.392
 1197SOL    HW2 3638   1.730   2.778   3.273
 1198SOL     OW 3639   0.870   3.226   1.907
 1198SOL    HW1 3640   0.825   3.249   1.993
 1198SOL    HW2 3641   0.882   3.308   1.852
 1199SOL     OW 3642   0.665   3.648   2.803
 1199SOL    HW1 3643   0.643   3.743   2.781
 1199SOL    HW2 3644   0.764   3.634   2.794
 1200SOL     OW 3645   0.869   2.833   2.718
 1200SOL    HW1 3646   0.920   2.755   2.755
 1200SOL    HW2 3647   0.826   2.883   2.793
 1201SOL     OW 3648   1.077   2.850   1.946
 1201SOL    HW1 3649   1.050   2.905   1.867
 1201SOL    HW2 3650   1.155   2.793   1.921
 1202SOL     OW 3651   1.846   3.420   2.710
 1202SOL    HW1 3652   1.770   3.408   2.646
 1202SOL    HW2 3653   1.841   3.349   2.781
 1203SOL     OW 3654   0.220   3.181   3.731
 1203SOL    HW1 3655   0.131   3.135   3.723
 1203SOL    HW2 3656   0.242   3.194   3.827
 1204SOL     OW 3657   0.152   3.134   2.553
 1204SOL    HW1 3658   0.104   3.087   2.627
 1204SOL    HW2 3659   0.198   3.067   2.495
 1205SOL     OW 3660   1.804   2.045   3.096
 1205SOL    HW1 3661   1.820   1.949   3.120
 1205SOL    HW2 3662   1.817   2.056   2.997
 1206SOL     OW 3663   0.455   2.291   2.400
 1206SOL    HW1 3664   0.479   2.222   2.332
 1206SOL    HW2 3665   0.397   2.249   2.470
 1207SOL     OW 3666   1.695   3.341   2.956
 1207SOL    HW1 3667   1.613   3.325   2.901
 1207SOL    HW2 3668   1.702   3.270   3.026
 1208SOL     OW 3669   0.331   2.414   3.153
 1208SOL    HW1 3670   0.388   2.358   3.214
 1208SOL    HW2 3671   0.347   2.387   3.058
 1209SOL     OW 3672   0.829   3.440   2.539
 1209SOL    HW1 3673   0.815   3.503   2.462
 1209SOL    HW2 3674   0.751   3.378   2.546
 1210SOL     OW 3675   1.430   2.093   2.979
 1210SOL    HW1 3676   1.453   2.003   3.017
 1210SOL    HW2 3677   1.376   2.144   3.046
 1211SOL     OW 3678   1.010   1.878   3.000
 1211SOL    HW1 3679   0.946   1.815   2.957
 1211SOL    HW2 3680   1.101   1.838   3.001
 1212SOL     OW 3681   0.775   3.193   2.183
 1212SOL    HW1 3682   0.747   3.097   2.192
 1212SOL    HW2 3683   0.859   3.208   2.234
 1213SOL     OW 3684   0.621   3.431   3.142
 1213SOL    HW1 3685   0.626   3.514   3.197
 1213SOL    HW2 3686   0.711   3.413   3.102
 1214SOL     OW 3687   1.354   1.912   2.032
 1214SOL    HW1 3688   1.396   1.845   1.971
 1214SOL    HW2 3689   1.261   1.883   2.054
 1215SOL     OW 3690   1.291   2.326   2.542
 1215SOL    HW1 3691   1.238   2.411   2.544
 1215SOL    HW2 3692   1.289   2.284   2.633
 1216SOL     OW 3693   1.586   2.065   2.746
 1216SOL    HW1 3694   1.528   2.084   2.825
 1216SOL    HW2 3695   1.588   2.145   2.685
 1217SOL     OW 3696   0.071   2.926   2.139
 1217SOL    HW1 3697   0.164   2.889   2.139
 1217SOL    HW2 3698   0.006   2.853   2.159
 1218SOL     OW 3699   0.885   3.525   2.202
 1218SOL    HW1 3700   0.811   3.503   2.138
 1218SOL    HW2 3701   0.858   3.601   2.260
 1219SOL     OW 3702   0.183   2.513   3.847
 1219SOL    HW1 3703   0.175   2.446   3.920
 1219SOL    HW2 3704   0.226   2.470   3.767
 1220SOL     OW 3705   0.231   2.133   4.712
 1220SOL    HW1 3706   0.281   2.101   4.792
 1220SOL    HW2 3707   0.133   2.116   4.725
 1221SOL     OW 3708   6.990   2.247   4.377
 1221SOL    HW1 3709   6.942   2.243   4.465
 1221SOL    HW2 3710   0.012   2.154   4.347
 1222SOL     OW 3711   0.569   3.159   4.910
 1222SOL    HW1 3712   0.479   3.157   4.867
 1222SOL    HW2 3713   0.587   3.251   4.945
 1223SOL     OW 3714   1.564   3.375   4.431
 1223SOL    HW1 3715   1.522   3.351   4.518
 1223SOL    HW2 3716   1.494   3.382   4.360
 1224SOL     OW 3717   1.133   2.565   4.419
 1224SOL    HW1 3718   1.185   2.649   4.402
 1224SOL    HW2 3719   1.083   2.574   4.505
 1225SOL     OW 3720   1.770   2.461   3.947
 1225SOL    HW1 3721   1.746   2.457   3.850
 1225SOL    HW2 3722   1.732   2.381   3.994
 1226SOL     OW 3723   0.743   3.003   4.764
 1226SOL    HW1 3724   0.675   3.037   4.829
 1226SOL    HW2 3725   0.788   3.080   4.718
 1227SOL     OW 3726   0.873   2.627   5.544
 1227SOL    HW1 3727   0.863   2.695   5.617
 1227SOL    HW2 3728   0.897   2.672   5.459
 1228SOL     OW 3729   0.682   2.862   4.373
 1228SOL    HW1 3730   0.755   2.852   4.442
 1228SOL    HW2 3731   0.608   2.917   4.411
 1229SOL     OW 3732   0.713   3.015   5.543
 1229SOL    HW1 3733   0.765   3.093   5.576
 1229SOL    HW2 3734   0.628   3.046   5.500
 1230SOL     OW 3735   0.334   3.282   4.789
 1230SOL    HW1 3736   0.254   3.243   4.741
 1230SOL    HW2 3737   0.385   3.340   4.726
 1231SOL     OW 3738   1.458   3.363   5.082
 1231SOL    HW1 3739   1.515   3.445   5.089
 1231SOL    HW2 3740   1.387   3.366   5.152
 1232SOL     OW 3741   0.443   2.256   5.216
 1232SOL    HW1 3742   0.526   2.201   5.218
 1232SOL    HW2 3743   0.363   2.197   5.225
 1233SOL     OW 3744   1.611   2.308   4.468
 1233SOL    HW1 3745   1.536   2.327   4.405
 1233SOL    HW2 3746   1.619   2.383   4.534
 1234SOL     OW 3747   0.225   3.572   4.190
 1234SOL    HW1 3748   0.240   3.651   4.250
 1234SOL    HW2 3749   0.297   3.568   4.121
 1235SOL     OW 3750   1.137   3.202   5.421
 1235SOL    HW1 3751   1.184   3.200   5.510
 1235SOL    HW2 3752   1.081   3.119   5.411
 1236SOL     OW 3753   0.277   3.305   4.245
 1236SOL    HW1 3754   0.254   3.402   4.252
 1236SOL    HW2 3755   0.227   3.254   4.315
 1237SOL     OW 3756   0.269   2.944   4.630
 1237SOL    HW1 3757   0.266   2.848   4.659
 1237SOL    HW2 3758   0.198   2.996   4.677
 1238SOL     OW 3759   0.602   3.658   5.151
 1238SOL    HW1 3760   0.516   3.635   5.198
 1238SOL    HW2 3761   0.631   3.749   5.179
 1239SOL     OW 3762   0.568   2.856   3.869
 1239SOL    HW1 3763   0.587   2.924   3.797
 1239SOL    HW2 3764   0.619   2.880   3.951
 1240SOL     OW 3765   1.597   1.987   5.193
 1240SOL    HW1 3766   1.616   2.067   5.136
 1240SOL    HW2 3767   1.582   2.016   5.288
 1241SOL     OW 3768   0.132   2.477   4.298
 1241SOL    HW1 3769   0.063   2.408   4.322
 1241SOL    HW2 3770   0.121   2.556   4.360
 1242SOL     OW 3771   1.847   3.619   4.059
 1242SOL    HW1 3772   1.918   3.589   4.122
 1242SOL    HW2 3773   1.864   3.714   4.032
 1243SOL     OW 3774   0.040   3.454   3.874
 1243SOL    HW1 3775   0.032   3.355   3.886
 1243SOL    HW2 3776   6.964   3.500   3.920
 1244SOL     OW 3777   1.691   2.783   4.371
 1244SOL    HW1 3778   1.775   2.732   4.353
 1244SOL    HW2 3779   1.667   2.837   4.290
 1245SOL     OW 3780   1.652   2.966   4.156
 1245SOL    HW1 3781   1.741   2.963   4.110
 1245SOL    HW2 3782   1.655   3.034   4.230
 1246SOL     OW 3783   0.146   2.593   5.304
 1246SOL    HW1 3784   0.245   2.600   5.288
 1246SOL    HW2 3785   0.111   2.681   5.336
 1247SOL     OW 3786   0.611   3.252   4.459
 1247SOL    HW1 3787   0.565   3.165   4.473
 1247SOL    HW2 3788   0.598   3.283   4.365
 1248SOL     OW 3789   1.288   3.097   5.146
 1248SOL    HW1 3790   1.315   3.026   5.080
 1248SOL    HW2 3791   1.348   3.093   5.226
 1249SOL     OW 3792   0.817   1.871   4.232
 1249SOL    HW1 3793   0.863   1.957   4.210
 1249SOL    HW2 3794   0.718   1.887   4.240
 1250SOL     OW 3795   0.205   2.823   4.986
 1250SOL    HW1 3796   0.288   2.770   4.970
 1250SOL    HW2 3797   0.133   2.792   4.924
 1251SOL     OW 3798   1.532   2.863   3.928
 1251SOL    HW1 3799   1.458   2.802   3.959
 1251SOL    HW2 3800   1.579   2.901   4.008
 1252SOL     OW 3801   1.182   3.673   5.346
 1252SOL    HW1 3802   1.189   3.742   5.274
 1252SOL    HW2 3803   1.202   3.583   5.309
 1253SOL     OW 3804   0.353   2.113   5.555
 1253SOL    HW1 3805   0.402   2.195   5.583
 1253SOL    HW2 3806   0.256   2.122   5.578
 1254SOL     OW 3807   1.465   3.282   4.671
 1254SOL    HW1 3808   1.398   3.301   4.743
 1254SOL    HW2 3809   1.457   3.187   4.643
 1255SOL     OW 3810   1.649   3.612   4.301
 1255SOL    HW1 3811   1.635   3.583   4.206
 1255SOL    HW2 3812   1.627   3.535   4.362
 1256SOL     OW 3813   0.589   2.579   3.991
 1256SOL    HW1 3814   0.596   2.666   3.943
 1256SOL    HW2 3815   0.525   2.587   4.067
 1257SOL     OW 3816   1.277   2.221   4.657
 1257SOL    HW1 3817   1.184   2.186   4.664
 1257SOL    HW2 3818   1.336   2.168   4.719
 1258SOL     OW 3819   1.585   3.534   4.030
 1258SOL    HW1 3820   1.681   3.562   4.028
 1258SOL    HW2 3821   1.556   3.509   3.938
 1259SOL     OW 3822   0.790   2.475   5.174
 1259SOL    HW1 3823   0.764   2.451   5.268
 1259SOL    HW2 3824   0.752   2.407   5.111
 1260SOL     OW 3825   1.391   2.332   5.403
 1260SOL    HW1 3826   1.392   2.381   5.490
 1260SOL    HW2 3827   1.452   2.253   5.410
 1261SOL     OW 3828   0.952   2.747   5.307
 1261SOL    HW1 3829   1.011   2.675   5.269
 1261SOL    HW2 3830   0.899   2.789   5.234
 1262SOL     OW 3831   0.994   2.268   4.953
 1262SOL    HW1 3832   0.904   2.290   4.991
 1262SOL    HW2 3833   0.982   2.219   4.867
 1263SOL     OW 3834   1.049   2.560   4.149
 1263SOL    HW1 3835   1.071   2.556   4.247
 1263SOL    HW2 3836   0.963   2.512   4.132
 1264SOL     OW 3837   0.101   2.680   4.499
 1264SOL    HW1 3838   0.194   2.670   4.534
 1264SOL    HW2 3839   0.042   2.714   4.572
 1265SOL     OW 3840   0.120   3.732   5.315
 1265SOL    HW1 3841   0.131   3.706   5.411
 1265SOL    HW2 3842   0.030   3.704   5.283
 1266SOL     OW 3843   0.896   2.214   3.921
 1266SOL    HW1 3844   0.937   2.281   3.859
 1266SOL    HW2 3845   0.902   2.123   3.881
 1267SOL     OW 3846   1.701   2.435   5.550
 1267SOL    HW1 3847   1.666   2.514   5.500
 1267SOL    HW2 3848   1.731   2.365   5.485
 1268SOL     OW 3849   1.380   3.004   4.258
 1268SOL    HW1 3850   1.464   2.989   4.207
 1268SOL    HW2 3851   1.324   3.072   4.211
 1269SOL     OW 3852   0.550   2.037   4.623
 1269SOL    HW1 3853   0.556   2.066   4.719
 1269SOL    HW2 3854   0.555   2.118   4.564
 1270SOL     OW 3855   0.993   3.304   4.189
 1270SOL    HW1 3856   0.963   3.385   4.138
 1270SOL    HW2 3857   0.978   3.319   4.286
 1271SOL     OW 3858   0.357   3.681   4.591
 1271SOL    HW1 3859   0.397   3.590   4.602
 1271SOL    HW2 3860   0.426   3.750   4.612
 1272SOL     OW 3861   1.798   2.919   4.596
 1272SOL    HW1 3862   1.747   2.896   4.513
 1272SOL    HW2 3863   1.735   2.924   4.673
 1273SOL     OW 3864   1.227   3.398   5.238
 1273SOL    HW1 3865   1.214   3.324   5.304
 1273SOL    HW2 3866   1.158   3.391   5.166
 1274SOL     OW 3867   0.314   2.805   3.976
 1274SOL    HW1 3868   0.402   2.830   3.936
 1274SOL    HW2 3869   0.283   2.718   3.937
 1275SOL     OW 3870   1.483   2.612   4.447
 1275SOL    HW1 3871   1.477   2.567   4.536
 1275SOL    HW2 3872   1.563   2.671   4.444
 1276SOL     OW 3873   0.472   3.123   5.452
 1276SOL    HW1 3874   0.445   3.133   5.356
 1276SOL    HW2 3875   0.391   3.124   5.510
 1277SOL     OW 3876   1.118   3.636   3.943
 1277SOL    HW1 3877   1.041   3.601   3.995
 1277SOL    HW2 3878   1.152   3.565   3.881
 1278SOL     OW 3879   0.196   2.130   5.214
 1278SOL    HW1 3880   0.113   2.183   5.198
 1278SOL    HW2 3881   0.172   2.045   5.262
 1279SOL     OW 3882   1.627   3.227   3.814
 1279SOL    HW1 3883   1.595   3.321   3.801
 1279SOL    HW2 3884   1.552   3.164   3.791
 1280SOL     OW 3885   0.467   3.595   4.044
 1280SOL    HW1 3886   0.507   3.659   4.110
 1280SOL    HW2 3887   0.539   3.558   3.985
 1281SOL     OW 3888   1.401   1.966   4.160
 1281SOL    HW1 3889   1.389   1.941   4.064
 1281SOL    HW2 3890   1.499   1.975   4.180
 1282SOL     OW 3891   0.258   3.656   4.947
 1282SOL    HW1 3892   0.309   3.582   4.991
 1282SOL    HW2 3893   0.214   3.621   4.864
 1283SOL     OW 3894   0.936   3.564   4.620
 1283SOL    HW1 3895   1.018   3.517   4.652
 1283SOL    HW2 3896   0.894   3.512   4.546
 1284SOL     OW 3897   0.401   2.545   4.198
 1284SOL    HW1 3898   0.429   2.451   4.219
 1284SOL    HW2 3899   0.304   2.556   4.217
 1285SOL     OW 3900   1.528   2.085   5.452
 1285SOL    HW1 3901   1.539   2.106   5.549
 1285SOL    HW2 3902   1.455   2.017   5.440
 1286SOL     OW 3903   0.642   1.978   3.826
 1286SOL    HW1 3904   0.710   1.908   3.847
 1286SOL    HW2 3905   0.585   1.947   3.750
 1287SOL     OW 3906   0.763   2.139   5.481
 1287SOL    HW1 3907   0.848   2.086   5.474
 1287SOL    HW2 3908   0.711   2.109   5.561
 1288SOL     OW 3909   0.876   3.377   4.916
 1288SOL    HW1 3910   0.856   3.341   4.825
 1288SOL    HW2 3911   0.948   3.323   4.958
 1289SOL     OW 3912   1.340   2.451   5.159
 1289SOL    HW1 3913   1.370   2.416   5.248
 1289SOL    HW2 3914   1.375   2.543   5.146
 1290SOL     OW 3915   0.820   3.251   4.665
 1290SOL    HW1 3916   0.910   3.240   4.623
 1290SOL    HW2 3917   0.750   3.257   4.594
 1291SOL     OW 3918   0.927   2.369   4.622
 1291SOL    HW1 3919   0.901   2.362   4.526
 1291SOL    HW2 3920   0.960   2.280   4.655
 1292SOL     OW 3921   0.546   1.926   4.220
 1292SOL    HW1 3922   0.464   1.922   4.276
 1292SOL    HW2 3923   0.542   2.006   4.160
 1293SOL     OW 3924   1.420   3.057   3.765
 1293SOL    HW1 3925   1.456   2.981   3.819
 1293SOL    HW2 3926   1.333   3.088   3.804
 1294SOL     OW 3927   0.291   1.905   3.912
 1294SOL    HW1 3928   0.341   1.984   3.877
 1294SOL    HW2 3929   0.356   1.839   3.950
 1295SOL     OW 3930   0.946   2.113   4.181
 1295SOL    HW1 3931   0.915   2.154   4.095
 1295SOL    HW2 3932   1.045   2.126   4.190
 1296SOL     OW 3933   1.079   2.545   5.179
 1296SOL    HW1 3934   1.005   2.478   5.185
 1296SOL    HW2 3935   1.167   2.496   5.175
 1297SOL     OW 3936   1.220   3.431   4.518
 1297SOL    HW1 3937   1.234   3.501   4.448
 1297SOL    HW2 3938   1.291   3.439   4.588
 1298SOL     OW 3939   0.467   3.012   4.456
 1298SOL    HW1 3940   0.401   2.991   4.528
 1298SOL    HW2 3941   0.424   2.999   4.367
 1299SOL     OW 3942   1.263   3.654   4.334
 1299SOL    HW1 3943   1.316   3.716   4.276
 1299SOL    HW2 3944   1.190   3.704   4.380
 1300SOL     OW 3945   1.022   2.397   3.754
 1300SOL    HW1 3946   0.977   2.483   3.730
 1300SOL    HW2 3947   1.091   2.414   3.824
 1301SOL     OW 3948   0.073   2.414   5.099
 1301SOL    HW1 3949   0.169   2.406   5.070
 1301SOL    HW2 3950   0.066   2.482   5.172
 1302SOL     OW 3951   0.565   2.085   4.895
 1302SOL    HW1 3952   0.615   2.008   4.934
 1302SOL    HW2 3953   0.470   2.083   4.926
 1303SOL     OW 3954   0.866   2.320   4.361
 1303SOL    HW1 3955   0.815   2.381   4.300
 1303SOL    HW2 3956   0.894   2.238   4.311
 1304SOL     OW 3957   1.017   1.915   4.470
 1304SOL    HW1 3958   0.957   1.915   4.390
 1304SOL    HW2 3959   0.993   1.839   4.530
 1305SOL     OW 3960   1.446   3.023   4.582
 1305SOL    HW1 3961   1.369   2.958   4.586
 1305SOL    HW2 3962   1.476   3.034   4.488
 1306SOL     OW 3963   1.468   2.470   4.694
 1306SOL    HW1 3964   1.406   2.391   4.694
 1306SOL    HW2 3965   1.529   2.464   4.773
 1307SOL     OW 3966   1.841   2.670   4.105
 1307SOL    HW1 3967   1.900   2.622   4.170
 1307SOL    HW2 3968   1.812   2.606   4.033
 1308SOL     OW 3969   0.497   3.273   3.870
 1308SOL    HW1 3970   0.416   3.253   3.924
 1308SOL    HW2 3971   0.488   3.233   3.779
 1309SOL     OW 3972   1.674   3.128   4.368
 1309SOL    HW1 3973   1.773   3.126   4.380
 1309SOL    HW2 3974   1.641   3.221   4.388
 1310SOL     OW 3975   1.391   2.435   3.795
 1310SOL    HW1 3976   1.328   2.413   3.869
 1310SOL    HW2 3977   1.484   2.410   3.820
 1311SOL     OW 3978   0.530   2.124   4.034
 1311SOL    HW1 3979   0.578   2.069   3.965
 1311SOL    HW2 3980   0.502   2.211   3.994
 1312SOL     OW 3981   1.753   3.103   5.285
 1312SOL    HW1 3982   1.842   3.060   5.272
 1312SOL    HW2 3983   1.764   3.196   5.318
 1313SOL     OW 3984   1.053   3.211   5.059
 1313SOL    HW1 3985   0.972   3.182   5.110
 1313SOL    HW2 3986   1.135   3.172   5.102
 1314SOL     OW 3987   1.614   3.492   5.381
 1314SOL    HW1 3988   1.598   3.527   5.289
 1314SOL    HW2 3989   1.699   3.440   5.383
 1315SOL     OW 3990   1.137   3.081   4.829
 1315SOL    HW1 3991   1.077   3.115   4.901
 1315SOL    HW2 3992   1.103   3.112   4.740
 1316SOL     OW 3993   1.624   2.959   4.803
 1316SOL    HW1 3994   1.620   3.024   4.879
 1316SOL    HW2 3995   1.548   2.975   4.740
 1317SOL     OW 3996   0.923   1.957   5.116
 1317SOL    HW1 3997   0.944   1.933   5.021
 1317SOL    HW2 3998   1.002   2.000   5.158
 1318SOL     OW 3999   0.980   2.976   5.445
 1318SOL    HW1 4000   0.886   2.996   5.472
 1318SOL    HW2 4001   0.982   2.894   5.389
 1319SOL     OW 4002   0.711   2.917   4.098
 1319SOL    HW1 4003   0.694   2.901   4.195
 1319SOL    HW2 4004   0.791   2.864   4.068
 1320SOL     OW 4005   0.429   2.667   4.973
 1320SOL    HW1 4006   0.499   2.683   5.042
 1320SOL    HW2 4007   0.387   2.578   4.988
 1321SOL     OW 4008   1.262   2.238   5.004
 1321SOL    HW1 4009   1.299   2.317   5.053
 1321SOL    HW2 4010   1.167   2.256   4.979
 1322SOL     OW 4011   0.068   3.427   5.042
 1322SOL    HW1 4012   0.018   3.512   5.059
 1322SOL    HW2 4013   0.165   3.441   5.062
 1323SOL     OW 4014   0.340   2.978   4.215
 1323SOL    HW1 4015   0.350   3.057   4.155
 1323SOL    HW2 4016   0.338   2.895   4.160
 1324SOL     OW 4017   0.548   2.404   4.587
 1324SOL    HW1 4018   0.562   2.463   4.507
 1324SOL    HW2 4019   0.617   2.425   4.656
 1325SOL     OW 4020   1.246   3.215   4.121
 1325SOL    HW1 4021   1.307   3.289   4.150
 1325SOL    HW2 4022   1.152   3.236   4.150
 1326SOL     OW 4023   1.288   3.324   4.871
 1326SOL    HW1 4024   1.346   3.329   4.952
 1326SOL    HW2 4025   1.233   3.240   4.876
 1327SOL     OW 4026   1.577   2.483   4.206
 1327SOL    HW1 4027   1.526   2.531   4.278
 1327SOL    HW2 4028   1.626   2.549   4.149
 1328SOL     OW 4029   0.351   3.395   5.033
 1328SOL    HW1 4030   0.332   3.348   4.947
 1328SOL    HW2 4031   0.450   3.407   5.043
 1329SOL     OW 4032   0.424   2.597   5.322
 1329SOL    HW1 4033   0.485   2.649   5.262
 1329SOL    HW2 4034   0.467   2.510   5.346
 1330SOL     OW 4035   1.608   2.647   5.408
 1330SOL    HW1 4036   1.517   2.689   5.406
 1330SOL    HW2 4037   1.665   2.688   5.337
 1331SOL     OW 4038   0.997   1.996   5.474
 1331SOL    HW1 4039   1.055   2.076   5.458
 1331SOL    HW2 4040   1.046   1.913   5.448
 1332SOL     OW 4041   0.495   1.897   5.473
 1332SOL    HW1 4042   0.450   1.841   5.404
 1332SOL    HW2 4043   0.440   1.978   5.493
 1333SOL     OW 4044   0.588   2.733   4.757
 1333SOL    HW1 4045   0.620   2.828   4.754
 1333SOL    HW2 4046   0.528   2.721   4.836
 1334SOL     OW 4047   1.352   2.719   4.748
 1334SOL    HW1 4048   1.261   2.711   4.707
 1334SOL    HW2 4049   1.401   2.632   4.739
 1335SOL     OW 4050   1.197   2.389   3.988
 1335SOL    HW1 4051   1.210   2.306   4.043
 1335SOL    HW2 4052   1.153   2.459   4.044
 1336SOL     OW 4053   0.308   2.057   4.970
 1336SOL    HW1 4054   0.269   2.093   5.055
 1336SOL    HW2 4055   0.291   1.959   4.964
 1337SOL     OW 4056   0.097   3.168   4.987
 1337SOL    HW1 4057   0.105   3.106   5.065
 1337SOL    HW2 4058   0.087   3.262   5.020
 1338SOL     OW 4059   0.725   2.492   4.779
 1338SOL    HW1 4060   0.802   2.472   4.718
 1338SOL    HW2 4061   0.691   2.585   4.760
 1339SOL     OW 4062   1.736   2.822   5.580
 1339SOL    HW1 4063   1.693   2.754   5.521
 1339SOL    HW2 4064   1.676   2.842   5.658
 1340SOL     OW 4065   0.301   1.923   4.349
 1340SOL    HW1 4066   0.282   2.019   4.367
 1340SOL    HW2 4067   0.314   1.874   4.435
 1341SOL     OW 4068   1.626   2.243   4.086
 1341SOL    HW1 4069   1.653   2.169   4.149
 1341SOL    HW2 4070   1.598   2.323   4.139
 1342SOL     OW 4071   1.024   2.617   4.681
 1342SOL    HW1 4072   1.019   2.639   4.779
 1342SOL    HW2 4073   0.997   2.522   4.667
 1343SOL     OW 4074   0.982   3.425   5.441
 1343SOL    HW1 4075   0.965   3.473   5.355
 1343SOL    HW2 4076   1.030   3.339   5.423
 1344SOL     OW 4077   1.855   3.365   5.328
 1344SOL    HW1 4078   1.873   3.392   5.233
 1344SOL    HW2 4079   1.938   3.377   5.382
 1345SOL     OW 4080   0.365   2.779   5.522
 1345SOL    HW1 4081   0.443   2.804   5.580
 1345SOL    HW2 4082   0.394   2.711   5.455
 1346SOL     OW 4083   1.527   2.130   3.854
 1346SOL    HW1 4084   1.458   2.063   3.879
 1346SOL    HW2 4085   1.564   2.172   3.937
 1347SOL     OW 4086   1.291   2.686   3.752
 1347SOL    HW1 4087   1.332   2.595   3.759
 1347SOL    HW2 4088   1.321   2.729   3.667
 1348SOL     OW 4089   1.070   3.199   4.578
 1348SOL    HW1 4090   1.074   3.122   4.516
 1348SOL    HW2 4091   1.129   3.272   4.544
 1349SOL     OW 4092   0.322   2.663   4.664
 1349SOL    HW1 4093   0.418   2.688   4.665
 1349SOL    HW2 4094   0.310   2.572   4.703
 1350SOL     OW 4095   0.329   2.382   4.737
 1350SOL    HW1 4096   0.290   2.291   4.723
 1350SOL    HW2 4097   0.409   2.394   4.680
 1351SOL     OW 4098   1.134   2.235   5.416
 1351SOL    HW1 4099   1.081   2.292   5.479
 1351SOL    HW2 4100   1.226   2.272   5.407
 1352SOL     OW 4101   1.161   2.065   5.199
 1352SOL    HW1 4102   1.147   2.127   5.276
 1352SOL    HW2 4103   1.204   2.115   5.124
 1353SOL     OW 4104   6.992   3.184   3.945
 1353SOL    HW1 4105   6.919   3.209   4.009
 1353SOL    HW2 4106   0.020   3.090   3.962
 1354SOL     OW 4107   0.097   3.619   4.673
 1354SOL    HW1 4108   0.077   3.545   4.609
 1354SOL    HW2 4109   0.183   3.662   4.647
 1355SOL     OW 4110   0.494   3.440   4.628
 1355SOL    HW1 4111   0.563   3.507   4.655
 1355SOL    HW2 4112   0.534   3.372   4.568
 1356SOL     OW 4113   0.975   2.655   4.948
 1356SOL    HW1 4114   1.035   2.632   5.024
 1356SOL    HW2 4115   0.885   2.614   4.962
 1357SOL     OW 4116   0.050   2.470   4.830
 1357SOL    HW1 4117   0.125   2.422   4.785
 1357SOL    HW2 4118   0.051   2.450   4.927
 1358SOL     OW 4119   0.210   2.373   5.447
 1358SOL    HW1 4120   0.285   2.327   5.399
 1358SOL    HW2 4121   0.189   2.459   5.400
 1359SOL     OW 4122   1.380   2.797   5.379
 1359SOL    HW1 4123   1.403   2.894   5.380
 1359SOL    HW2 4124   1.377   2.765   5.284
 1360SOL     OW 4125   0.816   2.435   4.082
 1360SOL    HW1 4126   0.827   2.354   4.024
 1360SOL    HW2 4127   0.737   2.488   4.051
 1361SOL     OW 4128   1.643   2.465   4.905
 1361SOL    HW1 4129   1.626   2.406   4.984
 1361SOL    HW2 4130   1.734   2.448   4.868
 1362SOL     OW 4131   0.285   3.422   5.464
 1362SOL    HW1 4132   0.230   3.490   5.513
 1362SOL    HW2 4133   0.266   3.331   5.500
 1363SOL     OW 4134   0.706   2.311   4.978
 1363SOL    HW1 4135   0.652   2.231   4.952
 1363SOL    HW2 4136   0.703   2.378   4.904
 1364SOL     OW 4137   0.921   3.543   5.195
 1364SOL    HW1 4138   0.894   3.497   5.110
 1364SOL    HW2 4139   0.920   3.642   5.181
 1365SOL     OW 4140   0.454   2.350   3.906
 1365SOL    HW1 4141   0.511   2.431   3.923
 1365SOL    HW2 4142   0.368   2.359   3.956
 1366SOL     OW 4143   0.165   2.985   5.193
 1366SOL    HW1 4144   0.154   2.924   5.272
 1366SOL    HW2 4145   0.180   2.931   5.111
 1367SOL     OW 4146   1.316   2.906   4.943
 1367SOL    HW1 4147   1.343   2.838   4.875
 1367SOL    HW2 4148   1.248   2.968   4.903
 1368SOL     OW 4149   1.316   2.718   4.024
 1368SOL    HW1 4150   1.239   2.690   4.082
 1368SOL    HW2 4151   1.293   2.703   3.928
 1369SOL     OW 4152   1.780   3.591   4.881
 1369SOL    HW1 4153   1.841   3.626   4.810
 1369SOL    HW2 4154   1.749   3.500   4.856
 1370SOL     OW 4155   1.241   3.595   4.829
 1370SOL    HW1 4156   1.327   3.624   4.786
 1370SOL    HW2 4157   1.247   3.498   4.853
 1371SOL     OW 4158   0.071   3.107   4.729
 1371SOL    HW1 4159   0.088   3.127   4.825
 1371SOL    HW2 4160   6.973   3.093   4.715
 1372SOL     OW 4161   0.682   3.536   5.461
 1372SOL    HW1 4162   0.617   3.612   5.456
 1372SOL    HW2 4163   0.753   3.548   5.391
 1373SOL     OW 4164   1.719   2.012   4.223
 1373SOL    HW1 4165   1.795   2.002   4.158
 1373SOL    HW2 4166   1.702   1.924   4.268
 1374SOL     OW 4167   1.395   3.433   4.210
 1374SOL    HW1 4168   1.459   3.465   4.140
 1374SOL    HW2 4169   1.341   3.510   4.244
 1375SOL     OW 4170   0.139   3.647   5.577
 1375SOL    HW1 4171   0.094   3.574   5.627
 1375SOL    HW2 4172   0.194   3.702   5.640
 1376SOL     OW 4173   1.282   2.790   4.390
 1376SOL    HW1 4174   1.357   2.726   4.406
 1376SOL    HW2 4175   1.315   2.867   4.335
 1377SOL     OW 4176   0.803   3.141   5.150
 1377SOL    HW1 4177   0.775   3.184   5.236
 1377SOL    HW2 4178   0.734   3.156   5.080
 1378SOL     OW 4179   0.668   3.482   3.888
 1378SOL    HW1 4180   0.675   3.517   3.794
 1378SOL    HW2 4181   0.614   3.398   3.888
 1379SOL     OW 4182   1.617   3.590   5.111
 1379SOL    HW1 4183   1.674   3.591   5.029
 1379SOL    HW2 4184   1.603   3.684   5.143
 1380SOL     OW 4185   1.842   2.031   4.688
 1380SOL    HW1 4186   1.876   1.940   4.665
 1380SOL    HW2 4187   1.751   2.043   4.648
 1381SOL     OW 4188   0.263   2.178   4.438
 1381SOL    HW1 4189   0.188   2.241   4.418
 1381SOL    HW2 4190   0.265   2.158   4.536
 1382SOL     OW 4191   1.216   3.450   3.767
 1382SOL    HW1 4192   1.207   3.358   3.806
 1382SOL    HW2 4193   1.181   3.449   3.673
 1383SOL     OW 4194   0.824   2.872   5.102
 1383SOL    HW1 4195   0.873   2.857   5.017
 1383SOL    HW2 4196   0.820   2.970   5.122
 1384SOL     OW 4197   0.918   2.770   4.011
 1384SOL    HW1 4198   0.980   2.804   3.941
 1384SOL    HW2 4199   0.964   2.700   4.065
 1385SOL     OW 4200   1.493   3.467   3.767
 1385SOL    HW1 4201   1.393   3.462   3.766
 1385SOL    HW2 4202   1.527   3.457   3.674
 1386SOL     OW 4203   0.372   3.169   5.210
 1386SOL    HW1 4204   0.359   3.250   5.152
 1386SOL    HW2 4205   0.302   3.101   5.188
 1387SOL     OW 4206   1.613   3.146   5.008
 1387SOL    HW1 4207   1.676   3.127   5.084
 1387SOL    HW2 4208   1.547   3.216   5.037
 1388SOL     OW 4209   1.061   2.968   4.438
 1388SOL    HW1 4210   0.985   2.918   4.479
 1388SOL    HW2 4211   1.130   2.903   4.405
 1389SOL     OW 4212   1.022   2.101   4.691
 1389SOL    HW1 4213   1.018   2.057   4.601
 1389SOL    HW2 4214   1.020   2.031   4.763
 1390SOL     OW 4215   0.607   3.348   4.205
 1390SOL    HW1 4216   0.656   3.294   4.136
 1390SOL    HW2 4217   0.531   3.397   4.161
 1391SOL     OW 4218   1.731   2.256   5.105
 1391SOL    HW1 4219   1.804   2.324   5.105
 1391SOL    HW2 4220   1.757   2.181   5.044
 1392SOL     OW 4221   0.257   3.214   3.999
 1392SOL    HW1 4222   0.158   3.212   3.985
 1392SOL    HW2 4223   0.277   3.251   4.090
 1393SOL     OW 4224   0.121   2.835   5.426
 1393SOL    HW1 4225   0.066   2.886   5.493
 1393SOL    HW2 4226   0.212   2.817   5.464
 1394SOL     OW 4227   0.683   2.057   5.223
 1394SOL    HW1 4228   0.769   2.032   5.180
 1394SOL    HW2 4229   0.701   2.090   5.316
 1395SOL     OW 4230   0.100   2.179   3.761
 1395SOL    HW1 4231   0.003   2.154   3.760
 1395SOL    HW2 4232   0.112   2.265   3.711
 1396SOL     OW 4233   1.423   2.718   5.119
 1396SOL    HW1 4234   1.368   2.782   5.065
 1396SOL    HW2 4235   1.517   2.720   5.085
 1397SOL     OW 4236   0.076   2.050   4.065
 1397SOL    HW1 4237   0.021   2.041   3.982
 1397SOL    HW2 4238   0.153   1.986   4.061
 1398SOL     OW 4239   1.184   3.194   3.853
 1398SOL    HW1 4240   1.084   3.193   3.843
 1398SOL    HW2 4241   1.208   3.192   3.950
 1399SOL     OW 4242   0.624   2.692   5.158
 1399SOL    HW1 4243   0.680   2.774   5.143
 1399SOL    HW2 4244   0.683   2.612   5.167
 1400SOL     OW 4245   1.485   3.650   4.711
 1400SOL    HW1 4246   1.506   3.712   4.636
 1400SOL    HW2 4247   1.570   3.616   4.751
 1401SOL     OW 4248   0.718   2.421   5.428
 1401SOL    HW1 4249   0.765   2.488   5.485
 1401SOL    HW2 4250   0.739   2.329   5.460
 1402SOL     OW 4251   1.474   3.058   5.358
 1402SOL    HW1 4252   1.458   3.071   5.456
 1402SOL    HW2 4253   1.570   3.077   5.337
 1403SOL     OW 4254   0.371   3.608   5.287
 1403SOL    HW1 4255   0.284   3.654   5.272
 1403SOL    HW2 4256   0.355   3.524   5.339
 1404SOL     OW 4257   1.666   2.740   4.980
 1404SOL    HW1 4258   1.661   2.649   4.939
 1404SOL    HW2 4259   1.653   2.809   4.909
 1405SOL     OW 4260   1.219   2.179   4.184
 1405SOL    HW1 4261   1.283   2.102   4.174
 1405SOL    HW2 4262   1.246   2.234   4.263
 1406SOL     OW 4263   0.588   2.599   4.394
 1406SOL    HW1 4264   0.629   2.690   4.385
 1406SOL    HW2 4265   0.520   2.586   4.322
 1407SOL     OW 4266   1.751   2.227   5.377
 1407SOL    HW1 4267   1.741   2.243   5.278
 1407SOL    HW2 4268   1.677   2.167   5.408
 1408SOL     OW 4269   1.752   2.794   5.233
 1408SOL    HW1 4270   1.741   2.891   5.255
 1408SOL    HW2 4271   1.731   2.779   5.137
 1409SOL     OW 4272   0.914   3.234   3.812
 1409SOL    HW1 4273   0.854   3.219   3.890
 1409SOL    HW2 4274   0.873   3.301   3.750
 1410SOL     OW 4275   0.666   3.648   4.667
 1410SOL    HW1 4276   0.643   3.742   4.644
 1410SOL    HW2 4277   0.764   3.634   4.655
 1411SOL     OW 4278   0.869   2.833   4.579
 1411SOL    HW1 4279   0.919   2.755   4.616
 1411SOL    HW2 4280   0.826   2.883   4.655
 1412SOL     OW 4281   1.076   2.839   3.807
 1412SOL    HW1 4282   1.062   2.903   3.731
 1412SOL    HW2 4283   1.157   2.783   3.789
 1413SOL     OW 4284   1.846   3.419   4.571
 1413SOL    HW1 4285   1.770   3.407   4.508
 1413SOL    HW2 4286   1.841   3.349   4.643
 1414SOL     OW 4287   0.242   3.170   5.589
 1414SOL    HW1 4288   0.150   3.137   5.567
 1414SOL    HW2 4289   0.252   3.180   5.688
 1415SOL     OW 4290   0.151   3.134   4.415
 1415SOL    HW1 4291   0.104   3.088   4.490
 1415SOL    HW2 4292   0.197   3.066   4.358
 1416SOL     OW 4293   0.686   3.271   5.359
 1416SOL    HW1 4294   0.604   3.221   5.388
 1416SOL    HW2 4295   0.681   3.364   5.395
 1417SOL     OW 4296   1.804   2.044   4.958
 1417SOL    HW1 4297   1.820   1.949   4.982
 1417SOL    HW2 4298   1.817   2.056   4.859
 1418SOL     OW 4299   0.454   2.291   4.262
 1418SOL    HW1 4300   0.479   2.222   4.194
 1418SOL    HW2 4301   0.397   2.249   4.333
 1419SOL     OW 4302   1.693   3.345   4.818
 1419SOL    HW1 4303   1.612   3.327   4.762
 1419SOL    HW2 4304   1.701   3.274   4.888
 1420SOL     OW 4305   0.331   2.414   5.015
 1420SOL    HW1 4306   0.388   2.358   5.076
 1420SOL    HW2 4307   0.348   2.387   4.920
 1421SOL     OW 4308   0.829   3.441   4.402
 1421SOL    HW1 4309   0.815   3.504   4.325
 1421SOL    HW2 4310   0.751   3.378   4.408
 1422SOL     OW 4311   1.430   2.093   4.841
 1422SOL    HW1 4312   1.453   2.003   4.879
 1422SOL    HW2 4313   1.376   2.144   4.908
 1423SOL     OW 4314   1.010   1.878   4.862
 1423SOL    HW1 4315   0.946   1.815   4.819
 1423SOL    HW2 4316   1.101   1.838   4.863
 1424SOL     OW 4317   0.776   3.185   4.049
 1424SOL    HW1 4318   0.747   3.091   4.064
 1424SOL    HW2 4319   0.858   3.204   4.103
 1425SOL     OW 4320   0.626   3.420   5.014
 1425SOL    HW1 4321   0.623   3.507   5.064
 1425SOL    HW2 4322   0.716   3.409   4.973
 1426SOL     OW 4323   1.354   1.912   3.894
 1426SOL    HW1 4324   1.396   1.845   3.833
 1426SOL    HW2 4325   1.261   1.883   3.916
 1427SOL     OW 4326   1.291   2.326   4.404
 1427SOL    HW1 4327   1.238   2.411   4.406
 1427SOL    HW2 4328   1.289   2.284   4.495
 1428SOL     OW 4329   1.586   2.065   4.608
 1428SOL    HW1 4330   1.528   2.085   4.687
 1428SOL    HW2 4331   1.588   2.145   4.547
 1429SOL     OW 4332   0.070   2.927   4.001
 1429SOL    HW1 4333   0.163   2.889   4.001
 1429SOL    HW2 4334   0.005   2.854   4.022
 1430SOL     OW 4335   0.885   3.525   4.065
 1430SOL    HW1 4336   0.809   3.502   4.003
 1430SOL    HW2 4337   0.858   3.602   4.123
 1431SOL     OW 4338   0.185   2.514   5.707
 1431SOL    HW1 4339   0.175   2.448   5.781
 1431SOL    HW2 4340   0.226   2.469   5.628
 1432SOL     OW 4341   0.228   2.138   6.570
 1432SOL    HW1 4342   0.281   2.105   6.647
 1432SOL    HW2 4343   0.131   2.116   6.585
 1433SOL     OW 4344   6.990   2.246   6.239
 1433SOL    HW1 4345   6.941   2.242   6.326
 1433SOL    HW2 4346   0.010   2.153   6.208
 1434SOL     OW 4347   0.560   3.145   6.759
 1434SOL    HW1 4348   0.473   3.166   6.714
 1434SOL    HW2 4349   0.588   3.223   6.815
 1435SOL     OW 4350   1.564   3.375   6.294
 1435SOL    HW1 4351   1.519   3.352   6.380
 1435SOL    HW2 4352   1.495   3.382   6.222
 1436SOL     OW 4353   1.133   2.564   6.281
 1436SOL    HW1 4354   1.184   2.649   6.266
 1436SOL    HW2 4355   1.081   2.572   6.366
 1437SOL     OW 4356   1.770   2.461   5.809
 1437SOL    HW1 4357   1.746   2.457   5.712
 1437SOL    HW2 4358   1.732   2.382   5.856
 1438SOL     OW 4359   0.756   3.005   6.628
 1438SOL    HW1 4360   0.682   3.032   6.690
 1438SOL    HW2 4361   0.789   3.086   6.579
 1439SOL     OW 4362   0.683   2.862   6.236
 1439SOL    HW1 4363   0.755   2.851   6.305
 1439SOL    HW2 4364   0.609   2.918   6.273
 1440SOL     OW 4365   0.337   3.266   6.640
 1440SOL    HW1 4366   0.254   3.234   6.593
 1440SOL    HW2 4367   0.385   3.331   6.581
 1441SOL     OW 4368   1.611   2.309   6.330
 1441SOL    HW1 4369   1.535   2.325   6.267
 1441SOL    HW2 4370   1.612   2.381   6.400
 1442SOL     OW 4371   0.226   3.572   6.052
 1442SOL    HW1 4372   0.241   3.651   6.111
 1442SOL    HW2 4373   0.297   3.569   5.982
 1443SOL     OW 4374   0.277   3.305   6.105
 1443SOL    HW1 4375   0.254   3.402   6.111
 1443SOL    HW2 4376   0.228   3.254   6.176
 1444SOL     OW 4377   0.269   2.942   6.490
 1444SOL    HW1 4378   0.267   2.847   6.521
 1444SOL    HW2 4379   0.196   2.994   6.534
 1445SOL     OW 4380   0.611   3.667   6.985
 1445SOL    HW1 4381   0.517   3.646   0.014
 1445SOL    HW2 4382   0.637   3.758   0.019
 1446SOL     OW 4383   0.581   2.850   5.727
 1446SOL    HW1 4384   0.629   2.897   5.653
 1446SOL    HW2 4385   0.620   2.877   5.815
 1447SOL     OW 4386   0.132   2.476   6.160
 1447SOL    HW1 4387   0.063   2.408   6.183
 1447SOL    HW2 4388   0.122   2.555   6.221
 1448SOL     OW 4389   1.846   3.618   5.918
 1448SOL    HW1 4390   1.916   3.587   5.983
 1448SOL    HW2 4391   1.862   3.714   5.895
 1449SOL     OW 4392   0.036   3.454   5.734
 1449SOL    HW1 4393   0.026   3.356   5.746
 1449SOL    HW2 4394   6.960   3.501   5.778
 1450SOL     OW 4395   1.692   2.783   6.231
 1450SOL    HW1 4396   1.775   2.731   6.212
 1450SOL    HW2 4397   1.667   2.837   6.150
 1451SOL     OW 4398   1.652   2.967   6.017
 1451SOL    HW1 4399   1.741   2.964   5.972
 1451SOL    HW2 4400   1.655   3.034   6.091
 1452SOL     OW 4401   0.611   3.252   6.320
 1452SOL    HW1 4402   0.564   3.165   6.334
 1452SOL    HW2 4403   0.598   3.283   6.226
 1453SOL     OW 4404   0.817   1.871   6.095
 1453SOL    HW1 4405   0.863   1.957   6.072
 1453SOL    HW2 4406   0.719   1.887   6.103
 1454SOL     OW 4407   0.202   2.812   6.832
 1454SOL    HW1 4408   0.291   2.767   6.823
 1454SOL    HW2 4409   0.141   2.779   6.760
 1455SOL     OW 4410   1.532   2.862   5.790
 1455SOL    HW1 4411   1.458   2.802   5.819
 1455SOL    HW2 4412   1.579   2.900   5.870
 1456SOL     OW 4413   1.455   3.285   6.533
 1456SOL    HW1 4414   1.397   3.299   6.612
 1456SOL    HW2 4415   1.452   3.189   6.505
 1457SOL     OW 4416   1.650   3.611   6.162
 1457SOL    HW1 4417   1.632   3.582   6.068
 1457SOL    HW2 4418   1.629   3.536   6.224
 1458SOL     OW 4419   0.589   2.579   5.852
 1458SOL    HW1 4420   0.599   2.666   5.805
 1458SOL    HW2 4421   0.525   2.589   5.928
 1459SOL     OW 4422   1.275   2.218   6.517
 1459SOL    HW1 4423   1.181   2.185   6.525
 1459SOL    HW2 4424   1.333   2.168   6.582
 1460SOL     OW 4425   1.583   3.534   5.894
 1460SOL    HW1 4426   1.679   3.562   5.890
 1460SOL    HW2 4427   1.550   3.517   5.801
 1461SOL     OW 4428   0.794   2.472   0.047
 1461SOL    HW1 4429   0.731   2.514   0.112
 1461SOL    HW2 4430   0.742   2.416   6.982
 1462SOL     OW 4431   1.006   2.256   6.794
 1462SOL    HW1 4432   0.946   2.310   6.853
 1462SOL    HW2 4433   0.951   2.208   6.725
 1463SOL     OW 4434   1.050   2.561   6.011
 1463SOL    HW1 4435   1.072   2.555   6.108
 1463SOL    HW2 4436   0.963   2.513   5.994
 1464SOL     OW 4437   0.104   2.678   6.359
 1464SOL    HW1 4438   0.197   2.670   6.395
 1464SOL    HW2 4439   0.043   2.715   6.430
 1465SOL     OW 4440   0.108   3.693   0.174
 1465SOL    HW1 4441   0.096   3.664   0.269
 1465SOL    HW2 4442   0.019   3.715   0.135
 1466SOL     OW 4443   0.896   2.215   5.783
 1466SOL    HW1 4444   0.936   2.282   5.721
 1466SOL    HW2 4445   0.903   2.124   5.743
 1467SOL     OW 4446   1.379   3.005   6.120
 1467SOL    HW1 4447   1.464   2.989   6.069
 1467SOL    HW2 4448   1.323   3.072   6.071
 1468SOL     OW 4449   0.550   2.036   6.482
 1468SOL    HW1 4450   0.563   2.065   6.577
 1468SOL    HW2 4451   0.554   2.115   6.422
 1469SOL     OW 4452   0.995   3.305   6.050
 1469SOL    HW1 4453   0.964   3.385   5.999
 1469SOL    HW2 4454   0.978   3.318   6.148
 1470SOL     OW 4455   0.357   3.681   6.450
 1470SOL    HW1 4456   0.396   3.590   6.465
 1470SOL    HW2 4457   0.426   3.750   6.473
 1471SOL     OW 4458   1.803   2.919   6.450
 1471SOL    HW1 4459   1.753   2.893   6.367
 1471SOL    HW2 4460   1.741   2.918   6.528
 1472SOL     OW 4461   0.317   2.807   5.837
 1472SOL    HW1 4462   0.405   2.833   5.795
 1472SOL    HW2 4463   0.287   2.720   5.799
 1473SOL     OW 4464   1.482   2.611   6.306
 1473SOL    HW1 4465   1.475   2.565   6.394
 1473SOL    HW2 4466   1.563   2.671   6.306
 1474SOL     OW 4467   1.122   3.637   5.813
 1474SOL    HW1 4468   1.042   3.600   5.861
 1474SOL    HW2 4469   1.151   3.574   5.742
 1475SOL     OW 4470   1.625   3.244   5.674
 1475SOL    HW1 4471   1.586   3.335   5.659
 1475SOL    HW2 4472   1.555   3.174   5.656
 1476SOL     OW 4473   0.468   3.596   5.903
 1476SOL    HW1 4474   0.509   3.658   5.970
 1476SOL    HW2 4475   0.540   3.560   5.843
 1477SOL     OW 4476   1.401   1.966   6.022
 1477SOL    HW1 4477   1.389   1.940   5.926
 1477SOL    HW2 4478   1.498   1.975   6.043
 1478SOL     OW 4479   0.255   3.671   6.780
 1478SOL    HW1 4480   0.307   3.597   6.822
 1478SOL    HW2 4481   0.190   3.632   6.714
 1479SOL     OW 4482   0.936   3.563   6.481
 1479SOL    HW1 4483   1.020   3.517   6.510
 1479SOL    HW2 4484   0.894   3.511   6.406
 1480SOL     OW 4485   0.401   2.545   6.060
 1480SOL    HW1 4486   0.429   2.451   6.080
 1480SOL    HW2 4487   0.303   2.555   6.079
 1481SOL     OW 4488   0.642   1.978   5.688
 1481SOL    HW1 4489   0.711   1.908   5.709
 1481SOL    HW2 4490   0.585   1.947   5.612
 1482SOL     OW 4491   0.875   3.379   6.760
 1482SOL    HW1 4492   0.853   3.345   6.668
 1482SOL    HW2 4493   0.913   3.305   6.815
 1483SOL     OW 4494   0.819   3.250   6.520
 1483SOL    HW1 4495   0.909   3.239   6.477
 1483SOL    HW2 4496   0.749   3.256   6.449
 1484SOL     OW 4497   0.928   2.370   6.484
 1484SOL    HW1 4498   0.901   2.362   6.388
 1484SOL    HW2 4499   0.965   2.283   6.516
 1485SOL     OW 4500   0.547   1.926   6.082
 1485SOL    HW1 4501   0.464   1.922   6.138
 1485SOL    HW2 4502   0.543   2.006   6.022
 1486SOL     OW 4503   1.426   3.061   5.629
 1486SOL    HW1 4504   1.459   2.983   5.682
 1486SOL    HW2 4505   1.337   3.090   5.665
 1487SOL     OW 4506   0.292   1.905   5.773
 1487SOL    HW1 4507   0.341   1.984   5.739
 1487SOL    HW2 4508   0.357   1.839   5.812
 1488SOL     OW 4509   0.946   2.113   6.042
 1488SOL    HW1 4510   0.915   2.154   5.957
 1488SOL    HW2 4511   1.045   2.126   6.052
 1489SOL     OW 4512   1.219   3.432   6.381
 1489SOL    HW1 4513   1.233   3.503   6.311
 1489SOL    HW2 4514   1.296   3.433   6.445
 1490SOL     OW 4515   0.468   3.012   6.318
 1490SOL    HW1 4516   0.402   2.991   6.390
 1490SOL    HW2 4517   0.425   3.000   6.228
 1491SOL     OW 4518   1.262   3.654   6.197
 1491SOL    HW1 4519   1.314   3.716   6.138
 1491SOL    HW2 4520   1.188   3.704   6.241
 1492SOL     OW 4521   1.021   2.398   5.615
 1492SOL    HW1 4522   0.976   2.485   5.591
 1492SOL    HW2 4523   1.090   2.415   5.685
 1493SOL     OW 4524   0.581   2.082   6.752
 1493SOL    HW1 4525   0.626   1.999   6.785
 1493SOL    HW2 4526   0.485   2.081   6.779
 1494SOL     OW 4527   0.865   2.321   6.223
 1494SOL    HW1 4528   0.816   2.381   6.160
 1494SOL    HW2 4529   0.894   2.238   6.174
 1495SOL     OW 4530   1.019   1.910   6.326
 1495SOL    HW1 4531   0.956   1.911   6.249
 1495SOL    HW2 4532   0.993   1.837   6.389
 1496SOL     OW 4533   1.440   3.023   6.442
 1496SOL    HW1 4534   1.370   2.951   6.445
 1496SOL    HW2 4535   1.469   3.036   6.347
 1497SOL     OW 4536   1.466   2.467   6.550
 1497SOL    HW1 4537   1.403   2.389   6.555
 1497SOL    HW2 4538   1.529   2.465   6.627
 1498SOL     OW 4539   1.842   2.671   5.966
 1498SOL    HW1 4540   1.901   2.623   6.031
 1498SOL    HW2 4541   1.813   2.607   5.895
 1499SOL     OW 4542   0.496   3.282   5.739
 1499SOL    HW1 4543   0.414   3.257   5.791
 1499SOL    HW2 4544   0.485   3.253   5.644
 1500SOL     OW 4545   1.674   3.130   6.228
 1500SOL    HW1 4546   1.773   3.127   6.241
 1500SOL    HW2 4547   1.640   3.221   6.250
 1501SOL     OW 4548   1.390   2.436   5.657
 1501SOL    HW1 4549   1.327   2.414   5.731
 1501SOL    HW2 4550   1.483   2.410   5.682
 1502SOL     OW 4551   0.530   2.124   5.896
 1502SOL    HW1 4552   0.578   2.069   5.827
 1502SOL    HW2 4553   0.503   2.211   5.856
 1503SOL     OW 4554   1.752   3.057   0.183
 1503SOL    HW1 4555   1.850   3.038   0.182
 1503SOL    HW2 4556   1.737   3.153   0.156
 1504SOL     OW 4557   1.119   3.100   6.694
 1504SOL    HW1 4558   1.035   3.058   6.730
 1504SOL    HW2 4559   1.105   3.125   6.598
 1505SOL     OW 4560   1.622   2.941   6.647
 1505SOL    HW1 4561   1.623   3.010   6.719
 1505SOL    HW2 4562   1.546   2.959   6.584
 1506SOL     OW 4563   0.711   2.919   5.960
 1506SOL    HW1 4564   0.695   2.903   6.057
 1506SOL    HW2 4565   0.790   2.866   5.930
 1507SOL     OW 4566   0.437   2.666   6.846
 1507SOL    HW1 4567   0.490   2.694   6.926
 1507SOL    HW2 4568   0.396   2.577   6.862
 1508SOL     OW 4569   1.269   2.250   6.856
 1508SOL    HW1 4570   1.296   2.324   6.917
 1508SOL    HW2 4571   1.174   2.264   6.827
 1509SOL     OW 4572   0.084   3.432   6.857
 1509SOL    HW1 4573   0.035   3.465   6.937
 1509SOL    HW2 4574   0.182   3.438   6.872
 1510SOL     OW 4575   0.340   2.978   6.077
 1510SOL    HW1 4576   0.351   3.058   6.018
 1510SOL    HW2 4577   0.339   2.895   6.022
 1511SOL     OW 4578   0.546   2.407   6.451
 1511SOL    HW1 4579   0.560   2.465   6.370
 1511SOL    HW2 4580   0.617   2.425   6.518
 1512SOL     OW 4581   1.246   3.217   5.978
 1512SOL    HW1 4582   1.307   3.289   6.009
 1512SOL    HW2 4583   1.153   3.236   6.008
 1513SOL     OW 4584   1.283   3.312   6.747
 1513SOL    HW1 4585   1.315   3.304   6.841
 1513SOL    HW2 4586   1.221   3.236   6.726
 1514SOL     OW 4587   1.577   2.483   6.068
 1514SOL    HW1 4588   1.527   2.530   6.141
 1514SOL    HW2 4589   1.624   2.550   6.011
 1515SOL     OW 4590   0.364   3.433   6.851
 1515SOL    HW1 4591   0.343   3.362   6.783
 1515SOL    HW2 4592   0.461   3.429   6.874
 1516SOL     OW 4593   0.587   2.732   6.621
 1516SOL    HW1 4594   0.619   2.827   6.616
 1516SOL    HW2 4595   0.532   2.720   6.703
 1517SOL     OW 4596   1.347   2.718   6.593
 1517SOL    HW1 4597   1.256   2.702   6.555
 1517SOL    HW2 4598   1.400   2.633   6.590
 1518SOL     OW 4599   1.197   2.389   5.850
 1518SOL    HW1 4600   1.210   2.306   5.905
 1518SOL    HW2 4601   1.153   2.459   5.906
 1519SOL     OW 4602   0.323   2.060   6.821
 1519SOL    HW1 4603   0.307   2.075   6.919
 1519SOL    HW2 4604   0.300   1.966   6.797
 1520SOL     OW 4605   0.054   3.161   6.833
 1520SOL    HW1 4606   0.087   3.097   6.902
 1520SOL    HW2 4607   0.086   3.253   6.855
 1521SOL     OW 4608   0.726   2.489   6.641
 1521SOL    HW1 4609   0.804   2.468   6.582
 1521SOL    HW2 4610   0.695   2.582   6.623
 1522SOL     OW 4611   0.301   1.923   6.209
 1522SOL    HW1 4612   0.281   2.019   6.227
 1522SOL    HW2 4613   0.314   1.874   6.296
 1523SOL     OW 4614   1.627   2.243   5.948
 1523SOL    HW1 4615   1.653   2.169   6.011
 1523SOL    HW2 4616   1.598   2.323   6.000
 1524SOL     OW 4617   1.022   2.619   6.550
 1524SOL    HW1 4618   1.017   2.640   6.648
 1524SOL    HW2 4619   0.997   2.523   6.535
 1525SOL     OW 4620   1.919   3.337   0.195
 1525SOL    HW1 4621   1.897   3.369   0.102
 1525SOL    HW2 4622   1.921   3.415   0.257
 1526SOL     OW 4623   1.527   2.131   5.716
 1526SOL    HW1 4624   1.458   2.063   5.741
 1526SOL    HW2 4625   1.564   2.173   5.799
 1527SOL     OW 4626   1.289   2.688   5.612
 1527SOL    HW1 4627   1.330   2.597   5.621
 1527SOL    HW2 4628   1.320   2.730   5.527
 1528SOL     OW 4629   1.072   3.199   6.439
 1528SOL    HW1 4630   1.076   3.121   6.376
 1528SOL    HW2 4631   1.130   3.273   6.403
 1529SOL     OW 4632   0.321   2.664   6.531
 1529SOL    HW1 4633   0.418   2.688   6.529
 1529SOL    HW2 4634   0.311   2.570   6.566
 1530SOL     OW 4635   0.327   2.385   6.604
 1530SOL    HW1 4636   0.289   2.294   6.587
 1530SOL    HW2 4637   0.409   2.398   6.548
 1531SOL     OW 4638   1.142   2.102   0.055
 1531SOL    HW1 4639   1.201   2.130   0.130
 1531SOL    HW2 4640   1.178   2.138   6.968
 1532SOL     OW 4641   6.991   3.184   5.804
 1532SOL    HW1 4642   6.919   3.209   5.868
 1532SOL    HW2 4643   0.020   3.090   5.822
 1533SOL     OW 4644   0.097   3.621   6.533
 1533SOL    HW1 4645   0.077   3.547   6.469
 1533SOL    HW2 4646   0.185   3.663   6.509
 1534SOL     OW 4647   0.494   3.440   6.491
 1534SOL    HW1 4648   0.563   3.506   6.519
 1534SOL    HW2 4649   0.535   3.373   6.430
 1535SOL     OW 4650   0.980   2.658   6.823
 1535SOL    HW1 4651   1.058   2.637   6.880
 1535SOL    HW2 4652   0.899   2.612   6.858
 1536SOL     OW 4653   0.059   2.475   6.692
 1536SOL    HW1 4654   0.124   2.429   6.632
 1536SOL    HW2 4655   0.044   2.419   6.774
 1537SOL     OW 4656   0.816   2.434   5.945
 1537SOL    HW1 4657   0.828   2.354   5.886
 1537SOL    HW2 4658   0.738   2.488   5.913
 1538SOL     OW 4659   1.647   2.472   6.752
 1538SOL    HW1 4660   1.632   2.413   6.831
 1538SOL    HW2 4661   1.742   2.461   6.720
 1539SOL     OW 4662   0.674   2.326   6.850
 1539SOL    HW1 4663   0.644   2.236   6.818
 1539SOL    HW2 4664   0.688   2.386   6.772
 1540SOL     OW 4665   0.942   3.524   6.997
 1540SOL    HW1 4666   0.911   3.514   6.903
 1540SOL    HW2 4667   0.924   3.617   0.029
 1541SOL     OW 4668   0.455   2.350   5.768
 1541SOL    HW1 4669   0.511   2.431   5.785
 1541SOL    HW2 4670   0.369   2.359   5.819
 1542SOL     OW 4671   0.161   2.987   0.028
 1542SOL    HW1 4672   0.180   2.940   0.114
 1542SOL    HW2 4673   0.176   2.925   6.951
 1543SOL     OW 4674   1.285   2.866   6.813
 1543SOL    HW1 4675   1.322   2.815   6.736
 1543SOL    HW2 4676   1.259   2.958   6.783
 1544SOL     OW 4677   1.315   2.719   5.885
 1544SOL    HW1 4678   1.240   2.691   5.944
 1544SOL    HW2 4679   1.290   2.706   5.789
 1545SOL     OW 4680   1.784   3.608   6.742
 1545SOL    HW1 4681   1.845   3.633   6.667
 1545SOL    HW2 4682   1.745   3.518   6.724
 1546SOL     OW 4683   1.246   3.587   6.699
 1546SOL    HW1 4684   1.329   3.616   6.652
 1546SOL    HW2 4685   1.251   3.489   6.719
 1547SOL     OW 4686   0.061   3.103   6.574
 1547SOL    HW1 4687   0.068   3.124   6.672
 1547SOL    HW2 4688   6.965   3.092   6.549
 1548SOL     OW 4689   1.720   2.012   6.085
 1548SOL    HW1 4690   1.795   2.002   6.020
 1548SOL    HW2 4691   1.702   1.924   6.130
 1549SOL     OW 4692   1.395   3.433   6.074
 1549SOL    HW1 4693   1.458   3.464   6.003
 1549SOL    HW2 4694   1.340   3.509   6.106
 1550SOL     OW 4695   1.282   2.790   6.252
 1550SOL    HW1 4696   1.356   2.726   6.268
 1550SOL    HW2 4697   1.315   2.867   6.197
 1551SOL     OW 4698   0.673   3.485   5.740
 1551SOL    HW1 4699   0.687   3.504   5.643
 1551SOL    HW2 4700   0.615   3.404   5.749
 1552SOL     OW 4701   1.842   2.034   6.557
 1552SOL    HW1 4702   1.876   1.943   6.533
 1552SOL    HW2 4703   1.750   2.047   6.518
 1553SOL     OW 4704   0.263   2.179   6.297
 1553SOL    HW1 4705   0.186   2.240   6.275
 1553SOL    HW2 4706   0.264   2.161   6.395
 1554SOL     OW 4707   1.209   3.463   5.619
 1554SOL    HW1 4708   1.199   3.369   5.652
 1554SOL    HW2 4709   1.141   3.480   5.547
 1555SOL     OW 4710   0.777   2.887   6.952
 1555SOL    HW1 4711   0.836   2.842   6.886
 1555SOL    HW2 4712   0.823   2.967   6.989
 1556SOL     OW 4713   0.919   2.772   5.873
 1556SOL    HW1 4714   0.980   2.808   5.803
 1556SOL    HW2 4715   0.966   2.701   5.925
 1557SOL     OW 4716   1.488   3.492   5.628
 1557SOL    HW1 4717   1.390   3.481   5.617
 1557SOL    HW2 4718   1.532   3.497   5.538
 1558SOL     OW 4719   1.618   3.131   6.833
 1558SOL    HW1 4720   1.702   3.146   6.885
 1558SOL    HW2 4721   1.542   3.114   6.895
 1559SOL     OW 4722   1.061   2.968   6.300
 1559SOL    HW1 4723   0.984   2.917   6.340
 1559SOL    HW2 4724   1.130   2.903   6.267
 1560SOL     OW 4725   1.020   2.099   6.540
 1560SOL    HW1 4726   1.019   2.049   6.453
 1560SOL    HW2 4727   1.022   2.033   6.615
 1561SOL     OW 4728   0.607   3.349   6.067
 1561SOL    HW1 4729   0.658   3.295   5.999
 1561SOL    HW2 4730   0.529   3.394   6.023
 1562SOL     OW 4731   1.698   2.285   6.943
 1562SOL    HW1 4732   1.757   2.293   0.024
 1562SOL    HW2 4733   1.705   2.193   6.906
 1563SOL     OW 4734   0.256   3.213   5.860
 1563SOL    HW1 4735   0.157   3.213   5.843
 1563SOL    HW2 4736   0.274   3.249   5.951
 1564SOL     OW 4737   0.674   2.050   0.079
 1564SOL    HW1 4738   0.767   2.025   0.052
 1564SOL    HW2 4739   0.677   2.132   0.137
 1565SOL     OW 4740   0.100   2.179   5.623
 1565SOL    HW1 4741   0.003   2.154   5.622
 1565SOL    HW2 4742   0.112   2.265   5.573
 1566SOL     OW 4743   0.076   2.050   5.927
 1566SOL    HW1 4744   0.021   2.040   5.844
 1566SOL    HW2 4745   0.153   1.986   5.924
 1567SOL     OW 4746   1.180   3.199   5.706
 1567SOL    HW1 4747   1.084   3.172   5.699
 1567SOL    HW2 4748   1.207   3.200   5.802
 1568SOL     OW 4749   1.487   3.645   6.575
 1568SOL    HW1 4750   1.502   3.709   6.500
 1568SOL    HW2 4751   1.576   3.618   6.613
 1569SOL     OW 4752   1.494   3.159   0.285
 1569SOL    HW1 4753   1.408   3.113   0.309
 1569SOL    HW2 4754   1.564   3.091   0.265
 1570SOL     OW 4755   0.375   3.625   0.101
 1570SOL    HW1 4756   0.286   3.672   0.100
 1570SOL    HW2 4757   0.400   3.604   0.196
 1571SOL     OW 4758   1.701   2.739   6.829
 1571SOL    HW1 4759   1.667   2.649   6.802
 1571SOL    HW2 4760   1.667   2.808   6.766
 1572SOL     OW 4761   1.219   2.179   6.046
 1572SOL    HW1 4762   1.283   2.102   6.036
 1572SOL    HW2 4763   1.246   2.234   6.125
 1573SOL     OW 4764   0.586   2.600   6.257
 1573SOL    HW1 4765   0.628   2.690   6.247
 1573SOL    HW2 4766   0.519   2.587   6.184
 1574SOL     OW 4767   1.774   2.772   0.093
 1574SOL    HW1 4768   1.759   2.868   0.119
 1574SOL    HW2 4769   1.746   2.759   6.998
 1575SOL     OW 4770   0.870   3.226   5.631
 1575SOL    HW1 4771   0.825   3.250   5.717
 1575SOL    HW2 4772   0.882   3.308   5.575
 1576SOL     OW 4773   0.667   3.647   6.533
 1576SOL    HW1 4774   0.643   3.741   6.506
 1576SOL    HW2 4775   0.765   3.633   6.518
 1577SOL     OW 4776   0.869   2.832   6.442
 1577SOL    HW1 4777   0.918   2.753   6.480
 1577SOL    HW2 4778   0.828   2.885   6.517
 1578SOL     OW 4779   1.077   2.850   5.670
 1578SOL    HW1 4780   1.050   2.905   5.590
 1578SOL    HW2 4781   1.155   2.793   5.645
 1579SOL     OW 4782   1.849   3.419   6.432
 1579SOL    HW1 4783   1.771   3.406   6.371
 1579SOL    HW2 4784   1.848   3.347   6.502
 1580SOL     OW 4785   0.153   3.135   6.276
 1580SOL    HW1 4786   0.108   3.089   6.354
 1580SOL    HW2 4787   0.197   3.066   6.218
 1581SOL     OW 4788   1.811   2.036   6.836
 1581SOL    HW1 4789   1.793   1.937   6.838
 1581SOL    HW2 4790   1.824   2.065   6.741
 1582SOL     OW 4791   0.456   2.291   6.124
 1582SOL    HW1 4792   0.480   2.222   6.055
 1582SOL    HW2 4793   0.397   2.249   6.193
 1583SOL     OW 4794   1.679   3.365   6.682
 1583SOL    HW1 4795   1.605   3.345   6.619
 1583SOL    HW2 4796   1.688   3.289   6.747
 1584SOL     OW 4797   0.320   2.403   6.884
 1584SOL    HW1 4798   0.392   2.347   6.924
 1584SOL    HW2 4799   0.322   2.395   6.785
 1585SOL     OW 4800   0.829   3.441   6.262
 1585SOL    HW1 4801   0.816   3.504   6.186
 1585SOL    HW2 4802   0.751   3.378   6.267
 1586SOL     OW 4803   1.433   2.097   6.703
 1586SOL    HW1 4804   1.466   2.015   6.751
 1586SOL    HW2 4805   1.380   2.153   6.766
 1587SOL     OW 4806   1.016   1.880   6.713
 1587SOL    HW1 4807   0.953   1.814   6.672
 1587SOL    HW2 4808   1.107   1.838   6.722
 1588SOL     OW 4809   0.774   3.193   5.908
 1588SOL    HW1 4810   0.746   3.097   5.916
 1588SOL    HW2 4811   0.860   3.207   5.958
 1589SOL     OW 4812   0.634   3.423   6.874
 1589SOL    HW1 4813   0.629   3.519   6.901
 1589SOL    HW2 4814   0.719   3.406   6.824
 1590SOL     OW 4815   1.354   1.912   5.756
 1590SOL    HW1 4816   1.396   1.845   5.695
 1590SOL    HW2 4817   1.261   1.883   5.778
 1591SOL     OW 4818   1.292   2.326   6.266
 1591SOL    HW1 4819   1.239   2.411   6.269
 1591SOL    HW2 4820   1.289   2.282   6.356
 1592SOL     OW 4821   1.587   2.067   6.472
 1592SOL    HW1 4822   1.526   2.086   6.549
 1592SOL    HW2 4823   1.588   2.145   6.410
 1593SOL     OW 4824   0.071   2.926   5.863
 1593SOL    HW1 4825   0.163   2.889   5.863
 1593SOL    HW2 4826   0.006   2.853   5.884
 1594SOL     OW 4827   0.885   3.525   5.926
 1594SOL    HW1 4828   0.811   3.504   5.863
 1594SOL    HW2 4829   0.858   3.602   5.984
 1595SOL     OW 4830   0.230   4.375   0.128
 1595SOL    HW1 4831   0.154   4.323   0.167
 1595SOL    HW2 4832   0.250   4.342   0.036
 1596SOL     OW 4833   0.231   3.996   0.988
 1596SOL    HW1 4834   0.282   3.963   1.068
 1596SOL    HW2 4835   0.133   3.979   1.002
 1597SOL     OW 4836   6.987   4.111   0.657
 1597SOL    HW1 4837   6.939   4.110   0.745
 1597SOL    HW2 4838   0.004   4.017   0.627
 1598SOL     OW 4839   0.569   5.021   1.186
 1598SOL    HW1 4840   0.479   5.017   1.143
 1598SOL    HW2 4841   0.587   5.113   1.220
 1599SOL     OW 4842   1.563   5.238   0.707
 1599SOL    HW1 4843   1.521   5.213   0.794
 1599SOL    HW2 4844   1.493   5.242   0.636
 1600SOL     OW 4845   1.131   4.426   0.696
 1600SOL    HW1 4846   1.185   4.509   0.680
 1600SOL    HW2 4847   1.081   4.435   0.782
 1601SOL     OW 4848   1.786   4.301   0.196
 1601SOL    HW1 4849   1.719   4.354   0.144
 1601SOL    HW2 4850   1.738   4.241   0.261
 1602SOL     OW 4851   0.744   4.865   1.041
 1602SOL    HW1 4852   0.676   4.899   1.105
 1602SOL    HW2 4853   0.788   4.942   0.995
 1603SOL     OW 4854   0.873   4.488   1.820
 1603SOL    HW1 4855   0.863   4.556   1.893
 1603SOL    HW2 4856   0.897   4.534   1.735
 1604SOL     OW 4857   0.682   4.722   0.651
 1604SOL    HW1 4858   0.754   4.713   0.720
 1604SOL    HW2 4859   0.608   4.778   0.688
 1605SOL     OW 4860   0.713   4.876   1.819
 1605SOL    HW1 4861   0.765   4.955   1.852
 1605SOL    HW2 4862   0.628   4.908   1.776
 1606SOL     OW 4863   0.333   5.145   1.065
 1606SOL    HW1 4864   0.255   5.103   1.018
 1606SOL    HW2 4865   0.384   5.202   1.001
 1607SOL     OW 4866   1.458   5.225   1.358
 1607SOL    HW1 4867   1.515   5.307   1.365
 1607SOL    HW2 4868   1.387   5.228   1.428
 1608SOL     OW 4869   0.443   4.118   1.491
 1608SOL    HW1 4870   0.526   4.062   1.494
 1608SOL    HW2 4871   0.363   4.059   1.501
 1609SOL     OW 4872   1.611   4.172   0.744
 1609SOL    HW1 4873   1.533   4.190   0.684
 1609SOL    HW2 4874   1.619   4.246   0.811
 1610SOL     OW 4875   0.198   5.476   0.466
 1610SOL    HW1 4876   0.240   5.540   0.530
 1610SOL    HW2 4877   0.269   5.429   0.414
 1611SOL     OW 4878   1.137   5.064   1.698
 1611SOL    HW1 4879   1.183   5.062   1.786
 1611SOL    HW2 4880   1.081   4.982   1.688
 1612SOL     OW 4881   0.267   5.189   0.541
 1612SOL    HW1 4882   0.240   5.282   0.566
 1612SOL    HW2 4883   0.225   5.124   0.604
 1613SOL     OW 4884   0.272   4.807   0.909
 1613SOL    HW1 4885   0.265   4.711   0.937
 1613SOL    HW2 4886   0.199   4.859   0.953
 1614SOL     OW 4887   0.601   5.521   1.427
 1614SOL    HW1 4888   0.516   5.497   1.474
 1614SOL    HW2 4889   0.631   5.612   1.455
 1615SOL     OW 4890   0.586   4.692   0.147
 1615SOL    HW1 4891   0.643   4.714   0.068
 1615SOL    HW2 4892   0.622   4.737   0.228
 1616SOL     OW 4893   1.597   3.849   1.469
 1616SOL    HW1 4894   1.616   3.929   1.413
 1616SOL    HW2 4895   1.582   3.878   1.564
 1617SOL     OW 4896   0.130   4.343   0.572
 1617SOL    HW1 4897   0.063   4.273   0.596
 1617SOL    HW2 4898   0.122   4.420   0.636
 1618SOL     OW 4899   1.847   5.486   0.344
 1618SOL    HW1 4900   1.914   5.454   0.411
 1618SOL    HW2 4901   1.846   5.586   0.345
 1619SOL     OW 4902   6.973   5.275   0.121
 1619SOL    HW1 4903   6.968   5.180   0.151
 1619SOL    HW2 4904   0.023   5.329   0.189
 1620SOL     OW 4905   1.691   4.640   0.649
 1620SOL    HW1 4906   1.775   4.589   0.629
 1620SOL    HW2 4907   1.668   4.698   0.570
 1621SOL     OW 4908   1.654   4.823   0.443
 1621SOL    HW1 4909   1.724   4.842   0.375
 1621SOL    HW2 4910   1.660   4.891   0.517
 1622SOL     OW 4911   0.146   4.455   1.580
 1622SOL    HW1 4912   0.245   4.462   1.565
 1622SOL    HW2 4913   0.111   4.543   1.612
 1623SOL     OW 4914   0.612   5.113   0.737
 1623SOL    HW1 4915   0.565   5.026   0.750
 1623SOL    HW2 4916   0.601   5.142   0.641
 1624SOL     OW 4917   1.288   4.959   1.422
 1624SOL    HW1 4918   1.315   4.888   1.356
 1624SOL    HW2 4919   1.348   4.955   1.502
 1625SOL     OW 4920   0.820   3.736   0.513
 1625SOL    HW1 4921   0.866   3.822   0.490
 1625SOL    HW2 4922   0.722   3.752   0.521
 1626SOL     OW 4923   0.204   4.685   1.262
 1626SOL    HW1 4924   0.287   4.632   1.246
 1626SOL    HW2 4925   0.132   4.655   1.200
 1627SOL     OW 4926   1.490   4.740   0.209
 1627SOL    HW1 4927   1.424   4.674   0.245
 1627SOL    HW2 4928   1.574   4.735   0.263
 1628SOL     OW 4929   1.183   5.535   1.622
 1628SOL    HW1 4930   1.190   5.603   1.549
 1628SOL    HW2 4931   1.202   5.445   1.585
 1629SOL     OW 4932   0.353   3.975   1.831
 1629SOL    HW1 4933   0.402   4.058   1.860
 1629SOL    HW2 4934   0.256   3.984   1.853
 1630SOL     OW 4935   1.464   5.145   0.947
 1630SOL    HW1 4936   1.398   5.164   1.019
 1630SOL    HW2 4937   1.457   5.049   0.919
 1631SOL     OW 4938   1.649   5.473   0.580
 1631SOL    HW1 4939   1.627   5.447   0.486
 1631SOL    HW2 4940   1.627   5.398   0.642
 1632SOL     OW 4941   0.600   4.443   0.265
 1632SOL    HW1 4942   0.605   4.533   0.222
 1632SOL    HW2 4943   0.535   4.446   0.341
 1633SOL     OW 4944   1.277   4.082   0.933
 1633SOL    HW1 4945   1.183   4.048   0.940
 1633SOL    HW2 4946   1.336   4.030   0.994
 1634SOL     OW 4947   1.583   5.402   0.317
 1634SOL    HW1 4948   1.681   5.416   0.311
 1634SOL    HW2 4949   1.544   5.400   0.225
 1635SOL     OW 4950   0.790   4.337   1.450
 1635SOL    HW1 4951   0.764   4.313   1.544
 1635SOL    HW2 4952   0.752   4.269   1.387
 1636SOL     OW 4953   1.391   4.194   1.679
 1636SOL    HW1 4954   1.392   4.243   1.766
 1636SOL    HW2 4955   1.452   4.115   1.686
 1637SOL     OW 4956   0.952   4.609   1.583
 1637SOL    HW1 4957   1.011   4.537   1.545
 1637SOL    HW2 4958   0.899   4.651   1.510
 1638SOL     OW 4959   0.994   4.130   1.230
 1638SOL    HW1 4960   0.905   4.153   1.268
 1638SOL    HW2 4961   0.982   4.080   1.144
 1639SOL     OW 4962   1.051   4.424   0.428
 1639SOL    HW1 4963   1.074   4.421   0.525
 1639SOL    HW2 4964   0.965   4.376   0.413
 1640SOL     OW 4965   0.104   4.540   0.773
 1640SOL    HW1 4966   0.196   4.530   0.813
 1640SOL    HW2 4967   0.042   4.579   0.841
 1641SOL     OW 4968   0.120   5.594   1.591
 1641SOL    HW1 4969   0.131   5.568   1.687
 1641SOL    HW2 4970   0.030   5.566   1.559
 1642SOL     OW 4971   0.889   4.067   0.208
 1642SOL    HW1 4972   0.939   4.127   0.145
 1642SOL    HW2 4973   0.904   3.972   0.182
 1643SOL     OW 4974   1.701   4.297   1.826
 1643SOL    HW1 4975   1.666   4.376   1.776
 1643SOL    HW2 4976   1.731   4.227   1.761
 1644SOL     OW 4977   1.381   4.865   0.548
 1644SOL    HW1 4978   1.466   4.856   0.496
 1644SOL    HW2 4979   1.323   4.934   0.503
 1645SOL     OW 4980   0.552   3.902   0.900
 1645SOL    HW1 4981   0.556   3.927   0.997
 1645SOL    HW2 4982   0.559   3.985   0.844
 1646SOL     OW 4983   0.989   5.164   0.471
 1646SOL    HW1 4984   0.959   5.245   0.421
 1646SOL    HW2 4985   0.972   5.176   0.569
 1647SOL     OW 4986   0.358   5.541   0.867
 1647SOL    HW1 4987   0.397   5.449   0.878
 1647SOL    HW2 4988   0.427   5.609   0.891
 1648SOL     OW 4989   1.800   4.778   0.873
 1648SOL    HW1 4990   1.749   4.757   0.790
 1648SOL    HW2 4991   1.736   4.785   0.950
 1649SOL     OW 4992   1.227   5.260   1.514
 1649SOL    HW1 4993   1.214   5.186   1.580
 1649SOL    HW2 4994   1.158   5.252   1.442
 1650SOL     OW 4995   0.310   4.663   0.227
 1650SOL    HW1 4996   0.401   4.686   0.192
 1650SOL    HW2 4997   0.287   4.570   0.200
 1651SOL     OW 4998   1.484   4.470   0.722
 1651SOL    HW1 4999   1.479   4.429   0.813
 1651SOL    HW2 5000   1.564   4.531   0.718
 1652SOL     OW 5001   0.472   4.985   1.728
 1652SOL    HW1 5002   0.445   4.995   1.632
 1652SOL    HW2 5003   0.391   4.986   1.786
 1653SOL     OW 5004   1.119   5.490   0.236
 1653SOL    HW1 5005   1.049   5.445   0.292
 1653SOL    HW2 5006   1.157   5.425   0.170
 1654SOL     OW 5007   0.196   3.992   1.490
 1654SOL    HW1 5008   0.113   4.045   1.474
 1654SOL    HW2 5009   0.172   3.907   1.538
 1655SOL     OW 5010   1.623   5.152   0.074
 1655SOL    HW1 5011   1.584   5.244   0.086
 1655SOL    HW2 5012   1.559   5.084   0.110
 1656SOL     OW 5013   0.482   5.436   0.352
 1656SOL    HW1 5014   0.513   5.511   0.411
 1656SOL    HW2 5015   0.558   5.402   0.297
 1657SOL     OW 5016   1.405   3.830   0.443
 1657SOL    HW1 5017   1.396   3.801   0.348
 1657SOL    HW2 5018   1.501   3.840   0.466
 1658SOL     OW 5019   0.259   5.518   1.223
 1658SOL    HW1 5020   0.309   5.444   1.267
 1658SOL    HW2 5021   0.213   5.483   1.141
 1659SOL     OW 5022   0.936   5.426   0.897
 1659SOL    HW1 5023   1.019   5.379   0.927
 1659SOL    HW2 5024   0.893   5.374   0.823
 1660SOL     OW 5025   0.402   4.411   0.468
 1660SOL    HW1 5026   0.424   4.315   0.487
 1660SOL    HW2 5027   0.306   4.428   0.489
 1661SOL     OW 5028   1.528   3.947   1.728
 1661SOL    HW1 5029   1.539   3.968   1.825
 1661SOL    HW2 5030   1.455   3.879   1.716
 1662SOL     OW 5031   0.763   4.001   1.757
 1662SOL    HW1 5032   0.848   3.948   1.750
 1662SOL    HW2 5033   0.711   3.971   1.837
 1663SOL     OW 5034   0.876   5.240   1.192
 1663SOL    HW1 5035   0.856   5.203   1.101
 1663SOL    HW2 5036   0.948   5.185   1.235
 1664SOL     OW 5037   1.340   4.313   1.435
 1664SOL    HW1 5038   1.370   4.278   1.524
 1664SOL    HW2 5039   1.375   4.405   1.422
 1665SOL     OW 5040   0.820   5.113   0.942
 1665SOL    HW1 5041   0.909   5.102   0.899
 1665SOL    HW2 5042   0.749   5.119   0.871
 1666SOL     OW 5043   0.927   4.230   0.899
 1666SOL    HW1 5044   0.900   4.223   0.803
 1666SOL    HW2 5045   0.960   4.142   0.932
 1667SOL     OW 5046   0.551   3.792   0.502
 1667SOL    HW1 5047   0.470   3.791   0.560
 1667SOL    HW2 5048   0.546   3.868   0.437
 1668SOL     OW 5049   1.418   4.937   0.013
 1668SOL    HW1 5050   1.448   4.856   0.065
 1668SOL    HW2 5051   1.335   4.973   0.054
 1669SOL     OW 5052   0.949   3.974   0.462
 1669SOL    HW1 5053   0.917   4.015   0.376
 1669SOL    HW2 5054   1.048   3.988   0.470
 1670SOL     OW 5055   1.080   4.407   1.455
 1670SOL    HW1 5056   1.005   4.340   1.461
 1670SOL    HW2 5057   1.167   4.358   1.451
 1671SOL     OW 5058   1.218   5.293   0.795
 1671SOL    HW1 5059   1.234   5.362   0.724
 1671SOL    HW2 5060   1.291   5.300   0.863
 1672SOL     OW 5061   0.469   4.875   0.734
 1672SOL    HW1 5062   0.401   4.854   0.805
 1672SOL    HW2 5063   0.429   4.860   0.644
 1673SOL     OW 5064   1.263   5.516   0.610
 1673SOL    HW1 5065   1.316   5.579   0.554
 1673SOL    HW2 5066   1.190   5.566   0.656
 1674SOL     OW 5067   1.062   4.300   0.032
 1674SOL    HW1 5068   0.967   4.326   0.051
 1674SOL    HW2 5069   1.111   4.291   0.119
 1675SOL     OW 5070   0.073   4.276   1.375
 1675SOL    HW1 5071   0.169   4.268   1.346
 1675SOL    HW2 5072   0.066   4.344   1.448
 1676SOL     OW 5073   0.565   3.946   1.171
 1676SOL    HW1 5074   0.615   3.870   1.212
 1676SOL    HW2 5075   0.470   3.944   1.202
 1677SOL     OW 5076   0.864   4.180   0.639
 1677SOL    HW1 5077   0.823   4.243   0.573
 1677SOL    HW2 5078   0.894   4.098   0.591
 1678SOL     OW 5079   1.015   3.776   0.745
 1678SOL    HW1 5080   0.954   3.774   0.666
 1678SOL    HW2 5081   0.993   3.701   0.807
 1679SOL     OW 5082   1.447   4.885   0.860
 1679SOL    HW1 5083   1.370   4.821   0.861
 1679SOL    HW2 5084   1.480   4.896   0.767
 1680SOL     OW 5085   1.468   4.332   0.971
 1680SOL    HW1 5086   1.406   4.253   0.971
 1680SOL    HW2 5087   1.529   4.326   1.050
 1681SOL     OW 5088   1.827   4.528   0.391
 1681SOL    HW1 5089   1.889   4.467   0.442
 1681SOL    HW2 5090   1.823   4.498   0.295
 1682SOL     OW 5091   0.477   5.142   0.172
 1682SOL    HW1 5092   0.436   5.077   0.237
 1682SOL    HW2 5093   0.425   5.141   0.087
 1683SOL     OW 5094   1.671   4.989   0.653
 1683SOL    HW1 5095   1.771   4.988   0.661
 1683SOL    HW2 5096   1.638   5.083   0.666
 1684SOL     OW 5097   1.391   4.276   0.067
 1684SOL    HW1 5098   1.331   4.274   0.147
 1684SOL    HW2 5099   1.454   4.199   0.071
 1685SOL     OW 5100   0.513   3.984   0.313
 1685SOL    HW1 5101   0.518   3.917   0.239
 1685SOL    HW2 5102   0.492   4.074   0.276
 1686SOL     OW 5103   1.753   4.965   1.561
 1686SOL    HW1 5104   1.842   4.922   1.548
 1686SOL    HW2 5105   1.764   5.058   1.595
 1687SOL     OW 5106   1.053   5.074   1.336
 1687SOL    HW1 5107   0.972   5.044   1.386
 1687SOL    HW2 5108   1.135   5.034   1.378
 1688SOL     OW 5109   1.614   5.354   1.657
 1688SOL    HW1 5110   1.598   5.389   1.565
 1688SOL    HW2 5111   1.699   5.302   1.659
 1689SOL     OW 5112   1.137   4.943   1.105
 1689SOL    HW1 5113   1.077   4.977   1.177
 1689SOL    HW2 5114   1.103   4.974   1.016
 1690SOL     OW 5115   1.624   4.820   1.079
 1690SOL    HW1 5116   1.620   4.886   1.155
 1690SOL    HW2 5117   1.549   4.838   1.016
 1691SOL     OW 5118   0.923   3.819   1.391
 1691SOL    HW1 5119   0.945   3.795   1.297
 1691SOL    HW2 5120   1.002   3.862   1.434
 1692SOL     OW 5121   0.980   4.838   1.721
 1692SOL    HW1 5122   0.886   4.858   1.748
 1692SOL    HW2 5123   0.982   4.756   1.665
 1693SOL     OW 5124   0.713   4.782   0.376
 1693SOL    HW1 5125   0.695   4.765   0.473
 1693SOL    HW2 5126   0.793   4.729   0.347
 1694SOL     OW 5127   0.429   4.529   1.249
 1694SOL    HW1 5128   0.499   4.545   1.318
 1694SOL    HW2 5129   0.387   4.440   1.264
 1695SOL     OW 5130   1.263   4.100   1.280
 1695SOL    HW1 5131   1.299   4.179   1.329
 1695SOL    HW2 5132   1.167   4.118   1.255
 1696SOL     OW 5133   0.068   5.289   1.318
 1696SOL    HW1 5134   0.017   5.374   1.336
 1696SOL    HW2 5135   0.165   5.303   1.339
 1697SOL     OW 5136   0.355   4.823   0.494
 1697SOL    HW1 5137   0.336   4.898   0.431
 1697SOL    HW2 5138   0.361   4.737   0.443
 1698SOL     OW 5139   0.550   4.264   0.858
 1698SOL    HW1 5140   0.563   4.326   0.781
 1698SOL    HW2 5141   0.616   4.285   0.930
 1699SOL     OW 5142   1.237   5.067   0.408
 1699SOL    HW1 5143   1.300   5.141   0.433
 1699SOL    HW2 5144   1.145   5.091   0.437
 1700SOL     OW 5145   1.288   5.186   1.147
 1700SOL    HW1 5146   1.346   5.191   1.228
 1700SOL    HW2 5147   1.233   5.102   1.151
 1701SOL     OW 5148   1.587   4.354   0.478
 1701SOL    HW1 5149   1.529   4.394   0.550
 1701SOL    HW2 5150   1.643   4.425   0.437
 1702SOL     OW 5151   0.351   5.257   1.309
 1702SOL    HW1 5152   0.331   5.210   1.223
 1702SOL    HW2 5153   0.450   5.269   1.319
 1703SOL     OW 5154   0.424   4.459   1.598
 1703SOL    HW1 5155   0.485   4.511   1.538
 1703SOL    HW2 5156   0.467   4.372   1.622
 1704SOL     OW 5157   1.608   4.509   1.684
 1704SOL    HW1 5158   1.517   4.551   1.682
 1704SOL    HW2 5159   1.665   4.550   1.613
 1705SOL     OW 5160   0.997   3.858   1.750
 1705SOL    HW1 5161   1.056   3.938   1.734
 1705SOL    HW2 5162   1.046   3.775   1.724
 1706SOL     OW 5163   0.496   3.759   1.749
 1706SOL    HW1 5164   0.450   3.703   1.680
 1706SOL    HW2 5165   0.440   3.840   1.769
 1707SOL     OW 5166   0.587   4.595   1.032
 1707SOL    HW1 5167   0.619   4.689   1.028
 1707SOL    HW2 5168   0.528   4.583   1.112
 1708SOL     OW 5169   1.352   4.581   1.025
 1708SOL    HW1 5170   1.262   4.574   0.982
 1708SOL    HW2 5171   1.401   4.494   1.016
 1709SOL     OW 5172   1.197   4.247   0.273
 1709SOL    HW1 5173   1.215   4.168   0.332
 1709SOL    HW2 5174   1.157   4.321   0.328
 1710SOL     OW 5175   0.308   3.919   1.246
 1710SOL    HW1 5176   0.269   3.955   1.330
 1710SOL    HW2 5177   0.291   3.821   1.240
 1711SOL     OW 5178   0.097   5.030   1.263
 1711SOL    HW1 5179   0.105   4.968   1.341
 1711SOL    HW2 5180   0.087   5.124   1.296
 1712SOL     OW 5181   0.722   4.353   1.053
 1712SOL    HW1 5182   0.801   4.334   0.995
 1712SOL    HW2 5183   0.689   4.446   1.036
 1713SOL     OW 5184   1.736   4.684   1.856
 1713SOL    HW1 5185   1.693   4.616   1.797
 1713SOL    HW2 5186   1.676   4.704   1.934
 1714SOL     OW 5187   0.311   3.797   0.632
 1714SOL    HW1 5188   0.288   3.892   0.654
 1714SOL    HW2 5189   0.321   3.744   0.716
 1715SOL     OW 5190   1.630   4.107   0.369
 1715SOL    HW1 5191   1.646   4.035   0.436
 1715SOL    HW2 5192   1.603   4.191   0.416
 1716SOL     OW 5193   1.023   4.479   0.958
 1716SOL    HW1 5194   1.019   4.501   1.055
 1716SOL    HW2 5195   0.996   4.383   0.944
 1717SOL     OW 5196   0.983   5.287   1.717
 1717SOL    HW1 5197   0.965   5.335   1.631
 1717SOL    HW2 5198   1.030   5.201   1.699
 1718SOL     OW 5199   1.855   5.227   1.604
 1718SOL    HW1 5200   1.873   5.254   1.509
 1718SOL    HW2 5201   1.938   5.239   1.658
 1719SOL     OW 5202   0.365   4.641   1.798
 1719SOL    HW1 5203   0.443   4.666   1.857
 1719SOL    HW2 5204   0.394   4.573   1.731
 1720SOL     OW 5205   1.491   4.017   0.147
 1720SOL    HW1 5206   1.450   3.926   0.160
 1720SOL    HW2 5207   1.544   4.042   0.228
 1721SOL     OW 5208   1.292   4.544   0.033
 1721SOL    HW1 5209   1.340   4.457   0.023
 1721SOL    HW2 5210   1.318   4.605   6.958
 1722SOL     OW 5211   1.069   5.061   0.854
 1722SOL    HW1 5212   1.074   4.983   0.792
 1722SOL    HW2 5213   1.129   5.135   0.821
 1723SOL     OW 5214   0.321   4.524   0.941
 1723SOL    HW1 5215   0.418   4.550   0.943
 1723SOL    HW2 5216   0.311   4.433   0.981
 1724SOL     OW 5217   0.331   4.244   1.014
 1724SOL    HW1 5218   0.292   4.153   1.000
 1724SOL    HW2 5219   0.410   4.256   0.954
 1725SOL     OW 5220   1.134   4.097   1.692
 1725SOL    HW1 5221   1.081   4.154   1.755
 1725SOL    HW2 5222   1.226   4.134   1.683
 1726SOL     OW 5223   1.161   3.927   1.475
 1726SOL    HW1 5224   1.147   3.990   1.552
 1726SOL    HW2 5225   1.204   3.977   1.400
 1727SOL     OW 5226   6.994   5.022   0.222
 1727SOL    HW1 5227   6.925   5.046   0.290
 1727SOL    HW2 5228   0.025   4.929   0.237
 1728SOL     OW 5229   0.097   5.482   0.949
 1728SOL    HW1 5230   0.075   5.408   0.885
 1728SOL    HW2 5231   0.184   5.524   0.923
 1729SOL     OW 5232   0.493   5.302   0.903
 1729SOL    HW1 5233   0.563   5.368   0.931
 1729SOL    HW2 5234   0.534   5.233   0.843
 1730SOL     OW 5235   0.975   4.517   1.224
 1730SOL    HW1 5236   1.036   4.494   1.300
 1730SOL    HW2 5237   0.885   4.477   1.240
 1731SOL     OW 5238   0.050   4.332   1.106
 1731SOL    HW1 5239   0.125   4.283   1.061
 1731SOL    HW2 5240   0.051   4.311   1.203
 1732SOL     OW 5241   0.210   4.235   1.723
 1732SOL    HW1 5242   0.285   4.189   1.676
 1732SOL    HW2 5243   0.188   4.321   1.676
 1733SOL     OW 5244   1.380   4.659   1.655
 1733SOL    HW1 5245   1.403   4.756   1.656
 1733SOL    HW2 5246   1.377   4.627   1.560
 1734SOL     OW 5247   0.817   4.292   0.371
 1734SOL    HW1 5248   0.826   4.215   0.309
 1734SOL    HW2 5249   0.741   4.350   0.342
 1735SOL     OW 5250   1.643   4.327   1.181
 1735SOL    HW1 5251   1.626   4.268   1.260
 1735SOL    HW2 5252   1.734   4.309   1.145
 1736SOL     OW 5253   0.285   5.284   1.740
 1736SOL    HW1 5254   0.230   5.352   1.789
 1736SOL    HW2 5255   0.266   5.193   1.776
 1737SOL     OW 5256   0.706   4.173   1.254
 1737SOL    HW1 5257   0.652   4.093   1.229
 1737SOL    HW2 5258   0.703   4.240   1.180
 1738SOL     OW 5259   0.921   5.405   1.471
 1738SOL    HW1 5260   0.894   5.359   1.386
 1738SOL    HW2 5261   0.920   5.504   1.457
 1739SOL     OW 5262   0.462   4.220   0.194
 1739SOL    HW1 5263   0.521   4.298   0.213
 1739SOL    HW2 5264   0.366   4.249   0.194
 1740SOL     OW 5265   0.165   4.847   1.469
 1740SOL    HW1 5266   0.154   4.786   1.548
 1740SOL    HW2 5267   0.180   4.793   1.387
 1741SOL     OW 5268   1.316   4.768   1.219
 1741SOL    HW1 5269   1.343   4.700   1.151
 1741SOL    HW2 5270   1.248   4.830   1.179
 1742SOL     OW 5271   1.301   4.569   0.307
 1742SOL    HW1 5272   1.219   4.541   0.357
 1742SOL    HW2 5273   1.289   4.549   0.209
 1743SOL     OW 5274   1.781   5.454   1.157
 1743SOL    HW1 5275   1.842   5.488   1.085
 1743SOL    HW2 5276   1.749   5.362   1.133
 1744SOL     OW 5277   1.241   5.457   1.106
 1744SOL    HW1 5278   1.327   5.486   1.063
 1744SOL    HW2 5279   1.246   5.360   1.129
 1745SOL     OW 5280   0.071   4.969   1.004
 1745SOL    HW1 5281   0.089   4.989   1.101
 1745SOL    HW2 5282   6.973   4.954   0.991
 1746SOL     OW 5283   0.682   5.398   1.737
 1746SOL    HW1 5284   0.617   5.474   1.732
 1746SOL    HW2 5285   0.753   5.410   1.667
 1747SOL     OW 5286   0.938   3.803   0.112
 1747SOL    HW1 5287   1.009   3.857   0.066
 1747SOL    HW2 5288   0.981   3.742   0.178
 1748SOL     OW 5289   1.702   3.875   0.509
 1748SOL    HW1 5290   1.783   3.875   0.450
 1748SOL    HW2 5291   1.692   3.785   0.553
 1749SOL     OW 5292   1.389   5.290   0.491
 1749SOL    HW1 5293   1.455   5.316   0.421
 1749SOL    HW2 5294   1.339   5.371   0.521
 1750SOL     OW 5295   0.140   5.509   1.853
 1750SOL    HW1 5296   0.094   5.436   1.903
 1750SOL    HW2 5297   0.194   5.564   1.916
 1751SOL     OW 5298   1.282   4.648   0.669
 1751SOL    HW1 5299   1.357   4.583   0.683
 1751SOL    HW2 5300   1.316   4.726   0.617
 1752SOL     OW 5301   0.803   5.003   1.426
 1752SOL    HW1 5302   0.775   5.046   1.512
 1752SOL    HW2 5303   0.733   5.018   1.356
 1753SOL     OW 5304   0.674   5.329   0.192
 1753SOL    HW1 5305   0.680   5.375   0.103
 1753SOL    HW2 5306   0.617   5.247   0.183
 1754SOL     OW 5307   1.617   5.452   1.387
 1754SOL    HW1 5308   1.675   5.453   1.306
 1754SOL    HW2 5309   1.603   5.546   1.419
 1755SOL     OW 5310   1.843   3.894   0.963
 1755SOL    HW1 5311   1.876   3.802   0.941
 1755SOL    HW2 5312   1.751   3.905   0.924
 1756SOL     OW 5313   0.261   4.048   0.718
 1756SOL    HW1 5314   0.183   4.106   0.696
 1756SOL    HW2 5315   0.262   4.027   0.816
 1757SOL     OW 5316   1.217   5.319   0.037
 1757SOL    HW1 5317   1.211   5.225   0.070
 1757SOL    HW2 5318   1.130   5.345   6.994
 1758SOL     OW 5319   0.824   4.734   1.378
 1758SOL    HW1 5320   0.873   4.719   1.292
 1758SOL    HW2 5321   0.820   4.832   1.398
 1759SOL     OW 5322   0.923   4.637   0.293
 1759SOL    HW1 5323   0.978   4.666   0.214
 1759SOL    HW2 5324   0.972   4.566   0.343
 1760SOL     OW 5325   1.479   5.395   0.049
 1760SOL    HW1 5326   1.384   5.365   0.042
 1760SOL    HW2 5327   1.523   5.387   6.959
 1761SOL     OW 5328   0.373   5.031   1.485
 1761SOL    HW1 5329   0.359   5.112   1.428
 1761SOL    HW2 5330   0.302   4.963   1.464
 1762SOL     OW 5331   1.613   5.008   1.284
 1762SOL    HW1 5332   1.676   4.989   1.360
 1762SOL    HW2 5333   1.547   5.078   1.313
 1763SOL     OW 5334   1.061   4.830   0.715
 1763SOL    HW1 5335   0.985   4.780   0.755
 1763SOL    HW2 5336   1.129   4.765   0.680
 1764SOL     OW 5337   1.022   3.963   0.967
 1764SOL    HW1 5338   1.018   3.918   0.877
 1764SOL    HW2 5339   1.020   3.893   1.038
 1765SOL     OW 5340   0.611   5.206   0.483
 1765SOL    HW1 5341   0.654   5.154   0.409
 1765SOL    HW2 5342   0.539   5.264   0.446
 1766SOL     OW 5343   1.731   4.118   1.381
 1766SOL    HW1 5344   1.804   4.186   1.381
 1766SOL    HW2 5345   1.757   4.042   1.320
 1767SOL     OW 5346   0.284   5.025   0.332
 1767SOL    HW1 5347   0.198   5.026   0.281
 1767SOL    HW2 5348   0.279   5.090   0.408
 1768SOL     OW 5349   0.121   4.697   1.702
 1768SOL    HW1 5350   0.066   4.748   1.769
 1768SOL    HW2 5351   0.212   4.680   1.740
 1769SOL     OW 5352   0.683   3.919   1.499
 1769SOL    HW1 5353   0.769   3.894   1.456
 1769SOL    HW2 5354   0.701   3.952   1.592
 1770SOL     OW 5355   0.063   4.104   0.020
 1770SOL    HW1 5356   6.972   4.093   6.980
 1770SOL    HW2 5357   0.125   4.143   6.952
 1771SOL     OW 5358   1.423   4.580   1.395
 1771SOL    HW1 5359   1.368   4.644   1.341
 1771SOL    HW2 5360   1.517   4.582   1.361
 1772SOL     OW 5361   0.029   3.913   0.357
 1772SOL    HW1 5362   0.066   4.001   0.326
 1772SOL    HW2 5363   0.104   3.850   0.374
 1773SOL     OW 5364   1.186   5.067   0.130
 1773SOL    HW1 5365   1.089   5.052   0.115
 1773SOL    HW2 5366   1.207   5.059   0.228
 1774SOL     OW 5367   0.624   4.554   1.434
 1774SOL    HW1 5368   0.680   4.636   1.419
 1774SOL    HW2 5369   0.683   4.474   1.443
 1775SOL     OW 5370   1.485   5.513   0.988
 1775SOL    HW1 5371   1.507   5.574   0.912
 1775SOL    HW2 5372   1.569   5.476   1.027
 1776SOL     OW 5373   0.719   4.283   1.703
 1776SOL    HW1 5374   0.765   4.350   1.761
 1776SOL    HW2 5375   0.739   4.191   1.736
 1777SOL     OW 5376   1.474   4.920   1.634
 1777SOL    HW1 5377   1.458   4.933   1.732
 1777SOL    HW2 5378   1.569   4.939   1.613
 1778SOL     OW 5379   0.371   5.469   1.563
 1778SOL    HW1 5380   0.284   5.516   1.548
 1778SOL    HW2 5381   0.356   5.386   1.615
 1779SOL     OW 5382   1.666   4.602   1.256
 1779SOL    HW1 5383   1.661   4.511   1.214
 1779SOL    HW2 5384   1.653   4.672   1.185
 1780SOL     OW 5385   1.222   4.038   0.461
 1780SOL    HW1 5386   1.286   3.962   0.453
 1780SOL    HW2 5387   1.246   4.094   0.540
 1781SOL     OW 5388   0.588   4.459   0.667
 1781SOL    HW1 5389   0.629   4.550   0.661
 1781SOL    HW2 5390   0.519   4.450   0.596
 1782SOL     OW 5391   1.751   4.089   1.652
 1782SOL    HW1 5392   1.741   4.105   1.554
 1782SOL    HW2 5393   1.677   4.029   1.684
 1783SOL     OW 5394   1.752   4.656   1.509
 1783SOL    HW1 5395   1.741   4.753   1.531
 1783SOL    HW2 5396   1.731   4.641   1.413
 1784SOL     OW 5397   0.904   5.107   0.053
 1784SOL    HW1 5398   0.841   5.082   0.127
 1784SOL    HW2 5399   0.906   5.206   0.043
 1785SOL     OW 5400   0.666   5.511   0.941
 1785SOL    HW1 5401   0.644   5.606   0.919
 1785SOL    HW2 5402   0.764   5.495   0.931
 1786SOL     OW 5403   0.869   4.694   0.856
 1786SOL    HW1 5404   0.920   4.616   0.893
 1786SOL    HW2 5405   0.826   4.745   0.932
 1787SOL     OW 5406   1.080   4.707   0.080
 1787SOL    HW1 5407   1.081   4.767   7.000
 1787SOL    HW2 5408   1.159   4.645   0.076
 1788SOL     OW 5409   1.846   5.281   0.846
 1788SOL    HW1 5410   1.769   5.267   0.783
 1788SOL    HW2 5411   1.846   5.209   0.915
 1789SOL     OW 5412   0.242   5.032   1.865
 1789SOL    HW1 5413   0.150   4.999   1.843
 1789SOL    HW2 5414   0.252   5.042   1.964
 1790SOL     OW 5415   0.149   5.000   0.692
 1790SOL    HW1 5416   0.097   4.955   0.765
 1790SOL    HW2 5417   0.183   4.931   0.628
 1791SOL     OW 5418   0.686   5.133   1.635
 1791SOL    HW1 5419   0.604   5.083   1.664
 1791SOL    HW2 5420   0.681   5.226   1.671
 1792SOL     OW 5421   1.805   3.907   1.233
 1792SOL    HW1 5422   1.819   3.811   1.258
 1792SOL    HW2 5423   1.818   3.918   1.135
 1793SOL     OW 5424   0.438   4.152   0.527
 1793SOL    HW1 5425   0.485   4.081   0.476
 1793SOL    HW2 5426   0.399   4.114   0.610
 1794SOL     OW 5427   1.692   5.208   1.095
 1794SOL    HW1 5428   1.612   5.189   1.038
 1794SOL    HW2 5429   1.700   5.136   1.164
 1795SOL     OW 5430   0.331   4.276   1.291
 1795SOL    HW1 5431   0.388   4.220   1.352
 1795SOL    HW2 5432   0.348   4.249   1.197
 1796SOL     OW 5433   0.827   5.303   0.681
 1796SOL    HW1 5434   0.815   5.361   0.600
 1796SOL    HW2 5435   0.750   5.239   0.688
 1797SOL     OW 5436   1.430   3.955   1.117
 1797SOL    HW1 5437   1.452   3.864   1.153
 1797SOL    HW2 5438   1.376   4.006   1.183
 1798SOL     OW 5439   1.010   3.740   1.138
 1798SOL    HW1 5440   0.946   3.676   1.095
 1798SOL    HW2 5441   1.101   3.700   1.139
 1799SOL     OW 5442   0.781   5.043   0.310
 1799SOL    HW1 5443   0.749   4.951   0.329
 1799SOL    HW2 5444   0.860   5.064   0.368
 1800SOL     OW 5445   0.626   5.283   1.289
 1800SOL    HW1 5446   0.623   5.369   1.339
 1800SOL    HW2 5447   0.716   5.271   1.249
 1801SOL     OW 5448   1.361   3.768   0.181
 1801SOL    HW1 5449   1.404   3.705   0.116
 1801SOL    HW2 5450   1.267   3.738   0.197
 1802SOL     OW 5451   1.289   4.187   0.680
 1802SOL    HW1 5452   1.238   4.273   0.683
 1802SOL    HW2 5453   1.288   4.145   0.771
 1803SOL     OW 5454   1.587   3.928   0.884
 1803SOL    HW1 5455   1.528   3.947   0.963
 1803SOL    HW2 5456   1.588   4.008   0.824
 1804SOL     OW 5457   0.075   4.777   0.311
 1804SOL    HW1 5458   0.166   4.736   0.300
 1804SOL    HW2 5459   0.006   4.705   0.312
 1805SOL     OW 5460   0.890   5.387   0.353
 1805SOL    HW1 5461   0.814   5.359   0.293
 1805SOL    HW2 5462   0.861   5.466   0.407
 1806SOL     OW 5463   0.184   4.376   1.983
 1806SOL    HW1 5464   0.175   4.310   2.058
 1806SOL    HW2 5465   0.226   4.331   1.904
 1807SOL     OW 5466   0.231   3.995   2.850
 1807SOL    HW1 5467   0.282   3.963   2.929
 1807SOL    HW2 5468   0.133   3.979   2.864
 1808SOL     OW 5469   6.990   4.109   2.515
 1808SOL    HW1 5470   6.942   4.105   2.603
 1808SOL    HW2 5471   0.012   4.016   2.485
 1809SOL     OW 5472   0.569   5.021   3.048
 1809SOL    HW1 5473   0.479   5.018   3.005
 1809SOL    HW2 5474   0.587   5.113   3.083
 1810SOL     OW 5475   1.565   5.237   2.570
 1810SOL    HW1 5476   1.522   5.213   2.657
 1810SOL    HW2 5477   1.494   5.244   2.499
 1811SOL     OW 5478   1.133   4.426   2.557
 1811SOL    HW1 5479   1.185   4.511   2.540
 1811SOL    HW2 5480   1.083   4.434   2.643
 1812SOL     OW 5481   1.770   4.323   2.085
 1812SOL    HW1 5482   1.746   4.319   1.988
 1812SOL    HW2 5483   1.732   4.244   2.132
 1813SOL     OW 5484   0.743   4.865   2.903
 1813SOL    HW1 5485   0.675   4.899   2.967
 1813SOL    HW2 5486   0.788   4.942   2.857
 1814SOL     OW 5487   0.873   4.490   3.683
 1814SOL    HW1 5488   0.863   4.558   3.755
 1814SOL    HW2 5489   0.898   4.535   3.597
 1815SOL     OW 5490   0.683   4.724   2.512
 1815SOL    HW1 5491   0.755   4.714   2.581
 1815SOL    HW2 5492   0.608   4.779   2.550
 1816SOL     OW 5493   0.713   4.877   3.681
 1816SOL    HW1 5494   0.765   4.955   3.714
 1816SOL    HW2 5495   0.628   4.908   3.638
 1817SOL     OW 5496   0.333   5.144   2.927
 1817SOL    HW1 5497   0.254   5.105   2.879
 1817SOL    HW2 5498   0.385   5.202   2.863
 1818SOL     OW 5499   1.458   5.225   3.220
 1818SOL    HW1 5500   1.515   5.307   3.227
 1818SOL    HW2 5501   1.387   5.228   3.290
 1819SOL     OW 5502   0.442   4.119   3.356
 1819SOL    HW1 5503   0.525   4.062   3.356
 1819SOL    HW2 5504   0.362   4.060   3.363
 1820SOL     OW 5505   1.610   4.170   2.607
 1820SOL    HW1 5506   1.535   4.188   2.544
 1820SOL    HW2 5507   1.617   4.245   2.672
 1821SOL     OW 5508   0.226   5.434   2.328
 1821SOL    HW1 5509   0.241   5.513   2.387
 1821SOL    HW2 5510   0.297   5.431   2.258
 1822SOL     OW 5511   1.137   5.064   3.559
 1822SOL    HW1 5512   1.183   5.062   3.648
 1822SOL    HW2 5513   1.081   4.981   3.549
 1823SOL     OW 5514   0.277   5.167   2.382
 1823SOL    HW1 5515   0.253   5.264   2.388
 1823SOL    HW2 5516   0.227   5.116   2.452
 1824SOL     OW 5517   0.270   4.806   2.769
 1824SOL    HW1 5518   0.266   4.711   2.798
 1824SOL    HW2 5519   0.198   4.858   2.815
 1825SOL     OW 5520   0.602   5.520   3.289
 1825SOL    HW1 5521   0.516   5.497   3.336
 1825SOL    HW2 5522   0.631   5.612   3.317
 1826SOL     OW 5523   0.581   4.712   2.003
 1826SOL    HW1 5524   0.629   4.759   1.929
 1826SOL    HW2 5525   0.620   4.739   2.091
 1827SOL     OW 5526   1.584   3.863   3.259
 1827SOL    HW1 5527   1.611   3.954   3.228
 1827SOL    HW2 5528   1.547   3.868   3.351
 1828SOL     OW 5529   0.132   4.339   2.436
 1828SOL    HW1 5530   0.064   4.270   2.460
 1828SOL    HW2 5531   0.121   4.418   2.498
 1829SOL     OW 5532   1.846   5.480   2.194
 1829SOL    HW1 5533   1.916   5.449   2.259
 1829SOL    HW2 5534   1.862   5.575   2.171
 1830SOL     OW 5535   0.036   5.316   2.009
 1830SOL    HW1 5536   0.026   5.218   2.022
 1830SOL    HW2 5537   6.960   5.363   2.055
 1831SOL     OW 5538   1.691   4.645   2.509
 1831SOL    HW1 5539   1.775   4.594   2.491
 1831SOL    HW2 5540   1.667   4.699   2.428
 1832SOL     OW 5541   1.652   4.829   2.294
 1832SOL    HW1 5542   1.741   4.826   2.248
 1832SOL    HW2 5543   1.655   4.896   2.368
 1833SOL     OW 5544   0.146   4.455   3.442
 1833SOL    HW1 5545   0.245   4.462   3.426
 1833SOL    HW2 5546   0.111   4.543   3.474
 1834SOL     OW 5547   0.612   5.114   2.597
 1834SOL    HW1 5548   0.565   5.027   2.610
 1834SOL    HW2 5549   0.599   5.145   2.502
 1835SOL     OW 5550   1.288   4.959   3.284
 1835SOL    HW1 5551   1.316   4.888   3.218
 1835SOL    HW2 5552   1.348   4.955   3.364
 1836SOL     OW 5553   0.817   3.733   2.369
 1836SOL    HW1 5554   0.862   3.819   2.347
 1836SOL    HW2 5555   0.718   3.749   2.378
 1837SOL     OW 5556   0.205   4.685   3.124
 1837SOL    HW1 5557   0.288   4.632   3.108
 1837SOL    HW2 5558   0.133   4.654   3.062
 1838SOL     OW 5559   1.532   4.724   2.066
 1838SOL    HW1 5560   1.458   4.664   2.095
 1838SOL    HW2 5561   1.579   4.762   2.146
 1839SOL     OW 5562   1.183   5.536   3.484
 1839SOL    HW1 5563   1.190   5.604   3.411
 1839SOL    HW2 5564   1.202   5.445   3.447
 1840SOL     OW 5565   0.348   3.983   3.695
 1840SOL    HW1 5566   0.397   4.065   3.724
 1840SOL    HW2 5567   0.252   3.992   3.720
 1841SOL     OW 5568   1.465   5.144   2.809
 1841SOL    HW1 5569   1.398   5.163   2.881
 1841SOL    HW2 5570   1.457   5.048   2.781
 1842SOL     OW 5571   1.650   5.473   2.438
 1842SOL    HW1 5572   1.632   5.444   2.344
 1842SOL    HW2 5573   1.629   5.398   2.500
 1843SOL     OW 5574   0.589   4.441   2.128
 1843SOL    HW1 5575   0.599   4.528   2.081
 1843SOL    HW2 5576   0.525   4.450   2.204
 1844SOL     OW 5577   1.278   4.081   2.796
 1844SOL    HW1 5578   1.184   4.047   2.803
 1844SOL    HW2 5579   1.337   4.028   2.857
 1845SOL     OW 5580   1.583   5.397   2.170
 1845SOL    HW1 5581   1.679   5.424   2.166
 1845SOL    HW2 5582   1.550   5.380   2.077
 1846SOL     OW 5583   0.793   4.336   3.312
 1846SOL    HW1 5584   0.765   4.314   3.405
 1846SOL    HW2 5585   0.753   4.270   3.249
 1847SOL     OW 5586   1.398   4.199   3.547
 1847SOL    HW1 5587   1.386   4.247   3.634
 1847SOL    HW2 5588   1.483   4.147   3.548
 1848SOL     OW 5589   0.953   4.609   3.445
 1848SOL    HW1 5590   1.010   4.537   3.407
 1848SOL    HW2 5591   0.899   4.651   3.372
 1849SOL     OW 5592   0.998   4.141   3.083
 1849SOL    HW1 5593   0.911   4.155   3.131
 1849SOL    HW2 5594   0.984   4.077   3.007
 1850SOL     OW 5595   1.050   4.423   2.287
 1850SOL    HW1 5596   1.072   4.418   2.384
 1850SOL    HW2 5597   0.963   4.375   2.270
 1851SOL     OW 5598   0.101   4.542   2.637
 1851SOL    HW1 5599   0.194   4.532   2.672
 1851SOL    HW2 5600   0.041   4.575   2.710
 1852SOL     OW 5601   0.120   5.594   3.453
 1852SOL    HW1 5602   0.131   5.568   3.549
 1852SOL    HW2 5603   0.030   5.566   3.421
 1853SOL     OW 5604   0.896   4.077   2.059
 1853SOL    HW1 5605   0.936   4.144   1.997
 1853SOL    HW2 5606   0.903   3.985   2.018
 1854SOL     OW 5607   1.707   4.302   3.689
 1854SOL    HW1 5608   1.669   4.382   3.642
 1854SOL    HW2 5609   1.722   4.229   3.622
 1855SOL     OW 5610   1.380   4.867   2.396
 1855SOL    HW1 5611   1.464   4.852   2.345
 1855SOL    HW2 5612   1.323   4.934   2.348
 1856SOL     OW 5613   0.550   3.900   2.761
 1856SOL    HW1 5614   0.556   3.928   2.857
 1856SOL    HW2 5615   0.555   3.980   2.702
 1857SOL     OW 5616   0.995   5.167   2.326
 1857SOL    HW1 5617   0.963   5.247   2.276
 1857SOL    HW2 5618   0.978   5.180   2.424
 1858SOL     OW 5619   0.357   5.543   2.729
 1858SOL    HW1 5620   0.397   5.452   2.740
 1858SOL    HW2 5621   0.426   5.612   2.750
 1859SOL     OW 5622   1.798   4.781   2.734
 1859SOL    HW1 5623   1.747   4.757   2.651
 1859SOL    HW2 5624   1.735   4.786   2.811
 1860SOL     OW 5625   1.227   5.260   3.376
 1860SOL    HW1 5626   1.214   5.186   3.442
 1860SOL    HW2 5627   1.158   5.253   3.304
 1861SOL     OW 5628   0.318   4.669   2.113
 1861SOL    HW1 5629   0.405   4.695   2.071
 1861SOL    HW2 5630   0.287   4.582   2.075
 1862SOL     OW 5631   1.483   4.474   2.584
 1862SOL    HW1 5632   1.476   4.429   2.673
 1862SOL    HW2 5633   1.564   4.533   2.583
 1863SOL     OW 5634   0.472   4.985   3.590
 1863SOL    HW1 5635   0.445   4.995   3.494
 1863SOL    HW2 5636   0.391   4.986   3.648
 1864SOL     OW 5637   1.122   5.500   2.089
 1864SOL    HW1 5638   1.043   5.462   2.137
 1864SOL    HW2 5639   1.151   5.436   2.018
 1865SOL     OW 5640   0.196   3.992   3.351
 1865SOL    HW1 5641   0.113   4.046   3.335
 1865SOL    HW2 5642   0.172   3.908   3.400
 1866SOL     OW 5643   1.625   5.106   1.950
 1866SOL    HW1 5644   1.586   5.197   1.935
 1866SOL    HW2 5645   1.555   5.037   1.932
 1867SOL     OW 5646   0.468   5.458   2.179
 1867SOL    HW1 5647   0.509   5.520   2.247
 1867SOL    HW2 5648   0.540   5.422   2.119
 1868SOL     OW 5649   1.401   3.828   2.298
 1868SOL    HW1 5650   1.389   3.803   2.202
 1868SOL    HW2 5651   1.499   3.837   2.318
 1869SOL     OW 5652   0.258   5.518   3.085
 1869SOL    HW1 5653   0.309   5.444   3.129
 1869SOL    HW2 5654   0.214   5.483   3.002
 1870SOL     OW 5655   0.936   5.426   2.758
 1870SOL    HW1 5656   1.018   5.379   2.790
 1870SOL    HW2 5657   0.894   5.374   2.684
 1871SOL     OW 5658   0.401   4.407   2.336
 1871SOL    HW1 5659   0.429   4.313   2.356
 1871SOL    HW2 5660   0.303   4.418   2.356
 1872SOL     OW 5661   0.642   3.840   1.964
 1872SOL    HW1 5662   0.710   3.770   1.985
 1872SOL    HW2 5663   0.585   3.809   1.888
 1873SOL     OW 5664   0.742   4.015   3.620
 1873SOL    HW1 5665   0.833   3.976   3.626
 1873SOL    HW2 5666   0.688   3.986   3.700
 1874SOL     OW 5667   0.876   5.240   3.054
 1874SOL    HW1 5668   0.856   5.203   2.963
 1874SOL    HW2 5669   0.948   5.185   3.096
 1875SOL     OW 5670   1.341   4.314   3.300
 1875SOL    HW1 5671   1.370   4.281   3.390
 1875SOL    HW2 5672   1.375   4.407   3.286
 1876SOL     OW 5673   0.820   5.113   2.803
 1876SOL    HW1 5674   0.910   5.102   2.760
 1876SOL    HW2 5675   0.750   5.119   2.732
 1877SOL     OW 5676   0.927   4.233   2.760
 1877SOL    HW1 5677   0.901   4.223   2.664
 1877SOL    HW2 5678   0.958   4.145   2.795
 1878SOL     OW 5679   0.546   3.787   2.358
 1878SOL    HW1 5680   0.464   3.784   2.415
 1878SOL    HW2 5681   0.542   3.868   2.298
 1879SOL     OW 5682   1.426   4.923   1.905
 1879SOL    HW1 5683   1.459   4.845   1.958
 1879SOL    HW2 5684   1.337   4.952   1.941
 1880SOL     OW 5685   0.292   3.766   2.050
 1880SOL    HW1 5686   0.341   3.847   2.016
 1880SOL    HW2 5687   0.357   3.701   2.088
 1881SOL     OW 5688   0.946   3.975   2.318
 1881SOL    HW1 5689   0.915   4.016   2.233
 1881SOL    HW2 5690   1.045   3.988   2.328
 1882SOL     OW 5691   1.079   4.407   3.317
 1882SOL    HW1 5692   1.002   4.343   3.321
 1882SOL    HW2 5693   1.165   4.356   3.313
 1883SOL     OW 5694   1.220   5.293   2.656
 1883SOL    HW1 5695   1.234   5.363   2.586
 1883SOL    HW2 5696   1.291   5.302   2.726
 1884SOL     OW 5697   0.467   4.874   2.595
 1884SOL    HW1 5698   0.401   4.853   2.667
 1884SOL    HW2 5699   0.424   4.861   2.505
 1885SOL     OW 5700   1.263   5.516   2.472
 1885SOL    HW1 5701   1.315   5.578   2.413
 1885SOL    HW2 5702   1.190   5.566   2.518
 1886SOL     OW 5703   1.021   4.260   1.891
 1886SOL    HW1 5704   0.976   4.346   1.868
 1886SOL    HW2 5705   1.090   4.277   1.961
 1887SOL     OW 5706   0.074   4.275   3.238
 1887SOL    HW1 5707   0.169   4.267   3.209
 1887SOL    HW2 5708   0.066   4.343   3.310
 1888SOL     OW 5709   0.565   3.948   3.031
 1888SOL    HW1 5710   0.619   3.876   3.074
 1888SOL    HW2 5711   0.471   3.944   3.064
 1889SOL     OW 5712   0.866   4.182   2.499
 1889SOL    HW1 5713   0.816   4.243   2.438
 1889SOL    HW2 5714   0.894   4.100   2.449
 1890SOL     OW 5715   1.018   3.776   2.607
 1890SOL    HW1 5716   0.957   3.777   2.528
 1890SOL    HW2 5717   0.993   3.701   2.668
 1891SOL     OW 5718   1.445   4.885   2.720
 1891SOL    HW1 5719   1.369   4.820   2.724
 1891SOL    HW2 5720   1.474   4.896   2.625
 1892SOL     OW 5721   1.467   4.332   2.831
 1892SOL    HW1 5722   1.405   4.253   2.832
 1892SOL    HW2 5723   1.528   4.326   2.910
 1893SOL     OW 5724   1.842   4.533   2.242
 1893SOL    HW1 5725   1.900   4.485   2.307
 1893SOL    HW2 5726   1.813   4.469   2.171
 1894SOL     OW 5727   0.496   5.145   2.015
 1894SOL    HW1 5728   0.414   5.119   2.067
 1894SOL    HW2 5729   0.485   5.115   1.920
 1895SOL     OW 5730   1.675   4.991   2.505
 1895SOL    HW1 5731   1.774   4.989   2.517
 1895SOL    HW2 5732   1.641   5.083   2.526
 1896SOL     OW 5733   1.390   4.298   1.933
 1896SOL    HW1 5734   1.327   4.276   2.007
 1896SOL    HW2 5735   1.483   4.272   1.958
 1897SOL     OW 5736   0.530   3.986   2.172
 1897SOL    HW1 5737   0.578   3.931   2.103
 1897SOL    HW2 5738   0.502   4.073   2.132
 1898SOL     OW 5739   1.753   4.965   3.423
 1898SOL    HW1 5740   1.843   4.923   3.410
 1898SOL    HW2 5741   1.764   5.058   3.457
 1899SOL     OW 5742   1.053   5.074   3.197
 1899SOL    HW1 5743   0.972   5.044   3.248
 1899SOL    HW2 5744   1.135   5.034   3.240
 1900SOL     OW 5745   1.614   5.353   3.519
 1900SOL    HW1 5746   1.598   5.389   3.427
 1900SOL    HW2 5747   1.700   5.302   3.521
 1901SOL     OW 5748   1.137   4.943   2.967
 1901SOL    HW1 5749   1.077   4.977   3.039
 1901SOL    HW2 5750   1.103   4.973   2.878
 1902SOL     OW 5751   1.624   4.821   2.941
 1902SOL    HW1 5752   1.620   4.886   3.017
 1902SOL    HW2 5753   1.548   4.837   2.879
 1903SOL     OW 5754   0.903   3.856   3.234
 1903SOL    HW1 5755   0.930   3.804   3.153
 1903SOL    HW2 5756   0.984   3.897   3.276
 1904SOL     OW 5757   0.980   4.838   3.583
 1904SOL    HW1 5758   0.886   4.858   3.610
 1904SOL    HW2 5759   0.982   4.756   3.527
 1905SOL     OW 5760   0.711   4.781   2.236
 1905SOL    HW1 5761   0.695   4.765   2.333
 1905SOL    HW2 5762   0.790   4.728   2.206
 1906SOL     OW 5763   0.429   4.529   3.111
 1906SOL    HW1 5764   0.499   4.545   3.180
 1906SOL    HW2 5765   0.387   4.440   3.126
 1907SOL     OW 5766   1.267   4.113   3.132
 1907SOL    HW1 5767   1.302   4.190   3.185
 1907SOL    HW2 5768   1.173   4.131   3.105
 1908SOL     OW 5769   0.068   5.289   3.180
 1908SOL    HW1 5770   0.018   5.374   3.197
 1908SOL    HW2 5771   0.165   5.303   3.201
 1909SOL     OW 5772   0.340   4.840   2.354
 1909SOL    HW1 5773   0.351   4.920   2.294
 1909SOL    HW2 5774   0.339   4.757   2.299
 1910SOL     OW 5775   0.549   4.266   2.725
 1910SOL    HW1 5776   0.563   4.326   2.645
 1910SOL    HW2 5777   0.617   4.287   2.794
 1911SOL     OW 5778   1.246   5.078   2.254
 1911SOL    HW1 5779   1.307   5.151   2.285
 1911SOL    HW2 5780   1.153   5.098   2.285
 1912SOL     OW 5781   1.288   5.186   3.009
 1912SOL    HW1 5782   1.346   5.191   3.090
 1912SOL    HW2 5783   1.233   5.102   3.013
 1913SOL     OW 5784   1.577   4.345   2.344
 1913SOL    HW1 5785   1.526   4.392   2.416
 1913SOL    HW2 5786   1.624   4.412   2.287
 1914SOL     OW 5787   0.351   5.257   3.171
 1914SOL    HW1 5788   0.332   5.210   3.085
 1914SOL    HW2 5789   0.450   5.270   3.181
 1915SOL     OW 5790   0.424   4.458   3.460
 1915SOL    HW1 5791   0.485   4.511   3.400
 1915SOL    HW2 5792   0.468   4.372   3.484
 1916SOL     OW 5793   1.607   4.510   3.546
 1916SOL    HW1 5794   1.517   4.552   3.544
 1916SOL    HW2 5795   1.665   4.550   3.475
 1917SOL     OW 5796   0.982   3.902   3.659
 1917SOL    HW1 5797   1.046   3.969   3.621
 1917SOL    HW2 5798   1.013   3.810   3.636
 1918SOL     OW 5799   0.483   3.769   3.612
 1918SOL    HW1 5800   0.440   3.715   3.540
 1918SOL    HW2 5801   0.427   3.850   3.631
 1919SOL     OW 5802   0.588   4.595   2.895
 1919SOL    HW1 5803   0.620   4.690   2.892
 1919SOL    HW2 5804   0.528   4.583   2.974
 1920SOL     OW 5805   1.351   4.581   2.886
 1920SOL    HW1 5806   1.260   4.573   2.846
 1920SOL    HW2 5807   1.400   4.494   2.877
 1921SOL     OW 5808   1.197   4.251   2.126
 1921SOL    HW1 5809   1.210   4.168   2.181
 1921SOL    HW2 5810   1.153   4.321   2.182
 1922SOL     OW 5811   0.308   3.918   3.108
 1922SOL    HW1 5812   0.270   3.955   3.192
 1922SOL    HW2 5813   0.290   3.819   3.103
 1923SOL     OW 5814   0.097   5.030   3.125
 1923SOL    HW1 5815   0.105   4.968   3.202
 1923SOL    HW2 5816   0.087   5.124   3.158
 1924SOL     OW 5817   0.725   4.354   2.917
 1924SOL    HW1 5818   0.802   4.334   2.857
 1924SOL    HW2 5819   0.692   4.447   2.897
 1925SOL     OW 5820   1.736   4.684   3.718
 1925SOL    HW1 5821   1.692   4.616   3.659
 1925SOL    HW2 5822   1.677   4.704   3.796
 1926SOL     OW 5823   0.301   3.784   2.487
 1926SOL    HW1 5824   0.282   3.881   2.505
 1926SOL    HW2 5825   0.314   3.736   2.574
 1927SOL     OW 5826   1.627   4.105   2.224
 1927SOL    HW1 5827   1.653   4.031   2.287
 1927SOL    HW2 5828   1.599   4.185   2.277
 1928SOL     OW 5829   1.024   4.480   2.820
 1928SOL    HW1 5830   1.019   4.502   2.918
 1928SOL    HW2 5831   0.997   4.385   2.806
 1929SOL     OW 5832   0.983   5.288   3.579
 1929SOL    HW1 5833   0.965   5.335   3.493
 1929SOL    HW2 5834   1.030   5.201   3.561
 1930SOL     OW 5835   1.855   5.227   3.466
 1930SOL    HW1 5836   1.873   5.254   3.371
 1930SOL    HW2 5837   1.938   5.239   3.520
 1931SOL     OW 5838   0.365   4.641   3.660
 1931SOL    HW1 5839   0.443   4.665   3.718
 1931SOL    HW2 5840   0.394   4.572   3.593
 1932SOL     OW 5841   1.527   3.993   1.992
 1932SOL    HW1 5842   1.458   3.925   2.017
 1932SOL    HW2 5843   1.564   4.035   2.075
 1933SOL     OW 5844   1.289   4.550   1.888
 1933SOL    HW1 5845   1.330   4.459   1.897
 1933SOL    HW2 5846   1.320   4.592   1.803
 1934SOL     OW 5847   1.070   5.061   2.716
 1934SOL    HW1 5848   1.074   4.984   2.654
 1934SOL    HW2 5849   1.129   5.135   2.682
 1935SOL     OW 5850   0.321   4.525   2.802
 1935SOL    HW1 5851   0.418   4.550   2.803
 1935SOL    HW2 5852   0.310   4.434   2.841
 1936SOL     OW 5853   0.328   4.245   2.875
 1936SOL    HW1 5854   0.290   4.153   2.861
 1936SOL    HW2 5855   0.409   4.257   2.817
 1937SOL     OW 5856   1.137   4.108   3.559
 1937SOL    HW1 5857   1.088   4.167   3.623
 1937SOL    HW2 5858   1.233   4.137   3.553
 1938SOL     OW 5859   1.130   3.969   3.325
 1938SOL    HW1 5860   1.133   4.024   3.409
 1938SOL    HW2 5861   1.189   4.012   3.256
 1939SOL     OW 5862   6.991   5.046   2.080
 1939SOL    HW1 5863   6.919   5.071   2.144
 1939SOL    HW2 5864   0.021   4.952   2.097
 1940SOL     OW 5865   0.097   5.481   2.811
 1940SOL    HW1 5866   0.077   5.407   2.747
 1940SOL    HW2 5867   0.183   5.524   2.785
 1941SOL     OW 5868   0.494   5.302   2.766
 1941SOL    HW1 5869   0.563   5.369   2.793
 1941SOL    HW2 5870   0.534   5.234   2.705
 1942SOL     OW 5871   0.975   4.518   3.086
 1942SOL    HW1 5872   1.034   4.494   3.163
 1942SOL    HW2 5873   0.886   4.473   3.098
 1943SOL     OW 5874   0.050   4.332   2.968
 1943SOL    HW1 5875   0.126   4.285   2.923
 1943SOL    HW2 5876   0.051   4.311   3.066
 1944SOL     OW 5877   0.209   4.236   3.585
 1944SOL    HW1 5878   0.284   4.189   3.538
 1944SOL    HW2 5879   0.188   4.322   3.538
 1945SOL     OW 5880   1.380   4.659   3.517
 1945SOL    HW1 5881   1.403   4.756   3.518
 1945SOL    HW2 5882   1.376   4.627   3.422
 1946SOL     OW 5883   0.816   4.297   2.220
 1946SOL    HW1 5884   0.827   4.216   2.162
 1946SOL    HW2 5885   0.737   4.350   2.189
 1947SOL     OW 5886   1.643   4.329   3.042
 1947SOL    HW1 5887   1.625   4.268   3.119
 1947SOL    HW2 5888   1.734   4.311   3.006
 1948SOL     OW 5889   0.285   5.284   3.602
 1948SOL    HW1 5890   0.230   5.352   3.651
 1948SOL    HW2 5891   0.266   5.193   3.638
 1949SOL     OW 5892   0.702   4.175   3.117
 1949SOL    HW1 5893   0.650   4.094   3.090
 1949SOL    HW2 5894   0.702   4.241   3.042
 1950SOL     OW 5895   0.922   5.405   3.333
 1950SOL    HW1 5896   0.894   5.358   3.248
 1950SOL    HW2 5897   0.920   5.504   3.319
 1951SOL     OW 5898   0.454   4.212   2.044
 1951SOL    HW1 5899   0.511   4.293   2.061
 1951SOL    HW2 5900   0.368   4.220   2.095
 1952SOL     OW 5901   0.165   4.847   3.331
 1952SOL    HW1 5902   0.154   4.786   3.410
 1952SOL    HW2 5903   0.180   4.793   3.249
 1953SOL     OW 5904   1.316   4.767   3.081
 1953SOL    HW1 5905   1.343   4.700   3.012
 1953SOL    HW2 5906   1.248   4.830   3.041
 1954SOL     OW 5907   1.316   4.581   2.161
 1954SOL    HW1 5908   1.240   4.553   2.220
 1954SOL    HW2 5909   1.290   4.568   2.065
 1955SOL     OW 5910   1.780   5.453   3.018
 1955SOL    HW1 5911   1.841   5.488   2.947
 1955SOL    HW2 5912   1.749   5.362   2.994
 1956SOL     OW 5913   1.241   5.457   2.967
 1956SOL    HW1 5914   1.327   5.486   2.924
 1956SOL    HW2 5915   1.247   5.360   2.991
 1957SOL     OW 5916   0.071   4.969   2.867
 1957SOL    HW1 5917   0.088   4.989   2.963
 1957SOL    HW2 5918   6.973   4.955   2.853
 1958SOL     OW 5919   0.682   5.398   3.599
 1958SOL    HW1 5920   0.617   5.474   3.594
 1958SOL    HW2 5921   0.752   5.410   3.529
 1959SOL     OW 5922   1.720   3.874   2.361
 1959SOL    HW1 5923   1.795   3.863   2.296
 1959SOL    HW2 5924   1.702   3.786   2.406
 1960SOL     OW 5925   1.395   5.294   2.349
 1960SOL    HW1 5926   1.458   5.326   2.278
 1960SOL    HW2 5927   1.340   5.371   2.382
 1961SOL     OW 5928   0.139   5.509   3.715
 1961SOL    HW1 5929   0.094   5.436   3.765
 1961SOL    HW2 5930   0.194   5.564   3.778
 1962SOL     OW 5931   1.282   4.652   2.528
 1962SOL    HW1 5932   1.357   4.588   2.543
 1962SOL    HW2 5933   1.315   4.729   2.473
 1963SOL     OW 5934   0.803   5.003   3.288
 1963SOL    HW1 5935   0.775   5.046   3.373
 1963SOL    HW2 5936   0.733   5.018   3.218
 1964SOL     OW 5937   0.672   5.347   2.016
 1964SOL    HW1 5938   0.687   5.366   1.918
 1964SOL    HW2 5939   0.615   5.266   2.025
 1965SOL     OW 5940   1.617   5.452   3.249
 1965SOL    HW1 5941   1.674   5.453   3.167
 1965SOL    HW2 5942   1.603   5.546   3.281
 1966SOL     OW 5943   1.843   3.892   2.825
 1966SOL    HW1 5944   1.877   3.800   2.801
 1966SOL    HW2 5945   1.752   3.905   2.787
 1967SOL     OW 5946   0.263   4.040   2.576
 1967SOL    HW1 5947   0.188   4.103   2.556
 1967SOL    HW2 5948   0.265   4.020   2.674
 1968SOL     OW 5949   1.209   5.325   1.895
 1968SOL    HW1 5950   1.199   5.231   1.928
 1968SOL    HW2 5951   1.141   5.342   1.823
 1969SOL     OW 5952   0.823   4.734   3.241
 1969SOL    HW1 5953   0.873   4.718   3.155
 1969SOL    HW2 5954   0.820   4.832   3.259
 1970SOL     OW 5955   0.919   4.634   2.149
 1970SOL    HW1 5956   0.980   4.670   2.078
 1970SOL    HW2 5957   0.966   4.563   2.201
 1971SOL     OW 5958   1.488   5.354   1.904
 1971SOL    HW1 5959   1.390   5.343   1.893
 1971SOL    HW2 5960   1.532   5.359   1.814
 1972SOL     OW 5961   0.372   5.031   3.347
 1972SOL    HW1 5962   0.359   5.112   3.290
 1972SOL    HW2 5963   0.302   4.963   3.326
 1973SOL     OW 5964   1.614   5.009   3.146
 1973SOL    HW1 5965   1.676   4.989   3.222
 1973SOL    HW2 5966   1.547   5.078   3.175
 1974SOL     OW 5967   1.061   4.830   2.576
 1974SOL    HW1 5968   0.985   4.780   2.617
 1974SOL    HW2 5969   1.130   4.765   2.543
 1975SOL     OW 5970   1.023   3.961   2.830
 1975SOL    HW1 5971   1.019   3.918   2.740
 1975SOL    HW2 5972   1.019   3.891   2.901
 1976SOL     OW 5973   0.607   5.211   2.343
 1976SOL    HW1 5974   0.658   5.157   2.275
 1976SOL    HW2 5975   0.529   5.255   2.299
 1977SOL     OW 5976   1.734   4.116   3.240
 1977SOL    HW1 5977   1.801   4.190   3.246
 1977SOL    HW2 5978   1.768   4.045   3.180
 1978SOL     OW 5979   0.256   5.075   2.136
 1978SOL    HW1 5980   0.158   5.075   2.119
 1978SOL    HW2 5981   0.274   5.111   2.227
 1979SOL     OW 5982   0.121   4.698   3.564
 1979SOL    HW1 5983   0.066   4.748   3.631
 1979SOL    HW2 5984   0.212   4.680   3.602
 1980SOL     OW 5985   0.671   3.923   3.363
 1980SOL    HW1 5986   0.756   3.906   3.313
 1980SOL    HW2 5987   0.692   3.955   3.455
 1981SOL     OW 5988   0.100   4.040   1.899
 1981SOL    HW1 5989   0.003   4.016   1.899
 1981SOL    HW2 5990   0.112   4.127   1.850
 1982SOL     OW 5991   1.423   4.580   3.257
 1982SOL    HW1 5992   1.368   4.644   3.203
 1982SOL    HW2 5993   1.517   4.582   3.223
 1983SOL     OW 5994   0.077   3.912   2.203
 1983SOL    HW1 5995   0.021   3.903   2.120
 1983SOL    HW2 5996   0.153   3.848   2.199
 1984SOL     OW 5997   1.180   5.061   1.982
 1984SOL    HW1 5998   1.084   5.034   1.975
 1984SOL    HW2 5999   1.207   5.062   2.078
 1985SOL     OW 6000   0.625   4.553   3.296
 1985SOL    HW1 6001   0.680   4.635   3.281
 1985SOL    HW2 6002   0.684   4.473   3.305
 1986SOL     OW 6003   1.485   5.512   2.850
 1986SOL    HW1 6004   1.506   5.574   2.774
 1986SOL    HW2 6005   1.571   5.478   2.889
 1987SOL     OW 6006   0.714   4.289   3.564
 1987SOL    HW1 6007   0.763   4.352   3.623
 1987SOL    HW2 6008   0.728   4.196   3.595
 1988SOL     OW 6009   1.474   4.920   3.497
 1988SOL    HW1 6010   1.458   4.933   3.594
 1988SOL    HW2 6011   1.569   4.939   3.475
 1989SOL     OW 6012   0.371   5.469   3.425
 1989SOL    HW1 6013   0.284   5.516   3.410
 1989SOL    HW2 6014   0.355   5.386   3.477
 1990SOL     OW 6015   1.666   4.602   3.118
 1990SOL    HW1 6016   1.660   4.512   3.076
 1990SOL    HW2 6017   1.653   4.672   3.047
 1991SOL     OW 6018   1.220   4.041   2.322
 1991SOL    HW1 6019   1.283   3.964   2.312
 1991SOL    HW2 6020   1.246   4.096   2.401
 1992SOL     OW 6021   0.588   4.461   2.532
 1992SOL    HW1 6022   0.629   4.552   2.523
 1992SOL    HW2 6023   0.520   4.448   2.460
 1993SOL     OW 6024   1.724   4.098   3.512
 1993SOL    HW1 6025   1.725   4.105   3.413
 1993SOL    HW2 6026   1.718   4.002   3.539
 1994SOL     OW 6027   1.752   4.656   3.371
 1994SOL    HW1 6028   1.741   4.753   3.393
 1994SOL    HW2 6029   1.731   4.641   3.275
 1995SOL     OW 6030   0.870   5.088   1.907
 1995SOL    HW1 6031   0.825   5.111   1.993
 1995SOL    HW2 6032   0.881   5.170   1.852
 1996SOL     OW 6033   0.666   5.510   2.805
 1996SOL    HW1 6034   0.643   5.604   2.782
 1996SOL    HW2 6035   0.764   5.496   2.793
 1997SOL     OW 6036   0.869   4.695   2.718
 1997SOL    HW1 6037   0.920   4.617   2.755
 1997SOL    HW2 6038   0.826   4.745   2.793
 1998SOL     OW 6039   1.077   4.712   1.946
 1998SOL    HW1 6040   1.050   4.767   1.867
 1998SOL    HW2 6041   1.155   4.655   1.921
 1999SOL     OW 6042   1.846   5.280   2.709
 1999SOL    HW1 6043   1.769   5.269   2.646
 1999SOL    HW2 6044   1.840   5.212   2.781
 2000SOL     OW 6045   0.242   5.032   3.727
 2000SOL    HW1 6046   0.150   4.999   3.705
 2000SOL    HW2 6047   0.252   5.042   3.826
 2001SOL     OW 6048   0.152   4.996   2.553
 2001SOL    HW1 6049   0.103   4.950   2.627
 2001SOL    HW2 6050   0.198   4.928   2.496
 2002SOL     OW 6051   0.686   5.133   3.497
 2002SOL    HW1 6052   0.604   5.083   3.525
 2002SOL    HW2 6053   0.681   5.226   3.533
 2003SOL     OW 6054   1.828   3.915   3.095
 2003SOL    HW1 6055   1.806   3.822   3.123
 2003SOL    HW2 6056   1.835   3.919   2.995
 2004SOL     OW 6057   0.454   4.153   2.400
 2004SOL    HW1 6058   0.479   4.084   2.332
 2004SOL    HW2 6059   0.397   4.111   2.471
 2005SOL     OW 6060   1.694   5.206   2.956
 2005SOL    HW1 6061   1.612   5.189   2.900
 2005SOL    HW2 6062   1.701   5.136   3.026
 2006SOL     OW 6063   0.331   4.275   3.153
 2006SOL    HW1 6064   0.389   4.220   3.214
 2006SOL    HW2 6065   0.348   4.249   3.058
 2007SOL     OW 6066   0.829   5.303   2.540
 2007SOL    HW1 6067   0.814   5.365   2.463
 2007SOL    HW2 6068   0.752   5.240   2.547
 2008SOL     OW 6069   1.432   3.954   2.982
 2008SOL    HW1 6070   1.455   3.868   3.026
 2008SOL    HW2 6071   1.376   4.010   3.043
 2009SOL     OW 6072   1.008   3.738   3.000
 2009SOL    HW1 6073   0.944   3.671   2.963
 2009SOL    HW2 6074   1.100   3.699   3.003
 2010SOL     OW 6075   0.775   5.055   2.183
 2010SOL    HW1 6076   0.747   4.959   2.192
 2010SOL    HW2 6077   0.860   5.069   2.234
 2011SOL     OW 6078   0.626   5.282   3.152
 2011SOL    HW1 6079   0.623   5.369   3.202
 2011SOL    HW2 6080   0.716   5.271   3.111
 2012SOL     OW 6081   1.354   3.774   2.032
 2012SOL    HW1 6082   1.396   3.707   1.971
 2012SOL    HW2 6083   1.261   3.745   2.054
 2013SOL     OW 6084   1.292   4.188   2.543
 2013SOL    HW1 6085   1.239   4.273   2.545
 2013SOL    HW2 6086   1.289   4.145   2.633
 2014SOL     OW 6087   1.587   3.927   2.747
 2014SOL    HW1 6088   1.528   3.945   2.826
 2014SOL    HW2 6089   1.587   4.006   2.687
 2015SOL     OW 6090   0.071   4.788   2.139
 2015SOL    HW1 6091   0.164   4.751   2.139
 2015SOL    HW2 6092   0.006   4.715   2.159
 2016SOL     OW 6093   0.885   5.387   2.202
 2016SOL    HW1 6094   0.811   5.365   2.139
 2016SOL    HW2 6095   0.858   5.464   2.260
 2017SOL     OW 6096   0.186   4.376   3.845
 2017SOL    HW1 6097   0.175   4.310   3.919
 2017SOL    HW2 6098   0.226   4.331   3.765
 2018SOL     OW 6099   0.231   3.995   4.712
 2018SOL    HW1 6100   0.281   3.963   4.792
 2018SOL    HW2 6101   0.133   3.978   4.725
 2019SOL     OW 6102   6.990   4.109   4.377
 2019SOL    HW1 6103   6.942   4.105   4.465
 2019SOL    HW2 6104   0.012   4.016   4.347
 2020SOL     OW 6105   0.569   5.021   4.910
 2020SOL    HW1 6106   0.479   5.019   4.867
 2020SOL    HW2 6107   0.587   5.113   4.945
 2021SOL     OW 6108   1.565   5.237   4.432
 2021SOL    HW1 6109   1.522   5.213   4.519
 2021SOL    HW2 6110   1.494   5.244   4.361
 2022SOL     OW 6111   1.133   4.427   4.419
 2022SOL    HW1 6112   1.185   4.511   4.402
 2022SOL    HW2 6113   1.083   4.436   4.505
 2023SOL     OW 6114   1.772   4.322   3.948
 2023SOL    HW1 6115   1.747   4.321   3.852
 2023SOL    HW2 6116   1.730   4.244   3.995
 2024SOL     OW 6117   0.743   4.865   4.765
 2024SOL    HW1 6118   0.675   4.899   4.829
 2024SOL    HW2 6119   0.788   4.942   4.719
 2025SOL     OW 6120   0.873   4.489   5.544
 2025SOL    HW1 6121   0.863   4.557   5.617
 2025SOL    HW2 6122   0.897   4.534   5.459
 2026SOL     OW 6123   0.683   4.724   4.374
 2026SOL    HW1 6124   0.755   4.714   4.443
 2026SOL    HW2 6125   0.608   4.779   4.412
 2027SOL     OW 6126   0.713   4.877   5.543
 2027SOL    HW1 6127   0.765   4.955   5.576
 2027SOL    HW2 6128   0.628   4.908   5.500
 2028SOL     OW 6129   0.333   5.144   4.789
 2028SOL    HW1 6130   0.254   5.105   4.741
 2028SOL    HW2 6131   0.385   5.202   4.725
 2029SOL     OW 6132   1.458   5.225   5.082
 2029SOL    HW1 6133   1.515   5.307   5.089
 2029SOL    HW2 6134   1.387   5.228   5.152
 2030SOL     OW 6135   0.443   4.119   5.216
 2030SOL    HW1 6136   0.526   4.063   5.218
 2030SOL    HW2 6137   0.363   4.059   5.225
 2031SOL     OW 6138   1.611   4.170   4.468
 2031SOL    HW1 6139   1.536   4.188   4.405
 2031SOL    HW2 6140   1.618   4.245   4.534
 2032SOL     OW 6141   0.226   5.434   4.190
 2032SOL    HW1 6142   0.241   5.513   4.249
 2032SOL    HW2 6143   0.297   5.431   4.120
 2033SOL     OW 6144   1.137   5.064   5.421
 2033SOL    HW1 6145   1.183   5.062   5.510
 2033SOL    HW2 6146   1.081   4.981   5.411
 2034SOL     OW 6147   0.277   5.167   4.244
 2034SOL    HW1 6148   0.254   5.264   4.250
 2034SOL    HW2 6149   0.227   5.116   4.314
 2035SOL     OW 6150   0.270   4.806   4.631
 2035SOL    HW1 6151   0.266   4.710   4.660
 2035SOL    HW2 6152   0.198   4.858   4.677
 2036SOL     OW 6153   0.602   5.520   5.151
 2036SOL    HW1 6154   0.516   5.497   5.198
 2036SOL    HW2 6155   0.631   5.612   5.179
 2037SOL     OW 6156   0.581   4.712   3.865
 2037SOL    HW1 6157   0.629   4.759   3.791
 2037SOL    HW2 6158   0.620   4.739   3.953
 2038SOL     OW 6159   1.597   3.849   5.193
 2038SOL    HW1 6160   1.616   3.929   5.136
 2038SOL    HW2 6161   1.582   3.878   5.288
 2039SOL     OW 6162   0.132   4.339   4.298
 2039SOL    HW1 6163   0.063   4.270   4.322
 2039SOL    HW2 6164   0.122   4.418   4.359
 2040SOL     OW 6165   1.846   5.480   4.056
 2040SOL    HW1 6166   1.916   5.449   4.121
 2040SOL    HW2 6167   1.862   5.575   4.033
 2041SOL     OW 6168   0.036   5.316   3.871
 2041SOL    HW1 6169   0.026   5.218   3.884
 2041SOL    HW2 6170   6.960   5.363   3.917
 2042SOL     OW 6171   1.691   4.645   4.371
 2042SOL    HW1 6172   1.775   4.594   4.354
 2042SOL    HW2 6173   1.667   4.699   4.290
 2043SOL     OW 6174   1.652   4.829   4.156
 2043SOL    HW1 6175   1.741   4.826   4.110
 2043SOL    HW2 6176   1.655   4.896   4.230
 2044SOL     OW 6177   0.146   4.455   5.304
 2044SOL    HW1 6178   0.245   4.462   5.288
 2044SOL    HW2 6179   0.111   4.543   5.336
 2045SOL     OW 6180   0.612   5.114   4.459
 2045SOL    HW1 6181   0.565   5.027   4.472
 2045SOL    HW2 6182   0.599   5.145   4.364
 2046SOL     OW 6183   1.288   4.959   5.146
 2046SOL    HW1 6184   1.315   4.888   5.080
 2046SOL    HW2 6185   1.348   4.955   5.226
 2047SOL     OW 6186   0.817   3.733   4.232
 2047SOL    HW1 6187   0.862   3.819   4.209
 2047SOL    HW2 6188   0.718   3.749   4.240
 2048SOL     OW 6189   0.204   4.685   4.986
 2048SOL    HW1 6190   0.288   4.632   4.970
 2048SOL    HW2 6191   0.133   4.654   4.923
 2049SOL     OW 6192   1.532   4.724   3.928
 2049SOL    HW1 6193   1.459   4.663   3.957
 2049SOL    HW2 6194   1.579   4.762   4.008
 2050SOL     OW 6195   1.183   5.535   5.346
 2050SOL    HW1 6196   1.189   5.604   5.274
 2050SOL    HW2 6197   1.202   5.445   5.309
 2051SOL     OW 6198   0.353   3.975   5.556
 2051SOL    HW1 6199   0.402   4.057   5.583
 2051SOL    HW2 6200   0.256   3.984   5.578
 2052SOL     OW 6201   1.465   5.144   4.671
 2052SOL    HW1 6202   1.398   5.163   4.743
 2052SOL    HW2 6203   1.457   5.048   4.643
 2053SOL     OW 6204   1.650   5.473   4.300
 2053SOL    HW1 6205   1.632   5.444   4.206
 2053SOL    HW2 6206   1.629   5.398   4.362
 2054SOL     OW 6207   0.590   4.440   3.990
 2054SOL    HW1 6208   0.599   4.528   3.943
 2054SOL    HW2 6209   0.526   4.450   4.066
 2055SOL     OW 6210   1.277   4.083   4.657
 2055SOL    HW1 6211   1.184   4.048   4.664
 2055SOL    HW2 6212   1.336   4.031   4.719
 2056SOL     OW 6213   1.583   5.397   4.032
 2056SOL    HW1 6214   1.679   5.424   4.028
 2056SOL    HW2 6215   1.550   5.379   3.939
 2057SOL     OW 6216   0.790   4.337   5.174
 2057SOL    HW1 6217   0.764   4.313   5.268
 2057SOL    HW2 6218   0.752   4.269   5.111
 2058SOL     OW 6219   1.391   4.194   5.403
 2058SOL    HW1 6220   1.392   4.243   5.490
 2058SOL    HW2 6221   1.452   4.115   5.410
 2059SOL     OW 6222   0.952   4.609   5.307
 2059SOL    HW1 6223   1.011   4.537   5.269
 2059SOL    HW2 6224   0.899   4.651   5.234
 2060SOL     OW 6225   0.994   4.130   4.953
 2060SOL    HW1 6226   0.904   4.152   4.991
 2060SOL    HW2 6227   0.982   4.081   4.867
 2061SOL     OW 6228   1.049   4.423   4.149
 2061SOL    HW1 6229   1.071   4.418   4.247
 2061SOL    HW2 6230   0.963   4.375   4.132
 2062SOL     OW 6231   0.101   4.542   4.499
 2062SOL    HW1 6232   0.194   4.532   4.534
 2062SOL    HW2 6233   0.042   4.577   4.571
 2063SOL     OW 6234   0.120   5.594   5.315
 2063SOL    HW1 6235   0.131   5.568   5.411
 2063SOL    HW2 6236   0.030   5.566   5.283
 2064SOL     OW 6237   0.898   4.074   3.916
 2064SOL    HW1 6238   0.938   4.145   3.859
 2064SOL    HW2 6239   0.909   3.985   3.871
 2065SOL     OW 6240   1.701   4.297   5.550
 2065SOL    HW1 6241   1.666   4.376   5.500
 2065SOL    HW2 6242   1.731   4.227   5.485
 2066SOL     OW 6243   1.380   4.867   4.258
 2066SOL    HW1 6244   1.464   4.852   4.207
 2066SOL    HW2 6245   1.323   4.934   4.210
 2067SOL     OW 6246   0.550   3.899   4.623
 2067SOL    HW1 6247   0.556   3.928   4.719
 2067SOL    HW2 6248   0.555   3.979   4.563
 2068SOL     OW 6249   0.995   5.167   4.188
 2068SOL    HW1 6250   0.963   5.247   4.138
 2068SOL    HW2 6251   0.979   5.180   4.286
 2069SOL     OW 6252   0.357   5.543   4.591
 2069SOL    HW1 6253   0.397   5.452   4.602
 2069SOL    HW2 6254   0.426   5.612   4.612
 2070SOL     OW 6255   1.798   4.781   4.596
 2070SOL    HW1 6256   1.747   4.757   4.513
 2070SOL    HW2 6257   1.735   4.786   4.673
 2071SOL     OW 6258   1.227   5.260   5.238
 2071SOL    HW1 6259   1.214   5.186   5.304
 2071SOL    HW2 6260   1.158   5.253   5.166
 2072SOL     OW 6261   0.318   4.669   3.974
 2072SOL    HW1 6262   0.405   4.695   3.933
 2072SOL    HW2 6263   0.287   4.581   3.937
 2073SOL     OW 6264   1.483   4.474   4.447
 2073SOL    HW1 6265   1.477   4.429   4.536
 2073SOL    HW2 6266   1.564   4.533   4.445
 2074SOL     OW 6267   0.472   4.985   5.452
 2074SOL    HW1 6268   0.445   4.995   5.356
 2074SOL    HW2 6269   0.391   4.986   5.510
 2075SOL     OW 6270   1.122   5.500   3.951
 2075SOL    HW1 6271   1.043   5.462   3.999
 2075SOL    HW2 6272   1.151   5.436   3.880
 2076SOL     OW 6273   0.196   3.992   5.214
 2076SOL    HW1 6274   0.113   4.045   5.198
 2076SOL    HW2 6275   0.172   3.907   5.262
 2077SOL     OW 6276   1.625   5.106   3.812
 2077SOL    HW1 6277   1.586   5.197   3.797
 2077SOL    HW2 6278   1.555   5.036   3.794
 2078SOL     OW 6279   0.468   5.458   4.041
 2078SOL    HW1 6280   0.509   5.520   4.109
 2078SOL    HW2 6281   0.540   5.422   3.981
 2079SOL     OW 6282   1.403   3.830   4.164
 2079SOL    HW1 6283   1.389   3.809   4.067
 2079SOL    HW2 6284   1.501   3.838   4.183
 2080SOL     OW 6285   0.258   5.518   4.947
 2080SOL    HW1 6286   0.309   5.444   4.991
 2080SOL    HW2 6287   0.214   5.483   4.864
 2081SOL     OW 6288   0.936   5.426   4.620
 2081SOL    HW1 6289   1.018   5.379   4.652
 2081SOL    HW2 6290   0.894   5.374   4.546
 2082SOL     OW 6291   0.401   4.407   4.198
 2082SOL    HW1 6292   0.429   4.313   4.219
 2082SOL    HW2 6293   0.304   4.418   4.217
 2083SOL     OW 6294   1.528   3.947   5.452
 2083SOL    HW1 6295   1.539   3.968   5.549
 2083SOL    HW2 6296   1.455   3.879   5.440
 2084SOL     OW 6297   0.633   3.842   3.828
 2084SOL    HW1 6298   0.708   3.776   3.838
 2084SOL    HW2 6299   0.575   3.815   3.751
 2085SOL     OW 6300   0.763   4.001   5.481
 2085SOL    HW1 6301   0.848   3.948   5.474
 2085SOL    HW2 6302   0.711   3.971   5.561
 2086SOL     OW 6303   0.876   5.240   4.916
 2086SOL    HW1 6304   0.856   5.203   4.825
 2086SOL    HW2 6305   0.948   5.185   4.958
 2087SOL     OW 6306   1.340   4.313   5.159
 2087SOL    HW1 6307   1.370   4.278   5.248
 2087SOL    HW2 6308   1.375   4.405   5.146
 2088SOL     OW 6309   0.820   5.113   4.665
 2088SOL    HW1 6310   0.910   5.102   4.622
 2088SOL    HW2 6311   0.750   5.119   4.594
 2089SOL     OW 6312   0.927   4.231   4.622
 2089SOL    HW1 6313   0.901   4.224   4.526
 2089SOL    HW2 6314   0.959   4.142   4.655
 2090SOL     OW 6315   0.546   3.788   4.220
 2090SOL    HW1 6316   0.464   3.784   4.277
 2090SOL    HW2 6317   0.543   3.868   4.161
 2091SOL     OW 6318   1.425   4.923   3.767
 2091SOL    HW1 6319   1.459   4.845   3.821
 2091SOL    HW2 6320   1.337   4.952   3.803
 2092SOL     OW 6321   0.292   3.766   3.910
 2092SOL    HW1 6322   0.341   3.847   3.878
 2092SOL    HW2 6323   0.356   3.701   3.950
 2093SOL     OW 6324   0.946   3.975   4.179
 2093SOL    HW1 6325   0.915   4.013   4.092
 2093SOL    HW2 6326   1.045   3.989   4.189
 2094SOL     OW 6327   1.079   4.407   5.179
 2094SOL    HW1 6328   1.005   4.340   5.185
 2094SOL    HW2 6329   1.167   4.358   5.175
 2095SOL     OW 6330   1.220   5.293   4.518
 2095SOL    HW1 6331   1.234   5.363   4.448
 2095SOL    HW2 6332   1.291   5.302   4.588
 2096SOL     OW 6333   0.467   4.874   4.457
 2096SOL    HW1 6334   0.401   4.853   4.529
 2096SOL    HW2 6335   0.424   4.861   4.367
 2097SOL     OW 6336   1.263   5.516   4.334
 2097SOL    HW1 6337   1.315   5.578   4.275
 2097SOL    HW2 6338   1.190   5.566   4.380
 2098SOL     OW 6339   1.022   4.264   3.755
 2098SOL    HW1 6340   0.976   4.350   3.732
 2098SOL    HW2 6341   1.089   4.281   3.827
 2099SOL     OW 6342   0.074   4.276   5.099
 2099SOL    HW1 6343   0.169   4.268   5.070
 2099SOL    HW2 6344   0.066   4.344   5.172
 2100SOL     OW 6345   0.565   3.948   4.895
 2100SOL    HW1 6346   0.615   3.870   4.934
 2100SOL    HW2 6347   0.470   3.945   4.926
 2101SOL     OW 6348   0.866   4.182   4.361
 2101SOL    HW1 6349   0.815   4.243   4.300
 2101SOL    HW2 6350   0.894   4.100   4.310
 2102SOL     OW 6351   1.017   3.777   4.470
 2102SOL    HW1 6352   0.956   3.778   4.390
 2102SOL    HW2 6353   0.992   3.701   4.530
 2103SOL     OW 6354   1.445   4.885   4.582
 2103SOL    HW1 6355   1.369   4.820   4.586
 2103SOL    HW2 6356   1.474   4.896   4.487
 2104SOL     OW 6357   1.468   4.332   4.694
 2104SOL    HW1 6358   1.406   4.253   4.693
 2104SOL    HW2 6359   1.529   4.326   4.773
 2105SOL     OW 6360   1.843   4.533   4.104
 2105SOL    HW1 6361   1.901   4.486   4.170
 2105SOL    HW2 6362   1.813   4.469   4.033
 2106SOL     OW 6363   0.496   5.145   3.877
 2106SOL    HW1 6364   0.414   5.119   3.929
 2106SOL    HW2 6365   0.485   5.116   3.782
 2107SOL     OW 6366   1.675   4.991   4.367
 2107SOL    HW1 6367   1.774   4.989   4.379
 2107SOL    HW2 6368   1.641   5.083   4.388
 2108SOL     OW 6369   1.389   4.299   3.799
 2108SOL    HW1 6370   1.324   4.278   3.872
 2108SOL    HW2 6371   1.477   4.258   3.821
 2109SOL     OW 6372   0.529   3.987   4.036
 2109SOL    HW1 6373   0.575   3.931   3.967
 2109SOL    HW2 6374   0.502   4.074   3.995
 2110SOL     OW 6375   1.753   4.965   5.285
 2110SOL    HW1 6376   1.842   4.922   5.272
 2110SOL    HW2 6377   1.764   5.058   5.318
 2111SOL     OW 6378   1.053   5.073   5.059
 2111SOL    HW1 6379   0.972   5.044   5.110
 2111SOL    HW2 6380   1.135   5.034   5.102
 2112SOL     OW 6381   1.614   5.354   5.381
 2112SOL    HW1 6382   1.598   5.389   5.289
 2112SOL    HW2 6383   1.699   5.302   5.383
 2113SOL     OW 6384   1.137   4.943   4.829
 2113SOL    HW1 6385   1.077   4.977   4.901
 2113SOL    HW2 6386   1.103   4.974   4.740
 2114SOL     OW 6387   1.624   4.821   4.803
 2114SOL    HW1 6388   1.620   4.886   4.879
 2114SOL    HW2 6389   1.548   4.837   4.741
 2115SOL     OW 6390   0.923   3.818   5.116
 2115SOL    HW1 6391   0.944   3.795   5.021
 2115SOL    HW2 6392   1.002   3.862   5.158
 2116SOL     OW 6393   0.980   4.838   5.445
 2116SOL    HW1 6394   0.886   4.858   5.472
 2116SOL    HW2 6395   0.982   4.756   5.389
 2117SOL     OW 6396   0.711   4.781   4.098
 2117SOL    HW1 6397   0.695   4.765   4.195
 2117SOL    HW2 6398   0.790   4.728   4.068
 2118SOL     OW 6399   0.429   4.529   4.973
 2118SOL    HW1 6400   0.499   4.545   5.042
 2118SOL    HW2 6401   0.387   4.440   4.988
 2119SOL     OW 6402   1.262   4.100   5.005
 2119SOL    HW1 6403   1.299   4.179   5.053
 2119SOL    HW2 6404   1.167   4.118   4.979
 2120SOL     OW 6405   0.068   5.289   5.042
 2120SOL    HW1 6406   0.018   5.374   5.058
 2120SOL    HW2 6407   0.165   5.303   5.063
 2121SOL     OW 6408   0.340   4.840   4.216
 2121SOL    HW1 6409   0.351   4.920   4.156
 2121SOL    HW2 6410   0.339   4.757   4.160
 2122SOL     OW 6411   0.548   4.267   4.587
 2122SOL    HW1 6412   0.562   4.325   4.507
 2122SOL    HW2 6413   0.617   4.288   4.656
 2123SOL     OW 6414   1.246   5.078   4.116
 2123SOL    HW1 6415   1.307   5.151   4.147
 2123SOL    HW2 6416   1.153   5.098   4.147
 2124SOL     OW 6417   1.288   5.186   4.871
 2124SOL    HW1 6418   1.346   5.191   4.952
 2124SOL    HW2 6419   1.233   5.102   4.875
 2125SOL     OW 6420   1.577   4.345   4.207
 2125SOL    HW1 6421   1.526   4.392   4.279
 2125SOL    HW2 6422   1.623   4.412   4.149
 2126SOL     OW 6423   0.351   5.257   5.033
 2126SOL    HW1 6424   0.332   5.210   4.947
 2126SOL    HW2 6425   0.450   5.269   5.043
 2127SOL     OW 6426   0.424   4.459   5.322
 2127SOL    HW1 6427   0.485   4.511   5.262
 2127SOL    HW2 6428   0.467   4.372   5.346
 2128SOL     OW 6429   1.608   4.509   5.408
 2128SOL    HW1 6430   1.517   4.551   5.406
 2128SOL    HW2 6431   1.665   4.550   5.337
 2129SOL     OW 6432   0.997   3.858   5.474
 2129SOL    HW1 6433   1.055   3.938   5.458
 2129SOL    HW2 6434   1.046   3.775   5.448
 2130SOL     OW 6435   0.495   3.759   5.473
 2130SOL    HW1 6436   0.450   3.703   5.404
 2130SOL    HW2 6437   0.439   3.840   5.493
 2131SOL     OW 6438   0.588   4.595   4.757
 2131SOL    HW1 6439   0.620   4.690   4.754
 2131SOL    HW2 6440   0.528   4.583   4.836
 2132SOL     OW 6441   1.352   4.581   4.748
 2132SOL    HW1 6442   1.261   4.573   4.707
 2132SOL    HW2 6443   1.401   4.494   4.739
 2133SOL     OW 6444   1.195   4.251   3.989
 2133SOL    HW1 6445   1.209   4.168   4.043
 2133SOL    HW2 6446   1.152   4.321   4.046
 2134SOL     OW 6447   0.308   3.919   4.970
 2134SOL    HW1 6448   0.269   3.955   5.055
 2134SOL    HW2 6449   0.291   3.821   4.964
 2135SOL     OW 6450   0.097   5.030   4.987
 2135SOL    HW1 6451   0.105   4.968   5.065
 2135SOL    HW2 6452   0.087   5.124   5.020
 2136SOL     OW 6453   0.725   4.354   4.779
 2136SOL    HW1 6454   0.802   4.334   4.718
 2136SOL    HW2 6455   0.691   4.447   4.760
 2137SOL     OW 6456   1.736   4.684   5.580
 2137SOL    HW1 6457   1.693   4.616   5.521
 2137SOL    HW2 6458   1.676   4.704   5.658
 2138SOL     OW 6459   0.301   3.784   4.349
 2138SOL    HW1 6460   0.281   3.881   4.367
 2138SOL    HW2 6461   0.313   3.736   4.435
 2139SOL     OW 6462   1.630   4.106   4.086
 2139SOL    HW1 6463   1.654   4.031   4.148
 2139SOL    HW2 6464   1.600   4.185   4.140
 2140SOL     OW 6465   1.024   4.479   4.682
 2140SOL    HW1 6466   1.019   4.501   4.779
 2140SOL    HW2 6467   0.997   4.384   4.667
 2141SOL     OW 6468   0.983   5.287   5.441
 2141SOL    HW1 6469   0.965   5.335   5.355
 2141SOL    HW2 6470   1.030   5.201   5.423
 2142SOL     OW 6471   1.855   5.227   5.328
 2142SOL    HW1 6472   1.873   5.254   5.233
 2142SOL    HW2 6473   1.938   5.239   5.382
 2143SOL     OW 6474   0.365   4.641   5.523
 2143SOL    HW1 6475   0.443   4.666   5.580
 2143SOL    HW2 6476   0.394   4.573   5.455
 2144SOL     OW 6477   1.534   4.010   3.848
 2144SOL    HW1 6478   1.464   3.940   3.864
 2144SOL    HW2 6479   1.569   4.042   3.936
 2145SOL     OW 6480   1.289   4.550   3.751
 2145SOL    HW1 6481   1.331   4.460   3.761
 2145SOL    HW2 6482   1.320   4.592   3.666
 2146SOL     OW 6483   1.070   5.061   4.579
 2146SOL    HW1 6484   1.074   4.984   4.516
 2146SOL    HW2 6485   1.129   5.135   4.544
 2147SOL     OW 6486   0.321   4.525   4.665
 2147SOL    HW1 6487   0.418   4.550   4.665
 2147SOL    HW2 6488   0.310   4.434   4.703
 2148SOL     OW 6489   0.329   4.244   4.738
 2148SOL    HW1 6490   0.290   4.153   4.723
 2148SOL    HW2 6491   0.409   4.256   4.680
 2149SOL     OW 6492   1.134   4.097   5.416
 2149SOL    HW1 6493   1.081   4.154   5.479
 2149SOL    HW2 6494   1.226   4.134   5.407
 2150SOL     OW 6495   1.161   3.927   5.200
 2150SOL    HW1 6496   1.147   3.989   5.276
 2150SOL    HW2 6497   1.204   3.977   5.124
 2151SOL     OW 6498   6.991   5.046   3.942
 2151SOL    HW1 6499   6.919   5.071   4.006
 2151SOL    HW2 6500   0.021   4.952   3.959
 2152SOL     OW 6501   0.097   5.480   4.673
 2152SOL    HW1 6502   0.077   5.407   4.609
 2152SOL    HW2 6503   0.183   5.524   4.647
 2153SOL     OW 6504   0.494   5.302   4.628
 2153SOL    HW1 6505   0.563   5.369   4.655
 2153SOL    HW2 6506   0.534   5.234   4.567
 2154SOL     OW 6507   0.975   4.517   4.948
 2154SOL    HW1 6508   1.035   4.493   5.024
 2154SOL    HW2 6509   0.885   4.476   4.962
 2155SOL     OW 6510   0.050   4.332   4.830
 2155SOL    HW1 6511   0.125   4.284   4.785
 2155SOL    HW2 6512   0.051   4.311   4.928
 2156SOL     OW 6513   0.210   4.235   5.447
 2156SOL    HW1 6514   0.285   4.189   5.399
 2156SOL    HW2 6515   0.189   4.321   5.400
 2157SOL     OW 6516   1.380   4.659   5.379
 2157SOL    HW1 6517   1.403   4.756   5.380
 2157SOL    HW2 6518   1.377   4.627   5.284
 2158SOL     OW 6519   0.817   4.295   4.081
 2158SOL    HW1 6520   0.826   4.215   4.023
 2158SOL    HW2 6521   0.738   4.349   4.050
 2159SOL     OW 6522   1.642   4.327   4.905
 2159SOL    HW1 6523   1.626   4.267   4.983
 2159SOL    HW2 6524   1.734   4.310   4.869
 2160SOL     OW 6525   0.285   5.284   5.464
 2160SOL    HW1 6526   0.230   5.352   5.513
 2160SOL    HW2 6527   0.266   5.193   5.500
 2161SOL     OW 6528   0.706   4.173   4.978
 2161SOL    HW1 6529   0.652   4.093   4.952
 2161SOL    HW2 6530   0.704   4.240   4.904
 2162SOL     OW 6531   0.922   5.405   5.195
 2162SOL    HW1 6532   0.894   5.358   5.110
 2162SOL    HW2 6533   0.920   5.504   5.181
 2163SOL     OW 6534   0.454   4.212   3.906
 2163SOL    HW1 6535   0.511   4.293   3.923
 2163SOL    HW2 6536   0.368   4.221   3.956
 2164SOL     OW 6537   0.165   4.847   5.193
 2164SOL    HW1 6538   0.154   4.786   5.272
 2164SOL    HW2 6539   0.180   4.792   5.111
 2165SOL     OW 6540   1.316   4.768   4.943
 2165SOL    HW1 6541   1.343   4.700   4.875
 2165SOL    HW2 6542   1.248   4.830   4.903
 2166SOL     OW 6543   1.315   4.581   4.024
 2166SOL    HW1 6544   1.240   4.553   4.083
 2166SOL    HW2 6545   1.290   4.568   3.928
 2167SOL     OW 6546   1.780   5.453   4.881
 2167SOL    HW1 6547   1.841   5.488   4.809
 2167SOL    HW2 6548   1.749   5.362   4.856
 2168SOL     OW 6549   1.241   5.457   4.829
 2168SOL    HW1 6550   1.327   5.486   4.786
 2168SOL    HW2 6551   1.247   5.360   4.853
 2169SOL     OW 6552   0.071   4.969   4.729
 2169SOL    HW1 6553   0.088   4.989   4.825
 2169SOL    HW2 6554   6.973   4.955   4.715
 2170SOL     OW 6555   0.682   5.398   5.461
 2170SOL    HW1 6556   0.617   5.474   5.456
 2170SOL    HW2 6557   0.752   5.410   5.391
 2171SOL     OW 6558   1.719   3.874   4.223
 2171SOL    HW1 6559   1.793   3.863   4.157
 2171SOL    HW2 6560   1.702   3.786   4.268
 2172SOL     OW 6561   1.395   5.294   4.211
 2172SOL    HW1 6562   1.458   5.326   4.140
 2172SOL    HW2 6563   1.340   5.371   4.244
 2173SOL     OW 6564   0.140   5.509   5.577
 2173SOL    HW1 6565   0.094   5.435   5.627
 2173SOL    HW2 6566   0.194   5.564   5.640
 2174SOL     OW 6567   1.282   4.652   4.390
 2174SOL    HW1 6568   1.357   4.588   4.406
 2174SOL    HW2 6569   1.315   4.729   4.335
 2175SOL     OW 6570   0.803   5.003   5.150
 2175SOL    HW1 6571   0.775   5.046   5.236
 2175SOL    HW2 6572   0.734   5.018   5.080
 2176SOL     OW 6573   0.673   5.347   3.878
 2176SOL    HW1 6574   0.687   5.366   3.780
 2176SOL    HW2 6575   0.615   5.266   3.887
 2177SOL     OW 6576   1.617   5.452   5.111
 2177SOL    HW1 6577   1.674   5.453   5.029
 2177SOL    HW2 6578   1.603   5.546   5.143
 2178SOL     OW 6579   1.842   3.893   4.688
 2178SOL    HW1 6580   1.876   3.802   4.665
 2178SOL    HW2 6581   1.751   3.905   4.648
 2179SOL     OW 6582   0.263   4.040   4.438
 2179SOL    HW1 6583   0.188   4.103   4.418
 2179SOL    HW2 6584   0.265   4.020   4.536
 2180SOL     OW 6585   1.209   5.325   3.757
 2180SOL    HW1 6586   1.199   5.231   3.790
 2180SOL    HW2 6587   1.141   5.342   3.685
 2181SOL     OW 6588   0.824   4.734   5.102
 2181SOL    HW1 6589   0.873   4.719   5.017
 2181SOL    HW2 6590   0.820   4.832   5.122
 2182SOL     OW 6591   0.919   4.634   4.011
 2182SOL    HW1 6592   0.980   4.670   3.941
 2182SOL    HW2 6593   0.966   4.563   4.063
 2183SOL     OW 6594   1.488   5.354   3.766
 2183SOL    HW1 6595   1.390   5.343   3.755
 2183SOL    HW2 6596   1.532   5.359   3.676
 2184SOL     OW 6597   0.372   5.031   5.210
 2184SOL    HW1 6598   0.359   5.112   5.152
 2184SOL    HW2 6599   0.302   4.963   5.188
 2185SOL     OW 6600   1.614   5.008   5.008
 2185SOL    HW1 6601   1.676   4.989   5.084
 2185SOL    HW2 6602   1.548   5.078   5.037
 2186SOL     OW 6603   1.061   4.830   4.439
 2186SOL    HW1 6604   0.985   4.780   4.479
 2186SOL    HW2 6605   1.130   4.765   4.405
 2187SOL     OW 6606   1.022   3.963   4.691
 2187SOL    HW1 6607   1.018   3.919   4.601
 2187SOL    HW2 6608   1.020   3.893   4.763
 2188SOL     OW 6609   0.607   5.211   4.205
 2188SOL    HW1 6610   0.658   5.157   4.137
 2188SOL    HW2 6611   0.529   5.256   4.161
 2189SOL     OW 6612   1.731   4.118   5.105
 2189SOL    HW1 6613   1.804   4.186   5.105
 2189SOL    HW2 6614   1.757   4.043   5.044
 2190SOL     OW 6615   0.256   5.075   3.998
 2190SOL    HW1 6616   0.158   5.075   3.981
 2190SOL    HW2 6617   0.274   5.111   4.089
 2191SOL     OW 6618   0.121   4.697   5.426
 2191SOL    HW1 6619   0.066   4.748   5.493
 2191SOL    HW2 6620   0.212   4.679   5.464
 2192SOL     OW 6621   0.683   3.919   5.223
 2192SOL    HW1 6622   0.769   3.894   5.180
 2192SOL    HW2 6623   0.701   3.952   5.316
 2193SOL     OW 6624   0.096   4.044   3.764
 2193SOL    HW1 6625   6.999   4.017   3.761
 2193SOL    HW2 6626   0.108   4.129   3.712
 2194SOL     OW 6627   1.423   4.580   5.119
 2194SOL    HW1 6628   1.368   4.644   5.065
 2194SOL    HW2 6629   1.517   4.582   5.085
 2195SOL     OW 6630   0.077   3.912   4.065
 2195SOL    HW1 6631   0.022   3.904   3.982
 2195SOL    HW2 6632   0.153   3.848   4.061
 2196SOL     OW 6633   1.180   5.061   3.844
 2196SOL    HW1 6634   1.084   5.035   3.837
 2196SOL    HW2 6635   1.207   5.062   3.940
 2197SOL     OW 6636   0.624   4.554   5.158
 2197SOL    HW1 6637   0.680   4.636   5.143
 2197SOL    HW2 6638   0.684   4.474   5.167
 2198SOL     OW 6639   1.485   5.512   4.712
 2198SOL    HW1 6640   1.506   5.574   4.636
 2198SOL    HW2 6641   1.570   5.478   4.751
 2199SOL     OW 6642   0.718   4.283   5.428
 2199SOL    HW1 6643   0.765   4.350   5.485
 2199SOL    HW2 6644   0.739   4.191   5.460
 2200SOL     OW 6645   1.474   4.920   5.358
 2200SOL    HW1 6646   1.458   4.933   5.456
 2200SOL    HW2 6647   1.570   4.939   5.337
 2201SOL     OW 6648   0.371   5.470   5.287
 2201SOL    HW1 6649   0.284   5.516   5.272
 2201SOL    HW2 6650   0.355   5.386   5.339
 2202SOL     OW 6651   1.666   4.602   4.980
 2202SOL    HW1 6652   1.661   4.511   4.939
 2202SOL    HW2 6653   1.653   4.671   4.909
 2203SOL     OW 6654   1.219   4.041   4.184
 2203SOL    HW1 6655   1.283   3.965   4.174
 2203SOL    HW2 6656   1.246   4.097   4.263
 2204SOL     OW 6657   0.588   4.461   4.394
 2204SOL    HW1 6658   0.629   4.552   4.385
 2204SOL    HW2 6659   0.520   4.448   4.322
 2205SOL     OW 6660   1.751   4.089   5.377
 2205SOL    HW1 6661   1.741   4.105   5.278
 2205SOL    HW2 6662   1.677   4.029   5.408
 2206SOL     OW 6663   1.752   4.656   5.233
 2206SOL    HW1 6664   1.741   4.753   5.255
 2206SOL    HW2 6665   1.731   4.641   5.137
 2207SOL     OW 6666   0.870   5.088   3.769
 2207SOL    HW1 6667   0.825   5.111   3.855
 2207SOL    HW2 6668   0.881   5.170   3.714
 2208SOL     OW 6669   0.666   5.510   4.667
 2208SOL    HW1 6670   0.643   5.604   4.644
 2208SOL    HW2 6671   0.764   5.496   4.655
 2209SOL     OW 6672   0.869   4.695   4.580
 2209SOL    HW1 6673   0.920   4.617   4.616
 2209SOL    HW2 6674   0.826   4.745   4.655
 2210SOL     OW 6675   1.077   4.713   3.808
 2210SOL    HW1 6676   1.050   4.767   3.729
 2210SOL    HW2 6677   1.155   4.655   3.784
 2211SOL     OW 6678   1.846   5.280   4.571
 2211SOL    HW1 6679   1.769   5.269   4.508
 2211SOL    HW2 6680   1.841   5.211   4.643
 2212SOL     OW 6681   0.242   5.032   5.589
 2212SOL    HW1 6682   0.150   5.000   5.567
 2212SOL    HW2 6683   0.252   5.042   5.688
 2213SOL     OW 6684   0.151   4.996   4.415
 2213SOL    HW1 6685   0.103   4.950   4.489
 2213SOL    HW2 6686   0.197   4.929   4.357
 2214SOL     OW 6687   0.686   5.133   5.360
 2214SOL    HW1 6688   0.604   5.083   5.388
 2214SOL    HW2 6689   0.681   5.226   5.395
 2215SOL     OW 6690   1.805   3.906   4.958
 2215SOL    HW1 6691   1.819   3.811   4.982
 2215SOL    HW2 6692   1.818   3.918   4.859
 2216SOL     OW 6693   0.455   4.153   4.263
 2216SOL    HW1 6694   0.479   4.084   4.194
 2216SOL    HW2 6695   0.397   4.111   4.333
 2217SOL     OW 6696   1.693   5.206   4.818
 2217SOL    HW1 6697   1.612   5.189   4.762
 2217SOL    HW2 6698   1.702   5.136   4.888
 2218SOL     OW 6699   0.331   4.276   5.015
 2218SOL    HW1 6700   0.388   4.220   5.076
 2218SOL    HW2 6701   0.348   4.249   4.920
 2219SOL     OW 6702   0.829   5.303   4.402
 2219SOL    HW1 6703   0.815   5.365   4.325
 2219SOL    HW2 6704   0.752   5.240   4.409
 2220SOL     OW 6705   1.430   3.955   4.841
 2220SOL    HW1 6706   1.452   3.865   4.878
 2220SOL    HW2 6707   1.376   4.006   4.908
 2221SOL     OW 6708   1.010   3.740   4.862
 2221SOL    HW1 6709   0.946   3.677   4.818
 2221SOL    HW2 6710   1.101   3.700   4.863
 2222SOL     OW 6711   0.775   5.055   4.045
 2222SOL    HW1 6712   0.747   4.959   4.054
 2222SOL    HW2 6713   0.860   5.069   4.096
 2223SOL     OW 6714   0.626   5.282   5.014
 2223SOL    HW1 6715   0.623   5.369   5.064
 2223SOL    HW2 6716   0.716   5.271   4.973
 2224SOL     OW 6717   1.350   3.781   3.902
 2224SOL    HW1 6718   1.396   3.718   3.839
 2224SOL    HW2 6719   1.258   3.746   3.921
 2225SOL     OW 6720   1.291   4.189   4.405
 2225SOL    HW1 6721   1.238   4.273   4.407
 2225SOL    HW2 6722   1.289   4.146   4.495
 2226SOL     OW 6723   1.586   3.927   4.608
 2226SOL    HW1 6724   1.528   3.947   4.687
 2226SOL    HW2 6725   1.588   4.007   4.547
 2227SOL     OW 6726   0.071   4.788   4.001
 2227SOL    HW1 6727   0.164   4.751   4.001
 2227SOL    HW2 6728   0.006   4.715   4.021
 2228SOL     OW 6729   0.885   5.387   4.064
 2228SOL    HW1 6730   0.811   5.365   4.001
 2228SOL    HW2 6731   0.858   5.464   4.122
 2229SOL     OW 6732   0.185   4.376   5.707
 2229SOL    HW1 6733   0.175   4.310   5.781
 2229SOL    HW2 6734   0.226   4.331   5.628
 2230SOL     OW 6735   0.228   4.000   6.570
 2230SOL    HW1 6736   0.281   3.967   6.647
 2230SOL    HW2 6737   0.131   3.978   6.585
 2231SOL     OW 6738   6.990   4.108   6.239
 2231SOL    HW1 6739   6.941   4.104   6.326
 2231SOL    HW2 6740   0.010   4.015   6.208
 2232SOL     OW 6741   0.560   5.007   6.759
 2232SOL    HW1 6742   0.473   5.027   6.714
 2232SOL    HW2 6743   0.588   5.085   6.815
 2233SOL     OW 6744   1.564   5.237   6.294
 2233SOL    HW1 6745   1.519   5.214   6.380
 2233SOL    HW2 6746   1.495   5.244   6.222
 2234SOL     OW 6747   1.133   4.426   6.281
 2234SOL    HW1 6748   1.184   4.511   6.266
 2234SOL    HW2 6749   1.081   4.434   6.366
 2235SOL     OW 6750   1.771   4.323   5.809
 2235SOL    HW1 6751   1.746   4.319   5.712
 2235SOL    HW2 6752   1.732   4.244   5.856
 2236SOL     OW 6753   0.756   4.867   6.628
 2236SOL    HW1 6754   0.682   4.894   6.690
 2236SOL    HW2 6755   0.789   4.948   6.579
 2237SOL     OW 6756   0.683   4.724   6.236
 2237SOL    HW1 6757   0.755   4.713   6.305
 2237SOL    HW2 6758   0.609   4.780   6.273
 2238SOL     OW 6759   0.337   5.128   6.640
 2238SOL    HW1 6760   0.254   5.096   6.593
 2238SOL    HW2 6761   0.385   5.193   6.581
 2239SOL     OW 6762   1.611   4.171   6.330
 2239SOL    HW1 6763   1.535   4.187   6.267
 2239SOL    HW2 6764   1.612   4.243   6.400
 2240SOL     OW 6765   0.226   5.433   6.052
 2240SOL    HW1 6766   0.241   5.513   6.111
 2240SOL    HW2 6767   0.297   5.431   5.982
 2241SOL     OW 6768   0.277   5.167   6.105
 2241SOL    HW1 6769   0.254   5.264   6.111
 2241SOL    HW2 6770   0.228   5.116   6.176
 2242SOL     OW 6771   0.269   4.804   6.490
 2242SOL    HW1 6772   0.267   4.709   6.521
 2242SOL    HW2 6773   0.196   4.856   6.534
 2243SOL     OW 6774   0.611   5.529   6.985
 2243SOL    HW1 6775   0.517   5.508   0.014
 2243SOL    HW2 6776   0.637   5.620   0.019
 2244SOL     OW 6777   0.581   4.712   5.727
 2244SOL    HW1 6778   0.629   4.759   5.653
 2244SOL    HW2 6779   0.620   4.739   5.815
 2245SOL     OW 6780   0.132   4.338   6.160
 2245SOL    HW1 6781   0.063   4.270   6.183
 2245SOL    HW2 6782   0.122   4.417   6.221
 2246SOL     OW 6783   1.846   5.480   5.918
 2246SOL    HW1 6784   1.916   5.449   5.983
 2246SOL    HW2 6785   1.862   5.576   5.895
 2247SOL     OW 6786   0.036   5.316   5.734
 2247SOL    HW1 6787   0.026   5.218   5.746
 2247SOL    HW2 6788   6.959   5.363   5.778
 2248SOL     OW 6789   1.692   4.645   6.231
 2248SOL    HW1 6790   1.775   4.593   6.212
 2248SOL    HW2 6791   1.667   4.699   6.150
 2249SOL     OW 6792   1.652   4.829   6.017
 2249SOL    HW1 6793   1.741   4.826   5.972
 2249SOL    HW2 6794   1.655   4.896   6.091
 2250SOL     OW 6795   0.611   5.114   6.320
 2250SOL    HW1 6796   0.564   5.027   6.334
 2250SOL    HW2 6797   0.598   5.145   6.226
 2251SOL     OW 6798   0.817   3.733   6.095
 2251SOL    HW1 6799   0.863   3.819   6.072
 2251SOL    HW2 6800   0.719   3.749   6.103
 2252SOL     OW 6801   0.202   4.674   6.832
 2252SOL    HW1 6802   0.291   4.629   6.823
 2252SOL    HW2 6803   0.141   4.641   6.760
 2253SOL     OW 6804   1.532   4.724   5.790
 2253SOL    HW1 6805   1.458   4.664   5.819
 2253SOL    HW2 6806   1.579   4.762   5.870
 2254SOL     OW 6807   1.455   5.147   6.533
 2254SOL    HW1 6808   1.397   5.161   6.612
 2254SOL    HW2 6809   1.452   5.051   6.505
 2255SOL     OW 6810   1.650   5.473   6.162
 2255SOL    HW1 6811   1.632   5.444   6.068
 2255SOL    HW2 6812   1.629   5.398   6.224
 2256SOL     OW 6813   0.590   4.441   5.852
 2256SOL    HW1 6814   0.599   4.529   5.805
 2256SOL    HW2 6815   0.526   4.451   5.928
 2257SOL     OW 6816   1.275   4.080   6.517
 2257SOL    HW1 6817   1.181   4.047   6.525
 2257SOL    HW2 6818   1.333   4.030   6.582
 2258SOL     OW 6819   1.583   5.396   5.894
 2258SOL    HW1 6820   1.679   5.424   5.890
 2258SOL    HW2 6821   1.550   5.379   5.801
 2259SOL     OW 6822   0.794   4.334   0.047
 2259SOL    HW1 6823   0.732   4.376   0.112
 2259SOL    HW2 6824   0.742   4.278   6.982
 2260SOL     OW 6825   1.006   4.117   6.794
 2260SOL    HW1 6826   0.946   4.172   6.853
 2260SOL    HW2 6827   0.951   4.070   6.725
 2261SOL     OW 6828   1.050   4.423   6.011
 2261SOL    HW1 6829   1.072   4.417   6.108
 2261SOL    HW2 6830   0.963   4.375   5.994
 2262SOL     OW 6831   0.104   4.540   6.359
 2262SOL    HW1 6832   0.197   4.532   6.395
 2262SOL    HW2 6833   0.043   4.577   6.429
 2263SOL     OW 6834   0.108   5.555   0.174
 2263SOL    HW1 6835   0.097   5.526   0.269
 2263SOL    HW2 6836   0.019   5.577   0.135
 2264SOL     OW 6837   0.896   4.077   5.783
 2264SOL    HW1 6838   0.936   4.144   5.721
 2264SOL    HW2 6839   0.903   3.986   5.743
 2265SOL     OW 6840   1.379   4.867   6.120
 2265SOL    HW1 6841   1.464   4.851   6.069
 2265SOL    HW2 6842   1.323   4.934   6.071
 2266SOL     OW 6843   0.550   3.898   6.482
 2266SOL    HW1 6844   0.563   3.927   6.577
 2266SOL    HW2 6845   0.554   3.977   6.422
 2267SOL     OW 6846   0.995   5.167   6.050
 2267SOL    HW1 6847   0.964   5.247   5.999
 2267SOL    HW2 6848   0.977   5.180   6.148
 2268SOL     OW 6849   0.357   5.543   6.450
 2268SOL    HW1 6850   0.396   5.452   6.465
 2268SOL    HW2 6851   0.426   5.612   6.473
 2269SOL     OW 6852   1.803   4.781   6.450
 2269SOL    HW1 6853   1.753   4.755   6.367
 2269SOL    HW2 6854   1.741   4.780   6.528
 2270SOL     OW 6855   0.317   4.669   5.837
 2270SOL    HW1 6856   0.404   4.695   5.795
 2270SOL    HW2 6857   0.287   4.582   5.799
 2271SOL     OW 6858   1.482   4.473   6.306
 2271SOL    HW1 6859   1.475   4.427   6.394
 2271SOL    HW2 6860   1.563   4.533   6.306
 2272SOL     OW 6861   1.122   5.499   5.813
 2272SOL    HW1 6862   1.042   5.462   5.861
 2272SOL    HW2 6863   1.151   5.436   5.742
 2273SOL     OW 6864   1.625   5.106   5.674
 2273SOL    HW1 6865   1.586   5.197   5.659
 2273SOL    HW2 6866   1.555   5.036   5.656
 2274SOL     OW 6867   0.468   5.458   5.903
 2274SOL    HW1 6868   0.509   5.520   5.970
 2274SOL    HW2 6869   0.540   5.422   5.843
 2275SOL     OW 6870   1.401   3.828   6.022
 2275SOL    HW1 6871   1.389   3.802   5.926
 2275SOL    HW2 6872   1.498   3.837   6.042
 2276SOL     OW 6873   0.254   5.533   6.780
 2276SOL    HW1 6874   0.307   5.459   6.822
 2276SOL    HW2 6875   0.190   5.494   6.714
 2277SOL     OW 6876   0.936   5.425   6.481
 2277SOL    HW1 6877   1.020   5.379   6.510
 2277SOL    HW2 6878   0.894   5.373   6.406
 2278SOL     OW 6879   0.401   4.407   6.060
 2278SOL    HW1 6880   0.429   4.313   6.080
 2278SOL    HW2 6881   0.303   4.417   6.078
 2279SOL     OW 6882   0.642   3.840   5.688
 2279SOL    HW1 6883   0.711   3.770   5.709
 2279SOL    HW2 6884   0.585   3.809   5.612
 2280SOL     OW 6885   0.875   5.241   6.760
 2280SOL    HW1 6886   0.853   5.207   6.668
 2280SOL    HW2 6887   0.913   5.167   6.815
 2281SOL     OW 6888   0.819   5.112   6.520
 2281SOL    HW1 6889   0.909   5.101   6.477
 2281SOL    HW2 6890   0.749   5.118   6.449
 2282SOL     OW 6891   0.928   4.232   6.484
 2282SOL    HW1 6892   0.901   4.224   6.388
 2282SOL    HW2 6893   0.965   4.145   6.516
 2283SOL     OW 6894   0.547   3.788   6.082
 2283SOL    HW1 6895   0.464   3.784   6.138
 2283SOL    HW2 6896   0.543   3.868   6.022
 2284SOL     OW 6897   1.426   4.923   5.629
 2284SOL    HW1 6898   1.459   4.845   5.682
 2284SOL    HW2 6899   1.337   4.952   5.665
 2285SOL     OW 6900   0.291   3.767   5.774
 2285SOL    HW1 6901   0.341   3.846   5.739
 2285SOL    HW2 6902   0.357   3.701   5.812
 2286SOL     OW 6903   0.946   3.975   6.042
 2286SOL    HW1 6904   0.915   4.016   5.957
 2286SOL    HW2 6905   1.045   3.988   6.052
 2287SOL     OW 6906   1.219   5.294   6.381
 2287SOL    HW1 6907   1.233   5.365   6.311
 2287SOL    HW2 6908   1.296   5.295   6.445
 2288SOL     OW 6909   0.468   4.874   6.318
 2288SOL    HW1 6910   0.402   4.853   6.390
 2288SOL    HW2 6911   0.425   4.862   6.228
 2289SOL     OW 6912   1.262   5.516   6.197
 2289SOL    HW1 6913   1.314   5.578   6.138
 2289SOL    HW2 6914   1.188   5.566   6.241
 2290SOL     OW 6915   1.021   4.260   5.615
 2290SOL    HW1 6916   0.976   4.347   5.591
 2290SOL    HW2 6917   1.090   4.277   5.685
 2291SOL     OW 6918   0.581   3.944   6.752
 2291SOL    HW1 6919   0.626   3.861   6.784
 2291SOL    HW2 6920   0.485   3.943   6.779
 2292SOL     OW 6921   0.865   4.183   6.223
 2292SOL    HW1 6922   0.816   4.243   6.160
 2292SOL    HW2 6923   0.894   4.100   6.174
 2293SOL     OW 6924   1.019   3.772   6.326
 2293SOL    HW1 6925   0.956   3.773   6.249
 2293SOL    HW2 6926   0.993   3.698   6.389
 2294SOL     OW 6927   1.440   4.885   6.442
 2294SOL    HW1 6928   1.370   4.813   6.445
 2294SOL    HW2 6929   1.470   4.898   6.347
 2295SOL     OW 6930   1.466   4.329   6.550
 2295SOL    HW1 6931   1.403   4.251   6.555
 2295SOL    HW2 6932   1.529   4.327   6.627
 2296SOL     OW 6933   1.842   4.533   5.966
 2296SOL    HW1 6934   1.901   4.485   6.031
 2296SOL    HW2 6935   1.813   4.469   5.895
 2297SOL     OW 6936   0.496   5.144   5.739
 2297SOL    HW1 6937   0.414   5.119   5.791
 2297SOL    HW2 6938   0.485   5.116   5.644
 2298SOL     OW 6939   1.674   4.992   6.228
 2298SOL    HW1 6940   1.773   4.989   6.241
 2298SOL    HW2 6941   1.640   5.083   6.250
 2299SOL     OW 6942   1.390   4.298   5.657
 2299SOL    HW1 6943   1.327   4.276   5.731
 2299SOL    HW2 6944   1.483   4.272   5.682
 2300SOL     OW 6945   0.530   3.986   5.896
 2300SOL    HW1 6946   0.578   3.931   5.827
 2300SOL    HW2 6947   0.503   4.073   5.856
 2301SOL     OW 6948   1.752   4.919   0.182
 2301SOL    HW1 6949   1.850   4.900   0.182
 2301SOL    HW2 6950   1.737   5.015   0.156
 2302SOL     OW 6951   1.119   4.962   6.694
 2302SOL    HW1 6952   1.035   4.920   6.730
 2302SOL    HW2 6953   1.105   4.987   6.598
 2303SOL     OW 6954   1.622   4.803   6.647
 2303SOL    HW1 6955   1.623   4.872   6.719
 2303SOL    HW2 6956   1.546   4.821   6.584
 2304SOL     OW 6957   0.711   4.781   5.960
 2304SOL    HW1 6958   0.695   4.765   6.057
 2304SOL    HW2 6959   0.791   4.728   5.930
 2305SOL     OW 6960   0.437   4.528   6.846
 2305SOL    HW1 6961   0.490   4.556   6.926
 2305SOL    HW2 6962   0.396   4.439   6.862
 2306SOL     OW 6963   1.269   4.112   6.856
 2306SOL    HW1 6964   1.296   4.186   6.917
 2306SOL    HW2 6965   1.174   4.126   6.827
 2307SOL     OW 6966   0.084   5.293   6.856
 2307SOL    HW1 6967   0.035   5.329   6.936
 2307SOL    HW2 6968   0.182   5.300   6.872
 2308SOL     OW 6969   0.340   4.840   6.077
 2308SOL    HW1 6970   0.351   4.920   6.018
 2308SOL    HW2 6971   0.339   4.757   6.022
 2309SOL     OW 6972   0.546   4.269   6.451
 2309SOL    HW1 6973   0.560   4.327   6.370
 2309SOL    HW2 6974   0.617   4.288   6.518
 2310SOL     OW 6975   1.246   5.078   5.978
 2310SOL    HW1 6976   1.307   5.151   6.009
 2310SOL    HW2 6977   1.153   5.099   6.008
 2311SOL     OW 6978   1.283   5.174   6.747
 2311SOL    HW1 6979   1.314   5.166   6.841
 2311SOL    HW2 6980   1.221   5.098   6.726
 2312SOL     OW 6981   1.577   4.345   6.068
 2312SOL    HW1 6982   1.527   4.392   6.141
 2312SOL    HW2 6983   1.624   4.412   6.011
 2313SOL     OW 6984   0.364   5.295   6.851
 2313SOL    HW1 6985   0.343   5.224   6.783
 2313SOL    HW2 6986   0.461   5.291   6.874
 2314SOL     OW 6987   0.587   4.594   6.621
 2314SOL    HW1 6988   0.619   4.689   6.616
 2314SOL    HW2 6989   0.532   4.582   6.703
 2315SOL     OW 6990   1.347   4.580   6.594
 2315SOL    HW1 6991   1.256   4.564   6.555
 2315SOL    HW2 6992   1.400   4.495   6.590
 2316SOL     OW 6993   1.197   4.251   5.850
 2316SOL    HW1 6994   1.210   4.168   5.905
 2316SOL    HW2 6995   1.154   4.321   5.906
 2317SOL     OW 6996   0.323   3.922   6.821
 2317SOL    HW1 6997   0.307   3.937   6.919
 2317SOL    HW2 6998   0.299   3.828   6.797
 2318SOL     OW 6999   0.054   5.023   6.833
 2318SOL    HW1 7000   0.087   4.959   6.902
 2318SOL    HW2 7001   0.085   5.115   6.855
 2319SOL     OW 7002   0.726   4.351   6.641
 2319SOL    HW1 7003   0.804   4.330   6.582
 2319SOL    HW2 7004   0.695   4.444   6.623
 2320SOL     OW 7005   0.301   3.785   6.209
 2320SOL    HW1 7006   0.281   3.881   6.227
 2320SOL    HW2 7007   0.314   3.736   6.296
 2321SOL     OW 7008   1.627   4.105   5.948
 2321SOL    HW1 7009   1.653   4.031   6.011
 2321SOL    HW2 7010   1.598   4.185   6.000
 2322SOL     OW 7011   1.022   4.481   6.550
 2322SOL    HW1 7012   1.017   4.502   6.648
 2322SOL    HW2 7013   0.997   4.385   6.535
 2323SOL     OW 7014   1.919   5.199   0.195
 2323SOL    HW1 7015   1.897   5.232   0.103
 2323SOL    HW2 7016   1.922   5.277   0.257
 2324SOL     OW 7017   1.527   3.993   5.716
 2324SOL    HW1 7018   1.458   3.925   5.741
 2324SOL    HW2 7019   1.564   4.035   5.799
 2325SOL     OW 7020   1.289   4.550   5.612
 2325SOL    HW1 7021   1.330   4.459   5.621
 2325SOL    HW2 7022   1.320   4.592   5.527
 2326SOL     OW 7023   1.073   5.061   6.439
 2326SOL    HW1 7024   1.076   4.983   6.376
 2326SOL    HW2 7025   1.130   5.135   6.403
 2327SOL     OW 7026   0.321   4.526   6.532
 2327SOL    HW1 7027   0.418   4.550   6.529
 2327SOL    HW2 7028   0.311   4.432   6.566
 2328SOL     OW 7029   0.327   4.247   6.604
 2328SOL    HW1 7030   0.289   4.156   6.587
 2328SOL    HW2 7031   0.409   4.260   6.548
 2329SOL     OW 7032   1.142   3.964   0.055
 2329SOL    HW1 7033   1.201   3.992   0.130
 2329SOL    HW2 7034   1.178   4.000   6.968
 2330SOL     OW 7035   6.991   5.046   5.804
 2330SOL    HW1 7036   6.919   5.071   5.868
 2330SOL    HW2 7037   0.020   4.952   5.822
 2331SOL     OW 7038   0.097   5.483   6.533
 2331SOL    HW1 7039   0.077   5.409   6.469
 2331SOL    HW2 7040   0.185   5.525   6.509
 2332SOL     OW 7041   0.494   5.302   6.491
 2332SOL    HW1 7042   0.563   5.369   6.519
 2332SOL    HW2 7043   0.535   5.235   6.430
 2333SOL     OW 7044   0.980   4.520   6.823
 2333SOL    HW1 7045   1.059   4.498   6.880
 2333SOL    HW2 7046   0.899   4.474   6.858
 2334SOL     OW 7047   0.059   4.337   6.692
 2334SOL    HW1 7048   0.123   4.291   6.631
 2334SOL    HW2 7049   0.045   4.281   6.774
 2335SOL     OW 7050   0.816   4.296   5.945
 2335SOL    HW1 7051   0.827   4.216   5.886
 2335SOL    HW2 7052   0.738   4.350   5.913
 2336SOL     OW 7053   1.647   4.334   6.752
 2336SOL    HW1 7054   1.632   4.275   6.831
 2336SOL    HW2 7055   1.742   4.323   6.720
 2337SOL     OW 7056   0.674   4.188   6.850
 2337SOL    HW1 7057   0.644   4.098   6.818
 2337SOL    HW2 7058   0.688   4.248   6.772
 2338SOL     OW 7059   0.942   5.386   6.997
 2338SOL    HW1 7060   0.911   5.376   6.903
 2338SOL    HW2 7061   0.924   5.479   0.029
 2339SOL     OW 7062   0.455   4.212   5.768
 2339SOL    HW1 7063   0.511   4.293   5.785
 2339SOL    HW2 7064   0.369   4.221   5.818
 2340SOL     OW 7065   0.161   4.849   0.028
 2340SOL    HW1 7066   0.180   4.802   0.114
 2340SOL    HW2 7067   0.176   4.787   6.951
 2341SOL     OW 7068   1.285   4.729   6.813
 2341SOL    HW1 7069   1.322   4.677   6.736
 2341SOL    HW2 7070   1.259   4.820   6.783
 2342SOL     OW 7071   1.315   4.581   5.885
 2342SOL    HW1 7072   1.240   4.553   5.944
 2342SOL    HW2 7073   1.290   4.568   5.789
 2343SOL     OW 7074   1.784   5.470   6.742
 2343SOL    HW1 7075   1.845   5.495   6.667
 2343SOL    HW2 7076   1.745   5.380   6.724
 2344SOL     OW 7077   1.246   5.449   6.699
 2344SOL    HW1 7078   1.329   5.478   6.652
 2344SOL    HW2 7079   1.252   5.351   6.719
 2345SOL     OW 7080   0.061   4.965   6.574
 2345SOL    HW1 7081   0.068   4.986   6.672
 2345SOL    HW2 7082   6.965   4.954   6.549
 2346SOL     OW 7083   1.720   3.874   6.085
 2346SOL    HW1 7084   1.795   3.864   6.020
 2346SOL    HW2 7085   1.702   3.786   6.130
 2347SOL     OW 7086   1.395   5.295   6.074
 2347SOL    HW1 7087   1.458   5.326   6.003
 2347SOL    HW2 7088   1.340   5.371   6.106
 2348SOL     OW 7089   1.282   4.652   6.252
 2348SOL    HW1 7090   1.356   4.588   6.268
 2348SOL    HW2 7091   1.315   4.729   6.197
 2349SOL     OW 7092   0.673   5.347   5.740
 2349SOL    HW1 7093   0.687   5.366   5.642
 2349SOL    HW2 7094   0.615   5.265   5.749
 2350SOL     OW 7095   1.842   3.896   6.557
 2350SOL    HW1 7096   1.876   3.805   6.533
 2350SOL    HW2 7097   1.750   3.909   6.518
 2351SOL     OW 7098   0.263   4.041   6.296
 2351SOL    HW1 7099   0.186   4.102   6.275
 2351SOL    HW2 7100   0.264   4.023   6.395
 2352SOL     OW 7101   1.209   5.325   5.619
 2352SOL    HW1 7102   1.199   5.231   5.652
 2352SOL    HW2 7103   1.141   5.342   5.547
 2353SOL     OW 7104   0.777   4.749   6.952
 2353SOL    HW1 7105   0.836   4.704   6.885
 2353SOL    HW2 7106   0.823   4.830   6.989
 2354SOL     OW 7107   0.919   4.634   5.873
 2354SOL    HW1 7108   0.980   4.670   5.803
 2354SOL    HW2 7109   0.966   4.563   5.925
 2355SOL     OW 7110   1.488   5.354   5.628
 2355SOL    HW1 7111   1.390   5.343   5.617
 2355SOL    HW2 7112   1.532   5.359   5.538
 2356SOL     OW 7113   1.618   4.993   6.832
 2356SOL    HW1 7114   1.702   5.008   6.885
 2356SOL    HW2 7115   1.542   4.976   6.895
 2357SOL     OW 7116   1.061   4.830   6.300
 2357SOL    HW1 7117   0.984   4.779   6.340
 2357SOL    HW2 7118   1.130   4.765   6.267
 2358SOL     OW 7119   1.020   3.961   6.540
 2358SOL    HW1 7120   1.019   3.911   6.453
 2358SOL    HW2 7121   1.022   3.895   6.616
 2359SOL     OW 7122   0.607   5.211   6.067
 2359SOL    HW1 7123   0.658   5.157   5.999
 2359SOL    HW2 7124   0.529   5.256   6.023
 2360SOL     OW 7125   1.698   4.147   6.943
 2360SOL    HW1 7126   1.757   4.155   0.024
 2360SOL    HW2 7127   1.705   4.055   6.906
 2361SOL     OW 7128   0.256   5.075   5.860
 2361SOL    HW1 7129   0.157   5.075   5.843
 2361SOL    HW2 7130   0.274   5.111   5.951
 2362SOL     OW 7131   0.674   3.912   0.079
 2362SOL    HW1 7132   0.767   3.887   0.052
 2362SOL    HW2 7133   0.677   3.994   0.137
 2363SOL     OW 7134   0.100   4.041   5.623
 2363SOL    HW1 7135   0.003   4.016   5.622
 2363SOL    HW2 7136   0.112   4.127   5.573
 2364SOL     OW 7137   0.076   3.912   5.927
 2364SOL    HW1 7138   0.021   3.902   5.844
 2364SOL    HW2 7139   0.153   3.848   5.923
 2365SOL     OW 7140   1.180   5.061   5.706
 2365SOL    HW1 7141   1.084   5.035   5.699
 2365SOL    HW2 7142   1.207   5.062   5.802
 2366SOL     OW 7143   1.487   5.507   6.575
 2366SOL    HW1 7144   1.501   5.571   6.499
 2366SOL    HW2 7145   1.576   5.480   6.613
 2367SOL     OW 7146   1.494   5.021   0.286
 2367SOL    HW1 7147   1.408   4.975   0.309
 2367SOL    HW2 7148   1.564   4.953   0.266
 2368SOL     OW 7149   0.375   5.487   0.101
 2368SOL    HW1 7150   0.287   5.534   0.100
 2368SOL    HW2 7151   0.400   5.466   0.196
 2369SOL     OW 7152   1.701   4.601   6.829
 2369SOL    HW1 7153   1.667   4.511   6.802
 2369SOL    HW2 7154   1.667   4.670   6.766
 2370SOL     OW 7155   1.219   4.041   6.046
 2370SOL    HW1 7156   1.283   3.964   6.036
 2370SOL    HW2 7157   1.246   4.096   6.125
 2371SOL     OW 7158   0.586   4.462   6.257
 2371SOL    HW1 7159   0.628   4.552   6.247
 2371SOL    HW2 7160   0.519   4.448   6.184
 2372SOL     OW 7161   1.774   4.634   0.093
 2372SOL    HW1 7162   1.759   4.730   0.119
 2372SOL    HW2 7163   1.746   4.621   6.998
 2373SOL     OW 7164   0.870   5.088   5.631
 2373SOL    HW1 7165   0.825   5.112   5.717
 2373SOL    HW2 7166   0.882   5.170   5.575
 2374SOL     OW 7167   0.667   5.509   6.533
 2374SOL    HW1 7168   0.643   5.603   6.506
 2374SOL    HW2 7169   0.765   5.495   6.518
 2375SOL     OW 7170   0.869   4.694   6.442
 2375SOL    HW1 7171   0.918   4.616   6.480
 2375SOL    HW2 7172   0.828   4.747   6.517
 2376SOL     OW 7173   1.077   4.712   5.670
 2376SOL    HW1 7174   1.050   4.767   5.591
 2376SOL    HW2 7175   1.155   4.655   5.645
 2377SOL     OW 7176   1.849   5.281   6.432
 2377SOL    HW1 7177   1.771   5.268   6.370
 2377SOL    HW2 7178   1.848   5.209   6.502
 2378SOL     OW 7179   0.152   4.997   6.277
 2378SOL    HW1 7180   0.108   4.951   6.354
 2378SOL    HW2 7181   0.196   4.929   6.218
 2379SOL     OW 7182   1.811   3.898   6.836
 2379SOL    HW1 7183   1.793   3.799   6.838
 2379SOL    HW2 7184   1.824   3.927   6.741
 2380SOL     OW 7185   0.456   4.153   6.124
 2380SOL    HW1 7186   0.480   4.085   6.055
 2380SOL    HW2 7187   0.397   4.111   6.193
 2381SOL     OW 7188   1.679   5.227   6.683
 2381SOL    HW1 7189   1.604   5.207   6.619
 2381SOL    HW2 7190   1.688   5.151   6.747
 2382SOL     OW 7191   0.320   4.265   6.884
 2382SOL    HW1 7192   0.392   4.209   6.924
 2382SOL    HW2 7193   0.322   4.257   6.785
 2383SOL     OW 7194   0.829   5.303   6.262
 2383SOL    HW1 7195   0.816   5.366   6.186
 2383SOL    HW2 7196   0.751   5.241   6.267
 2384SOL     OW 7197   1.433   3.959   6.703
 2384SOL    HW1 7198   1.466   3.877   6.751
 2384SOL    HW2 7199   1.380   4.015   6.766
 2385SOL     OW 7200   1.016   3.742   6.713
 2385SOL    HW1 7201   0.953   3.676   6.672
 2385SOL    HW2 7202   1.107   3.700   6.723
 2386SOL     OW 7203   0.774   5.055   5.908
 2386SOL    HW1 7204   0.746   4.959   5.916
 2386SOL    HW2 7205   0.860   5.069   5.958
 2387SOL     OW 7206   0.634   5.285   6.874
 2387SOL    HW1 7207   0.629   5.381   6.901
 2387SOL    HW2 7208   0.719   5.268   6.824
 2388SOL     OW 7209   1.354   3.774   5.756
 2388SOL    HW1 7210   1.396   3.707   5.695
 2388SOL    HW2 7211   1.261   3.745   5.778
 2389SOL     OW 7212   1.292   4.188   6.266
 2389SOL    HW1 7213   1.239   4.272   6.269
 2389SOL    HW2 7214   1.289   4.144   6.356
 2390SOL     OW 7215   1.587   3.929   6.472
 2390SOL    HW1 7216   1.526   3.948   6.549
 2390SOL    HW2 7217   1.588   4.007   6.410
 2391SOL     OW 7218   0.071   4.788   5.863
 2391SOL    HW1 7219   0.163   4.751   5.863
 2391SOL    HW2 7220   0.006   4.715   5.884
 2392SOL     OW 7221   0.885   5.387   5.926
 2392SOL    HW1 7222   0.811   5.366   5.863
 2392SOL    HW2 7223   0.858   5.464   5.984
 2393SOL     OW 7224   0.230   6.235   0.130
 2393SOL    HW1 7225   0.153   6.183   0.166
 2393SOL    HW2 7226   0.249   6.205   0.036
 2394SOL     OW 7227   0.231   5.858   0.988
 2394SOL    HW1 7228   0.282   5.825   1.068
 2394SOL    HW2 7229   0.133   5.841   1.002
 2395SOL     OW 7230   6.986   5.973   0.657
 2395SOL    HW1 7231   6.939   5.972   0.745
 2395SOL    HW2 7232   0.004   5.879   0.627
 2396SOL     OW 7233   0.569   6.870   1.174
 2396SOL    HW1 7234   0.493   6.871   1.109
 2396SOL    HW2 7235   0.543   6.922   1.256
 2397SOL     OW 7236   1.539   0.055   0.687
 2397SOL    HW1 7237   1.520   0.053   0.785
 2397SOL    HW2 7238   1.459   0.088   0.638
 2398SOL     OW 7239   1.130   6.286   0.696
 2398SOL    HW1 7240   1.183   6.369   0.680
 2398SOL    HW2 7241   1.080   6.294   0.782
 2399SOL     OW 7242   1.783   6.168   0.202
 2399SOL    HW1 7243   1.715   6.211   0.142
 2399SOL    HW2 7244   1.737   6.104   0.263
 2400SOL     OW 7245   0.765   6.748   1.025
 2400SOL    HW1 7246   0.696   6.784   1.088
 2400SOL    HW2 7247   0.763   6.801   0.940
 2401SOL     OW 7248   0.875   6.351   1.822
 2401SOL    HW1 7249   0.860   6.417   1.895
 2401SOL    HW2 7250   0.900   6.399   1.738
 2402SOL     OW 7251   0.684   6.582   0.650
 2402SOL    HW1 7252   0.755   6.572   0.720
 2402SOL    HW2 7253   0.608   6.635   0.687
 2403SOL     OW 7254   0.689   6.734   1.815
 2403SOL    HW1 7255   0.728   6.824   1.832
 2403SOL    HW2 7256   0.606   6.743   1.761
 2404SOL     OW 7257   0.344   0.007   1.048
 2404SOL    HW1 7258   0.270   6.954   1.006
 2404SOL    HW2 7259   0.393   0.058   0.978
 2405SOL     OW 7260   0.444   5.980   1.491
 2405SOL    HW1 7261   0.526   5.924   1.493
 2405SOL    HW2 7262   0.363   5.922   1.501
 2406SOL     OW 7263   1.611   6.033   0.744
 2406SOL    HW1 7264   1.533   6.051   0.684
 2406SOL    HW2 7265   1.619   6.108   0.811
 2407SOL     OW 7266   0.267   6.670   0.917
 2407SOL    HW1 7267   0.256   6.574   0.944
 2407SOL    HW2 7268   0.192   6.724   0.956
 2408SOL     OW 7269   0.588   6.549   0.140
 2408SOL    HW1 7270   0.651   6.565   0.065
 2408SOL    HW2 7271   0.623   6.592   0.223
 2409SOL     OW 7272   1.597   5.711   1.469
 2409SOL    HW1 7273   1.616   5.791   1.412
 2409SOL    HW2 7274   1.582   5.740   1.564
 2410SOL     OW 7275   0.129   6.205   0.571
 2410SOL    HW1 7276   0.062   6.135   0.596
 2410SOL    HW2 7277   0.122   6.282   0.635
 2411SOL     OW 7278   1.692   6.494   0.651
 2411SOL    HW1 7279   1.780   6.448   0.640
 2411SOL    HW2 7280   1.673   6.550   0.570
 2412SOL     OW 7281   1.660   6.672   0.444
 2412SOL    HW1 7282   1.723   6.697   0.370
 2412SOL    HW2 7283   1.670   6.737   0.520
 2413SOL     OW 7284   0.146   6.317   1.580
 2413SOL    HW1 7285   0.245   6.325   1.566
 2413SOL    HW2 7286   0.111   6.404   1.615
 2414SOL     OW 7287   1.314   6.817   1.431
 2414SOL    HW1 7288   1.338   6.747   1.364
 2414SOL    HW2 7289   1.374   6.808   1.511
 2415SOL     OW 7290   0.820   5.598   0.513
 2415SOL    HW1 7291   0.866   5.684   0.490
 2415SOL    HW2 7292   0.722   5.614   0.521
 2416SOL     OW 7293   0.212   6.554   1.265
 2416SOL    HW1 7294   0.290   6.494   1.245
 2416SOL    HW2 7295   0.134   6.526   1.209
 2417SOL     OW 7296   1.503   6.592   0.210
 2417SOL    HW1 7297   1.432   6.528   0.240
 2417SOL    HW2 7298   1.578   6.592   0.277
 2418SOL     OW 7299   0.353   5.838   1.830
 2418SOL    HW1 7300   0.401   5.920   1.860
 2418SOL    HW2 7301   0.256   5.846   1.853
 2419SOL     OW 7302   1.458   6.989   0.947
 2419SOL    HW1 7303   1.390   0.015   1.015
 2419SOL    HW2 7304   1.441   6.894   0.918
 2420SOL     OW 7305   0.600   6.303   0.266
 2420SOL    HW1 7306   0.604   6.392   0.221
 2420SOL    HW2 7307   0.535   6.307   0.342
 2421SOL     OW 7308   1.277   5.944   0.933
 2421SOL    HW1 7309   1.184   5.910   0.940
 2421SOL    HW2 7310   1.337   5.892   0.994
 2422SOL     OW 7311   0.790   6.197   1.451
 2422SOL    HW1 7312   0.765   6.173   1.544
 2422SOL    HW2 7313   0.752   6.130   1.387
 2423SOL     OW 7314   1.391   6.056   1.680
 2423SOL    HW1 7315   1.392   6.105   1.767
 2423SOL    HW2 7316   1.452   5.977   1.686
 2424SOL     OW 7317   0.956   6.473   1.584
 2424SOL    HW1 7318   1.014   6.400   1.548
 2424SOL    HW2 7319   0.901   6.511   1.510
 2425SOL     OW 7320   0.994   5.992   1.229
 2425SOL    HW1 7321   0.904   6.014   1.268
 2425SOL    HW2 7322   0.982   5.943   1.143
 2426SOL     OW 7323   1.052   6.287   0.427
 2426SOL    HW1 7324   1.074   6.284   0.525
 2426SOL    HW2 7325   0.965   6.239   0.412
 2427SOL     OW 7326   0.104   6.403   0.772
 2427SOL    HW1 7327   0.195   6.392   0.812
 2427SOL    HW2 7328   0.042   6.442   0.840
 2428SOL     OW 7329   0.887   5.927   0.210
 2428SOL    HW1 7330   0.930   5.990   0.145
 2428SOL    HW2 7331   0.904   5.833   0.182
 2429SOL     OW 7332   1.701   6.158   1.825
 2429SOL    HW1 7333   1.665   6.237   1.775
 2429SOL    HW2 7334   1.731   6.088   1.761
 2430SOL     OW 7335   1.391   6.723   0.559
 2430SOL    HW1 7336   1.482   6.715   0.517
 2430SOL    HW2 7337   1.352   6.812   0.536
 2431SOL     OW 7338   0.552   5.764   0.900
 2431SOL    HW1 7339   0.556   5.789   0.997
 2431SOL    HW2 7340   0.559   5.847   0.844
 2432SOL     OW 7341   1.800   6.639   0.877
 2432SOL    HW1 7342   1.748   6.625   0.793
 2432SOL    HW2 7343   1.736   6.646   0.954
 2433SOL     OW 7344   0.320   6.519   0.247
 2433SOL    HW1 7345   0.405   6.544   0.200
 2433SOL    HW2 7346   0.290   6.429   0.216
 2434SOL     OW 7347   1.484   6.330   0.723
 2434SOL    HW1 7348   1.479   6.289   0.814
 2434SOL    HW2 7349   1.563   6.390   0.717
 2435SOL     OW 7350   0.196   5.854   1.490
 2435SOL    HW1 7351   0.113   5.908   1.475
 2435SOL    HW2 7352   0.172   5.769   1.538
 2436SOL     OW 7353   1.647   0.027   0.079
 2436SOL    HW1 7354   1.624   0.123   0.095
 2436SOL    HW2 7355   1.563   6.973   0.081
 2437SOL     OW 7356   1.405   5.691   0.443
 2437SOL    HW1 7357   1.396   5.663   0.347
 2437SOL    HW2 7358   1.501   5.702   0.466
 2438SOL     OW 7359   0.403   6.272   0.469
 2438SOL    HW1 7360   0.423   6.176   0.488
 2438SOL    HW2 7361   0.307   6.290   0.489
 2439SOL     OW 7362   1.528   5.809   1.728
 2439SOL    HW1 7363   1.539   5.830   1.825
 2439SOL    HW2 7364   1.456   5.740   1.716
 2440SOL     OW 7365   0.763   5.863   1.757
 2440SOL    HW1 7366   0.848   5.810   1.750
 2440SOL    HW2 7367   0.711   5.832   1.837
 2441SOL     OW 7368   1.339   6.174   1.436
 2441SOL    HW1 7369   1.370   6.139   1.524
 2441SOL    HW2 7370   1.376   6.266   1.422
 2442SOL     OW 7371   0.927   6.091   0.899
 2442SOL    HW1 7372   0.900   6.084   0.803
 2442SOL    HW2 7373   0.960   6.003   0.931
 2443SOL     OW 7374   0.551   5.654   0.502
 2443SOL    HW1 7375   0.470   5.654   0.560
 2443SOL    HW2 7376   0.546   5.730   0.437
 2444SOL     OW 7377   1.417   6.795   0.038
 2444SOL    HW1 7378   1.466   6.725   0.090
 2444SOL    HW2 7379   1.336   6.754   6.995
 2445SOL     OW 7380   0.950   5.836   0.462
 2445SOL    HW1 7381   0.917   5.876   0.377
 2445SOL    HW2 7382   1.048   5.850   0.471
 2446SOL     OW 7383   1.080   6.269   1.456
 2446SOL    HW1 7384   1.005   6.203   1.462
 2446SOL    HW2 7385   1.167   6.220   1.452
 2447SOL     OW 7386   1.269   0.147   0.741
 2447SOL    HW1 7387   1.237   0.231   0.696
 2447SOL    HW2 7388   1.281   0.164   0.838
 2448SOL     OW 7389   0.464   6.710   0.738
 2448SOL    HW1 7390   0.395   6.702   0.810
 2448SOL    HW2 7391   0.420   6.715   0.649
 2449SOL     OW 7392   1.067   6.178   0.031
 2449SOL    HW1 7393   0.969   6.189   0.049
 2449SOL    HW2 7394   1.114   6.156   0.116
 2450SOL     OW 7395   0.073   6.138   1.375
 2450SOL    HW1 7396   0.169   6.130   1.347
 2450SOL    HW2 7397   0.066   6.206   1.449
 2451SOL     OW 7398   0.565   5.808   1.171
 2451SOL    HW1 7399   0.615   5.732   1.212
 2451SOL    HW2 7400   0.470   5.806   1.202
 2452SOL     OW 7401   0.864   6.042   0.639
 2452SOL    HW1 7402   0.823   6.106   0.574
 2452SOL    HW2 7403   0.894   5.960   0.590
 2453SOL     OW 7404   1.016   5.638   0.745
 2453SOL    HW1 7405   0.954   5.636   0.666
 2453SOL    HW2 7406   0.993   5.563   0.807
 2454SOL     OW 7407   1.440   6.732   0.862
 2454SOL    HW1 7408   1.363   6.668   0.863
 2454SOL    HW2 7409   1.470   6.746   0.768
 2455SOL     OW 7410   1.468   6.191   0.970
 2455SOL    HW1 7411   1.406   6.113   0.971
 2455SOL    HW2 7412   1.529   6.186   1.050
 2456SOL     OW 7413   1.836   6.394   0.385
 2456SOL    HW1 7414   1.892   6.335   0.443
 2456SOL    HW2 7415   1.824   6.351   0.296
 2457SOL     OW 7416   1.679   6.831   0.653
 2457SOL    HW1 7417   1.777   6.844   0.670
 2457SOL    HW2 7418   1.631   6.917   0.669
 2458SOL     OW 7419   1.390   6.140   0.068
 2458SOL    HW1 7420   1.330   6.137   0.148
 2458SOL    HW2 7421   1.453   6.062   0.071
 2459SOL     OW 7422   0.513   5.846   0.313
 2459SOL    HW1 7423   0.518   5.779   0.238
 2459SOL    HW2 7424   0.492   5.936   0.276
 2460SOL     OW 7425   1.754   6.813   1.567
 2460SOL    HW1 7426   1.838   6.763   1.588
 2460SOL    HW2 7427   1.770   6.911   1.578
 2461SOL     OW 7428   1.076   6.895   1.326
 2461SOL    HW1 7429   0.996   6.879   1.385
 2461SOL    HW2 7430   1.159   6.877   1.379
 2462SOL     OW 7431   1.136   6.761   1.100
 2462SOL    HW1 7432   1.104   6.811   1.181
 2462SOL    HW2 7433   1.080   6.785   1.022
 2463SOL     OW 7434   1.623   6.681   1.082
 2463SOL    HW1 7435   1.611   6.737   1.164
 2463SOL    HW2 7436   1.547   6.697   1.020
 2464SOL     OW 7437   0.923   5.681   1.391
 2464SOL    HW1 7438   0.944   5.657   1.297
 2464SOL    HW2 7439   1.002   5.724   1.434
 2465SOL     OW 7440   0.967   6.696   1.738
 2465SOL    HW1 7441   0.869   6.710   1.755
 2465SOL    HW2 7442   0.980   6.622   1.672
 2466SOL     OW 7443   0.707   6.632   0.373
 2466SOL    HW1 7444   0.693   6.622   0.472
 2466SOL    HW2 7445   0.789   6.582   0.346
 2467SOL     OW 7446   0.429   6.389   1.249
 2467SOL    HW1 7447   0.499   6.405   1.319
 2467SOL    HW2 7448   0.386   6.300   1.264
 2468SOL     OW 7449   1.262   5.962   1.280
 2468SOL    HW1 7450   1.299   6.041   1.329
 2468SOL    HW2 7451   1.167   5.980   1.255
 2469SOL     OW 7452   0.031   0.145   1.352
 2469SOL    HW1 7453   6.954   0.208   1.343
 2469SOL    HW2 7454   0.093   0.179   1.423
 2470SOL     OW 7455   0.343   6.706   0.489
 2470SOL    HW1 7456   0.396   6.777   0.442
 2470SOL    HW2 7457   0.343   6.622   0.434
 2471SOL     OW 7458   0.550   6.127   0.859
 2471SOL    HW1 7459   0.563   6.189   0.782
 2471SOL    HW2 7460   0.617   6.147   0.930
 2472SOL     OW 7461   1.585   6.214   0.479
 2472SOL    HW1 7462   1.529   6.254   0.552
 2472SOL    HW2 7463   1.639   6.286   0.436
 2473SOL     OW 7464   0.424   6.318   1.598
 2473SOL    HW1 7465   0.486   6.370   1.539
 2473SOL    HW2 7466   0.467   6.230   1.622
 2474SOL     OW 7467   1.607   6.370   1.684
 2474SOL    HW1 7468   1.516   6.410   1.682
 2474SOL    HW2 7469   1.664   6.411   1.613
 2475SOL     OW 7470   0.997   5.720   1.749
 2475SOL    HW1 7471   1.056   5.800   1.734
 2475SOL    HW2 7472   1.046   5.637   1.724
 2476SOL     OW 7473   0.496   5.622   1.749
 2476SOL    HW1 7474   0.450   5.566   1.680
 2476SOL    HW2 7475   0.440   5.702   1.769
 2477SOL     OW 7476   0.586   6.451   1.033
 2477SOL    HW1 7477   0.606   6.549   1.021
 2477SOL    HW2 7478   0.526   6.439   1.112
 2478SOL     OW 7479   1.357   6.439   1.027
 2478SOL    HW1 7480   1.266   6.437   0.985
 2478SOL    HW2 7481   1.401   6.350   1.014
 2479SOL     OW 7482   1.195   6.108   0.272
 2479SOL    HW1 7483   1.214   6.030   0.331
 2479SOL    HW2 7484   1.155   6.182   0.326
 2480SOL     OW 7485   0.308   5.781   1.246
 2480SOL    HW1 7486   0.268   5.817   1.330
 2480SOL    HW2 7487   0.291   5.683   1.240
 2481SOL     OW 7488   0.111   6.902   1.271
 2481SOL    HW1 7489   0.113   6.829   1.339
 2481SOL    HW2 7490   0.068   6.983   1.310
 2482SOL     OW 7491   0.724   6.214   1.054
 2482SOL    HW1 7492   0.802   6.195   0.994
 2482SOL    HW2 7493   0.690   6.306   1.037
 2483SOL     OW 7494   1.735   6.547   1.853
 2483SOL    HW1 7495   1.691   6.477   1.797
 2483SOL    HW2 7496   1.679   6.563   1.935
 2484SOL     OW 7497   0.311   5.659   0.631
 2484SOL    HW1 7498   0.288   5.753   0.654
 2484SOL    HW2 7499   0.321   5.606   0.716
 2485SOL     OW 7500   1.631   5.969   0.368
 2485SOL    HW1 7501   1.646   5.896   0.435
 2485SOL    HW2 7502   1.603   6.052   0.416
 2486SOL     OW 7503   1.024   6.339   0.958
 2486SOL    HW1 7504   1.020   6.362   1.056
 2486SOL    HW2 7505   0.997   6.244   0.945
 2487SOL     OW 7506   1.855   0.065   1.600
 2487SOL    HW1 7507   1.891   0.141   1.547
 2487SOL    HW2 7508   1.910   0.054   1.683
 2488SOL     OW 7509   0.368   6.503   1.795
 2488SOL    HW1 7510   0.441   6.517   1.862
 2488SOL    HW2 7511   0.396   6.432   1.730
 2489SOL     OW 7512   1.489   5.880   0.147
 2489SOL    HW1 7513   1.450   5.789   0.160
 2489SOL    HW2 7514   1.543   5.904   0.228
 2490SOL     OW 7515   1.294   6.411   0.031
 2490SOL    HW1 7516   1.336   6.321   0.023
 2490SOL    HW2 7517   1.324   6.469   6.955
 2491SOL     OW 7518   0.319   6.384   0.941
 2491SOL    HW1 7519   0.415   6.410   0.939
 2491SOL    HW2 7520   0.309   6.293   0.981
 2492SOL     OW 7521   0.331   6.106   1.014
 2492SOL    HW1 7522   0.292   6.015   1.000
 2492SOL    HW2 7523   0.411   6.118   0.954
 2493SOL     OW 7524   1.134   5.959   1.692
 2493SOL    HW1 7525   1.081   6.015   1.755
 2493SOL    HW2 7526   1.226   5.996   1.683
 2494SOL     OW 7527   1.161   5.789   1.475
 2494SOL    HW1 7528   1.147   5.852   1.552
 2494SOL    HW2 7529   1.204   5.839   1.400
 2495SOL     OW 7530   0.011   6.906   0.213
 2495SOL    HW1 7531   6.931   6.928   0.269
 2495SOL    HW2 7532   0.049   6.818   0.241
 2496SOL     OW 7533   0.975   6.378   1.225
 2496SOL    HW1 7534   1.035   6.354   1.301
 2496SOL    HW2 7535   0.886   6.333   1.238
 2497SOL     OW 7536   0.049   6.191   1.105
 2497SOL    HW1 7537   0.125   6.143   1.061
 2497SOL    HW2 7538   0.050   6.172   1.204
 2498SOL     OW 7539   0.209   6.098   1.724
 2498SOL    HW1 7540   0.283   6.051   1.677
 2498SOL    HW2 7541   0.188   6.183   1.677
 2499SOL     OW 7542   1.380   6.523   1.655
 2499SOL    HW1 7543   1.410   6.618   1.654
 2499SOL    HW2 7544   1.377   6.488   1.561
 2500SOL     OW 7545   0.817   6.155   0.372
 2500SOL    HW1 7546   0.826   6.077   0.310
 2500SOL    HW2 7547   0.741   6.212   0.342
 2501SOL     OW 7548   1.642   6.188   1.181
 2501SOL    HW1 7549   1.626   6.128   1.260
 2501SOL    HW2 7550   1.734   6.171   1.144
 2502SOL     OW 7551   0.706   6.034   1.254
 2502SOL    HW1 7552   0.652   5.954   1.229
 2502SOL    HW2 7553   0.704   6.101   1.180
 2503SOL     OW 7554   0.461   6.081   0.194
 2503SOL    HW1 7555   0.521   6.159   0.214
 2503SOL    HW2 7556   0.366   6.112   0.194
 2504SOL     OW 7557   0.187   6.706   1.480
 2504SOL    HW1 7558   0.166   6.643   1.555
 2504SOL    HW2 7559   0.199   6.655   1.395
 2505SOL     OW 7560   1.329   6.623   1.223
 2505SOL    HW1 7561   1.359   6.555   1.156
 2505SOL    HW2 7562   1.256   6.679   1.185
 2506SOL     OW 7563   1.302   6.433   0.304
 2506SOL    HW1 7564   1.222   6.404   0.357
 2506SOL    HW2 7565   1.285   6.415   0.207
 2507SOL     OW 7566   0.073   6.838   1.013
 2507SOL    HW1 7567   0.091   6.857   1.109
 2507SOL    HW2 7568   6.977   6.816   1.000
 2508SOL     OW 7569   0.939   5.664   0.112
 2508SOL    HW1 7570   1.009   5.719   0.066
 2508SOL    HW2 7571   0.981   5.603   0.178
 2509SOL     OW 7572   1.702   5.737   0.509
 2509SOL    HW1 7573   1.783   5.737   0.451
 2509SOL    HW2 7574   1.692   5.647   0.553
 2510SOL     OW 7575   1.281   6.506   0.671
 2510SOL    HW1 7576   1.356   6.441   0.686
 2510SOL    HW2 7577   1.316   6.585   0.619
 2511SOL     OW 7578   0.816   6.844   1.418
 2511SOL    HW1 7579   0.790   6.886   1.505
 2511SOL    HW2 7580   0.744   6.859   1.351
 2512SOL     OW 7581   1.843   5.756   0.963
 2512SOL    HW1 7582   1.876   5.664   0.941
 2512SOL    HW2 7583   1.751   5.767   0.924
 2513SOL     OW 7584   0.261   5.909   0.718
 2513SOL    HW1 7585   0.183   5.968   0.696
 2513SOL    HW2 7586   0.262   5.889   0.816
 2514SOL     OW 7587   0.826   6.581   1.370
 2514SOL    HW1 7588   0.883   6.558   1.292
 2514SOL    HW2 7589   0.830   6.680   1.387
 2515SOL     OW 7590   0.925   6.500   0.290
 2515SOL    HW1 7591   0.984   6.537   0.219
 2515SOL    HW2 7592   0.974   6.429   0.341
 2516SOL     OW 7593   0.389   6.895   1.512
 2516SOL    HW1 7594   0.355   6.970   1.455
 2516SOL    HW2 7595   0.327   6.817   1.506
 2517SOL     OW 7596   1.604   6.845   1.313
 2517SOL    HW1 7597   1.680   6.833   1.378
 2517SOL    HW2 7598   1.536   6.907   1.353
 2518SOL     OW 7599   1.061   6.697   0.730
 2518SOL    HW1 7600   0.981   6.646   0.763
 2518SOL    HW2 7601   1.126   6.634   0.689
 2519SOL     OW 7602   1.022   5.825   0.967
 2519SOL    HW1 7603   1.018   5.780   0.877
 2519SOL    HW2 7604   1.020   5.755   1.038
 2520SOL     OW 7605   1.731   5.980   1.380
 2520SOL    HW1 7606   1.804   6.049   1.381
 2520SOL    HW2 7607   1.757   5.905   1.320
 2521SOL     OW 7608   0.120   6.558   1.705
 2521SOL    HW1 7609   0.066   6.615   1.767
 2521SOL    HW2 7610   0.211   6.545   1.743
 2522SOL     OW 7611   0.683   5.781   1.499
 2522SOL    HW1 7612   0.769   5.757   1.456
 2522SOL    HW2 7613   0.701   5.814   1.592
 2523SOL     OW 7614   0.063   5.967   0.020
 2523SOL    HW1 7615   6.972   5.955   6.979
 2523SOL    HW2 7616   0.126   6.005   6.952
 2524SOL     OW 7617   1.426   6.438   1.398
 2524SOL    HW1 7618   1.373   6.502   1.344
 2524SOL    HW2 7619   1.521   6.438   1.366
 2525SOL     OW 7620   0.029   5.775   0.356
 2525SOL    HW1 7621   0.066   5.863   0.327
 2525SOL    HW2 7622   0.104   5.711   0.374
 2526SOL     OW 7623   0.623   6.413   1.435
 2526SOL    HW1 7624   0.681   6.492   1.415
 2526SOL    HW2 7625   0.681   6.332   1.445
 2527SOL     OW 7626   0.719   6.144   1.704
 2527SOL    HW1 7627   0.766   6.211   1.762
 2527SOL    HW2 7628   0.739   6.052   1.736
 2528SOL     OW 7629   1.485   6.778   1.646
 2528SOL    HW1 7630   1.472   6.797   1.743
 2528SOL    HW2 7631   1.581   6.793   1.622
 2529SOL     OW 7632   1.667   6.461   1.254
 2529SOL    HW1 7633   1.661   6.370   1.212
 2529SOL    HW2 7634   1.654   6.531   1.183
 2530SOL     OW 7635   1.222   5.901   0.461
 2530SOL    HW1 7636   1.287   5.825   0.453
 2530SOL    HW2 7637   1.246   5.956   0.540
 2531SOL     OW 7638   0.588   6.322   0.668
 2531SOL    HW1 7639   0.629   6.412   0.662
 2531SOL    HW2 7640   0.519   6.312   0.596
 2532SOL     OW 7641   1.751   5.950   1.652
 2532SOL    HW1 7642   1.741   5.967   1.554
 2532SOL    HW2 7643   1.677   5.891   1.683
 2533SOL     OW 7644   1.744   6.519   1.507
 2533SOL    HW1 7645   1.737   6.618   1.524
 2533SOL    HW2 7646   1.729   6.502   1.410
 2534SOL     OW 7647   0.867   6.550   0.858
 2534SOL    HW1 7648   0.921   6.473   0.893
 2534SOL    HW2 7649   0.836   6.606   0.935
 2535SOL     OW 7650   1.090   6.586   0.085
 2535SOL    HW1 7651   1.034   6.590   0.002
 2535SOL    HW2 7652   1.167   6.524   0.070
 2536SOL     OW 7653   0.249   6.871   1.853
 2536SOL    HW1 7654   0.153   6.872   1.826
 2536SOL    HW2 7655   0.264   6.935   1.929
 2537SOL     OW 7656   0.170   6.858   0.665
 2537SOL    HW1 7657   0.105   6.812   0.725
 2537SOL    HW2 7658   0.211   6.792   0.602
 2538SOL     OW 7659   0.709   6.970   1.631
 2538SOL    HW1 7660   0.612   6.962   1.654
 2538SOL    HW2 7661   0.730   0.065   1.610
 2539SOL     OW 7662   1.805   5.769   1.233
 2539SOL    HW1 7663   1.819   5.673   1.258
 2539SOL    HW2 7664   1.818   5.780   1.135
 2540SOL     OW 7665   0.437   6.013   0.527
 2540SOL    HW1 7666   0.485   5.942   0.476
 2540SOL    HW2 7667   0.399   5.975   0.610
 2541SOL     OW 7668   1.645   0.044   1.138
 2541SOL    HW1 7669   1.598   0.028   1.051
 2541SOL    HW2 7670   1.640   6.961   1.194
 2542SOL     OW 7671   0.331   6.137   1.291
 2542SOL    HW1 7672   0.387   6.081   1.352
 2542SOL    HW2 7673   0.348   6.111   1.197
 2543SOL     OW 7674   1.430   5.817   1.117
 2543SOL    HW1 7675   1.452   5.726   1.153
 2543SOL    HW2 7676   1.376   5.868   1.183
 2544SOL     OW 7677   1.010   5.602   1.138
 2544SOL    HW1 7678   0.946   5.538   1.095
 2544SOL    HW2 7679   1.101   5.562   1.139
 2545SOL     OW 7680   0.809   6.877   0.289
 2545SOL    HW1 7681   0.765   6.791   0.312
 2545SOL    HW2 7682   0.823   6.932   0.371
 2546SOL     OW 7683   1.361   5.630   0.180
 2546SOL    HW1 7684   1.404   5.567   0.116
 2546SOL    HW2 7685   1.267   5.600   0.197
 2547SOL     OW 7686   1.289   6.049   0.680
 2547SOL    HW1 7687   1.237   6.135   0.683
 2547SOL    HW2 7688   1.288   6.007   0.771
 2548SOL     OW 7689   1.587   5.790   0.884
 2548SOL    HW1 7690   1.528   5.809   0.963
 2548SOL    HW2 7691   1.588   5.870   0.823
 2549SOL     OW 7692   0.080   6.647   0.293
 2549SOL    HW1 7693   0.170   6.602   0.296
 2549SOL    HW2 7694   0.008   6.578   0.300
 2550SOL     OW 7695   0.188   6.240   1.983
 2550SOL    HW1 7696   0.176   6.174   2.058
 2550SOL    HW2 7697   0.225   6.193   1.903
 2551SOL     OW 7698   0.231   5.857   2.850
 2551SOL    HW1 7699   0.281   5.825   2.930
 2551SOL    HW2 7700   0.133   5.841   2.863
 2552SOL     OW 7701   6.989   5.970   2.515
 2552SOL    HW1 7702   6.942   5.967   2.603
 2552SOL    HW2 7703   0.011   5.878   2.486
 2553SOL     OW 7704   0.570   6.871   3.036
 2553SOL    HW1 7705   0.494   6.870   2.971
 2553SOL    HW2 7706   0.543   6.922   3.118
 2554SOL     OW 7707   1.541   0.055   2.552
 2554SOL    HW1 7708   1.520   0.050   2.649
 2554SOL    HW2 7709   1.462   0.090   2.502
 2555SOL     OW 7710   1.132   6.287   2.557
 2555SOL    HW1 7711   1.184   6.370   2.541
 2555SOL    HW2 7712   1.081   6.295   2.643
 2556SOL     OW 7713   1.771   6.183   2.084
 2556SOL    HW1 7714   1.747   6.179   1.987
 2556SOL    HW2 7715   1.731   6.104   2.131
 2557SOL     OW 7716   0.766   6.750   2.887
 2557SOL    HW1 7717   0.697   6.784   2.950
 2557SOL    HW2 7718   0.762   6.801   2.801
 2558SOL     OW 7719   0.875   6.351   3.684
 2558SOL    HW1 7720   0.860   6.417   3.757
 2558SOL    HW2 7721   0.900   6.399   3.599
 2559SOL     OW 7722   0.686   6.584   2.510
 2559SOL    HW1 7723   0.756   6.574   2.580
 2559SOL    HW2 7724   0.609   6.636   2.548
 2560SOL     OW 7725   0.689   6.734   3.677
 2560SOL    HW1 7726   0.728   6.824   3.694
 2560SOL    HW2 7727   0.606   6.743   3.623
 2561SOL     OW 7728   0.343   0.007   2.911
 2561SOL    HW1 7729   0.270   6.954   2.868
 2561SOL    HW2 7730   0.393   0.058   2.840
 2562SOL     OW 7731   0.443   5.981   3.354
 2562SOL    HW1 7732   0.526   5.924   3.356
 2562SOL    HW2 7733   0.363   5.922   3.363
 2563SOL     OW 7734   1.611   6.032   2.606
 2563SOL    HW1 7735   1.535   6.051   2.544
 2563SOL    HW2 7736   1.619   6.107   2.671
 2564SOL     OW 7737   0.266   6.670   2.778
 2564SOL    HW1 7738   0.256   6.574   2.804
 2564SOL    HW2 7739   0.191   6.723   2.818
 2565SOL     OW 7740   0.578   6.565   2.005
 2565SOL    HW1 7741   0.623   6.616   1.931
 2565SOL    HW2 7742   0.618   6.591   2.093
 2566SOL     OW 7743   1.597   5.711   3.331
 2566SOL    HW1 7744   1.616   5.791   3.274
 2566SOL    HW2 7745   1.582   5.740   3.426
 2567SOL     OW 7746   0.132   6.200   2.436
 2567SOL    HW1 7747   0.063   6.131   2.459
 2567SOL    HW2 7748   0.122   6.279   2.497
 2568SOL     OW 7749   1.689   6.502   2.506
 2568SOL    HW1 7750   1.777   6.458   2.492
 2568SOL    HW2 7751   1.667   6.558   2.426
 2569SOL     OW 7752   1.652   6.692   2.288
 2569SOL    HW1 7753   1.741   6.686   2.243
 2569SOL    HW2 7754   1.660   6.751   2.369
 2570SOL     OW 7755   0.146   6.317   3.443
 2570SOL    HW1 7756   0.245   6.325   3.427
 2570SOL    HW2 7757   0.111   6.404   3.477
 2571SOL     OW 7758   1.314   6.817   3.293
 2571SOL    HW1 7759   1.338   6.747   3.226
 2571SOL    HW2 7760   1.373   6.808   3.373
 2572SOL     OW 7761   0.817   5.595   2.370
 2572SOL    HW1 7762   0.862   5.681   2.348
 2572SOL    HW2 7763   0.718   5.611   2.378
 2573SOL     OW 7764   0.212   6.554   3.127
 2573SOL    HW1 7765   0.290   6.495   3.107
 2573SOL    HW2 7766   0.134   6.526   3.071
 2574SOL     OW 7767   1.535   6.587   2.064
 2574SOL    HW1 7768   1.462   6.527   2.093
 2574SOL    HW2 7769   1.583   6.623   2.144
 2575SOL     OW 7770   0.353   5.837   3.693
 2575SOL    HW1 7771   0.401   5.920   3.722
 2575SOL    HW2 7772   0.256   5.846   3.715
 2576SOL     OW 7773   1.458   6.988   2.809
 2576SOL    HW1 7774   1.389   0.013   2.877
 2576SOL    HW2 7775   1.442   6.894   2.778
 2577SOL     OW 7776   0.589   6.300   2.129
 2577SOL    HW1 7777   0.597   6.388   2.082
 2577SOL    HW2 7778   0.526   6.309   2.206
 2578SOL     OW 7779   1.277   5.944   2.795
 2578SOL    HW1 7780   1.184   5.910   2.802
 2578SOL    HW2 7781   1.336   5.892   2.857
 2579SOL     OW 7782   0.790   6.197   3.313
 2579SOL    HW1 7783   0.765   6.173   3.407
 2579SOL    HW2 7784   0.753   6.130   3.250
 2580SOL     OW 7785   1.391   6.056   3.542
 2580SOL    HW1 7786   1.392   6.105   3.629
 2580SOL    HW2 7787   1.452   5.977   3.548
 2581SOL     OW 7788   0.956   6.473   3.446
 2581SOL    HW1 7789   1.014   6.400   3.410
 2581SOL    HW2 7790   0.901   6.511   3.372
 2582SOL     OW 7791   0.994   5.992   3.091
 2582SOL    HW1 7792   0.904   6.013   3.129
 2582SOL    HW2 7793   0.983   5.943   3.005
 2583SOL     OW 7794   1.049   6.285   2.286
 2583SOL    HW1 7795   1.071   6.280   2.384
 2583SOL    HW2 7796   0.963   6.238   2.269
 2584SOL     OW 7797   0.102   6.404   2.635
 2584SOL    HW1 7798   0.194   6.392   2.673
 2584SOL    HW2 7799   0.041   6.441   2.705
 2585SOL     OW 7800   0.896   5.938   2.059
 2585SOL    HW1 7801   0.936   6.005   1.997
 2585SOL    HW2 7802   0.902   5.847   2.018
 2586SOL     OW 7803   1.701   6.158   3.687
 2586SOL    HW1 7804   1.665   6.237   3.637
 2586SOL    HW2 7805   1.731   6.088   3.623
 2587SOL     OW 7806   1.387   6.722   2.409
 2587SOL    HW1 7807   1.467   6.715   2.349
 2587SOL    HW2 7808   1.335   6.803   2.384
 2588SOL     OW 7809   0.551   5.761   2.761
 2588SOL    HW1 7810   0.556   5.790   2.857
 2588SOL    HW2 7811   0.554   5.841   2.701
 2589SOL     OW 7812   1.798   6.639   2.739
 2589SOL    HW1 7813   1.747   6.629   2.654
 2589SOL    HW2 7814   1.735   6.646   2.816
 2590SOL     OW 7815   0.318   6.528   2.116
 2590SOL    HW1 7816   0.404   6.554   2.072
 2590SOL    HW2 7817   0.285   6.441   2.079
 2591SOL     OW 7818   1.484   6.332   2.585
 2591SOL    HW1 7819   1.480   6.290   2.675
 2591SOL    HW2 7820   1.564   6.393   2.581
 2592SOL     OW 7821   0.196   5.854   3.353
 2592SOL    HW1 7822   0.113   5.908   3.336
 2592SOL    HW2 7823   0.172   5.769   3.400
 2593SOL     OW 7824   1.640   6.969   1.947
 2593SOL    HW1 7825   1.607   0.062   1.965
 2593SOL    HW2 7826   1.562   6.908   1.933
 2594SOL     OW 7827   1.401   5.690   2.298
 2594SOL    HW1 7828   1.389   5.664   2.202
 2594SOL    HW2 7829   1.499   5.699   2.318
 2595SOL     OW 7830   0.402   6.268   2.336
 2595SOL    HW1 7831   0.429   6.174   2.357
 2595SOL    HW2 7832   0.304   6.280   2.355
 2596SOL     OW 7833   1.528   5.809   3.590
 2596SOL    HW1 7834   1.539   5.830   3.687
 2596SOL    HW2 7835   1.455   5.741   3.578
 2597SOL     OW 7836   0.642   5.702   1.964
 2597SOL    HW1 7837   0.710   5.632   1.985
 2597SOL    HW2 7838   0.585   5.671   1.888
 2598SOL     OW 7839   0.763   5.863   3.619
 2598SOL    HW1 7840   0.848   5.810   3.612
 2598SOL    HW2 7841   0.711   5.832   3.699
 2599SOL     OW 7842   1.339   6.174   3.298
 2599SOL    HW1 7843   1.369   6.139   3.386
 2599SOL    HW2 7844   1.375   6.266   3.284
 2600SOL     OW 7845   0.927   6.092   2.760
 2600SOL    HW1 7846   0.901   6.085   2.664
 2600SOL    HW2 7847   0.960   6.003   2.793
 2601SOL     OW 7848   0.546   5.650   2.358
 2601SOL    HW1 7849   0.464   5.646   2.414
 2601SOL    HW2 7850   0.543   5.730   2.298
 2602SOL     OW 7851   1.419   6.788   1.921
 2602SOL    HW1 7852   1.472   6.718   1.968
 2602SOL    HW2 7853   1.325   6.755   1.907
 2603SOL     OW 7854   0.291   5.628   2.049
 2603SOL    HW1 7855   0.341   5.709   2.017
 2603SOL    HW2 7856   0.356   5.563   2.088
 2604SOL     OW 7857   0.946   5.837   2.319
 2604SOL    HW1 7858   0.915   5.878   2.233
 2604SOL    HW2 7859   1.045   5.850   2.328
 2605SOL     OW 7860   1.079   6.269   3.318
 2605SOL    HW1 7861   1.004   6.203   3.323
 2605SOL    HW2 7862   1.166   6.220   3.313
 2606SOL     OW 7863   1.270   0.148   2.602
 2606SOL    HW1 7864   1.237   0.232   2.558
 2606SOL    HW2 7865   1.281   0.163   2.700
 2607SOL     OW 7866   0.465   6.709   2.601
 2607SOL    HW1 7867   0.395   6.702   2.672
 2607SOL    HW2 7868   0.421   6.713   2.511
 2608SOL     OW 7869   1.021   6.122   1.892
 2608SOL    HW1 7870   0.976   6.208   1.868
 2608SOL    HW2 7871   1.090   6.138   1.962
 2609SOL     OW 7872   0.074   6.138   3.238
 2609SOL    HW1 7873   0.169   6.130   3.209
 2609SOL    HW2 7874   0.066   6.206   3.311
 2610SOL     OW 7875   0.565   5.809   3.033
 2610SOL    HW1 7876   0.614   5.732   3.072
 2610SOL    HW2 7877   0.470   5.807   3.064
 2611SOL     OW 7878   0.866   6.044   2.499
 2611SOL    HW1 7879   0.815   6.106   2.439
 2611SOL    HW2 7880   0.894   5.963   2.448
 2612SOL     OW 7881   1.017   5.639   2.607
 2612SOL    HW1 7882   0.957   5.639   2.528
 2612SOL    HW2 7883   0.993   5.563   2.668
 2613SOL     OW 7884   1.441   6.733   2.720
 2613SOL    HW1 7885   1.364   6.669   2.722
 2613SOL    HW2 7886   1.471   6.746   2.625
 2614SOL     OW 7887   1.468   6.192   2.832
 2614SOL    HW1 7888   1.406   6.114   2.832
 2614SOL    HW2 7889   1.529   6.186   2.911
 2615SOL     OW 7890   1.842   6.391   2.242
 2615SOL    HW1 7891   1.900   6.344   2.309
 2615SOL    HW2 7892   1.814   6.326   2.171
 2616SOL     OW 7893   1.680   6.831   2.510
 2616SOL    HW1 7894   1.778   6.842   2.527
 2616SOL    HW2 7895   1.633   6.917   2.530
 2617SOL     OW 7896   1.390   6.160   1.933
 2617SOL    HW1 7897   1.327   6.138   2.007
 2617SOL    HW2 7898   1.483   6.133   1.959
 2618SOL     OW 7899   0.530   5.847   2.171
 2618SOL    HW1 7900   0.578   5.793   2.102
 2618SOL    HW2 7901   0.502   5.935   2.132
 2619SOL     OW 7902   1.754   6.813   3.429
 2619SOL    HW1 7903   1.838   6.763   3.450
 2619SOL    HW2 7904   1.770   6.911   3.440
 2620SOL     OW 7905   1.076   6.895   3.188
 2620SOL    HW1 7906   0.996   6.879   3.246
 2620SOL    HW2 7907   1.159   6.877   3.241
 2621SOL     OW 7908   1.137   6.763   2.962
 2621SOL    HW1 7909   1.104   6.811   3.043
 2621SOL    HW2 7910   1.078   6.783   2.884
 2622SOL     OW 7911   1.623   6.681   2.944
 2622SOL    HW1 7912   1.611   6.737   3.026
 2622SOL    HW2 7913   1.546   6.698   2.882
 2623SOL     OW 7914   0.923   5.681   3.254
 2623SOL    HW1 7915   0.944   5.658   3.159
 2623SOL    HW2 7916   1.002   5.724   3.296
 2624SOL     OW 7917   0.967   6.696   3.600
 2624SOL    HW1 7918   0.869   6.710   3.617
 2624SOL    HW2 7919   0.980   6.622   3.534
 2625SOL     OW 7920   0.707   6.637   2.232
 2625SOL    HW1 7921   0.695   6.629   2.331
 2625SOL    HW2 7922   0.789   6.587   2.204
 2626SOL     OW 7923   0.429   6.390   3.111
 2626SOL    HW1 7924   0.499   6.405   3.181
 2626SOL    HW2 7925   0.386   6.301   3.126
 2627SOL     OW 7926   1.262   5.962   3.142
 2627SOL    HW1 7927   1.299   6.041   3.191
 2627SOL    HW2 7928   1.167   5.980   3.117
 2628SOL     OW 7929   0.031   0.145   3.214
 2628SOL    HW1 7930   6.954   0.208   3.205
 2628SOL    HW2 7931   0.093   0.179   3.285
 2629SOL     OW 7932   0.338   6.705   2.354
 2629SOL    HW1 7933   0.387   6.777   2.305
 2629SOL    HW2 7934   0.332   6.624   2.297
 2630SOL     OW 7935   0.549   6.129   2.725
 2630SOL    HW1 7936   0.563   6.188   2.646
 2630SOL    HW2 7937   0.618   6.150   2.794
 2631SOL     OW 7938   1.577   6.207   2.344
 2631SOL    HW1 7939   1.528   6.254   2.417
 2631SOL    HW2 7940   1.628   6.275   2.290
 2632SOL     OW 7941   0.424   6.318   3.460
 2632SOL    HW1 7942   0.486   6.370   3.401
 2632SOL    HW2 7943   0.466   6.230   3.483
 2633SOL     OW 7944   1.607   6.370   3.546
 2633SOL    HW1 7945   1.516   6.410   3.544
 2633SOL    HW2 7946   1.664   6.411   3.475
 2634SOL     OW 7947   0.997   5.720   3.612
 2634SOL    HW1 7948   1.056   5.800   3.596
 2634SOL    HW2 7949   1.046   5.637   3.586
 2635SOL     OW 7950   0.495   5.621   3.611
 2635SOL    HW1 7951   0.450   5.566   3.542
 2635SOL    HW2 7952   0.440   5.702   3.631
 2636SOL     OW 7953   0.587   6.452   2.896
 2636SOL    HW1 7954   0.605   6.549   2.883
 2636SOL    HW2 7955   0.526   6.439   2.974
 2637SOL     OW 7956   1.357   6.439   2.888
 2637SOL    HW1 7957   1.265   6.437   2.848
 2637SOL    HW2 7958   1.401   6.351   2.876
 2638SOL     OW 7959   1.197   6.113   2.126
 2638SOL    HW1 7960   1.210   6.030   2.181
 2638SOL    HW2 7961   1.152   6.183   2.182
 2639SOL     OW 7962   0.308   5.781   3.108
 2639SOL    HW1 7963   0.268   5.817   3.193
 2639SOL    HW2 7964   0.291   5.683   3.102
 2640SOL     OW 7965   0.112   6.902   3.133
 2640SOL    HW1 7966   0.113   6.828   3.201
 2640SOL    HW2 7967   0.068   6.983   3.173
 2641SOL     OW 7968   0.727   6.215   2.918
 2641SOL    HW1 7969   0.803   6.196   2.856
 2641SOL    HW2 7970   0.691   6.307   2.899
 2642SOL     OW 7971   1.735   6.547   3.715
 2642SOL    HW1 7972   1.691   6.477   3.659
 2642SOL    HW2 7973   1.679   6.563   3.797
 2643SOL     OW 7974   0.301   5.647   2.486
 2643SOL    HW1 7975   0.281   5.743   2.505
 2643SOL    HW2 7976   0.313   5.598   2.573
 2644SOL     OW 7977   1.627   5.967   2.224
 2644SOL    HW1 7978   1.653   5.894   2.287
 2644SOL    HW2 7979   1.598   6.047   2.276
 2645SOL     OW 7980   1.024   6.340   2.820
 2645SOL    HW1 7981   1.020   6.362   2.917
 2645SOL    HW2 7982   0.998   6.244   2.806
 2646SOL     OW 7983   1.855   0.065   3.463
 2646SOL    HW1 7984   1.892   0.141   3.409
 2646SOL    HW2 7985   1.910   0.053   3.545
 2647SOL     OW 7986   0.368   6.503   3.657
 2647SOL    HW1 7987   0.441   6.517   3.724
 2647SOL    HW2 7988   0.396   6.432   3.592
 2648SOL     OW 7989   1.527   5.855   1.992
 2648SOL    HW1 7990   1.458   5.787   2.017
 2648SOL    HW2 7991   1.564   5.897   2.075
 2649SOL     OW 7992   1.288   6.410   1.885
 2649SOL    HW1 7993   1.329   6.320   1.896
 2649SOL    HW2 7994   1.319   6.451   1.799
 2650SOL     OW 7995   0.319   6.385   2.803
 2650SOL    HW1 7996   0.415   6.409   2.798
 2650SOL    HW2 7997   0.309   6.294   2.842
 2651SOL     OW 7998   0.329   6.106   2.876
 2651SOL    HW1 7999   0.291   6.015   2.861
 2651SOL    HW2 8000   0.410   6.118   2.818
 2652SOL     OW 8001   1.134   5.959   3.554
 2652SOL    HW1 8002   1.081   6.015   3.617
 2652SOL    HW2 8003   1.226   5.996   3.545
 2653SOL     OW 8004   1.162   5.789   3.337
 2653SOL    HW1 8005   1.147   5.851   3.414
 2653SOL    HW2 8006   1.204   5.839   3.262
 2654SOL     OW 8007   6.982   6.914   2.066
 2654SOL    HW1 8008   6.912   6.930   2.136
 2654SOL    HW2 8009   0.037   6.835   2.091
 2655SOL     OW 8010   0.975   6.378   3.086
 2655SOL    HW1 8011   1.034   6.354   3.163
 2655SOL    HW2 8012   0.886   6.332   3.097
 2656SOL     OW 8013   0.049   6.191   2.968
 2656SOL    HW1 8014   0.125   6.144   2.923
 2656SOL    HW2 8015   0.051   6.172   3.066
 2657SOL     OW 8016   0.209   6.098   3.586
 2657SOL    HW1 8017   0.284   6.051   3.538
 2657SOL    HW2 8018   0.188   6.183   3.539
 2658SOL     OW 8019   1.380   6.523   3.517
 2658SOL    HW1 8020   1.410   6.618   3.516
 2658SOL    HW2 8021   1.377   6.488   3.423
 2659SOL     OW 8022   0.817   6.159   2.220
 2659SOL    HW1 8023   0.827   6.078   2.162
 2659SOL    HW2 8024   0.737   6.212   2.190
 2660SOL     OW 8025   1.642   6.188   3.043
 2660SOL    HW1 8026   1.626   6.128   3.122
 2660SOL    HW2 8027   1.734   6.171   3.006
 2661SOL     OW 8028   0.707   6.034   3.117
 2661SOL    HW1 8029   0.652   5.955   3.091
 2661SOL    HW2 8030   0.704   6.101   3.043
 2662SOL     OW 8031   0.454   6.073   2.044
 2662SOL    HW1 8032   0.511   6.154   2.062
 2662SOL    HW2 8033   0.368   6.082   2.094
 2663SOL     OW 8034   0.187   6.706   3.342
 2663SOL    HW1 8035   0.166   6.643   3.417
 2663SOL    HW2 8036   0.199   6.655   3.257
 2664SOL     OW 8037   1.330   6.623   3.085
 2664SOL    HW1 8038   1.359   6.555   3.018
 2664SOL    HW2 8039   1.257   6.680   3.046
 2665SOL     OW 8040   1.316   6.447   2.158
 2665SOL    HW1 8041   1.244   6.416   2.220
 2665SOL    HW2 8042   1.289   6.430   2.064
 2666SOL     OW 8043   0.073   6.838   2.875
 2666SOL    HW1 8044   0.091   6.857   2.972
 2666SOL    HW2 8045   6.977   6.817   2.862
 2667SOL     OW 8046   1.719   5.736   2.361
 2667SOL    HW1 8047   1.795   5.726   2.296
 2667SOL    HW2 8048   1.702   5.648   2.406
 2668SOL     OW 8049   1.283   6.509   2.532
 2668SOL    HW1 8050   1.357   6.443   2.548
 2668SOL    HW2 8051   1.317   6.586   2.479
 2669SOL     OW 8052   0.816   6.844   3.280
 2669SOL    HW1 8053   0.790   6.886   3.367
 2669SOL    HW2 8054   0.744   6.858   3.212
 2670SOL     OW 8055   1.842   5.755   2.826
 2670SOL    HW1 8056   1.876   5.664   2.803
 2670SOL    HW2 8057   1.751   5.767   2.786
 2671SOL     OW 8058   0.263   5.902   2.576
 2671SOL    HW1 8059   0.187   5.965   2.556
 2671SOL    HW2 8060   0.265   5.883   2.674
 2672SOL     OW 8061   1.248   0.211   1.873
 2672SOL    HW1 8062   1.252   0.144   1.946
 2672SOL    HW2 8063   1.156   0.212   1.833
 2673SOL     OW 8064   0.826   6.581   3.233
 2673SOL    HW1 8065   0.883   6.558   3.154
 2673SOL    HW2 8066   0.831   6.680   3.249
 2674SOL     OW 8067   0.920   6.495   2.142
 2674SOL    HW1 8068   0.986   6.536   2.079
 2674SOL    HW2 8069   0.965   6.426   2.198
 2675SOL     OW 8070   0.389   6.896   3.374
 2675SOL    HW1 8071   0.355   6.970   3.317
 2675SOL    HW2 8072   0.327   6.817   3.368
 2676SOL     OW 8073   1.604   6.845   3.175
 2676SOL    HW1 8074   1.680   6.833   3.240
 2676SOL    HW2 8075   1.536   6.907   3.215
 2677SOL     OW 8076   1.063   6.695   2.589
 2677SOL    HW1 8077   0.983   6.646   2.623
 2677SOL    HW2 8078   1.129   6.629   2.552
 2678SOL     OW 8079   1.023   5.825   2.829
 2678SOL    HW1 8080   1.019   5.781   2.739
 2678SOL    HW2 8081   1.020   5.755   2.901
 2679SOL     OW 8082   1.731   5.980   3.243
 2679SOL    HW1 8083   1.804   6.049   3.243
 2679SOL    HW2 8084   1.757   5.905   3.182
 2680SOL     OW 8085   0.120   6.558   3.567
 2680SOL    HW1 8086   0.066   6.615   3.629
 2680SOL    HW2 8087   0.211   6.545   3.605
 2681SOL     OW 8088   0.683   5.781   3.362
 2681SOL    HW1 8089   0.769   5.757   3.318
 2681SOL    HW2 8090   0.701   5.814   3.454
 2682SOL     OW 8091   0.099   5.901   1.898
 2682SOL    HW1 8092   0.003   5.877   1.900
 2682SOL    HW2 8093   0.111   5.988   1.851
 2683SOL     OW 8094   1.426   6.438   3.260
 2683SOL    HW1 8095   1.372   6.502   3.206
 2683SOL    HW2 8096   1.521   6.438   3.228
 2684SOL     OW 8097   0.076   5.774   2.203
 2684SOL    HW1 8098   0.021   5.764   2.120
 2684SOL    HW2 8099   0.153   5.710   2.200
 2685SOL     OW 8100   0.624   6.413   3.297
 2685SOL    HW1 8101   0.681   6.492   3.277
 2685SOL    HW2 8102   0.681   6.332   3.307
 2686SOL     OW 8103   0.719   6.144   3.566
 2686SOL    HW1 8104   0.766   6.210   3.625
 2686SOL    HW2 8105   0.739   6.052   3.598
 2687SOL     OW 8106   1.485   6.778   3.508
 2687SOL    HW1 8107   1.472   6.797   3.606
 2687SOL    HW2 8108   1.581   6.793   3.484
 2688SOL     OW 8109   1.667   6.461   3.116
 2688SOL    HW1 8110   1.661   6.370   3.075
 2688SOL    HW2 8111   1.654   6.531   3.045
 2689SOL     OW 8112   1.220   5.903   2.321
 2689SOL    HW1 8113   1.283   5.826   2.311
 2689SOL    HW2 8114   1.246   5.958   2.400
 2690SOL     OW 8115   0.588   6.324   2.532
 2690SOL    HW1 8116   0.629   6.415   2.523
 2690SOL    HW2 8117   0.519   6.311   2.461
 2691SOL     OW 8118   1.751   5.950   3.514
 2691SOL    HW1 8119   1.741   5.967   3.416
 2691SOL    HW2 8120   1.677   5.891   3.546
 2692SOL     OW 8121   1.745   6.519   3.369
 2692SOL    HW1 8122   1.737   6.618   3.386
 2692SOL    HW2 8123   1.729   6.501   3.272
 2693SOL     OW 8124   0.868   6.551   2.720
 2693SOL    HW1 8125   0.921   6.474   2.754
 2693SOL    HW2 8126   0.836   6.606   2.797
 2694SOL     OW 8127   1.092   6.587   1.953
 2694SOL    HW1 8128   1.051   6.633   1.874
 2694SOL    HW2 8129   1.159   6.520   1.921
 2695SOL     OW 8130   0.249   6.871   3.715
 2695SOL    HW1 8131   0.153   6.872   3.687
 2695SOL    HW2 8132   0.263   6.935   3.791
 2696SOL     OW 8133   0.171   6.858   2.527
 2696SOL    HW1 8134   0.108   6.810   2.588
 2696SOL    HW2 8135   0.214   6.792   2.465
 2697SOL     OW 8136   0.709   6.970   3.493
 2697SOL    HW1 8137   0.612   6.961   3.516
 2697SOL    HW2 8138   0.729   0.066   3.472
 2698SOL     OW 8139   1.805   5.769   3.096
 2698SOL    HW1 8140   1.819   5.673   3.120
 2698SOL    HW2 8141   1.818   5.780   2.997
 2699SOL     OW 8142   0.455   6.014   2.401
 2699SOL    HW1 8143   0.478   5.945   2.332
 2699SOL    HW2 8144   0.397   5.972   2.471
 2700SOL     OW 8145   1.644   0.044   3.000
 2700SOL    HW1 8146   1.597   0.027   2.914
 2700SOL    HW2 8147   1.640   6.961   3.057
 2701SOL     OW 8148   0.331   6.137   3.153
 2701SOL    HW1 8149   0.388   6.081   3.214
 2701SOL    HW2 8150   0.347   6.111   3.058
 2702SOL     OW 8151   1.430   5.817   2.979
 2702SOL    HW1 8152   1.452   5.726   3.017
 2702SOL    HW2 8153   1.376   5.868   3.046
 2703SOL     OW 8154   1.010   5.602   3.000
 2703SOL    HW1 8155   0.945   5.539   2.957
 2703SOL    HW2 8156   1.101   5.562   3.001
 2704SOL     OW 8157   0.760   6.907   2.128
 2704SOL    HW1 8158   0.737   6.812   2.149
 2704SOL    HW2 8159   0.800   6.950   2.209
 2705SOL     OW 8160   1.354   5.636   2.031
 2705SOL    HW1 8161   1.397   5.568   1.971
 2705SOL    HW2 8162   1.261   5.607   2.054
 2706SOL     OW 8163   1.291   6.050   2.542
 2706SOL    HW1 8164   1.238   6.134   2.544
 2706SOL    HW2 8165   1.289   6.007   2.633
 2707SOL     OW 8166   1.586   5.789   2.746
 2707SOL    HW1 8167   1.528   5.809   2.825
 2707SOL    HW2 8168   1.588   5.869   2.685
 2708SOL     OW 8169   0.072   6.649   2.140
 2708SOL    HW1 8170   0.165   6.611   2.137
 2708SOL    HW2 8171   0.007   6.575   2.158
 2709SOL     OW 8172   0.188   6.240   3.845
 2709SOL    HW1 8173   0.176   6.174   3.919
 2709SOL    HW2 8174   0.226   6.193   3.765
 2710SOL     OW 8175   0.230   5.857   4.712
 2710SOL    HW1 8176   0.281   5.825   4.792
 2710SOL    HW2 8177   0.133   5.841   4.725
 2711SOL     OW 8178   6.989   5.970   4.377
 2711SOL    HW1 8179   6.942   5.967   4.465
 2711SOL    HW2 8180   0.011   5.878   4.348
 2712SOL     OW 8181   0.569   6.871   4.898
 2712SOL    HW1 8182   0.494   6.870   4.833
 2712SOL    HW2 8183   0.543   6.922   4.979
 2713SOL     OW 8184   1.541   0.055   4.414
 2713SOL    HW1 8185   1.520   0.050   4.511
 2713SOL    HW2 8186   1.462   0.090   4.364
 2714SOL     OW 8187   1.132   6.287   4.419
 2714SOL    HW1 8188   1.184   6.370   4.403
 2714SOL    HW2 8189   1.081   6.295   4.505
 2715SOL     OW 8190   1.771   6.183   3.946
 2715SOL    HW1 8191   1.746   6.179   3.849
 2715SOL    HW2 8192   1.731   6.104   3.993
 2716SOL     OW 8193   0.766   6.750   4.749
 2716SOL    HW1 8194   0.697   6.784   4.812
 2716SOL    HW2 8195   0.762   6.801   4.663
 2717SOL     OW 8196   0.875   6.351   5.546
 2717SOL    HW1 8197   0.861   6.417   5.619
 2717SOL    HW2 8198   0.900   6.399   5.461
 2718SOL     OW 8199   0.686   6.584   4.372
 2718SOL    HW1 8200   0.756   6.574   4.442
 2718SOL    HW2 8201   0.609   6.636   4.410
 2719SOL     OW 8202   0.689   6.734   5.539
 2719SOL    HW1 8203   0.728   6.824   5.557
 2719SOL    HW2 8204   0.606   6.743   5.485
 2720SOL     OW 8205   0.343   0.007   4.773
 2720SOL    HW1 8206   0.270   6.954   4.730
 2720SOL    HW2 8207   0.393   0.058   4.703
 2721SOL     OW 8208   0.443   5.981   5.216
 2721SOL    HW1 8209   0.526   5.924   5.218
 2721SOL    HW2 8210   0.363   5.922   5.225
 2722SOL     OW 8211   1.611   6.032   4.468
 2722SOL    HW1 8212   1.535   6.051   4.406
 2722SOL    HW2 8213   1.620   6.107   4.533
 2723SOL     OW 8214   0.266   6.670   4.640
 2723SOL    HW1 8215   0.256   6.574   4.666
 2723SOL    HW2 8216   0.191   6.723   4.680
 2724SOL     OW 8217   0.578   6.565   3.867
 2724SOL    HW1 8218   0.623   6.616   3.794
 2724SOL    HW2 8219   0.618   6.591   3.955
 2725SOL     OW 8220   1.597   5.711   5.193
 2725SOL    HW1 8221   1.616   5.790   5.136
 2725SOL    HW2 8222   1.582   5.740   5.288
 2726SOL     OW 8223   0.132   6.200   4.298
 2726SOL    HW1 8224   0.063   6.131   4.322
 2726SOL    HW2 8225   0.122   6.279   4.359
 2727SOL     OW 8226   1.689   6.502   4.368
 2727SOL    HW1 8227   1.777   6.458   4.354
 2727SOL    HW2 8228   1.667   6.558   4.288
 2728SOL     OW 8229   1.652   6.692   4.150
 2728SOL    HW1 8230   1.741   6.686   4.105
 2728SOL    HW2 8231   1.660   6.751   4.231
 2729SOL     OW 8232   0.146   6.317   5.305
 2729SOL    HW1 8233   0.244   6.325   5.289
 2729SOL    HW2 8234   0.111   6.404   5.339
 2730SOL     OW 8235   1.314   6.817   5.155
 2730SOL    HW1 8236   1.338   6.747   5.088
 2730SOL    HW2 8237   1.373   6.808   5.235
 2731SOL     OW 8238   0.817   5.595   4.232
 2731SOL    HW1 8239   0.862   5.681   4.210
 2731SOL    HW2 8240   0.718   5.611   4.240
 2732SOL     OW 8241   0.212   6.554   4.989
 2732SOL    HW1 8242   0.290   6.495   4.969
 2732SOL    HW2 8243   0.134   6.526   4.932
 2733SOL     OW 8244   1.535   6.587   3.926
 2733SOL    HW1 8245   1.462   6.527   3.955
 2733SOL    HW2 8246   1.583   6.623   4.006
 2734SOL     OW 8247   0.353   5.837   5.555
 2734SOL    HW1 8248   0.401   5.920   5.584
 2734SOL    HW2 8249   0.256   5.846   5.578
 2735SOL     OW 8250   1.458   6.988   4.671
 2735SOL    HW1 8251   1.389   0.013   4.739
 2735SOL    HW2 8252   1.442   6.894   4.640
 2736SOL     OW 8253   0.590   6.300   3.992
 2736SOL    HW1 8254   0.597   6.388   3.944
 2736SOL    HW2 8255   0.526   6.309   4.068
 2737SOL     OW 8256   1.277   5.945   4.657
 2737SOL    HW1 8257   1.184   5.910   4.664
 2737SOL    HW2 8258   1.336   5.892   4.719
 2738SOL     OW 8259   0.790   6.197   5.175
 2738SOL    HW1 8260   0.765   6.173   5.269
 2738SOL    HW2 8261   0.753   6.130   5.112
 2739SOL     OW 8262   1.391   6.056   5.404
 2739SOL    HW1 8263   1.392   6.105   5.491
 2739SOL    HW2 8264   1.452   5.977   5.410
 2740SOL     OW 8265   0.956   6.473   5.308
 2740SOL    HW1 8266   1.014   6.400   5.272
 2740SOL    HW2 8267   0.901   6.511   5.234
 2741SOL     OW 8268   0.994   5.992   4.953
 2741SOL    HW1 8269   0.904   6.013   4.991
 2741SOL    HW2 8270   0.983   5.943   4.867
 2742SOL     OW 8271   1.049   6.285   4.148
 2742SOL    HW1 8272   1.071   6.280   4.246
 2742SOL    HW2 8273   0.963   6.237   4.131
 2743SOL     OW 8274   0.102   6.404   4.497
 2743SOL    HW1 8275   0.194   6.392   4.535
 2743SOL    HW2 8276   0.041   6.442   4.567
 2744SOL     OW 8277   0.896   5.938   3.921
 2744SOL    HW1 8278   0.936   6.005   3.859
 2744SOL    HW2 8279   0.902   5.847   3.880
 2745SOL     OW 8280   1.701   6.158   5.549
 2745SOL    HW1 8281   1.665   6.237   5.499
 2745SOL    HW2 8282   1.731   6.088   5.485
 2746SOL     OW 8283   1.387   6.722   4.271
 2746SOL    HW1 8284   1.467   6.715   4.211
 2746SOL    HW2 8285   1.335   6.803   4.246
 2747SOL     OW 8286   0.551   5.761   4.623
 2747SOL    HW1 8287   0.556   5.791   4.719
 2747SOL    HW2 8288   0.554   5.841   4.563
 2748SOL     OW 8289   1.798   6.639   4.601
 2748SOL    HW1 8290   1.747   6.629   4.516
 2748SOL    HW2 8291   1.735   6.646   4.678
 2749SOL     OW 8292   0.318   6.528   3.978
 2749SOL    HW1 8293   0.403   6.554   3.934
 2749SOL    HW2 8294   0.285   6.441   3.941
 2750SOL     OW 8295   1.484   6.332   4.447
 2750SOL    HW1 8296   1.480   6.290   4.537
 2750SOL    HW2 8297   1.564   6.393   4.443
 2751SOL     OW 8298   0.196   5.854   5.215
 2751SOL    HW1 8299   0.113   5.908   5.198
 2751SOL    HW2 8300   0.172   5.769   5.262
 2752SOL     OW 8301   1.640   6.969   3.809
 2752SOL    HW1 8302   1.607   0.062   3.827
 2752SOL    HW2 8303   1.562   6.908   3.795
 2753SOL     OW 8304   1.401   5.690   4.160
 2753SOL    HW1 8305   1.389   5.664   4.064
 2753SOL    HW2 8306   1.499   5.699   4.180
 2754SOL     OW 8307   0.402   6.268   4.198
 2754SOL    HW1 8308   0.429   6.174   4.219
 2754SOL    HW2 8309   0.304   6.279   4.217
 2755SOL     OW 8310   1.528   5.809   5.452
 2755SOL    HW1 8311   1.539   5.830   5.549
 2755SOL    HW2 8312   1.455   5.741   5.440
 2756SOL     OW 8313   0.642   5.702   3.826
 2756SOL    HW1 8314   0.710   5.632   3.847
 2756SOL    HW2 8315   0.585   5.671   3.750
 2757SOL     OW 8316   0.763   5.863   5.481
 2757SOL    HW1 8317   0.848   5.810   5.474
 2757SOL    HW2 8318   0.711   5.833   5.561
 2758SOL     OW 8319   1.339   6.174   5.160
 2758SOL    HW1 8320   1.369   6.139   5.248
 2758SOL    HW2 8321   1.375   6.266   5.146
 2759SOL     OW 8322   0.927   6.092   4.622
 2759SOL    HW1 8323   0.901   6.085   4.526
 2759SOL    HW2 8324   0.960   6.003   4.654
 2760SOL     OW 8325   0.546   5.650   4.220
 2760SOL    HW1 8326   0.464   5.646   4.276
 2760SOL    HW2 8327   0.543   5.730   4.160
 2761SOL     OW 8328   1.419   6.788   3.783
 2761SOL    HW1 8329   1.472   6.718   3.830
 2761SOL    HW2 8330   1.325   6.755   3.769
 2762SOL     OW 8331   0.291   5.629   3.912
 2762SOL    HW1 8332   0.340   5.709   3.878
 2762SOL    HW2 8333   0.357   5.563   3.950
 2763SOL     OW 8334   0.946   5.837   4.181
 2763SOL    HW1 8335   0.915   5.878   4.095
 2763SOL    HW2 8336   1.045   5.850   4.190
 2764SOL     OW 8337   1.079   6.269   5.180
 2764SOL    HW1 8338   1.004   6.203   5.185
 2764SOL    HW2 8339   1.166   6.220   5.175
 2765SOL     OW 8340   1.269   0.148   4.464
 2765SOL    HW1 8341   1.237   0.232   4.421
 2765SOL    HW2 8342   1.281   0.163   4.562
 2766SOL     OW 8343   0.465   6.709   4.463
 2766SOL    HW1 8344   0.395   6.702   4.534
 2766SOL    HW2 8345   0.421   6.713   4.373
 2767SOL     OW 8346   1.021   6.122   3.754
 2767SOL    HW1 8347   0.976   6.208   3.730
 2767SOL    HW2 8348   1.090   6.138   3.824
 2768SOL     OW 8349   0.074   6.138   5.100
 2768SOL    HW1 8350   0.169   6.130   5.071
 2768SOL    HW2 8351   0.066   6.206   5.173
 2769SOL     OW 8352   0.565   5.809   4.895
 2769SOL    HW1 8353   0.614   5.732   4.934
 2769SOL    HW2 8354   0.470   5.807   4.926
 2770SOL     OW 8355   0.866   6.044   4.361
 2770SOL    HW1 8356   0.815   6.106   4.301
 2770SOL    HW2 8357   0.894   5.963   4.310
 2771SOL     OW 8358   1.017   5.639   4.470
 2771SOL    HW1 8359   0.957   5.639   4.390
 2771SOL    HW2 8360   0.993   5.563   4.530
 2772SOL     OW 8361   1.441   6.733   4.582
 2772SOL    HW1 8362   1.364   6.669   4.584
 2772SOL    HW2 8363   1.471   6.746   4.487
 2773SOL     OW 8364   1.468   6.192   4.694
 2773SOL    HW1 8365   1.406   6.114   4.694
 2773SOL    HW2 8366   1.529   6.186   4.773
 2774SOL     OW 8367   1.842   6.391   4.104
 2774SOL    HW1 8368   1.900   6.344   4.171
 2774SOL    HW2 8369   1.814   6.326   4.033
 2775SOL     OW 8370   1.680   6.831   4.372
 2775SOL    HW1 8371   1.778   6.842   4.389
 2775SOL    HW2 8372   1.633   6.917   4.392
 2776SOL     OW 8373   1.390   6.160   3.795
 2776SOL    HW1 8374   1.327   6.138   3.869
 2776SOL    HW2 8375   1.483   6.133   3.821
 2777SOL     OW 8376   0.530   5.847   4.034
 2777SOL    HW1 8377   0.578   5.793   3.964
 2777SOL    HW2 8378   0.502   5.935   3.994
 2778SOL     OW 8379   1.754   6.813   5.291
 2778SOL    HW1 8380   1.838   6.763   5.312
 2778SOL    HW2 8381   1.770   6.911   5.302
 2779SOL     OW 8382   1.076   6.895   5.050
 2779SOL    HW1 8383   0.996   6.879   5.108
 2779SOL    HW2 8384   1.159   6.877   5.103
 2780SOL     OW 8385   1.137   6.763   4.824
 2780SOL    HW1 8386   1.104   6.811   4.905
 2780SOL    HW2 8387   1.078   6.783   4.746
 2781SOL     OW 8388   1.622   6.681   4.806
 2781SOL    HW1 8389   1.611   6.737   4.888
 2781SOL    HW2 8390   1.546   6.698   4.744
 2782SOL     OW 8391   0.923   5.681   5.116
 2782SOL    HW1 8392   0.944   5.657   5.021
 2782SOL    HW2 8393   1.002   5.724   5.158
 2783SOL     OW 8394   0.967   6.696   5.462
 2783SOL    HW1 8395   0.869   6.710   5.479
 2783SOL    HW2 8396   0.980   6.622   5.396
 2784SOL     OW 8397   0.707   6.637   4.094
 2784SOL    HW1 8398   0.695   6.629   4.193
 2784SOL    HW2 8399   0.789   6.587   4.066
 2785SOL     OW 8400   0.429   6.390   4.973
 2785SOL    HW1 8401   0.499   6.405   5.043
 2785SOL    HW2 8402   0.386   6.301   4.988
 2786SOL     OW 8403   1.262   5.962   5.004
 2786SOL    HW1 8404   1.299   6.041   5.053
 2786SOL    HW2 8405   1.167   5.979   4.979
 2787SOL     OW 8406   0.031   0.145   5.076
 2787SOL    HW1 8407   6.954   0.208   5.067
 2787SOL    HW2 8408   0.093   0.179   5.146
 2788SOL     OW 8409   0.338   6.705   4.216
 2788SOL    HW1 8410   0.388   6.777   4.167
 2788SOL    HW2 8411   0.332   6.624   4.159
 2789SOL     OW 8412   0.549   6.129   4.587
 2789SOL    HW1 8413   0.562   6.188   4.508
 2789SOL    HW2 8414   0.618   6.150   4.656
 2790SOL     OW 8415   1.577   6.207   4.206
 2790SOL    HW1 8416   1.528   6.254   4.279
 2790SOL    HW2 8417   1.628   6.275   4.152
 2791SOL     OW 8418   0.424   6.318   5.322
 2791SOL    HW1 8419   0.485   6.370   5.263
 2791SOL    HW2 8420   0.466   6.230   5.345
 2792SOL     OW 8421   1.607   6.370   5.408
 2792SOL    HW1 8422   1.516   6.410   5.406
 2792SOL    HW2 8423   1.664   6.411   5.337
 2793SOL     OW 8424   0.997   5.720   5.474
 2793SOL    HW1 8425   1.055   5.800   5.458
 2793SOL    HW2 8426   1.046   5.637   5.448
 2794SOL     OW 8427   0.495   5.621   5.473
 2794SOL    HW1 8428   0.450   5.566   5.404
 2794SOL    HW2 8429   0.440   5.702   5.493
 2795SOL     OW 8430   0.588   6.451   4.758
 2795SOL    HW1 8431   0.605   6.549   4.745
 2795SOL    HW2 8432   0.526   6.439   4.836
 2796SOL     OW 8433   1.357   6.439   4.750
 2796SOL    HW1 8434   1.265   6.437   4.710
 2796SOL    HW2 8435   1.401   6.351   4.738
 2797SOL     OW 8436   1.197   6.113   3.988
 2797SOL    HW1 8437   1.210   6.030   4.043
 2797SOL    HW2 8438   1.152   6.183   4.044
 2798SOL     OW 8439   0.308   5.781   4.970
 2798SOL    HW1 8440   0.268   5.817   5.055
 2798SOL    HW2 8441   0.291   5.683   4.964
 2799SOL     OW 8442   0.112   6.902   4.995
 2799SOL    HW1 8443   0.112   6.828   5.063
 2799SOL    HW2 8444   0.068   6.983   5.035
 2800SOL     OW 8445   0.727   6.215   4.780
 2800SOL    HW1 8446   0.803   6.196   4.718
 2800SOL    HW2 8447   0.691   6.307   4.761
 2801SOL     OW 8448   1.735   6.547   5.578
 2801SOL    HW1 8449   1.691   6.477   5.521
 2801SOL    HW2 8450   1.679   6.563   5.659
 2802SOL     OW 8451   0.301   5.646   4.348
 2802SOL    HW1 8452   0.281   5.743   4.367
 2802SOL    HW2 8453   0.313   5.598   4.435
 2803SOL     OW 8454   1.627   5.967   4.086
 2803SOL    HW1 8455   1.653   5.894   4.149
 2803SOL    HW2 8456   1.598   6.047   4.138
 2804SOL     OW 8457   1.024   6.340   4.682
 2804SOL    HW1 8458   1.020   6.362   4.779
 2804SOL    HW2 8459   0.998   6.244   4.668
 2805SOL     OW 8460   1.855   0.065   5.325
 2805SOL    HW1 8461   1.892   0.141   5.271
 2805SOL    HW2 8462   1.910   0.053   5.407
 2806SOL     OW 8463   0.368   6.503   5.520
 2806SOL    HW1 8464   0.441   6.517   5.586
 2806SOL    HW2 8465   0.396   6.432   5.454
 2807SOL     OW 8466   1.527   5.855   3.854
 2807SOL    HW1 8467   1.458   5.787   3.879
 2807SOL    HW2 8468   1.564   5.897   3.937
 2808SOL     OW 8469   1.288   6.410   3.747
 2808SOL    HW1 8470   1.329   6.320   3.758
 2808SOL    HW2 8471   1.319   6.451   3.661
 2809SOL     OW 8472   0.318   6.385   4.665
 2809SOL    HW1 8473   0.415   6.409   4.660
 2809SOL    HW2 8474   0.309   6.294   4.704
 2810SOL     OW 8475   0.329   6.106   4.738
 2810SOL    HW1 8476   0.291   6.015   4.723
 2810SOL    HW2 8477   0.410   6.118   4.680
 2811SOL     OW 8478   1.134   5.959   5.416
 2811SOL    HW1 8479   1.081   6.015   5.479
 2811SOL    HW2 8480   1.226   5.996   5.407
 2812SOL     OW 8481   1.162   5.789   5.199
 2812SOL    HW1 8482   1.147   5.851   5.276
 2812SOL    HW2 8483   1.204   5.839   5.124
 2813SOL     OW 8484   6.982   6.914   3.928
 2813SOL    HW1 8485   6.912   6.930   3.998
 2813SOL    HW2 8486   0.037   6.835   3.953
 2814SOL     OW 8487   0.975   6.378   4.948
 2814SOL    HW1 8488   1.034   6.354   5.025
 2814SOL    HW2 8489   0.886   6.332   4.959
 2815SOL     OW 8490   0.049   6.191   4.830
 2815SOL    HW1 8491   0.125   6.144   4.785
 2815SOL    HW2 8492   0.051   6.172   4.928
 2816SOL     OW 8493   0.209   6.098   5.448
 2816SOL    HW1 8494   0.284   6.051   5.400
 2816SOL    HW2 8495   0.188   6.183   5.401
 2817SOL     OW 8496   1.380   6.523   5.379
 2817SOL    HW1 8497   1.410   6.618   5.378
 2817SOL    HW2 8498   1.377   6.488   5.285
 2818SOL     OW 8499   0.817   6.159   4.082
 2818SOL    HW1 8500   0.827   6.078   4.024
 2818SOL    HW2 8501   0.738   6.212   4.052
 2819SOL     OW 8502   1.642   6.188   4.905
 2819SOL    HW1 8503   1.626   6.128   4.984
 2819SOL    HW2 8504   1.734   6.171   4.868
 2820SOL     OW 8505   0.706   6.034   4.979
 2820SOL    HW1 8506   0.652   5.955   4.953
 2820SOL    HW2 8507   0.704   6.101   4.905
 2821SOL     OW 8508   0.454   6.073   3.906
 2821SOL    HW1 8509   0.511   6.154   3.924
 2821SOL    HW2 8510   0.368   6.082   3.956
 2822SOL     OW 8511   0.187   6.706   5.204
 2822SOL    HW1 8512   0.166   6.643   5.279
 2822SOL    HW2 8513   0.199   6.655   5.119
 2823SOL     OW 8514   1.330   6.623   4.947
 2823SOL    HW1 8515   1.359   6.555   4.880
 2823SOL    HW2 8516   1.257   6.680   4.908
 2824SOL     OW 8517   1.316   6.447   4.021
 2824SOL    HW1 8518   1.244   6.416   4.082
 2824SOL    HW2 8519   1.289   6.430   3.926
 2825SOL     OW 8520   0.073   6.838   4.737
 2825SOL    HW1 8521   0.091   6.857   4.834
 2825SOL    HW2 8522   6.977   6.817   4.724
 2826SOL     OW 8523   1.719   5.736   4.223
 2826SOL    HW1 8524   1.795   5.726   4.158
 2826SOL    HW2 8525   1.702   5.648   4.268
 2827SOL     OW 8526   1.283   6.509   4.394
 2827SOL    HW1 8527   1.357   6.443   4.410
 2827SOL    HW2 8528   1.317   6.586   4.341
 2828SOL     OW 8529   0.816   6.844   5.142
 2828SOL    HW1 8530   0.790   6.886   5.229
 2828SOL    HW2 8531   0.744   6.859   5.074
 2829SOL     OW 8532   1.842   5.755   4.688
 2829SOL    HW1 8533   1.876   5.664   4.665
 2829SOL    HW2 8534   1.751   5.768   4.648
 2830SOL     OW 8535   0.263   5.902   4.438
 2830SOL    HW1 8536   0.188   5.965   4.418
 2830SOL    HW2 8537   0.264   5.883   4.536
 2831SOL     OW 8538   1.247   0.212   3.736
 2831SOL    HW1 8539   1.253   0.143   3.809
 2831SOL    HW2 8540   1.156   0.211   3.696
 2832SOL     OW 8541   0.826   6.581   5.095
 2832SOL    HW1 8542   0.883   6.558   5.016
 2832SOL    HW2 8543   0.831   6.680   5.111
 2833SOL     OW 8544   0.920   6.495   4.004
 2833SOL    HW1 8545   0.986   6.536   3.941
 2833SOL    HW2 8546   0.965   6.426   4.060
 2834SOL     OW 8547   0.388   6.896   5.237
 2834SOL    HW1 8548   0.355   6.970   5.178
 2834SOL    HW2 8549   0.326   6.818   5.231
 2835SOL     OW 8550   1.604   6.845   5.037
 2835SOL    HW1 8551   1.680   6.833   5.102
 2835SOL    HW2 8552   1.536   6.907   5.077
 2836SOL     OW 8553   1.063   6.695   4.451
 2836SOL    HW1 8554   0.983   6.646   4.485
 2836SOL    HW2 8555   1.129   6.630   4.414
 2837SOL     OW 8556   1.023   5.825   4.691
 2837SOL    HW1 8557   1.019   5.781   4.601
 2837SOL    HW2 8558   1.020   5.755   4.763
 2838SOL     OW 8559   1.731   5.980   5.105
 2838SOL    HW1 8560   1.804   6.049   5.105
 2838SOL    HW2 8561   1.757   5.905   5.044
 2839SOL     OW 8562   0.120   6.558   5.429
 2839SOL    HW1 8563   0.066   6.615   5.491
 2839SOL    HW2 8564   0.211   6.544   5.467
 2840SOL     OW 8565   0.683   5.781   5.224
 2840SOL    HW1 8566   0.769   5.757   5.180
 2840SOL    HW2 8567   0.701   5.814   5.316
 2841SOL     OW 8568   0.099   5.902   3.760
 2841SOL    HW1 8569   0.002   5.877   3.761
 2841SOL    HW2 8570   0.111   5.989   3.712
 2842SOL     OW 8571   1.426   6.438   5.122
 2842SOL    HW1 8572   1.372   6.502   5.068
 2842SOL    HW2 8573   1.521   6.438   5.090
 2843SOL     OW 8574   0.076   5.774   4.065
 2843SOL    HW1 8575   0.021   5.764   3.982
 2843SOL    HW2 8576   0.153   5.710   4.061
 2844SOL     OW 8577   0.624   6.413   5.159
 2844SOL    HW1 8578   0.681   6.492   5.139
 2844SOL    HW2 8579   0.681   6.332   5.169
 2845SOL     OW 8580   0.719   6.144   5.428
 2845SOL    HW1 8581   0.766   6.211   5.486
 2845SOL    HW2 8582   0.739   6.052   5.460
 2846SOL     OW 8583   1.485   6.778   5.370
 2846SOL    HW1 8584   1.472   6.797   5.468
 2846SOL    HW2 8585   1.581   6.793   5.346
 2847SOL     OW 8586   1.667   6.461   4.978
 2847SOL    HW1 8587   1.661   6.370   4.937
 2847SOL    HW2 8588   1.654   6.531   4.907
 2848SOL     OW 8589   1.220   5.903   4.183
 2848SOL    HW1 8590   1.283   5.826   4.173
 2848SOL    HW2 8591   1.246   5.958   4.262
 2849SOL     OW 8592   0.588   6.324   4.394
 2849SOL    HW1 8593   0.629   6.415   4.385
 2849SOL    HW2 8594   0.519   6.311   4.323
 2850SOL     OW 8595   1.751   5.950   5.376
 2850SOL    HW1 8596   1.741   5.967   5.278
 2850SOL    HW2 8597   1.677   5.891   5.408
 2851SOL     OW 8598   1.745   6.519   5.231
 2851SOL    HW1 8599   1.737   6.618   5.248
 2851SOL    HW2 8600   1.729   6.501   5.134
 2852SOL     OW 8601   0.868   6.551   4.582
 2852SOL    HW1 8602   0.921   6.474   4.616
 2852SOL    HW2 8603   0.836   6.606   4.659
 2853SOL     OW 8604   1.092   6.587   3.815
 2853SOL    HW1 8605   1.051   6.633   3.736
 2853SOL    HW2 8606   1.159   6.520   3.783
 2854SOL     OW 8607   0.249   6.870   5.578
 2854SOL    HW1 8608   0.154   6.873   5.547
 2854SOL    HW2 8609   0.262   6.934   5.653
 2855SOL     OW 8610   0.171   6.858   4.389
 2855SOL    HW1 8611   0.108   6.810   4.450
 2855SOL    HW2 8612   0.214   6.792   4.327
 2856SOL     OW 8613   0.709   6.970   5.355
 2856SOL    HW1 8614   0.612   6.961   5.378
 2856SOL    HW2 8615   0.730   0.066   5.334
 2857SOL     OW 8616   1.805   5.769   4.958
 2857SOL    HW1 8617   1.819   5.673   4.982
 2857SOL    HW2 8618   1.818   5.780   4.859
 2858SOL     OW 8619   0.455   6.014   4.263
 2858SOL    HW1 8620   0.478   5.945   4.194
 2858SOL    HW2 8621   0.397   5.972   4.333
 2859SOL     OW 8622   1.644   0.044   4.862
 2859SOL    HW1 8623   1.597   0.027   4.776
 2859SOL    HW2 8624   1.640   6.961   4.919
 2860SOL     OW 8625   0.331   6.137   5.015
 2860SOL    HW1 8626   0.388   6.081   5.076
 2860SOL    HW2 8627   0.348   6.111   4.920
 2861SOL     OW 8628   1.430   5.817   4.841
 2861SOL    HW1 8629   1.452   5.726   4.878
 2861SOL    HW2 8630   1.376   5.868   4.908
 2862SOL     OW 8631   1.010   5.602   4.862
 2862SOL    HW1 8632   0.946   5.539   4.819
 2862SOL    HW2 8633   1.101   5.562   4.863
 2863SOL     OW 8634   0.760   6.907   3.990
 2863SOL    HW1 8635   0.737   6.812   4.011
 2863SOL    HW2 8636   0.800   6.950   4.071
 2864SOL     OW 8637   1.354   5.636   3.894
 2864SOL    HW1 8638   1.396   5.569   3.833
 2864SOL    HW2 8639   1.261   5.607   3.916
 2865SOL     OW 8640   1.291   6.050   4.404
 2865SOL    HW1 8641   1.238   6.134   4.406
 2865SOL    HW2 8642   1.289   6.007   4.495
 2866SOL     OW 8643   1.586   5.789   4.608
 2866SOL    HW1 8644   1.528   5.809   4.687
 2866SOL    HW2 8645   1.588   5.869   4.547
 2867SOL     OW 8646   0.072   6.649   4.002
 2867SOL    HW1 8647   0.165   6.611   3.999
 2867SOL    HW2 8648   0.007   6.575   4.020
 2868SOL     OW 8649   0.188   6.239   5.707
 2868SOL    HW1 8650   0.176   6.173   5.781
 2868SOL    HW2 8651   0.226   6.193   5.627
 2869SOL     OW 8652   0.227   5.862   6.570
 2869SOL    HW1 8653   0.281   5.829   6.647
 2869SOL    HW2 8654   0.131   5.841   6.585
 2870SOL     OW 8655   6.989   5.970   6.239
 2870SOL    HW1 8656   6.941   5.966   6.327
 2870SOL    HW2 8657   0.010   5.877   6.208
 2871SOL     OW 8658   0.561   6.880   6.769
 2871SOL    HW1 8659   0.494   6.896   6.697
 2871SOL    HW2 8660   0.514   6.875   6.858
 2872SOL     OW 8661   1.541   0.056   6.274
 2872SOL    HW1 8662   1.518   0.049   6.372
 2872SOL    HW2 8663   1.462   0.091   6.224
 2873SOL     OW 8664   1.131   6.286   6.281
 2873SOL    HW1 8665   1.183   6.370   6.266
 2873SOL    HW2 8666   1.080   6.294   6.367
 2874SOL     OW 8667   1.771   6.183   5.808
 2874SOL    HW1 8668   1.747   6.179   5.711
 2874SOL    HW2 8669   1.731   6.105   5.855
 2875SOL     OW 8670   0.755   6.740   6.616
 2875SOL    HW1 8671   0.690   6.782   6.680
 2875SOL    HW2 8672   0.766   6.800   6.536
 2876SOL     OW 8673   0.686   6.584   6.234
 2876SOL    HW1 8674   0.756   6.574   6.304
 2876SOL    HW2 8675   0.609   6.637   6.272
 2877SOL     OW 8676   0.341   0.011   6.630
 2877SOL    HW1 8677   0.268   6.957   6.590
 2877SOL    HW2 8678   0.388   0.062   6.559
 2878SOL     OW 8679   1.610   6.033   6.330
 2878SOL    HW1 8680   1.534   6.049   6.267
 2878SOL    HW2 8681   1.613   6.106   6.398
 2879SOL     OW 8682   0.265   6.668   6.498
 2879SOL    HW1 8683   0.257   6.572   6.528
 2879SOL    HW2 8684   0.191   6.721   6.539
 2880SOL     OW 8685   0.578   6.565   5.729
 2880SOL    HW1 8686   0.623   6.616   5.655
 2880SOL    HW2 8687   0.618   6.591   5.817
 2881SOL     OW 8688   0.133   6.199   6.159
 2881SOL    HW1 8689   0.063   6.131   6.183
 2881SOL    HW2 8690   0.124   6.278   6.220
 2882SOL     OW 8691   1.689   6.503   6.227
 2882SOL    HW1 8692   1.776   6.456   6.210
 2882SOL    HW2 8693   1.666   6.559   6.148
 2883SOL     OW 8694   1.652   6.692   6.012
 2883SOL    HW1 8695   1.741   6.686   5.966
 2883SOL    HW2 8696   1.660   6.751   6.092
 2884SOL     OW 8697   0.817   5.595   6.095
 2884SOL    HW1 8698   0.863   5.681   6.072
 2884SOL    HW2 8699   0.719   5.611   6.103
 2885SOL     OW 8700   0.199   6.524   6.840
 2885SOL    HW1 8701   0.289   6.483   6.827
 2885SOL    HW2 8702   0.141   6.501   6.761
 2886SOL     OW 8703   1.536   6.587   5.788
 2886SOL    HW1 8704   1.462   6.527   5.817
 2886SOL    HW2 8705   1.583   6.623   5.868
 2887SOL     OW 8706   1.455   6.994   6.529
 2887SOL    HW1 8707   1.394   0.020   6.604
 2887SOL    HW2 8708   1.438   6.899   6.504
 2888SOL     OW 8709   0.590   6.301   5.853
 2888SOL    HW1 8710   0.598   6.388   5.806
 2888SOL    HW2 8711   0.526   6.310   5.930
 2889SOL     OW 8712   1.276   5.942   6.518
 2889SOL    HW1 8713   1.181   5.909   6.525
 2889SOL    HW2 8714   1.334   5.891   6.582
 2890SOL     OW 8715   0.797   6.185   0.051
 2890SOL    HW1 8716   0.736   6.235   0.112
 2890SOL    HW2 8717   0.743   6.135   6.983
 2891SOL     OW 8718   1.003   5.978   6.798
 2891SOL    HW1 8719   0.937   6.035   6.848
 2891SOL    HW2 8720   0.956   5.932   6.723
 2892SOL     OW 8721   1.049   6.285   6.010
 2892SOL    HW1 8722   1.071   6.280   6.108
 2892SOL    HW2 8723   0.963   6.237   5.993
 2893SOL     OW 8724   0.105   6.402   6.356
 2893SOL    HW1 8725   0.197   6.392   6.396
 2893SOL    HW2 8726   0.045   6.445   6.423
 2894SOL     OW 8727   0.896   5.938   5.783
 2894SOL    HW1 8728   0.936   6.005   5.721
 2894SOL    HW2 8729   0.903   5.847   5.742
 2895SOL     OW 8730   1.387   6.722   6.133
 2895SOL    HW1 8731   1.467   6.715   6.073
 2895SOL    HW2 8732   1.335   6.804   6.109
 2896SOL     OW 8733   0.550   5.760   6.482
 2896SOL    HW1 8734   0.563   5.790   6.577
 2896SOL    HW2 8735   0.554   5.839   6.421
 2897SOL     OW 8736   1.805   6.638   6.452
 2897SOL    HW1 8737   1.753   6.626   6.368
 2897SOL    HW2 8738   1.742   6.639   6.530
 2898SOL     OW 8739   0.318   6.528   5.840
 2898SOL    HW1 8740   0.403   6.554   5.796
 2898SOL    HW2 8741   0.285   6.441   5.802
 2899SOL     OW 8742   1.484   6.332   6.307
 2899SOL    HW1 8743   1.478   6.288   6.396
 2899SOL    HW2 8744   1.563   6.393   6.305
 2900SOL     OW 8745   1.640   6.969   5.671
 2900SOL    HW1 8746   1.607   0.062   5.689
 2900SOL    HW2 8747   1.562   6.908   5.657
 2901SOL     OW 8748   1.401   5.690   6.022
 2901SOL    HW1 8749   1.389   5.664   5.926
 2901SOL    HW2 8750   1.499   5.699   6.042
 2902SOL     OW 8751   0.402   6.268   6.060
 2902SOL    HW1 8752   0.429   6.174   6.081
 2902SOL    HW2 8753   0.304   6.279   6.078
 2903SOL     OW 8754   0.642   5.702   5.688
 2903SOL    HW1 8755   0.711   5.632   5.708
 2903SOL    HW2 8756   0.585   5.671   5.612
 2904SOL     OW 8757   0.928   6.092   6.485
 2904SOL    HW1 8758   0.901   6.085   6.389
 2904SOL    HW2 8759   0.964   6.004   6.515
 2905SOL     OW 8760   0.547   5.650   6.082
 2905SOL    HW1 8761   0.464   5.646   6.138
 2905SOL    HW2 8762   0.543   5.730   6.022
 2906SOL     OW 8763   1.419   6.788   5.645
 2906SOL    HW1 8764   1.472   6.718   5.692
 2906SOL    HW2 8765   1.325   6.755   5.631
 2907SOL     OW 8766   0.291   5.629   5.774
 2907SOL    HW1 8767   0.341   5.709   5.739
 2907SOL    HW2 8768   0.357   5.563   5.812
 2908SOL     OW 8769   0.946   5.836   6.042
 2908SOL    HW1 8770   0.915   5.878   5.957
 2908SOL    HW2 8771   1.044   5.850   6.052
 2909SOL     OW 8772   1.271   0.148   6.321
 2909SOL    HW1 8773   1.234   0.233   6.284
 2909SOL    HW2 8774   1.276   0.155   6.421
 2910SOL     OW 8775   0.465   6.710   6.324
 2910SOL    HW1 8776   0.395   6.701   6.395
 2910SOL    HW2 8777   0.421   6.713   6.234
 2911SOL     OW 8778   1.021   6.122   5.616
 2911SOL    HW1 8779   0.976   6.208   5.592
 2911SOL    HW2 8780   1.090   6.138   5.686
 2912SOL     OW 8781   0.581   5.806   6.752
 2912SOL    HW1 8782   0.626   5.722   6.784
 2912SOL    HW2 8783   0.485   5.805   6.779
 2913SOL     OW 8784   0.865   6.044   6.223
 2913SOL    HW1 8785   0.816   6.106   6.162
 2913SOL    HW2 8786   0.893   5.963   6.174
 2914SOL     OW 8787   1.019   5.635   6.327
 2914SOL    HW1 8788   0.956   5.636   6.249
 2914SOL    HW2 8789   0.993   5.561   6.389
 2915SOL     OW 8790   1.436   6.735   6.443
 2915SOL    HW1 8791   1.362   6.667   6.446
 2915SOL    HW2 8792   1.465   6.749   6.349
 2916SOL     OW 8793   1.466   6.189   6.550
 2916SOL    HW1 8794   1.404   6.111   6.556
 2916SOL    HW2 8795   1.529   6.187   6.628
 2917SOL     OW 8796   1.843   6.391   5.966
 2917SOL    HW1 8797   1.901   6.343   6.033
 2917SOL    HW2 8798   1.814   6.326   5.895
 2918SOL     OW 8799   1.681   6.833   6.232
 2918SOL    HW1 8800   1.779   6.845   6.250
 2918SOL    HW2 8801   1.633   6.918   6.253
 2919SOL     OW 8802   1.390   6.160   5.657
 2919SOL    HW1 8803   1.327   6.138   5.732
 2919SOL    HW2 8804   1.483   6.134   5.683
 2920SOL     OW 8805   0.530   5.847   5.896
 2920SOL    HW1 8806   0.578   5.793   5.827
 2920SOL    HW2 8807   0.502   5.935   5.856
 2921SOL     OW 8808   1.742   6.787   0.184
 2921SOL    HW1 8809   1.834   6.762   0.213
 2921SOL    HW2 8810   1.742   6.882   0.151
 2922SOL     OW 8811   1.066   6.901   6.929
 2922SOL    HW1 8812   0.974   6.881   6.964
 2922SOL    HW2 8813   1.132   6.897   0.004
 2923SOL     OW 8814   1.132   6.761   6.702
 2923SOL    HW1 8815   1.103   6.819   6.779
 2923SOL    HW2 8816   1.094   6.797   6.617
 2924SOL     OW 8817   1.622   6.663   6.647
 2924SOL    HW1 8818   1.619   6.725   6.725
 2924SOL    HW2 8819   1.545   6.682   6.586
 2925SOL     OW 8820   0.707   6.637   5.956
 2925SOL    HW1 8821   0.695   6.629   6.055
 2925SOL    HW2 8822   0.789   6.587   5.928
 2926SOL     OW 8823   0.439   6.390   6.847
 2926SOL    HW1 8824   0.492   6.416   6.927
 2926SOL    HW2 8825   0.397   6.301   6.861
 2927SOL     OW 8826   1.268   5.974   6.856
 2927SOL    HW1 8827   1.296   6.049   6.916
 2927SOL    HW2 8828   1.173   5.987   6.828
 2928SOL     OW 8829   0.059   0.139   6.955
 2928SOL    HW1 8830   6.965   0.163   6.979
 2928SOL    HW2 8831   0.113   0.125   0.039
 2929SOL     OW 8832   0.338   6.706   6.077
 2929SOL    HW1 8833   0.389   6.777   6.029
 2929SOL    HW2 8834   0.332   6.624   6.020
 2930SOL     OW 8835   0.546   6.132   6.451
 2930SOL    HW1 8836   0.560   6.189   6.370
 2930SOL    HW2 8837   0.618   6.150   6.518
 2931SOL     OW 8838   1.577   6.208   6.067
 2931SOL    HW1 8839   1.528   6.253   6.142
 2931SOL    HW2 8840   1.627   6.276   6.014
 2932SOL     OW 8841   0.589   6.452   6.621
 2932SOL    HW1 8842   0.614   6.548   6.609
 2932SOL    HW2 8843   0.532   6.442   6.702
 2933SOL     OW 8844   1.352   6.437   6.604
 2933SOL    HW1 8845   1.260   6.431   6.565
 2933SOL    HW2 8846   1.399   6.349   6.593
 2934SOL     OW 8847   1.197   6.113   5.850
 2934SOL    HW1 8848   1.210   6.030   5.905
 2934SOL    HW2 8849   1.153   6.183   5.906
 2935SOL     OW 8850   0.323   5.784   6.821
 2935SOL    HW1 8851   0.308   5.799   6.919
 2935SOL    HW2 8852   0.299   5.690   6.797
 2936SOL     OW 8853   0.082   6.889   6.852
 2936SOL    HW1 8854   0.119   6.825   6.920
 2936SOL    HW2 8855   0.071   6.979   6.894
 2937SOL     OW 8856   0.727   6.212   6.641
 2937SOL    HW1 8857   0.804   6.191   6.582
 2937SOL    HW2 8858   0.694   6.305   6.623
 2938SOL     OW 8859   0.301   5.647   6.209
 2938SOL    HW1 8860   0.281   5.743   6.227
 2938SOL    HW2 8861   0.314   5.598   6.296
 2939SOL     OW 8862   1.626   5.967   5.948
 2939SOL    HW1 8863   1.652   5.894   6.011
 2939SOL    HW2 8864   1.598   6.048   6.000
 2940SOL     OW 8865   1.023   6.340   6.550
 2940SOL    HW1 8866   1.022   6.361   6.648
 2940SOL    HW2 8867   0.998   6.245   6.535
 2941SOL     OW 8868   1.527   5.855   5.716
 2941SOL    HW1 8869   1.458   5.787   5.741
 2941SOL    HW2 8870   1.564   5.897   5.799
 2942SOL     OW 8871   1.287   6.410   5.609
 2942SOL    HW1 8872   1.329   6.320   5.620
 2942SOL    HW2 8873   1.319   6.451   5.523
 2943SOL     OW 8874   0.318   6.387   6.533
 2943SOL    HW1 8875   0.414   6.412   6.525
 2943SOL    HW2 8876   0.311   6.293   6.567
 2944SOL     OW 8877   0.328   6.109   6.604
 2944SOL    HW1 8878   0.290   6.018   6.586
 2944SOL    HW2 8879   0.410   6.122   6.548
 2945SOL     OW 8880   1.142   5.826   0.056
 2945SOL    HW1 8881   1.202   5.854   0.131
 2945SOL    HW2 8882   1.178   5.862   6.969
 2946SOL     OW 8883   6.981   6.914   5.790
 2946SOL    HW1 8884   6.912   6.930   5.861
 2946SOL    HW2 8885   0.037   6.835   5.815
 2947SOL     OW 8886   0.989   6.374   6.825
 2947SOL    HW1 8887   1.060   6.333   6.883
 2947SOL    HW2 8888   0.899   6.346   6.858
 2948SOL     OW 8889   0.058   6.195   6.692
 2948SOL    HW1 8890   0.121   6.149   6.629
 2948SOL    HW2 8891   0.056   6.146   6.779
 2949SOL     OW 8892   0.817   6.158   5.945
 2949SOL    HW1 8893   0.827   6.078   5.886
 2949SOL    HW2 8894   0.738   6.211   5.914
 2950SOL     OW 8895   1.647   6.194   6.752
 2950SOL    HW1 8896   1.632   6.136   6.832
 2950SOL    HW2 8897   1.742   6.184   6.721
 2951SOL     OW 8898   0.674   6.050   6.850
 2951SOL    HW1 8899   0.643   5.961   6.818
 2951SOL    HW2 8900   0.688   6.110   6.772
 2952SOL     OW 8901   0.455   6.073   5.768
 2952SOL    HW1 8902   0.512   6.154   5.785
 2952SOL    HW2 8903   0.368   6.082   5.817
 2953SOL     OW 8904   0.189   6.712   0.030
 2953SOL    HW1 8905   0.154   6.676   0.117
 2953SOL    HW2 8906   0.190   6.640   6.962
 2954SOL     OW 8907   1.315   6.600   6.819
 2954SOL    HW1 8908   1.351   6.540   6.748
 2954SOL    HW2 8909   1.247   6.662   6.780
 2955SOL     OW 8910   1.317   6.447   5.882
 2955SOL    HW1 8911   1.245   6.417   5.944
 2955SOL    HW2 8912   1.289   6.430   5.788
 2956SOL     OW 8913   0.073   6.834   6.593
 2956SOL    HW1 8914   0.080   6.851   6.691
 2956SOL    HW2 8915   6.976   6.827   6.567
 2957SOL     OW 8916   1.720   5.736   6.085
 2957SOL    HW1 8917   1.795   5.726   6.020
 2957SOL    HW2 8918   1.702   5.648   6.130
 2958SOL     OW 8919   1.282   6.508   6.255
 2958SOL    HW1 8920   1.356   6.443   6.271
 2958SOL    HW2 8921   1.317   6.586   6.203
 2959SOL     OW 8922   0.813   6.841   0.017
 2959SOL    HW1 8923   0.810   6.855   0.116
 2959SOL    HW2 8924   0.727   6.872   6.976
 2960SOL     OW 8925   1.842   5.758   6.557
 2960SOL    HW1 8926   1.876   5.667   6.533
 2960SOL    HW2 8927   1.751   5.771   6.518
 2961SOL     OW 8928   0.263   5.903   6.296
 2961SOL    HW1 8929   0.187   5.964   6.274
 2961SOL    HW2 8930   0.264   5.885   6.395
 2962SOL     OW 8931   1.247   0.212   5.597
 2962SOL    HW1 8932   1.253   0.143   5.670
 2962SOL    HW2 8933   1.155   0.210   5.558
 2963SOL     OW 8934   0.791   6.583   6.940
 2963SOL    HW1 8935   0.845   6.561   6.859
 2963SOL    HW2 8936   0.809   6.677   6.968
 2964SOL     OW 8937   0.920   6.495   5.866
 2964SOL    HW1 8938   0.986   6.536   5.803
 2964SOL    HW2 8939   0.965   6.426   5.922
 2965SOL     OW 8940   0.406   6.886   6.997
 2965SOL    HW1 8941   0.381   6.966   0.052
 2965SOL    HW2 8942   0.335   6.816   0.007
 2966SOL     OW 8943   1.618   6.829   6.855
 2966SOL    HW1 8944   1.700   6.848   6.911
 2966SOL    HW2 8945   1.539   6.819   6.915
 2967SOL     OW 8946   1.062   6.694   6.310
 2967SOL    HW1 8947   0.983   6.645   6.346
 2967SOL    HW2 8948   1.129   6.628   6.275
 2968SOL     OW 8949   1.020   5.823   6.542
 2968SOL    HW1 8950   1.018   5.775   6.454
 2968SOL    HW2 8951   1.022   5.757   6.617
 2969SOL     OW 8952   1.698   6.009   6.945
 2969SOL    HW1 8953   1.763   6.015   0.021
 2969SOL    HW2 8954   1.701   5.918   6.905
 2970SOL     OW 8955   0.673   5.775   0.079
 2970SOL    HW1 8956   0.766   5.751   0.050
 2970SOL    HW2 8957   0.677   5.855   0.138
 2971SOL     OW 8958   0.099   5.902   5.623
 2971SOL    HW1 8959   0.003   5.878   5.623
 2971SOL    HW2 8960   0.112   5.989   5.574
 2972SOL     OW 8961   0.076   5.774   5.927
 2972SOL    HW1 8962   0.020   5.764   5.845
 2972SOL    HW2 8963   0.153   5.710   5.924
 2973SOL     OW 8964   1.471   6.857   0.319
 2973SOL    HW1 8965   1.417   6.774   0.335
 2973SOL    HW2 8966   1.552   6.834   0.265
 2974SOL     OW 8967   1.698   6.461   6.827
 2974SOL    HW1 8968   1.665   6.370   6.800
 2974SOL    HW2 8969   1.664   6.529   6.762
 2975SOL     OW 8970   1.219   5.903   6.045
 2975SOL    HW1 8971   1.283   5.826   6.036
 2975SOL    HW2 8972   1.246   5.958   6.124
 2976SOL     OW 8973   0.586   6.324   6.257
 2976SOL    HW1 8974   0.628   6.415   6.248
 2976SOL    HW2 8975   0.519   6.311   6.184
 2977SOL     OW 8976   1.785   6.505   0.082
 2977SOL    HW1 8977   1.750   6.594   0.113
 2977SOL    HW2 8978   1.751   6.486   6.990
 2978SOL     OW 8979   0.868   6.551   6.444
 2978SOL    HW1 8980   0.921   6.474   6.479
 2978SOL    HW2 8981   0.833   6.605   6.520
 2979SOL     OW 8982   1.092   6.586   5.677
 2979SOL    HW1 8983   1.051   6.633   5.598
 2979SOL    HW2 8984   1.159   6.520   5.644
 2980SOL     OW 8985   0.171   6.859   6.248
 2980SOL    HW1 8986   0.110   6.811   6.310
 2980SOL    HW2 8987   0.215   6.793   6.187
 2981SOL     OW 8988   1.812   5.759   6.836
 2981SOL    HW1 8989   1.794   5.661   6.838
 2981SOL    HW2 8990   1.825   5.788   6.741
 2982SOL     OW 8991   0.456   6.014   6.124
 2982SOL    HW1 8992   0.479   5.946   6.055
 2982SOL    HW2 8993   0.397   5.972   6.193
 2983SOL     OW 8994   1.648   0.052   6.715
 2983SOL    HW1 8995   1.601   0.044   6.626
 2983SOL    HW2 8996   1.642   6.964   6.763
 2984SOL     OW 8997   0.319   6.127   6.883
 2984SOL    HW1 8998   0.391   6.072   6.924
 2984SOL    HW2 8999   0.323   6.119   6.784
 2985SOL     OW 9000   1.433   5.821   6.704
 2985SOL    HW1 9001   1.465   5.739   6.751
 2985SOL    HW2 9002   1.379   5.877   6.767
 2986SOL     OW 9003   1.017   5.604   6.713
 2986SOL    HW1 9004   0.953   5.538   6.672
 2986SOL    HW2 9005   1.107   5.561   6.722
 2987SOL     OW 9006   0.759   6.907   5.851
 2987SOL    HW1 9007   0.737   6.812   5.872
 2987SOL    HW2 9008   0.799   6.950   5.932
 2988SOL     OW 9009   1.354   5.636   5.756
 2988SOL    HW1 9010   1.396   5.569   5.695
 2988SOL    HW2 9011   1.261   5.607   5.778
 2989SOL     OW 9012   1.291   6.049   6.266
 2989SOL    HW1 9013   1.239   6.134   6.268
 2989SOL    HW2 9014   1.289   6.006   6.356
 2990SOL     OW 9015   1.587   5.791   6.472
 2990SOL    HW1 9016   1.526   5.810   6.549
 2990SOL    HW2 9017   1.588   5.870   6.410
 2991SOL     OW 9018   0.072   6.649   5.865
 2991SOL    HW1 9019   0.165   6.611   5.861
 2991SOL    HW2 9020   0.007   6.575   5.882
 2992SOL     OW 9021   2.082   0.644   0.136
 2992SOL    HW1 9022   1.988   0.623   0.163
 2992SOL    HW2 9023   2.095   0.624   0.039
 2993SOL     OW 9024   2.084   0.302   0.996
 2993SOL    HW1 9025   2.124   0.265   1.080
 2993SOL    HW2 9026   2.002   0.252   0.973
 2994SOL     OW 9027   1.867   0.390   0.630
 2994SOL    HW1 9028   1.782   0.416   0.675
 2994SOL    HW2 9029   1.850   0.314   0.568
 2995SOL     OW 9030   2.431   1.297   1.186
 2995SOL    HW1 9031   2.341   1.293   1.142
 2995SOL    HW2 9032   2.448   1.390   1.219
 2996SOL     OW 9033   3.426   1.514   0.709
 2996SOL    HW1 9034   3.385   1.488   0.796
 2996SOL    HW2 9035   3.356   1.516   0.638
 2997SOL     OW 9036   2.995   0.701   0.695
 2997SOL    HW1 9037   3.048   0.784   0.680
 2997SOL    HW2 9038   2.943   0.709   0.780
 2998SOL     OW 9039   3.647   0.583   0.201
 2998SOL    HW1 9040   3.581   0.633   0.145
 2998SOL    HW2 9041   3.598   0.515   0.257
 2999SOL     OW 9042   2.606   1.141   1.041
 2999SOL    HW1 9043   2.538   1.176   1.106
 2999SOL    HW2 9044   2.650   1.218   0.994
 3000SOL     OW 9045   2.734   0.765   1.820
 3000SOL    HW1 9046   2.723   0.833   1.893
 3000SOL    HW2 9047   2.759   0.811   1.735
 3001SOL     OW 9048   2.545   0.998   0.650
 3001SOL    HW1 9049   2.616   0.988   0.719
 3001SOL    HW2 9050   2.471   1.055   0.685
 3002SOL     OW 9051   2.573   1.153   1.818
 3002SOL    HW1 9052   2.626   1.232   1.851
 3002SOL    HW2 9053   2.488   1.185   1.776
 3003SOL     OW 9054   2.188   1.423   1.066
 3003SOL    HW1 9055   2.112   1.378   1.020
 3003SOL    HW2 9056   2.241   1.475   0.999
 3004SOL     OW 9057   3.320   1.502   1.358
 3004SOL    HW1 9058   3.377   1.583   1.365
 3004SOL    HW2 9059   3.249   1.504   1.429
 3005SOL     OW 9060   2.306   0.398   1.483
 3005SOL    HW1 9061   2.392   0.347   1.489
 3005SOL    HW2 9062   2.229   0.334   1.489
 3006SOL     OW 9063   3.477   0.460   0.732
 3006SOL    HW1 9064   3.415   0.487   0.659
 3006SOL    HW2 9065   3.486   0.535   0.798
 3007SOL     OW 9066   2.087   1.720   0.474
 3007SOL    HW1 9067   2.104   1.799   0.532
 3007SOL    HW2 9068   2.171   1.693   0.428
 3008SOL     OW 9069   2.999   1.340   1.698
 3008SOL    HW1 9070   3.046   1.338   1.786
 3008SOL    HW2 9071   2.943   1.258   1.688
 3009SOL     OW 9072   2.084   1.446   0.539
 3009SOL    HW1 9073   2.069   1.544   0.547
 3009SOL    HW2 9074   2.027   1.398   0.606
 3010SOL     OW 9075   2.131   1.091   0.900
 3010SOL    HW1 9076   2.126   0.996   0.932
 3010SOL    HW2 9077   2.068   1.147   0.953
 3011SOL     OW 9078   2.461   1.797   1.426
 3011SOL    HW1 9079   2.378   1.773   1.476
 3011SOL    HW2 9080   2.492   1.887   1.455
 3012SOL     OW 9081   2.449   0.967   0.147
 3012SOL    HW1 9082   2.507   0.989   0.068
 3012SOL    HW2 9083   2.485   1.012   0.229
 3013SOL     OW 9084   3.441   0.132   1.446
 3013SOL    HW1 9085   3.453   0.226   1.416
 3013SOL    HW2 9086   3.463   0.125   1.544
 3014SOL     OW 9087   1.978   0.654   0.562
 3014SOL    HW1 9088   1.949   0.560   0.582
 3014SOL    HW2 9089   1.972   0.709   0.646
 3015SOL     OW 9090   3.700   1.763   0.347
 3015SOL    HW1 9091   3.770   1.733   0.410
 3015SOL    HW2 9092   3.704   1.862   0.336
 3016SOL     OW 9093   3.553   0.914   0.650
 3016SOL    HW1 9094   3.637   0.863   0.632
 3016SOL    HW2 9095   3.531   0.972   0.571
 3017SOL     OW 9096   3.517   1.096   0.445
 3017SOL    HW1 9097   3.586   1.115   0.375
 3017SOL    HW2 9098   3.523   1.165   0.517
 3018SOL     OW 9099   1.984   0.749   1.582
 3018SOL    HW1 9100   2.080   0.777   1.585
 3018SOL    HW2 9101   1.926   0.830   1.583
 3019SOL     OW 9102   2.474   1.389   0.738
 3019SOL    HW1 9103   2.428   1.301   0.751
 3019SOL    HW2 9104   2.465   1.418   0.643
 3020SOL     OW 9105   3.150   1.235   1.422
 3020SOL    HW1 9106   3.177   1.165   1.356
 3020SOL    HW2 9107   3.210   1.231   1.502
 3021SOL     OW 9108   2.684   0.029   0.522
 3021SOL    HW1 9109   2.725   0.118   0.502
 3021SOL    HW2 9110   2.584   0.038   0.524
 3022SOL     OW 9111   2.052   0.961   1.278
 3022SOL    HW1 9112   2.141   0.919   1.263
 3022SOL    HW2 9113   1.984   0.917   1.220
 3023SOL     OW 9114   3.353   1.021   0.214
 3023SOL    HW1 9115   3.285   0.955   0.247
 3023SOL    HW2 9116   3.440   1.004   0.259
 3024SOL     OW 9117   3.043   1.811   1.622
 3024SOL    HW1 9118   3.052   1.879   1.550
 3024SOL    HW2 9119   3.064   1.720   1.585
 3025SOL     OW 9120   2.182   0.270   1.790
 3025SOL    HW1 9121   2.245   0.336   1.830
 3025SOL    HW2 9122   2.095   0.272   1.840
 3026SOL     OW 9123   3.326   1.420   0.947
 3026SOL    HW1 9124   3.260   1.439   1.019
 3026SOL    HW2 9125   3.319   1.325   0.919
 3027SOL     OW 9126   3.506   1.751   0.582
 3027SOL    HW1 9127   3.486   1.724   0.488
 3027SOL    HW2 9128   3.489   1.674   0.643
 3028SOL     OW 9129   2.459   0.716   0.266
 3028SOL    HW1 9130   2.464   0.806   0.224
 3028SOL    HW2 9131   2.393   0.718   0.342
 3029SOL     OW 9132   3.145   0.367   0.949
 3029SOL    HW1 9133   3.048   0.343   0.952
 3029SOL    HW2 9134   3.194   0.316   1.020
 3030SOL     OW 9135   3.438   1.677   0.317
 3030SOL    HW1 9136   3.534   1.707   0.315
 3030SOL    HW2 9137   3.404   1.668   0.223
 3031SOL     OW 9138   2.655   0.616   1.454
 3031SOL    HW1 9139   2.628   0.590   1.547
 3031SOL    HW2 9140   2.616   0.550   1.389
 3032SOL     OW 9141   3.256   0.473   1.680
 3032SOL    HW1 9142   3.254   0.520   1.769
 3032SOL    HW2 9143   3.313   0.392   1.686
 3033SOL     OW 9144   2.815   0.885   1.583
 3033SOL    HW1 9145   2.873   0.814   1.545
 3033SOL    HW2 9146   2.761   0.927   1.510
 3034SOL     OW 9147   2.857   0.412   1.227
 3034SOL    HW1 9148   2.771   0.434   1.273
 3034SOL    HW2 9149   2.838   0.362   1.143
 3035SOL     OW 9150   2.915   0.700   0.427
 3035SOL    HW1 9151   2.938   0.697   0.524
 3035SOL    HW2 9152   2.827   0.654   0.412
 3036SOL     OW 9153   1.951   0.824   0.778
 3036SOL    HW1 9154   2.037   0.813   0.830
 3036SOL    HW2 9155   1.901   0.903   0.814
 3037SOL     OW 9156   1.990   1.871   1.588
 3037SOL    HW1 9157   1.995   1.844   1.684
 3037SOL    HW2 9158   1.905   1.838   1.547
 3038SOL     OW 9159   2.747   0.369   0.210
 3038SOL    HW1 9160   2.790   0.424   0.138
 3038SOL    HW2 9161   2.733   0.276   0.178
 3039SOL     OW 9162   3.563   0.573   1.825
 3039SOL    HW1 9163   3.527   0.652   1.776
 3039SOL    HW2 9164   3.591   0.503   1.759
 3040SOL     OW 9165   3.245   1.141   0.549
 3040SOL    HW1 9166   3.328   1.128   0.495
 3040SOL    HW2 9167   3.185   1.207   0.504
 3041SOL     OW 9168   2.367   0.191   0.911
 3041SOL    HW1 9169   2.406   0.220   0.998
 3041SOL    HW2 9170   2.392   0.257   0.839
 3042SOL     OW 9171   2.854   1.439   0.469
 3042SOL    HW1 9172   2.823   1.520   0.420
 3042SOL    HW2 9173   2.835   1.450   0.567
 3043SOL     OW 9174   2.218   1.813   0.868
 3043SOL    HW1 9175   2.261   1.724   0.875
 3043SOL    HW2 9176   2.285   1.885   0.889
 3044SOL     OW 9177   3.661   1.054   0.874
 3044SOL    HW1 9178   3.611   1.033   0.790
 3044SOL    HW2 9179   3.598   1.061   0.950
 3045SOL     OW 9180   3.088   1.536   1.514
 3045SOL    HW1 9181   3.076   1.462   1.580
 3045SOL    HW2 9182   3.021   1.527   1.441
 3046SOL     OW 9183   2.177   0.956   0.230
 3046SOL    HW1 9184   2.269   0.970   0.194
 3046SOL    HW2 9185   2.147   0.863   0.209
 3047SOL     OW 9186   3.345   0.747   0.725
 3047SOL    HW1 9187   3.340   0.706   0.816
 3047SOL    HW2 9188   3.425   0.808   0.720
 3048SOL     OW 9189   2.330   1.265   1.731
 3048SOL    HW1 9190   2.304   1.271   1.635
 3048SOL    HW2 9191   2.248   1.262   1.788
 3049SOL     OW 9192   2.982   1.766   0.242
 3049SOL    HW1 9193   2.909   1.720   0.293
 3049SOL    HW2 9194   3.019   1.703   0.174
 3050SOL     OW 9195   2.054   0.272   1.512
 3050SOL    HW1 9196   1.995   0.352   1.497
 3050SOL    HW2 9197   2.077   0.265   1.609
 3051SOL     OW 9198   3.508   1.431   0.103
 3051SOL    HW1 9199   3.460   1.512   0.071
 3051SOL    HW2 9200   3.446   1.374   0.157
 3052SOL     OW 9201   2.350   1.698   0.381
 3052SOL    HW1 9202   2.377   1.785   0.424
 3052SOL    HW2 9203   2.407   1.682   0.301
 3053SOL     OW 9204   3.288   0.133   0.425
 3053SOL    HW1 9205   3.273   0.061   0.356
 3053SOL    HW2 9206   3.386   0.142   0.443
 3054SOL     OW 9207   2.121   1.792   1.226
 3054SOL    HW1 9208   2.172   1.719   1.273
 3054SOL    HW2 9209   2.101   1.763   1.132
 3055SOL     OW 9210   2.798   1.702   0.897
 3055SOL    HW1 9211   2.880   1.654   0.928
 3055SOL    HW2 9212   2.755   1.650   0.823
 3056SOL     OW 9213   2.260   0.685   0.470
 3056SOL    HW1 9214   2.279   0.589   0.488
 3056SOL    HW2 9215   2.163   0.704   0.488
 3057SOL     OW 9216   3.391   0.230   1.727
 3057SOL    HW1 9217   3.406   0.236   1.825
 3057SOL    HW2 9218   3.304   0.183   1.709
 3058SOL     OW 9219   2.484   0.121   0.106
 3058SOL    HW1 9220   2.583   0.109   0.117
 3058SOL    HW2 9221   2.463   0.142   0.010
 3059SOL     OW 9222   2.624   0.277   1.766
 3059SOL    HW1 9223   2.712   0.231   1.759
 3059SOL    HW2 9224   2.570   0.235   1.839
 3060SOL     OW 9225   2.736   1.515   1.192
 3060SOL    HW1 9226   2.717   1.479   1.101
 3060SOL    HW2 9227   2.809   1.461   1.235
 3061SOL     OW 9228   3.204   0.591   1.437
 3061SOL    HW1 9229   3.233   0.556   1.526
 3061SOL    HW2 9230   3.239   0.684   1.424
 3062SOL     OW 9231   2.681   1.390   0.942
 3062SOL    HW1 9232   2.771   1.378   0.899
 3062SOL    HW2 9233   2.611   1.395   0.871
 3063SOL     OW 9234   2.789   0.510   0.896
 3063SOL    HW1 9235   2.761   0.504   0.800
 3063SOL    HW2 9236   2.822   0.421   0.927
 3064SOL     OW 9237   2.416   0.066   0.496
 3064SOL    HW1 9238   2.335   0.056   0.553
 3064SOL    HW2 9239   2.403   0.142   0.432
 3065SOL     OW 9240   3.282   1.213   0.012
 3065SOL    HW1 9241   3.312   1.132   0.064
 3065SOL    HW2 9242   3.200   1.251   0.054
 3066SOL     OW 9243   2.178   0.071   0.197
 3066SOL    HW1 9244   2.228   0.157   0.206
 3066SOL    HW2 9245   2.211   0.006   0.266
 3067SOL     OW 9246   2.812   0.263   0.458
 3067SOL    HW1 9247   2.780   0.304   0.372
 3067SOL    HW2 9248   2.911   0.271   0.464
 3068SOL     OW 9249   2.942   0.684   1.454
 3068SOL    HW1 9250   2.867   0.619   1.465
 3068SOL    HW2 9251   3.029   0.635   1.454
 3069SOL     OW 9252   3.081   1.567   0.796
 3069SOL    HW1 9253   3.095   1.637   0.726
 3069SOL    HW2 9254   3.154   1.574   0.864
 3070SOL     OW 9255   2.333   1.152   0.730
 3070SOL    HW1 9256   2.262   1.131   0.798
 3070SOL    HW2 9257   2.294   1.144   0.639
 3071SOL     OW 9258   3.119   1.785   0.611
 3071SOL    HW1 9259   3.174   1.848   0.557
 3071SOL    HW2 9260   3.046   1.836   0.657
 3072SOL     OW 9261   2.920   0.565   0.032
 3072SOL    HW1 9262   2.830   0.605   0.048
 3072SOL    HW2 9263   2.973   0.567   0.117
 3073SOL     OW 9264   1.953   0.552   1.397
 3073SOL    HW1 9265   2.046   0.553   1.361
 3073SOL    HW2 9266   1.943   0.626   1.464
 3074SOL     OW 9267   2.432   0.242   1.175
 3074SOL    HW1 9268   2.485   0.171   1.221
 3074SOL    HW2 9269   2.337   0.237   1.204
 3075SOL     OW 9270   2.728   0.463   0.637
 3075SOL    HW1 9271   2.682   0.524   0.573
 3075SOL    HW2 9272   2.755   0.380   0.589
 3076SOL     OW 9273   2.819   0.028   0.770
 3076SOL    HW1 9274   2.762   0.029   0.688
 3076SOL    HW2 9275   2.891   6.959   0.760
 3077SOL     OW 9276   3.308   1.161   0.860
 3077SOL    HW1 9277   3.232   1.096   0.862
 3077SOL    HW2 9278   3.340   1.171   0.766
 3078SOL     OW 9279   3.328   0.609   0.971
 3078SOL    HW1 9280   3.267   0.530   0.972
 3078SOL    HW2 9281   3.391   0.603   1.049
 3079SOL     OW 9282   3.690   0.805   0.391
 3079SOL    HW1 9283   3.751   0.746   0.444
 3079SOL    HW2 9284   3.684   0.772   0.297
 3080SOL     OW 9285   2.330   1.429   0.153
 3080SOL    HW1 9286   2.268   1.385   0.218
 3080SOL    HW2 9287   2.310   1.397   0.061
 3081SOL     OW 9288   3.535   1.266   0.652
 3081SOL    HW1 9289   3.634   1.263   0.661
 3081SOL    HW2 9290   3.502   1.359   0.667
 3082SOL     OW 9291   3.251   0.557   0.065
 3082SOL    HW1 9292   3.196   0.548   0.148
 3082SOL    HW2 9293   3.325   0.489   0.068
 3083SOL     OW 9294   2.373   0.263   0.306
 3083SOL    HW1 9295   2.425   0.208   0.241
 3083SOL    HW2 9296   2.354   0.352   0.266
 3084SOL     OW 9297   3.615   1.241   1.561
 3084SOL    HW1 9298   3.704   1.199   1.548
 3084SOL    HW2 9299   3.626   1.334   1.595
 3085SOL     OW 9300   2.915   1.350   1.336
 3085SOL    HW1 9301   2.834   1.320   1.386
 3085SOL    HW2 9302   2.997   1.310   1.378
 3086SOL     OW 9303   3.475   1.629   1.657
 3086SOL    HW1 9304   3.460   1.665   1.565
 3086SOL    HW2 9305   3.561   1.578   1.659
 3087SOL     OW 9306   2.999   1.220   1.105
 3087SOL    HW1 9307   2.939   1.253   1.177
 3087SOL    HW2 9308   2.965   1.249   1.016
 3088SOL     OW 9309   3.486   1.096   1.079
 3088SOL    HW1 9310   3.481   1.162   1.155
 3088SOL    HW2 9311   3.411   1.113   1.016
 3089SOL     OW 9312   2.757   0.150   1.388
 3089SOL    HW1 9313   2.773   0.114   1.296
 3089SOL    HW2 9314   2.844   0.177   1.429
 3090SOL     OW 9315   2.841   1.115   1.721
 3090SOL    HW1 9316   2.747   1.134   1.748
 3090SOL    HW2 9317   2.844   1.032   1.665
 3091SOL     OW 9318   2.576   1.058   0.375
 3091SOL    HW1 9319   2.556   1.041   0.472
 3091SOL    HW2 9320   2.656   1.005   0.347
 3092SOL     OW 9321   2.285   0.816   1.254
 3092SOL    HW1 9322   2.358   0.829   1.321
 3092SOL    HW2 9323   2.246   0.725   1.263
 3093SOL     OW 9324   3.122   0.378   1.286
 3093SOL    HW1 9325   3.160   0.457   1.335
 3093SOL    HW2 9326   3.028   0.397   1.260
 3094SOL     OW 9327   1.936   1.572   1.353
 3094SOL    HW1 9328   1.900   1.642   1.291
 3094SOL    HW2 9329   2.036   1.570   1.347
 3095SOL     OW 9330   2.226   1.121   0.482
 3095SOL    HW1 9331   2.201   1.196   0.421
 3095SOL    HW2 9332   2.223   1.035   0.431
 3096SOL     OW 9333   2.415   0.546   0.860
 3096SOL    HW1 9334   2.429   0.605   0.781
 3096SOL    HW2 9335   2.484   0.566   0.929
 3097SOL     OW 9336   3.106   1.345   0.405
 3097SOL    HW1 9337   3.164   1.421   0.436
 3097SOL    HW2 9338   3.011   1.362   0.432
 3098SOL     OW 9339   3.149   1.462   1.147
 3098SOL    HW1 9340   3.208   1.467   1.228
 3098SOL    HW2 9341   3.095   1.378   1.151
 3099SOL     OW 9342   3.445   0.632   0.484
 3099SOL    HW1 9343   3.389   0.681   0.552
 3099SOL    HW2 9344   3.506   0.697   0.438
 3100SOL     OW 9345   2.210   1.530   1.310
 3100SOL    HW1 9346   2.194   1.485   1.222
 3100SOL    HW2 9347   2.308   1.544   1.322
 3101SOL     OW 9348   2.280   0.744   1.601
 3101SOL    HW1 9349   2.343   0.793   1.540
 3101SOL    HW2 9350   2.319   0.654   1.624
 3102SOL     OW 9351   3.470   0.786   1.685
 3102SOL    HW1 9352   3.379   0.826   1.682
 3102SOL    HW2 9353   3.527   0.826   1.613
 3103SOL     OW 9354   2.859   0.136   1.735
 3103SOL    HW1 9355   2.902   0.182   1.657
 3103SOL    HW2 9356   2.862   0.037   1.721
 3104SOL     OW 9357   2.325   0.038   1.758
 3104SOL    HW1 9358   2.260   6.965   1.738
 3104SOL    HW2 9359   2.277   0.125   1.768
 3105SOL     OW 9360   2.446   0.873   1.033
 3105SOL    HW1 9361   2.481   0.966   1.030
 3105SOL    HW2 9362   2.386   0.862   1.113
 3106SOL     OW 9363   3.213   0.858   1.024
 3106SOL    HW1 9364   3.123   0.850   0.982
 3106SOL    HW2 9365   3.261   0.770   1.016
 3107SOL     OW 9366   3.060   0.523   0.272
 3107SOL    HW1 9367   3.078   0.444   0.331
 3107SOL    HW2 9368   3.018   0.596   0.326
 3108SOL     OW 9369   2.172   0.209   1.247
 3108SOL    HW1 9370   2.108   0.218   1.324
 3108SOL    HW2 9371   2.160   0.118   1.206
 3109SOL     OW 9372   1.914   1.310   1.275
 3109SOL    HW1 9373   1.946   1.249   1.348
 3109SOL    HW2 9374   1.917   1.404   1.308
 3110SOL     OW 9375   2.590   0.636   1.054
 3110SOL    HW1 9376   2.665   0.615   0.992
 3110SOL    HW2 9377   2.553   0.726   1.034
 3111SOL     OW 9378   3.598   0.960   1.856
 3111SOL    HW1 9379   3.555   0.892   1.797
 3111SOL    HW2 9380   3.538   0.980   1.934
 3112SOL     OW 9381   2.180   0.060   0.627
 3112SOL    HW1 9382   2.159   0.154   0.655
 3112SOL    HW2 9383   2.132   6.996   0.686
 3113SOL     OW 9384   3.489   0.398   0.354
 3113SOL    HW1 9385   3.520   0.322   0.411
 3113SOL    HW2 9386   3.463   0.475   0.412
 3114SOL     OW 9387   2.887   0.756   0.958
 3114SOL    HW1 9388   2.882   0.778   1.056
 3114SOL    HW2 9389   2.859   0.661   0.943
 3115SOL     OW 9390   2.843   1.563   1.718
 3115SOL    HW1 9391   2.826   1.610   1.631
 3115SOL    HW2 9392   2.891   1.477   1.700
 3116SOL     OW 9393   3.717   1.503   1.604
 3116SOL    HW1 9394   3.735   1.530   1.509
 3116SOL    HW2 9395   3.800   1.515   1.658
 3117SOL     OW 9396   2.215   0.918   1.804
 3117SOL    HW1 9397   2.295   0.940   1.860
 3117SOL    HW2 9398   2.242   0.852   1.734
 3118SOL     OW 9399   3.383   0.268   0.138
 3118SOL    HW1 9400   3.311   0.202   0.159
 3118SOL    HW2 9401   3.414   0.312   0.222
 3119SOL     OW 9402   3.154   0.821   0.033
 3119SOL    HW1 9403   3.202   0.734   0.023
 3119SOL    HW2 9404   3.180   0.882   6.957
 3120SOL     OW 9405   2.931   1.337   0.855
 3120SOL    HW1 9406   2.935   1.259   0.792
 3120SOL    HW2 9407   2.990   1.410   0.822
 3121SOL     OW 9408   2.173   0.809   0.943
 3121SOL    HW1 9409   2.270   0.836   0.938
 3121SOL    HW2 9410   2.167   0.714   0.974
 3122SOL     OW 9411   2.197   0.539   1.012
 3122SOL    HW1 9412   2.154   0.449   1.000
 3122SOL    HW2 9413   2.278   0.545   0.953
 3123SOL     OW 9414   2.987   0.411   1.672
 3123SOL    HW1 9415   2.939   0.453   1.749
 3123SOL    HW2 9416   3.085   0.432   1.680
 3124SOL     OW 9417   2.998   0.225   1.486
 3124SOL    HW1 9418   2.997   0.300   1.552
 3124SOL    HW2 9419   3.054   0.250   1.407
 3125SOL     OW 9420   1.955   1.784   0.943
 3125SOL    HW1 9421   1.918   1.703   0.898
 3125SOL    HW2 9422   2.049   1.800   0.911
 3126SOL     OW 9423   2.355   1.576   0.904
 3126SOL    HW1 9424   2.425   1.642   0.931
 3126SOL    HW2 9425   2.395   1.508   0.843
 3127SOL     OW 9426   2.837   0.794   1.224
 3127SOL    HW1 9427   2.897   0.769   1.300
 3127SOL    HW2 9428   2.747   0.752   1.236
 3128SOL     OW 9429   1.897   0.549   1.121
 3128SOL    HW1 9430   1.975   0.533   1.060
 3128SOL    HW2 9431   1.929   0.551   1.215
 3129SOL     OW 9432   2.047   0.530   1.729
 3129SOL    HW1 9433   2.126   0.497   1.677
 3129SOL    HW2 9434   2.007   0.608   1.682
 3130SOL     OW 9435   3.242   0.935   1.655
 3130SOL    HW1 9436   3.265   1.033   1.656
 3130SOL    HW2 9437   3.239   0.903   1.560
 3131SOL     OW 9438   2.678   0.578   0.374
 3131SOL    HW1 9439   2.690   0.499   0.315
 3131SOL    HW2 9440   2.597   0.630   0.345
 3132SOL     OW 9441   3.504   0.605   1.180
 3132SOL    HW1 9442   3.485   0.545   1.258
 3132SOL    HW2 9443   3.595   0.586   1.145
 3133SOL     OW 9444   2.102   1.547   1.726
 3133SOL    HW1 9445   2.080   1.621   1.789
 3133SOL    HW2 9446   2.108   1.461   1.776
 3134SOL     OW 9447   2.570   0.460   1.255
 3134SOL    HW1 9448   2.515   0.381   1.229
 3134SOL    HW2 9449   2.570   0.527   1.181
 3135SOL     OW 9450   2.782   1.681   1.472
 3135SOL    HW1 9451   2.756   1.635   1.387
 3135SOL    HW2 9452   2.782   1.780   1.457
 3136SOL     OW 9453   2.315   0.499   0.182
 3136SOL    HW1 9454   2.381   0.569   0.209
 3136SOL    HW2 9455   2.223   0.537   0.184
 3137SOL     OW 9456   2.004   1.138   1.476
 3137SOL    HW1 9457   2.005   1.093   1.565
 3137SOL    HW2 9458   2.024   1.070   1.404
 3138SOL     OW 9459   3.178   1.044   1.219
 3138SOL    HW1 9460   3.205   0.976   1.151
 3138SOL    HW2 9461   3.110   1.106   1.179
 3139SOL     OW 9462   3.163   0.846   0.306
 3139SOL    HW1 9463   3.082   0.816   0.357
 3139SOL    HW2 9464   3.150   0.826   0.209
 3140SOL     OW 9465   3.642   1.730   1.157
 3140SOL    HW1 9466   3.703   1.764   1.085
 3140SOL    HW2 9467   3.611   1.638   1.133
 3141SOL     OW 9468   3.103   1.733   1.105
 3141SOL    HW1 9469   3.189   1.762   1.062
 3141SOL    HW2 9470   3.109   1.636   1.129
 3142SOL     OW 9471   1.948   1.266   1.010
 3142SOL    HW1 9472   1.931   1.280   1.108
 3142SOL    HW2 9473   1.876   1.207   0.972
 3143SOL     OW 9474   2.543   1.673   1.736
 3143SOL    HW1 9475   2.480   1.751   1.731
 3143SOL    HW2 9476   2.616   1.685   1.669
 3144SOL     OW 9477   2.754   0.111   0.129
 3144SOL    HW1 9478   2.843   0.137   0.093
 3144SOL    HW2 9479   2.764   0.032   0.190
 3145SOL     OW 9480   3.580   0.175   0.482
 3145SOL    HW1 9481   3.657   0.147   0.425
 3145SOL    HW2 9482   3.566   0.108   0.555
 3146SOL     OW 9483   3.252   1.562   0.491
 3146SOL    HW1 9484   3.317   1.593   0.421
 3146SOL    HW2 9485   3.198   1.640   0.523
 3147SOL     OW 9486   2.007   1.787   1.846
 3147SOL    HW1 9487   1.950   1.719   1.891
 3147SOL    HW2 9488   2.057   1.840   1.914
 3148SOL     OW 9489   3.144   0.924   0.670
 3148SOL    HW1 9490   3.218   0.859   0.685
 3148SOL    HW2 9491   3.179   1.002   0.618
 3149SOL     OW 9492   2.666   1.279   1.426
 3149SOL    HW1 9493   2.636   1.322   1.511
 3149SOL    HW2 9494   2.596   1.293   1.356
 3150SOL     OW 9495   2.536   1.604   0.191
 3150SOL    HW1 9496   2.541   1.653   0.104
 3150SOL    HW2 9497   2.476   1.525   0.181
 3151SOL     OW 9498   3.479   1.729   1.387
 3151SOL    HW1 9499   3.536   1.729   1.306
 3151SOL    HW2 9500   3.465   1.822   1.419
 3152SOL     OW 9501   3.729   0.161   0.956
 3152SOL    HW1 9502   3.726   0.061   0.947
 3152SOL    HW2 9503   3.637   0.198   0.939
 3153SOL     OW 9504   2.120   0.313   0.714
 3153SOL    HW1 9505   2.030   0.348   0.688
 3153SOL    HW2 9506   2.127   0.312   0.814
 3154SOL     OW 9507   3.081   1.599   0.040
 3154SOL    HW1 9508   3.075   1.504   0.071
 3154SOL    HW2 9509   2.996   1.625   6.995
 3155SOL     OW 9510   2.685   1.010   1.378
 3155SOL    HW1 9511   2.736   0.994   1.294
 3155SOL    HW2 9512   2.683   1.108   1.397
 3156SOL     OW 9513   2.786   0.914   0.294
 3156SOL    HW1 9514   2.841   0.942   0.215
 3156SOL    HW2 9515   2.834   0.841   0.343
 3157SOL     OW 9516   3.350   1.654   0.041
 3157SOL    HW1 9517   3.252   1.633   0.041
 3157SOL    HW2 9518   3.381   1.669   6.947
 3158SOL     OW 9519   2.228   1.303   1.487
 3158SOL    HW1 9520   2.218   1.383   1.428
 3158SOL    HW2 9521   2.148   1.244   1.476
 3159SOL     OW 9522   3.475   1.284   1.284
 3159SOL    HW1 9523   3.538   1.265   1.359
 3159SOL    HW2 9524   3.409   1.354   1.313
 3160SOL     OW 9525   2.923   1.106   0.714
 3160SOL    HW1 9526   2.846   1.057   0.755
 3160SOL    HW2 9527   2.991   1.040   0.681
 3161SOL     OW 9528   2.886   0.249   0.951
 3161SOL    HW1 9529   2.864   0.202   0.866
 3161SOL    HW2 9530   2.877   0.185   1.028
 3162SOL     OW 9531   2.476   1.477   0.485
 3162SOL    HW1 9532   2.514   1.425   0.409
 3162SOL    HW2 9533   2.415   1.548   0.451
 3163SOL     OW 9534   3.595   0.392   1.376
 3163SOL    HW1 9535   3.664   0.464   1.381
 3163SOL    HW2 9536   3.632   0.315   1.323
 3164SOL     OW 9537   2.131   1.326   0.307
 3164SOL    HW1 9538   2.051   1.344   0.250
 3164SOL    HW2 9539   2.119   1.372   0.395
 3165SOL     OW 9540   1.977   1.034   1.728
 3165SOL    HW1 9541   1.895   1.007   1.779
 3165SOL    HW2 9542   2.057   0.989   1.767
 3166SOL     OW 9543   2.531   0.237   1.508
 3166SOL    HW1 9544   2.613   0.211   1.456
 3166SOL    HW2 9545   2.559   0.270   1.598
 3167SOL     OW 9546   1.973   0.341   0.034
 3167SOL    HW1 9547   1.919   0.281   6.975
 3167SOL    HW2 9548   2.014   0.413   6.979
 3168SOL     OW 9549   3.286   0.858   1.395
 3168SOL    HW1 9550   3.230   0.921   1.342
 3168SOL    HW2 9551   3.380   0.859   1.361
 3169SOL     OW 9552   1.932   0.167   0.306
 3169SOL    HW1 9553   1.920   0.251   0.252
 3169SOL    HW2 9554   2.013   0.118   0.273
 3170SOL     OW 9555   3.048   1.345   0.128
 3170SOL    HW1 9556   2.951   1.328   0.111
 3170SOL    HW2 9557   3.067   1.335   0.226
 3171SOL     OW 9558   2.486   0.830   1.433
 3171SOL    HW1 9559   2.543   0.911   1.418
 3171SOL    HW2 9560   2.544   0.750   1.444
 3172SOL     OW 9561   3.348   1.789   0.987
 3172SOL    HW1 9562   3.371   1.853   0.914
 3172SOL    HW2 9563   3.431   1.752   1.028
 3173SOL     OW 9564   2.582   0.558   1.706
 3173SOL    HW1 9565   2.627   0.629   1.761
 3173SOL    HW2 9566   2.603   0.468   1.744
 3174SOL     OW 9567   3.336   1.196   1.634
 3174SOL    HW1 9568   3.321   1.210   1.732
 3174SOL    HW2 9569   3.432   1.215   1.613
 3175SOL     OW 9570   2.233   1.738   1.567
 3175SOL    HW1 9571   2.149   1.790   1.552
 3175SOL    HW2 9572   2.211   1.650   1.609
 3176SOL     OW 9573   3.528   0.878   1.256
 3176SOL    HW1 9574   3.523   0.788   1.214
 3176SOL    HW2 9575   3.515   0.948   1.185
 3177SOL     OW 9576   3.087   0.316   0.455
 3177SOL    HW1 9577   3.157   0.246   0.444
 3177SOL    HW2 9578   3.107   0.371   0.536
 3178SOL     OW 9579   2.451   0.736   0.665
 3178SOL    HW1 9580   2.490   0.828   0.656
 3178SOL    HW2 9581   2.380   0.724   0.596
 3179SOL     OW 9582   3.611   0.369   1.648
 3179SOL    HW1 9583   3.603   0.384   1.550
 3179SOL    HW2 9584   3.539   0.308   1.679
 3180SOL     OW 9585   3.614   0.932   1.509
 3180SOL    HW1 9586   3.602   1.029   1.531
 3180SOL    HW2 9587   3.593   0.917   1.413
 3181SOL     OW 9588   2.764   1.383   0.052
 3181SOL    HW1 9589   2.704   1.358   0.128
 3181SOL    HW2 9590   2.768   1.483   0.044
 3182SOL     OW 9591   2.527   1.785   0.942
 3182SOL    HW1 9592   2.503   1.880   0.920
 3182SOL    HW2 9593   2.625   1.772   0.931
 3183SOL     OW 9594   2.731   0.971   0.857
 3183SOL    HW1 9595   2.783   0.893   0.893
 3183SOL    HW2 9596   2.689   1.021   0.932
 3184SOL     OW 9597   2.942   0.984   0.080
 3184SOL    HW1 9598   2.939   1.040   6.998
 3184SOL    HW2 9599   3.022   0.924   0.076
 3185SOL     OW 9600   3.708   1.557   0.846
 3185SOL    HW1 9601   3.631   1.543   0.784
 3185SOL    HW2 9602   3.709   1.485   0.916
 3186SOL     OW 9603   2.093   1.299   1.857
 3186SOL    HW1 9604   2.027   1.232   1.822
 3186SOL    HW2 9605   2.079   1.312   1.955
 3187SOL     OW 9606   1.943   1.234   0.664
 3187SOL    HW1 9607   1.962   1.184   0.748
 3187SOL    HW2 9608   1.989   1.189   0.587
 3188SOL     OW 9609   2.544   1.409   1.633
 3188SOL    HW1 9610   2.464   1.359   1.665
 3188SOL    HW2 9611   2.543   1.502   1.670
 3189SOL     OW 9612   3.713   0.183   1.246
 3189SOL    HW1 9613   3.634   0.123   1.241
 3189SOL    HW2 9614   3.742   0.209   1.154
 3190SOL     OW 9615   2.293   0.426   0.525
 3190SOL    HW1 9616   2.324   0.355   0.463
 3190SOL    HW2 9617   2.239   0.385   0.598
 3191SOL     OW 9618   3.554   1.484   1.095
 3191SOL    HW1 9619   3.474   1.465   1.038
 3191SOL    HW2 9620   3.563   1.412   1.164
 3192SOL     OW 9621   2.196   0.558   1.288
 3192SOL    HW1 9622   2.253   0.501   1.346
 3192SOL    HW2 9623   2.214   0.536   1.192
 3193SOL     OW 9624   2.689   1.579   0.680
 3193SOL    HW1 9625   2.677   1.638   0.600
 3193SOL    HW2 9626   2.613   1.515   0.687
 3194SOL     OW 9627   3.276   0.216   1.130
 3194SOL    HW1 9628   3.357   0.173   1.167
 3194SOL    HW2 9629   3.227   0.265   1.202
 3195SOL     OW 9630   2.839   0.055   1.137
 3195SOL    HW1 9631   2.781   6.992   1.086
 3195SOL    HW2 9632   2.895   0.005   1.203
 3196SOL     OW 9633   2.646   1.318   0.307
 3196SOL    HW1 9634   2.611   1.226   0.327
 3196SOL    HW2 9635   2.722   1.339   0.368
 3197SOL     OW 9636   2.485   1.559   1.290
 3197SOL    HW1 9637   2.483   1.646   1.339
 3197SOL    HW2 9638   2.576   1.546   1.249
 3198SOL     OW 9639   3.207   0.057   0.155
 3198SOL    HW1 9640   3.223   6.961   0.134
 3198SOL    HW2 9641   3.111   0.080   0.142
 3199SOL     OW 9642   3.130   0.452   0.687
 3199SOL    HW1 9643   3.085   0.541   0.683
 3199SOL    HW2 9644   3.149   0.428   0.782
 3200SOL     OW 9645   3.481   0.256   0.913
 3200SOL    HW1 9646   3.392   0.239   0.956
 3200SOL    HW2 9647   3.469   0.322   0.839
 3201SOL     OW 9648   1.944   1.052   0.355
 3201SOL    HW1 9649   2.034   1.030   0.317
 3201SOL    HW2 9650   1.892   0.967   0.369
 3202SOL     OW 9651   2.750   1.663   0.353
 3202SOL    HW1 9652   2.675   1.634   0.294
 3202SOL    HW2 9653   2.722   1.742   0.408
 3203SOL     OW 9654   2.082   0.620   1.990
 3203SOL    HW1 9655   1.993   0.619   2.034
 3203SOL    HW2 9656   2.071   0.599   1.892
 3204SOL     OW 9657   2.084   0.303   2.859
 3204SOL    HW1 9658   2.124   0.265   2.942
 3204SOL    HW2 9659   2.001   0.252   2.835
 3205SOL     OW 9660   1.871   0.395   2.490
 3205SOL    HW1 9661   1.782   0.412   2.532
 3205SOL    HW2 9662   1.862   0.322   2.422
 3206SOL     OW 9663   2.431   1.297   3.047
 3206SOL    HW1 9664   2.341   1.294   3.004
 3206SOL    HW2 9665   2.448   1.390   3.081
 3207SOL     OW 9666   3.427   1.513   2.569
 3207SOL    HW1 9667   3.384   1.489   2.657
 3207SOL    HW2 9668   3.356   1.520   2.499
 3208SOL     OW 9669   2.996   0.702   2.557
 3208SOL    HW1 9670   3.048   0.786   2.540
 3208SOL    HW2 9671   2.945   0.711   2.643
 3209SOL     OW 9672   3.630   0.602   2.084
 3209SOL    HW1 9673   3.609   0.598   1.986
 3209SOL    HW2 9674   3.592   0.521   2.130
 3210SOL     OW 9675   2.605   1.141   2.903
 3210SOL    HW1 9676   2.538   1.176   2.967
 3210SOL    HW2 9677   2.650   1.217   2.856
 3211SOL     OW 9678   2.734   0.765   3.682
 3211SOL    HW1 9679   2.723   0.834   3.755
 3211SOL    HW2 9680   2.759   0.811   3.597
 3212SOL     OW 9681   2.546   1.000   2.510
 3212SOL    HW1 9682   2.617   0.989   2.580
 3212SOL    HW2 9683   2.471   1.055   2.547
 3213SOL     OW 9684   2.573   1.153   3.680
 3213SOL    HW1 9685   2.626   1.232   3.713
 3213SOL    HW2 9686   2.488   1.185   3.638
 3214SOL     OW 9687   2.188   1.423   2.928
 3214SOL    HW1 9688   2.112   1.378   2.881
 3214SOL    HW2 9689   2.241   1.476   2.861
 3215SOL     OW 9690   3.320   1.502   3.220
 3215SOL    HW1 9691   3.377   1.583   3.227
 3215SOL    HW2 9692   3.249   1.504   3.290
 3216SOL     OW 9693   2.305   0.398   3.345
 3216SOL    HW1 9694   2.391   0.347   3.351
 3216SOL    HW2 9695   2.229   0.334   3.351
 3217SOL     OW 9696   3.478   0.457   2.591
 3217SOL    HW1 9697   3.417   0.486   2.518
 3217SOL    HW2 9698   3.487   0.530   2.659
 3218SOL     OW 9699   2.084   1.714   2.333
 3218SOL    HW1 9700   2.102   1.793   2.393
 3218SOL    HW2 9701   2.159   1.704   2.268
 3219SOL     OW 9702   2.999   1.340   3.560
 3219SOL    HW1 9703   3.046   1.338   3.648
 3219SOL    HW2 9704   2.943   1.258   3.550
 3220SOL     OW 9705   2.095   1.443   2.398
 3220SOL    HW1 9706   2.079   1.542   2.397
 3220SOL    HW2 9707   2.035   1.400   2.465
 3221SOL     OW 9708   2.131   1.091   2.762
 3221SOL    HW1 9709   2.127   0.996   2.795
 3221SOL    HW2 9710   2.069   1.147   2.816
 3222SOL     OW 9711   2.461   1.797   3.288
 3222SOL    HW1 9712   2.378   1.773   3.338
 3222SOL    HW2 9713   2.492   1.887   3.316
 3223SOL     OW 9714   2.444   0.987   2.003
 3223SOL    HW1 9715   2.491   1.034   1.928
 3223SOL    HW2 9716   2.484   1.015   2.090
 3224SOL     OW 9717   3.441   0.132   3.309
 3224SOL    HW1 9718   3.453   0.226   3.278
 3224SOL    HW2 9719   3.463   0.125   3.406
 3225SOL     OW 9720   1.976   0.661   2.426
 3225SOL    HW1 9721   1.949   0.566   2.443
 3225SOL    HW2 9722   1.970   0.713   2.511
 3226SOL     OW 9723   3.708   1.756   2.195
 3226SOL    HW1 9724   3.778   1.725   2.259
 3226SOL    HW2 9725   3.724   1.851   2.171
 3227SOL     OW 9726   1.891   1.590   1.985
 3227SOL    HW1 9727   1.875   1.494   2.004
 3227SOL    HW2 9728   1.871   1.644   2.067
 3228SOL     OW 9729   3.552   0.920   2.509
 3228SOL    HW1 9730   3.637   0.870   2.493
 3228SOL    HW2 9731   3.530   0.974   2.428
 3229SOL     OW 9732   3.515   1.104   2.294
 3229SOL    HW1 9733   3.604   1.101   2.248
 3229SOL    HW2 9734   3.517   1.171   2.368
 3230SOL     OW 9735   1.984   0.749   3.444
 3230SOL    HW1 9736   2.080   0.776   3.447
 3230SOL    HW2 9737   1.926   0.830   3.445
 3231SOL     OW 9738   2.474   1.391   2.596
 3231SOL    HW1 9739   2.428   1.303   2.608
 3231SOL    HW2 9740   2.461   1.422   2.501
 3232SOL     OW 9741   3.150   1.235   3.284
 3232SOL    HW1 9742   3.177   1.164   3.218
 3232SOL    HW2 9743   3.210   1.231   3.364
 3233SOL     OW 9744   2.685   0.029   2.383
 3233SOL    HW1 9745   2.725   0.118   2.362
 3233SOL    HW2 9746   2.585   0.036   2.384
 3234SOL     OW 9747   2.052   0.962   3.139
 3234SOL    HW1 9748   2.142   0.919   3.124
 3234SOL    HW2 9749   1.984   0.915   3.083
 3235SOL     OW 9750   3.394   1.000   2.066
 3235SOL    HW1 9751   3.320   0.939   2.096
 3235SOL    HW2 9752   3.441   1.038   2.146
 3236SOL     OW 9753   3.043   1.811   3.484
 3236SOL    HW1 9754   3.051   1.880   3.412
 3236SOL    HW2 9755   3.064   1.721   3.447
 3237SOL     OW 9756   2.182   0.270   3.652
 3237SOL    HW1 9757   2.245   0.336   3.692
 3237SOL    HW2 9758   2.095   0.272   3.702
 3238SOL     OW 9759   3.327   1.420   2.809
 3238SOL    HW1 9760   3.260   1.439   2.881
 3238SOL    HW2 9761   3.319   1.325   2.781
 3239SOL     OW 9762   3.512   1.749   2.438
 3239SOL    HW1 9763   3.495   1.720   2.344
 3239SOL    HW2 9764   3.491   1.674   2.500
 3240SOL     OW 9765   2.455   0.719   2.134
 3240SOL    HW1 9766   2.460   0.805   2.083
 3240SOL    HW2 9767   2.386   0.727   2.206
 3241SOL     OW 9768   3.145   0.367   2.811
 3241SOL    HW1 9769   3.048   0.343   2.814
 3241SOL    HW2 9770   3.194   0.316   2.882
 3242SOL     OW 9771   3.445   1.673   2.170
 3242SOL    HW1 9772   3.541   1.700   2.166
 3242SOL    HW2 9773   3.412   1.655   2.077
 3243SOL     OW 9774   2.655   0.616   3.317
 3243SOL    HW1 9775   2.628   0.590   3.410
 3243SOL    HW2 9776   2.617   0.550   3.251
 3244SOL     OW 9777   3.256   0.473   3.542
 3244SOL    HW1 9778   3.254   0.520   3.631
 3244SOL    HW2 9779   3.313   0.391   3.548
 3245SOL     OW 9780   2.815   0.885   3.445
 3245SOL    HW1 9781   2.873   0.813   3.407
 3245SOL    HW2 9782   2.761   0.927   3.372
 3246SOL     OW 9783   2.857   0.412   3.089
 3246SOL    HW1 9784   2.771   0.434   3.134
 3246SOL    HW2 9785   2.838   0.362   3.005
 3247SOL     OW 9786   2.913   0.698   2.287
 3247SOL    HW1 9787   2.934   0.694   2.384
 3247SOL    HW2 9788   2.826   0.652   2.269
 3248SOL     OW 9789   1.950   0.828   2.642
 3248SOL    HW1 9790   2.036   0.815   2.692
 3248SOL    HW2 9791   1.901   0.907   2.679
 3249SOL     OW 9792   1.990   1.871   3.450
 3249SOL    HW1 9793   1.995   1.844   3.546
 3249SOL    HW2 9794   1.904   1.838   3.410
 3250SOL     OW 9795   2.752   0.355   2.062
 3250SOL    HW1 9796   2.798   0.416   1.998
 3250SOL    HW2 9797   2.727   0.270   2.016
 3251SOL     OW 9798   3.563   0.573   3.687
 3251SOL    HW1 9799   3.527   0.652   3.638
 3251SOL    HW2 9800   3.591   0.503   3.621
 3252SOL     OW 9801   3.242   1.143   2.396
 3252SOL    HW1 9802   3.326   1.128   2.345
 3252SOL    HW2 9803   3.185   1.210   2.348
 3253SOL     OW 9804   2.365   0.190   2.773
 3253SOL    HW1 9805   2.405   0.221   2.860
 3253SOL    HW2 9806   2.390   0.254   2.701
 3254SOL     OW 9807   2.857   1.443   2.326
 3254SOL    HW1 9808   2.825   1.523   2.276
 3254SOL    HW2 9809   2.841   1.455   2.424
 3255SOL     OW 9810   2.218   1.814   2.732
 3255SOL    HW1 9811   2.262   1.724   2.739
 3255SOL    HW2 9812   2.285   1.886   2.751
 3256SOL     OW 9813   3.660   1.057   2.734
 3256SOL    HW1 9814   3.608   1.034   2.651
 3256SOL    HW2 9815   3.597   1.062   2.812
 3257SOL     OW 9816   3.088   1.536   3.376
 3257SOL    HW1 9817   3.076   1.462   3.442
 3257SOL    HW2 9818   3.021   1.528   3.303
 3258SOL     OW 9819   2.183   0.959   2.116
 3258SOL    HW1 9820   2.271   0.979   2.073
 3258SOL    HW2 9821   2.147   0.874   2.079
 3259SOL     OW 9822   3.345   0.750   2.586
 3259SOL    HW1 9823   3.339   0.706   2.676
 3259SOL    HW2 9824   3.425   0.810   2.584
 3260SOL     OW 9825   2.330   1.265   3.593
 3260SOL    HW1 9826   2.304   1.271   3.497
 3260SOL    HW2 9827   2.248   1.262   3.650
 3261SOL     OW 9828   2.984   1.776   2.089
 3261SOL    HW1 9829   2.904   1.738   2.137
 3261SOL    HW2 9830   3.013   1.712   2.018
 3262SOL     OW 9831   2.054   0.272   3.374
 3262SOL    HW1 9832   1.995   0.352   3.359
 3262SOL    HW2 9833   2.077   0.265   3.471
 3263SOL     OW 9834   3.487   1.382   1.950
 3263SOL    HW1 9835   3.448   1.473   1.935
 3263SOL    HW2 9836   3.417   1.312   1.931
 3264SOL     OW 9837   2.327   1.735   2.181
 3264SOL    HW1 9838   2.368   1.797   2.247
 3264SOL    HW2 9839   2.398   1.699   2.120
 3265SOL     OW 9840   3.287   0.132   2.288
 3265SOL    HW1 9841   3.266   0.088   2.200
 3265SOL    HW2 9842   3.386   0.138   2.299
 3266SOL     OW 9843   2.120   1.791   3.088
 3266SOL    HW1 9844   2.171   1.719   3.135
 3266SOL    HW2 9845   2.102   1.764   2.994
 3267SOL     OW 9846   2.798   1.702   2.759
 3267SOL    HW1 9847   2.881   1.655   2.789
 3267SOL    HW2 9848   2.756   1.650   2.684
 3268SOL     OW 9849   2.257   0.687   2.337
 3268SOL    HW1 9850   2.278   0.590   2.350
 3268SOL    HW2 9851   2.160   0.703   2.355
 3269SOL     OW 9852   3.391   0.230   3.589
 3269SOL    HW1 9853   3.406   0.236   3.687
 3269SOL    HW2 9854   3.305   0.182   3.571
 3270SOL     OW 9855   2.507   0.111   1.964
 3270SOL    HW1 9856   2.546   0.037   2.018
 3270SOL    HW2 9857   2.444   0.073   1.896
 3271SOL     OW 9858   2.624   0.277   3.628
 3271SOL    HW1 9859   2.712   0.231   3.621
 3271SOL    HW2 9860   2.570   0.235   3.701
 3272SOL     OW 9861   2.736   1.514   3.055
 3272SOL    HW1 9862   2.717   1.479   2.963
 3272SOL    HW2 9863   2.809   1.461   3.097
 3273SOL     OW 9864   3.204   0.591   3.299
 3273SOL    HW1 9865   3.233   0.556   3.388
 3273SOL    HW2 9866   3.239   0.684   3.287
 3274SOL     OW 9867   2.682   1.389   2.803
 3274SOL    HW1 9868   2.772   1.378   2.761
 3274SOL    HW2 9869   2.612   1.395   2.731
 3275SOL     OW 9870   2.789   0.511   2.757
 3275SOL    HW1 9871   2.761   0.505   2.661
 3275SOL    HW2 9872   2.821   0.421   2.788
 3276SOL     OW 9873   2.417   0.066   2.356
 3276SOL    HW1 9874   2.335   0.056   2.413
 3276SOL    HW2 9875   2.404   0.142   2.292
 3277SOL     OW 9876   3.288   1.199   1.905
 3277SOL    HW1 9877   3.321   1.121   1.958
 3277SOL    HW2 9878   3.199   1.228   1.941
 3278SOL     OW 9879   2.174   0.048   2.048
 3278SOL    HW1 9880   2.213   0.140   2.046
 3278SOL    HW2 9881   2.225   6.991   2.112
 3279SOL     OW 9882   2.811   0.265   2.318
 3279SOL    HW1 9883   2.781   0.301   2.230
 3279SOL    HW2 9884   2.910   0.273   2.325
 3280SOL     OW 9885   2.942   0.684   3.316
 3280SOL    HW1 9886   2.867   0.619   3.327
 3280SOL    HW2 9887   3.029   0.635   3.316
 3281SOL     OW 9888   3.082   1.569   2.656
 3281SOL    HW1 9889   3.096   1.639   2.586
 3281SOL    HW2 9890   3.153   1.578   2.726
 3282SOL     OW 9891   2.330   1.152   2.590
 3282SOL    HW1 9892   2.264   1.131   2.662
 3282SOL    HW2 9893   2.288   1.139   2.500
 3283SOL     OW 9894   3.125   1.792   2.472
 3283SOL    HW1 9895   3.177   1.854   2.413
 3283SOL    HW2 9896   3.052   1.842   2.518
 3284SOL     OW 9897   2.880   0.537   1.894
 3284SOL    HW1 9898   2.836   0.623   1.871
 3284SOL    HW2 9899   2.951   0.553   1.962
 3285SOL     OW 9900   1.953   0.552   3.259
 3285SOL    HW1 9901   2.046   0.552   3.222
 3285SOL    HW2 9902   1.943   0.626   3.326
 3286SOL     OW 9903   2.433   0.242   3.037
 3286SOL    HW1 9904   2.486   0.170   3.082
 3286SOL    HW2 9905   2.337   0.237   3.067
 3287SOL     OW 9906   2.728   0.465   2.497
 3287SOL    HW1 9907   2.677   0.525   2.436
 3287SOL    HW2 9908   2.755   0.383   2.448
 3288SOL     OW 9909   2.820   0.028   2.632
 3288SOL    HW1 9910   2.763   0.029   2.549
 3288SOL    HW2 9911   2.891   6.959   2.622
 3289SOL     OW 9912   3.307   1.161   2.720
 3289SOL    HW1 9913   3.231   1.096   2.724
 3289SOL    HW2 9914   3.336   1.172   2.625
 3290SOL     OW 9915   3.328   0.609   2.832
 3290SOL    HW1 9916   3.267   0.529   2.834
 3290SOL    HW2 9917   3.391   0.603   2.910
 3291SOL     OW 9918   3.704   0.810   2.242
 3291SOL    HW1 9919   3.762   0.762   2.308
 3291SOL    HW2 9920   3.674   0.746   2.171
 3292SOL     OW 9921   2.349   1.420   2.017
 3292SOL    HW1 9922   2.269   1.394   2.070
 3292SOL    HW2 9923   2.347   1.375   1.928
 3293SOL     OW 9924   3.537   1.267   2.505
 3293SOL    HW1 9925   3.636   1.264   2.517
 3293SOL    HW2 9926   3.503   1.358   2.526
 3294SOL     OW 9927   3.253   0.575   1.933
 3294SOL    HW1 9928   3.189   0.552   2.007
 3294SOL    HW2 9929   3.347   0.560   1.964
 3295SOL     OW 9930   2.385   0.263   2.165
 3295SOL    HW1 9931   2.442   0.213   2.099
 3295SOL    HW2 9932   2.361   0.352   2.128
 3296SOL     OW 9933   3.615   1.241   3.423
 3296SOL    HW1 9934   3.704   1.199   3.410
 3296SOL    HW2 9935   3.626   1.334   3.457
 3297SOL     OW 9936   2.916   1.350   3.198
 3297SOL    HW1 9937   2.834   1.320   3.248
 3297SOL    HW2 9938   2.997   1.310   3.240
 3298SOL     OW 9939   3.475   1.629   3.519
 3298SOL    HW1 9940   3.460   1.665   3.427
 3298SOL    HW2 9941   3.561   1.578   3.521
 3299SOL     OW 9942   2.999   1.219   2.967
 3299SOL    HW1 9943   2.939   1.253   3.039
 3299SOL    HW2 9944   2.965   1.250   2.878
 3300SOL     OW 9945   3.486   1.097   2.941
 3300SOL    HW1 9946   3.482   1.162   3.017
 3300SOL    HW2 9947   3.410   1.113   2.879
 3301SOL     OW 9948   2.756   0.150   3.250
 3301SOL    HW1 9949   2.773   0.114   3.158
 3301SOL    HW2 9950   2.843   0.177   3.291
 3302SOL     OW 9951   2.841   1.115   3.583
 3302SOL    HW1 9952   2.747   1.134   3.610
 3302SOL    HW2 9953   2.844   1.032   3.527
 3303SOL     OW 9954   2.575   1.059   2.235
 3303SOL    HW1 9955   2.557   1.041   2.332
 3303SOL    HW2 9956   2.654   1.005   2.205
 3304SOL     OW 9957   2.285   0.816   3.116
 3304SOL    HW1 9958   2.358   0.829   3.183
 3304SOL    HW2 9959   2.246   0.725   3.125
 3305SOL     OW 9960   3.122   0.378   3.148
 3305SOL    HW1 9961   3.160   0.457   3.197
 3305SOL    HW2 9962   3.028   0.397   3.122
 3306SOL     OW 9963   1.936   1.572   3.215
 3306SOL    HW1 9964   1.901   1.642   3.154
 3306SOL    HW2 9965   2.036   1.570   3.209
 3307SOL     OW 9966   2.204   1.118   2.349
 3307SOL    HW1 9967   2.210   1.200   2.292
 3307SOL    HW2 9968   2.202   1.037   2.291
 3308SOL     OW 9969   2.415   0.546   2.723
 3308SOL    HW1 9970   2.429   0.606   2.644
 3308SOL    HW2 9971   2.485   0.566   2.792
 3309SOL     OW 9972   3.108   1.354   2.254
 3309SOL    HW1 9973   3.169   1.427   2.285
 3309SOL    HW2 9974   3.015   1.374   2.285
 3310SOL     OW 9975   3.150   1.462   3.009
 3310SOL    HW1 9976   3.208   1.467   3.090
 3310SOL    HW2 9977   3.095   1.378   3.013
 3311SOL     OW 9978   3.434   0.623   2.347
 3311SOL    HW1 9979   3.386   0.677   2.416
 3311SOL    HW2 9980   3.487   0.683   2.287
 3312SOL     OW 9981   2.210   1.530   3.172
 3312SOL    HW1 9982   2.194   1.485   3.084
 3312SOL    HW2 9983   2.308   1.543   3.184
 3313SOL     OW 9984   2.280   0.744   3.463
 3313SOL    HW1 9985   2.343   0.792   3.403
 3313SOL    HW2 9986   2.319   0.654   3.486
 3314SOL     OW 9987   3.470   0.786   3.547
 3314SOL    HW1 9988   3.379   0.826   3.544
 3314SOL    HW2 9989   3.527   0.826   3.475
 3315SOL     OW 9990   2.859   0.136   3.597
 3315SOL    HW1 9991   2.902   0.181   3.518
 3315SOL    HW2 9992   2.862   0.037   3.583
 3316SOL     OW 9993   2.325   0.038   3.620
 3316SOL    HW1 9994   2.260   6.965   3.598
 3316SOL    HW2 9995   2.277   0.125   3.630
 3317SOL     OW 9996   2.446   0.873   2.895
 3317SOL    HW1 9997   2.482   0.966   2.894
 3317SOL    HW2 9998   2.386   0.862   2.975
 3318SOL     OW 9999   3.213   0.858   2.886
 3318SOL    HW110000   3.122   0.849   2.846
 3318SOL    HW210001   3.262   0.770   2.878
 3319SOL     OW10002   3.060   0.527   2.126
 3319SOL    HW110003   3.072   0.444   2.180
 3319SOL    HW210004   3.015   0.597   2.181
 3320SOL     OW10005   2.172   0.209   3.109
 3320SOL    HW110006   2.108   0.218   3.186
 3320SOL    HW210007   2.161   0.119   3.067
 3321SOL     OW10008   1.914   1.310   3.137
 3321SOL    HW110009   1.946   1.249   3.210
 3321SOL    HW210010   1.917   1.404   3.170
 3322SOL     OW10011   2.591   0.636   2.917
 3322SOL    HW110012   2.665   0.615   2.854
 3322SOL    HW210013   2.553   0.727   2.895
 3323SOL     OW10014   3.598   0.961   3.718
 3323SOL    HW110015   3.555   0.892   3.659
 3323SOL    HW210016   3.538   0.980   3.796
 3324SOL     OW10017   2.183   0.060   2.491
 3324SOL    HW110018   2.160   0.153   2.518
 3324SOL    HW210019   2.139   6.995   2.554
 3325SOL     OW10020   3.488   0.393   2.206
 3325SOL    HW110021   3.518   0.315   2.261
 3325SOL    HW210022   3.457   0.466   2.267
 3326SOL     OW10023   2.887   0.756   2.820
 3326SOL    HW110024   2.882   0.778   2.918
 3326SOL    HW210025   2.859   0.662   2.805
 3327SOL     OW10026   2.843   1.563   3.579
 3327SOL    HW110027   2.826   1.610   3.493
 3327SOL    HW210028   2.891   1.477   3.561
 3328SOL     OW10029   3.717   1.503   3.466
 3328SOL    HW110030   3.735   1.530   3.371
 3328SOL    HW210031   3.800   1.515   3.520
 3329SOL     OW10032   2.215   0.918   3.666
 3329SOL    HW110033   2.294   0.940   3.722
 3329SOL    HW210034   2.242   0.852   3.596
 3330SOL     OW10035   3.401   0.234   1.997
 3330SOL    HW110036   3.302   0.230   2.005
 3330SOL    HW210037   3.439   0.293   2.069
 3331SOL     OW10038   3.151   0.826   1.888
 3331SOL    HW110039   3.190   0.735   1.896
 3331SOL    HW210040   3.182   0.869   1.803
 3332SOL     OW10041   2.932   1.338   2.717
 3332SOL    HW110042   2.936   1.260   2.654
 3332SOL    HW210043   2.991   1.411   2.683
 3333SOL     OW10044   2.173   0.809   2.804
 3333SOL    HW110045   2.270   0.836   2.799
 3333SOL    HW210046   2.166   0.715   2.836
 3334SOL     OW10047   2.197   0.539   2.874
 3334SOL    HW110048   2.154   0.450   2.862
 3334SOL    HW210049   2.278   0.545   2.815
 3335SOL     OW10050   2.987   0.411   3.534
 3335SOL    HW110051   2.939   0.453   3.611
 3335SOL    HW210052   3.085   0.432   3.541
 3336SOL     OW10053   2.997   0.225   3.348
 3336SOL    HW110054   2.997   0.300   3.414
 3336SOL    HW210055   3.054   0.250   3.269
 3337SOL     OW10056   1.863   1.315   2.057
 3337SOL    HW110057   1.773   1.335   2.017
 3337SOL    HW210058   1.864   1.222   2.092
 3338SOL     OW10059   1.955   1.783   2.805
 3338SOL    HW110060   1.919   1.702   2.760
 3338SOL    HW210061   2.049   1.800   2.773
 3339SOL     OW10062   2.356   1.576   2.767
 3339SOL    HW110063   2.425   1.642   2.794
 3339SOL    HW210064   2.396   1.508   2.705
 3340SOL     OW10065   2.837   0.794   3.086
 3340SOL    HW110066   2.896   0.769   3.162
 3340SOL    HW210067   2.747   0.751   3.097
 3341SOL     OW10068   1.897   0.550   2.982
 3341SOL    HW110069   1.975   0.532   2.922
 3341SOL    HW210070   1.928   0.551   3.077
 3342SOL     OW10071   2.047   0.530   3.591
 3342SOL    HW110072   2.126   0.497   3.539
 3342SOL    HW210073   2.007   0.608   3.544
 3343SOL     OW10074   3.242   0.935   3.517
 3343SOL    HW110075   3.265   1.033   3.518
 3343SOL    HW210076   3.239   0.903   3.422
 3344SOL     OW10077   2.679   0.576   2.222
 3344SOL    HW110078   2.689   0.496   2.164
 3344SOL    HW210079   2.600   0.630   2.192
 3345SOL     OW10080   3.504   0.605   3.042
 3345SOL    HW110081   3.485   0.545   3.119
 3345SOL    HW210082   3.595   0.586   3.007
 3346SOL     OW10083   2.102   1.547   3.588
 3346SOL    HW110084   2.080   1.621   3.651
 3346SOL    HW210085   2.108   1.461   3.638
 3347SOL     OW10086   2.571   0.461   3.118
 3347SOL    HW110087   2.515   0.382   3.091
 3347SOL    HW210088   2.570   0.528   3.043
 3348SOL     OW10089   2.782   1.681   3.333
 3348SOL    HW110090   2.756   1.635   3.248
 3348SOL    HW210091   2.782   1.780   3.319
 3349SOL     OW10092   2.321   0.495   2.041
 3349SOL    HW110093   2.386   0.567   2.068
 3349SOL    HW210094   2.230   0.535   2.030
 3350SOL     OW10095   2.004   1.138   3.337
 3350SOL    HW110096   2.006   1.093   3.427
 3350SOL    HW210097   2.024   1.070   3.266
 3351SOL     OW10098   3.178   1.044   3.081
 3351SOL    HW110099   3.205   0.976   3.013
 3351SOL    HW210100   3.110   1.106   3.041
 3352SOL     OW10101   3.178   0.856   2.161
 3352SOL    HW110102   3.101   0.829   2.220
 3352SOL    HW210103   3.152   0.844   2.065
 3353SOL     OW10104   3.642   1.730   3.018
 3353SOL    HW110105   3.703   1.764   2.947
 3353SOL    HW210106   3.611   1.638   2.994
 3354SOL     OW10107   3.103   1.733   2.967
 3354SOL    HW110108   3.189   1.762   2.924
 3354SOL    HW210109   3.109   1.636   2.991
 3355SOL     OW10110   1.948   1.265   2.873
 3355SOL    HW110111   1.932   1.280   2.970
 3355SOL    HW210112   1.875   1.207   2.836
 3356SOL     OW10113   2.543   1.673   3.598
 3356SOL    HW110114   2.480   1.751   3.593
 3356SOL    HW210115   2.616   1.685   3.531
 3357SOL     OW10116   3.568   0.165   2.331
 3357SOL    HW110117   3.653   0.149   2.282
 3357SOL    HW210118   3.565   0.108   2.413
 3358SOL     OW10119   3.257   1.570   2.349
 3358SOL    HW110120   3.320   1.602   2.279
 3358SOL    HW210121   3.202   1.647   2.382
 3359SOL     OW10122   2.007   1.787   3.708
 3359SOL    HW110123   1.950   1.719   3.753
 3359SOL    HW210124   2.057   1.840   3.776
 3360SOL     OW10125   3.144   0.928   2.528
 3360SOL    HW110126   3.219   0.864   2.545
 3360SOL    HW210127   3.177   1.005   2.473
 3361SOL     OW10128   2.666   1.279   3.288
 3361SOL    HW110129   2.636   1.322   3.374
 3361SOL    HW210130   2.597   1.294   3.218
 3362SOL     OW10131   2.531   1.621   2.016
 3362SOL    HW110132   2.547   1.640   1.919
 3362SOL    HW210133   2.472   1.541   2.025
 3363SOL     OW10134   3.479   1.729   3.249
 3363SOL    HW110135   3.536   1.729   3.167
 3363SOL    HW210136   3.465   1.822   3.281
 3364SOL     OW10137   3.728   0.161   2.818
 3364SOL    HW110138   3.726   0.062   2.808
 3364SOL    HW210139   3.637   0.198   2.802
 3365SOL     OW10140   2.122   0.313   2.577
 3365SOL    HW110141   2.032   0.349   2.550
 3365SOL    HW210142   2.128   0.311   2.677
 3366SOL     OW10143   3.070   1.601   1.895
 3366SOL    HW110144   3.061   1.507   1.928
 3366SOL    HW210145   3.004   1.618   1.823
 3367SOL     OW10146   2.685   1.010   3.240
 3367SOL    HW110147   2.736   0.993   3.156
 3367SOL    HW210148   2.683   1.108   3.259
 3368SOL     OW10149   2.782   0.911   2.149
 3368SOL    HW110150   2.843   0.946   2.078
 3368SOL    HW210151   2.828   0.839   2.201
 3369SOL     OW10152   3.350   1.630   1.904
 3369SOL    HW110153   3.252   1.619   1.893
 3369SOL    HW210154   3.394   1.635   1.814
 3370SOL     OW10155   2.228   1.303   3.349
 3370SOL    HW110156   2.218   1.383   3.290
 3370SOL    HW210157   2.148   1.244   3.338
 3371SOL     OW10158   3.475   1.284   3.146
 3371SOL    HW110159   3.538   1.265   3.221
 3371SOL    HW210160   3.409   1.354   3.175
 3372SOL     OW10161   2.923   1.107   2.577
 3372SOL    HW110162   2.847   1.056   2.617
 3372SOL    HW210163   2.992   1.042   2.543
 3373SOL     OW10164   2.886   0.249   2.813
 3373SOL    HW110165   2.864   0.202   2.728
 3373SOL    HW210166   2.877   0.185   2.890
 3374SOL     OW10167   2.467   1.486   2.342
 3374SOL    HW110168   2.518   1.432   2.275
 3374SOL    HW210169   2.393   1.535   2.295
 3375SOL     OW10170   3.595   0.392   3.237
 3375SOL    HW110171   3.664   0.464   3.243
 3375SOL    HW210172   3.632   0.315   3.185
 3376SOL     OW10173   2.115   1.348   2.150
 3376SOL    HW110174   2.019   1.341   2.123
 3376SOL    HW210175   2.121   1.386   2.242
 3377SOL     OW10176   1.976   1.034   3.590
 3377SOL    HW110177   1.895   1.006   3.640
 3377SOL    HW210178   2.057   0.989   3.629
 3378SOL     OW10179   2.531   0.237   3.370
 3378SOL    HW110180   2.612   0.211   3.318
 3378SOL    HW210181   2.559   0.270   3.461
 3379SOL     OW10182   1.938   0.333   1.896
 3379SOL    HW110183   1.842   0.311   1.879
 3379SOL    HW210184   1.963   0.414   1.842
 3380SOL     OW10185   3.286   0.858   3.257
 3380SOL    HW110186   3.230   0.921   3.204
 3380SOL    HW210187   3.380   0.859   3.223
 3381SOL     OW10188   1.934   0.178   2.179
 3381SOL    HW110189   1.937   0.248   2.108
 3381SOL    HW210190   1.986   0.098   2.149
 3382SOL     OW10191   3.042   1.337   1.983
 3382SOL    HW110192   2.947   1.308   1.976
 3382SOL    HW210193   3.070   1.339   2.079
 3383SOL     OW10194   2.486   0.830   3.295
 3383SOL    HW110195   2.542   0.911   3.280
 3383SOL    HW210196   2.544   0.750   3.306
 3384SOL     OW10197   3.347   1.788   2.849
 3384SOL    HW110198   3.368   1.851   2.774
 3384SOL    HW210199   3.432   1.754   2.889
 3385SOL     OW10200   2.582   0.558   3.568
 3385SOL    HW110201   2.627   0.629   3.624
 3385SOL    HW210202   2.603   0.468   3.606
 3386SOL     OW10203   3.336   1.196   3.496
 3386SOL    HW110204   3.320   1.210   3.594
 3386SOL    HW210205   3.432   1.215   3.475
 3387SOL     OW10206   2.233   1.738   3.429
 3387SOL    HW110207   2.149   1.790   3.414
 3387SOL    HW210208   2.211   1.650   3.471
 3388SOL     OW10209   3.528   0.878   3.118
 3388SOL    HW110210   3.523   0.787   3.077
 3388SOL    HW210211   3.515   0.948   3.047
 3389SOL     OW10212   3.086   0.318   2.318
 3389SOL    HW110213   3.156   0.247   2.310
 3389SOL    HW210214   3.105   0.375   2.398
 3390SOL     OW10215   2.450   0.737   2.529
 3390SOL    HW110216   2.490   0.828   2.518
 3390SOL    HW210217   2.380   0.723   2.459
 3391SOL     OW10218   3.611   0.369   3.510
 3391SOL    HW110219   3.603   0.384   3.411
 3391SOL    HW210220   3.539   0.308   3.541
 3392SOL     OW10221   3.614   0.932   3.372
 3392SOL    HW110222   3.602   1.029   3.393
 3392SOL    HW210223   3.593   0.917   3.275
 3393SOL     OW10224   2.728   1.364   1.905
 3393SOL    HW110225   2.687   1.388   1.993
 3393SOL    HW210226   2.743   1.447   1.852
 3394SOL     OW10227   2.527   1.785   2.804
 3394SOL    HW110228   2.503   1.880   2.782
 3394SOL    HW210229   2.625   1.772   2.793
 3395SOL     OW10230   2.731   0.970   2.718
 3395SOL    HW110231   2.782   0.893   2.755
 3395SOL    HW210232   2.688   1.021   2.793
 3396SOL     OW10233   2.940   0.989   1.946
 3396SOL    HW110234   2.912   1.043   1.866
 3396SOL    HW210235   3.017   0.931   1.921
 3397SOL     OW10236   3.708   1.556   2.709
 3397SOL    HW110237   3.631   1.544   2.646
 3397SOL    HW210238   3.703   1.487   2.781
 3398SOL     OW10239   2.093   1.299   3.719
 3398SOL    HW110240   2.027   1.232   3.685
 3398SOL    HW210241   2.079   1.312   3.817
 3399SOL     OW10242   1.949   1.230   2.525
 3399SOL    HW110243   1.954   1.184   2.614
 3399SOL    HW210244   2.017   1.190   2.464
 3400SOL     OW10245   2.544   1.409   3.495
 3400SOL    HW110246   2.464   1.359   3.527
 3400SOL    HW210247   2.543   1.502   3.532
 3401SOL     OW10248   3.713   0.183   3.108
 3401SOL    HW110249   3.634   0.123   3.103
 3401SOL    HW210250   3.742   0.209   3.016
 3402SOL     OW10251   2.292   0.426   2.386
 3402SOL    HW110252   2.327   0.355   2.325
 3402SOL    HW210253   2.239   0.384   2.459
 3403SOL     OW10254   3.555   1.482   2.956
 3403SOL    HW110255   3.474   1.465   2.900
 3403SOL    HW210256   3.564   1.411   3.026
 3404SOL     OW10257   2.196   0.558   3.150
 3404SOL    HW110258   2.253   0.501   3.208
 3404SOL    HW210259   2.214   0.536   3.054
 3405SOL     OW10260   2.691   1.580   2.540
 3405SOL    HW110261   2.677   1.641   2.463
 3405SOL    HW210262   2.614   1.516   2.547
 3406SOL     OW10263   3.275   0.216   2.991
 3406SOL    HW110264   3.357   0.172   3.029
 3406SOL    HW210265   3.227   0.265   3.064
 3407SOL     OW10266   2.839   0.055   2.999
 3407SOL    HW110267   2.782   6.992   2.947
 3407SOL    HW210268   2.894   0.005   3.065
 3408SOL     OW10269   2.636   1.332   2.183
 3408SOL    HW110270   2.608   1.236   2.191
 3408SOL    HW210271   2.721   1.346   2.234
 3409SOL     OW10272   2.485   1.559   3.152
 3409SOL    HW110273   2.483   1.646   3.201
 3409SOL    HW210274   2.576   1.546   3.111
 3410SOL     OW10275   3.184   0.016   2.054
 3410SOL    HW110276   3.231   6.948   1.998
 3410SOL    HW210277   3.108   6.972   2.102
 3411SOL     OW10278   3.130   0.454   2.549
 3411SOL    HW110279   3.086   0.543   2.546
 3411SOL    HW210280   3.149   0.430   2.644
 3412SOL     OW10281   3.481   0.257   2.777
 3412SOL    HW110282   3.392   0.237   2.818
 3412SOL    HW210283   3.469   0.321   2.701
 3413SOL     OW10284   1.905   1.064   2.170
 3413SOL    HW110285   2.003   1.064   2.150
 3413SOL    HW210286   1.875   0.971   2.192
 3414SOL     OW10287   2.746   1.662   2.202
 3414SOL    HW110288   2.671   1.641   2.139
 3414SOL    HW210289   2.720   1.740   2.260
 3415SOL     OW10290   2.082   0.620   3.851
 3415SOL    HW110291   1.993   0.619   3.896
 3415SOL    HW210292   2.071   0.599   3.754
 3416SOL     OW10293   2.084   0.303   4.721
 3416SOL    HW110294   2.124   0.265   4.804
 3416SOL    HW210295   2.001   0.252   4.697
 3417SOL     OW10296   1.871   0.395   4.352
 3417SOL    HW110297   1.782   0.412   4.394
 3417SOL    HW210298   1.862   0.322   4.284
 3418SOL     OW10299   2.431   1.297   4.909
 3418SOL    HW110300   2.341   1.294   4.866
 3418SOL    HW210301   2.448   1.390   4.943
 3419SOL     OW10302   3.427   1.513   4.431
 3419SOL    HW110303   3.384   1.489   4.519
 3419SOL    HW210304   3.356   1.520   4.361
 3420SOL     OW10305   2.996   0.702   4.419
 3420SOL    HW110306   3.048   0.786   4.402
 3420SOL    HW210307   2.945   0.711   4.505
 3421SOL     OW10308   3.630   0.602   3.946
 3421SOL    HW110309   3.609   0.598   3.848
 3421SOL    HW210310   3.592   0.521   3.992
 3422SOL     OW10311   2.605   1.141   4.765
 3422SOL    HW110312   2.538   1.176   4.829
 3422SOL    HW210313   2.650   1.217   4.718
 3423SOL     OW10314   2.734   0.765   5.544
 3423SOL    HW110315   2.723   0.834   5.617
 3423SOL    HW210316   2.759   0.811   5.459
 3424SOL     OW10317   2.546   1.000   4.372
 3424SOL    HW110318   2.617   0.989   4.442
 3424SOL    HW210319   2.471   1.055   4.409
 3425SOL     OW10320   2.573   1.153   5.542
 3425SOL    HW110321   2.626   1.232   5.575
 3425SOL    HW210322   2.488   1.185   5.500
 3426SOL     OW10323   2.188   1.423   4.790
 3426SOL    HW110324   2.112   1.378   4.743
 3426SOL    HW210325   2.241   1.476   4.723
 3427SOL     OW10326   3.320   1.502   5.082
 3427SOL    HW110327   3.377   1.583   5.089
 3427SOL    HW210328   3.249   1.504   5.153
 3428SOL     OW10329   2.305   0.398   5.207
 3428SOL    HW110330   2.391   0.347   5.213
 3428SOL    HW210331   2.229   0.334   5.213
 3429SOL     OW10332   3.478   0.457   4.453
 3429SOL    HW110333   3.417   0.486   4.380
 3429SOL    HW210334   3.487   0.530   4.521
 3430SOL     OW10335   2.084   1.714   4.195
 3430SOL    HW110336   2.102   1.793   4.255
 3430SOL    HW210337   2.159   1.704   4.130
 3431SOL     OW10338   2.999   1.340   5.422
 3431SOL    HW110339   3.046   1.338   5.510
 3431SOL    HW210340   2.943   1.258   5.412
 3432SOL     OW10341   2.095   1.443   4.260
 3432SOL    HW110342   2.079   1.542   4.259
 3432SOL    HW210343   2.035   1.400   4.327
 3433SOL     OW10344   2.131   1.090   4.624
 3433SOL    HW110345   2.127   0.996   4.657
 3433SOL    HW210346   2.069   1.147   4.678
 3434SOL     OW10347   2.461   1.797   5.150
 3434SOL    HW110348   2.378   1.773   5.200
 3434SOL    HW210349   2.492   1.887   5.178
 3435SOL     OW10350   2.444   0.987   3.865
 3435SOL    HW110351   2.491   1.034   3.790
 3435SOL    HW210352   2.484   1.015   3.952
 3436SOL     OW10353   3.441   0.132   5.171
 3436SOL    HW110354   3.453   0.226   5.140
 3436SOL    HW210355   3.463   0.125   5.268
 3437SOL     OW10356   1.976   0.661   4.288
 3437SOL    HW110357   1.949   0.566   4.305
 3437SOL    HW210358   1.970   0.713   4.373
 3438SOL     OW10359   3.708   1.756   4.057
 3438SOL    HW110360   3.778   1.725   4.121
 3438SOL    HW210361   3.724   1.852   4.033
 3439SOL     OW10362   1.891   1.590   3.847
 3439SOL    HW110363   1.875   1.494   3.866
 3439SOL    HW210364   1.870   1.644   3.929
 3440SOL     OW10365   3.552   0.920   4.371
 3440SOL    HW110366   3.637   0.870   4.355
 3440SOL    HW210367   3.530   0.974   4.290
 3441SOL     OW10368   3.515   1.104   4.156
 3441SOL    HW110369   3.604   1.101   4.111
 3441SOL    HW210370   3.517   1.171   4.230
 3442SOL     OW10371   1.984   0.749   5.306
 3442SOL    HW110372   2.080   0.776   5.309
 3442SOL    HW210373   1.926   0.830   5.307
 3443SOL     OW10374   2.474   1.391   4.458
 3443SOL    HW110375   2.428   1.303   4.470
 3443SOL    HW210376   2.461   1.422   4.363
 3444SOL     OW10377   3.150   1.235   5.146
 3444SOL    HW110378   3.177   1.164   5.080
 3444SOL    HW210379   3.210   1.231   5.226
 3445SOL     OW10380   2.685   0.029   4.245
 3445SOL    HW110381   2.725   0.118   4.224
 3445SOL    HW210382   2.585   0.036   4.247
 3446SOL     OW10383   2.052   0.962   5.001
 3446SOL    HW110384   2.142   0.919   4.986
 3446SOL    HW210385   1.984   0.915   4.945
 3447SOL     OW10386   3.394   1.000   3.928
 3447SOL    HW110387   3.320   0.940   3.958
 3447SOL    HW210388   3.441   1.038   4.008
 3448SOL     OW10389   3.043   1.811   5.346
 3448SOL    HW110390   3.051   1.880   5.274
 3448SOL    HW210391   3.064   1.720   5.309
 3449SOL     OW10392   2.182   0.269   5.514
 3449SOL    HW110393   2.245   0.336   5.554
 3449SOL    HW210394   2.095   0.272   5.564
 3450SOL     OW10395   3.327   1.420   4.671
 3450SOL    HW110396   3.260   1.439   4.743
 3450SOL    HW210397   3.319   1.325   4.643
 3451SOL     OW10398   3.512   1.749   4.300
 3451SOL    HW110399   3.495   1.720   4.206
 3451SOL    HW210400   3.491   1.674   4.362
 3452SOL     OW10401   2.455   0.719   3.996
 3452SOL    HW110402   2.460   0.805   3.945
 3452SOL    HW210403   2.386   0.727   4.068
 3453SOL     OW10404   3.145   0.367   4.673
 3453SOL    HW110405   3.048   0.343   4.676
 3453SOL    HW210406   3.194   0.316   4.744
 3454SOL     OW10407   3.445   1.672   4.032
 3454SOL    HW110408   3.541   1.700   4.028
 3454SOL    HW210409   3.412   1.655   3.939
 3455SOL     OW10410   2.655   0.616   5.179
 3455SOL    HW110411   2.628   0.590   5.272
 3455SOL    HW210412   2.617   0.550   5.114
 3456SOL     OW10413   3.256   0.473   5.404
 3456SOL    HW110414   3.254   0.520   5.493
 3456SOL    HW210415   3.313   0.391   5.410
 3457SOL     OW10416   2.815   0.885   5.307
 3457SOL    HW110417   2.873   0.813   5.269
 3457SOL    HW210418   2.761   0.927   5.234
 3458SOL     OW10419   2.857   0.412   4.951
 3458SOL    HW110420   2.771   0.434   4.996
 3458SOL    HW210421   2.838   0.362   4.867
 3459SOL     OW10422   2.913   0.698   4.149
 3459SOL    HW110423   2.934   0.694   4.247
 3459SOL    HW210424   2.826   0.652   4.131
 3460SOL     OW10425   1.950   0.828   4.504
 3460SOL    HW110426   2.036   0.815   4.554
 3460SOL    HW210427   1.901   0.907   4.541
 3461SOL     OW10428   1.990   1.871   5.312
 3461SOL    HW110429   1.995   1.844   5.408
 3461SOL    HW210430   1.905   1.838   5.272
 3462SOL     OW10431   2.752   0.355   3.924
 3462SOL    HW110432   2.798   0.416   3.860
 3462SOL    HW210433   2.727   0.270   3.878
 3463SOL     OW10434   3.563   0.573   5.549
 3463SOL    HW110435   3.527   0.652   5.500
 3463SOL    HW210436   3.591   0.503   5.483
 3464SOL     OW10437   3.242   1.143   4.258
 3464SOL    HW110438   3.326   1.128   4.207
 3464SOL    HW210439   3.185   1.210   4.210
 3465SOL     OW10440   2.365   0.190   4.635
 3465SOL    HW110441   2.405   0.221   4.722
 3465SOL    HW210442   2.390   0.254   4.563
 3466SOL     OW10443   2.857   1.443   4.188
 3466SOL    HW110444   2.825   1.523   4.138
 3466SOL    HW210445   2.841   1.455   4.286
 3467SOL     OW10446   2.218   1.814   4.594
 3467SOL    HW110447   2.262   1.724   4.601
 3467SOL    HW210448   2.285   1.886   4.613
 3468SOL     OW10449   3.660   1.057   4.596
 3468SOL    HW110450   3.608   1.034   4.513
 3468SOL    HW210451   3.597   1.062   4.674
 3469SOL     OW10452   3.088   1.536   5.238
 3469SOL    HW110453   3.076   1.462   5.304
 3469SOL    HW210454   3.021   1.527   5.165
 3470SOL     OW10455   2.183   0.959   3.978
 3470SOL    HW110456   2.271   0.979   3.935
 3470SOL    HW210457   2.147   0.873   3.941
 3471SOL     OW10458   3.345   0.750   4.448
 3471SOL    HW110459   3.339   0.706   4.538
 3471SOL    HW210460   3.425   0.810   4.446
 3472SOL     OW10461   2.330   1.265   5.455
 3472SOL    HW110462   2.304   1.271   5.359
 3472SOL    HW210463   2.248   1.262   5.512
 3473SOL     OW10464   2.984   1.776   3.951
 3473SOL    HW110465   2.904   1.738   3.999
 3473SOL    HW210466   3.013   1.712   3.880
 3474SOL     OW10467   2.054   0.272   5.236
 3474SOL    HW110468   1.995   0.352   5.221
 3474SOL    HW210469   2.077   0.265   5.333
 3475SOL     OW10470   3.487   1.382   3.812
 3475SOL    HW110471   3.448   1.473   3.797
 3475SOL    HW210472   3.417   1.312   3.793
 3476SOL     OW10473   2.327   1.734   4.043
 3476SOL    HW110474   2.368   1.797   4.109
 3476SOL    HW210475   2.398   1.699   3.982
 3477SOL     OW10476   3.287   0.132   4.149
 3477SOL    HW110477   3.266   0.088   4.062
 3477SOL    HW210478   3.386   0.138   4.161
 3478SOL     OW10479   2.120   1.791   4.950
 3478SOL    HW110480   2.171   1.719   4.997
 3478SOL    HW210481   2.102   1.764   4.856
 3479SOL     OW10482   2.798   1.702   4.621
 3479SOL    HW110483   2.881   1.655   4.651
 3479SOL    HW210484   2.756   1.650   4.546
 3480SOL     OW10485   2.257   0.687   4.199
 3480SOL    HW110486   2.278   0.590   4.212
 3480SOL    HW210487   2.160   0.703   4.217
 3481SOL     OW10488   3.391   0.230   5.451
 3481SOL    HW110489   3.406   0.236   5.550
 3481SOL    HW210490   3.305   0.182   5.433
 3482SOL     OW10491   2.507   0.111   3.826
 3482SOL    HW110492   2.546   0.037   3.880
 3482SOL    HW210493   2.444   0.073   3.758
 3483SOL     OW10494   2.624   0.277   5.490
 3483SOL    HW110495   2.712   0.231   5.483
 3483SOL    HW210496   2.570   0.235   5.563
 3484SOL     OW10497   2.736   1.514   4.917
 3484SOL    HW110498   2.717   1.479   4.825
 3484SOL    HW210499   2.809   1.461   4.959
 3485SOL     OW10500   3.204   0.591   5.161
 3485SOL    HW110501   3.233   0.556   5.250
 3485SOL    HW210502   3.239   0.684   5.149
 3486SOL     OW10503   2.682   1.389   4.665
 3486SOL    HW110504   2.772   1.378   4.623
 3486SOL    HW210505   2.612   1.395   4.593
 3487SOL     OW10506   2.789   0.511   4.619
 3487SOL    HW110507   2.761   0.505   4.523
 3487SOL    HW210508   2.821   0.421   4.650
 3488SOL     OW10509   2.417   0.066   4.218
 3488SOL    HW110510   2.335   0.056   4.275
 3488SOL    HW210511   2.404   0.142   4.154
 3489SOL     OW10512   3.288   1.199   3.767
 3489SOL    HW110513   3.321   1.121   3.820
 3489SOL    HW210514   3.199   1.228   3.803
 3490SOL     OW10515   2.173   0.048   3.910
 3490SOL    HW110516   2.213   0.140   3.908
 3490SOL    HW210517   2.225   6.991   3.974
 3491SOL     OW10518   2.811   0.265   4.180
 3491SOL    HW110519   2.781   0.301   4.092
 3491SOL    HW210520   2.910   0.273   4.187
 3492SOL     OW10521   2.942   0.684   5.178
 3492SOL    HW110522   2.867   0.619   5.189
 3492SOL    HW210523   3.029   0.635   5.178
 3493SOL     OW10524   3.082   1.569   4.518
 3493SOL    HW110525   3.096   1.639   4.448
 3493SOL    HW210526   3.153   1.578   4.588
 3494SOL     OW10527   2.330   1.152   4.452
 3494SOL    HW110528   2.264   1.131   4.524
 3494SOL    HW210529   2.288   1.139   4.362
 3495SOL     OW10530   3.125   1.792   4.334
 3495SOL    HW110531   3.177   1.854   4.275
 3495SOL    HW210532   3.052   1.842   4.380
 3496SOL     OW10533   2.880   0.536   3.756
 3496SOL    HW110534   2.836   0.623   3.733
 3496SOL    HW210535   2.951   0.553   3.824
 3497SOL     OW10536   1.953   0.552   5.121
 3497SOL    HW110537   2.046   0.552   5.084
 3497SOL    HW210538   1.943   0.626   5.188
 3498SOL     OW10539   2.433   0.242   4.899
 3498SOL    HW110540   2.486   0.170   4.944
 3498SOL    HW210541   2.337   0.237   4.929
 3499SOL     OW10542   2.728   0.465   4.359
 3499SOL    HW110543   2.677   0.525   4.298
 3499SOL    HW210544   2.755   0.383   4.310
 3500SOL     OW10545   2.820   0.028   4.494
 3500SOL    HW110546   2.763   0.029   4.412
 3500SOL    HW210547   2.891   6.959   4.484
 3501SOL     OW10548   3.307   1.161   4.582
 3501SOL    HW110549   3.231   1.096   4.586
 3501SOL    HW210550   3.336   1.172   4.487
 3502SOL     OW10551   3.328   0.609   4.694
 3502SOL    HW110552   3.267   0.529   4.696
 3502SOL    HW210553   3.391   0.603   4.772
 3503SOL     OW10554   3.704   0.810   4.104
 3503SOL    HW110555   3.762   0.762   4.170
 3503SOL    HW210556   3.674   0.746   4.033
 3504SOL     OW10557   2.349   1.420   3.879
 3504SOL    HW110558   2.269   1.394   3.932
 3504SOL    HW210559   2.347   1.375   3.790
 3505SOL     OW10560   3.537   1.267   4.367
 3505SOL    HW110561   3.636   1.264   4.379
 3505SOL    HW210562   3.503   1.359   4.388
 3506SOL     OW10563   3.253   0.575   3.795
 3506SOL    HW110564   3.189   0.552   3.869
 3506SOL    HW210565   3.347   0.560   3.826
 3507SOL     OW10566   2.385   0.263   4.027
 3507SOL    HW110567   2.442   0.214   3.961
 3507SOL    HW210568   2.361   0.352   3.990
 3508SOL     OW10569   3.615   1.241   5.285
 3508SOL    HW110570   3.704   1.199   5.272
 3508SOL    HW210571   3.626   1.334   5.319
 3509SOL     OW10572   2.916   1.350   5.060
 3509SOL    HW110573   2.834   1.320   5.110
 3509SOL    HW210574   2.997   1.310   5.102
 3510SOL     OW10575   3.475   1.629   5.381
 3510SOL    HW110576   3.460   1.665   5.288
 3510SOL    HW210577   3.561   1.578   5.383
 3511SOL     OW10578   2.999   1.219   4.829
 3511SOL    HW110579   2.939   1.253   4.901
 3511SOL    HW210580   2.965   1.250   4.740
 3512SOL     OW10581   3.486   1.097   4.803
 3512SOL    HW110582   3.482   1.162   4.879
 3512SOL    HW210583   3.410   1.113   4.741
 3513SOL     OW10584   2.756   0.150   5.112
 3513SOL    HW110585   2.773   0.114   5.020
 3513SOL    HW210586   2.843   0.177   5.153
 3514SOL     OW10587   2.841   1.115   5.445
 3514SOL    HW110588   2.747   1.134   5.472
 3514SOL    HW210589   2.844   1.032   5.389
 3515SOL     OW10590   2.575   1.059   4.097
 3515SOL    HW110591   2.557   1.041   4.194
 3515SOL    HW210592   2.654   1.005   4.067
 3516SOL     OW10593   2.285   0.816   4.978
 3516SOL    HW110594   2.358   0.829   5.045
 3516SOL    HW210595   2.246   0.725   4.987
 3517SOL     OW10596   3.122   0.378   5.010
 3517SOL    HW110597   3.160   0.457   5.059
 3517SOL    HW210598   3.028   0.397   4.984
 3518SOL     OW10599   1.936   1.572   5.077
 3518SOL    HW110600   1.901   1.642   5.016
 3518SOL    HW210601   2.036   1.570   5.071
 3519SOL     OW10602   2.204   1.118   4.211
 3519SOL    HW110603   2.210   1.200   4.154
 3519SOL    HW210604   2.202   1.037   4.153
 3520SOL     OW10605   2.415   0.547   4.585
 3520SOL    HW110606   2.429   0.606   4.506
 3520SOL    HW210607   2.485   0.566   4.654
 3521SOL     OW10608   3.108   1.354   4.116
 3521SOL    HW110609   3.169   1.427   4.147
 3521SOL    HW210610   3.015   1.374   4.147
 3522SOL     OW10611   3.150   1.462   4.871
 3522SOL    HW110612   3.208   1.467   4.952
 3522SOL    HW210613   3.095   1.378   4.875
 3523SOL     OW10614   3.434   0.623   4.209
 3523SOL    HW110615   3.386   0.677   4.278
 3523SOL    HW210616   3.487   0.683   4.149
 3524SOL     OW10617   2.210   1.530   5.034
 3524SOL    HW110618   2.194   1.485   4.946
 3524SOL    HW210619   2.308   1.544   5.046
 3525SOL     OW10620   2.280   0.744   5.325
 3525SOL    HW110621   2.343   0.792   5.265
 3525SOL    HW210622   2.319   0.654   5.348
 3526SOL     OW10623   3.470   0.785   5.409
 3526SOL    HW110624   3.379   0.826   5.406
 3526SOL    HW210625   3.527   0.826   5.337
 3527SOL     OW10626   2.859   0.136   5.459
 3527SOL    HW110627   2.902   0.181   5.380
 3527SOL    HW210628   2.862   0.037   5.445
 3528SOL     OW10629   2.326   0.038   5.483
 3528SOL    HW110630   2.261   6.965   5.460
 3528SOL    HW210631   2.277   0.125   5.492
 3529SOL     OW10632   2.446   0.873   4.757
 3529SOL    HW110633   2.482   0.966   4.756
 3529SOL    HW210634   2.386   0.862   4.837
 3530SOL     OW10635   3.213   0.858   4.748
 3530SOL    HW110636   3.122   0.849   4.708
 3530SOL    HW210637   3.262   0.771   4.740
 3531SOL     OW10638   3.060   0.527   3.988
 3531SOL    HW110639   3.072   0.444   4.042
 3531SOL    HW210640   3.015   0.597   4.043
 3532SOL     OW10641   2.172   0.209   4.972
 3532SOL    HW110642   2.108   0.218   5.048
 3532SOL    HW210643   2.161   0.119   4.929
 3533SOL     OW10644   1.914   1.310   4.999
 3533SOL    HW110645   1.946   1.249   5.072
 3533SOL    HW210646   1.917   1.404   5.032
 3534SOL     OW10647   2.591   0.636   4.779
 3534SOL    HW110648   2.665   0.615   4.716
 3534SOL    HW210649   2.553   0.727   4.757
 3535SOL     OW10650   3.598   0.961   5.580
 3535SOL    HW110651   3.555   0.892   5.521
 3535SOL    HW210652   3.539   0.980   5.658
 3536SOL     OW10653   2.183   0.060   4.353
 3536SOL    HW110654   2.160   0.153   4.380
 3536SOL    HW210655   2.139   6.995   4.416
 3537SOL     OW10656   3.488   0.393   4.068
 3537SOL    HW110657   3.518   0.315   4.123
 3537SOL    HW210658   3.457   0.466   4.129
 3538SOL     OW10659   2.887   0.756   4.682
 3538SOL    HW110660   2.882   0.778   4.780
 3538SOL    HW210661   2.859   0.662   4.667
 3539SOL     OW10662   2.843   1.563   5.441
 3539SOL    HW110663   2.826   1.610   5.355
 3539SOL    HW210664   2.891   1.477   5.423
 3540SOL     OW10665   3.717   1.503   5.328
 3540SOL    HW110666   3.736   1.530   5.233
 3540SOL    HW210667   3.800   1.515   5.382
 3541SOL     OW10668   2.215   0.918   5.528
 3541SOL    HW110669   2.295   0.940   5.584
 3541SOL    HW210670   2.242   0.852   5.458
 3542SOL     OW10671   3.401   0.234   3.859
 3542SOL    HW110672   3.302   0.230   3.867
 3542SOL    HW210673   3.439   0.293   3.931
 3543SOL     OW10674   3.151   0.826   3.750
 3543SOL    HW110675   3.190   0.735   3.758
 3543SOL    HW210676   3.182   0.869   3.665
 3544SOL     OW10677   2.932   1.338   4.579
 3544SOL    HW110678   2.936   1.260   4.516
 3544SOL    HW210679   2.991   1.411   4.545
 3545SOL     OW10680   2.173   0.809   4.666
 3545SOL    HW110681   2.270   0.836   4.661
 3545SOL    HW210682   2.166   0.715   4.698
 3546SOL     OW10683   2.197   0.539   4.736
 3546SOL    HW110684   2.154   0.450   4.724
 3546SOL    HW210685   2.278   0.545   4.677
 3547SOL     OW10686   2.987   0.412   5.396
 3547SOL    HW110687   2.939   0.453   5.473
 3547SOL    HW210688   3.085   0.432   5.403
 3548SOL     OW10689   2.997   0.225   5.210
 3548SOL    HW110690   2.997   0.300   5.276
 3548SOL    HW210691   3.054   0.249   5.131
 3549SOL     OW10692   1.862   1.315   3.919
 3549SOL    HW110693   1.773   1.335   3.879
 3549SOL    HW210694   1.864   1.222   3.954
 3550SOL     OW10695   1.955   1.783   4.667
 3550SOL    HW110696   1.919   1.702   4.622
 3550SOL    HW210697   2.049   1.800   4.635
 3551SOL     OW10698   2.356   1.576   4.629
 3551SOL    HW110699   2.425   1.642   4.656
 3551SOL    HW210700   2.396   1.508   4.567
 3552SOL     OW10701   2.837   0.794   4.948
 3552SOL    HW110702   2.896   0.769   5.024
 3552SOL    HW210703   2.747   0.751   4.959
 3553SOL     OW10704   1.897   0.550   4.844
 3553SOL    HW110705   1.975   0.532   4.784
 3553SOL    HW210706   1.928   0.551   4.939
 3554SOL     OW10707   2.047   0.530   5.453
 3554SOL    HW110708   2.126   0.497   5.401
 3554SOL    HW210709   2.007   0.608   5.406
 3555SOL     OW10710   3.242   0.935   5.379
 3555SOL    HW110711   3.265   1.033   5.380
 3555SOL    HW210712   3.239   0.903   5.284
 3556SOL     OW10713   2.679   0.576   4.084
 3556SOL    HW110714   2.689   0.496   4.026
 3556SOL    HW210715   2.600   0.630   4.054
 3557SOL     OW10716   3.504   0.605   4.904
 3557SOL    HW110717   3.485   0.545   4.981
 3557SOL    HW210718   3.595   0.586   4.869
 3558SOL     OW10719   2.102   1.547   5.450
 3558SOL    HW110720   2.080   1.621   5.513
 3558SOL    HW210721   2.108   1.461   5.500
 3559SOL     OW10722   2.571   0.461   4.980
 3559SOL    HW110723   2.515   0.382   4.953
 3559SOL    HW210724   2.570   0.528   4.905
 3560SOL     OW10725   2.782   1.681   5.196
 3560SOL    HW110726   2.756   1.635   5.111
 3560SOL    HW210727   2.782   1.780   5.181
 3561SOL     OW10728   2.321   0.495   3.903
 3561SOL    HW110729   2.386   0.567   3.930
 3561SOL    HW210730   2.230   0.535   3.892
 3562SOL     OW10731   2.004   1.138   5.199
 3562SOL    HW110732   2.006   1.093   5.289
 3562SOL    HW210733   2.024   1.070   5.128
 3563SOL     OW10734   3.178   1.044   4.943
 3563SOL    HW110735   3.205   0.976   4.875
 3563SOL    HW210736   3.110   1.106   4.903
 3564SOL     OW10737   3.178   0.856   4.023
 3564SOL    HW110738   3.101   0.829   4.082
 3564SOL    HW210739   3.152   0.844   3.927
 3565SOL     OW10740   3.642   1.730   4.880
 3565SOL    HW110741   3.703   1.764   4.809
 3565SOL    HW210742   3.611   1.638   4.856
 3566SOL     OW10743   3.103   1.733   4.829
 3566SOL    HW110744   3.189   1.762   4.786
 3566SOL    HW210745   3.109   1.636   4.853
 3567SOL     OW10746   1.948   1.265   4.735
 3567SOL    HW110747   1.932   1.280   4.832
 3567SOL    HW210748   1.875   1.207   4.698
 3568SOL     OW10749   2.543   1.673   5.460
 3568SOL    HW110750   2.480   1.751   5.455
 3568SOL    HW210751   2.616   1.685   5.393
 3569SOL     OW10752   3.568   0.165   4.193
 3569SOL    HW110753   3.653   0.149   4.144
 3569SOL    HW210754   3.565   0.108   4.275
 3570SOL     OW10755   3.257   1.570   4.211
 3570SOL    HW110756   3.320   1.602   4.141
 3570SOL    HW210757   3.202   1.647   4.244
 3571SOL     OW10758   2.007   1.787   5.570
 3571SOL    HW110759   1.950   1.719   5.615
 3571SOL    HW210760   2.057   1.840   5.638
 3572SOL     OW10761   3.144   0.928   4.390
 3572SOL    HW110762   3.219   0.864   4.407
 3572SOL    HW210763   3.177   1.005   4.335
 3573SOL     OW10764   2.666   1.279   5.150
 3573SOL    HW110765   2.636   1.322   5.236
 3573SOL    HW210766   2.597   1.294   5.080
 3574SOL     OW10767   2.531   1.621   3.878
 3574SOL    HW110768   2.547   1.640   3.781
 3574SOL    HW210769   2.472   1.541   3.887
 3575SOL     OW10770   3.479   1.729   5.111
 3575SOL    HW110771   3.536   1.729   5.029
 3575SOL    HW210772   3.465   1.822   5.143
 3576SOL     OW10773   3.728   0.161   4.680
 3576SOL    HW110774   3.726   0.062   4.670
 3576SOL    HW210775   3.637   0.198   4.664
 3577SOL     OW10776   2.122   0.313   4.440
 3577SOL    HW110777   2.032   0.349   4.412
 3577SOL    HW210778   2.128   0.311   4.539
 3578SOL     OW10779   3.071   1.601   3.757
 3578SOL    HW110780   3.061   1.507   3.790
 3578SOL    HW210781   3.004   1.618   3.685
 3579SOL     OW10782   2.685   1.010   5.102
 3579SOL    HW110783   2.736   0.993   5.018
 3579SOL    HW210784   2.683   1.108   5.121
 3580SOL     OW10785   2.782   0.911   4.011
 3580SOL    HW110786   2.843   0.946   3.940
 3580SOL    HW210787   2.828   0.839   4.063
 3581SOL     OW10788   3.350   1.630   3.766
 3581SOL    HW110789   3.252   1.619   3.755
 3581SOL    HW210790   3.394   1.635   3.676
 3582SOL     OW10791   2.227   1.303   5.211
 3582SOL    HW110792   2.218   1.383   5.152
 3582SOL    HW210793   2.148   1.244   5.200
 3583SOL     OW10794   3.475   1.284   5.008
 3583SOL    HW110795   3.538   1.265   5.084
 3583SOL    HW210796   3.409   1.354   5.037
 3584SOL     OW10797   2.923   1.107   4.439
 3584SOL    HW110798   2.847   1.056   4.479
 3584SOL    HW210799   2.992   1.042   4.405
 3585SOL     OW10800   2.886   0.249   4.675
 3585SOL    HW110801   2.864   0.202   4.590
 3585SOL    HW210802   2.877   0.185   4.752
 3586SOL     OW10803   2.467   1.486   4.204
 3586SOL    HW110804   2.518   1.432   4.137
 3586SOL    HW210805   2.393   1.535   4.157
 3587SOL     OW10806   3.595   0.392   5.099
 3587SOL    HW110807   3.664   0.464   5.105
 3587SOL    HW210808   3.632   0.315   5.047
 3588SOL     OW10809   2.115   1.348   4.012
 3588SOL    HW110810   2.019   1.341   3.985
 3588SOL    HW210811   2.121   1.386   4.104
 3589SOL     OW10812   1.977   1.034   5.452
 3589SOL    HW110813   1.895   1.007   5.502
 3589SOL    HW210814   2.057   0.989   5.491
 3590SOL     OW10815   2.531   0.237   5.232
 3590SOL    HW110816   2.612   0.211   5.180
 3590SOL    HW210817   2.559   0.270   5.323
 3591SOL     OW10818   1.938   0.334   3.758
 3591SOL    HW110819   1.842   0.311   3.740
 3591SOL    HW210820   1.963   0.414   3.704
 3592SOL     OW10821   3.286   0.858   5.119
 3592SOL    HW110822   3.230   0.921   5.066
 3592SOL    HW210823   3.380   0.859   5.085
 3593SOL     OW10824   1.934   0.178   4.041
 3593SOL    HW110825   1.937   0.249   3.970
 3593SOL    HW210826   1.986   0.098   4.011
 3594SOL     OW10827   3.042   1.337   3.845
 3594SOL    HW110828   2.947   1.308   3.838
 3594SOL    HW210829   3.070   1.339   3.941
 3595SOL     OW10830   2.486   0.830   5.157
 3595SOL    HW110831   2.542   0.911   5.142
 3595SOL    HW210832   2.544   0.750   5.168
 3596SOL     OW10833   3.347   1.788   4.711
 3596SOL    HW110834   3.368   1.850   4.636
 3596SOL    HW210835   3.432   1.754   4.751
 3597SOL     OW10836   2.582   0.558   5.430
 3597SOL    HW110837   2.627   0.629   5.486
 3597SOL    HW210838   2.603   0.468   5.468
 3598SOL     OW10839   3.336   1.196   5.358
 3598SOL    HW110840   3.321   1.209   5.456
 3598SOL    HW210841   3.432   1.215   5.337
 3599SOL     OW10842   2.233   1.738   5.291
 3599SOL    HW110843   2.149   1.790   5.276
 3599SOL    HW210844   2.211   1.650   5.333
 3600SOL     OW10845   3.528   0.878   4.980
 3600SOL    HW110846   3.523   0.787   4.939
 3600SOL    HW210847   3.515   0.948   4.909
 3601SOL     OW10848   3.086   0.318   4.180
 3601SOL    HW110849   3.156   0.247   4.172
 3601SOL    HW210850   3.105   0.375   4.260
 3602SOL     OW10851   2.450   0.738   4.391
 3602SOL    HW110852   2.490   0.828   4.380
 3602SOL    HW210853   2.380   0.723   4.321
 3603SOL     OW10854   3.612   0.369   5.372
 3603SOL    HW110855   3.603   0.384   5.273
 3603SOL    HW210856   3.539   0.308   5.403
 3604SOL     OW10857   3.614   0.932   5.234
 3604SOL    HW110858   3.602   1.029   5.255
 3604SOL    HW210859   3.593   0.917   5.137
 3605SOL     OW10860   2.728   1.364   3.767
 3605SOL    HW110861   2.687   1.388   3.855
 3605SOL    HW210862   2.744   1.447   3.714
 3606SOL     OW10863   2.527   1.785   4.666
 3606SOL    HW110864   2.503   1.880   4.645
 3606SOL    HW210865   2.625   1.772   4.655
 3607SOL     OW10866   2.731   0.970   4.580
 3607SOL    HW110867   2.782   0.893   4.617
 3607SOL    HW210868   2.688   1.021   4.655
 3608SOL     OW10869   2.940   0.989   3.808
 3608SOL    HW110870   2.912   1.043   3.728
 3608SOL    HW210871   3.017   0.931   3.783
 3609SOL     OW10872   3.708   1.556   4.571
 3609SOL    HW110873   3.631   1.544   4.508
 3609SOL    HW210874   3.703   1.487   4.643
 3610SOL     OW10875   2.093   1.299   5.581
 3610SOL    HW110876   2.027   1.232   5.546
 3610SOL    HW210877   2.078   1.312   5.679
 3611SOL     OW10878   1.949   1.230   4.387
 3611SOL    HW110879   1.954   1.184   4.476
 3611SOL    HW210880   2.017   1.190   4.326
 3612SOL     OW10881   2.544   1.409   5.357
 3612SOL    HW110882   2.464   1.359   5.389
 3612SOL    HW210883   2.543   1.502   5.394
 3613SOL     OW10884   3.713   0.183   4.970
 3613SOL    HW110885   3.634   0.123   4.965
 3613SOL    HW210886   3.742   0.209   4.878
 3614SOL     OW10887   2.292   0.426   4.248
 3614SOL    HW110888   2.327   0.355   4.187
 3614SOL    HW210889   2.239   0.384   4.321
 3615SOL     OW10890   3.555   1.482   4.818
 3615SOL    HW110891   3.474   1.465   4.762
 3615SOL    HW210892   3.564   1.411   4.888
 3616SOL     OW10893   2.196   0.558   5.012
 3616SOL    HW110894   2.253   0.501   5.070
 3616SOL    HW210895   2.214   0.536   4.916
 3617SOL     OW10896   2.691   1.580   4.402
 3617SOL    HW110897   2.677   1.641   4.325
 3617SOL    HW210898   2.614   1.516   4.408
 3618SOL     OW10899   3.275   0.216   4.853
 3618SOL    HW110900   3.357   0.173   4.891
 3618SOL    HW210901   3.227   0.265   4.926
 3619SOL     OW10902   2.839   0.055   4.861
 3619SOL    HW110903   2.782   6.992   4.809
 3619SOL    HW210904   2.894   0.005   4.927
 3620SOL     OW10905   2.636   1.332   4.045
 3620SOL    HW110906   2.608   1.236   4.053
 3620SOL    HW210907   2.721   1.346   4.096
 3621SOL     OW10908   2.485   1.559   5.014
 3621SOL    HW110909   2.483   1.646   5.063
 3621SOL    HW210910   2.576   1.546   4.973
 3622SOL     OW10911   3.184   0.016   3.916
 3622SOL    HW110912   3.231   6.948   3.860
 3622SOL    HW210913   3.107   6.972   3.963
 3623SOL     OW10914   3.130   0.454   4.411
 3623SOL    HW110915   3.086   0.543   4.408
 3623SOL    HW210916   3.149   0.430   4.506
 3624SOL     OW10917   3.481   0.257   4.639
 3624SOL    HW110918   3.392   0.237   4.680
 3624SOL    HW210919   3.469   0.321   4.563
 3625SOL     OW10920   1.905   1.064   4.032
 3625SOL    HW110921   2.003   1.064   4.012
 3625SOL    HW210922   1.875   0.971   4.054
 3626SOL     OW10923   2.746   1.662   4.064
 3626SOL    HW110924   2.671   1.641   4.001
 3626SOL    HW210925   2.720   1.740   4.122
 3627SOL     OW10926   2.082   0.620   5.714
 3627SOL    HW110927   1.992   0.619   5.758
 3627SOL    HW210928   2.071   0.599   5.616
 3628SOL     OW10929   2.078   0.308   6.586
 3628SOL    HW110930   2.120   0.265   6.666
 3628SOL    HW210931   1.998   0.255   6.559
 3629SOL     OW10932   1.872   0.395   6.213
 3629SOL    HW110933   1.783   0.415   6.255
 3629SOL    HW210934   1.861   0.322   6.146
 3630SOL     OW10935   2.420   1.285   6.758
 3630SOL    HW110936   2.332   1.300   6.714
 3630SOL    HW210937   2.448   1.368   6.806
 3631SOL     OW10938   3.426   1.513   6.294
 3631SOL    HW110939   3.381   1.490   6.380
 3631SOL    HW210940   3.357   1.521   6.222
 3632SOL     OW10941   2.996   0.702   6.282
 3632SOL    HW110942   3.047   0.786   6.266
 3632SOL    HW210943   2.943   0.711   6.366
 3633SOL     OW10944   3.631   0.602   5.808
 3633SOL    HW110945   3.609   0.598   5.710
 3633SOL    HW210946   3.593   0.521   5.854
 3634SOL     OW10947   2.619   1.144   6.630
 3634SOL    HW110948   2.545   1.170   6.692
 3634SOL    HW210949   2.651   1.225   6.580
 3635SOL     OW10950   2.546   1.000   6.235
 3635SOL    HW110951   2.616   0.989   6.304
 3635SOL    HW210952   2.471   1.055   6.271
 3636SOL     OW10953   2.192   1.411   6.644
 3636SOL    HW110954   2.111   1.373   6.601
 3636SOL    HW210955   2.240   1.470   6.579
 3637SOL     OW10956   3.480   0.459   6.313
 3637SOL    HW110957   3.418   0.487   6.240
 3637SOL    HW210958   3.482   0.530   6.384
 3638SOL     OW10959   2.084   1.714   6.057
 3638SOL    HW110960   2.102   1.793   6.116
 3638SOL    HW210961   2.159   1.704   5.992
 3639SOL     OW10962   2.096   1.443   6.122
 3639SOL    HW110963   2.079   1.542   6.122
 3639SOL    HW210964   2.036   1.399   6.189
 3640SOL     OW10965   2.130   1.091   6.489
 3640SOL    HW110966   2.126   0.997   6.522
 3640SOL    HW210967   2.069   1.149   6.544
 3641SOL     OW10968   2.472   1.805   6.988
 3641SOL    HW110969   2.383   1.778   0.025
 3641SOL    HW210970   2.496   1.896   0.021
 3642SOL     OW10971   2.444   0.987   5.727
 3642SOL    HW110972   2.491   1.034   5.652
 3642SOL    HW210973   2.484   1.015   5.814
 3643SOL     OW10974   1.976   0.661   6.150
 3643SOL    HW110975   1.949   0.567   6.167
 3643SOL    HW210976   1.971   0.714   6.235
 3644SOL     OW10977   3.708   1.756   5.919
 3644SOL    HW110978   3.777   1.725   5.983
 3644SOL    HW210979   3.724   1.851   5.895
 3645SOL     OW10980   1.891   1.590   5.709
 3645SOL    HW110981   1.875   1.494   5.728
 3645SOL    HW210982   1.870   1.644   5.791
 3646SOL     OW10983   3.552   0.920   6.231
 3646SOL    HW110984   3.637   0.870   6.216
 3646SOL    HW210985   3.530   0.973   6.150
 3647SOL     OW10986   3.515   1.105   6.018
 3647SOL    HW110987   3.604   1.102   5.972
 3647SOL    HW210988   3.518   1.171   6.092
 3648SOL     OW10989   2.473   1.390   6.319
 3648SOL    HW110990   2.427   1.302   6.333
 3648SOL    HW210991   2.460   1.421   6.225
 3649SOL     OW10992   2.685   0.028   6.103
 3649SOL    HW110993   2.725   0.118   6.084
 3649SOL    HW210994   2.585   0.036   6.107
 3650SOL     OW10995   2.056   0.975   6.841
 3650SOL    HW110996   2.138   0.920   6.828
 3650SOL    HW210997   1.975   0.919   6.822
 3651SOL     OW10998   3.394   1.000   5.790
 3651SOL    HW110999   3.320   0.940   5.820
 3651SOL    HW211000   3.441   1.038   5.870
 3652SOL     OW11001   3.314   1.423   6.531
 3652SOL    HW111002   3.256   1.437   6.612
 3652SOL    HW211003   3.311   1.327   6.504
 3653SOL     OW11004   3.511   1.750   6.161
 3653SOL    HW111005   3.494   1.720   6.068
 3653SOL    HW211006   3.492   1.675   6.225
 3654SOL     OW11007   2.455   0.719   5.858
 3654SOL    HW111008   2.460   0.805   5.807
 3654SOL    HW211009   2.386   0.727   5.930
 3655SOL     OW11010   3.144   0.365   6.537
 3655SOL    HW111011   3.047   0.341   6.537
 3655SOL    HW211012   3.192   0.314   6.609
 3656SOL     OW11013   3.445   1.672   5.894
 3656SOL    HW111014   3.541   1.700   5.891
 3656SOL    HW211015   3.412   1.655   5.801
 3657SOL     OW11016   2.658   0.621   0.042
 3657SOL    HW111017   2.598   0.653   0.115
 3657SOL    HW211018   2.606   0.562   6.981
 3658SOL     OW11019   2.866   0.390   6.794
 3658SOL    HW111020   2.816   0.448   6.859
 3658SOL    HW211021   2.803   0.352   6.727
 3659SOL     OW11022   2.913   0.699   6.011
 3659SOL    HW111023   2.934   0.694   6.109
 3659SOL    HW211024   2.826   0.652   5.993
 3660SOL     OW11025   1.951   0.828   6.366
 3660SOL    HW111026   2.037   0.815   6.417
 3660SOL    HW211027   1.902   0.907   6.402
 3661SOL     OW11028   2.004   1.830   0.137
 3661SOL    HW111029   1.947   1.790   0.209
 3661SOL    HW211030   1.948   1.851   0.057
 3662SOL     OW11031   2.752   0.355   5.786
 3662SOL    HW111032   2.798   0.416   5.722
 3662SOL    HW211033   2.727   0.270   5.740
 3663SOL     OW11034   3.241   1.142   6.119
 3663SOL    HW111035   3.326   1.127   6.069
 3663SOL    HW211036   3.185   1.210   6.071
 3664SOL     OW11037   2.367   0.198   6.500
 3664SOL    HW111038   2.412   0.242   6.577
 3664SOL    HW211039   2.387   0.249   6.416
 3665SOL     OW11040   2.857   1.443   6.050
 3665SOL    HW111041   2.825   1.523   5.999
 3665SOL    HW211042   2.841   1.456   6.148
 3666SOL     OW11043   2.218   1.815   6.456
 3666SOL    HW111044   2.261   1.725   6.463
 3666SOL    HW211045   2.285   1.886   6.474
 3667SOL     OW11046   3.663   1.057   6.452
 3667SOL    HW111047   3.612   1.033   6.370
 3667SOL    HW211048   3.601   1.057   6.531
 3668SOL     OW11049   2.183   0.959   5.840
 3668SOL    HW111050   2.271   0.979   5.797
 3668SOL    HW211051   2.147   0.873   5.803
 3669SOL     OW11052   3.345   0.749   6.308
 3669SOL    HW111053   3.337   0.705   6.397
 3669SOL    HW211054   3.425   0.809   6.307
 3670SOL     OW11055   2.984   1.776   5.812
 3670SOL    HW111056   2.904   1.738   5.861
 3670SOL    HW211057   3.013   1.712   5.742
 3671SOL     OW11058   3.487   1.382   5.674
 3671SOL    HW111059   3.448   1.473   5.659
 3671SOL    HW211060   3.417   1.312   5.655
 3672SOL     OW11061   2.327   1.735   5.905
 3672SOL    HW111062   2.368   1.797   5.971
 3672SOL    HW211063   2.398   1.699   5.844
 3673SOL     OW11064   3.287   0.132   6.011
 3673SOL    HW111065   3.267   0.088   5.923
 3673SOL    HW211066   3.386   0.138   6.022
 3674SOL     OW11067   2.124   1.796   6.813
 3674SOL    HW111068   2.168   1.727   6.870
 3674SOL    HW211069   2.105   1.757   6.723
 3675SOL     OW11070   2.798   1.700   6.481
 3675SOL    HW111071   2.884   1.655   6.508
 3675SOL    HW211072   2.755   1.649   6.407
 3676SOL     OW11073   2.257   0.687   6.061
 3676SOL    HW111074   2.277   0.590   6.074
 3676SOL    HW211075   2.160   0.703   6.079
 3677SOL     OW11076   2.506   0.111   5.688
 3677SOL    HW111077   2.546   0.036   5.742
 3677SOL    HW211078   2.444   0.073   5.620
 3678SOL     OW11079   2.725   1.517   6.764
 3678SOL    HW111080   2.710   1.484   6.671
 3678SOL    HW211081   2.768   1.445   6.819
 3679SOL     OW11082   2.680   1.389   6.520
 3679SOL    HW111083   2.771   1.378   6.478
 3679SOL    HW211084   2.611   1.394   6.449
 3680SOL     OW11085   2.790   0.510   6.482
 3680SOL    HW111086   2.761   0.505   6.387
 3680SOL    HW211087   2.828   0.421   6.510
 3681SOL     OW11088   2.417   0.067   6.081
 3681SOL    HW111089   2.335   0.056   6.138
 3681SOL    HW211090   2.403   0.142   6.017
 3682SOL     OW11091   3.288   1.199   5.629
 3682SOL    HW111092   3.321   1.121   5.682
 3682SOL    HW211093   3.199   1.228   5.665
 3683SOL     OW11094   2.173   0.048   5.772
 3683SOL    HW111095   2.213   0.140   5.769
 3683SOL    HW211096   2.226   6.991   5.835
 3684SOL     OW11097   2.811   0.266   6.043
 3684SOL    HW111098   2.781   0.301   5.954
 3684SOL    HW211099   2.910   0.273   6.050
 3685SOL     OW11100   3.080   1.571   6.382
 3685SOL    HW111101   3.095   1.641   6.312
 3685SOL    HW211102   3.159   1.569   6.444
 3686SOL     OW11103   2.330   1.151   6.315
 3686SOL    HW111104   2.263   1.131   6.387
 3686SOL    HW211105   2.288   1.138   6.226
 3687SOL     OW11106   3.124   1.792   6.196
 3687SOL    HW111107   3.177   1.854   6.138
 3687SOL    HW211108   3.051   1.842   6.241
 3688SOL     OW11109   2.880   0.536   5.618
 3688SOL    HW111110   2.836   0.623   5.595
 3688SOL    HW211111   2.951   0.553   5.686
 3689SOL     OW11112   2.439   0.220   6.777
 3689SOL    HW111113   2.459   0.127   6.745
 3689SOL    HW211114   2.342   0.228   6.798
 3690SOL     OW11115   2.727   0.466   6.222
 3690SOL    HW111116   2.677   0.525   6.159
 3690SOL    HW211117   2.755   0.383   6.174
 3691SOL     OW11118   2.818   0.031   6.349
 3691SOL    HW111119   2.763   0.028   6.265
 3691SOL    HW211120   2.888   6.960   6.346
 3692SOL     OW11121   3.302   1.160   6.442
 3692SOL    HW111122   3.232   1.088   6.444
 3692SOL    HW211123   3.334   1.174   6.348
 3693SOL     OW11124   3.327   0.606   6.551
 3693SOL    HW111125   3.266   0.526   6.557
 3693SOL    HW211126   3.392   0.604   6.626
 3694SOL     OW11127   3.704   0.809   5.966
 3694SOL    HW111128   3.762   0.762   6.032
 3694SOL    HW211129   3.675   0.746   5.895
 3695SOL     OW11130   2.349   1.421   5.741
 3695SOL    HW111131   2.269   1.394   5.794
 3695SOL    HW211132   2.347   1.375   5.652
 3696SOL     OW11133   3.536   1.267   6.229
 3696SOL    HW111134   3.636   1.263   6.242
 3696SOL    HW211135   3.503   1.359   6.250
 3697SOL     OW11136   3.253   0.575   5.657
 3697SOL    HW111137   3.189   0.552   5.731
 3697SOL    HW211138   3.347   0.560   5.688
 3698SOL     OW11139   2.384   0.263   5.889
 3698SOL    HW111140   2.442   0.213   5.824
 3698SOL    HW211141   2.360   0.352   5.852
 3699SOL     OW11142   3.620   1.178   0.171
 3699SOL    HW111143   3.718   1.165   0.155
 3699SOL    HW211144   3.595   1.272   0.145
 3700SOL     OW11145   2.980   1.238   6.694
 3700SOL    HW111146   2.897   1.196   6.730
 3700SOL    HW211147   2.967   1.262   6.598
 3701SOL     OW11148   3.481   1.084   6.650
 3701SOL    HW111149   3.482   1.154   6.721
 3701SOL    HW211150   3.406   1.101   6.586
 3702SOL     OW11151   2.575   1.059   5.959
 3702SOL    HW111152   2.557   1.041   6.056
 3702SOL    HW211153   2.654   1.005   5.929
 3703SOL     OW11154   2.288   0.813   6.847
 3703SOL    HW111155   2.344   0.838   6.925
 3703SOL    HW211156   2.251   0.721   6.860
 3704SOL     OW11157   3.126   0.384   6.872
 3704SOL    HW111158   3.156   0.462   6.927
 3704SOL    HW211159   3.033   0.401   6.838
 3705SOL     OW11160   1.932   1.578   6.937
 3705SOL    HW111161   1.897   1.647   6.873
 3705SOL    HW211162   2.031   1.571   6.926
 3706SOL     OW11163   2.204   1.118   6.073
 3706SOL    HW111164   2.210   1.200   6.016
 3706SOL    HW211165   2.202   1.037   6.015
 3707SOL     OW11166   2.413   0.547   6.447
 3707SOL    HW111167   2.426   0.605   6.367
 3707SOL    HW211168   2.484   0.567   6.515
 3708SOL     OW11169   3.108   1.354   5.978
 3708SOL    HW111170   3.169   1.427   6.009
 3708SOL    HW211171   3.015   1.374   6.008
 3709SOL     OW11172   3.143   1.450   6.747
 3709SOL    HW111173   3.180   1.439   6.840
 3709SOL    HW211174   3.082   1.374   6.726
 3710SOL     OW11175   3.434   0.623   6.069
 3710SOL    HW111176   3.387   0.677   6.139
 3710SOL    HW211177   3.487   0.685   6.010
 3711SOL     OW11178   2.204   1.529   6.884
 3711SOL    HW111179   2.188   1.475   6.801
 3711SOL    HW211180   2.302   1.544   6.895
 3712SOL     OW11181   2.447   0.870   6.623
 3712SOL    HW111182   2.479   0.965   6.618
 3712SOL    HW211183   2.387   0.860   6.702
 3713SOL     OW11184   3.209   0.856   6.595
 3713SOL    HW111185   3.118   0.841   6.556
 3713SOL    HW211186   3.261   0.771   6.592
 3714SOL     OW11187   3.060   0.527   5.850
 3714SOL    HW111188   3.073   0.444   5.904
 3714SOL    HW211189   3.015   0.597   5.905
 3715SOL     OW11190   2.174   0.209   6.834
 3715SOL    HW111191   2.116   0.211   6.915
 3715SOL    HW211192   2.171   0.119   6.792
 3716SOL     OW11193   1.899   1.314   6.870
 3716SOL    HW111194   1.943   1.254   6.937
 3716SOL    HW211195   1.907   1.409   6.900
 3717SOL     OW11196   2.588   0.628   6.641
 3717SOL    HW111197   2.666   0.609   6.581
 3717SOL    HW211198   2.555   0.721   6.624
 3718SOL     OW11199   2.184   0.059   6.219
 3718SOL    HW111200   2.159   0.153   6.244
 3718SOL    HW211201   2.129   6.995   6.272
 3719SOL     OW11202   3.489   0.393   5.930
 3719SOL    HW111203   3.518   0.315   5.985
 3719SOL    HW211204   3.457   0.467   5.990
 3720SOL     OW11205   2.885   0.757   6.550
 3720SOL    HW111206   2.879   0.777   6.648
 3720SOL    HW211207   2.859   0.662   6.534
 3721SOL     OW11208   3.401   0.234   5.721
 3721SOL    HW111209   3.302   0.230   5.730
 3721SOL    HW211210   3.439   0.293   5.793
 3722SOL     OW11211   3.150   0.826   5.612
 3722SOL    HW111212   3.190   0.735   5.620
 3722SOL    HW211213   3.182   0.869   5.527
 3723SOL     OW11214   2.934   1.337   6.439
 3723SOL    HW111215   2.937   1.260   6.376
 3723SOL    HW211216   2.991   1.411   6.404
 3724SOL     OW11217   2.175   0.808   6.527
 3724SOL    HW111218   2.271   0.834   6.521
 3724SOL    HW211219   2.169   0.713   6.560
 3725SOL     OW11220   2.202   0.539   6.607
 3725SOL    HW111221   2.155   0.452   6.592
 3725SOL    HW211222   2.281   0.546   6.546
 3726SOL     OW11223   2.994   0.221   0.065
 3726SOL    HW111224   3.020   0.286   0.137
 3726SOL    HW211225   3.026   0.256   6.977
 3727SOL     OW11226   1.863   1.315   5.781
 3727SOL    HW111227   1.773   1.335   5.741
 3727SOL    HW211228   1.864   1.222   5.816
 3728SOL     OW11229   1.955   1.786   6.527
 3728SOL    HW111230   1.918   1.704   6.482
 3728SOL    HW211231   2.049   1.802   6.496
 3729SOL     OW11232   2.355   1.578   6.489
 3729SOL    HW111233   2.426   1.643   6.518
 3729SOL    HW211234   2.396   1.509   6.428
 3730SOL     OW11235   2.841   0.795   6.822
 3730SOL    HW111236   2.920   0.774   6.880
 3730SOL    HW211237   2.759   0.752   6.860
 3731SOL     OW11238   1.912   0.558   6.711
 3731SOL    HW111239   1.960   0.508   6.639
 3731SOL    HW211240   1.977   0.587   6.781
 3732SOL     OW11241   2.679   0.576   5.947
 3732SOL    HW111242   2.689   0.496   5.888
 3732SOL    HW211243   2.600   0.630   5.916
 3733SOL     OW11244   3.510   0.611   6.751
 3733SOL    HW111245   3.495   0.554   6.832
 3733SOL    HW211246   3.604   0.601   6.720
 3734SOL     OW11247   2.539   0.467   6.853
 3734SOL    HW111248   2.507   0.377   6.824
 3734SOL    HW211249   2.551   0.526   6.772
 3735SOL     OW11250   2.805   1.662   6.997
 3735SOL    HW111251   2.771   1.651   6.904
 3735SOL    HW211252   2.786   1.755   0.028
 3736SOL     OW11253   2.321   0.495   5.765
 3736SOL    HW111254   2.386   0.567   5.792
 3736SOL    HW211255   2.230   0.535   5.754
 3737SOL     OW11256   2.019   1.143   0.049
 3737SOL    HW111257   2.067   1.104   0.127
 3737SOL    HW211258   2.032   1.084   6.969
 3738SOL     OW11259   3.147   1.006   6.814
 3738SOL    HW111260   3.185   0.955   6.737
 3738SOL    HW211261   3.121   1.098   6.783
 3739SOL     OW11262   3.177   0.856   5.885
 3739SOL    HW111263   3.101   0.829   5.943
 3739SOL    HW211264   3.152   0.844   5.789
 3740SOL     OW11265   3.619   1.758   6.726
 3740SOL    HW111266   3.693   1.780   6.663
 3740SOL    HW211267   3.595   1.661   6.716
 3741SOL     OW11268   3.110   1.725   6.700
 3741SOL    HW111269   3.193   1.755   6.653
 3741SOL    HW211270   3.114   1.627   6.718
 3742SOL     OW11271   1.944   1.270   6.600
 3742SOL    HW111272   1.928   1.282   6.698
 3742SOL    HW211273   1.876   1.207   6.562
 3743SOL     OW11274   3.568   0.166   6.055
 3743SOL    HW111275   3.653   0.148   6.006
 3743SOL    HW211276   3.564   0.108   6.137
 3744SOL     OW11277   3.257   1.570   6.074
 3744SOL    HW111278   3.320   1.602   6.003
 3744SOL    HW211279   3.202   1.647   6.106
 3745SOL     OW11280   3.144   0.928   6.253
 3745SOL    HW111281   3.219   0.864   6.269
 3745SOL    HW211282   3.177   1.005   6.197
 3746SOL     OW11283   2.531   1.621   5.740
 3746SOL    HW111284   2.547   1.640   5.643
 3746SOL    HW211285   2.472   1.541   5.749
 3747SOL     OW11286   3.728   0.163   6.534
 3747SOL    HW111287   3.724   0.063   6.530
 3747SOL    HW211288   3.636   0.200   6.519
 3748SOL     OW11289   2.121   0.313   6.303
 3748SOL    HW111290   2.032   0.349   6.274
 3748SOL    HW211291   2.126   0.313   6.403
 3749SOL     OW11292   3.070   1.601   5.619
 3749SOL    HW111293   3.061   1.507   5.652
 3749SOL    HW211294   3.004   1.618   5.547
 3750SOL     OW11295   2.639   1.027   6.952
 3750SOL    HW111296   2.697   0.983   6.883
 3750SOL    HW211297   2.685   1.107   6.989
 3751SOL     OW11298   2.782   0.911   5.873
 3751SOL    HW111299   2.843   0.946   5.803
 3751SOL    HW211300   2.829   0.839   5.925
 3752SOL     OW11301   3.350   1.630   5.628
 3752SOL    HW111302   3.252   1.619   5.617
 3752SOL    HW211303   3.394   1.635   5.538
 3753SOL     OW11304   3.478   1.279   6.835
 3753SOL    HW111305   3.568   1.279   6.878
 3753SOL    HW211306   3.408   1.257   6.903
 3754SOL     OW11307   2.923   1.106   6.301
 3754SOL    HW111308   2.846   1.055   6.340
 3754SOL    HW211309   2.991   1.042   6.267
 3755SOL     OW11310   2.887   0.246   6.524
 3755SOL    HW111311   2.860   0.195   6.442
 3755SOL    HW211312   2.885   0.185   6.603
 3756SOL     OW11313   2.467   1.486   6.066
 3756SOL    HW111314   2.518   1.432   5.999
 3756SOL    HW211315   2.392   1.534   6.020
 3757SOL     OW11316   3.562   0.430   6.947
 3757SOL    HW111317   3.627   0.439   0.023
 3757SOL    HW211318   3.576   0.343   6.901
 3758SOL     OW11319   2.115   1.348   5.874
 3758SOL    HW111320   2.019   1.341   5.847
 3758SOL    HW211321   2.121   1.386   5.967
 3759SOL     OW11322   1.938   0.333   5.620
 3759SOL    HW111323   1.842   0.311   5.603
 3759SOL    HW211324   1.963   0.414   5.566
 3760SOL     OW11325   1.935   0.178   5.904
 3760SOL    HW111326   1.937   0.248   5.833
 3760SOL    HW211327   1.987   0.098   5.873
 3761SOL     OW11328   3.042   1.337   5.706
 3761SOL    HW111329   2.947   1.307   5.700
 3761SOL    HW211330   3.070   1.339   5.802
 3762SOL     OW11331   3.353   1.784   6.579
 3762SOL    HW111332   3.366   1.846   6.501
 3762SOL    HW211333   3.441   1.764   6.621
 3763SOL     OW11334   3.355   1.293   0.282
 3763SOL    HW111335   3.263   1.289   0.322
 3763SOL    HW211336   3.385   1.200   0.260
 3764SOL     OW11337   2.248   1.727   0.100
 3764SOL    HW111338   2.159   1.770   0.116
 3764SOL    HW211339   2.247   1.634   0.137
 3765SOL     OW11340   3.560   0.879   6.829
 3765SOL    HW111341   3.529   0.788   6.800
 3765SOL    HW211342   3.526   0.948   6.765
 3766SOL     OW11343   3.086   0.319   6.042
 3766SOL    HW111344   3.156   0.247   6.035
 3766SOL    HW211345   3.106   0.375   6.122
 3767SOL     OW11346   2.449   0.738   6.253
 3767SOL    HW111347   2.490   0.828   6.242
 3767SOL    HW211348   2.379   0.723   6.183
 3768SOL     OW11349   3.630   0.905   0.094
 3768SOL    HW111350   3.619   1.001   0.121
 3768SOL    HW211351   3.605   0.894   6.998
 3769SOL     OW11352   2.728   1.364   5.629
 3769SOL    HW111353   2.687   1.388   5.717
 3769SOL    HW211354   2.744   1.447   5.576
 3770SOL     OW11355   2.528   1.785   6.532
 3770SOL    HW111356   2.504   1.879   6.507
 3770SOL    HW211357   2.627   1.771   6.519
 3771SOL     OW11358   2.731   0.970   6.443
 3771SOL    HW111359   2.781   0.892   6.480
 3771SOL    HW211360   2.691   1.023   6.518
 3772SOL     OW11361   2.940   0.989   5.670
 3772SOL    HW111362   2.912   1.043   5.590
 3772SOL    HW211363   3.017   0.931   5.645
 3773SOL     OW11364   3.711   1.558   6.432
 3773SOL    HW111365   3.632   1.544   6.373
 3773SOL    HW211366   3.707   1.494   6.509
 3774SOL     OW11367   1.949   1.230   6.250
 3774SOL    HW111368   1.948   1.182   6.337
 3774SOL    HW211369   2.018   1.190   6.190
 3775SOL     OW11370   3.712   0.189   6.849
 3775SOL    HW111371   3.641   0.121   6.864
 3775SOL    HW211372   3.721   0.208   6.751
 3776SOL     OW11373   2.292   0.426   6.111
 3776SOL    HW111374   2.327   0.355   6.049
 3776SOL    HW211375   2.238   0.383   6.183
 3777SOL     OW11376   3.539   1.503   6.677
 3777SOL    HW111377   3.463   1.483   6.616
 3777SOL    HW211378   3.550   1.428   6.743
 3778SOL     OW11379   2.175   0.551   6.880
 3778SOL    HW111380   2.244   0.497   6.928
 3778SOL    HW211381   2.189   0.542   6.781
 3779SOL     OW11382   2.691   1.579   6.263
 3779SOL    HW111383   2.678   1.642   6.186
 3779SOL    HW211384   2.613   1.517   6.267
 3780SOL     OW11385   3.272   0.214   6.720
 3780SOL    HW111386   3.361   0.180   6.753
 3780SOL    HW211387   3.229   0.268   6.792
 3781SOL     OW11388   2.857   0.051   6.710
 3781SOL    HW111389   2.775   6.997   6.694
 3781SOL    HW211390   2.901   0.020   6.795
 3782SOL     OW11391   2.636   1.332   5.907
 3782SOL    HW111392   2.608   1.236   5.915
 3782SOL    HW211393   2.721   1.346   5.958
 3783SOL     OW11394   2.479   1.561   6.868
 3783SOL    HW111395   2.476   1.657   6.898
 3783SOL    HW211396   2.566   1.543   6.823
 3784SOL     OW11397   3.184   0.016   5.777
 3784SOL    HW111398   3.231   6.947   5.721
 3784SOL    HW211399   3.108   6.973   5.826
 3785SOL     OW11400   3.131   0.454   6.274
 3785SOL    HW111401   3.086   0.543   6.272
 3785SOL    HW211402   3.149   0.428   6.369
 3786SOL     OW11403   3.479   0.260   6.498
 3786SOL    HW111404   3.388   0.238   6.533
 3786SOL    HW211405   3.470   0.324   6.421
 3787SOL     OW11406   1.905   1.064   5.894
 3787SOL    HW111407   2.003   1.064   5.874
 3787SOL    HW211408   1.875   0.971   5.916
 3788SOL     OW11409   2.746   1.662   5.926
 3788SOL    HW111410   2.671   1.641   5.863
 3788SOL    HW211411   2.720   1.740   5.984
 3789SOL     OW11412   2.081   2.497   0.136
 3789SOL    HW111413   1.985   2.483   0.160
 3789SOL    HW211414   2.094   2.480   0.038
 3790SOL     OW11415   2.085   2.144   0.994
 3790SOL    HW111416   2.118   2.110   1.083
 3790SOL    HW211417   1.992   2.112   0.978
 3791SOL     OW11418   1.863   2.252   0.636
 3791SOL    HW111419   1.779   2.281   0.681
 3791SOL    HW211420   1.846   2.168   0.585
 3792SOL     OW11421   2.431   3.159   1.185
 3792SOL    HW111422   2.341   3.155   1.142
 3792SOL    HW211423   2.448   3.251   1.219
 3793SOL     OW11424   3.426   3.376   0.709
 3793SOL    HW111425   3.385   3.350   0.796
 3793SOL    HW211426   3.356   3.378   0.638
 3794SOL     OW11427   2.994   2.563   0.696
 3794SOL    HW111428   3.047   2.646   0.680
 3794SOL    HW211429   2.944   2.572   0.782
 3795SOL     OW11430   3.647   2.440   0.200
 3795SOL    HW111431   3.581   2.491   0.144
 3795SOL    HW211432   3.598   2.379   0.262
 3796SOL     OW11433   2.606   3.003   1.041
 3796SOL    HW111434   2.538   3.037   1.105
 3796SOL    HW211435   2.650   3.080   0.994
 3797SOL     OW11436   2.736   2.626   1.821
 3797SOL    HW111437   2.724   2.694   1.893
 3797SOL    HW211438   2.760   2.672   1.736
 3798SOL     OW11439   2.545   2.858   0.650
 3798SOL    HW111440   2.616   2.850   0.720
 3798SOL    HW211441   2.471   2.916   0.685
 3799SOL     OW11442   2.573   3.015   1.818
 3799SOL    HW111443   2.626   3.094   1.851
 3799SOL    HW211444   2.488   3.047   1.776
 3800SOL     OW11445   2.188   3.285   1.066
 3800SOL    HW111446   2.112   3.240   1.020
 3800SOL    HW211447   2.241   3.338   0.999
 3801SOL     OW11448   3.320   3.364   1.358
 3801SOL    HW111449   3.378   3.445   1.365
 3801SOL    HW211450   3.249   3.366   1.429
 3802SOL     OW11451   2.312   2.255   1.478
 3802SOL    HW111452   2.394   2.198   1.486
 3802SOL    HW211453   2.231   2.201   1.497
 3803SOL     OW11454   3.474   2.311   0.748
 3803SOL    HW111455   3.400   2.332   0.683
 3803SOL    HW211456   3.482   2.385   0.814
 3804SOL     OW11457   2.087   3.582   0.474
 3804SOL    HW111458   2.104   3.661   0.532
 3804SOL    HW211459   2.171   3.555   0.428
 3805SOL     OW11460   2.999   3.202   1.698
 3805SOL    HW111461   3.046   3.200   1.786
 3805SOL    HW211462   2.943   3.120   1.688
 3806SOL     OW11463   2.084   3.308   0.539
 3806SOL    HW111464   2.069   3.406   0.547
 3806SOL    HW211465   2.027   3.260   0.606
 3807SOL     OW11466   2.131   2.952   0.900
 3807SOL    HW111467   2.126   2.858   0.933
 3807SOL    HW211468   2.068   3.010   0.953
 3808SOL     OW11469   2.461   3.659   1.426
 3808SOL    HW111470   2.378   3.635   1.476
 3808SOL    HW211471   2.492   3.749   1.455
 3809SOL     OW11472   2.450   2.829   0.147
 3809SOL    HW111473   2.508   2.851   0.068
 3809SOL    HW211474   2.486   2.874   0.228
 3810SOL     OW11475   3.458   1.987   1.469
 3810SOL    HW111476   3.479   2.067   1.413
 3810SOL    HW211477   3.444   2.016   1.564
 3811SOL     OW11478   1.978   2.515   0.562
 3811SOL    HW111479   1.946   2.423   0.583
 3811SOL    HW211480   1.972   2.572   0.644
 3812SOL     OW11481   3.700   3.625   0.346
 3812SOL    HW111482   3.770   3.595   0.410
 3812SOL    HW211483   3.704   3.724   0.336
 3813SOL     OW11484   3.553   2.777   0.650
 3813SOL    HW111485   3.637   2.726   0.632
 3813SOL    HW211486   3.531   2.834   0.571
 3814SOL     OW11487   3.517   2.958   0.445
 3814SOL    HW111488   3.586   2.978   0.375
 3814SOL    HW211489   3.523   3.027   0.517
 3815SOL     OW11490   1.985   2.606   1.585
 3815SOL    HW111491   2.082   2.633   1.586
 3815SOL    HW211492   1.928   2.688   1.586
 3816SOL     OW11493   2.474   3.251   0.738
 3816SOL    HW111494   2.428   3.163   0.751
 3816SOL    HW211495   2.465   3.280   0.642
 3817SOL     OW11496   3.150   3.097   1.422
 3817SOL    HW111497   3.177   3.027   1.356
 3817SOL    HW211498   3.210   3.093   1.502
 3818SOL     OW11499   2.681   1.875   0.514
 3818SOL    HW111500   2.726   1.961   0.490
 3818SOL    HW211501   2.582   1.890   0.522
 3819SOL     OW11502   2.053   2.824   1.277
 3819SOL    HW111503   2.141   2.780   1.262
 3819SOL    HW211504   1.983   2.777   1.222
 3820SOL     OW11505   3.353   2.883   0.214
 3820SOL    HW111506   3.285   2.817   0.246
 3820SOL    HW211507   3.440   2.867   0.261
 3821SOL     OW11508   3.043   3.673   1.622
 3821SOL    HW111509   3.052   3.741   1.550
 3821SOL    HW211510   3.064   3.582   1.585
 3822SOL     OW11511   2.203   2.111   1.832
 3822SOL    HW111512   2.252   2.197   1.847
 3822SOL    HW211513   2.106   2.124   1.851
 3823SOL     OW11514   3.326   3.282   0.947
 3823SOL    HW111515   3.260   3.301   1.020
 3823SOL    HW211516   3.318   3.187   0.919
 3824SOL     OW11517   3.506   3.613   0.582
 3824SOL    HW111518   3.486   3.586   0.488
 3824SOL    HW211519   3.489   3.536   0.643
 3825SOL     OW11520   2.461   2.579   0.267
 3825SOL    HW111521   2.467   2.669   0.224
 3825SOL    HW211522   2.397   2.582   0.343
 3826SOL     OW11523   3.139   2.219   0.932
 3826SOL    HW111524   3.045   2.186   0.941
 3826SOL    HW211525   3.199   2.168   0.994
 3827SOL     OW11526   3.438   3.539   0.317
 3827SOL    HW111527   3.534   3.569   0.315
 3827SOL    HW211528   3.404   3.531   0.223
 3828SOL     OW11529   2.652   2.475   1.449
 3828SOL    HW111530   2.627   2.451   1.543
 3828SOL    HW211531   2.614   2.406   1.387
 3829SOL     OW11532   3.253   2.332   1.679
 3829SOL    HW111533   3.253   2.381   1.766
 3829SOL    HW211534   3.314   2.253   1.686
 3830SOL     OW11535   2.815   2.747   1.583
 3830SOL    HW111536   2.873   2.675   1.545
 3830SOL    HW211537   2.761   2.789   1.510
 3831SOL     OW11538   2.856   2.268   1.230
 3831SOL    HW111539   2.766   2.291   1.268
 3831SOL    HW211540   2.844   2.218   1.144
 3832SOL     OW11541   2.913   2.563   0.429
 3832SOL    HW111542   2.936   2.560   0.526
 3832SOL    HW211543   2.827   2.515   0.413
 3833SOL     OW11544   1.953   2.686   0.777
 3833SOL    HW111545   2.037   2.675   0.829
 3833SOL    HW211546   1.901   2.764   0.813
 3834SOL     OW11547   1.990   3.733   1.587
 3834SOL    HW111548   1.995   3.706   1.684
 3834SOL    HW211549   1.905   3.700   1.547
 3835SOL     OW11550   2.750   2.204   0.207
 3835SOL    HW111551   2.800   2.265   0.145
 3835SOL    HW211552   2.766   2.109   0.181
 3836SOL     OW11553   3.563   2.435   1.826
 3836SOL    HW111554   3.527   2.514   1.776
 3836SOL    HW211555   3.593   2.365   1.761
 3837SOL     OW11556   3.245   3.003   0.550
 3837SOL    HW111557   3.328   2.990   0.496
 3837SOL    HW211558   3.185   3.069   0.504
 3838SOL     OW11559   2.409   2.036   0.900
 3838SOL    HW111560   2.413   2.065   0.996
 3838SOL    HW211561   2.413   2.117   0.841
 3839SOL     OW11562   2.854   3.301   0.469
 3839SOL    HW111563   2.822   3.382   0.420
 3839SOL    HW211564   2.835   3.312   0.567
 3840SOL     OW11565   2.218   3.675   0.868
 3840SOL    HW111566   2.261   3.586   0.875
 3840SOL    HW211567   2.285   3.747   0.889
 3841SOL     OW11568   3.661   2.916   0.873
 3841SOL    HW111569   3.611   2.894   0.790
 3841SOL    HW211570   3.598   2.923   0.950
 3842SOL     OW11571   3.088   3.398   1.514
 3842SOL    HW111572   3.076   3.324   1.580
 3842SOL    HW211573   3.021   3.389   1.441
 3843SOL     OW11574   2.178   2.819   0.231
 3843SOL    HW111575   2.270   2.834   0.195
 3843SOL    HW211576   2.148   2.726   0.211
 3844SOL     OW11577   3.346   2.607   0.723
 3844SOL    HW111578   3.341   2.567   0.814
 3844SOL    HW211579   3.425   2.668   0.718
 3845SOL     OW11580   2.330   3.127   1.731
 3845SOL    HW111581   2.304   3.133   1.635
 3845SOL    HW211582   2.248   3.124   1.788
 3846SOL     OW11583   2.982   3.628   0.242
 3846SOL    HW111584   2.909   3.582   0.293
 3846SOL    HW211585   3.019   3.565   0.174
 3847SOL     OW11586   2.064   2.137   1.503
 3847SOL    HW111587   1.982   2.194   1.499
 3847SOL    HW211588   2.042   2.050   1.547
 3848SOL     OW11589   3.508   3.293   0.103
 3848SOL    HW111590   3.460   3.374   0.071
 3848SOL    HW211591   3.446   3.236   0.157
 3849SOL     OW11592   2.350   3.560   0.381
 3849SOL    HW111593   2.377   3.647   0.424
 3849SOL    HW211594   2.407   3.544   0.301
 3850SOL     OW11595   2.121   3.654   1.226
 3850SOL    HW111596   2.172   3.581   1.273
 3850SOL    HW211597   2.101   3.625   1.132
 3851SOL     OW11598   2.798   3.564   0.897
 3851SOL    HW111599   2.880   3.516   0.928
 3851SOL    HW211600   2.755   3.512   0.823
 3852SOL     OW11601   2.260   2.549   0.469
 3852SOL    HW111602   2.279   2.453   0.488
 3852SOL    HW211603   2.163   2.568   0.488
 3853SOL     OW11604   3.390   2.085   1.728
 3853SOL    HW111605   3.401   2.106   1.825
 3853SOL    HW211606   3.318   2.017   1.716
 3854SOL     OW11607   2.625   2.138   1.757
 3854SOL    HW111608   2.710   2.085   1.751
 3854SOL    HW211609   2.574   2.110   1.838
 3855SOL     OW11610   2.737   3.377   1.192
 3855SOL    HW111611   2.717   3.341   1.101
 3855SOL    HW211612   2.809   3.323   1.235
 3856SOL     OW11613   3.202   2.451   1.435
 3856SOL    HW111614   3.232   2.416   1.524
 3856SOL    HW211615   3.237   2.543   1.422
 3857SOL     OW11616   2.681   3.252   0.942
 3857SOL    HW111617   2.771   3.240   0.899
 3857SOL    HW211618   2.611   3.257   0.871
 3858SOL     OW11619   2.789   2.369   0.899
 3858SOL    HW111620   2.763   2.361   0.803
 3858SOL    HW211621   2.822   2.280   0.932
 3859SOL     OW11622   2.411   1.934   0.504
 3859SOL    HW111623   2.328   1.931   0.559
 3859SOL    HW211624   2.406   2.012   0.441
 3860SOL     OW11625   3.282   3.075   0.012
 3860SOL    HW111626   3.312   2.994   0.063
 3860SOL    HW211627   3.200   3.113   0.054
 3861SOL     OW11628   2.811   2.112   0.461
 3861SOL    HW111629   2.778   2.152   0.376
 3861SOL    HW211630   2.909   2.127   0.469
 3862SOL     OW11631   2.942   2.545   1.455
 3862SOL    HW111632   2.867   2.479   1.461
 3862SOL    HW211633   3.029   2.496   1.451
 3863SOL     OW11634   3.081   3.429   0.796
 3863SOL    HW111635   3.095   3.499   0.726
 3863SOL    HW211636   3.154   3.436   0.865
 3864SOL     OW11637   2.333   3.013   0.730
 3864SOL    HW111638   2.263   2.992   0.798
 3864SOL    HW211639   2.294   3.006   0.639
 3865SOL     OW11640   3.119   3.647   0.611
 3865SOL    HW111641   3.174   3.710   0.558
 3865SOL    HW211642   3.046   3.698   0.657
 3866SOL     OW11643   2.924   2.442   0.031
 3866SOL    HW111644   2.829   2.465   0.050
 3866SOL    HW211645   2.973   2.429   0.117
 3867SOL     OW11646   1.948   2.419   1.391
 3867SOL    HW111647   2.043   2.415   1.359
 3867SOL    HW211648   1.940   2.490   1.461
 3868SOL     OW11649   2.420   2.085   1.172
 3868SOL    HW111650   2.470   2.010   1.215
 3868SOL    HW211651   2.325   2.084   1.202
 3869SOL     OW11652   2.728   2.319   0.639
 3869SOL    HW111653   2.683   2.382   0.575
 3869SOL    HW211654   2.755   2.236   0.590
 3870SOL     OW11655   2.881   1.911   0.742
 3870SOL    HW111656   2.816   1.912   0.665
 3870SOL    HW211657   2.857   1.838   0.805
 3871SOL     OW11658   3.308   3.023   0.860
 3871SOL    HW111659   3.232   2.958   0.862
 3871SOL    HW211660   3.340   3.033   0.766
 3872SOL     OW11661   3.330   2.470   0.971
 3872SOL    HW111662   3.268   2.391   0.971
 3872SOL    HW211663   3.391   2.464   1.050
 3873SOL     OW11664   3.691   2.667   0.390
 3873SOL    HW111665   3.751   2.607   0.442
 3873SOL    HW211666   3.685   2.636   0.296
 3874SOL     OW11667   2.330   3.291   0.153
 3874SOL    HW111668   2.268   3.246   0.218
 3874SOL    HW211669   2.309   3.260   0.060
 3875SOL     OW11670   3.535   3.128   0.652
 3875SOL    HW111671   3.634   3.125   0.661
 3875SOL    HW211672   3.502   3.221   0.666
 3876SOL     OW11673   3.253   2.415   0.067
 3876SOL    HW111674   3.192   2.413   0.147
 3876SOL    HW211675   3.316   2.337   0.071
 3877SOL     OW11676   2.375   2.126   0.312
 3877SOL    HW111677   2.390   2.060   0.238
 3877SOL    HW211678   2.352   2.215   0.273
 3878SOL     OW11679   3.615   3.103   1.561
 3878SOL    HW111680   3.704   3.060   1.548
 3878SOL    HW211681   3.626   3.196   1.595
 3879SOL     OW11682   2.915   3.212   1.336
 3879SOL    HW111683   2.834   3.182   1.386
 3879SOL    HW211684   2.997   3.172   1.378
 3880SOL     OW11685   3.475   3.491   1.657
 3880SOL    HW111686   3.460   3.527   1.564
 3880SOL    HW211687   3.561   3.440   1.659
 3881SOL     OW11688   2.999   3.081   1.105
 3881SOL    HW111689   2.939   3.115   1.177
 3881SOL    HW211690   2.965   3.112   1.016
 3882SOL     OW11691   3.486   2.958   1.079
 3882SOL    HW111692   3.482   3.024   1.155
 3882SOL    HW211693   3.411   2.976   1.016
 3883SOL     OW11694   2.785   1.956   1.391
 3883SOL    HW111695   2.807   1.934   1.296
 3883SOL    HW211696   2.865   2.000   1.434
 3884SOL     OW11697   2.841   2.977   1.721
 3884SOL    HW111698   2.747   2.996   1.748
 3884SOL    HW211699   2.843   2.894   1.665
 3885SOL     OW11700   2.576   2.920   0.375
 3885SOL    HW111701   2.556   2.903   0.472
 3885SOL    HW211702   2.656   2.866   0.347
 3886SOL     OW11703   2.284   2.677   1.254
 3886SOL    HW111704   2.357   2.690   1.321
 3886SOL    HW211705   2.245   2.585   1.265
 3887SOL     OW11706   3.124   2.238   1.280
 3887SOL    HW111707   3.161   2.318   1.329
 3887SOL    HW211708   3.029   2.256   1.255
 3888SOL     OW11709   1.936   3.434   1.353
 3888SOL    HW111710   1.900   3.504   1.291
 3888SOL    HW211711   2.036   3.432   1.347
 3889SOL     OW11712   2.226   2.983   0.482
 3889SOL    HW111713   2.201   3.059   0.422
 3889SOL    HW211714   2.223   2.897   0.430
 3890SOL     OW11715   2.410   2.404   0.860
 3890SOL    HW111716   2.425   2.464   0.781
 3890SOL    HW211717   2.478   2.425   0.931
 3891SOL     OW11718   3.106   3.207   0.406
 3891SOL    HW111719   3.164   3.283   0.436
 3891SOL    HW211720   3.011   3.224   0.433
 3892SOL     OW11721   3.149   3.324   1.147
 3892SOL    HW111722   3.208   3.330   1.228
 3892SOL    HW211723   3.095   3.240   1.152
 3893SOL     OW11724   3.449   2.489   0.481
 3893SOL    HW111725   3.392   2.531   0.550
 3893SOL    HW211726   3.506   2.559   0.437
 3894SOL     OW11727   2.210   3.392   1.310
 3894SOL    HW111728   2.194   3.347   1.222
 3894SOL    HW211729   2.308   3.406   1.322
 3895SOL     OW11730   2.277   2.608   1.600
 3895SOL    HW111731   2.344   2.654   1.541
 3895SOL    HW211732   2.310   2.517   1.623
 3896SOL     OW11733   3.470   2.647   1.684
 3896SOL    HW111734   3.379   2.689   1.682
 3896SOL    HW211735   3.527   2.688   1.613
 3897SOL     OW11736   2.859   1.996   1.750
 3897SOL    HW111737   2.917   2.075   1.734
 3897SOL    HW211738   2.908   1.913   1.723
 3898SOL     OW11739   2.354   1.898   1.750
 3898SOL    HW111740   2.310   1.840   1.682
 3898SOL    HW211741   2.297   1.978   1.769
 3899SOL     OW11742   2.445   2.733   1.034
 3899SOL    HW111743   2.481   2.827   1.030
 3899SOL    HW211744   2.386   2.723   1.114
 3900SOL     OW11745   3.214   2.719   1.025
 3900SOL    HW111746   3.124   2.711   0.982
 3900SOL    HW211747   3.262   2.632   1.016
 3901SOL     OW11748   3.057   2.389   0.272
 3901SOL    HW111749   3.071   2.309   0.330
 3901SOL    HW211750   3.017   2.463   0.327
 3902SOL     OW11751   2.159   2.059   1.246
 3902SOL    HW111752   2.123   2.095   1.332
 3902SOL    HW211753   2.144   1.960   1.243
 3903SOL     OW11754   1.915   3.172   1.275
 3903SOL    HW111755   1.946   3.110   1.348
 3903SOL    HW211756   1.917   3.266   1.308
 3904SOL     OW11757   2.585   2.492   1.054
 3904SOL    HW111758   2.663   2.473   0.995
 3904SOL    HW211759   2.550   2.584   1.036
 3905SOL     OW11760   3.598   2.822   1.856
 3905SOL    HW111761   3.555   2.754   1.797
 3905SOL    HW211762   3.538   2.842   1.934
 3906SOL     OW11763   2.166   1.928   0.630
 3906SOL    HW111764   2.143   2.023   0.650
 3906SOL    HW211765   2.178   1.877   0.715
 3907SOL     OW11766   3.489   2.239   0.375
 3907SOL    HW111767   3.514   2.169   0.442
 3907SOL    HW211768   3.467   2.324   0.422
 3908SOL     OW11769   2.885   2.617   0.958
 3908SOL    HW111770   2.881   2.639   1.056
 3908SOL    HW211771   2.859   2.522   0.944
 3909SOL     OW11772   2.843   3.425   1.718
 3909SOL    HW111773   2.826   3.472   1.631
 3909SOL    HW211774   2.891   3.339   1.700
 3910SOL     OW11775   3.717   3.365   1.604
 3910SOL    HW111776   3.736   3.392   1.509
 3910SOL    HW211777   3.800   3.377   1.658
 3911SOL     OW11778   2.215   2.780   1.805
 3911SOL    HW111779   2.295   2.802   1.861
 3911SOL    HW211780   2.240   2.715   1.734
 3912SOL     OW11781   3.348   2.155   0.154
 3912SOL    HW111782   3.309   2.064   0.168
 3912SOL    HW211783   3.406   2.179   0.232
 3913SOL     OW11784   3.156   2.683   0.034
 3913SOL    HW111785   3.202   2.595   0.023
 3913SOL    HW211786   3.181   2.743   6.957
 3914SOL     OW11787   2.931   3.199   0.855
 3914SOL    HW111788   2.935   3.121   0.792
 3914SOL    HW211789   2.990   3.272   0.822
 3915SOL     OW11790   2.173   2.668   0.943
 3915SOL    HW111791   2.269   2.694   0.940
 3915SOL    HW211792   2.166   2.574   0.976
 3916SOL     OW11793   2.190   2.389   1.011
 3916SOL    HW111794   2.151   2.297   1.001
 3916SOL    HW211795   2.270   2.398   0.953
 3917SOL     OW11796   2.996   2.235   1.692
 3917SOL    HW111797   2.943   2.292   1.755
 3917SOL    HW211798   3.088   2.272   1.683
 3918SOL     OW11799   3.024   2.065   1.476
 3918SOL    HW111800   3.009   2.128   1.552
 3918SOL    HW211801   3.066   2.115   1.400
 3919SOL     OW11802   1.955   3.646   0.943
 3919SOL    HW111803   1.918   3.564   0.898
 3919SOL    HW211804   2.049   3.662   0.911
 3920SOL     OW11805   2.355   3.438   0.904
 3920SOL    HW111806   2.425   3.504   0.931
 3920SOL    HW211807   2.395   3.370   0.843
 3921SOL     OW11808   2.836   2.655   1.224
 3921SOL    HW111809   2.897   2.632   1.300
 3921SOL    HW211810   2.747   2.614   1.239
 3922SOL     OW11811   1.899   2.414   1.117
 3922SOL    HW111812   1.982   2.402   1.062
 3922SOL    HW211813   1.924   2.416   1.214
 3923SOL     OW11814   2.054   2.385   1.730
 3923SOL    HW111815   2.106   2.331   1.664
 3923SOL    HW211816   2.015   2.465   1.685
 3924SOL     OW11817   3.242   2.797   1.655
 3924SOL    HW111818   3.265   2.894   1.656
 3924SOL    HW211819   3.239   2.765   1.560
 3925SOL     OW11820   2.680   2.431   0.370
 3925SOL    HW111821   2.688   2.352   0.309
 3925SOL    HW211822   2.603   2.488   0.342
 3926SOL     OW11823   3.505   2.465   1.181
 3926SOL    HW111824   3.488   2.406   1.260
 3926SOL    HW211825   3.596   2.447   1.145
 3927SOL     OW11826   2.102   3.409   1.726
 3927SOL    HW111827   2.080   3.483   1.789
 3927SOL    HW211828   2.108   3.323   1.776
 3928SOL     OW11829   2.570   2.309   1.253
 3928SOL    HW111830   2.512   2.231   1.229
 3928SOL    HW211831   2.566   2.377   1.179
 3929SOL     OW11832   2.782   3.543   1.472
 3929SOL    HW111833   2.756   3.497   1.387
 3929SOL    HW211834   2.782   3.642   1.457
 3930SOL     OW11835   2.317   2.361   0.189
 3930SOL    HW111836   2.381   2.433   0.214
 3930SOL    HW211837   2.224   2.397   0.185
 3931SOL     OW11838   2.004   3.000   1.475
 3931SOL    HW111839   2.006   2.955   1.565
 3931SOL    HW211840   2.024   2.932   1.404
 3932SOL     OW11841   3.177   2.906   1.219
 3932SOL    HW111842   3.205   2.838   1.151
 3932SOL    HW211843   3.110   2.968   1.179
 3933SOL     OW11844   3.163   2.708   0.306
 3933SOL    HW111845   3.082   2.680   0.357
 3933SOL    HW211846   3.151   2.687   0.209
 3934SOL     OW11847   3.642   3.592   1.157
 3934SOL    HW111848   3.703   3.626   1.085
 3934SOL    HW211849   3.611   3.500   1.132
 3935SOL     OW11850   3.103   3.595   1.105
 3935SOL    HW111851   3.189   3.624   1.062
 3935SOL    HW211852   3.109   3.498   1.129
 3936SOL     OW11853   1.948   3.128   1.010
 3936SOL    HW111854   1.932   3.142   1.108
 3936SOL    HW211855   1.876   3.069   0.972
 3937SOL     OW11856   2.543   3.535   1.736
 3937SOL    HW111857   2.480   3.613   1.731
 3937SOL    HW211858   2.616   3.547   1.669
 3938SOL     OW11859   2.801   1.939   0.112
 3938SOL    HW111860   2.872   1.994   0.067
 3938SOL    HW211861   2.844   1.879   0.180
 3939SOL     OW11862   3.591   2.023   0.528
 3939SOL    HW111863   3.660   2.014   0.457
 3939SOL    HW211864   3.563   1.932   0.559
 3940SOL     OW11865   3.252   3.424   0.491
 3940SOL    HW111866   3.317   3.455   0.421
 3940SOL    HW211867   3.198   3.502   0.522
 3941SOL     OW11868   2.007   3.649   1.846
 3941SOL    HW111869   1.950   3.581   1.891
 3941SOL    HW211870   2.057   3.703   1.914
 3942SOL     OW11871   3.144   2.785   0.670
 3942SOL    HW111872   3.219   2.720   0.684
 3942SOL    HW211873   3.179   2.864   0.618
 3943SOL     OW11874   2.666   3.141   1.426
 3943SOL    HW111875   2.636   3.184   1.511
 3943SOL    HW211876   2.596   3.155   1.356
 3944SOL     OW11877   2.536   3.466   0.191
 3944SOL    HW111878   2.541   3.515   0.104
 3944SOL    HW211879   2.476   3.387   0.181
 3945SOL     OW11880   3.479   3.591   1.387
 3945SOL    HW111881   3.537   3.591   1.306
 3945SOL    HW211882   3.464   3.684   1.419
 3946SOL     OW11883   3.704   2.031   0.963
 3946SOL    HW111884   3.738   1.940   0.941
 3946SOL    HW211885   3.613   2.043   0.923
 3947SOL     OW11886   2.118   2.179   0.717
 3947SOL    HW111887   2.029   2.217   0.690
 3947SOL    HW211888   2.121   2.170   0.816
 3948SOL     OW11889   3.081   3.461   0.040
 3948SOL    HW111890   3.075   3.366   0.071
 3948SOL    HW211891   2.996   3.487   6.995
 3949SOL     OW11892   2.685   2.872   1.378
 3949SOL    HW111893   2.736   2.856   1.293
 3949SOL    HW211894   2.682   2.970   1.398
 3950SOL     OW11895   2.785   2.775   0.293
 3950SOL    HW111896   2.841   2.804   0.215
 3950SOL    HW211897   2.834   2.704   0.343
 3951SOL     OW11898   3.350   3.516   0.041
 3951SOL    HW111899   3.252   3.495   0.041
 3951SOL    HW211900   3.381   3.531   6.947
 3952SOL     OW11901   2.228   3.165   1.487
 3952SOL    HW111902   2.218   3.246   1.428
 3952SOL    HW211903   2.148   3.106   1.476
 3953SOL     OW11904   3.475   3.146   1.284
 3953SOL    HW111905   3.538   3.127   1.359
 3953SOL    HW211906   3.409   3.216   1.313
 3954SOL     OW11907   2.923   2.968   0.714
 3954SOL    HW111908   2.847   2.919   0.755
 3954SOL    HW211909   2.991   2.902   0.681
 3955SOL     OW11910   2.885   2.101   0.966
 3955SOL    HW111911   2.880   2.057   0.876
 3955SOL    HW211912   2.882   2.031   1.038
 3956SOL     OW11913   2.476   3.339   0.485
 3956SOL    HW111914   2.514   3.287   0.408
 3956SOL    HW211915   2.415   3.410   0.451
 3957SOL     OW11916   3.593   2.256   1.381
 3957SOL    HW111917   3.666   2.324   1.381
 3957SOL    HW211918   3.619   2.181   1.320
 3958SOL     OW11919   2.131   3.188   0.307
 3958SOL    HW111920   2.051   3.207   0.250
 3958SOL    HW211921   2.119   3.234   0.396
 3959SOL     OW11922   1.977   2.897   1.728
 3959SOL    HW111923   1.895   2.869   1.779
 3959SOL    HW211924   2.057   2.851   1.767
 3960SOL     OW11925   2.545   2.056   1.500
 3960SOL    HW111926   2.632   2.032   1.456
 3960SOL    HW211927   2.563   2.090   1.592
 3961SOL     OW11928   1.971   2.178   0.015
 3961SOL    HW111929   1.907   2.126   6.958
 3961SOL    HW211930   1.993   2.264   6.969
 3962SOL     OW11931   3.285   2.718   1.395
 3962SOL    HW111932   3.230   2.782   1.341
 3962SOL    HW211933   3.379   2.720   1.361
 3963SOL     OW11934   1.913   2.035   0.333
 3963SOL    HW111935   1.893   2.119   0.282
 3963SOL    HW211936   2.002   2.000   0.305
 3964SOL     OW11937   3.048   3.207   0.128
 3964SOL    HW111938   2.951   3.190   0.111
 3964SOL    HW211939   3.067   3.197   0.225
 3965SOL     OW11940   2.485   2.692   1.433
 3965SOL    HW111941   2.543   2.773   1.419
 3965SOL    HW211942   2.543   2.611   1.443
 3966SOL     OW11943   3.348   3.651   0.987
 3966SOL    HW111944   3.371   3.715   0.914
 3966SOL    HW211945   3.431   3.614   1.028
 3967SOL     OW11946   2.584   2.420   1.702
 3967SOL    HW111947   2.628   2.487   1.762
 3967SOL    HW211948   2.604   2.328   1.736
 3968SOL     OW11949   3.336   3.058   1.634
 3968SOL    HW111950   3.321   3.071   1.732
 3968SOL    HW211951   3.432   3.077   1.613
 3969SOL     OW11952   2.233   3.600   1.567
 3969SOL    HW111953   2.149   3.652   1.552
 3969SOL    HW211954   2.211   3.512   1.609
 3970SOL     OW11955   3.527   2.740   1.256
 3970SOL    HW111956   3.523   2.649   1.214
 3970SOL    HW211957   3.515   2.810   1.185
 3971SOL     OW11958   3.083   2.179   0.457
 3971SOL    HW111959   3.164   2.127   0.428
 3971SOL    HW211960   3.105   2.231   0.539
 3972SOL     OW11961   2.450   2.596   0.665
 3972SOL    HW111962   2.490   2.688   0.659
 3972SOL    HW211963   2.379   2.586   0.596
 3973SOL     OW11964   3.613   2.227   1.652
 3973SOL    HW111965   3.603   2.243   1.554
 3973SOL    HW211966   3.539   2.167   1.684
 3974SOL     OW11967   3.614   2.794   1.509
 3974SOL    HW111968   3.603   2.891   1.531
 3974SOL    HW211969   3.593   2.779   1.413
 3975SOL     OW11970   2.764   3.245   0.053
 3975SOL    HW111971   2.704   3.220   0.129
 3975SOL    HW211972   2.768   3.345   0.044
 3976SOL     OW11973   2.527   3.647   0.942
 3976SOL    HW111974   2.503   3.742   0.920
 3976SOL    HW211975   2.625   3.634   0.931
 3977SOL     OW11976   2.731   2.832   0.857
 3977SOL    HW111977   2.782   2.755   0.893
 3977SOL    HW211978   2.689   2.883   0.932
 3978SOL     OW11979   2.943   2.845   0.080
 3978SOL    HW111980   2.941   2.902   6.998
 3978SOL    HW211981   3.022   2.784   0.077
 3979SOL     OW11982   3.708   3.419   0.846
 3979SOL    HW111983   3.631   3.405   0.784
 3979SOL    HW211984   3.709   3.347   0.916
 3980SOL     OW11985   2.093   3.161   1.856
 3980SOL    HW111986   2.028   3.093   1.821
 3980SOL    HW211987   2.077   3.174   1.954
 3981SOL     OW11988   1.943   3.096   0.664
 3981SOL    HW111989   1.961   3.046   0.748
 3981SOL    HW211990   1.989   3.051   0.588
 3982SOL     OW11991   2.544   3.271   1.633
 3982SOL    HW111992   2.464   3.221   1.665
 3982SOL    HW211993   2.543   3.364   1.670
 3983SOL     OW11994   3.666   2.044   1.233
 3983SOL    HW111995   3.682   1.949   1.258
 3983SOL    HW211996   3.679   2.056   1.135
 3984SOL     OW11997   2.293   2.291   0.527
 3984SOL    HW111998   2.323   2.219   0.465
 3984SOL    HW211999   2.239   2.250   0.601
 3985SOL     OW12000   3.554   3.345   1.095
 3985SOL    HW112001   3.474   3.327   1.038
 3985SOL    HW212002   3.563   3.274   1.164
 3986SOL     OW12003   2.197   2.418   1.289
 3986SOL    HW112004   2.253   2.361   1.349
 3986SOL    HW212005   2.212   2.392   1.194
 3987SOL     OW12006   2.689   3.441   0.680
 3987SOL    HW112007   2.677   3.500   0.600
 3987SOL    HW212008   2.613   3.377   0.687
 3988SOL     OW12009   3.293   2.094   1.117
 3988SOL    HW112010   3.316   2.004   1.155
 3988SOL    HW212011   3.238   2.145   1.184
 3989SOL     OW12012   2.872   1.878   1.137
 3989SOL    HW112013   2.808   1.814   1.095
 3989SOL    HW212014   2.963   1.838   1.139
 3990SOL     OW12015   2.646   3.180   0.307
 3990SOL    HW112016   2.612   3.088   0.327
 3990SOL    HW212017   2.722   3.201   0.368
 3991SOL     OW12018   2.485   3.421   1.289
 3991SOL    HW112019   2.483   3.508   1.339
 3991SOL    HW212020   2.576   3.408   1.249
 3992SOL     OW12021   3.215   1.916   0.185
 3992SOL    HW112022   3.255   1.858   0.114
 3992SOL    HW212023   3.128   1.876   0.216
 3993SOL     OW12024   3.147   2.322   0.679
 3993SOL    HW112025   3.098   2.409   0.682
 3993SOL    HW212026   3.149   2.282   0.770
 3994SOL     OW12027   3.447   2.065   0.883
 3994SOL    HW112028   3.390   2.085   0.963
 3994SOL    HW212029   3.451   2.145   0.824
 3995SOL     OW12030   1.944   2.914   0.356
 3995SOL    HW112031   2.034   2.893   0.317
 3995SOL    HW212032   1.892   2.830   0.369
 3996SOL     OW12033   2.750   3.525   0.353
 3996SOL    HW112034   2.675   3.496   0.294
 3996SOL    HW212035   2.722   3.604   0.408
 3997SOL     OW12036   2.084   2.482   1.990
 3997SOL    HW112037   1.992   2.481   2.030
 3997SOL    HW212038   2.077   2.459   1.892
 3998SOL     OW12039   2.084   2.145   2.857
 3998SOL    HW112040   2.117   2.110   2.945
 3998SOL    HW212041   1.991   2.112   2.840
 3999SOL     OW12042   1.863   2.248   2.496
 3999SOL    HW112043   1.779   2.278   2.541
 3999SOL    HW212044   1.844   2.165   2.444
 4000SOL     OW12045   2.432   3.158   3.048
 4000SOL    HW112046   2.342   3.153   3.006
 4000SOL    HW212047   2.449   3.251   3.082
 4001SOL     OW12048   3.426   3.375   2.570
 4001SOL    HW112049   3.384   3.352   2.658
 4001SOL    HW212050   3.356   3.382   2.499
 4002SOL     OW12051   2.995   2.565   2.557
 4002SOL    HW112052   3.047   2.649   2.540
 4002SOL    HW212053   2.945   2.573   2.643
 4003SOL     OW12054   3.632   2.461   2.085
 4003SOL    HW112055   3.608   2.457   1.988
 4003SOL    HW212056   3.594   2.382   2.132
 4004SOL     OW12057   2.605   3.002   2.901
 4004SOL    HW112058   2.538   3.036   2.966
 4004SOL    HW212059   2.650   3.079   2.855
 4005SOL     OW12060   2.736   2.623   3.684
 4005SOL    HW112061   2.723   2.693   3.754
 4005SOL    HW212062   2.758   2.668   3.597
 4006SOL     OW12063   2.546   2.861   2.511
 4006SOL    HW112064   2.617   2.850   2.580
 4006SOL    HW212065   2.471   2.917   2.547
 4007SOL     OW12066   2.552   3.015   3.686
 4007SOL    HW112067   2.593   3.098   3.725
 4007SOL    HW212068   2.466   3.038   3.641
 4008SOL     OW12069   2.187   3.288   2.930
 4008SOL    HW112070   2.111   3.241   2.885
 4008SOL    HW212071   2.240   3.339   2.862
 4009SOL     OW12072   2.312   2.256   3.341
 4009SOL    HW112073   2.393   2.198   3.348
 4009SOL    HW212074   2.231   2.201   3.359
 4010SOL     OW12075   3.473   2.308   2.607
 4010SOL    HW112076   3.398   2.327   2.543
 4010SOL    HW212077   3.481   2.382   2.673
 4011SOL     OW12078   2.084   3.576   2.334
 4011SOL    HW112079   2.102   3.655   2.392
 4011SOL    HW212080   2.159   3.566   2.268
 4012SOL     OW12081   3.027   3.080   3.514
 4012SOL    HW112082   3.061   3.133   3.591
 4012SOL    HW212083   2.942   3.034   3.540
 4013SOL     OW12084   2.096   3.305   2.398
 4013SOL    HW112085   2.079   3.404   2.397
 4013SOL    HW212086   2.035   3.262   2.465
 4014SOL     OW12087   2.133   2.952   2.764
 4014SOL    HW112088   2.127   2.858   2.796
 4014SOL    HW212089   2.069   3.009   2.816
 4015SOL     OW12090   2.458   3.655   3.297
 4015SOL    HW112091   2.360   3.657   3.316
 4015SOL    HW212092   2.498   3.744   3.319
 4016SOL     OW12093   2.444   2.849   2.003
 4016SOL    HW112094   2.491   2.896   1.928
 4016SOL    HW212095   2.484   2.877   2.090
 4017SOL     OW12096   3.458   1.987   3.331
 4017SOL    HW112097   3.478   2.067   3.275
 4017SOL    HW212098   3.444   2.016   3.426
 4018SOL     OW12099   1.976   2.523   2.426
 4018SOL    HW112100   1.947   2.428   2.442
 4018SOL    HW212101   1.970   2.575   2.511
 4019SOL     OW12102   3.708   3.618   2.195
 4019SOL    HW112103   3.778   3.587   2.259
 4019SOL    HW212104   3.724   3.713   2.171
 4020SOL     OW12105   1.891   3.452   1.985
 4020SOL    HW112106   1.875   3.356   2.004
 4020SOL    HW212107   1.871   3.506   2.067
 4021SOL     OW12108   3.553   2.783   2.509
 4021SOL    HW112109   3.638   2.732   2.492
 4021SOL    HW212110   3.529   2.837   2.428
 4022SOL     OW12111   3.515   2.967   2.294
 4022SOL    HW112112   3.603   2.964   2.248
 4022SOL    HW212113   3.517   3.034   2.368
 4023SOL     OW12114   1.986   2.607   3.447
 4023SOL    HW112115   2.083   2.632   3.449
 4023SOL    HW212116   1.930   2.689   3.453
 4024SOL     OW12117   2.473   3.253   2.596
 4024SOL    HW112118   2.428   3.165   2.608
 4024SOL    HW212119   2.461   3.284   2.502
 4025SOL     OW12120   3.183   3.115   3.258
 4025SOL    HW112121   3.188   3.031   3.205
 4025SOL    HW212122   3.175   3.093   3.355
 4026SOL     OW12123   2.679   1.871   2.370
 4026SOL    HW112124   2.725   1.957   2.348
 4026SOL    HW212125   2.581   1.887   2.378
 4027SOL     OW12126   2.053   2.823   3.136
 4027SOL    HW112127   2.142   2.779   3.122
 4027SOL    HW212128   1.983   2.774   3.085
 4028SOL     OW12129   3.394   2.862   2.066
 4028SOL    HW112130   3.320   2.802   2.096
 4028SOL    HW212131   3.441   2.900   2.146
 4029SOL     OW12132   3.046   3.729   3.462
 4029SOL    HW112133   3.045   3.808   3.401
 4029SOL    HW212134   3.014   3.648   3.414
 4030SOL     OW12135   2.203   2.111   3.694
 4030SOL    HW112136   2.252   2.197   3.709
 4030SOL    HW212137   2.106   2.124   3.713
 4031SOL     OW12138   3.324   3.284   2.811
 4031SOL    HW112139   3.263   3.300   2.889
 4031SOL    HW212140   3.316   3.188   2.783
 4032SOL     OW12141   3.512   3.611   2.438
 4032SOL    HW112142   3.494   3.581   2.344
 4032SOL    HW212143   3.491   3.536   2.501
 4033SOL     OW12144   2.457   2.581   2.135
 4033SOL    HW112145   2.462   2.666   2.083
 4033SOL    HW212146   2.387   2.590   2.206
 4034SOL     OW12147   3.139   2.221   2.795
 4034SOL    HW112148   3.046   2.186   2.802
 4034SOL    HW212149   3.198   2.168   2.857
 4035SOL     OW12150   3.445   3.534   2.170
 4035SOL    HW112151   3.541   3.562   2.166
 4035SOL    HW212152   3.412   3.517   2.077
 4036SOL     OW12153   2.651   2.474   3.311
 4036SOL    HW112154   2.626   2.450   3.405
 4036SOL    HW212155   2.614   2.406   3.248
 4037SOL     OW12156   3.253   2.332   3.542
 4037SOL    HW112157   3.254   2.381   3.629
 4037SOL    HW212158   3.315   2.253   3.548
 4038SOL     OW12159   2.810   2.741   3.443
 4038SOL    HW112160   2.872   2.671   3.407
 4038SOL    HW212161   2.760   2.783   3.367
 4039SOL     OW12162   2.856   2.268   3.091
 4039SOL    HW112163   2.766   2.290   3.129
 4039SOL    HW212164   2.845   2.219   3.005
 4040SOL     OW12165   2.912   2.561   2.287
 4040SOL    HW112166   2.934   2.556   2.384
 4040SOL    HW212167   2.826   2.513   2.270
 4041SOL     OW12168   1.951   2.690   2.642
 4041SOL    HW112169   2.036   2.677   2.692
 4041SOL    HW212170   1.902   2.768   2.678
 4042SOL     OW12171   2.758   2.215   2.059
 4042SOL    HW112172   2.798   2.282   1.997
 4042SOL    HW212173   2.767   2.123   2.019
 4043SOL     OW12174   3.563   2.434   3.689
 4043SOL    HW112175   3.527   2.513   3.639
 4043SOL    HW212176   3.594   2.365   3.623
 4044SOL     OW12177   3.241   3.005   2.396
 4044SOL    HW112178   3.326   2.990   2.345
 4044SOL    HW212179   3.185   3.072   2.347
 4045SOL     OW12180   2.409   2.035   2.762
 4045SOL    HW112181   2.413   2.065   2.858
 4045SOL    HW212182   2.412   2.115   2.702
 4046SOL     OW12183   2.857   3.304   2.326
 4046SOL    HW112184   2.825   3.385   2.276
 4046SOL    HW212185   2.842   3.317   2.424
 4047SOL     OW12186   2.219   3.676   2.731
 4047SOL    HW112187   2.263   3.587   2.739
 4047SOL    HW212188   2.286   3.748   2.750
 4048SOL     OW12189   3.661   2.919   2.732
 4048SOL    HW112190   3.610   2.896   2.650
 4048SOL    HW212191   3.599   2.925   2.810
 4049SOL     OW12192   2.183   2.821   2.116
 4049SOL    HW112193   2.271   2.841   2.073
 4049SOL    HW212194   2.147   2.736   2.078
 4050SOL     OW12195   3.345   2.612   2.585
 4050SOL    HW112196   3.339   2.567   2.674
 4050SOL    HW212197   3.425   2.671   2.582
 4051SOL     OW12198   2.321   3.120   3.588
 4051SOL    HW112199   2.289   3.131   3.493
 4051SOL    HW212200   2.242   3.123   3.649
 4052SOL     OW12201   2.983   3.638   2.088
 4052SOL    HW112202   2.904   3.600   2.137
 4052SOL    HW212203   3.013   3.574   2.018
 4053SOL     OW12204   2.064   2.137   3.365
 4053SOL    HW112205   1.982   2.194   3.361
 4053SOL    HW212206   2.042   2.051   3.410
 4054SOL     OW12207   3.487   3.244   1.950
 4054SOL    HW112208   3.448   3.335   1.935
 4054SOL    HW212209   3.417   3.174   1.931
 4055SOL     OW12210   2.327   3.597   2.181
 4055SOL    HW112211   2.368   3.659   2.247
 4055SOL    HW212212   2.398   3.561   2.120
 4056SOL     OW12213   3.263   1.966   2.298
 4056SOL    HW112214   3.251   1.941   2.202
 4056SOL    HW212215   3.361   1.975   2.318
 4057SOL     OW12216   2.128   3.651   3.086
 4057SOL    HW112217   2.172   3.567   3.118
 4057SOL    HW212218   2.092   3.636   2.994
 4058SOL     OW12219   2.798   3.564   2.759
 4058SOL    HW112220   2.882   3.518   2.788
 4058SOL    HW212221   2.755   3.512   2.684
 4059SOL     OW12222   2.257   2.550   2.337
 4059SOL    HW112223   2.277   2.453   2.350
 4059SOL    HW212224   2.160   2.567   2.354
 4060SOL     OW12225   3.390   2.085   3.590
 4060SOL    HW112226   3.401   2.106   3.687
 4060SOL    HW212227   3.317   2.017   3.578
 4061SOL     OW12228   2.503   1.979   1.964
 4061SOL    HW112229   2.571   1.910   1.986
 4061SOL    HW212230   2.447   1.948   1.887
 4062SOL     OW12231   2.625   2.138   3.619
 4062SOL    HW112232   2.710   2.085   3.613
 4062SOL    HW212233   2.574   2.110   3.700
 4063SOL     OW12234   2.737   3.374   3.056
 4063SOL    HW112235   2.718   3.340   2.964
 4063SOL    HW212236   2.811   3.321   3.097
 4064SOL     OW12237   3.202   2.448   3.297
 4064SOL    HW112238   3.232   2.415   3.386
 4064SOL    HW212239   3.238   2.540   3.281
 4065SOL     OW12240   2.681   3.251   2.803
 4065SOL    HW112241   2.771   3.240   2.761
 4065SOL    HW212242   2.611   3.257   2.731
 4066SOL     OW12243   2.789   2.369   2.760
 4066SOL    HW112244   2.762   2.362   2.664
 4066SOL    HW212245   2.821   2.281   2.792
 4067SOL     OW12246   2.409   1.926   2.356
 4067SOL    HW112247   2.327   1.924   2.414
 4067SOL    HW212248   2.406   2.007   2.297
 4068SOL     OW12249   3.288   3.061   1.905
 4068SOL    HW112250   3.321   2.983   1.958
 4068SOL    HW212251   3.199   3.090   1.941
 4069SOL     OW12252   2.152   1.910   2.048
 4069SOL    HW112253   2.205   1.982   2.002
 4069SOL    HW212254   2.215   1.845   2.091
 4070SOL     OW12255   2.808   2.113   2.318
 4070SOL    HW112256   2.776   2.154   2.233
 4070SOL    HW212257   2.907   2.126   2.327
 4071SOL     OW12258   2.943   2.543   3.315
 4071SOL    HW112259   2.869   2.476   3.322
 4071SOL    HW212260   3.030   2.495   3.312
 4072SOL     OW12261   3.082   3.432   2.657
 4072SOL    HW112262   3.096   3.502   2.587
 4072SOL    HW212263   3.157   3.437   2.724
 4073SOL     OW12264   2.331   3.014   2.590
 4073SOL    HW112265   2.264   2.993   2.662
 4073SOL    HW212266   2.288   3.001   2.500
 4074SOL     OW12267   3.125   3.654   2.472
 4074SOL    HW112268   3.177   3.715   2.413
 4074SOL    HW212269   3.053   3.705   2.518
 4075SOL     OW12270   2.883   2.398   1.891
 4075SOL    HW112271   2.838   2.484   1.868
 4075SOL    HW212272   2.952   2.415   1.961
 4076SOL     OW12273   1.948   2.419   3.253
 4076SOL    HW112274   2.043   2.415   3.221
 4076SOL    HW212275   1.940   2.491   3.323
 4077SOL     OW12276   2.420   2.086   3.034
 4077SOL    HW112277   2.470   2.010   3.076
 4077SOL    HW212278   2.325   2.084   3.063
 4078SOL     OW12279   2.728   2.320   2.498
 4078SOL    HW112280   2.680   2.382   2.436
 4078SOL    HW212281   2.756   2.238   2.449
 4079SOL     OW12282   2.879   1.915   2.608
 4079SOL    HW112283   2.818   1.915   2.528
 4079SOL    HW212284   2.854   1.839   2.668
 4080SOL     OW12285   3.306   3.023   2.721
 4080SOL    HW112286   3.230   2.958   2.724
 4080SOL    HW212287   3.336   3.035   2.626
 4081SOL     OW12288   3.330   2.469   2.832
 4081SOL    HW112289   3.268   2.391   2.832
 4081SOL    HW212290   3.391   2.463   2.911
 4082SOL     OW12291   3.704   2.671   2.242
 4082SOL    HW112292   3.762   2.624   2.307
 4082SOL    HW212293   3.675   2.607   2.171
 4083SOL     OW12294   2.349   3.283   2.017
 4083SOL    HW112295   2.269   3.256   2.070
 4083SOL    HW212296   2.347   3.237   1.928
 4084SOL     OW12297   3.537   3.129   2.505
 4084SOL    HW112298   3.636   3.126   2.517
 4084SOL    HW212299   3.503   3.221   2.526
 4085SOL     OW12300   3.252   2.436   1.933
 4085SOL    HW112301   3.189   2.414   2.007
 4085SOL    HW212302   3.345   2.410   1.958
 4086SOL     OW12303   2.390   2.126   2.172
 4086SOL    HW112304   2.438   2.074   2.101
 4086SOL    HW212305   2.361   2.214   2.134
 4087SOL     OW12306   3.618   3.054   3.426
 4087SOL    HW112307   3.712   3.034   3.397
 4087SOL    HW212308   3.618   3.134   3.487
 4088SOL     OW12309   2.918   3.205   3.186
 4088SOL    HW112310   2.838   3.175   3.237
 4088SOL    HW212311   3.001   3.182   3.239
 4089SOL     OW12312   3.002   3.079   2.960
 4089SOL    HW112313   2.948   3.115   3.037
 4089SOL    HW212314   2.960   3.108   2.874
 4090SOL     OW12315   3.485   2.957   2.937
 4090SOL    HW112316   3.481   3.025   3.010
 4090SOL    HW212317   3.410   2.973   2.873
 4091SOL     OW12318   2.785   1.956   3.254
 4091SOL    HW112319   2.807   1.933   3.159
 4091SOL    HW212320   2.865   2.000   3.296
 4092SOL     OW12321   2.806   2.952   3.604
 4092SOL    HW112322   2.710   2.972   3.623
 4092SOL    HW212323   2.812   2.876   3.539
 4093SOL     OW12324   2.575   2.921   2.235
 4093SOL    HW112325   2.557   2.903   2.332
 4093SOL    HW212326   2.654   2.867   2.205
 4094SOL     OW12327   2.285   2.676   3.116
 4094SOL    HW112328   2.357   2.690   3.183
 4094SOL    HW212329   2.245   2.585   3.126
 4095SOL     OW12330   3.124   2.237   3.142
 4095SOL    HW112331   3.161   2.316   3.191
 4095SOL    HW212332   3.029   2.255   3.117
 4096SOL     OW12333   1.940   3.436   3.223
 4096SOL    HW112334   1.898   3.503   3.162
 4096SOL    HW212335   2.039   3.437   3.211
 4097SOL     OW12336   2.204   2.980   2.349
 4097SOL    HW112337   2.209   3.062   2.292
 4097SOL    HW212338   2.202   2.899   2.291
 4098SOL     OW12339   2.410   2.405   2.724
 4098SOL    HW112340   2.424   2.464   2.645
 4098SOL    HW212341   2.479   2.425   2.793
 4099SOL     OW12342   3.108   3.216   2.254
 4099SOL    HW112343   3.169   3.289   2.285
 4099SOL    HW212344   3.015   3.236   2.284
 4100SOL     OW12345   3.149   3.314   3.019
 4100SOL    HW112346   3.171   3.305   3.116
 4100SOL    HW212347   3.093   3.237   2.990
 4101SOL     OW12348   3.439   2.483   2.345
 4101SOL    HW112349   3.388   2.531   2.416
 4101SOL    HW212350   3.487   2.549   2.287
 4102SOL     OW12351   2.215   3.400   3.169
 4102SOL    HW112352   2.195   3.352   3.084
 4102SOL    HW212353   2.314   3.407   3.181
 4103SOL     OW12354   2.278   2.607   3.463
 4103SOL    HW112355   2.344   2.653   3.403
 4103SOL    HW212356   2.311   2.516   3.485
 4104SOL     OW12357   3.468   2.645   3.549
 4104SOL    HW112358   3.375   2.682   3.543
 4104SOL    HW212359   3.524   2.685   3.476
 4105SOL     OW12360   2.859   1.996   3.612
 4105SOL    HW112361   2.917   2.076   3.596
 4105SOL    HW212362   2.908   1.913   3.585
 4106SOL     OW12363   2.354   1.898   3.612
 4106SOL    HW112364   2.310   1.840   3.544
 4106SOL    HW212365   2.297   1.978   3.631
 4107SOL     OW12366   2.446   2.733   2.896
 4107SOL    HW112367   2.482   2.826   2.893
 4107SOL    HW212368   2.386   2.723   2.975
 4108SOL     OW12369   3.213   2.718   2.884
 4108SOL    HW112370   3.123   2.709   2.842
 4108SOL    HW212371   3.262   2.631   2.876
 4109SOL     OW12372   3.060   2.388   2.126
 4109SOL    HW112373   3.072   2.306   2.181
 4109SOL    HW212374   3.016   2.459   2.182
 4110SOL     OW12375   2.159   2.058   3.109
 4110SOL    HW112376   2.123   2.095   3.194
 4110SOL    HW212377   2.143   1.960   3.105
 4111SOL     OW12378   1.922   3.174   3.138
 4111SOL    HW112379   1.947   3.111   3.211
 4111SOL    HW212380   1.919   3.267   3.174
 4112SOL     OW12381   2.586   2.493   2.917
 4112SOL    HW112382   2.663   2.473   2.856
 4112SOL    HW212383   2.551   2.584   2.898
 4113SOL     OW12384   3.595   2.824   3.717
 4113SOL    HW112385   3.552   2.754   3.660
 4113SOL    HW212386   3.537   2.843   3.796
 4114SOL     OW12387   2.168   1.923   2.490
 4114SOL    HW112388   2.144   2.018   2.508
 4114SOL    HW212389   2.179   1.875   2.577
 4115SOL     OW12390   3.489   2.243   2.224
 4115SOL    HW112391   3.515   2.169   2.287
 4115SOL    HW212392   3.460   2.323   2.277
 4116SOL     OW12393   2.886   2.617   2.820
 4116SOL    HW112394   2.881   2.639   2.917
 4116SOL    HW212395   2.859   2.522   2.805
 4117SOL     OW12396   2.213   2.779   3.667
 4117SOL    HW112397   2.292   2.799   3.725
 4117SOL    HW212398   2.240   2.714   3.596
 4118SOL     OW12399   3.389   2.131   1.992
 4118SOL    HW112400   3.320   2.063   2.017
 4118SOL    HW212401   3.426   2.173   2.075
 4119SOL     OW12402   3.151   2.688   1.888
 4119SOL    HW112403   3.191   2.597   1.897
 4119SOL    HW212404   3.182   2.730   1.803
 4120SOL     OW12405   2.930   3.201   2.715
 4120SOL    HW112406   2.935   3.123   2.653
 4120SOL    HW212407   2.990   3.274   2.681
 4121SOL     OW12408   2.173   2.668   2.805
 4121SOL    HW112409   2.270   2.694   2.800
 4121SOL    HW212410   2.165   2.574   2.837
 4122SOL     OW12411   2.189   2.389   2.873
 4122SOL    HW112412   2.150   2.298   2.863
 4122SOL    HW212413   2.270   2.398   2.815
 4123SOL     OW12414   2.996   2.235   3.554
 4123SOL    HW112415   2.943   2.291   3.617
 4123SOL    HW212416   3.088   2.272   3.545
 4124SOL     OW12417   3.024   2.065   3.338
 4124SOL    HW112418   3.009   2.128   3.415
 4124SOL    HW212419   3.066   2.115   3.262
 4125SOL     OW12420   1.863   3.177   2.057
 4125SOL    HW112421   1.773   3.197   2.017
 4125SOL    HW212422   1.864   3.084   2.092
 4126SOL     OW12423   1.959   3.644   2.808
 4126SOL    HW112424   1.921   3.564   2.762
 4126SOL    HW212425   2.052   3.661   2.773
 4127SOL     OW12426   2.356   3.438   2.768
 4127SOL    HW112427   2.426   3.504   2.795
 4127SOL    HW212428   2.396   3.371   2.706
 4128SOL     OW12429   2.836   2.655   3.086
 4128SOL    HW112430   2.897   2.630   3.161
 4128SOL    HW212431   2.747   2.611   3.100
 4129SOL     OW12432   1.899   2.415   2.979
 4129SOL    HW112433   1.981   2.401   2.924
 4129SOL    HW212434   1.924   2.416   3.076
 4130SOL     OW12435   2.054   2.385   3.592
 4130SOL    HW112436   2.107   2.332   3.526
 4130SOL    HW212437   2.015   2.465   3.546
 4131SOL     OW12438   3.229   2.774   3.512
 4131SOL    HW112439   3.255   2.870   3.515
 4131SOL    HW212440   3.228   2.743   3.416
 4132SOL     OW12441   2.679   2.434   2.223
 4132SOL    HW112442   2.689   2.355   2.163
 4132SOL    HW212443   2.601   2.489   2.193
 4133SOL     OW12444   3.504   2.465   3.042
 4133SOL    HW112445   3.488   2.406   3.121
 4133SOL    HW212446   3.596   2.447   3.006
 4134SOL     OW12447   2.570   2.309   3.114
 4134SOL    HW112448   2.512   2.231   3.090
 4134SOL    HW212449   2.566   2.377   3.041
 4135SOL     OW12450   2.827   3.558   3.310
 4135SOL    HW112451   2.792   3.501   3.235
 4135SOL    HW212452   2.793   3.651   3.299
 4136SOL     OW12453   2.321   2.357   2.047
 4136SOL    HW112454   2.386   2.429   2.072
 4136SOL    HW212455   2.230   2.397   2.034
 4137SOL     OW12456   2.011   2.997   3.336
 4137SOL    HW112457   2.011   2.952   3.425
 4137SOL    HW212458   2.028   2.930   3.264
 4138SOL     OW12459   3.176   2.902   3.080
 4138SOL    HW112460   3.205   2.834   3.012
 4138SOL    HW212461   3.110   2.965   3.038
 4139SOL     OW12462   3.177   2.719   2.161
 4139SOL    HW112463   3.102   2.691   2.220
 4139SOL    HW212464   3.152   2.706   2.065
 4140SOL     OW12465   3.611   3.604   2.972
 4140SOL    HW112466   3.690   3.630   2.917
 4140SOL    HW212467   3.599   3.505   2.968
 4141SOL     OW12468   3.105   3.591   2.968
 4141SOL    HW112469   3.192   3.619   2.926
 4141SOL    HW212470   3.112   3.495   2.995
 4142SOL     OW12471   1.949   3.128   2.873
 4142SOL    HW112472   1.935   3.142   2.971
 4142SOL    HW212473   1.876   3.070   2.837
 4143SOL     OW12474   3.581   2.012   2.361
 4143SOL    HW112475   3.657   2.002   2.296
 4143SOL    HW212476   3.564   1.924   2.406
 4144SOL     OW12477   3.257   3.432   2.349
 4144SOL    HW112478   3.320   3.464   2.279
 4144SOL    HW212479   3.202   3.509   2.382
 4145SOL     OW12480   3.144   2.790   2.528
 4145SOL    HW112481   3.219   2.726   2.544
 4145SOL    HW212482   3.177   2.867   2.473
 4146SOL     OW12483   2.672   3.127   3.265
 4146SOL    HW112484   2.636   3.160   3.352
 4146SOL    HW212485   2.606   3.145   3.192
 4147SOL     OW12486   2.531   3.483   2.016
 4147SOL    HW112487   2.547   3.502   1.919
 4147SOL    HW212488   2.472   3.403   2.025
 4148SOL     OW12489   3.579   3.661   3.236
 4148SOL    HW112490   3.561   3.635   3.141
 4148SOL    HW212491   3.509   3.725   3.267
 4149SOL     OW12492   3.704   2.031   2.826
 4149SOL    HW112493   3.738   1.940   2.803
 4149SOL    HW212494   3.613   2.043   2.786
 4150SOL     OW12495   2.117   2.176   2.577
 4150SOL    HW112496   2.029   2.213   2.550
 4150SOL    HW212497   2.121   2.168   2.677
 4151SOL     OW12498   3.070   3.463   1.895
 4151SOL    HW112499   3.061   3.369   1.928
 4151SOL    HW212500   3.003   3.480   1.823
 4152SOL     OW12501   2.688   2.862   3.233
 4152SOL    HW112502   2.742   2.840   3.152
 4152SOL    HW212503   2.687   2.961   3.247
 4153SOL     OW12504   2.782   2.773   2.149
 4153SOL    HW112505   2.843   2.808   2.078
 4153SOL    HW212506   2.829   2.701   2.201
 4154SOL     OW12507   3.350   3.492   1.904
 4154SOL    HW112508   3.252   3.481   1.893
 4154SOL    HW212509   3.394   3.497   1.814
 4155SOL     OW12510   2.221   3.175   3.348
 4155SOL    HW112511   2.211   3.250   3.282
 4155SOL    HW212512   2.145   3.111   3.336
 4156SOL     OW12513   3.465   3.144   3.139
 4156SOL    HW112514   3.545   3.133   3.197
 4156SOL    HW212515   3.383   3.150   3.195
 4157SOL     OW12516   2.924   2.969   2.577
 4157SOL    HW112517   2.847   2.918   2.617
 4157SOL    HW212518   2.992   2.904   2.543
 4158SOL     OW12519   2.884   2.101   2.829
 4158SOL    HW112520   2.880   2.057   2.739
 4158SOL    HW212521   2.882   2.031   2.900
 4159SOL     OW12522   2.467   3.348   2.342
 4159SOL    HW112523   2.518   3.294   2.275
 4159SOL    HW212524   2.393   3.396   2.295
 4160SOL     OW12525   3.593   2.256   3.243
 4160SOL    HW112526   3.666   2.324   3.243
 4160SOL    HW212527   3.619   2.181   3.182
 4161SOL     OW12528   2.115   3.210   2.151
 4161SOL    HW112529   2.019   3.203   2.123
 4161SOL    HW212530   2.121   3.248   2.243
 4162SOL     OW12531   1.974   2.890   3.585
 4162SOL    HW112532   1.893   2.865   3.638
 4162SOL    HW212533   2.055   2.850   3.627
 4163SOL     OW12534   2.545   2.056   3.362
 4163SOL    HW112535   2.632   2.032   3.318
 4163SOL    HW212536   2.563   2.090   3.454
 4164SOL     OW12537   1.943   2.190   1.891
 4164SOL    HW112538   1.852   2.166   1.859
 4164SOL    HW212539   1.976   2.272   1.843
 4165SOL     OW12540   3.285   2.711   3.251
 4165SOL    HW112541   3.230   2.778   3.200
 4165SOL    HW212542   3.380   2.716   3.221
 4166SOL     OW12543   1.925   2.017   2.164
 4166SOL    HW112544   1.909   2.101   2.113
 4166SOL    HW212545   2.013   1.979   2.138
 4167SOL     OW12546   3.042   3.199   1.983
 4167SOL    HW112547   2.947   3.169   1.976
 4167SOL    HW212548   3.070   3.201   2.078
 4168SOL     OW12549   2.485   2.691   3.296
 4168SOL    HW112550   2.543   2.770   3.278
 4168SOL    HW212551   2.542   2.609   3.306
 4169SOL     OW12552   3.352   3.648   2.852
 4169SOL    HW112553   3.368   3.711   2.775
 4169SOL    HW212554   3.440   3.624   2.894
 4170SOL     OW12555   2.584   2.419   3.564
 4170SOL    HW112556   2.628   2.486   3.624
 4170SOL    HW212557   2.603   2.326   3.597
 4171SOL     OW12558   3.345   3.015   3.504
 4171SOL    HW112559   3.328   3.039   3.599
 4171SOL    HW212560   3.442   3.025   3.483
 4172SOL     OW12561   3.528   2.740   3.115
 4172SOL    HW112562   3.523   2.649   3.073
 4172SOL    HW212563   3.516   2.809   3.044
 4173SOL     OW12564   3.081   2.179   2.322
 4173SOL    HW112565   3.145   2.102   2.312
 4173SOL    HW212566   3.108   2.234   2.401
 4174SOL     OW12567   2.448   2.598   2.531
 4174SOL    HW112568   2.490   2.689   2.520
 4174SOL    HW212569   2.379   2.585   2.460
 4175SOL     OW12570   3.613   2.226   3.514
 4175SOL    HW112571   3.603   2.243   3.416
 4175SOL    HW212572   3.539   2.167   3.546
 4176SOL     OW12573   3.614   2.782   3.370
 4176SOL    HW112574   3.607   2.879   3.394
 4176SOL    HW212575   3.593   2.771   3.272
 4177SOL     OW12576   2.728   3.226   1.905
 4177SOL    HW112577   2.687   3.250   1.993
 4177SOL    HW212578   2.744   3.309   1.852
 4178SOL     OW12579   2.527   3.648   2.807
 4178SOL    HW112580   2.504   3.742   2.783
 4178SOL    HW212581   2.625   3.633   2.794
 4179SOL     OW12582   2.731   2.832   2.718
 4179SOL    HW112583   2.782   2.754   2.754
 4179SOL    HW212584   2.688   2.882   2.793
 4180SOL     OW12585   2.940   2.852   1.946
 4180SOL    HW112586   2.912   2.905   1.866
 4180SOL    HW212587   3.017   2.793   1.922
 4181SOL     OW12588   3.711   3.417   2.707
 4181SOL    HW112589   3.632   3.407   2.646
 4181SOL    HW212590   3.701   3.355   2.785
 4182SOL     OW12591   2.092   3.152   3.722
 4182SOL    HW112592   2.020   3.091   3.688
 4182SOL    HW212593   2.066   3.187   3.812
 4183SOL     OW12594   1.949   3.092   2.526
 4183SOL    HW112595   1.951   3.046   2.614
 4183SOL    HW212596   2.017   3.052   2.465
 4184SOL     OW12597   2.540   3.231   3.467
 4184SOL    HW112598   2.458   3.192   3.509
 4184SOL    HW212599   2.532   3.331   3.465
 4185SOL     OW12600   3.666   2.044   3.096
 4185SOL    HW112601   3.682   1.949   3.120
 4185SOL    HW212602   3.679   2.056   2.997
 4186SOL     OW12603   2.292   2.290   2.389
 4186SOL    HW112604   2.326   2.220   2.326
 4186SOL    HW212605   2.238   2.247   2.461
 4187SOL     OW12606   3.557   3.343   2.950
 4187SOL    HW112607   3.474   3.326   2.897
 4187SOL    HW212608   3.560   3.279   3.027
 4188SOL     OW12609   2.197   2.418   3.151
 4188SOL    HW112610   2.253   2.361   3.211
 4188SOL    HW212611   2.212   2.392   3.056
 4189SOL     OW12612   2.690   3.442   2.541
 4189SOL    HW112613   2.677   3.503   2.462
 4189SOL    HW212614   2.613   3.378   2.546
 4190SOL     OW12615   3.293   2.093   2.979
 4190SOL    HW112616   3.316   2.003   3.017
 4190SOL    HW212617   3.238   2.144   3.045
 4191SOL     OW12618   2.872   1.878   3.000
 4191SOL    HW112619   2.808   1.815   2.956
 4191SOL    HW212620   2.963   1.838   3.001
 4192SOL     OW12621   2.636   3.194   2.183
 4192SOL    HW112622   2.608   3.098   2.191
 4192SOL    HW212623   2.721   3.208   2.234
 4193SOL     OW12624   2.489   3.420   3.159
 4193SOL    HW112625   2.488   3.507   3.208
 4193SOL    HW212626   2.578   3.406   3.117
 4194SOL     OW12627   3.216   1.912   2.032
 4194SOL    HW112628   3.258   1.845   1.971
 4194SOL    HW212629   3.123   1.883   2.054
 4195SOL     OW12630   3.153   2.326   2.542
 4195SOL    HW112631   3.100   2.411   2.544
 4195SOL    HW212632   3.151   2.284   2.633
 4196SOL     OW12633   3.448   2.065   2.746
 4196SOL    HW112634   3.390   2.084   2.825
 4196SOL    HW212635   3.450   2.145   2.685
 4197SOL     OW12636   1.905   2.926   2.170
 4197SOL    HW112637   2.003   2.926   2.150
 4197SOL    HW212638   1.875   2.833   2.192
 4198SOL     OW12639   2.746   3.524   2.203
 4198SOL    HW112640   2.671   3.503   2.140
 4198SOL    HW212641   2.720   3.602   2.260
 4199SOL     OW12642   2.084   2.481   3.852
 4199SOL    HW112643   1.992   2.481   3.892
 4199SOL    HW212644   2.077   2.459   3.754
 4200SOL     OW12645   2.084   2.145   4.719
 4200SOL    HW112646   2.117   2.110   4.807
 4200SOL    HW212647   1.991   2.112   4.702
 4201SOL     OW12648   1.863   2.248   4.358
 4201SOL    HW112649   1.779   2.278   4.403
 4201SOL    HW212650   1.844   2.165   4.306
 4202SOL     OW12651   2.431   3.159   4.909
 4202SOL    HW112652   2.341   3.156   4.866
 4202SOL    HW212653   2.448   3.252   4.943
 4203SOL     OW12654   3.426   3.374   4.433
 4203SOL    HW112655   3.384   3.349   4.520
 4203SOL    HW212656   3.356   3.381   4.362
 4204SOL     OW12657   2.995   2.565   4.419
 4204SOL    HW112658   3.047   2.649   4.402
 4204SOL    HW212659   2.945   2.573   4.505
 4205SOL     OW12660   3.631   2.461   3.947
 4205SOL    HW112661   3.608   2.457   3.850
 4205SOL    HW212662   3.594   2.381   3.994
 4206SOL     OW12663   2.606   3.003   4.765
 4206SOL    HW112664   2.538   3.038   4.830
 4206SOL    HW212665   2.650   3.079   4.719
 4207SOL     OW12666   2.736   2.626   5.545
 4207SOL    HW112667   2.724   2.695   5.617
 4207SOL    HW212668   2.760   2.672   5.459
 4208SOL     OW12669   2.546   2.861   4.373
 4208SOL    HW112670   2.617   2.851   4.443
 4208SOL    HW212671   2.471   2.917   4.409
 4209SOL     OW12672   2.573   3.015   5.542
 4209SOL    HW112673   2.626   3.094   5.575
 4209SOL    HW212674   2.488   3.047   5.500
 4210SOL     OW12675   2.188   3.285   4.790
 4210SOL    HW112676   2.112   3.240   4.744
 4210SOL    HW212677   2.241   3.338   4.723
 4211SOL     OW12678   3.320   3.364   5.082
 4211SOL    HW112679   3.377   3.445   5.089
 4211SOL    HW212680   3.249   3.366   5.153
 4212SOL     OW12681   2.312   2.256   5.203
 4212SOL    HW112682   2.393   2.198   5.210
 4212SOL    HW212683   2.230   2.201   5.221
 4213SOL     OW12684   3.473   2.308   4.469
 4213SOL    HW112685   3.398   2.327   4.405
 4213SOL    HW212686   3.481   2.383   4.534
 4214SOL     OW12687   2.082   3.576   4.199
 4214SOL    HW112688   2.100   3.655   4.257
 4214SOL    HW212689   2.156   3.565   4.133
 4215SOL     OW12690   2.999   3.202   5.422
 4215SOL    HW112691   3.046   3.200   5.510
 4215SOL    HW212692   2.943   3.120   5.412
 4216SOL     OW12693   2.096   3.308   4.268
 4216SOL    HW112694   2.077   3.406   4.265
 4216SOL    HW212695   2.034   3.264   4.333
 4217SOL     OW12696   2.132   2.952   4.625
 4217SOL    HW112697   2.127   2.858   4.657
 4217SOL    HW212698   2.069   3.009   4.678
 4218SOL     OW12699   2.461   3.659   5.150
 4218SOL    HW112700   2.378   3.635   5.200
 4218SOL    HW212701   2.492   3.749   5.179
 4219SOL     OW12702   2.441   2.844   3.870
 4219SOL    HW112703   2.483   2.895   3.795
 4219SOL    HW212704   2.481   2.874   3.957
 4220SOL     OW12705   3.458   1.987   5.193
 4220SOL    HW112706   3.478   2.066   5.136
 4220SOL    HW212707   3.444   2.016   5.288
 4221SOL     OW12708   1.976   2.522   4.288
 4221SOL    HW112709   1.947   2.428   4.305
 4221SOL    HW212710   1.970   2.574   4.373
 4222SOL     OW12711   3.714   3.628   4.075
 4222SOL    HW112712   3.787   3.598   4.134
 4222SOL    HW212713   3.732   3.722   4.044
 4223SOL     OW12714   1.853   3.445   3.851
 4223SOL    HW112715   1.857   3.351   3.885
 4223SOL    HW212716   1.857   3.508   3.928
 4224SOL     OW12717   3.553   2.783   4.371
 4224SOL    HW112718   3.637   2.732   4.353
 4224SOL    HW212719   3.529   2.837   4.290
 4225SOL     OW12720   3.514   2.966   4.156
 4225SOL    HW112721   3.603   2.963   4.110
 4225SOL    HW212722   3.518   3.033   4.230
 4226SOL     OW12723   1.986   2.606   5.309
 4226SOL    HW112724   2.082   2.633   5.310
 4226SOL    HW212725   1.928   2.688   5.311
 4227SOL     OW12726   2.475   3.255   4.453
 4227SOL    HW112727   2.429   3.167   4.466
 4227SOL    HW212728   2.461   3.287   4.359
 4228SOL     OW12729   3.150   3.097   5.146
 4228SOL    HW112730   3.177   3.026   5.080
 4228SOL    HW212731   3.210   3.093   5.226
 4229SOL     OW12732   2.679   1.871   4.232
 4229SOL    HW112733   2.725   1.957   4.210
 4229SOL    HW212734   2.581   1.887   4.240
 4230SOL     OW12735   2.053   2.824   5.001
 4230SOL    HW112736   2.141   2.780   4.986
 4230SOL    HW212737   1.983   2.776   4.947
 4231SOL     OW12738   3.394   2.861   3.929
 4231SOL    HW112739   3.320   2.801   3.959
 4231SOL    HW212740   3.441   2.899   4.009
 4232SOL     OW12741   3.043   3.673   5.346
 4232SOL    HW112742   3.052   3.742   5.274
 4232SOL    HW212743   3.064   3.582   5.309
 4233SOL     OW12744   2.203   2.111   5.556
 4233SOL    HW112745   2.252   2.197   5.571
 4233SOL    HW212746   2.106   2.124   5.575
 4234SOL     OW12747   3.326   3.282   4.671
 4234SOL    HW112748   3.260   3.301   4.743
 4234SOL    HW212749   3.318   3.186   4.643
 4235SOL     OW12750   3.509   3.615   4.312
 4235SOL    HW112751   3.493   3.590   4.217
 4235SOL    HW212752   3.488   3.537   4.371
 4236SOL     OW12753   2.456   2.581   3.997
 4236SOL    HW112754   2.460   2.666   3.945
 4236SOL    HW212755   2.387   2.589   4.069
 4237SOL     OW12756   3.139   2.221   4.657
 4237SOL    HW112757   3.046   2.186   4.664
 4237SOL    HW212758   3.198   2.169   4.719
 4238SOL     OW12759   3.449   3.545   4.049
 4238SOL    HW112760   3.546   3.568   4.046
 4238SOL    HW212761   3.415   3.528   3.957
 4239SOL     OW12762   2.652   2.475   5.173
 4239SOL    HW112763   2.627   2.451   5.267
 4239SOL    HW212764   2.614   2.407   5.111
 4240SOL     OW12765   3.253   2.332   5.403
 4240SOL    HW112766   3.254   2.381   5.490
 4240SOL    HW212767   3.314   2.253   5.410
 4241SOL     OW12768   2.815   2.747   5.307
 4241SOL    HW112769   2.873   2.675   5.269
 4241SOL    HW212770   2.761   2.788   5.234
 4242SOL     OW12771   2.856   2.268   4.953
 4242SOL    HW112772   2.766   2.290   4.991
 4242SOL    HW212773   2.845   2.219   4.867
 4243SOL     OW12774   2.912   2.560   4.150
 4243SOL    HW112775   2.934   2.555   4.247
 4243SOL    HW212776   2.826   2.512   4.132
 4244SOL     OW12777   1.951   2.689   4.504
 4244SOL    HW112778   2.036   2.677   4.554
 4244SOL    HW212779   1.901   2.768   4.540
 4245SOL     OW12780   1.990   3.734   5.312
 4245SOL    HW112781   1.995   3.706   5.408
 4245SOL    HW212782   1.905   3.700   5.271
 4246SOL     OW12783   2.758   2.214   3.921
 4246SOL    HW112784   2.798   2.282   3.859
 4246SOL    HW212785   2.768   2.123   3.881
 4247SOL     OW12786   3.563   2.435   5.550
 4247SOL    HW112787   3.527   2.514   5.500
 4247SOL    HW212788   3.593   2.365   5.485
 4248SOL     OW12789   3.244   3.003   4.260
 4248SOL    HW112790   3.327   2.987   4.208
 4248SOL    HW212791   3.189   3.073   4.215
 4249SOL     OW12792   2.409   2.035   4.624
 4249SOL    HW112793   2.413   2.065   4.720
 4249SOL    HW212794   2.412   2.115   4.564
 4250SOL     OW12795   2.867   3.304   4.199
 4250SOL    HW112796   2.839   3.384   4.146
 4250SOL    HW212797   2.843   3.318   4.296
 4251SOL     OW12798   2.218   3.676   4.595
 4251SOL    HW112799   2.262   3.586   4.601
 4251SOL    HW212800   2.285   3.747   4.613
 4252SOL     OW12801   3.660   2.919   4.596
 4252SOL    HW112802   3.610   2.895   4.513
 4252SOL    HW212803   3.598   2.924   4.673
 4253SOL     OW12804   3.088   3.398   5.238
 4253SOL    HW112805   3.076   3.324   5.304
 4253SOL    HW212806   3.021   3.389   5.165
 4254SOL     OW12807   2.181   2.820   3.980
 4254SOL    HW112808   2.269   2.841   3.938
 4254SOL    HW212809   2.146   2.735   3.940
 4255SOL     OW12810   3.345   2.612   4.447
 4255SOL    HW112811   3.339   2.567   4.536
 4255SOL    HW212812   3.426   2.671   4.445
 4256SOL     OW12813   2.330   3.127   5.455
 4256SOL    HW112814   2.304   3.133   5.359
 4256SOL    HW212815   2.248   3.124   5.512
 4257SOL     OW12816   2.983   3.633   3.945
 4257SOL    HW112817   2.916   3.603   4.012
 4257SOL    HW212818   2.970   3.582   3.860
 4258SOL     OW12819   2.064   2.137   5.227
 4258SOL    HW112820   1.982   2.194   5.223
 4258SOL    HW212821   2.042   2.050   5.271
 4259SOL     OW12822   3.487   3.226   3.828
 4259SOL    HW112823   3.456   3.321   3.839
 4259SOL    HW212824   3.409   3.168   3.804
 4260SOL     OW12825   2.322   3.597   4.048
 4260SOL    HW112826   2.361   3.660   4.115
 4260SOL    HW212827   2.392   3.573   3.981
 4261SOL     OW12828   3.263   1.966   4.160
 4261SOL    HW112829   3.251   1.941   4.064
 4261SOL    HW212830   3.361   1.976   4.180
 4262SOL     OW12831   2.121   3.654   4.950
 4262SOL    HW112832   2.171   3.581   4.996
 4262SOL    HW212833   2.101   3.626   4.856
 4263SOL     OW12834   2.798   3.564   4.621
 4263SOL    HW112835   2.881   3.518   4.653
 4263SOL    HW212836   2.756   3.512   4.547
 4264SOL     OW12837   2.258   2.550   4.199
 4264SOL    HW112838   2.277   2.453   4.213
 4264SOL    HW212839   2.161   2.567   4.216
 4265SOL     OW12840   3.390   2.085   5.452
 4265SOL    HW112841   3.401   2.106   5.549
 4265SOL    HW212842   3.318   2.017   5.440
 4266SOL     OW12843   2.503   1.979   3.826
 4266SOL    HW112844   2.571   1.910   3.848
 4266SOL    HW212845   2.447   1.947   3.749
 4267SOL     OW12846   2.625   2.138   5.481
 4267SOL    HW112847   2.710   2.085   5.475
 4267SOL    HW212848   2.574   2.110   5.562
 4268SOL     OW12849   2.736   3.377   4.917
 4268SOL    HW112850   2.717   3.340   4.825
 4268SOL    HW212851   2.809   3.323   4.959
 4269SOL     OW12852   3.202   2.451   5.159
 4269SOL    HW112853   3.232   2.416   5.248
 4269SOL    HW212854   3.237   2.543   5.146
 4270SOL     OW12855   2.682   3.251   4.665
 4270SOL    HW112856   2.772   3.239   4.623
 4270SOL    HW212857   2.612   3.257   4.593
 4271SOL     OW12858   2.789   2.369   4.622
 4271SOL    HW112859   2.762   2.362   4.526
 4271SOL    HW212860   2.821   2.281   4.654
 4272SOL     OW12861   2.409   1.926   4.218
 4272SOL    HW112862   2.327   1.924   4.276
 4272SOL    HW212863   2.406   2.007   4.159
 4273SOL     OW12864   3.288   3.057   3.766
 4273SOL    HW112865   3.320   2.980   3.821
 4273SOL    HW212866   3.200   3.089   3.802
 4274SOL     OW12867   2.152   1.910   3.910
 4274SOL    HW112868   2.205   1.982   3.864
 4274SOL    HW212869   2.215   1.845   3.953
 4275SOL     OW12870   2.808   2.113   4.180
 4275SOL    HW112871   2.776   2.154   4.095
 4275SOL    HW212872   2.907   2.126   4.189
 4276SOL     OW12873   2.941   2.545   5.179
 4276SOL    HW112874   2.866   2.479   5.185
 4276SOL    HW212875   3.029   2.496   5.175
 4277SOL     OW12876   3.082   3.431   4.518
 4277SOL    HW112877   3.096   3.501   4.448
 4277SOL    HW212878   3.153   3.439   4.588
 4278SOL     OW12879   2.331   3.015   4.451
 4278SOL    HW112880   2.264   2.994   4.523
 4278SOL    HW212881   2.289   3.002   4.362
 4279SOL     OW12882   3.124   3.654   4.333
 4279SOL    HW112883   3.177   3.717   4.277
 4279SOL    HW212884   3.052   3.705   4.381
 4280SOL     OW12885   2.883   2.397   3.754
 4280SOL    HW112886   2.838   2.483   3.730
 4280SOL    HW212887   2.953   2.415   3.823
 4281SOL     OW12888   1.948   2.419   5.115
 4281SOL    HW112889   2.043   2.415   5.083
 4281SOL    HW212890   1.940   2.490   5.185
 4282SOL     OW12891   2.420   2.086   4.896
 4282SOL    HW112892   2.470   2.010   4.938
 4282SOL    HW212893   2.325   2.084   4.925
 4283SOL     OW12894   2.728   2.320   4.360
 4283SOL    HW112895   2.680   2.382   4.298
 4283SOL    HW212896   2.756   2.238   4.311
 4284SOL     OW12897   2.879   1.915   4.470
 4284SOL    HW112898   2.818   1.915   4.390
 4284SOL    HW212899   2.854   1.839   4.530
 4285SOL     OW12900   3.307   3.023   4.582
 4285SOL    HW112901   3.231   2.958   4.586
 4285SOL    HW212902   3.337   3.034   4.487
 4286SOL     OW12903   3.330   2.470   4.694
 4286SOL    HW112904   3.268   2.392   4.694
 4286SOL    HW212905   3.391   2.464   4.773
 4287SOL     OW12906   3.703   2.671   4.105
 4287SOL    HW112907   3.762   2.623   4.170
 4287SOL    HW212908   3.674   2.607   4.033
 4288SOL     OW12909   2.355   3.228   3.918
 4288SOL    HW112910   2.264   3.219   3.959
 4288SOL    HW212911   2.348   3.220   3.818
 4289SOL     OW12912   3.536   3.129   4.367
 4289SOL    HW112913   3.636   3.126   4.379
 4289SOL    HW212914   3.503   3.220   4.388
 4290SOL     OW12915   3.252   2.434   3.796
 4290SOL    HW112916   3.190   2.411   3.870
 4290SOL    HW212917   3.346   2.409   3.821
 4291SOL     OW12918   2.390   2.126   4.034
 4291SOL    HW112919   2.438   2.074   3.963
 4291SOL    HW212920   2.361   2.214   3.996
 4292SOL     OW12921   3.615   3.103   5.285
 4292SOL    HW112922   3.704   3.060   5.272
 4292SOL    HW212923   3.626   3.196   5.319
 4293SOL     OW12924   2.915   3.212   5.060
 4293SOL    HW112925   2.834   3.182   5.110
 4293SOL    HW212926   2.997   3.172   5.102
 4294SOL     OW12927   3.475   3.491   5.381
 4294SOL    HW112928   3.460   3.527   5.288
 4294SOL    HW212929   3.561   3.440   5.383
 4295SOL     OW12930   2.999   3.081   4.829
 4295SOL    HW112931   2.939   3.115   4.901
 4295SOL    HW212932   2.965   3.111   4.740
 4296SOL     OW12933   3.486   2.959   4.803
 4296SOL    HW112934   3.482   3.024   4.879
 4296SOL    HW212935   3.410   2.975   4.741
 4297SOL     OW12936   2.785   1.956   5.116
 4297SOL    HW112937   2.807   1.933   5.021
 4297SOL    HW212938   2.865   2.000   5.158
 4298SOL     OW12939   2.841   2.977   5.445
 4298SOL    HW112940   2.747   2.996   5.472
 4298SOL    HW212941   2.844   2.894   5.389
 4299SOL     OW12942   2.575   2.921   4.097
 4299SOL    HW112943   2.557   2.904   4.194
 4299SOL    HW212944   2.654   2.866   4.068
 4300SOL     OW12945   2.284   2.677   4.978
 4300SOL    HW112946   2.357   2.690   5.045
 4300SOL    HW212947   2.245   2.585   4.988
 4301SOL     OW12948   3.124   2.238   5.005
 4301SOL    HW112949   3.161   2.317   5.053
 4301SOL    HW212950   3.029   2.256   4.979
 4302SOL     OW12951   1.936   3.434   5.077
 4302SOL    HW112952   1.900   3.504   5.015
 4302SOL    HW212953   2.036   3.432   5.071
 4303SOL     OW12954   2.206   2.981   4.210
 4303SOL    HW112955   2.210   3.063   4.153
 4303SOL    HW212956   2.202   2.900   4.152
 4304SOL     OW12957   2.410   2.405   4.586
 4304SOL    HW112958   2.424   2.464   4.507
 4304SOL    HW212959   2.479   2.425   4.655
 4305SOL     OW12960   3.114   3.216   4.130
 4305SOL    HW112961   3.174   3.291   4.158
 4305SOL    HW212962   3.021   3.235   4.158
 4306SOL     OW12963   3.149   3.324   4.871
 4306SOL    HW112964   3.208   3.329   4.952
 4306SOL    HW212965   3.095   3.240   4.875
 4307SOL     OW12966   3.439   2.482   4.207
 4307SOL    HW112967   3.388   2.531   4.278
 4307SOL    HW212968   3.487   2.549   4.149
 4308SOL     OW12969   2.210   3.392   5.033
 4308SOL    HW112970   2.194   3.347   4.946
 4308SOL    HW212971   2.308   3.406   5.046
 4309SOL     OW12972   2.277   2.608   5.324
 4309SOL    HW112973   2.344   2.654   5.265
 4309SOL    HW212974   2.310   2.517   5.347
 4310SOL     OW12975   3.470   2.647   5.408
 4310SOL    HW112976   3.379   2.688   5.406
 4310SOL    HW212977   3.527   2.688   5.337
 4311SOL     OW12978   2.859   1.996   5.474
 4311SOL    HW112979   2.917   2.076   5.458
 4311SOL    HW212980   2.908   1.913   5.447
 4312SOL     OW12981   2.354   1.898   5.475
 4312SOL    HW112982   2.310   1.840   5.406
 4312SOL    HW212983   2.297   1.978   5.493
 4313SOL     OW12984   2.446   2.733   4.759
 4313SOL    HW112985   2.482   2.827   4.755
 4313SOL    HW212986   2.386   2.723   4.838
 4314SOL     OW12987   3.214   2.719   4.748
 4314SOL    HW112988   3.123   2.711   4.707
 4314SOL    HW212989   3.263   2.632   4.740
 4315SOL     OW12990   3.060   2.388   3.989
 4315SOL    HW112991   3.072   2.305   4.044
 4315SOL    HW212992   3.016   2.459   4.044
 4316SOL     OW12993   2.159   2.058   4.971
 4316SOL    HW112994   2.123   2.095   5.056
 4316SOL    HW212995   2.143   1.960   4.967
 4317SOL     OW12996   1.915   3.172   4.999
 4317SOL    HW112997   1.946   3.111   5.072
 4317SOL    HW212998   1.917   3.266   5.032
 4318SOL     OW12999   2.586   2.493   4.779
 4318SOL    HW113000   2.663   2.473   4.718
 4318SOL    HW213001   2.551   2.584   4.760
 4319SOL     OW13002   3.598   2.823   5.580
 4319SOL    HW113003   3.555   2.754   5.521
 4319SOL    HW213004   3.538   2.842   5.658
 4320SOL     OW13005   2.168   1.923   4.352
 4320SOL    HW113006   2.144   2.018   4.370
 4320SOL    HW213007   2.179   1.874   4.439
 4321SOL     OW13008   3.489   2.242   4.086
 4321SOL    HW113009   3.515   2.169   4.149
 4321SOL    HW213010   3.460   2.323   4.139
 4322SOL     OW13011   2.886   2.617   4.682
 4322SOL    HW113012   2.881   2.639   4.779
 4322SOL    HW213013   2.859   2.522   4.667
 4323SOL     OW13014   2.843   3.425   5.442
 4323SOL    HW113015   2.826   3.472   5.355
 4323SOL    HW213016   2.891   3.339   5.423
 4324SOL     OW13017   3.717   3.365   5.328
 4324SOL    HW113018   3.736   3.392   5.233
 4324SOL    HW213019   3.800   3.377   5.382
 4325SOL     OW13020   2.215   2.780   5.529
 4325SOL    HW113021   2.295   2.802   5.585
 4325SOL    HW213022   2.240   2.715   5.458
 4326SOL     OW13023   3.390   2.130   3.854
 4326SOL    HW113024   3.320   2.063   3.879
 4326SOL    HW213025   3.426   2.172   3.937
 4327SOL     OW13026   3.149   2.684   3.754
 4327SOL    HW113027   3.190   2.593   3.764
 4327SOL    HW213028   3.175   2.722   3.665
 4328SOL     OW13029   2.931   3.200   4.578
 4328SOL    HW113030   2.935   3.122   4.516
 4328SOL    HW213031   2.991   3.272   4.544
 4329SOL     OW13032   2.173   2.668   4.667
 4329SOL    HW113033   2.270   2.694   4.661
 4329SOL    HW213034   2.165   2.574   4.699
 4330SOL     OW13035   2.189   2.389   4.735
 4330SOL    HW113036   2.150   2.298   4.725
 4330SOL    HW213037   2.270   2.398   4.677
 4331SOL     OW13038   2.996   2.235   5.416
 4331SOL    HW113039   2.943   2.292   5.479
 4331SOL    HW213040   3.088   2.272   5.407
 4332SOL     OW13041   3.024   2.065   5.200
 4332SOL    HW113042   3.009   2.127   5.277
 4332SOL    HW213043   3.066   2.115   5.124
 4333SOL     OW13044   1.862   3.173   3.923
 4333SOL    HW113045   1.774   3.189   3.879
 4333SOL    HW213046   1.866   3.079   3.957
 4334SOL     OW13047   1.956   3.645   4.668
 4334SOL    HW113048   1.919   3.564   4.622
 4334SOL    HW213049   2.049   3.662   4.636
 4335SOL     OW13050   2.356   3.438   4.628
 4335SOL    HW113051   2.425   3.504   4.655
 4335SOL    HW213052   2.396   3.371   4.566
 4336SOL     OW13053   2.836   2.656   4.948
 4336SOL    HW113054   2.897   2.632   5.024
 4336SOL    HW213055   2.747   2.613   4.962
 4337SOL     OW13056   1.899   2.414   4.841
 4337SOL    HW113057   1.981   2.401   4.786
 4337SOL    HW213058   1.924   2.416   4.938
 4338SOL     OW13059   2.055   2.385   5.454
 4338SOL    HW113060   2.107   2.331   5.388
 4338SOL    HW213061   2.015   2.465   5.409
 4339SOL     OW13062   3.242   2.797   5.379
 4339SOL    HW113063   3.265   2.894   5.380
 4339SOL    HW213064   3.239   2.765   5.284
 4340SOL     OW13065   2.679   2.434   4.085
 4340SOL    HW113066   2.688   2.354   4.025
 4340SOL    HW213067   2.601   2.489   4.055
 4341SOL     OW13068   3.505   2.465   4.905
 4341SOL    HW113069   3.488   2.406   4.984
 4341SOL    HW213070   3.596   2.448   4.869
 4342SOL     OW13071   2.102   3.409   5.450
 4342SOL    HW113072   2.080   3.483   5.513
 4342SOL    HW213073   2.108   3.323   5.500
 4343SOL     OW13074   2.570   2.309   4.977
 4343SOL    HW113075   2.512   2.232   4.953
 4343SOL    HW213076   2.567   2.377   4.904
 4344SOL     OW13077   2.782   3.543   5.196
 4344SOL    HW113078   2.756   3.497   5.111
 4344SOL    HW213079   2.782   3.642   5.181
 4345SOL     OW13080   2.321   2.357   3.909
 4345SOL    HW113081   2.385   2.429   3.935
 4345SOL    HW213082   2.230   2.397   3.896
 4346SOL     OW13083   2.004   2.999   5.199
 4346SOL    HW113084   2.006   2.955   5.289
 4346SOL    HW213085   2.024   2.932   5.128
 4347SOL     OW13086   3.178   2.906   4.943
 4347SOL    HW113087   3.205   2.838   4.875
 4347SOL    HW213088   3.110   2.968   4.903
 4348SOL     OW13089   3.178   2.718   4.025
 4348SOL    HW113090   3.101   2.691   4.083
 4348SOL    HW213091   3.153   2.705   3.929
 4349SOL     OW13092   3.642   3.592   4.881
 4349SOL    HW113093   3.703   3.626   4.809
 4349SOL    HW213094   3.611   3.500   4.856
 4350SOL     OW13095   3.103   3.595   4.829
 4350SOL    HW113096   3.189   3.624   4.786
 4350SOL    HW213097   3.109   3.498   4.853
 4351SOL     OW13098   1.948   3.127   4.734
 4351SOL    HW113099   1.933   3.142   4.832
 4351SOL    HW213100   1.876   3.068   4.698
 4352SOL     OW13101   2.543   3.535   5.460
 4352SOL    HW113102   2.480   3.613   5.455
 4352SOL    HW213103   2.616   3.547   5.393
 4353SOL     OW13104   3.582   2.012   4.223
 4353SOL    HW113105   3.657   2.002   4.158
 4353SOL    HW213106   3.564   1.924   4.268
 4354SOL     OW13107   3.257   3.435   4.215
 4354SOL    HW113108   3.324   3.470   4.149
 4354SOL    HW213109   3.202   3.511   4.248
 4355SOL     OW13110   2.007   3.649   5.570
 4355SOL    HW113111   1.950   3.581   5.615
 4355SOL    HW213112   2.057   3.702   5.638
 4356SOL     OW13113   3.144   2.790   4.390
 4356SOL    HW113114   3.218   2.725   4.406
 4356SOL    HW213115   3.178   2.867   4.336
 4357SOL     OW13116   2.666   3.141   5.150
 4357SOL    HW113117   2.636   3.184   5.235
 4357SOL    HW213118   2.596   3.155   5.080
 4358SOL     OW13119   3.479   3.591   5.111
 4358SOL    HW113120   3.536   3.591   5.029
 4358SOL    HW213121   3.464   3.684   5.143
 4359SOL     OW13122   3.704   2.031   4.688
 4359SOL    HW113123   3.738   1.940   4.665
 4359SOL    HW213124   3.613   2.043   4.648
 4360SOL     OW13125   2.117   2.175   4.439
 4360SOL    HW113126   2.029   2.213   4.412
 4360SOL    HW213127   2.121   2.168   4.539
 4361SOL     OW13128   2.685   2.871   5.102
 4361SOL    HW113129   2.736   2.856   5.017
 4361SOL    HW213130   2.682   2.970   5.121
 4362SOL     OW13131   2.782   2.771   4.014
 4362SOL    HW113132   2.846   2.807   3.945
 4362SOL    HW213133   2.827   2.699   4.066
 4363SOL     OW13134   3.356   3.505   3.794
 4363SOL    HW113135   3.274   3.459   3.760
 4363SOL    HW213136   3.425   3.506   3.722
 4364SOL     OW13137   2.228   3.165   5.211
 4364SOL    HW113138   2.218   3.246   5.152
 4364SOL    HW213139   2.148   3.106   5.200
 4365SOL     OW13140   3.475   3.146   5.008
 4365SOL    HW113141   3.538   3.127   5.084
 4365SOL    HW213142   3.410   3.216   5.037
 4366SOL     OW13143   2.923   2.968   4.439
 4366SOL    HW113144   2.847   2.918   4.478
 4366SOL    HW213145   2.992   2.904   4.405
 4367SOL     OW13146   2.884   2.101   4.691
 4367SOL    HW113147   2.881   2.057   4.601
 4367SOL    HW213148   2.882   2.031   4.762
 4368SOL     OW13149   2.470   3.357   4.197
 4368SOL    HW113150   2.514   3.294   4.133
 4368SOL    HW213151   2.385   3.391   4.155
 4369SOL     OW13152   3.593   2.256   5.105
 4369SOL    HW113153   3.666   2.324   5.105
 4369SOL    HW213154   3.619   2.181   5.044
 4370SOL     OW13155   2.109   3.209   4.023
 4370SOL    HW113156   2.014   3.201   3.992
 4370SOL    HW213157   2.111   3.250   4.114
 4371SOL     OW13158   1.977   2.897   5.452
 4371SOL    HW113159   1.895   2.869   5.503
 4371SOL    HW213160   2.057   2.851   5.491
 4372SOL     OW13161   2.545   2.056   5.224
 4372SOL    HW113162   2.632   2.032   5.180
 4372SOL    HW213163   2.563   2.090   5.316
 4373SOL     OW13164   1.943   2.190   3.753
 4373SOL    HW113165   1.852   2.167   3.721
 4373SOL    HW213166   1.976   2.272   3.705
 4374SOL     OW13167   3.285   2.718   5.119
 4374SOL    HW113168   3.230   2.782   5.065
 4374SOL    HW213169   3.379   2.719   5.085
 4375SOL     OW13170   1.925   2.017   4.026
 4375SOL    HW113171   1.909   2.102   3.975
 4375SOL    HW213172   2.013   1.979   4.000
 4376SOL     OW13173   3.062   3.165   3.865
 4376SOL    HW113174   2.971   3.124   3.862
 4376SOL    HW213175   3.087   3.183   3.961
 4377SOL     OW13176   2.485   2.692   5.158
 4377SOL    HW113177   2.543   2.773   5.143
 4377SOL    HW213178   2.543   2.611   5.167
 4378SOL     OW13179   3.347   3.650   4.711
 4378SOL    HW113180   3.369   3.712   4.636
 4378SOL    HW213181   3.432   3.616   4.751
 4379SOL     OW13182   2.584   2.420   5.427
 4379SOL    HW113183   2.628   2.487   5.486
 4379SOL    HW213184   2.604   2.328   5.460
 4380SOL     OW13185   3.336   3.058   5.358
 4380SOL    HW113186   3.320   3.071   5.456
 4380SOL    HW213187   3.432   3.077   5.337
 4381SOL     OW13188   2.233   3.600   5.291
 4381SOL    HW113189   2.149   3.652   5.276
 4381SOL    HW213190   2.211   3.512   5.333
 4382SOL     OW13191   3.528   2.740   4.980
 4382SOL    HW113192   3.523   2.649   4.939
 4382SOL    HW213193   3.515   2.809   4.909
 4383SOL     OW13194   3.081   2.178   4.184
 4383SOL    HW113195   3.145   2.102   4.174
 4383SOL    HW213196   3.108   2.234   4.263
 4384SOL     OW13197   2.448   2.599   4.393
 4384SOL    HW113198   2.490   2.689   4.382
 4384SOL    HW213199   2.379   2.585   4.322
 4385SOL     OW13200   3.613   2.227   5.376
 4385SOL    HW113201   3.603   2.243   5.278
 4385SOL    HW213202   3.539   2.167   5.408
 4386SOL     OW13203   3.614   2.794   5.233
 4386SOL    HW113204   3.603   2.891   5.255
 4386SOL    HW213205   3.593   2.779   5.137
 4387SOL     OW13206   2.527   3.647   4.665
 4387SOL    HW113207   2.503   3.742   4.644
 4387SOL    HW213208   2.625   3.634   4.655
 4388SOL     OW13209   2.731   2.833   4.580
 4388SOL    HW113210   2.782   2.754   4.617
 4388SOL    HW213211   2.689   2.883   4.656
 4389SOL     OW13212   2.943   2.853   3.816
 4389SOL    HW113213   2.902   2.894   3.735
 4389SOL    HW213214   3.020   2.795   3.789
 4390SOL     OW13215   3.709   3.418   4.571
 4390SOL    HW113216   3.632   3.406   4.508
 4390SOL    HW213217   3.704   3.348   4.643
 4391SOL     OW13218   2.093   3.161   5.580
 4391SOL    HW113219   2.028   3.093   5.545
 4391SOL    HW213220   2.077   3.174   5.678
 4392SOL     OW13221   1.948   3.092   4.388
 4392SOL    HW113222   1.953   3.045   4.476
 4392SOL    HW213223   2.016   3.053   4.325
 4393SOL     OW13224   2.544   3.271   5.357
 4393SOL    HW113225   2.464   3.221   5.389
 4393SOL    HW213226   2.543   3.364   5.394
 4394SOL     OW13227   3.666   2.044   4.958
 4394SOL    HW113228   3.682   1.949   4.982
 4394SOL    HW213229   3.679   2.056   4.859
 4395SOL     OW13230   2.292   2.290   4.251
 4395SOL    HW113231   2.326   2.220   4.188
 4395SOL    HW213232   2.238   2.246   4.323
 4396SOL     OW13233   3.555   3.345   4.818
 4396SOL    HW113234   3.474   3.327   4.762
 4396SOL    HW213235   3.564   3.274   4.888
 4397SOL     OW13236   2.197   2.418   5.013
 4397SOL    HW113237   2.254   2.361   5.073
 4397SOL    HW213238   2.212   2.392   4.918
 4398SOL     OW13239   2.691   3.441   4.404
 4398SOL    HW113240   2.672   3.504   4.329
 4398SOL    HW213241   2.615   3.376   4.412
 4399SOL     OW13242   3.292   2.093   4.841
 4399SOL    HW113243   3.315   2.003   4.879
 4399SOL    HW213244   3.238   2.144   4.908
 4400SOL     OW13245   2.872   1.878   4.862
 4400SOL    HW113246   2.808   1.815   4.817
 4400SOL    HW213247   2.963   1.838   4.863
 4401SOL     OW13248   2.644   3.198   4.052
 4401SOL    HW113249   2.606   3.106   4.052
 4401SOL    HW213250   2.731   3.199   4.103
 4402SOL     OW13251   2.485   3.421   5.014
 4402SOL    HW113252   2.483   3.508   5.063
 4402SOL    HW213253   2.576   3.408   4.973
 4403SOL     OW13254   3.216   1.912   3.894
 4403SOL    HW113255   3.258   1.845   3.833
 4403SOL    HW213256   3.123   1.883   3.916
 4404SOL     OW13257   3.153   2.326   4.404
 4404SOL    HW113258   3.100   2.411   4.406
 4404SOL    HW213259   3.151   2.284   4.495
 4405SOL     OW13260   3.448   2.065   4.608
 4405SOL    HW113261   3.390   2.085   4.687
 4405SOL    HW213262   3.450   2.145   4.547
 4406SOL     OW13263   1.905   2.924   4.033
 4406SOL    HW113264   2.003   2.924   4.012
 4406SOL    HW213265   1.875   2.831   4.055
 4407SOL     OW13266   2.754   3.519   4.073
 4407SOL    HW113267   2.677   3.460   4.048
 4407SOL    HW213268   2.720   3.597   4.126
 4408SOL     OW13269   2.083   2.481   5.714
 4408SOL    HW113270   1.992   2.481   5.754
 4408SOL    HW213271   2.077   2.459   5.616
 4409SOL     OW13272   2.083   2.149   6.582
 4409SOL    HW113273   2.118   2.110   6.668
 4409SOL    HW213274   1.991   2.113   6.566
 4410SOL     OW13275   1.862   2.248   6.221
 4410SOL    HW113276   1.778   2.279   6.265
 4410SOL    HW213277   1.843   2.165   6.169
 4411SOL     OW13278   2.420   3.146   6.758
 4411SOL    HW113279   2.332   3.163   6.714
 4411SOL    HW213280   2.448   3.229   6.806
 4412SOL     OW13281   3.426   3.375   6.294
 4412SOL    HW113282   3.381   3.352   6.380
 4412SOL    HW213283   3.357   3.383   6.222
 4413SOL     OW13284   2.994   2.565   6.281
 4413SOL    HW113285   3.046   2.649   6.266
 4413SOL    HW213286   2.943   2.572   6.367
 4414SOL     OW13287   3.632   2.461   5.809
 4414SOL    HW113288   3.608   2.457   5.712
 4414SOL    HW213289   3.594   2.382   5.856
 4415SOL     OW13290   2.618   3.006   6.629
 4415SOL    HW113291   2.545   3.032   6.692
 4415SOL    HW213292   2.651   3.087   6.580
 4416SOL     OW13293   2.546   2.861   6.235
 4416SOL    HW113294   2.616   2.850   6.305
 4416SOL    HW213295   2.471   2.917   6.271
 4417SOL     OW13296   2.192   3.273   6.644
 4417SOL    HW113297   2.111   3.235   6.601
 4417SOL    HW213298   2.240   3.332   6.579
 4418SOL     OW13299   3.473   2.309   6.330
 4418SOL    HW113300   3.398   2.326   6.266
 4418SOL    HW213301   3.475   2.382   6.399
 4419SOL     OW13302   2.084   3.576   6.057
 4419SOL    HW113303   2.102   3.655   6.116
 4419SOL    HW213304   2.159   3.566   5.992
 4420SOL     OW13305   2.096   3.305   6.122
 4420SOL    HW113306   2.079   3.404   6.122
 4420SOL    HW213307   2.035   3.261   6.189
 4421SOL     OW13308   2.130   2.953   6.489
 4421SOL    HW113309   2.126   2.859   6.523
 4421SOL    HW213310   2.069   3.011   6.543
 4422SOL     OW13311   2.472   3.667   6.988
 4422SOL    HW113312   2.383   3.640   0.025
 4422SOL    HW213313   2.496   3.758   0.021
 4423SOL     OW13314   2.444   2.849   5.727
 4423SOL    HW113315   2.491   2.896   5.652
 4423SOL    HW213316   2.484   2.877   5.814
 4424SOL     OW13317   1.976   2.523   6.150
 4424SOL    HW113318   1.946   2.429   6.166
 4424SOL    HW213319   1.970   2.575   6.235
 4425SOL     OW13320   3.708   3.618   5.919
 4425SOL    HW113321   3.777   3.587   5.983
 4425SOL    HW213322   3.724   3.713   5.895
 4426SOL     OW13323   1.891   3.452   5.709
 4426SOL    HW113324   1.875   3.356   5.728
 4426SOL    HW213325   1.871   3.506   5.791
 4427SOL     OW13326   3.553   2.783   6.231
 4427SOL    HW113327   3.637   2.732   6.214
 4427SOL    HW213328   3.529   2.836   6.151
 4428SOL     OW13329   3.514   2.967   6.018
 4428SOL    HW113330   3.604   2.964   5.972
 4428SOL    HW213331   3.517   3.034   6.092
 4429SOL     OW13332   2.473   3.252   6.319
 4429SOL    HW113333   2.427   3.164   6.332
 4429SOL    HW213334   2.460   3.283   6.225
 4430SOL     OW13335   2.679   1.871   6.095
 4430SOL    HW113336   2.725   1.957   6.072
 4430SOL    HW213337   2.581   1.887   6.102
 4431SOL     OW13338   2.056   2.837   6.842
 4431SOL    HW113339   2.138   2.781   6.827
 4431SOL    HW213340   1.974   2.783   6.821
 4432SOL     OW13341   3.394   2.862   5.790
 4432SOL    HW113342   3.320   2.802   5.820
 4432SOL    HW213343   3.441   2.900   5.870
 4433SOL     OW13344   3.314   3.285   6.531
 4433SOL    HW113345   3.256   3.299   6.612
 4433SOL    HW213346   3.311   3.189   6.504
 4434SOL     OW13347   3.511   3.612   6.161
 4434SOL    HW113348   3.494   3.582   6.068
 4434SOL    HW213349   3.492   3.537   6.225
 4435SOL     OW13350   2.457   2.581   5.859
 4435SOL    HW113351   2.462   2.666   5.806
 4435SOL    HW213352   2.387   2.590   5.930
 4436SOL     OW13353   3.137   2.218   6.517
 4436SOL    HW113354   3.043   2.185   6.525
 4436SOL    HW213355   3.195   2.168   6.581
 4437SOL     OW13356   3.445   3.534   5.894
 4437SOL    HW113357   3.541   3.562   5.891
 4437SOL    HW213358   3.412   3.517   5.801
 4438SOL     OW13359   2.656   2.471   0.046
 4438SOL    HW113360   2.593   2.514   0.112
 4438SOL    HW213361   2.603   2.415   6.982
 4439SOL     OW13362   2.868   2.255   6.794
 4439SOL    HW113363   2.807   2.309   6.852
 4439SOL    HW213364   2.814   2.209   6.724
 4440SOL     OW13365   2.912   2.561   6.011
 4440SOL    HW113366   2.934   2.556   6.108
 4440SOL    HW213367   2.826   2.513   5.994
 4441SOL     OW13368   1.952   2.688   6.367
 4441SOL    HW113369   2.037   2.677   6.417
 4441SOL    HW213370   1.902   2.767   6.402
 4442SOL     OW13371   2.005   3.692   0.137
 4442SOL    HW113372   1.947   3.652   0.209
 4442SOL    HW213373   1.948   3.713   0.057
 4443SOL     OW13374   2.758   2.215   5.783
 4443SOL    HW113375   2.798   2.282   5.721
 4443SOL    HW213376   2.767   2.123   5.743
 4444SOL     OW13377   3.241   3.005   6.119
 4444SOL    HW113378   3.326   2.989   6.069
 4444SOL    HW213379   3.185   3.072   6.071
 4445SOL     OW13380   2.408   2.035   6.485
 4445SOL    HW113381   2.414   2.066   6.580
 4445SOL    HW213382   2.412   2.113   6.423
 4446SOL     OW13383   2.857   3.305   6.050
 4446SOL    HW113384   2.825   3.385   5.999
 4446SOL    HW213385   2.841   3.318   6.148
 4447SOL     OW13386   2.218   3.677   6.456
 4447SOL    HW113387   2.262   3.587   6.463
 4447SOL    HW213388   2.285   3.748   6.474
 4448SOL     OW13389   3.663   2.918   6.453
 4448SOL    HW113390   3.613   2.894   6.370
 4448SOL    HW213391   3.601   2.919   6.531
 4449SOL     OW13392   2.184   2.821   5.840
 4449SOL    HW113393   2.271   2.841   5.797
 4449SOL    HW213394   2.147   2.736   5.802
 4450SOL     OW13395   3.344   2.612   6.307
 4450SOL    HW113396   3.337   2.565   6.395
 4450SOL    HW213397   3.425   2.670   6.306
 4451SOL     OW13398   2.984   3.638   5.812
 4451SOL    HW113399   2.904   3.600   5.861
 4451SOL    HW213400   3.013   3.574   5.742
 4452SOL     OW13401   3.487   3.244   5.674
 4452SOL    HW113402   3.448   3.335   5.659
 4452SOL    HW213403   3.417   3.174   5.655
 4453SOL     OW13404   2.327   3.597   5.905
 4453SOL    HW113405   2.368   3.659   5.971
 4453SOL    HW213406   2.398   3.561   5.844
 4454SOL     OW13407   3.263   1.966   6.022
 4454SOL    HW113408   3.251   1.941   5.926
 4454SOL    HW213409   3.361   1.975   6.043
 4455SOL     OW13410   2.124   3.658   6.813
 4455SOL    HW113411   2.168   3.589   6.870
 4455SOL    HW213412   2.105   3.619   6.723
 4456SOL     OW13413   2.798   3.562   6.481
 4456SOL    HW113414   2.884   3.517   6.508
 4456SOL    HW213415   2.755   3.511   6.407
 4457SOL     OW13416   2.257   2.550   6.061
 4457SOL    HW113417   2.278   2.453   6.074
 4457SOL    HW213418   2.160   2.567   6.078
 4458SOL     OW13419   2.503   1.979   5.688
 4458SOL    HW113420   2.572   1.910   5.710
 4458SOL    HW213421   2.447   1.947   5.612
 4459SOL     OW13422   2.725   3.379   6.764
 4459SOL    HW113423   2.710   3.346   6.671
 4459SOL    HW213424   2.768   3.307   6.818
 4460SOL     OW13425   2.680   3.251   6.520
 4460SOL    HW113426   2.771   3.240   6.478
 4460SOL    HW213427   2.611   3.256   6.449
 4461SOL     OW13428   2.789   2.370   6.484
 4461SOL    HW113429   2.762   2.362   6.388
 4461SOL    HW213430   2.826   2.283   6.515
 4462SOL     OW13431   2.409   1.926   6.080
 4462SOL    HW113432   2.327   1.924   6.137
 4462SOL    HW213433   2.406   2.007   6.021
 4463SOL     OW13434   3.288   3.061   5.629
 4463SOL    HW113435   3.321   2.983   5.682
 4463SOL    HW213436   3.199   3.090   5.665
 4464SOL     OW13437   2.152   1.910   5.772
 4464SOL    HW113438   2.205   1.982   5.725
 4464SOL    HW213439   2.215   1.846   5.815
 4465SOL     OW13440   2.808   2.112   6.042
 4465SOL    HW113441   2.777   2.154   5.957
 4465SOL    HW213442   2.907   2.126   6.052
 4466SOL     OW13443   3.080   3.433   6.382
 4466SOL    HW113444   3.095   3.503   6.312
 4466SOL    HW213445   3.159   3.431   6.444
 4467SOL     OW13446   2.330   3.013   6.315
 4467SOL    HW113447   2.263   2.993   6.387
 4467SOL    HW213448   2.288   3.000   6.225
 4468SOL     OW13449   3.124   3.654   6.196
 4468SOL    HW113450   3.177   3.716   6.138
 4468SOL    HW213451   3.051   3.704   6.241
 4469SOL     OW13452   2.883   2.398   5.615
 4469SOL    HW113453   2.838   2.484   5.592
 4469SOL    HW213454   2.953   2.415   5.685
 4470SOL     OW13455   2.423   2.083   6.757
 4470SOL    HW113456   2.470   2.001   6.788
 4470SOL    HW213457   2.328   2.081   6.788
 4471SOL     OW13458   2.727   2.321   6.222
 4471SOL    HW113459   2.680   2.382   6.158
 4471SOL    HW213460   2.756   2.238   6.175
 4472SOL     OW13461   2.880   1.910   6.327
 4472SOL    HW113462   2.818   1.911   6.249
 4472SOL    HW213463   2.854   1.836   6.389
 4473SOL     OW13464   3.302   3.022   6.442
 4473SOL    HW113465   3.233   2.950   6.444
 4473SOL    HW213466   3.334   3.036   6.348
 4474SOL     OW13467   3.328   2.467   6.550
 4474SOL    HW113468   3.266   2.389   6.555
 4474SOL    HW213469   3.391   2.465   6.628
 4475SOL     OW13470   3.704   2.671   5.965
 4475SOL    HW113471   3.762   2.624   6.031
 4475SOL    HW213472   3.675   2.607   5.895
 4476SOL     OW13473   2.349   3.282   5.741
 4476SOL    HW113474   2.269   3.256   5.794
 4476SOL    HW213475   2.347   3.237   5.652
 4477SOL     OW13476   3.536   3.129   6.229
 4477SOL    HW113477   3.635   3.126   6.242
 4477SOL    HW213478   3.503   3.221   6.250
 4478SOL     OW13479   3.252   2.436   5.657
 4478SOL    HW113480   3.189   2.414   5.731
 4478SOL    HW213481   3.345   2.410   5.682
 4479SOL     OW13482   2.390   2.126   5.896
 4479SOL    HW113483   2.437   2.074   5.825
 4479SOL    HW213484   2.361   2.214   5.858
 4480SOL     OW13485   3.620   3.041   0.171
 4480SOL    HW113486   3.718   3.028   0.154
 4480SOL    HW213487   3.594   3.134   0.145
 4481SOL     OW13488   2.980   3.100   6.694
 4481SOL    HW113489   2.897   3.058   6.730
 4481SOL    HW213490   2.967   3.124   6.598
 4482SOL     OW13491   3.481   2.946   6.650
 4482SOL    HW113492   3.482   3.017   6.721
 4482SOL    HW213493   3.407   2.963   6.586
 4483SOL     OW13494   2.575   2.921   5.959
 4483SOL    HW113495   2.557   2.903   6.056
 4483SOL    HW213496   2.654   2.867   5.929
 4484SOL     OW13497   2.287   2.675   6.846
 4484SOL    HW113498   2.343   2.701   6.924
 4484SOL    HW213499   2.252   2.582   6.860
 4485SOL     OW13500   3.131   2.250   6.856
 4485SOL    HW113501   3.159   2.323   6.917
 4485SOL    HW213502   3.037   2.264   6.827
 4486SOL     OW13503   1.932   3.440   6.936
 4486SOL    HW113504   1.896   3.510   6.873
 4486SOL    HW213505   2.031   3.433   6.926
 4487SOL     OW13506   2.205   2.980   6.073
 4487SOL    HW113507   2.209   3.062   6.016
 4487SOL    HW213508   2.203   2.899   6.015
 4488SOL     OW13509   2.409   2.407   6.449
 4488SOL    HW113510   2.422   2.466   6.369
 4488SOL    HW213511   2.480   2.426   6.517
 4489SOL     OW13512   3.108   3.217   5.978
 4489SOL    HW113513   3.169   3.289   6.009
 4489SOL    HW213514   3.015   3.236   6.008
 4490SOL     OW13515   3.143   3.312   6.747
 4490SOL    HW113516   3.180   3.301   6.840
 4490SOL    HW213517   3.082   3.236   6.726
 4491SOL     OW13518   3.439   2.483   6.068
 4491SOL    HW113519   3.389   2.530   6.140
 4491SOL    HW213520   3.487   2.550   6.011
 4492SOL     OW13521   2.204   3.391   6.884
 4492SOL    HW113522   2.188   3.337   6.801
 4492SOL    HW213523   2.303   3.406   6.895
 4493SOL     OW13524   2.447   2.732   6.623
 4493SOL    HW113525   2.480   2.826   6.616
 4493SOL    HW213526   2.386   2.723   6.702
 4494SOL     OW13527   3.209   2.718   6.596
 4494SOL    HW113528   3.119   2.703   6.555
 4494SOL    HW213529   3.262   2.633   6.592
 4495SOL     OW13530   3.060   2.388   5.850
 4495SOL    HW113531   3.073   2.306   5.905
 4495SOL    HW213532   3.016   2.459   5.906
 4496SOL     OW13533   2.163   2.060   6.835
 4496SOL    HW113534   2.119   2.094   6.918
 4496SOL    HW213535   2.148   1.961   6.828
 4497SOL     OW13536   1.899   3.176   6.869
 4497SOL    HW113537   1.943   3.117   6.937
 4497SOL    HW213538   1.907   3.272   6.899
 4498SOL     OW13539   2.587   2.489   6.642
 4498SOL    HW113540   2.664   2.468   6.582
 4498SOL    HW213541   2.555   2.582   6.624
 4499SOL     OW13542   2.168   1.923   6.213
 4499SOL    HW113543   2.144   2.019   6.231
 4499SOL    HW213544   2.179   1.875   6.300
 4500SOL     OW13545   3.489   2.243   5.948
 4500SOL    HW113546   3.515   2.169   6.010
 4500SOL    HW213547   3.460   2.323   6.000
 4501SOL     OW13548   2.884   2.619   6.550
 4501SOL    HW113549   2.879   2.639   6.648
 4501SOL    HW213550   2.859   2.523   6.535
 4502SOL     OW13551   3.389   2.131   5.716
 4502SOL    HW113552   3.320   2.063   5.741
 4502SOL    HW213553   3.426   2.173   5.799
 4503SOL     OW13554   3.151   2.688   5.612
 4503SOL    HW113555   3.191   2.597   5.621
 4503SOL    HW213556   3.182   2.730   5.527
 4504SOL     OW13557   2.934   3.199   6.439
 4504SOL    HW113558   2.937   3.121   6.376
 4504SOL    HW213559   2.991   3.273   6.404
 4505SOL     OW13560   2.175   2.667   6.528
 4505SOL    HW113561   2.271   2.693   6.522
 4505SOL    HW213562   2.169   2.572   6.559
 4506SOL     OW13563   2.193   2.390   6.604
 4506SOL    HW113564   2.153   2.299   6.590
 4506SOL    HW213565   2.273   2.400   6.545
 4507SOL     OW13566   3.002   2.102   0.053
 4507SOL    HW113567   3.069   2.117   0.126
 4507SOL    HW213568   3.036   2.139   6.967
 4508SOL     OW13569   1.863   3.177   5.781
 4508SOL    HW113570   1.773   3.197   5.741
 4508SOL    HW213571   1.864   3.084   5.816
 4509SOL     OW13572   1.955   3.648   6.527
 4509SOL    HW113573   1.918   3.566   6.482
 4509SOL    HW213574   2.049   3.664   6.496
 4510SOL     OW13575   2.356   3.440   6.489
 4510SOL    HW113576   2.426   3.505   6.518
 4510SOL    HW213577   2.396   3.371   6.428
 4511SOL     OW13578   2.842   2.658   6.823
 4511SOL    HW113579   2.921   2.634   6.881
 4511SOL    HW213580   2.760   2.613   6.858
 4512SOL     OW13581   1.913   2.419   6.712
 4512SOL    HW113582   1.969   2.385   6.636
 4512SOL    HW213583   1.971   2.455   6.784
 4513SOL     OW13584   2.679   2.434   5.947
 4513SOL    HW113585   2.689   2.355   5.887
 4513SOL    HW213586   2.601   2.489   5.917
 4514SOL     OW13587   3.510   2.472   6.752
 4514SOL    HW113588   3.494   2.413   6.832
 4514SOL    HW213589   3.604   2.461   6.721
 4515SOL     OW13590   2.535   2.325   6.850
 4515SOL    HW113591   2.498   2.237   6.818
 4515SOL    HW213592   2.550   2.385   6.771
 4516SOL     OW13593   2.805   3.524   6.997
 4516SOL    HW113594   2.771   3.513   6.904
 4516SOL    HW213595   2.786   3.617   0.028
 4517SOL     OW13596   2.321   2.357   5.772
 4517SOL    HW113597   2.385   2.430   5.797
 4517SOL    HW213598   2.230   2.397   5.758
 4518SOL     OW13599   2.019   3.005   0.049
 4518SOL    HW113600   2.067   2.968   0.128
 4518SOL    HW213601   2.031   2.946   6.970
 4519SOL     OW13602   3.147   2.868   6.814
 4519SOL    HW113603   3.185   2.816   6.737
 4519SOL    HW213604   3.121   2.959   6.783
 4520SOL     OW13605   3.177   2.719   5.885
 4520SOL    HW113606   3.102   2.691   5.944
 4520SOL    HW213607   3.152   2.706   5.789
 4521SOL     OW13608   3.619   3.619   6.726
 4521SOL    HW113609   3.693   3.642   6.663
 4521SOL    HW213610   3.595   3.523   6.716
 4522SOL     OW13611   3.110   3.587   6.700
 4522SOL    HW113612   3.193   3.617   6.653
 4522SOL    HW213613   3.114   3.489   6.718
 4523SOL     OW13614   1.944   3.132   6.600
 4523SOL    HW113615   1.928   3.143   6.698
 4523SOL    HW213616   1.876   3.069   6.562
 4524SOL     OW13617   3.581   2.012   6.085
 4524SOL    HW113618   3.657   2.002   6.020
 4524SOL    HW213619   3.564   1.925   6.130
 4525SOL     OW13620   3.257   3.432   6.074
 4525SOL    HW113621   3.320   3.464   6.003
 4525SOL    HW213622   3.202   3.509   6.106
 4526SOL     OW13623   3.144   2.791   6.253
 4526SOL    HW113624   3.218   2.726   6.268
 4526SOL    HW213625   3.177   2.867   6.197
 4527SOL     OW13626   2.531   3.483   5.740
 4527SOL    HW113627   2.547   3.502   5.643
 4527SOL    HW213628   2.472   3.403   5.749
 4528SOL     OW13629   3.704   2.036   6.556
 4528SOL    HW113630   3.738   1.945   6.533
 4528SOL    HW213631   3.612   2.047   6.517
 4529SOL     OW13632   2.117   2.176   6.301
 4529SOL    HW113633   2.028   2.212   6.273
 4529SOL    HW213634   2.120   2.169   6.401
 4530SOL     OW13635   3.070   3.463   5.619
 4530SOL    HW113636   3.061   3.369   5.652
 4530SOL    HW213637   3.003   3.480   5.547
 4531SOL     OW13638   2.639   2.888   6.952
 4531SOL    HW113639   2.698   2.844   6.884
 4531SOL    HW213640   2.685   2.969   6.988
 4532SOL     OW13641   2.782   2.773   5.873
 4532SOL    HW113642   2.843   2.808   5.803
 4532SOL    HW213643   2.829   2.701   5.925
 4533SOL     OW13644   3.350   3.492   5.628
 4533SOL    HW113645   3.252   3.481   5.617
 4533SOL    HW213646   3.394   3.497   5.538
 4534SOL     OW13647   3.478   3.141   6.835
 4534SOL    HW113648   3.568   3.142   6.878
 4534SOL    HW213649   3.408   3.119   6.903
 4535SOL     OW13650   2.923   2.968   6.301
 4535SOL    HW113651   2.846   2.917   6.340
 4535SOL    HW213652   2.992   2.904   6.267
 4536SOL     OW13653   2.881   2.099   6.541
 4536SOL    HW113654   2.880   2.050   6.453
 4536SOL    HW213655   2.884   2.033   6.616
 4537SOL     OW13656   2.467   3.348   6.066
 4537SOL    HW113657   2.518   3.294   5.999
 4537SOL    HW213658   2.392   3.396   6.020
 4538SOL     OW13659   3.557   2.285   6.945
 4538SOL    HW113660   3.623   2.293   0.020
 4538SOL    HW213661   3.564   2.194   6.904
 4539SOL     OW13662   2.115   3.210   5.875
 4539SOL    HW113663   2.019   3.203   5.847
 4539SOL    HW213664   2.121   3.248   5.967
 4540SOL     OW13665   2.535   2.051   0.081
 4540SOL    HW113666   2.625   2.025   0.047
 4540SOL    HW213667   2.544   2.132   0.139
 4541SOL     OW13668   1.944   2.190   5.615
 4541SOL    HW113669   1.852   2.167   5.583
 4541SOL    HW213670   1.976   2.272   5.567
 4542SOL     OW13671   1.925   2.017   5.888
 4542SOL    HW113672   1.908   2.101   5.837
 4542SOL    HW213673   2.014   1.979   5.861
 4543SOL     OW13674   3.042   3.199   5.706
 4543SOL    HW113675   2.947   3.169   5.700
 4543SOL    HW213676   3.070   3.201   5.802
 4544SOL     OW13677   3.353   3.646   6.579
 4544SOL    HW113678   3.366   3.708   6.501
 4544SOL    HW213679   3.441   3.626   6.621
 4545SOL     OW13680   3.355   3.155   0.282
 4545SOL    HW113681   3.263   3.151   0.322
 4545SOL    HW213682   3.385   3.062   0.260
 4546SOL     OW13683   2.248   3.589   0.100
 4546SOL    HW113684   2.159   3.633   0.115
 4546SOL    HW213685   2.247   3.497   0.138
 4547SOL     OW13686   3.561   2.740   6.829
 4547SOL    HW113687   3.528   2.650   6.801
 4547SOL    HW213688   3.526   2.809   6.766
 4548SOL     OW13689   3.081   2.178   6.046
 4548SOL    HW113690   3.145   2.102   6.036
 4548SOL    HW213691   3.108   2.234   6.125
 4549SOL     OW13692   2.447   2.599   6.255
 4549SOL    HW113693   2.489   2.689   6.244
 4549SOL    HW213694   2.378   2.586   6.184
 4550SOL     OW13695   3.632   2.767   0.094
 4550SOL    HW113696   3.620   2.862   0.121
 4550SOL    HW213697   3.606   2.756   6.998
 4551SOL     OW13698   2.728   3.226   5.629
 4551SOL    HW113699   2.687   3.250   5.717
 4551SOL    HW213700   2.744   3.309   5.575
 4552SOL     OW13701   2.528   3.647   6.532
 4552SOL    HW113702   2.504   3.741   6.507
 4552SOL    HW213703   2.627   3.633   6.519
 4553SOL     OW13704   2.731   2.832   6.443
 4553SOL    HW113705   2.780   2.753   6.480
 4553SOL    HW213706   2.691   2.885   6.518
 4554SOL     OW13707   2.940   2.851   5.670
 4554SOL    HW113708   2.912   2.905   5.590
 4554SOL    HW213709   3.017   2.793   5.646
 4555SOL     OW13710   3.711   3.420   6.432
 4555SOL    HW113711   3.632   3.406   6.373
 4555SOL    HW213712   3.707   3.356   6.509
 4556SOL     OW13713   1.949   3.093   6.250
 4556SOL    HW113714   1.947   3.043   6.337
 4556SOL    HW213715   2.018   3.052   6.190
 4557SOL     OW13716   3.672   2.037   6.835
 4557SOL    HW113717   3.648   1.940   6.836
 4557SOL    HW213718   3.688   2.066   6.740
 4558SOL     OW13719   2.293   2.290   6.113
 4558SOL    HW113720   2.326   2.220   6.050
 4558SOL    HW213721   2.238   2.246   6.184
 4559SOL     OW13722   3.539   3.365   6.677
 4559SOL    HW113723   3.463   3.345   6.615
 4559SOL    HW213724   3.550   3.290   6.743
 4560SOL     OW13725   2.179   2.413   6.878
 4560SOL    HW113726   2.249   2.360   6.925
 4560SOL    HW213727   2.188   2.400   6.779
 4561SOL     OW13728   2.691   3.442   6.263
 4561SOL    HW113729   2.678   3.504   6.186
 4561SOL    HW213730   2.613   3.379   6.267
 4562SOL     OW13731   3.296   2.098   6.702
 4562SOL    HW113732   3.329   2.015   6.748
 4562SOL    HW213733   3.242   2.152   6.766
 4563SOL     OW13734   2.879   1.880   6.712
 4563SOL    HW113735   2.816   1.814   6.671
 4563SOL    HW213736   2.969   1.838   6.723
 4564SOL     OW13737   2.636   3.194   5.907
 4564SOL    HW113738   2.608   3.098   5.915
 4564SOL    HW213739   2.721   3.208   5.957
 4565SOL     OW13740   2.479   3.423   6.868
 4565SOL    HW113741   2.476   3.519   6.898
 4565SOL    HW213742   2.566   3.405   6.823
 4566SOL     OW13743   3.216   1.912   5.756
 4566SOL    HW113744   3.259   1.845   5.695
 4566SOL    HW213745   3.123   1.883   5.778
 4567SOL     OW13746   3.153   2.326   6.266
 4567SOL    HW113747   3.101   2.411   6.269
 4567SOL    HW213748   3.150   2.282   6.356
 4568SOL     OW13749   3.449   2.067   6.471
 4568SOL    HW113750   3.388   2.086   6.548
 4568SOL    HW213751   3.450   2.146   6.409
 4569SOL     OW13752   1.905   2.926   5.894
 4569SOL    HW113753   2.003   2.926   5.874
 4569SOL    HW213754   1.875   2.833   5.916
 4570SOL     OW13755   2.746   3.524   5.926
 4570SOL    HW113756   2.671   3.503   5.863
 4570SOL    HW213757   2.720   3.602   5.984
 4571SOL     OW13758   2.081   4.359   0.136
 4571SOL    HW113759   1.985   4.345   0.160
 4571SOL    HW213760   2.094   4.342   0.038
 4572SOL     OW13761   2.085   4.006   0.994
 4572SOL    HW113762   2.118   3.972   1.083
 4572SOL    HW213763   1.992   3.974   0.978
 4573SOL     OW13764   1.863   4.114   0.636
 4573SOL    HW113765   1.779   4.143   0.681
 4573SOL    HW213766   1.846   4.030   0.585
 4574SOL     OW13767   2.431   5.021   1.185
 4574SOL    HW113768   2.341   5.017   1.142
 4574SOL    HW213769   2.448   5.113   1.219
 4575SOL     OW13770   3.426   5.238   0.709
 4575SOL    HW113771   3.385   5.212   0.796
 4575SOL    HW213772   3.356   5.240   0.638
 4576SOL     OW13773   2.994   4.425   0.696
 4576SOL    HW113774   3.047   4.508   0.680
 4576SOL    HW213775   2.944   4.434   0.782
 4577SOL     OW13776   3.647   4.302   0.200
 4577SOL    HW113777   3.581   4.353   0.144
 4577SOL    HW213778   3.598   4.241   0.262
 4578SOL     OW13779   2.606   4.865   1.041
 4578SOL    HW113780   2.538   4.899   1.105
 4578SOL    HW213781   2.650   4.942   0.994
 4579SOL     OW13782   2.736   4.488   1.821
 4579SOL    HW113783   2.724   4.556   1.893
 4579SOL    HW213784   2.760   4.534   1.736
 4580SOL     OW13785   2.545   4.720   0.650
 4580SOL    HW113786   2.616   4.712   0.720
 4580SOL    HW213787   2.471   4.778   0.685
 4581SOL     OW13788   2.573   4.877   1.818
 4581SOL    HW113789   2.626   4.956   1.851
 4581SOL    HW213790   2.488   4.909   1.776
 4582SOL     OW13791   2.188   5.147   1.066
 4582SOL    HW113792   2.112   5.102   1.020
 4582SOL    HW213793   2.241   5.200   0.999
 4583SOL     OW13794   3.320   5.226   1.358
 4583SOL    HW113795   3.377   5.307   1.365
 4583SOL    HW213796   3.249   5.228   1.429
 4584SOL     OW13797   2.312   4.117   1.478
 4584SOL    HW113798   2.393   4.059   1.486
 4584SOL    HW213799   2.231   4.063   1.497
 4585SOL     OW13800   3.474   4.173   0.748
 4585SOL    HW113801   3.400   4.194   0.683
 4585SOL    HW213802   3.482   4.247   0.814
 4586SOL     OW13803   2.087   5.444   0.474
 4586SOL    HW113804   2.104   5.523   0.532
 4586SOL    HW213805   2.172   5.417   0.428
 4587SOL     OW13806   2.999   5.064   1.698
 4587SOL    HW113807   3.046   5.062   1.786
 4587SOL    HW213808   2.943   4.982   1.688
 4588SOL     OW13809   2.084   5.170   0.539
 4588SOL    HW113810   2.069   5.268   0.547
 4588SOL    HW213811   2.027   5.122   0.606
 4589SOL     OW13812   2.131   4.814   0.900
 4589SOL    HW113813   2.126   4.720   0.933
 4589SOL    HW213814   2.068   4.872   0.953
 4590SOL     OW13815   2.461   5.521   1.426
 4590SOL    HW113816   2.378   5.497   1.476
 4590SOL    HW213817   2.492   5.611   1.455
 4591SOL     OW13818   2.450   4.691   0.147
 4591SOL    HW113819   2.508   4.713   0.068
 4591SOL    HW213820   2.486   4.736   0.228
 4592SOL     OW13821   3.458   3.849   1.469
 4592SOL    HW113822   3.479   3.929   1.413
 4592SOL    HW213823   3.444   3.878   1.564
 4593SOL     OW13824   1.978   4.377   0.562
 4593SOL    HW113825   1.946   4.285   0.583
 4593SOL    HW213826   1.972   4.434   0.644
 4594SOL     OW13827   3.700   5.487   0.347
 4594SOL    HW113828   3.770   5.457   0.411
 4594SOL    HW213829   3.704   5.586   0.336
 4595SOL     OW13830   3.553   4.639   0.650
 4595SOL    HW113831   3.637   4.588   0.632
 4595SOL    HW213832   3.531   4.696   0.571
 4596SOL     OW13833   3.517   4.820   0.445
 4596SOL    HW113834   3.586   4.840   0.375
 4596SOL    HW213835   3.523   4.889   0.517
 4597SOL     OW13836   1.985   4.468   1.585
 4597SOL    HW113837   2.082   4.495   1.586
 4597SOL    HW213838   1.928   4.550   1.586
 4598SOL     OW13839   2.474   5.113   0.738
 4598SOL    HW113840   2.428   5.025   0.751
 4598SOL    HW213841   2.465   5.142   0.642
 4599SOL     OW13842   3.150   4.959   1.422
 4599SOL    HW113843   3.177   4.889   1.356
 4599SOL    HW213844   3.210   4.955   1.502
 4600SOL     OW13845   2.681   3.737   0.514
 4600SOL    HW113846   2.726   3.822   0.490
 4600SOL    HW213847   2.582   3.752   0.522
 4601SOL     OW13848   2.053   4.686   1.277
 4601SOL    HW113849   2.141   4.642   1.262
 4601SOL    HW213850   1.983   4.639   1.223
 4602SOL     OW13851   3.353   4.745   0.214
 4602SOL    HW113852   3.286   4.679   0.246
 4602SOL    HW213853   3.440   4.729   0.261
 4603SOL     OW13854   3.043   5.535   1.622
 4603SOL    HW113855   3.052   5.603   1.550
 4603SOL    HW213856   3.064   5.444   1.585
 4604SOL     OW13857   2.203   3.973   1.832
 4604SOL    HW113858   2.252   4.059   1.847
 4604SOL    HW213859   2.106   3.986   1.851
 4605SOL     OW13860   3.326   5.144   0.947
 4605SOL    HW113861   3.260   5.163   1.019
 4605SOL    HW213862   3.318   5.049   0.919
 4606SOL     OW13863   3.506   5.475   0.582
 4606SOL    HW113864   3.486   5.448   0.488
 4606SOL    HW213865   3.489   5.398   0.643
 4607SOL     OW13866   2.461   4.441   0.267
 4607SOL    HW113867   2.467   4.531   0.224
 4607SOL    HW213868   2.397   4.444   0.343
 4608SOL     OW13869   3.139   4.081   0.932
 4608SOL    HW113870   3.045   4.048   0.941
 4608SOL    HW213871   3.199   4.030   0.994
 4609SOL     OW13872   3.438   5.401   0.317
 4609SOL    HW113873   3.534   5.431   0.315
 4609SOL    HW213874   3.404   5.393   0.223
 4610SOL     OW13875   2.652   4.337   1.449
 4610SOL    HW113876   2.627   4.313   1.543
 4610SOL    HW213877   2.614   4.268   1.387
 4611SOL     OW13878   3.253   4.194   1.679
 4611SOL    HW113879   3.254   4.243   1.766
 4611SOL    HW213880   3.314   4.115   1.686
 4612SOL     OW13881   2.815   4.609   1.583
 4612SOL    HW113882   2.873   4.537   1.545
 4612SOL    HW213883   2.761   4.651   1.510
 4613SOL     OW13884   2.856   4.130   1.230
 4613SOL    HW113885   2.766   4.153   1.268
 4613SOL    HW213886   2.844   4.080   1.144
 4614SOL     OW13887   2.913   4.425   0.429
 4614SOL    HW113888   2.936   4.422   0.526
 4614SOL    HW213889   2.827   4.377   0.413
 4615SOL     OW13890   1.953   4.548   0.777
 4615SOL    HW113891   2.037   4.537   0.829
 4615SOL    HW213892   1.901   4.626   0.813
 4616SOL     OW13893   1.990   5.595   1.588
 4616SOL    HW113894   1.995   5.568   1.684
 4616SOL    HW213895   1.905   5.562   1.547
 4617SOL     OW13896   2.750   4.066   0.207
 4617SOL    HW113897   2.800   4.127   0.145
 4617SOL    HW213898   2.766   3.971   0.181
 4618SOL     OW13899   3.563   4.297   1.826
 4618SOL    HW113900   3.527   4.376   1.776
 4618SOL    HW213901   3.593   4.227   1.761
 4619SOL     OW13902   3.245   4.865   0.550
 4619SOL    HW113903   3.328   4.852   0.496
 4619SOL    HW213904   3.185   4.931   0.504
 4620SOL     OW13905   2.409   3.898   0.900
 4620SOL    HW113906   2.413   3.927   0.996
 4620SOL    HW213907   2.413   3.979   0.841
 4621SOL     OW13908   2.854   5.163   0.469
 4621SOL    HW113909   2.822   5.244   0.420
 4621SOL    HW213910   2.835   5.174   0.567
 4622SOL     OW13911   2.218   5.537   0.868
 4622SOL    HW113912   2.261   5.448   0.875
 4622SOL    HW213913   2.285   5.609   0.889
 4623SOL     OW13914   3.661   4.778   0.873
 4623SOL    HW113915   3.611   4.756   0.790
 4623SOL    HW213916   3.598   4.785   0.950
 4624SOL     OW13917   3.088   5.260   1.514
 4624SOL    HW113918   3.076   5.186   1.581
 4624SOL    HW213919   3.021   5.251   1.441
 4625SOL     OW13920   2.178   4.681   0.231
 4625SOL    HW113921   2.270   4.696   0.195
 4625SOL    HW213922   2.148   4.588   0.211
 4626SOL     OW13923   3.346   4.469   0.723
 4626SOL    HW113924   3.341   4.429   0.814
 4626SOL    HW213925   3.425   4.530   0.718
 4627SOL     OW13926   2.330   4.989   1.731
 4627SOL    HW113927   2.304   4.995   1.635
 4627SOL    HW213928   2.248   4.986   1.788
 4628SOL     OW13929   2.982   5.490   0.242
 4628SOL    HW113930   2.910   5.444   0.293
 4628SOL    HW213931   3.019   5.427   0.174
 4629SOL     OW13932   2.064   3.999   1.503
 4629SOL    HW113933   1.982   4.056   1.499
 4629SOL    HW213934   2.042   3.912   1.547
 4630SOL     OW13935   3.508   5.155   0.103
 4630SOL    HW113936   3.460   5.236   0.071
 4630SOL    HW213937   3.446   5.098   0.156
 4631SOL     OW13938   2.350   5.422   0.381
 4631SOL    HW113939   2.377   5.509   0.424
 4631SOL    HW213940   2.407   5.406   0.301
 4632SOL     OW13941   2.121   5.516   1.226
 4632SOL    HW113942   2.172   5.443   1.273
 4632SOL    HW213943   2.102   5.487   1.132
 4633SOL     OW13944   2.798   5.426   0.897
 4633SOL    HW113945   2.880   5.378   0.928
 4633SOL    HW213946   2.755   5.374   0.823
 4634SOL     OW13947   2.260   4.411   0.469
 4634SOL    HW113948   2.279   4.315   0.488
 4634SOL    HW213949   2.163   4.430   0.488
 4635SOL     OW13950   3.390   3.947   1.728
 4635SOL    HW113951   3.401   3.968   1.825
 4635SOL    HW213952   3.318   3.879   1.717
 4636SOL     OW13953   2.625   4.000   1.757
 4636SOL    HW113954   2.710   3.947   1.751
 4636SOL    HW213955   2.574   3.972   1.838
 4637SOL     OW13956   2.737   5.239   1.193
 4637SOL    HW113957   2.717   5.203   1.101
 4637SOL    HW213958   2.809   5.185   1.235
 4638SOL     OW13959   3.202   4.313   1.435
 4638SOL    HW113960   3.232   4.278   1.524
 4638SOL    HW213961   3.237   4.405   1.422
 4639SOL     OW13962   2.681   5.114   0.942
 4639SOL    HW113963   2.771   5.102   0.899
 4639SOL    HW213964   2.611   5.119   0.871
 4640SOL     OW13965   2.789   4.231   0.899
 4640SOL    HW113966   2.763   4.223   0.803
 4640SOL    HW213967   2.822   4.142   0.932
 4641SOL     OW13968   2.411   3.796   0.504
 4641SOL    HW113969   2.328   3.793   0.559
 4641SOL    HW213970   2.406   3.874   0.441
 4642SOL     OW13971   3.283   4.937   0.012
 4642SOL    HW113972   3.312   4.856   0.063
 4642SOL    HW213973   3.200   4.975   0.054
 4643SOL     OW13974   2.811   3.974   0.461
 4643SOL    HW113975   2.778   4.014   0.376
 4643SOL    HW213976   2.909   3.989   0.469
 4644SOL     OW13977   2.942   4.407   1.455
 4644SOL    HW113978   2.867   4.341   1.461
 4644SOL    HW213979   3.029   4.358   1.451
 4645SOL     OW13980   3.081   5.291   0.796
 4645SOL    HW113981   3.095   5.361   0.726
 4645SOL    HW213982   3.154   5.298   0.864
 4646SOL     OW13983   2.333   4.875   0.730
 4646SOL    HW113984   2.263   4.854   0.798
 4646SOL    HW213985   2.294   4.868   0.639
 4647SOL     OW13986   3.119   5.509   0.611
 4647SOL    HW113987   3.174   5.572   0.557
 4647SOL    HW213988   3.046   5.560   0.657
 4648SOL     OW13989   2.924   4.303   0.031
 4648SOL    HW113990   2.829   4.327   0.050
 4648SOL    HW213991   2.973   4.291   0.117
 4649SOL     OW13992   1.948   4.281   1.391
 4649SOL    HW113993   2.043   4.277   1.359
 4649SOL    HW213994   1.940   4.352   1.461
 4650SOL     OW13995   2.420   3.947   1.172
 4650SOL    HW113996   2.470   3.872   1.215
 4650SOL    HW213997   2.325   3.946   1.202
 4651SOL     OW13998   2.728   4.181   0.639
 4651SOL    HW113999   2.683   4.244   0.575
 4651SOL    HW214000   2.755   4.098   0.590
 4652SOL     OW14001   2.881   3.773   0.742
 4652SOL    HW114002   2.816   3.774   0.665
 4652SOL    HW214003   2.857   3.700   0.805
 4653SOL     OW14004   3.308   4.885   0.860
 4653SOL    HW114005   3.232   4.820   0.862
 4653SOL    HW214006   3.340   4.895   0.766
 4654SOL     OW14007   3.330   4.332   0.971
 4654SOL    HW114008   3.268   4.253   0.971
 4654SOL    HW214009   3.391   4.326   1.050
 4655SOL     OW14010   3.691   4.529   0.390
 4655SOL    HW114011   3.751   4.469   0.442
 4655SOL    HW214012   3.685   4.498   0.296
 4656SOL     OW14013   2.330   5.153   0.153
 4656SOL    HW114014   2.268   5.109   0.218
 4656SOL    HW214015   2.309   5.122   0.060
 4657SOL     OW14016   3.535   4.990   0.652
 4657SOL    HW114017   3.634   4.987   0.661
 4657SOL    HW214018   3.502   5.083   0.666
 4658SOL     OW14019   3.253   4.277   0.067
 4658SOL    HW114020   3.192   4.275   0.147
 4658SOL    HW214021   3.316   4.199   0.071
 4659SOL     OW14022   2.375   3.988   0.312
 4659SOL    HW114023   2.390   3.922   0.238
 4659SOL    HW214024   2.352   4.077   0.273
 4660SOL     OW14025   3.615   4.965   1.561
 4660SOL    HW114026   3.704   4.922   1.548
 4660SOL    HW214027   3.626   5.058   1.595
 4661SOL     OW14028   2.915   5.074   1.336
 4661SOL    HW114029   2.834   5.044   1.386
 4661SOL    HW214030   2.997   5.034   1.378
 4662SOL     OW14031   3.475   5.354   1.657
 4662SOL    HW114032   3.460   5.389   1.564
 4662SOL    HW214033   3.561   5.302   1.659
 4663SOL     OW14034   2.999   4.943   1.105
 4663SOL    HW114035   2.939   4.977   1.177
 4663SOL    HW214036   2.965   4.974   1.016
 4664SOL     OW14037   3.486   4.820   1.079
 4664SOL    HW114038   3.482   4.886   1.155
 4664SOL    HW214039   3.411   4.838   1.016
 4665SOL     OW14040   2.785   3.818   1.391
 4665SOL    HW114041   2.807   3.796   1.296
 4665SOL    HW214042   2.865   3.862   1.434
 4666SOL     OW14043   2.841   4.839   1.721
 4666SOL    HW114044   2.747   4.858   1.748
 4666SOL    HW214045   2.843   4.756   1.665
 4667SOL     OW14046   2.576   4.782   0.375
 4667SOL    HW114047   2.556   4.765   0.472
 4667SOL    HW214048   2.656   4.728   0.347
 4668SOL     OW14049   2.284   4.539   1.254
 4668SOL    HW114050   2.357   4.552   1.321
 4668SOL    HW214051   2.245   4.447   1.265
 4669SOL     OW14052   3.124   4.100   1.280
 4669SOL    HW114053   3.161   4.180   1.329
 4669SOL    HW214054   3.029   4.118   1.255
 4670SOL     OW14055   1.936   5.296   1.353
 4670SOL    HW114056   1.900   5.366   1.291
 4670SOL    HW214057   2.036   5.294   1.347
 4671SOL     OW14058   2.226   4.845   0.482
 4671SOL    HW114059   2.201   4.921   0.422
 4671SOL    HW214060   2.223   4.759   0.430
 4672SOL     OW14061   2.410   4.266   0.860
 4672SOL    HW114062   2.425   4.326   0.781
 4672SOL    HW214063   2.478   4.287   0.931
 4673SOL     OW14064   3.106   5.069   0.406
 4673SOL    HW114065   3.164   5.145   0.436
 4673SOL    HW214066   3.011   5.086   0.432
 4674SOL     OW14067   3.149   5.186   1.147
 4674SOL    HW114068   3.208   5.192   1.228
 4674SOL    HW214069   3.095   5.102   1.152
 4675SOL     OW14070   3.449   4.351   0.481
 4675SOL    HW114071   3.392   4.393   0.550
 4675SOL    HW214072   3.506   4.421   0.437
 4676SOL     OW14073   2.210   5.254   1.310
 4676SOL    HW114074   2.194   5.209   1.222
 4676SOL    HW214075   2.308   5.268   1.322
 4677SOL     OW14076   2.277   4.470   1.600
 4677SOL    HW114077   2.344   4.516   1.541
 4677SOL    HW214078   2.310   4.379   1.623
 4678SOL     OW14079   3.470   4.509   1.684
 4678SOL    HW114080   3.379   4.551   1.682
 4678SOL    HW214081   3.527   4.550   1.613
 4679SOL     OW14082   2.859   3.858   1.750
 4679SOL    HW114083   2.917   3.937   1.734
 4679SOL    HW214084   2.908   3.775   1.723
 4680SOL     OW14085   2.354   3.760   1.750
 4680SOL    HW114086   2.310   3.702   1.682
 4680SOL    HW214087   2.297   3.840   1.769
 4681SOL     OW14088   2.445   4.595   1.034
 4681SOL    HW114089   2.481   4.689   1.030
 4681SOL    HW214090   2.386   4.585   1.114
 4682SOL     OW14091   3.214   4.581   1.025
 4682SOL    HW114092   3.124   4.573   0.982
 4682SOL    HW214093   3.262   4.494   1.016
 4683SOL     OW14094   3.057   4.251   0.272
 4683SOL    HW114095   3.071   4.171   0.330
 4683SOL    HW214096   3.017   4.325   0.327
 4684SOL     OW14097   2.159   3.921   1.246
 4684SOL    HW114098   2.123   3.957   1.332
 4684SOL    HW214099   2.144   3.822   1.243
 4685SOL     OW14100   1.915   5.034   1.275
 4685SOL    HW114101   1.946   4.972   1.348
 4685SOL    HW214102   1.917   5.128   1.308
 4686SOL     OW14103   2.585   4.354   1.054
 4686SOL    HW114104   2.663   4.335   0.995
 4686SOL    HW214105   2.550   4.446   1.036
 4687SOL     OW14106   3.598   4.685   1.856
 4687SOL    HW114107   3.555   4.616   1.797
 4687SOL    HW214108   3.538   4.704   1.934
 4688SOL     OW14109   2.166   3.790   0.630
 4688SOL    HW114110   2.143   3.885   0.650
 4688SOL    HW214111   2.178   3.739   0.715
 4689SOL     OW14112   3.489   4.101   0.375
 4689SOL    HW114113   3.514   4.031   0.442
 4689SOL    HW214114   3.467   4.186   0.422
 4690SOL     OW14115   2.885   4.479   0.958
 4690SOL    HW114116   2.881   4.501   1.056
 4690SOL    HW214117   2.859   4.384   0.944
 4691SOL     OW14118   2.843   5.287   1.718
 4691SOL    HW114119   2.826   5.334   1.631
 4691SOL    HW214120   2.891   5.201   1.700
 4692SOL     OW14121   3.717   5.228   1.604
 4692SOL    HW114122   3.736   5.254   1.509
 4692SOL    HW214123   3.800   5.239   1.658
 4693SOL     OW14124   2.215   4.642   1.805
 4693SOL    HW114125   2.295   4.664   1.861
 4693SOL    HW214126   2.240   4.577   1.734
 4694SOL     OW14127   3.348   4.017   0.154
 4694SOL    HW114128   3.309   3.926   0.168
 4694SOL    HW214129   3.406   4.041   0.232
 4695SOL     OW14130   3.156   4.545   0.034
 4695SOL    HW114131   3.202   4.457   0.023
 4695SOL    HW214132   3.181   4.605   6.957
 4696SOL     OW14133   2.931   5.061   0.855
 4696SOL    HW114134   2.935   4.983   0.792
 4696SOL    HW214135   2.990   5.134   0.822
 4697SOL     OW14136   2.173   4.530   0.943
 4697SOL    HW114137   2.269   4.556   0.940
 4697SOL    HW214138   2.166   4.436   0.976
 4698SOL     OW14139   2.190   4.251   1.011
 4698SOL    HW114140   2.151   4.159   1.001
 4698SOL    HW214141   2.270   4.260   0.953
 4699SOL     OW14142   2.996   4.097   1.692
 4699SOL    HW114143   2.943   4.154   1.755
 4699SOL    HW214144   3.088   4.134   1.683
 4700SOL     OW14145   3.024   3.927   1.475
 4700SOL    HW114146   3.009   3.990   1.552
 4700SOL    HW214147   3.066   3.977   1.400
 4701SOL     OW14148   1.955   5.508   0.943
 4701SOL    HW114149   1.918   5.426   0.898
 4701SOL    HW214150   2.049   5.524   0.911
 4702SOL     OW14151   2.355   5.300   0.904
 4702SOL    HW114152   2.425   5.366   0.931
 4702SOL    HW214153   2.395   5.232   0.843
 4703SOL     OW14154   2.836   4.517   1.224
 4703SOL    HW114155   2.897   4.494   1.300
 4703SOL    HW214156   2.747   4.476   1.239
 4704SOL     OW14157   1.899   4.276   1.117
 4704SOL    HW114158   1.982   4.264   1.062
 4704SOL    HW214159   1.924   4.278   1.214
 4705SOL     OW14160   2.054   4.247   1.730
 4705SOL    HW114161   2.106   4.193   1.664
 4705SOL    HW214162   2.015   4.327   1.685
 4706SOL     OW14163   3.242   4.659   1.655
 4706SOL    HW114164   3.265   4.756   1.656
 4706SOL    HW214165   3.239   4.627   1.560
 4707SOL     OW14166   2.680   4.293   0.370
 4707SOL    HW114167   2.688   4.214   0.309
 4707SOL    HW214168   2.603   4.350   0.342
 4708SOL     OW14169   3.505   4.327   1.181
 4708SOL    HW114170   3.488   4.268   1.260
 4708SOL    HW214171   3.596   4.309   1.145
 4709SOL     OW14172   2.102   5.271   1.726
 4709SOL    HW114173   2.080   5.345   1.789
 4709SOL    HW214174   2.108   5.185   1.776
 4710SOL     OW14175   2.570   4.171   1.253
 4710SOL    HW114176   2.512   4.093   1.229
 4710SOL    HW214177   2.566   4.239   1.179
 4711SOL     OW14178   2.782   5.405   1.472
 4711SOL    HW114179   2.756   5.359   1.387
 4711SOL    HW214180   2.782   5.504   1.457
 4712SOL     OW14181   2.317   4.223   0.189
 4712SOL    HW114182   2.381   4.295   0.214
 4712SOL    HW214183   2.224   4.259   0.185
 4713SOL     OW14184   2.004   4.862   1.475
 4713SOL    HW114185   2.006   4.817   1.565
 4713SOL    HW214186   2.024   4.794   1.404
 4714SOL     OW14187   3.177   4.768   1.219
 4714SOL    HW114188   3.205   4.700   1.151
 4714SOL    HW214189   3.110   4.830   1.179
 4715SOL     OW14190   3.163   4.570   0.306
 4715SOL    HW114191   3.082   4.542   0.357
 4715SOL    HW214192   3.151   4.549   0.209
 4716SOL     OW14193   3.642   5.454   1.157
 4716SOL    HW114194   3.703   5.488   1.085
 4716SOL    HW214195   3.611   5.362   1.133
 4717SOL     OW14196   3.103   5.457   1.105
 4717SOL    HW114197   3.189   5.486   1.062
 4717SOL    HW214198   3.109   5.360   1.129
 4718SOL     OW14199   1.948   4.990   1.010
 4718SOL    HW114200   1.932   5.004   1.108
 4718SOL    HW214201   1.876   4.931   0.972
 4719SOL     OW14202   2.543   5.397   1.736
 4719SOL    HW114203   2.480   5.475   1.731
 4719SOL    HW214204   2.616   5.409   1.669
 4720SOL     OW14205   2.801   3.801   0.112
 4720SOL    HW114206   2.872   3.856   0.067
 4720SOL    HW214207   2.844   3.741   0.180
 4721SOL     OW14208   3.591   3.885   0.528
 4721SOL    HW114209   3.660   3.876   0.457
 4721SOL    HW214210   3.563   3.794   0.559
 4722SOL     OW14211   3.252   5.286   0.491
 4722SOL    HW114212   3.317   5.317   0.421
 4722SOL    HW214213   3.198   5.364   0.523
 4723SOL     OW14214   2.007   5.511   1.846
 4723SOL    HW114215   1.950   5.443   1.891
 4723SOL    HW214216   2.057   5.565   1.914
 4724SOL     OW14217   3.144   4.647   0.670
 4724SOL    HW114218   3.219   4.582   0.684
 4724SOL    HW214219   3.179   4.726   0.618
 4725SOL     OW14220   2.666   5.002   1.426
 4725SOL    HW114221   2.636   5.046   1.511
 4725SOL    HW214222   2.596   5.017   1.356
 4726SOL     OW14223   2.536   5.328   0.191
 4726SOL    HW114224   2.541   5.377   0.104
 4726SOL    HW214225   2.476   5.249   0.181
 4727SOL     OW14226   3.479   5.453   1.387
 4727SOL    HW114227   3.537   5.453   1.306
 4727SOL    HW214228   3.464   5.546   1.419
 4728SOL     OW14229   3.704   3.893   0.963
 4728SOL    HW114230   3.738   3.802   0.941
 4728SOL    HW214231   3.613   3.905   0.923
 4729SOL     OW14232   2.118   4.041   0.717
 4729SOL    HW114233   2.029   4.079   0.690
 4729SOL    HW214234   2.121   4.032   0.816
 4730SOL     OW14235   3.081   5.323   0.040
 4730SOL    HW114236   3.075   5.228   0.071
 4730SOL    HW214237   2.996   5.349   6.994
 4731SOL     OW14238   2.685   4.734   1.378
 4731SOL    HW114239   2.736   4.718   1.293
 4731SOL    HW214240   2.682   4.832   1.398
 4732SOL     OW14241   2.785   4.637   0.293
 4732SOL    HW114242   2.840   4.666   0.215
 4732SOL    HW214243   2.834   4.566   0.343
 4733SOL     OW14244   3.350   5.378   0.041
 4733SOL    HW114245   3.252   5.357   0.041
 4733SOL    HW214246   3.381   5.393   6.947
 4734SOL     OW14247   2.228   5.027   1.487
 4734SOL    HW114248   2.218   5.108   1.428
 4734SOL    HW214249   2.148   4.968   1.476
 4735SOL     OW14250   3.475   5.008   1.284
 4735SOL    HW114251   3.538   4.989   1.359
 4735SOL    HW214252   3.409   5.078   1.313
 4736SOL     OW14253   2.923   4.830   0.714
 4736SOL    HW114254   2.847   4.781   0.755
 4736SOL    HW214255   2.991   4.764   0.681
 4737SOL     OW14256   2.885   3.963   0.966
 4737SOL    HW114257   2.880   3.919   0.876
 4737SOL    HW214258   2.882   3.893   1.038
 4738SOL     OW14259   2.476   5.201   0.485
 4738SOL    HW114260   2.514   5.149   0.408
 4738SOL    HW214261   2.415   5.272   0.451
 4739SOL     OW14262   3.593   4.118   1.381
 4739SOL    HW114263   3.666   4.186   1.381
 4739SOL    HW214264   3.619   4.043   1.319
 4740SOL     OW14265   2.131   5.050   0.307
 4740SOL    HW114266   2.051   5.069   0.250
 4740SOL    HW214267   2.119   5.096   0.395
 4741SOL     OW14268   1.977   4.759   1.728
 4741SOL    HW114269   1.895   4.731   1.779
 4741SOL    HW214270   2.057   4.713   1.767
 4742SOL     OW14271   2.545   3.918   1.500
 4742SOL    HW114272   2.632   3.894   1.456
 4742SOL    HW214273   2.563   3.952   1.592
 4743SOL     OW14274   1.971   4.040   0.014
 4743SOL    HW114275   1.907   3.988   6.958
 4743SOL    HW214276   1.993   4.126   6.969
 4744SOL     OW14277   3.285   4.580   1.395
 4744SOL    HW114278   3.230   4.644   1.341
 4744SOL    HW214279   3.379   4.582   1.361
 4745SOL     OW14280   1.913   3.897   0.333
 4745SOL    HW114281   1.892   3.981   0.282
 4745SOL    HW214282   2.002   3.862   0.306
 4746SOL     OW14283   3.048   5.069   0.128
 4746SOL    HW114284   2.951   5.053   0.111
 4746SOL    HW214285   3.067   5.059   0.225
 4747SOL     OW14286   2.485   4.554   1.433
 4747SOL    HW114287   2.543   4.635   1.419
 4747SOL    HW214288   2.543   4.473   1.443
 4748SOL     OW14289   3.348   5.513   0.987
 4748SOL    HW114290   3.371   5.577   0.914
 4748SOL    HW214291   3.431   5.476   1.028
 4749SOL     OW14292   2.584   4.282   1.702
 4749SOL    HW114293   2.628   4.349   1.762
 4749SOL    HW214294   2.604   4.190   1.736
 4750SOL     OW14295   3.336   4.920   1.634
 4750SOL    HW114296   3.320   4.933   1.732
 4750SOL    HW214297   3.431   4.939   1.613
 4751SOL     OW14298   2.233   5.462   1.567
 4751SOL    HW114299   2.149   5.514   1.552
 4751SOL    HW214300   2.211   5.374   1.609
 4752SOL     OW14301   3.527   4.602   1.256
 4752SOL    HW114302   3.523   4.511   1.214
 4752SOL    HW214303   3.515   4.671   1.185
 4753SOL     OW14304   3.083   4.041   0.457
 4753SOL    HW114305   3.164   3.989   0.428
 4753SOL    HW214306   3.105   4.093   0.539
 4754SOL     OW14307   2.450   4.458   0.665
 4754SOL    HW114308   2.490   4.550   0.659
 4754SOL    HW214309   2.379   4.448   0.596
 4755SOL     OW14310   3.613   4.089   1.652
 4755SOL    HW114311   3.603   4.105   1.554
 4755SOL    HW214312   3.539   4.029   1.684
 4756SOL     OW14313   3.614   4.656   1.509
 4756SOL    HW114314   3.603   4.753   1.531
 4756SOL    HW214315   3.593   4.641   1.413
 4757SOL     OW14316   2.764   5.107   0.053
 4757SOL    HW114317   2.704   5.082   0.129
 4757SOL    HW214318   2.768   5.206   0.044
 4758SOL     OW14319   2.527   5.509   0.942
 4758SOL    HW114320   2.503   5.604   0.920
 4758SOL    HW214321   2.625   5.496   0.931
 4759SOL     OW14322   2.731   4.694   0.857
 4759SOL    HW114323   2.782   4.617   0.893
 4759SOL    HW214324   2.689   4.745   0.932
 4760SOL     OW14325   2.943   4.707   0.080
 4760SOL    HW114326   2.941   4.764   6.998
 4760SOL    HW214327   3.022   4.646   0.076
 4761SOL     OW14328   3.708   5.281   0.846
 4761SOL    HW114329   3.631   5.267   0.785
 4761SOL    HW214330   3.709   5.209   0.916
 4762SOL     OW14331   2.093   5.023   1.856
 4762SOL    HW114332   2.028   4.955   1.821
 4762SOL    HW214333   2.078   5.036   1.954
 4763SOL     OW14334   1.943   4.959   0.664
 4763SOL    HW114335   1.961   4.908   0.748
 4763SOL    HW214336   1.989   4.913   0.588
 4764SOL     OW14337   2.544   5.133   1.633
 4764SOL    HW114338   2.464   5.083   1.665
 4764SOL    HW214339   2.543   5.226   1.670
 4765SOL     OW14340   3.666   3.906   1.233
 4765SOL    HW114341   3.682   3.811   1.258
 4765SOL    HW214342   3.679   3.918   1.135
 4766SOL     OW14343   2.293   4.153   0.528
 4766SOL    HW114344   2.323   4.081   0.465
 4766SOL    HW214345   2.239   4.112   0.601
 4767SOL     OW14346   3.554   5.208   1.095
 4767SOL    HW114347   3.474   5.189   1.038
 4767SOL    HW214348   3.563   5.136   1.164
 4768SOL     OW14349   2.197   4.280   1.289
 4768SOL    HW114350   2.253   4.223   1.349
 4768SOL    HW214351   2.212   4.254   1.194
 4769SOL     OW14352   2.689   5.303   0.680
 4769SOL    HW114353   2.677   5.362   0.600
 4769SOL    HW214354   2.613   5.239   0.687
 4770SOL     OW14355   3.293   3.956   1.117
 4770SOL    HW114356   3.316   3.866   1.155
 4770SOL    HW214357   3.238   4.007   1.184
 4771SOL     OW14358   2.872   3.740   1.137
 4771SOL    HW114359   2.808   3.676   1.095
 4771SOL    HW214360   2.963   3.700   1.139
 4772SOL     OW14361   2.646   5.042   0.307
 4772SOL    HW114362   2.612   4.950   0.327
 4772SOL    HW214363   2.722   5.063   0.368
 4773SOL     OW14364   2.485   5.283   1.289
 4773SOL    HW114365   2.483   5.370   1.339
 4773SOL    HW214366   2.576   5.270   1.249
 4774SOL     OW14367   3.215   3.778   0.185
 4774SOL    HW114368   3.255   3.720   0.114
 4774SOL    HW214369   3.128   3.738   0.216
 4775SOL     OW14370   3.147   4.184   0.679
 4775SOL    HW114371   3.098   4.271   0.682
 4775SOL    HW214372   3.149   4.144   0.770
 4776SOL     OW14373   3.447   3.927   0.883
 4776SOL    HW114374   3.390   3.947   0.963
 4776SOL    HW214375   3.451   4.007   0.824
 4777SOL     OW14376   1.944   4.776   0.356
 4777SOL    HW114377   2.034   4.754   0.317
 4777SOL    HW214378   1.892   4.692   0.369
 4778SOL     OW14379   2.750   5.387   0.353
 4778SOL    HW114380   2.675   5.358   0.294
 4778SOL    HW214381   2.722   5.466   0.408
 4779SOL     OW14382   2.083   4.343   1.990
 4779SOL    HW114383   1.992   4.343   2.030
 4779SOL    HW214384   2.077   4.321   1.892
 4780SOL     OW14385   2.085   4.006   2.858
 4780SOL    HW114386   2.117   3.971   2.946
 4780SOL    HW214387   1.992   3.973   2.840
 4781SOL     OW14388   1.862   4.110   2.496
 4781SOL    HW114389   1.778   4.140   2.542
 4781SOL    HW214390   1.844   4.027   2.444
 4782SOL     OW14391   2.431   5.021   3.047
 4782SOL    HW114392   2.340   5.018   3.004
 4782SOL    HW214393   2.448   5.113   3.081
 4783SOL     OW14394   3.427   5.237   2.569
 4783SOL    HW114395   3.384   5.213   2.657
 4783SOL    HW214396   3.356   5.244   2.499
 4784SOL     OW14397   2.995   4.427   2.557
 4784SOL    HW114398   3.047   4.511   2.540
 4784SOL    HW214399   2.945   4.436   2.643
 4785SOL     OW14400   3.631   4.323   2.085
 4785SOL    HW114401   3.608   4.319   1.988
 4785SOL    HW214402   3.594   4.244   2.132
 4786SOL     OW14403   2.606   4.865   2.903
 4786SOL    HW114404   2.538   4.900   2.967
 4786SOL    HW214405   2.650   4.941   2.856
 4787SOL     OW14406   2.736   4.488   3.683
 4787SOL    HW114407   2.723   4.556   3.755
 4787SOL    HW214408   2.760   4.535   3.597
 4788SOL     OW14409   2.546   4.723   2.511
 4788SOL    HW114410   2.617   4.713   2.580
 4788SOL    HW214411   2.471   4.779   2.547
 4789SOL     OW14412   2.573   4.877   3.680
 4789SOL    HW114413   2.626   4.956   3.713
 4789SOL    HW214414   2.488   4.909   3.638
 4790SOL     OW14415   2.189   5.147   2.928
 4790SOL    HW114416   2.112   5.102   2.881
 4790SOL    HW214417   2.241   5.200   2.861
 4791SOL     OW14418   3.320   5.226   3.220
 4791SOL    HW114419   3.378   5.307   3.227
 4791SOL    HW214420   3.249   5.228   3.291
 4792SOL     OW14421   2.312   4.119   3.342
 4792SOL    HW114422   2.394   4.061   3.349
 4792SOL    HW214423   2.230   4.063   3.356
 4793SOL     OW14424   3.473   4.170   2.606
 4793SOL    HW114425   3.398   4.189   2.543
 4793SOL    HW214426   3.482   4.246   2.672
 4794SOL     OW14427   2.084   5.438   2.333
 4794SOL    HW114428   2.102   5.517   2.393
 4794SOL    HW214429   2.159   5.428   2.268
 4795SOL     OW14430   2.999   5.064   3.560
 4795SOL    HW114431   3.046   5.062   3.648
 4795SOL    HW214432   2.943   4.982   3.550
 4796SOL     OW14433   2.095   5.167   2.398
 4796SOL    HW114434   2.079   5.266   2.397
 4796SOL    HW214435   2.035   5.124   2.465
 4797SOL     OW14436   2.132   4.814   2.763
 4797SOL    HW114437   2.127   4.720   2.796
 4797SOL    HW214438   2.069   4.871   2.816
 4798SOL     OW14439   2.461   5.520   3.288
 4798SOL    HW114440   2.378   5.497   3.338
 4798SOL    HW214441   2.492   5.611   3.316
 4799SOL     OW14442   2.444   4.711   2.003
 4799SOL    HW114443   2.492   4.758   1.928
 4799SOL    HW214444   2.484   4.739   2.090
 4800SOL     OW14445   3.437   3.876   3.324
 4800SOL    HW114446   3.470   3.958   3.277
 4800SOL    HW214447   3.429   3.894   3.422
 4801SOL     OW14448   1.976   4.385   2.426
 4801SOL    HW114449   1.947   4.290   2.442
 4801SOL    HW214450   1.970   4.437   2.511
 4802SOL     OW14451   3.708   5.480   2.195
 4802SOL    HW114452   3.778   5.449   2.259
 4802SOL    HW214453   3.724   5.575   2.171
 4803SOL     OW14454   1.891   5.314   1.985
 4803SOL    HW114455   1.875   5.218   2.004
 4803SOL    HW214456   1.871   5.368   2.067
 4804SOL     OW14457   3.553   4.645   2.509
 4804SOL    HW114458   3.638   4.594   2.493
 4804SOL    HW214459   3.530   4.698   2.428
 4805SOL     OW14460   3.514   4.829   2.294
 4805SOL    HW114461   3.603   4.825   2.248
 4805SOL    HW214462   3.517   4.895   2.368
 4806SOL     OW14463   1.985   4.472   3.445
 4806SOL    HW114464   2.081   4.499   3.447
 4806SOL    HW214465   1.927   4.553   3.447
 4807SOL     OW14466   2.474   5.115   2.596
 4807SOL    HW114467   2.428   5.027   2.608
 4807SOL    HW214468   2.461   5.146   2.501
 4808SOL     OW14469   3.150   4.959   3.284
 4808SOL    HW114470   3.177   4.888   3.218
 4808SOL    HW214471   3.210   4.955   3.364
 4809SOL     OW14472   2.679   3.733   2.370
 4809SOL    HW114473   2.725   3.819   2.348
 4809SOL    HW214474   2.581   3.749   2.378
 4810SOL     OW14475   2.052   4.685   3.139
 4810SOL    HW114476   2.141   4.642   3.124
 4810SOL    HW214477   1.983   4.639   3.084
 4811SOL     OW14478   3.394   4.724   2.066
 4811SOL    HW114479   3.320   4.664   2.096
 4811SOL    HW214480   3.441   4.762   2.146
 4812SOL     OW14481   3.043   5.535   3.484
 4812SOL    HW114482   3.051   5.604   3.412
 4812SOL    HW214483   3.064   5.445   3.447
 4813SOL     OW14484   2.181   3.999   3.681
 4813SOL    HW114485   2.233   4.076   3.717
 4813SOL    HW214486   2.088   4.002   3.717
 4814SOL     OW14487   3.327   5.144   2.809
 4814SOL    HW114488   3.260   5.163   2.881
 4814SOL    HW214489   3.318   5.049   2.781
 4815SOL     OW14490   3.512   5.473   2.438
 4815SOL    HW114491   3.495   5.444   2.344
 4815SOL    HW214492   3.491   5.398   2.500
 4816SOL     OW14493   2.457   4.443   2.135
 4816SOL    HW114494   2.462   4.528   2.083
 4816SOL    HW214495   2.387   4.452   2.206
 4817SOL     OW14496   3.139   4.083   2.795
 4817SOL    HW114497   3.045   4.048   2.802
 4817SOL    HW214498   3.199   4.030   2.856
 4818SOL     OW14499   3.445   5.397   2.170
 4818SOL    HW114500   3.541   5.424   2.166
 4818SOL    HW214501   3.412   5.379   2.077
 4819SOL     OW14502   2.652   4.337   3.311
 4819SOL    HW114503   2.626   4.314   3.405
 4819SOL    HW214504   2.614   4.269   3.248
 4820SOL     OW14505   3.253   4.195   3.542
 4820SOL    HW114506   3.253   4.245   3.629
 4820SOL    HW214507   3.316   4.118   3.547
 4821SOL     OW14508   2.814   4.609   3.445
 4821SOL    HW114509   2.872   4.537   3.407
 4821SOL    HW214510   2.761   4.651   3.372
 4822SOL     OW14511   2.856   4.134   3.088
 4822SOL    HW114512   2.766   4.155   3.127
 4822SOL    HW214513   2.845   4.082   3.004
 4823SOL     OW14514   2.912   4.423   2.287
 4823SOL    HW114515   2.934   4.418   2.384
 4823SOL    HW214516   2.826   4.375   2.270
 4824SOL     OW14517   1.951   4.551   2.642
 4824SOL    HW114518   2.036   4.539   2.692
 4824SOL    HW214519   1.901   4.630   2.678
 4825SOL     OW14520   1.990   5.595   3.449
 4825SOL    HW114521   1.995   5.568   3.546
 4825SOL    HW214522   1.905   5.563   3.410
 4826SOL     OW14523   2.758   4.077   2.059
 4826SOL    HW114524   2.798   4.144   1.997
 4826SOL    HW214525   2.767   3.985   2.019
 4827SOL     OW14526   3.561   4.297   3.688
 4827SOL    HW114527   3.526   4.376   3.638
 4827SOL    HW214528   3.593   4.228   3.623
 4828SOL     OW14529   3.241   4.867   2.396
 4828SOL    HW114530   3.326   4.851   2.345
 4828SOL    HW214531   3.185   4.934   2.348
 4829SOL     OW14532   2.409   3.897   2.761
 4829SOL    HW114533   2.413   3.929   2.856
 4829SOL    HW214534   2.412   3.976   2.700
 4830SOL     OW14535   2.857   5.167   2.326
 4830SOL    HW114536   2.825   5.247   2.276
 4830SOL    HW214537   2.841   5.180   2.424
 4831SOL     OW14538   2.218   5.538   2.732
 4831SOL    HW114539   2.262   5.448   2.739
 4831SOL    HW214540   2.285   5.610   2.751
 4832SOL     OW14541   3.660   4.781   2.734
 4832SOL    HW114542   3.609   4.757   2.651
 4832SOL    HW214543   3.597   4.786   2.811
 4833SOL     OW14544   3.088   5.260   3.376
 4833SOL    HW114545   3.076   5.186   3.442
 4833SOL    HW214546   3.021   5.252   3.303
 4834SOL     OW14547   2.184   4.683   2.116
 4834SOL    HW114548   2.271   4.703   2.073
 4834SOL    HW214549   2.147   4.598   2.078
 4835SOL     OW14550   3.345   4.474   2.585
 4835SOL    HW114551   3.339   4.429   2.674
 4835SOL    HW214552   3.426   4.533   2.583
 4836SOL     OW14553   2.330   4.989   3.593
 4836SOL    HW114554   2.304   4.995   3.497
 4836SOL    HW214555   2.248   4.986   3.650
 4837SOL     OW14556   2.984   5.500   2.088
 4837SOL    HW114557   2.905   5.462   2.137
 4837SOL    HW214558   3.013   5.436   2.018
 4838SOL     OW14559   2.063   4.003   3.364
 4838SOL    HW114560   1.989   4.066   3.341
 4838SOL    HW214561   2.047   3.965   3.455
 4839SOL     OW14562   3.487   5.106   1.950
 4839SOL    HW114563   3.448   5.197   1.935
 4839SOL    HW214564   3.417   5.036   1.931
 4840SOL     OW14565   2.327   5.459   2.181
 4840SOL    HW114566   2.368   5.521   2.247
 4840SOL    HW214567   2.398   5.422   2.120
 4841SOL     OW14568   3.263   3.828   2.298
 4841SOL    HW114569   3.252   3.803   2.202
 4841SOL    HW214570   3.361   3.837   2.319
 4842SOL     OW14571   2.120   5.516   3.088
 4842SOL    HW114572   2.171   5.443   3.135
 4842SOL    HW214573   2.102   5.488   2.994
 4843SOL     OW14574   2.798   5.426   2.759
 4843SOL    HW114575   2.881   5.379   2.789
 4843SOL    HW214576   2.756   5.374   2.684
 4844SOL     OW14577   2.257   4.412   2.337
 4844SOL    HW114578   2.278   4.315   2.350
 4844SOL    HW214579   2.160   4.429   2.354
 4845SOL     OW14580   3.389   3.948   3.591
 4845SOL    HW114581   3.400   3.968   3.688
 4845SOL    HW214582   3.310   3.888   3.578
 4846SOL     OW14583   2.503   3.841   1.964
 4846SOL    HW114584   2.571   3.772   1.986
 4846SOL    HW214585   2.447   3.809   1.887
 4847SOL     OW14586   2.631   4.012   3.611
 4847SOL    HW114587   2.713   3.955   3.613
 4847SOL    HW214588   2.572   3.989   3.688
 4848SOL     OW14589   2.736   5.238   3.055
 4848SOL    HW114590   2.717   5.203   2.963
 4848SOL    HW214591   2.809   5.185   3.097
 4849SOL     OW14592   3.201   4.314   3.298
 4849SOL    HW114593   3.232   4.279   3.387
 4849SOL    HW214594   3.237   4.407   3.285
 4850SOL     OW14595   2.682   5.113   2.803
 4850SOL    HW114596   2.772   5.102   2.761
 4850SOL    HW214597   2.612   5.119   2.731
 4851SOL     OW14598   2.788   4.231   2.760
 4851SOL    HW114599   2.762   4.224   2.664
 4851SOL    HW214600   2.821   4.143   2.792
 4852SOL     OW14601   2.409   3.788   2.356
 4852SOL    HW114602   2.327   3.786   2.413
 4852SOL    HW214603   2.406   3.869   2.297
 4853SOL     OW14604   3.288   4.923   1.905
 4853SOL    HW114605   3.321   4.845   1.958
 4853SOL    HW214606   3.199   4.952   1.941
 4854SOL     OW14607   2.152   3.772   2.048
 4854SOL    HW114608   2.205   3.844   2.001
 4854SOL    HW214609   2.215   3.708   2.091
 4855SOL     OW14610   2.808   3.975   2.318
 4855SOL    HW114611   2.777   4.016   2.233
 4855SOL    HW214612   2.907   3.988   2.327
 4856SOL     OW14613   2.941   4.407   3.317
 4856SOL    HW114614   2.867   4.341   3.322
 4856SOL    HW214615   3.029   4.359   3.313
 4857SOL     OW14616   3.082   5.294   2.656
 4857SOL    HW114617   3.096   5.363   2.586
 4857SOL    HW214618   3.153   5.301   2.726
 4858SOL     OW14619   2.331   4.875   2.590
 4858SOL    HW114620   2.264   4.855   2.662
 4858SOL    HW214621   2.288   4.863   2.500
 4859SOL     OW14622   3.125   5.516   2.472
 4859SOL    HW114623   3.177   5.578   2.413
 4859SOL    HW214624   3.052   5.566   2.518
 4860SOL     OW14625   2.883   4.260   1.891
 4860SOL    HW114626   2.838   4.346   1.868
 4860SOL    HW214627   2.953   4.277   1.961
 4861SOL     OW14628   1.951   4.279   3.256
 4861SOL    HW114629   2.045   4.278   3.221
 4861SOL    HW214630   1.942   4.352   3.324
 4862SOL     OW14631   2.421   3.950   3.032
 4862SOL    HW114632   2.472   3.874   3.072
 4862SOL    HW214633   2.326   3.946   3.063
 4863SOL     OW14634   2.727   4.182   2.498
 4863SOL    HW114635   2.680   4.244   2.436
 4863SOL    HW214636   2.756   4.100   2.449
 4864SOL     OW14637   2.878   3.777   2.608
 4864SOL    HW114638   2.818   3.777   2.528
 4864SOL    HW214639   2.854   3.701   2.668
 4865SOL     OW14640   3.307   4.885   2.720
 4865SOL    HW114641   3.231   4.820   2.724
 4865SOL    HW214642   3.337   4.896   2.625
 4866SOL     OW14643   3.329   4.332   2.832
 4866SOL    HW114644   3.268   4.253   2.832
 4866SOL    HW214645   3.391   4.326   2.911
 4867SOL     OW14646   3.704   4.533   2.242
 4867SOL    HW114647   3.762   4.486   2.307
 4867SOL    HW214648   3.674   4.469   2.171
 4868SOL     OW14649   2.349   5.144   2.017
 4868SOL    HW114650   2.269   5.118   2.070
 4868SOL    HW214651   2.347   5.099   1.928
 4869SOL     OW14652   3.537   4.991   2.506
 4869SOL    HW114653   3.636   4.988   2.517
 4869SOL    HW214654   3.503   5.083   2.526
 4870SOL     OW14655   3.252   4.298   1.933
 4870SOL    HW114656   3.189   4.276   2.007
 4870SOL    HW214657   3.345   4.272   1.958
 4871SOL     OW14658   2.390   3.988   2.172
 4871SOL    HW114659   2.438   3.936   2.101
 4871SOL    HW214660   2.361   4.076   2.134
 4872SOL     OW14661   3.615   4.965   3.423
 4872SOL    HW114662   3.704   4.923   3.410
 4872SOL    HW214663   3.626   5.058   3.457
 4873SOL     OW14664   2.916   5.074   3.198
 4873SOL    HW114665   2.834   5.044   3.248
 4873SOL    HW214666   2.997   5.034   3.240
 4874SOL     OW14667   3.475   5.353   3.519
 4874SOL    HW114668   3.460   5.389   3.427
 4874SOL    HW214669   3.561   5.302   3.521
 4875SOL     OW14670   2.999   4.943   2.967
 4875SOL    HW114671   2.939   4.977   3.039
 4875SOL    HW214672   2.965   4.974   2.878
 4876SOL     OW14673   3.486   4.820   2.941
 4876SOL    HW114674   3.482   4.886   3.017
 4876SOL    HW214675   3.410   4.837   2.879
 4877SOL     OW14676   2.780   3.827   3.245
 4877SOL    HW114677   2.804   3.798   3.153
 4877SOL    HW214678   2.857   3.878   3.285
 4878SOL     OW14679   2.841   4.839   3.583
 4878SOL    HW114680   2.747   4.858   3.610
 4878SOL    HW214681   2.843   4.756   3.527
 4879SOL     OW14682   2.575   4.783   2.235
 4879SOL    HW114683   2.557   4.765   2.332
 4879SOL    HW214684   2.654   4.729   2.205
 4880SOL     OW14685   2.284   4.539   3.116
 4880SOL    HW114686   2.357   4.552   3.183
 4880SOL    HW214687   2.246   4.448   3.126
 4881SOL     OW14688   3.127   4.110   3.133
 4881SOL    HW114689   3.163   4.188   3.185
 4881SOL    HW214690   3.032   4.128   3.108
 4882SOL     OW14691   1.936   5.296   3.215
 4882SOL    HW114692   1.901   5.366   3.154
 4882SOL    HW214693   2.036   5.294   3.209
 4883SOL     OW14694   2.204   4.842   2.349
 4883SOL    HW114695   2.209   4.924   2.292
 4883SOL    HW214696   2.202   4.761   2.290
 4884SOL     OW14697   2.410   4.267   2.724
 4884SOL    HW114698   2.424   4.326   2.645
 4884SOL    HW214699   2.480   4.288   2.793
 4885SOL     OW14700   3.108   5.079   2.254
 4885SOL    HW114701   3.169   5.151   2.285
 4885SOL    HW214702   3.015   5.098   2.285
 4886SOL     OW14703   3.150   5.186   3.009
 4886SOL    HW114704   3.208   5.191   3.090
 4886SOL    HW214705   3.095   5.102   3.014
 4887SOL     OW14706   3.439   4.345   2.345
 4887SOL    HW114707   3.388   4.393   2.416
 4887SOL    HW214708   3.487   4.411   2.287
 4888SOL     OW14709   2.210   5.254   3.171
 4888SOL    HW114710   2.194   5.209   3.084
 4888SOL    HW214711   2.308   5.268   3.184
 4889SOL     OW14712   2.279   4.469   3.463
 4889SOL    HW114713   2.343   4.517   3.403
 4889SOL    HW214714   2.316   4.379   3.487
 4890SOL     OW14715   3.470   4.509   3.546
 4890SOL    HW114716   3.379   4.551   3.544
 4890SOL    HW214717   3.527   4.550   3.475
 4891SOL     OW14718   2.863   3.869   3.623
 4891SOL    HW114719   2.913   3.954   3.605
 4891SOL    HW214720   2.912   3.792   3.581
 4892SOL     OW14721   2.378   3.840   3.608
 4892SOL    HW114722   2.355   3.768   3.543
 4892SOL    HW214723   2.299   3.899   3.623
 4893SOL     OW14724   2.447   4.595   2.897
 4893SOL    HW114725   2.482   4.689   2.893
 4893SOL    HW214726   2.386   4.586   2.975
 4894SOL     OW14727   3.214   4.581   2.887
 4894SOL    HW114728   3.123   4.573   2.844
 4894SOL    HW214729   3.263   4.494   2.877
 4895SOL     OW14730   3.060   4.250   2.126
 4895SOL    HW114731   3.072   4.168   2.181
 4895SOL    HW214732   3.016   4.321   2.182
 4896SOL     OW14733   2.162   3.917   3.111
 4896SOL    HW114734   2.118   3.953   3.193
 4896SOL    HW214735   2.147   3.819   3.105
 4897SOL     OW14736   1.915   5.034   3.137
 4897SOL    HW114737   1.946   4.973   3.210
 4897SOL    HW214738   1.917   5.128   3.170
 4898SOL     OW14739   2.587   4.355   2.917
 4898SOL    HW114740   2.663   4.335   2.856
 4898SOL    HW214741   2.552   4.446   2.898
 4899SOL     OW14742   3.598   4.684   3.718
 4899SOL    HW114743   3.555   4.616   3.659
 4899SOL    HW214744   3.538   4.704   3.796
 4900SOL     OW14745   2.168   3.785   2.490
 4900SOL    HW114746   2.144   3.881   2.508
 4900SOL    HW214747   2.180   3.737   2.576
 4901SOL     OW14748   3.489   4.105   2.224
 4901SOL    HW114749   3.515   4.031   2.286
 4901SOL    HW214750   3.460   4.185   2.277
 4902SOL     OW14751   2.885   4.479   2.820
 4902SOL    HW114752   2.881   4.501   2.917
 4902SOL    HW214753   2.859   4.384   2.805
 4903SOL     OW14754   2.843   5.287   3.579
 4903SOL    HW114755   2.826   5.334   3.493
 4903SOL    HW214756   2.891   5.201   3.561
 4904SOL     OW14757   3.717   5.227   3.466
 4904SOL    HW114758   3.736   5.254   3.371
 4904SOL    HW214759   3.800   5.239   3.520
 4905SOL     OW14760   2.215   4.641   3.667
 4905SOL    HW114761   2.295   4.664   3.723
 4905SOL    HW214762   2.241   4.576   3.596
 4906SOL     OW14763   3.389   3.993   1.992
 4906SOL    HW114764   3.320   3.925   2.017
 4906SOL    HW214765   3.426   4.035   2.075
 4907SOL     OW14766   3.151   4.550   1.888
 4907SOL    HW114767   3.191   4.459   1.897
 4907SOL    HW214768   3.182   4.592   1.803
 4908SOL     OW14769   2.932   5.062   2.717
 4908SOL    HW114770   2.936   4.984   2.654
 4908SOL    HW214771   2.991   5.135   2.683
 4909SOL     OW14772   2.173   4.530   2.805
 4909SOL    HW114773   2.270   4.556   2.799
 4909SOL    HW214774   2.166   4.436   2.837
 4910SOL     OW14775   2.189   4.251   2.874
 4910SOL    HW114776   2.151   4.160   2.863
 4910SOL    HW214777   2.270   4.260   2.815
 4911SOL     OW14778   2.994   4.104   3.555
 4911SOL    HW114779   2.943   4.162   3.618
 4911SOL    HW214780   3.088   4.137   3.547
 4912SOL     OW14781   3.010   3.954   3.325
 4912SOL    HW114782   3.000   4.015   3.403
 4912SOL    HW214783   3.059   4.002   3.252
 4913SOL     OW14784   1.863   5.039   2.057
 4913SOL    HW114785   1.773   5.059   2.017
 4913SOL    HW214786   1.864   4.946   2.092
 4914SOL     OW14787   1.955   5.507   2.806
 4914SOL    HW114788   1.919   5.426   2.760
 4914SOL    HW214789   2.049   5.524   2.773
 4915SOL     OW14790   2.356   5.300   2.767
 4915SOL    HW114791   2.425   5.366   2.794
 4915SOL    HW214792   2.396   5.232   2.705
 4916SOL     OW14793   2.837   4.518   3.086
 4916SOL    HW114794   2.897   4.494   3.162
 4916SOL    HW214795   2.747   4.476   3.100
 4917SOL     OW14796   1.900   4.277   2.980
 4917SOL    HW114797   1.981   4.263   2.923
 4917SOL    HW214798   1.926   4.277   3.077
 4918SOL     OW14799   2.044   4.250   3.590
 4918SOL    HW114800   2.113   4.208   3.532
 4918SOL    HW214801   2.007   4.331   3.544
 4919SOL     OW14802   3.242   4.659   3.516
 4919SOL    HW114803   3.265   4.757   3.518
 4919SOL    HW214804   3.239   4.627   3.422
 4920SOL     OW14805   2.679   4.296   2.223
 4920SOL    HW114806   2.689   4.217   2.163
 4920SOL    HW214807   2.601   4.351   2.193
 4921SOL     OW14808   3.505   4.327   3.043
 4921SOL    HW114809   3.488   4.267   3.121
 4921SOL    HW214810   3.596   4.310   3.006
 4922SOL     OW14811   2.102   5.271   3.588
 4922SOL    HW114812   2.080   5.346   3.651
 4922SOL    HW214813   2.108   5.185   3.639
 4923SOL     OW14814   2.569   4.172   3.115
 4923SOL    HW114815   2.511   4.094   3.089
 4923SOL    HW214816   2.566   4.241   3.042
 4924SOL     OW14817   2.782   5.405   3.333
 4924SOL    HW114818   2.756   5.359   3.248
 4924SOL    HW214819   2.782   5.504   3.319
 4925SOL     OW14820   2.321   4.219   2.048
 4925SOL    HW114821   2.385   4.292   2.072
 4925SOL    HW214822   2.230   4.259   2.034
 4926SOL     OW14823   2.004   4.862   3.338
 4926SOL    HW114824   2.005   4.817   3.427
 4926SOL    HW214825   2.024   4.794   3.266
 4927SOL     OW14826   3.177   4.767   3.081
 4927SOL    HW114827   3.205   4.700   3.013
 4927SOL    HW214828   3.110   4.830   3.041
 4928SOL     OW14829   3.177   4.581   2.161
 4928SOL    HW114830   3.101   4.553   2.220
 4928SOL    HW214831   3.152   4.568   2.065
 4929SOL     OW14832   3.642   5.454   3.018
 4929SOL    HW114833   3.703   5.488   2.947
 4929SOL    HW214834   3.611   5.362   2.994
 4930SOL     OW14835   3.103   5.457   2.967
 4930SOL    HW114836   3.189   5.486   2.924
 4930SOL    HW214837   3.109   5.360   2.991
 4931SOL     OW14838   1.948   4.988   2.873
 4931SOL    HW114839   1.933   5.004   2.970
 4931SOL    HW214840   1.875   4.931   2.836
 4932SOL     OW14841   2.542   5.397   3.598
 4932SOL    HW114842   2.480   5.475   3.593
 4932SOL    HW214843   2.616   5.409   3.531
 4933SOL     OW14844   3.581   3.874   2.360
 4933SOL    HW114845   3.657   3.863   2.296
 4933SOL    HW214846   3.564   3.786   2.406
 4934SOL     OW14847   3.257   5.294   2.349
 4934SOL    HW114848   3.320   5.326   2.279
 4934SOL    HW214849   3.202   5.371   2.382
 4935SOL     OW14850   2.008   5.511   3.708
 4935SOL    HW114851   1.950   5.443   3.753
 4935SOL    HW214852   2.057   5.564   3.776
 4936SOL     OW14853   3.144   4.652   2.528
 4936SOL    HW114854   3.219   4.588   2.544
 4936SOL    HW214855   3.177   4.729   2.473
 4937SOL     OW14856   2.666   5.002   3.288
 4937SOL    HW114857   2.636   5.046   3.374
 4937SOL    HW214858   2.597   5.018   3.218
 4938SOL     OW14859   2.530   5.345   2.016
 4938SOL    HW114860   2.547   5.364   1.919
 4938SOL    HW214861   2.472   5.265   2.025
 4939SOL     OW14862   3.479   5.453   3.249
 4939SOL    HW114863   3.536   5.453   3.167
 4939SOL    HW214864   3.465   5.546   3.281
 4940SOL     OW14865   3.705   3.894   2.824
 4940SOL    HW114866   3.740   3.803   2.800
 4940SOL    HW214867   3.613   3.905   2.786
 4941SOL     OW14868   2.117   4.038   2.577
 4941SOL    HW114869   2.029   4.075   2.550
 4941SOL    HW214870   2.121   4.030   2.677
 4942SOL     OW14871   3.070   5.325   1.895
 4942SOL    HW114872   3.061   5.231   1.928
 4942SOL    HW214873   3.003   5.342   1.823
 4943SOL     OW14874   2.685   4.734   3.240
 4943SOL    HW114875   2.736   4.718   3.155
 4943SOL    HW214876   2.682   4.832   3.260
 4944SOL     OW14877   2.782   4.635   2.149
 4944SOL    HW114878   2.843   4.670   2.078
 4944SOL    HW214879   2.829   4.563   2.201
 4945SOL     OW14880   3.350   5.354   1.904
 4945SOL    HW114881   3.252   5.343   1.893
 4945SOL    HW214882   3.394   5.359   1.814
 4946SOL     OW14883   2.228   5.027   3.349
 4946SOL    HW114884   2.218   5.107   3.290
 4946SOL    HW214885   2.148   4.968   3.338
 4947SOL     OW14886   3.475   5.008   3.146
 4947SOL    HW114887   3.539   4.989   3.221
 4947SOL    HW214888   3.409   5.078   3.175
 4948SOL     OW14889   2.923   4.831   2.577
 4948SOL    HW114890   2.847   4.780   2.617
 4948SOL    HW214891   2.992   4.766   2.543
 4949SOL     OW14892   2.884   3.963   2.830
 4949SOL    HW114893   2.880   3.920   2.740
 4949SOL    HW214894   2.882   3.893   2.901
 4950SOL     OW14895   2.467   5.210   2.342
 4950SOL    HW114896   2.518   5.156   2.275
 4950SOL    HW214897   2.392   5.259   2.296
 4951SOL     OW14898   3.593   4.116   3.243
 4951SOL    HW114899   3.665   4.186   3.243
 4951SOL    HW214900   3.620   4.041   3.182
 4952SOL     OW14901   2.115   5.072   2.151
 4952SOL    HW114902   2.019   5.065   2.123
 4952SOL    HW214903   2.121   5.110   2.243
 4953SOL     OW14904   1.976   4.757   3.590
 4953SOL    HW114905   1.895   4.730   3.640
 4953SOL    HW214906   2.057   4.712   3.629
 4954SOL     OW14907   2.542   3.913   3.358
 4954SOL    HW114908   2.629   3.895   3.313
 4954SOL    HW214909   2.558   3.948   3.450
 4955SOL     OW14910   1.944   4.052   1.891
 4955SOL    HW114911   1.852   4.028   1.860
 4955SOL    HW214912   1.975   4.134   1.843
 4956SOL     OW14913   3.285   4.581   3.257
 4956SOL    HW114914   3.230   4.644   3.203
 4956SOL    HW214915   3.379   4.582   3.223
 4957SOL     OW14916   1.925   3.879   2.164
 4957SOL    HW114917   1.908   3.963   2.113
 4957SOL    HW214918   2.014   3.841   2.137
 4958SOL     OW14919   3.042   5.061   1.983
 4958SOL    HW114920   2.947   5.031   1.976
 4958SOL    HW214921   3.070   5.063   2.079
 4959SOL     OW14922   2.486   4.554   3.295
 4959SOL    HW114923   2.543   4.635   3.281
 4959SOL    HW214924   2.544   4.473   3.305
 4960SOL     OW14925   3.347   5.512   2.850
 4960SOL    HW114926   3.368   5.574   2.774
 4960SOL    HW214927   3.432   5.478   2.889
 4961SOL     OW14928   2.581   4.286   3.564
 4961SOL    HW114929   2.627   4.352   3.623
 4961SOL    HW214930   2.605   4.193   3.592
 4962SOL     OW14931   3.336   4.920   3.496
 4962SOL    HW114932   3.321   4.933   3.594
 4962SOL    HW214933   3.432   4.939   3.475
 4963SOL     OW14934   2.233   5.462   3.429
 4963SOL    HW114935   2.149   5.514   3.414
 4963SOL    HW214936   2.211   5.374   3.471
 4964SOL     OW14937   3.527   4.602   3.118
 4964SOL    HW114938   3.523   4.511   3.077
 4964SOL    HW214939   3.515   4.671   3.047
 4965SOL     OW14940   3.081   4.040   2.322
 4965SOL    HW114941   3.145   3.964   2.312
 4965SOL    HW214942   3.108   4.096   2.401
 4966SOL     OW14943   2.448   4.461   2.531
 4966SOL    HW114944   2.490   4.551   2.520
 4966SOL    HW214945   2.379   4.447   2.460
 4967SOL     OW14946   3.612   4.089   3.516
 4967SOL    HW114947   3.605   4.104   3.417
 4967SOL    HW214948   3.538   4.029   3.546
 4968SOL     OW14949   3.613   4.656   3.372
 4968SOL    HW114950   3.603   4.753   3.393
 4968SOL    HW214951   3.593   4.641   3.275
 4969SOL     OW14952   2.728   5.088   1.905
 4969SOL    HW114953   2.687   5.112   1.993
 4969SOL    HW214954   2.743   5.171   1.852
 4970SOL     OW14955   2.527   5.509   2.804
 4970SOL    HW114956   2.503   5.604   2.783
 4970SOL    HW214957   2.625   5.496   2.793
 4971SOL     OW14958   2.731   4.694   2.718
 4971SOL    HW114959   2.782   4.616   2.755
 4971SOL    HW214960   2.689   4.745   2.794
 4972SOL     OW14961   2.940   4.714   1.946
 4972SOL    HW114962   2.912   4.767   1.866
 4972SOL    HW214963   3.017   4.655   1.922
 4973SOL     OW14964   3.708   5.280   2.709
 4973SOL    HW114965   3.631   5.268   2.646
 4973SOL    HW214966   3.704   5.211   2.781
 4974SOL     OW14967   2.093   5.023   3.719
 4974SOL    HW114968   2.027   4.957   3.684
 4974SOL    HW214969   2.079   5.037   3.817
 4975SOL     OW14970   1.949   4.954   2.526
 4975SOL    HW114971   1.953   4.908   2.614
 4975SOL    HW214972   2.017   4.914   2.464
 4976SOL     OW14973   2.544   5.133   3.496
 4976SOL    HW114974   2.463   5.083   3.527
 4976SOL    HW214975   2.543   5.226   3.532
 4977SOL     OW14976   3.672   3.908   3.095
 4977SOL    HW114977   3.673   3.812   3.123
 4977SOL    HW214978   3.683   3.915   2.996
 4978SOL     OW14979   2.293   4.152   2.389
 4978SOL    HW114980   2.326   4.082   2.326
 4978SOL    HW214981   2.238   4.109   2.460
 4979SOL     OW14982   3.555   5.207   2.956
 4979SOL    HW114983   3.474   5.189   2.900
 4979SOL    HW214984   3.564   5.135   3.026
 4980SOL     OW14985   2.197   4.280   3.150
 4980SOL    HW114986   2.255   4.224   3.209
 4980SOL    HW214987   2.213   4.255   3.055
 4981SOL     OW14988   2.691   5.304   2.540
 4981SOL    HW114989   2.677   5.365   2.463
 4981SOL    HW214990   2.614   5.240   2.546
 4982SOL     OW14991   3.293   3.955   2.978
 4982SOL    HW114992   3.318   3.867   3.018
 4982SOL    HW214993   3.240   4.008   3.043
 4983SOL     OW14994   2.872   3.738   2.999
 4983SOL    HW114995   2.810   3.675   2.952
 4983SOL    HW214996   2.963   3.698   3.003
 4984SOL     OW14997   2.636   5.056   2.183
 4984SOL    HW114998   2.608   4.960   2.191
 4984SOL    HW214999   2.721   5.070   2.234
 4985SOL     OW15000   2.485   5.283   3.152
 4985SOL    HW115001   2.483   5.370   3.201
 4985SOL    HW215002   2.576   5.270   3.111
 4986SOL     OW15003   3.216   3.774   2.032
 4986SOL    HW115004   3.259   3.706   1.972
 4986SOL    HW215005   3.123   3.745   2.054
 4987SOL     OW15006   3.153   4.188   2.542
 4987SOL    HW115007   3.100   4.273   2.544
 4987SOL    HW215008   3.151   4.146   2.633
 4988SOL     OW15009   3.448   3.927   2.745
 4988SOL    HW115010   3.390   3.946   2.824
 4988SOL    HW215011   3.450   4.008   2.686
 4989SOL     OW15012   1.905   4.788   2.170
 4989SOL    HW115013   2.003   4.788   2.150
 4989SOL    HW215014   1.875   4.695   2.192
 4990SOL     OW15015   2.746   5.386   2.202
 4990SOL    HW115016   2.671   5.365   2.140
 4990SOL    HW215017   2.720   5.464   2.260
 4991SOL     OW15018   2.083   4.339   3.851
 4991SOL    HW115019   1.993   4.343   3.895
 4991SOL    HW215020   2.072   4.321   3.754
 4992SOL     OW15021   2.085   4.007   4.719
 4992SOL    HW115022   2.117   3.972   4.807
 4992SOL    HW215023   1.991   3.974   4.702
 4993SOL     OW15024   1.862   4.109   4.357
 4993SOL    HW115025   1.779   4.139   4.403
 4993SOL    HW215026   1.844   4.026   4.305
 4994SOL     OW15027   2.431   5.021   4.909
 4994SOL    HW115028   2.340   5.018   4.866
 4994SOL    HW215029   2.448   5.114   4.943
 4995SOL     OW15030   3.427   5.237   4.431
 4995SOL    HW115031   3.384   5.213   4.519
 4995SOL    HW215032   3.356   5.244   4.361
 4996SOL     OW15033   2.995   4.427   4.419
 4996SOL    HW115034   3.047   4.511   4.402
 4996SOL    HW215035   2.945   4.436   4.505
 4997SOL     OW15036   3.631   4.324   3.947
 4997SOL    HW115037   3.607   4.319   3.850
 4997SOL    HW215038   3.594   4.243   3.994
 4998SOL     OW15039   2.606   4.865   4.765
 4998SOL    HW115040   2.538   4.899   4.829
 4998SOL    HW215041   2.650   4.941   4.718
 4999SOL     OW15042   2.736   4.488   5.545
 4999SOL    HW115043   2.724   4.557   5.617
 4999SOL    HW215044   2.760   4.534   5.459
 5000SOL     OW15045   2.546   4.722   4.373
 5000SOL    HW115046   2.617   4.712   4.442
 5000SOL    HW215047   2.471   4.778   4.409
 5001SOL     OW15048   2.573   4.877   5.542
 5001SOL    HW115049   2.626   4.956   5.575
 5001SOL    HW215050   2.488   4.909   5.500
 5002SOL     OW15051   2.189   5.147   4.790
 5002SOL    HW115052   2.112   5.102   4.743
 5002SOL    HW215053   2.241   5.200   4.723
 5003SOL     OW15054   3.320   5.226   5.082
 5003SOL    HW115055   3.377   5.307   5.089
 5003SOL    HW215056   3.249   5.228   5.153
 5004SOL     OW15057   2.312   4.117   5.203
 5004SOL    HW115058   2.393   4.060   5.210
 5004SOL    HW215059   2.230   4.063   5.221
 5005SOL     OW15060   3.473   4.170   4.469
 5005SOL    HW115061   3.399   4.190   4.405
 5005SOL    HW215062   3.481   4.245   4.535
 5006SOL     OW15063   2.084   5.438   4.195
 5006SOL    HW115064   2.102   5.517   4.255
 5006SOL    HW215065   2.159   5.428   4.130
 5007SOL     OW15066   2.999   5.064   5.422
 5007SOL    HW115067   3.046   5.062   5.510
 5007SOL    HW215068   2.943   4.982   5.412
 5008SOL     OW15069   2.095   5.167   4.260
 5008SOL    HW115070   2.079   5.266   4.259
 5008SOL    HW215071   2.035   5.124   4.327
 5009SOL     OW15072   2.132   4.814   4.625
 5009SOL    HW115073   2.127   4.720   4.658
 5009SOL    HW215074   2.069   4.871   4.678
 5010SOL     OW15075   2.461   5.520   5.150
 5010SOL    HW115076   2.378   5.497   5.200
 5010SOL    HW215077   2.492   5.611   5.178
 5011SOL     OW15078   2.444   4.711   3.865
 5011SOL    HW115079   2.492   4.758   3.790
 5011SOL    HW215080   2.484   4.739   3.952
 5012SOL     OW15081   3.458   3.849   5.193
 5012SOL    HW115082   3.478   3.929   5.136
 5012SOL    HW215083   3.444   3.878   5.288
 5013SOL     OW15084   1.976   4.385   4.288
 5013SOL    HW115085   1.947   4.290   4.304
 5013SOL    HW215086   1.970   4.437   4.373
 5014SOL     OW15087   3.708   5.480   4.057
 5014SOL    HW115088   3.778   5.449   4.121
 5014SOL    HW215089   3.724   5.575   4.033
 5015SOL     OW15090   1.891   5.314   3.847
 5015SOL    HW115091   1.875   5.218   3.866
 5015SOL    HW215092   1.871   5.368   3.929
 5016SOL     OW15093   3.553   4.645   4.371
 5016SOL    HW115094   3.638   4.594   4.354
 5016SOL    HW215095   3.529   4.698   4.290
 5017SOL     OW15096   3.514   4.829   4.156
 5017SOL    HW115097   3.603   4.826   4.110
 5017SOL    HW215098   3.517   4.896   4.230
 5018SOL     OW15099   1.986   4.468   5.309
 5018SOL    HW115100   2.082   4.495   5.310
 5018SOL    HW215101   1.928   4.550   5.311
 5019SOL     OW15102   2.474   5.115   4.458
 5019SOL    HW115103   2.428   5.027   4.470
 5019SOL    HW215104   2.461   5.146   4.363
 5020SOL     OW15105   3.150   4.959   5.146
 5020SOL    HW115106   3.178   4.888   5.080
 5020SOL    HW215107   3.210   4.955   5.226
 5021SOL     OW15108   2.675   3.730   4.227
 5021SOL    HW115109   2.722   3.816   4.207
 5021SOL    HW215110   2.577   3.748   4.237
 5022SOL     OW15111   2.053   4.686   5.001
 5022SOL    HW115112   2.141   4.642   4.986
 5022SOL    HW215113   1.983   4.638   4.947
 5023SOL     OW15114   3.394   4.724   3.928
 5023SOL    HW115115   3.320   4.663   3.958
 5023SOL    HW215116   3.441   4.762   4.008
 5024SOL     OW15117   3.043   5.535   5.346
 5024SOL    HW115118   3.051   5.604   5.274
 5024SOL    HW215119   3.064   5.445   5.309
 5025SOL     OW15120   2.203   3.973   5.556
 5025SOL    HW115121   2.252   4.059   5.571
 5025SOL    HW215122   2.106   3.986   5.575
 5026SOL     OW15123   3.327   5.144   4.671
 5026SOL    HW115124   3.260   5.163   4.743
 5026SOL    HW215125   3.318   5.049   4.643
 5027SOL     OW15126   3.512   5.473   4.300
 5027SOL    HW115127   3.495   5.444   4.206
 5027SOL    HW215128   3.491   5.398   4.362
 5028SOL     OW15129   2.456   4.442   3.996
 5028SOL    HW115130   2.462   4.527   3.945
 5028SOL    HW215131   2.387   4.451   4.068
 5029SOL     OW15132   3.139   4.083   4.657
 5029SOL    HW115133   3.046   4.049   4.664
 5029SOL    HW215134   3.199   4.031   4.718
 5030SOL     OW15135   3.445   5.396   4.032
 5030SOL    HW115136   3.541   5.424   4.028
 5030SOL    HW215137   3.412   5.379   3.939
 5031SOL     OW15138   2.652   4.337   5.173
 5031SOL    HW115139   2.627   4.313   5.267
 5031SOL    HW215140   2.614   4.269   5.111
 5032SOL     OW15141   3.253   4.194   5.403
 5032SOL    HW115142   3.254   4.243   5.490
 5032SOL    HW215143   3.314   4.115   5.410
 5033SOL     OW15144   2.815   4.609   5.307
 5033SOL    HW115145   2.873   4.537   5.269
 5033SOL    HW215146   2.761   4.651   5.234
 5034SOL     OW15147   2.856   4.130   4.953
 5034SOL    HW115148   2.766   4.152   4.991
 5034SOL    HW215149   2.845   4.081   4.867
 5035SOL     OW15150   2.912   4.422   4.149
 5035SOL    HW115151   2.934   4.418   4.246
 5035SOL    HW215152   2.826   4.374   4.132
 5036SOL     OW15153   1.951   4.552   4.504
 5036SOL    HW115154   2.036   4.539   4.554
 5036SOL    HW215155   1.901   4.630   4.540
 5037SOL     OW15156   1.990   5.595   5.312
 5037SOL    HW115157   1.995   5.568   5.408
 5037SOL    HW215158   1.905   5.562   5.271
 5038SOL     OW15159   2.759   4.074   3.917
 5038SOL    HW115160   2.795   4.146   3.857
 5038SOL    HW215161   2.786   3.985   3.882
 5039SOL     OW15162   3.563   4.297   5.550
 5039SOL    HW115163   3.527   4.376   5.500
 5039SOL    HW215164   3.593   4.227   5.485
 5040SOL     OW15165   3.241   4.867   4.258
 5040SOL    HW115166   3.326   4.852   4.207
 5040SOL    HW215167   3.185   4.934   4.210
 5041SOL     OW15168   2.410   3.898   4.625
 5041SOL    HW115169   2.413   3.927   4.720
 5041SOL    HW215170   2.411   3.978   4.565
 5042SOL     OW15171   2.857   5.167   4.188
 5042SOL    HW115172   2.825   5.247   4.138
 5042SOL    HW215173   2.841   5.179   4.286
 5043SOL     OW15174   2.218   5.538   4.594
 5043SOL    HW115175   2.262   5.448   4.601
 5043SOL    HW215176   2.285   5.610   4.613
 5044SOL     OW15177   3.660   4.781   4.596
 5044SOL    HW115178   3.609   4.757   4.513
 5044SOL    HW215179   3.597   4.786   4.673
 5045SOL     OW15180   3.088   5.260   5.238
 5045SOL    HW115181   3.076   5.186   5.304
 5045SOL    HW215182   3.021   5.252   5.165
 5046SOL     OW15183   2.184   4.684   3.978
 5046SOL    HW115184   2.272   4.704   3.935
 5046SOL    HW215185   2.147   4.599   3.941
 5047SOL     OW15186   3.345   4.474   4.447
 5047SOL    HW115187   3.339   4.429   4.536
 5047SOL    HW215188   3.425   4.533   4.444
 5048SOL     OW15189   2.330   4.989   5.455
 5048SOL    HW115190   2.304   4.995   5.359
 5048SOL    HW215191   2.248   4.986   5.512
 5049SOL     OW15192   2.984   5.500   3.951
 5049SOL    HW115193   2.904   5.462   3.999
 5049SOL    HW215194   3.013   5.436   3.880
 5050SOL     OW15195   2.064   3.999   5.227
 5050SOL    HW115196   1.982   4.056   5.223
 5050SOL    HW215197   2.042   3.912   5.271
 5051SOL     OW15198   3.487   5.106   3.812
 5051SOL    HW115199   3.448   5.197   3.797
 5051SOL    HW215200   3.417   5.036   3.793
 5052SOL     OW15201   2.327   5.458   4.043
 5052SOL    HW115202   2.368   5.521   4.109
 5052SOL    HW215203   2.398   5.423   3.982
 5053SOL     OW15204   3.264   3.830   4.163
 5053SOL    HW115205   3.253   3.805   4.067
 5053SOL    HW215206   3.362   3.839   4.184
 5054SOL     OW15207   2.120   5.516   4.950
 5054SOL    HW115208   2.171   5.443   4.996
 5054SOL    HW215209   2.102   5.488   4.856
 5055SOL     OW15210   2.798   5.426   4.621
 5055SOL    HW115211   2.881   5.379   4.651
 5055SOL    HW215212   2.756   5.374   4.546
 5056SOL     OW15213   2.257   4.412   4.198
 5056SOL    HW115214   2.277   4.316   4.213
 5056SOL    HW215215   2.160   4.429   4.216
 5057SOL     OW15216   3.390   3.947   5.452
 5057SOL    HW115217   3.401   3.968   5.549
 5057SOL    HW215218   3.318   3.879   5.440
 5058SOL     OW15219   2.495   3.833   3.846
 5058SOL    HW115220   2.585   3.788   3.840
 5058SOL    HW215221   2.450   3.829   3.757
 5059SOL     OW15222   2.625   4.000   5.481
 5059SOL    HW115223   2.710   3.947   5.475
 5059SOL    HW215224   2.574   3.972   5.562
 5060SOL     OW15225   2.736   5.238   4.917
 5060SOL    HW115226   2.717   5.203   4.825
 5060SOL    HW215227   2.809   5.185   4.959
 5061SOL     OW15228   3.202   4.313   5.159
 5061SOL    HW115229   3.232   4.278   5.248
 5061SOL    HW215230   3.237   4.405   5.146
 5062SOL     OW15231   2.682   5.113   4.665
 5062SOL    HW115232   2.772   5.102   4.623
 5062SOL    HW215233   2.612   5.119   4.593
 5063SOL     OW15234   2.789   4.231   4.622
 5063SOL    HW115235   2.763   4.224   4.526
 5063SOL    HW215236   2.821   4.143   4.655
 5064SOL     OW15237   2.407   3.789   4.221
 5064SOL    HW115238   2.325   3.786   4.278
 5064SOL    HW215239   2.405   3.870   4.163
 5065SOL     OW15240   3.287   4.923   3.767
 5065SOL    HW115241   3.321   4.845   3.820
 5065SOL    HW215242   3.199   4.952   3.803
 5066SOL     OW15243   2.155   3.785   3.931
 5066SOL    HW115244   2.212   3.843   3.873
 5066SOL    HW215245   2.210   3.710   3.968
 5067SOL     OW15246   2.807   3.972   4.180
 5067SOL    HW115247   2.774   4.016   4.097
 5067SOL    HW215248   2.906   3.988   4.189
 5068SOL     OW15249   2.941   4.407   5.179
 5068SOL    HW115250   2.867   4.341   5.185
 5068SOL    HW215251   3.029   4.358   5.175
 5069SOL     OW15252   3.082   5.293   4.518
 5069SOL    HW115253   3.096   5.363   4.448
 5069SOL    HW215254   3.153   5.302   4.588
 5070SOL     OW15255   2.331   4.875   4.452
 5070SOL    HW115256   2.264   4.855   4.524
 5070SOL    HW215257   2.288   4.863   4.362
 5071SOL     OW15258   3.125   5.516   4.334
 5071SOL    HW115259   3.177   5.578   4.275
 5071SOL    HW215260   3.052   5.566   4.380
 5072SOL     OW15261   2.882   4.262   3.754
 5072SOL    HW115262   2.837   4.348   3.730
 5072SOL    HW215263   2.952   4.279   3.824
 5073SOL     OW15264   1.948   4.281   5.115
 5073SOL    HW115265   2.043   4.277   5.083
 5073SOL    HW215266   1.940   4.352   5.185
 5074SOL     OW15267   2.420   3.948   4.896
 5074SOL    HW115268   2.470   3.872   4.939
 5074SOL    HW215269   2.325   3.946   4.925
 5075SOL     OW15270   2.728   4.182   4.361
 5075SOL    HW115271   2.680   4.244   4.299
 5075SOL    HW215272   2.755   4.099   4.312
 5076SOL     OW15273   2.881   3.777   4.470
 5076SOL    HW115274   2.819   3.779   4.392
 5076SOL    HW215275   2.856   3.701   4.530
 5077SOL     OW15276   3.307   4.885   4.582
 5077SOL    HW115277   3.231   4.820   4.586
 5077SOL    HW215278   3.337   4.896   4.488
 5078SOL     OW15279   3.330   4.332   4.694
 5078SOL    HW115280   3.268   4.253   4.694
 5078SOL    HW215281   3.391   4.326   4.773
 5079SOL     OW15282   3.704   4.533   4.104
 5079SOL    HW115283   3.762   4.486   4.169
 5079SOL    HW215284   3.674   4.470   4.033
 5080SOL     OW15285   2.349   5.144   3.879
 5080SOL    HW115286   2.269   5.118   3.933
 5080SOL    HW215287   2.346   5.099   3.790
 5081SOL     OW15288   3.536   4.991   4.368
 5081SOL    HW115289   3.636   4.988   4.379
 5081SOL    HW215290   3.503   5.083   4.388
 5082SOL     OW15291   3.252   4.299   3.795
 5082SOL    HW115292   3.190   4.276   3.870
 5082SOL    HW215293   3.346   4.275   3.820
 5083SOL     OW15294   2.392   3.992   4.041
 5083SOL    HW115295   2.435   3.933   3.973
 5083SOL    HW215296   2.364   4.078   3.998
 5084SOL     OW15297   3.615   4.965   5.285
 5084SOL    HW115298   3.704   4.922   5.272
 5084SOL    HW215299   3.626   5.058   5.319
 5085SOL     OW15300   2.916   5.074   5.060
 5085SOL    HW115301   2.834   5.044   5.110
 5085SOL    HW215302   2.997   5.034   5.102
 5086SOL     OW15303   3.475   5.353   5.381
 5086SOL    HW115304   3.460   5.389   5.288
 5086SOL    HW215305   3.561   5.302   5.383
 5087SOL     OW15306   2.999   4.943   4.829
 5087SOL    HW115307   2.939   4.977   4.901
 5087SOL    HW215308   2.965   4.974   4.740
 5088SOL     OW15309   3.486   4.821   4.803
 5088SOL    HW115310   3.482   4.886   4.879
 5088SOL    HW215311   3.410   4.838   4.741
 5089SOL     OW15312   2.785   3.818   5.116
 5089SOL    HW115313   2.807   3.796   5.021
 5089SOL    HW215314   2.865   3.862   5.158
 5090SOL     OW15315   2.841   4.839   5.445
 5090SOL    HW115316   2.747   4.858   5.472
 5090SOL    HW215317   2.843   4.756   5.389
 5091SOL     OW15318   2.575   4.783   4.097
 5091SOL    HW115319   2.557   4.765   4.194
 5091SOL    HW215320   2.654   4.729   4.067
 5092SOL     OW15321   2.284   4.539   4.978
 5092SOL    HW115322   2.357   4.552   5.045
 5092SOL    HW215323   2.245   4.447   4.988
 5093SOL     OW15324   3.124   4.100   5.004
 5093SOL    HW115325   3.161   4.179   5.053
 5093SOL    HW215326   3.029   4.118   4.979
 5094SOL     OW15327   1.936   5.296   5.077
 5094SOL    HW115328   1.901   5.366   5.016
 5094SOL    HW215329   2.036   5.294   5.071
 5095SOL     OW15330   2.204   4.842   4.211
 5095SOL    HW115331   2.209   4.925   4.154
 5095SOL    HW215332   2.202   4.761   4.152
 5096SOL     OW15333   2.410   4.267   4.586
 5096SOL    HW115334   2.424   4.326   4.506
 5096SOL    HW215335   2.479   4.287   4.655
 5097SOL     OW15336   3.108   5.078   4.116
 5097SOL    HW115337   3.169   5.151   4.147
 5097SOL    HW215338   3.015   5.098   4.147
 5098SOL     OW15339   3.150   5.186   4.871
 5098SOL    HW115340   3.208   5.192   4.952
 5098SOL    HW215341   3.095   5.102   4.876
 5099SOL     OW15342   3.439   4.345   4.207
 5099SOL    HW115343   3.389   4.393   4.278
 5099SOL    HW215344   3.487   4.411   4.149
 5100SOL     OW15345   2.210   5.254   5.033
 5100SOL    HW115346   2.194   5.209   4.946
 5100SOL    HW215347   2.308   5.268   5.046
 5101SOL     OW15348   2.277   4.470   5.324
 5101SOL    HW115349   2.344   4.516   5.265
 5101SOL    HW215350   2.310   4.379   5.347
 5102SOL     OW15351   3.470   4.509   5.408
 5102SOL    HW115352   3.379   4.550   5.406
 5102SOL    HW215353   3.527   4.550   5.337
 5103SOL     OW15354   2.859   3.858   5.474
 5103SOL    HW115355   2.917   3.937   5.459
 5103SOL    HW215356   2.908   3.775   5.448
 5104SOL     OW15357   2.354   3.760   5.474
 5104SOL    HW115358   2.310   3.702   5.406
 5104SOL    HW215359   2.297   3.840   5.493
 5105SOL     OW15360   2.446   4.595   4.758
 5105SOL    HW115361   2.482   4.689   4.755
 5105SOL    HW215362   2.386   4.585   4.838
 5106SOL     OW15363   3.214   4.581   4.748
 5106SOL    HW115364   3.123   4.572   4.707
 5106SOL    HW215365   3.263   4.494   4.739
 5107SOL     OW15366   3.059   4.250   3.989
 5107SOL    HW115367   3.073   4.168   4.044
 5107SOL    HW215368   3.016   4.321   4.044
 5108SOL     OW15369   2.159   3.921   4.971
 5108SOL    HW115370   2.123   3.957   5.056
 5108SOL    HW215371   2.144   3.822   4.967
 5109SOL     OW15372   1.915   5.034   4.999
 5109SOL    HW115373   1.946   4.973   5.072
 5109SOL    HW215374   1.917   5.128   5.032
 5110SOL     OW15375   2.586   4.355   4.779
 5110SOL    HW115376   2.663   4.335   4.718
 5110SOL    HW215377   2.551   4.447   4.760
 5111SOL     OW15378   3.598   4.685   5.580
 5111SOL    HW115379   3.555   4.616   5.521
 5111SOL    HW215380   3.538   4.704   5.658
 5112SOL     OW15381   2.167   3.785   4.353
 5112SOL    HW115382   2.143   3.881   4.371
 5112SOL    HW215383   2.178   3.737   4.440
 5113SOL     OW15384   3.489   4.105   4.086
 5113SOL    HW115385   3.515   4.031   4.148
 5113SOL    HW215386   3.461   4.185   4.138
 5114SOL     OW15387   2.886   4.479   4.682
 5114SOL    HW115388   2.881   4.501   4.779
 5114SOL    HW215389   2.859   4.384   4.667
 5115SOL     OW15390   2.843   5.287   5.441
 5115SOL    HW115391   2.826   5.334   5.355
 5115SOL    HW215392   2.891   5.201   5.423
 5116SOL     OW15393   3.717   5.227   5.328
 5116SOL    HW115394   3.736   5.254   5.233
 5116SOL    HW215395   3.800   5.239   5.382
 5117SOL     OW15396   2.215   4.642   5.529
 5117SOL    HW115397   2.295   4.664   5.585
 5117SOL    HW215398   2.240   4.577   5.458
 5118SOL     OW15399   3.389   3.992   3.855
 5118SOL    HW115400   3.318   3.927   3.881
 5118SOL    HW215401   3.427   4.035   3.937
 5119SOL     OW15402   3.150   4.550   3.750
 5119SOL    HW115403   3.191   4.459   3.759
 5119SOL    HW215404   3.182   4.593   3.665
 5120SOL     OW15405   2.932   5.062   4.579
 5120SOL    HW115406   2.936   4.984   4.516
 5120SOL    HW215407   2.991   5.135   4.545
 5121SOL     OW15408   2.173   4.530   4.667
 5121SOL    HW115409   2.270   4.556   4.662
 5121SOL    HW215410   2.165   4.436   4.699
 5122SOL     OW15411   2.189   4.251   4.735
 5122SOL    HW115412   2.151   4.160   4.725
 5122SOL    HW215413   2.270   4.260   4.677
 5123SOL     OW15414   2.996   4.097   5.416
 5123SOL    HW115415   2.943   4.154   5.479
 5123SOL    HW215416   3.088   4.134   5.407
 5124SOL     OW15417   3.024   3.927   5.200
 5124SOL    HW115418   3.009   3.990   5.277
 5124SOL    HW215419   3.066   3.977   5.124
 5125SOL     OW15420   1.863   5.039   3.918
 5125SOL    HW115421   1.773   5.059   3.878
 5125SOL    HW215422   1.863   4.946   3.954
 5126SOL     OW15423   1.955   5.507   4.668
 5126SOL    HW115424   1.919   5.426   4.622
 5126SOL    HW215425   2.049   5.524   4.635
 5127SOL     OW15426   2.356   5.300   4.629
 5127SOL    HW115427   2.425   5.366   4.656
 5127SOL    HW215428   2.396   5.232   4.567
 5128SOL     OW15429   2.836   4.517   4.948
 5128SOL    HW115430   2.897   4.494   5.024
 5128SOL    HW215431   2.747   4.476   4.962
 5129SOL     OW15432   1.899   4.277   4.841
 5129SOL    HW115433   1.981   4.263   4.786
 5129SOL    HW215434   1.924   4.278   4.938
 5130SOL     OW15435   2.055   4.247   5.454
 5130SOL    HW115436   2.106   4.193   5.388
 5130SOL    HW215437   2.015   4.327   5.409
 5131SOL     OW15438   3.242   4.659   5.379
 5131SOL    HW115439   3.265   4.756   5.380
 5131SOL    HW215440   3.239   4.627   5.284
 5132SOL     OW15441   2.679   4.295   4.084
 5132SOL    HW115442   2.687   4.216   4.023
 5132SOL    HW215443   2.601   4.351   4.056
 5133SOL     OW15444   3.505   4.327   4.905
 5133SOL    HW115445   3.488   4.268   4.983
 5133SOL    HW215446   3.596   4.310   4.868
 5134SOL     OW15447   2.102   5.271   5.450
 5134SOL    HW115448   2.080   5.345   5.513
 5134SOL    HW215449   2.108   5.185   5.500
 5135SOL     OW15450   2.570   4.171   4.977
 5135SOL    HW115451   2.512   4.094   4.953
 5135SOL    HW215452   2.566   4.239   4.904
 5136SOL     OW15453   2.782   5.405   5.196
 5136SOL    HW115454   2.756   5.359   5.110
 5136SOL    HW215455   2.782   5.504   5.181
 5137SOL     OW15456   2.321   4.218   3.905
 5137SOL    HW115457   2.386   4.289   3.931
 5137SOL    HW215458   2.230   4.257   3.894
 5138SOL     OW15459   2.004   4.861   5.199
 5138SOL    HW115460   2.006   4.817   5.289
 5138SOL    HW215461   2.024   4.794   5.128
 5139SOL     OW15462   3.178   4.768   4.943
 5139SOL    HW115463   3.205   4.700   4.875
 5139SOL    HW215464   3.110   4.830   4.903
 5140SOL     OW15465   3.178   4.580   4.023
 5140SOL    HW115466   3.102   4.554   4.082
 5140SOL    HW215467   3.152   4.568   3.927
 5141SOL     OW15468   3.642   5.454   4.880
 5141SOL    HW115469   3.703   5.488   4.809
 5141SOL    HW215470   3.611   5.362   4.856
 5142SOL     OW15471   3.103   5.457   4.829
 5142SOL    HW115472   3.189   5.486   4.786
 5142SOL    HW215473   3.109   5.360   4.853
 5143SOL     OW15474   1.948   4.989   4.734
 5143SOL    HW115475   1.933   5.004   4.832
 5143SOL    HW215476   1.875   4.931   4.698
 5144SOL     OW15477   2.543   5.397   5.460
 5144SOL    HW115478   2.480   5.475   5.455
 5144SOL    HW215479   2.616   5.409   5.393
 5145SOL     OW15480   3.577   3.875   4.224
 5145SOL    HW115481   3.653   3.865   4.159
 5145SOL    HW215482   3.562   3.789   4.272
 5146SOL     OW15483   3.257   5.294   4.211
 5146SOL    HW115484   3.320   5.326   4.141
 5146SOL    HW215485   3.202   5.371   4.244
 5147SOL     OW15486   2.007   5.511   5.570
 5147SOL    HW115487   1.950   5.443   5.615
 5147SOL    HW215488   2.057   5.564   5.638
 5148SOL     OW15489   3.144   4.652   4.389
 5148SOL    HW115490   3.219   4.588   4.406
 5148SOL    HW215491   3.177   4.729   4.335
 5149SOL     OW15492   2.666   5.003   5.150
 5149SOL    HW115493   2.636   5.046   5.236
 5149SOL    HW215494   2.597   5.018   5.080
 5150SOL     OW15495   2.531   5.345   3.878
 5150SOL    HW115496   2.547   5.364   3.781
 5150SOL    HW215497   2.472   5.265   3.887
 5151SOL     OW15498   3.479   5.453   5.111
 5151SOL    HW115499   3.536   5.453   5.029
 5151SOL    HW215500   3.465   5.546   5.143
 5152SOL     OW15501   3.704   3.893   4.687
 5152SOL    HW115502   3.738   3.802   4.665
 5152SOL    HW215503   3.613   3.905   4.648
 5153SOL     OW15504   2.117   4.038   4.439
 5153SOL    HW115505   2.028   4.075   4.411
 5153SOL    HW215506   2.120   4.030   4.539
 5154SOL     OW15507   3.071   5.325   3.757
 5154SOL    HW115508   3.061   5.231   3.790
 5154SOL    HW215509   3.004   5.342   3.685
 5155SOL     OW15510   2.685   4.734   5.102
 5155SOL    HW115511   2.736   4.718   5.017
 5155SOL    HW215512   2.682   4.832   5.122
 5156SOL     OW15513   2.781   4.634   4.011
 5156SOL    HW115514   2.843   4.670   3.940
 5156SOL    HW215515   2.829   4.563   4.063
 5157SOL     OW15516   3.350   5.354   3.766
 5157SOL    HW115517   3.252   5.343   3.755
 5157SOL    HW215518   3.394   5.359   3.676
 5158SOL     OW15519   2.228   5.027   5.211
 5158SOL    HW115520   2.218   5.107   5.152
 5158SOL    HW215521   2.148   4.968   5.200
 5159SOL     OW15522   3.475   5.008   5.008
 5159SOL    HW115523   3.538   4.989   5.083
 5159SOL    HW215524   3.410   5.078   5.037
 5160SOL     OW15525   2.923   4.830   4.439
 5160SOL    HW115526   2.847   4.780   4.479
 5160SOL    HW215527   2.992   4.766   4.405
 5161SOL     OW15528   2.885   3.963   4.691
 5161SOL    HW115529   2.881   3.919   4.602
 5161SOL    HW215530   2.882   3.894   4.763
 5162SOL     OW15531   2.467   5.210   4.204
 5162SOL    HW115532   2.518   5.156   4.137
 5162SOL    HW215533   2.393   5.259   4.158
 5163SOL     OW15534   3.593   4.118   5.105
 5163SOL    HW115535   3.666   4.186   5.105
 5163SOL    HW215536   3.619   4.043   5.044
 5164SOL     OW15537   2.115   5.072   4.012
 5164SOL    HW115538   2.019   5.065   3.985
 5164SOL    HW215539   2.120   5.110   4.104
 5165SOL     OW15540   1.977   4.758   5.452
 5165SOL    HW115541   1.895   4.731   5.503
 5165SOL    HW215542   2.057   4.713   5.491
 5166SOL     OW15543   2.545   3.918   5.224
 5166SOL    HW115544   2.632   3.894   5.180
 5166SOL    HW215545   2.563   3.952   5.316
 5167SOL     OW15546   1.927   4.061   3.757
 5167SOL    HW115547   1.827   4.060   3.762
 5167SOL    HW215548   1.957   4.140   3.703
 5168SOL     OW15549   3.285   4.580   5.119
 5168SOL    HW115550   3.230   4.644   5.065
 5168SOL    HW215551   3.379   4.582   5.086
 5169SOL     OW15552   1.922   3.881   4.027
 5169SOL    HW115553   1.907   3.967   3.977
 5169SOL    HW215554   2.011   3.843   4.001
 5170SOL     OW15555   3.042   5.061   3.845
 5170SOL    HW115556   2.947   5.032   3.838
 5170SOL    HW215557   3.070   5.063   3.941
 5171SOL     OW15558   2.485   4.554   5.158
 5171SOL    HW115559   2.543   4.635   5.143
 5171SOL    HW215560   2.543   4.473   5.167
 5172SOL     OW15561   3.347   5.512   4.711
 5172SOL    HW115562   3.368   5.575   4.636
 5172SOL    HW215563   3.432   5.478   4.751
 5173SOL     OW15564   2.584   4.282   5.427
 5173SOL    HW115565   2.628   4.349   5.486
 5173SOL    HW215566   2.604   4.190   5.460
 5174SOL     OW15567   3.336   4.920   5.358
 5174SOL    HW115568   3.321   4.933   5.456
 5174SOL    HW215569   3.432   4.939   5.337
 5175SOL     OW15570   2.233   5.462   5.291
 5175SOL    HW115571   2.149   5.514   5.276
 5175SOL    HW215572   2.211   5.374   5.333
 5176SOL     OW15573   3.528   4.602   4.980
 5176SOL    HW115574   3.523   4.511   4.939
 5176SOL    HW215575   3.515   4.671   4.909
 5177SOL     OW15576   3.080   4.040   4.184
 5177SOL    HW115577   3.145   3.964   4.175
 5177SOL    HW215578   3.106   4.096   4.263
 5178SOL     OW15579   2.449   4.460   4.392
 5178SOL    HW115580   2.490   4.551   4.382
 5178SOL    HW215581   2.379   4.447   4.322
 5179SOL     OW15582   3.613   4.089   5.376
 5179SOL    HW115583   3.603   4.105   5.278
 5179SOL    HW215584   3.539   4.029   5.408
 5180SOL     OW15585   3.614   4.656   5.234
 5180SOL    HW115586   3.603   4.753   5.255
 5180SOL    HW215587   3.593   4.641   5.137
 5181SOL     OW15588   2.729   5.088   3.767
 5181SOL    HW115589   2.687   5.112   3.855
 5181SOL    HW215590   2.744   5.171   3.714
 5182SOL     OW15591   2.527   5.509   4.666
 5182SOL    HW115592   2.503   5.604   4.645
 5182SOL    HW215593   2.625   5.496   4.655
 5183SOL     OW15594   2.731   4.694   4.580
 5183SOL    HW115595   2.782   4.617   4.617
 5183SOL    HW215596   2.689   4.745   4.655
 5184SOL     OW15597   2.939   4.713   3.808
 5184SOL    HW115598   2.912   4.767   3.729
 5184SOL    HW215599   3.017   4.655   3.783
 5185SOL     OW15600   3.708   5.280   4.571
 5185SOL    HW115601   3.631   5.268   4.508
 5185SOL    HW215602   3.703   5.211   4.643
 5186SOL     OW15603   2.093   5.023   5.580
 5186SOL    HW115604   2.027   4.955   5.545
 5186SOL    HW215605   2.077   5.036   5.678
 5187SOL     OW15606   1.949   4.954   4.388
 5187SOL    HW115607   1.952   4.908   4.476
 5187SOL    HW215608   2.017   4.914   4.327
 5188SOL     OW15609   2.544   5.133   5.358
 5188SOL    HW115610   2.464   5.083   5.389
 5188SOL    HW215611   2.543   5.226   5.394
 5189SOL     OW15612   3.666   3.906   4.958
 5189SOL    HW115613   3.682   3.811   4.982
 5189SOL    HW215614   3.679   3.918   4.859
 5190SOL     OW15615   2.292   4.153   4.252
 5190SOL    HW115616   2.326   4.084   4.189
 5190SOL    HW215617   2.237   4.109   4.323
 5191SOL     OW15618   3.555   5.206   4.818
 5191SOL    HW115619   3.474   5.189   4.762
 5191SOL    HW215620   3.564   5.135   4.888
 5192SOL     OW15621   2.197   4.280   5.013
 5192SOL    HW115622   2.254   4.223   5.073
 5192SOL    HW215623   2.212   4.254   4.918
 5193SOL     OW15624   2.691   5.304   4.402
 5193SOL    HW115625   2.677   5.365   4.325
 5193SOL    HW215626   2.614   5.240   4.408
 5194SOL     OW15627   3.292   3.955   4.841
 5194SOL    HW115628   3.316   3.865   4.879
 5194SOL    HW215629   3.238   4.006   4.908
 5195SOL     OW15630   2.872   3.740   4.862
 5195SOL    HW115631   2.808   3.677   4.818
 5195SOL    HW215632   2.963   3.700   4.863
 5196SOL     OW15633   2.636   5.055   4.045
 5196SOL    HW115634   2.608   4.960   4.053
 5196SOL    HW215635   2.721   5.070   4.096
 5197SOL     OW15636   2.485   5.283   5.014
 5197SOL    HW115637   2.483   5.370   5.063
 5197SOL    HW215638   2.576   5.270   4.973
 5198SOL     OW15639   3.216   3.774   3.897
 5198SOL    HW115640   3.266   3.706   3.844
 5198SOL    HW215641   3.125   3.739   3.918
 5199SOL     OW15642   3.151   4.188   4.404
 5199SOL    HW115643   3.099   4.274   4.407
 5199SOL    HW215644   3.150   4.146   4.494
 5200SOL     OW15645   3.448   3.927   4.608
 5200SOL    HW115646   3.390   3.947   4.687
 5200SOL    HW215647   3.450   4.007   4.547
 5201SOL     OW15648   1.905   4.788   4.032
 5201SOL    HW115649   2.003   4.788   4.013
 5201SOL    HW215650   1.875   4.695   4.054
 5202SOL     OW15651   2.746   5.386   4.064
 5202SOL    HW115652   2.671   5.365   4.001
 5202SOL    HW215653   2.720   5.464   4.122
 5203SOL     OW15654   2.083   4.343   5.714
 5203SOL    HW115655   1.992   4.343   5.754
 5203SOL    HW215656   2.077   4.321   5.616
 5204SOL     OW15657   2.083   4.011   6.582
 5204SOL    HW115658   2.118   3.972   6.668
 5204SOL    HW215659   1.991   3.975   6.566
 5205SOL     OW15660   1.862   4.110   6.221
 5205SOL    HW115661   1.778   4.141   6.265
 5205SOL    HW215662   1.843   4.027   6.169
 5206SOL     OW15663   2.420   5.008   6.758
 5206SOL    HW115664   2.332   5.025   6.714
 5206SOL    HW215665   2.449   5.091   6.806
 5207SOL     OW15666   3.426   5.237   6.294
 5207SOL    HW115667   3.381   5.214   6.380
 5207SOL    HW215668   3.357   5.245   6.222
 5208SOL     OW15669   2.994   4.427   6.281
 5208SOL    HW115670   3.046   4.511   6.266
 5208SOL    HW215671   2.943   4.434   6.367
 5209SOL     OW15672   3.632   4.323   5.809
 5209SOL    HW115673   3.608   4.319   5.712
 5209SOL    HW215674   3.594   4.244   5.856
 5210SOL     OW15675   2.619   4.868   6.629
 5210SOL    HW115676   2.545   4.894   6.692
 5210SOL    HW215677   2.651   4.949   6.580
 5211SOL     OW15678   2.546   4.723   6.235
 5211SOL    HW115679   2.616   4.712   6.305
 5211SOL    HW215680   2.471   4.779   6.271
 5212SOL     OW15681   2.192   5.135   6.644
 5212SOL    HW115682   2.111   5.097   6.601
 5212SOL    HW215683   2.240   5.194   6.579
 5213SOL     OW15684   3.473   4.171   6.330
 5213SOL    HW115685   3.398   4.188   6.266
 5213SOL    HW215686   3.475   4.244   6.399
 5214SOL     OW15687   2.084   5.438   6.057
 5214SOL    HW115688   2.102   5.517   6.116
 5214SOL    HW215689   2.159   5.428   5.992
 5215SOL     OW15690   2.096   5.167   6.122
 5215SOL    HW115691   2.079   5.266   6.122
 5215SOL    HW215692   2.035   5.123   6.189
 5216SOL     OW15693   2.130   4.815   6.489
 5216SOL    HW115694   2.126   4.721   6.523
 5216SOL    HW215695   2.069   4.873   6.543
 5217SOL     OW15696   2.472   5.529   6.988
 5217SOL    HW115697   2.383   5.502   0.025
 5217SOL    HW215698   2.497   5.620   0.022
 5218SOL     OW15699   2.444   4.711   5.727
 5218SOL    HW115700   2.491   4.758   5.652
 5218SOL    HW215701   2.484   4.739   5.814
 5219SOL     OW15702   1.976   4.385   6.150
 5219SOL    HW115703   1.946   4.291   6.166
 5219SOL    HW215704   1.970   4.437   6.235
 5220SOL     OW15705   3.708   5.480   5.919
 5220SOL    HW115706   3.778   5.449   5.983
 5220SOL    HW215707   3.724   5.575   5.895
 5221SOL     OW15708   1.891   5.314   5.709
 5221SOL    HW115709   1.875   5.218   5.728
 5221SOL    HW215710   1.871   5.368   5.791
 5222SOL     OW15711   3.553   4.645   6.231
 5222SOL    HW115712   3.637   4.594   6.214
 5222SOL    HW215713   3.529   4.698   6.151
 5223SOL     OW15714   3.514   4.829   6.018
 5223SOL    HW115715   3.603   4.826   5.972
 5223SOL    HW215716   3.517   4.896   6.092
 5224SOL     OW15717   2.473   5.114   6.319
 5224SOL    HW115718   2.427   5.026   6.332
 5224SOL    HW215719   2.460   5.145   6.225
 5225SOL     OW15720   2.679   3.733   6.095
 5225SOL    HW115721   2.725   3.819   6.072
 5225SOL    HW215722   2.581   3.749   6.102
 5226SOL     OW15723   2.056   4.699   6.842
 5226SOL    HW115724   2.138   4.643   6.827
 5226SOL    HW215725   1.974   4.645   6.821
 5227SOL     OW15726   3.394   4.724   5.790
 5227SOL    HW115727   3.320   4.664   5.820
 5227SOL    HW215728   3.441   4.762   5.870
 5228SOL     OW15729   3.314   5.147   6.531
 5228SOL    HW115730   3.256   5.161   6.612
 5228SOL    HW215731   3.311   5.051   6.504
 5229SOL     OW15732   3.511   5.474   6.162
 5229SOL    HW115733   3.494   5.444   6.068
 5229SOL    HW215734   3.492   5.399   6.225
 5230SOL     OW15735   2.457   4.443   5.859
 5230SOL    HW115736   2.462   4.528   5.806
 5230SOL    HW215737   2.387   4.452   5.930
 5231SOL     OW15738   3.137   4.080   6.517
 5231SOL    HW115739   3.043   4.047   6.525
 5231SOL    HW215740   3.195   4.030   6.581
 5232SOL     OW15741   3.445   5.396   5.894
 5232SOL    HW115742   3.541   5.424   5.891
 5232SOL    HW215743   3.412   5.379   5.801
 5233SOL     OW15744   2.656   4.333   0.046
 5233SOL    HW115745   2.593   4.376   0.112
 5233SOL    HW215746   2.603   4.277   6.982
 5234SOL     OW15747   2.868   4.117   6.794
 5234SOL    HW115748   2.807   4.171   6.852
 5234SOL    HW215749   2.814   4.071   6.724
 5235SOL     OW15750   2.912   4.423   6.011
 5235SOL    HW115751   2.934   4.418   6.108
 5235SOL    HW215752   2.826   4.375   5.994
 5236SOL     OW15753   1.952   4.550   6.367
 5236SOL    HW115754   2.037   4.539   6.417
 5236SOL    HW215755   1.902   4.629   6.402
 5237SOL     OW15756   2.004   5.554   0.137
 5237SOL    HW115757   1.947   5.515   0.209
 5237SOL    HW215758   1.948   5.573   0.056
 5238SOL     OW15759   2.758   4.077   5.783
 5238SOL    HW115760   2.798   4.144   5.721
 5238SOL    HW215761   2.767   3.985   5.743
 5239SOL     OW15762   3.241   4.867   6.119
 5239SOL    HW115763   3.326   4.851   6.069
 5239SOL    HW215764   3.185   4.934   6.071
 5240SOL     OW15765   2.408   3.896   6.485
 5240SOL    HW115766   2.414   3.928   6.579
 5240SOL    HW215767   2.412   3.975   6.423
 5241SOL     OW15768   2.857   5.167   6.050
 5241SOL    HW115769   2.825   5.247   5.999
 5241SOL    HW215770   2.841   5.180   6.148
 5242SOL     OW15771   2.218   5.539   6.456
 5242SOL    HW115772   2.262   5.449   6.463
 5242SOL    HW215773   2.285   5.610   6.474
 5243SOL     OW15774   3.663   4.780   6.453
 5243SOL    HW115775   3.613   4.756   6.370
 5243SOL    HW215776   3.601   4.781   6.531
 5244SOL     OW15777   2.184   4.683   5.840
 5244SOL    HW115778   2.271   4.703   5.797
 5244SOL    HW215779   2.147   4.598   5.802
 5245SOL     OW15780   3.344   4.474   6.307
 5245SOL    HW115781   3.337   4.427   6.395
 5245SOL    HW215782   3.425   4.532   6.306
 5246SOL     OW15783   2.984   5.500   5.812
 5246SOL    HW115784   2.904   5.462   5.861
 5246SOL    HW215785   3.013   5.436   5.742
 5247SOL     OW15786   3.487   5.106   5.674
 5247SOL    HW115787   3.448   5.197   5.659
 5247SOL    HW215788   3.417   5.036   5.655
 5248SOL     OW15789   2.327   5.459   5.905
 5248SOL    HW115790   2.368   5.521   5.971
 5248SOL    HW215791   2.398   5.423   5.844
 5249SOL     OW15792   3.263   3.828   6.022
 5249SOL    HW115793   3.251   3.803   5.926
 5249SOL    HW215794   3.361   3.837   6.043
 5250SOL     OW15795   2.124   5.520   6.813
 5250SOL    HW115796   2.168   5.451   6.870
 5250SOL    HW215797   2.105   5.482   6.723
 5251SOL     OW15798   2.798   5.424   6.481
 5251SOL    HW115799   2.884   5.379   6.507
 5251SOL    HW215800   2.755   5.373   6.407
 5252SOL     OW15801   2.257   4.412   6.061
 5252SOL    HW115802   2.278   4.315   6.074
 5252SOL    HW215803   2.160   4.429   6.078
 5253SOL     OW15804   2.503   3.841   5.688
 5253SOL    HW115805   2.572   3.772   5.709
 5253SOL    HW215806   2.446   3.809   5.612
 5254SOL     OW15807   2.725   5.241   6.764
 5254SOL    HW115808   2.710   5.208   6.671
 5254SOL    HW215809   2.768   5.169   6.818
 5255SOL     OW15810   2.680   5.113   6.520
 5255SOL    HW115811   2.771   5.102   6.478
 5255SOL    HW215812   2.611   5.118   6.448
 5256SOL     OW15813   2.789   4.232   6.484
 5256SOL    HW115814   2.762   4.224   6.388
 5256SOL    HW215815   2.827   4.144   6.515
 5257SOL     OW15816   2.409   3.788   6.080
 5257SOL    HW115817   2.327   3.786   6.137
 5257SOL    HW215818   2.406   3.869   6.021
 5258SOL     OW15819   3.288   4.923   5.629
 5258SOL    HW115820   3.321   4.845   5.682
 5258SOL    HW215821   3.199   4.952   5.665
 5259SOL     OW15822   2.152   3.772   5.772
 5259SOL    HW115823   2.205   3.844   5.725
 5259SOL    HW215824   2.215   3.708   5.815
 5260SOL     OW15825   2.808   3.974   6.042
 5260SOL    HW115826   2.777   4.016   5.957
 5260SOL    HW215827   2.907   3.988   6.052
 5261SOL     OW15828   3.080   5.295   6.382
 5261SOL    HW115829   3.095   5.365   6.312
 5261SOL    HW215830   3.159   5.293   6.444
 5262SOL     OW15831   2.330   4.875   6.315
 5262SOL    HW115832   2.263   4.855   6.387
 5262SOL    HW215833   2.288   4.862   6.225
 5263SOL     OW15834   3.124   5.516   6.196
 5263SOL    HW115835   3.177   5.578   6.138
 5263SOL    HW215836   3.051   5.566   6.242
 5264SOL     OW15837   2.883   4.260   5.615
 5264SOL    HW115838   2.838   4.346   5.592
 5264SOL    HW215839   2.953   4.277   5.685
 5265SOL     OW15840   2.423   3.945   6.757
 5265SOL    HW115841   2.470   3.863   6.788
 5265SOL    HW215842   2.328   3.944   6.788
 5266SOL     OW15843   2.727   4.183   6.222
 5266SOL    HW115844   2.680   4.244   6.158
 5266SOL    HW215845   2.756   4.100   6.175
 5267SOL     OW15846   2.880   3.772   6.327
 5267SOL    HW115847   2.818   3.773   6.249
 5267SOL    HW215848   2.854   3.698   6.389
 5268SOL     OW15849   3.302   4.884   6.442
 5268SOL    HW115850   3.233   4.812   6.443
 5268SOL    HW215851   3.334   4.898   6.348
 5269SOL     OW15852   3.328   4.330   6.550
 5269SOL    HW115853   3.266   4.251   6.555
 5269SOL    HW215854   3.391   4.327   6.628
 5270SOL     OW15855   3.704   4.533   5.965
 5270SOL    HW115856   3.762   4.486   6.031
 5270SOL    HW215857   3.675   4.469   5.895
 5271SOL     OW15858   2.349   5.144   5.741
 5271SOL    HW115859   2.269   5.118   5.794
 5271SOL    HW215860   2.346   5.099   5.652
 5272SOL     OW15861   3.536   4.991   6.229
 5272SOL    HW115862   3.635   4.987   6.242
 5272SOL    HW215863   3.503   5.083   6.250
 5273SOL     OW15864   3.252   4.298   5.657
 5273SOL    HW115865   3.189   4.276   5.731
 5273SOL    HW215866   3.345   4.272   5.682
 5274SOL     OW15867   2.390   3.988   5.896
 5274SOL    HW115868   2.437   3.936   5.825
 5274SOL    HW215869   2.361   4.076   5.858
 5275SOL     OW15870   3.621   4.903   0.171
 5275SOL    HW115871   3.718   4.890   0.154
 5275SOL    HW215872   3.594   4.996   0.145
 5276SOL     OW15873   2.980   4.962   6.694
 5276SOL    HW115874   2.897   4.920   6.730
 5276SOL    HW215875   2.967   4.986   6.598
 5277SOL     OW15876   3.481   4.808   6.650
 5277SOL    HW115877   3.482   4.879   6.721
 5277SOL    HW215878   3.407   4.825   6.586
 5278SOL     OW15879   2.575   4.783   5.959
 5278SOL    HW115880   2.557   4.765   6.056
 5278SOL    HW215881   2.654   4.729   5.929
 5279SOL     OW15882   2.287   4.537   6.846
 5279SOL    HW115883   2.343   4.563   6.924
 5279SOL    HW215884   2.252   4.444   6.860
 5280SOL     OW15885   3.131   4.112   6.856
 5280SOL    HW115886   3.159   4.185   6.917
 5280SOL    HW215887   3.037   4.126   6.827
 5281SOL     OW15888   1.932   5.303   6.937
 5281SOL    HW115889   1.896   5.371   6.873
 5281SOL    HW215890   2.031   5.295   6.926
 5282SOL     OW15891   2.205   4.842   6.073
 5282SOL    HW115892   2.210   4.924   6.016
 5282SOL    HW215893   2.203   4.761   6.014
 5283SOL     OW15894   2.409   4.269   6.449
 5283SOL    HW115895   2.422   4.328   6.369
 5283SOL    HW215896   2.480   4.288   6.517
 5284SOL     OW15897   3.108   5.079   5.978
 5284SOL    HW115898   3.169   5.151   6.009
 5284SOL    HW215899   3.015   5.098   6.008
 5285SOL     OW15900   3.143   5.174   6.747
 5285SOL    HW115901   3.180   5.163   6.840
 5285SOL    HW215902   3.082   5.098   6.726
 5286SOL     OW15903   3.439   4.345   6.068
 5286SOL    HW115904   3.389   4.392   6.140
 5286SOL    HW215905   3.487   4.412   6.011
 5287SOL     OW15906   2.204   5.253   6.884
 5287SOL    HW115907   2.188   5.199   6.801
 5287SOL    HW215908   2.303   5.268   6.895
 5288SOL     OW15909   2.447   4.594   6.623
 5288SOL    HW115910   2.480   4.688   6.616
 5288SOL    HW215911   2.386   4.585   6.702
 5289SOL     OW15912   3.209   4.580   6.596
 5289SOL    HW115913   3.119   4.565   6.555
 5289SOL    HW215914   3.262   4.495   6.592
 5290SOL     OW15915   3.060   4.250   5.850
 5290SOL    HW115916   3.073   4.168   5.905
 5290SOL    HW215917   3.016   4.321   5.906
 5291SOL     OW15918   2.163   3.922   6.835
 5291SOL    HW115919   2.119   3.956   6.918
 5291SOL    HW215920   2.148   3.823   6.828
 5292SOL     OW15921   1.899   5.039   6.869
 5292SOL    HW115922   1.943   4.979   6.937
 5292SOL    HW215923   1.907   5.134   6.899
 5293SOL     OW15924   2.587   4.351   6.642
 5293SOL    HW115925   2.664   4.330   6.582
 5293SOL    HW215926   2.555   4.444   6.624
 5294SOL     OW15927   2.168   3.785   6.213
 5294SOL    HW115928   2.144   3.881   6.231
 5294SOL    HW215929   2.179   3.737   6.300
 5295SOL     OW15930   3.489   4.105   5.948
 5295SOL    HW115931   3.515   4.031   6.010
 5295SOL    HW215932   3.460   4.185   6.000
 5296SOL     OW15933   2.884   4.481   6.550
 5296SOL    HW115934   2.879   4.501   6.648
 5296SOL    HW215935   2.859   4.385   6.535
 5297SOL     OW15936   3.389   3.993   5.716
 5297SOL    HW115937   3.320   3.925   5.741
 5297SOL    HW215938   3.426   4.035   5.799
 5298SOL     OW15939   3.151   4.550   5.612
 5298SOL    HW115940   3.191   4.459   5.621
 5298SOL    HW215941   3.182   4.592   5.527
 5299SOL     OW15942   2.934   5.061   6.439
 5299SOL    HW115943   2.937   4.983   6.376
 5299SOL    HW215944   2.991   5.135   6.404
 5300SOL     OW15945   2.175   4.529   6.528
 5300SOL    HW115946   2.271   4.555   6.522
 5300SOL    HW215947   2.169   4.434   6.559
 5301SOL     OW15948   2.193   4.252   6.604
 5301SOL    HW115949   2.153   4.161   6.590
 5301SOL    HW215950   2.273   4.262   6.545
 5302SOL     OW15951   3.002   3.964   0.053
 5302SOL    HW115952   3.069   3.980   0.126
 5302SOL    HW215953   3.036   4.001   6.967
 5303SOL     OW15954   1.863   5.039   5.781
 5303SOL    HW115955   1.773   5.059   5.741
 5303SOL    HW215956   1.864   4.946   5.816
 5304SOL     OW15957   1.955   5.510   6.527
 5304SOL    HW115958   1.918   5.428   6.482
 5304SOL    HW215959   2.049   5.526   6.496
 5305SOL     OW15960   2.356   5.302   6.489
 5305SOL    HW115961   2.426   5.367   6.518
 5305SOL    HW215962   2.396   5.233   6.428
 5306SOL     OW15963   2.843   4.520   6.823
 5306SOL    HW115964   2.921   4.496   6.881
 5306SOL    HW215965   2.760   4.475   6.858
 5307SOL     OW15966   1.913   4.281   6.712
 5307SOL    HW115967   1.969   4.247   6.636
 5307SOL    HW215968   1.971   4.317   6.784
 5308SOL     OW15969   2.679   4.296   5.947
 5308SOL    HW115970   2.689   4.217   5.887
 5308SOL    HW215971   2.601   4.351   5.917
 5309SOL     OW15972   3.510   4.334   6.752
 5309SOL    HW115973   3.494   4.275   6.832
 5309SOL    HW215974   3.604   4.323   6.721
 5310SOL     OW15975   2.535   4.187   6.850
 5310SOL    HW115976   2.498   4.099   6.818
 5310SOL    HW215977   2.550   4.247   6.771
 5311SOL     OW15978   2.805   5.386   6.997
 5311SOL    HW115979   2.771   5.375   6.904
 5311SOL    HW215980   2.786   5.479   0.029
 5312SOL     OW15981   2.321   4.219   5.772
 5312SOL    HW115982   2.385   4.292   5.797
 5312SOL    HW215983   2.230   4.259   5.758
 5313SOL     OW15984   2.018   4.867   0.050
 5313SOL    HW115985   2.067   4.830   0.128
 5313SOL    HW215986   2.031   4.808   6.970
 5314SOL     OW15987   3.147   4.730   6.814
 5314SOL    HW115988   3.185   4.678   6.737
 5314SOL    HW215989   3.121   4.821   6.783
 5315SOL     OW15990   3.177   4.581   5.885
 5315SOL    HW115991   3.101   4.553   5.944
 5315SOL    HW215992   3.152   4.568   5.789
 5316SOL     OW15993   3.620   5.481   6.726
 5316SOL    HW115994   3.693   5.504   6.663
 5316SOL    HW215995   3.596   5.385   6.716
 5317SOL     OW15996   3.110   5.449   6.700
 5317SOL    HW115997   3.193   5.478   6.653
 5317SOL    HW215998   3.114   5.351   6.718
 5318SOL     OW15999   1.944   4.994   6.600
 5318SOL    HW116000   1.928   5.005   6.698
 5318SOL    HW216001   1.876   4.931   6.563
 5319SOL     OW16002   3.581   3.874   6.085
 5319SOL    HW116003   3.657   3.864   6.020
 5319SOL    HW216004   3.564   3.787   6.130
 5320SOL     OW16005   3.257   5.294   6.074
 5320SOL    HW116006   3.320   5.326   6.003
 5320SOL    HW216007   3.202   5.371   6.106
 5321SOL     OW16008   3.144   4.653   6.253
 5321SOL    HW116009   3.218   4.588   6.268
 5321SOL    HW216010   3.177   4.729   6.197
 5322SOL     OW16011   2.531   5.345   5.740
 5322SOL    HW116012   2.547   5.364   5.643
 5322SOL    HW216013   2.472   5.265   5.749
 5323SOL     OW16014   3.704   3.898   6.556
 5323SOL    HW116015   3.738   3.807   6.533
 5323SOL    HW216016   3.612   3.909   6.517
 5324SOL     OW16017   2.117   4.038   6.301
 5324SOL    HW116018   2.028   4.074   6.273
 5324SOL    HW216019   2.120   4.031   6.401
 5325SOL     OW16020   3.070   5.325   5.619
 5325SOL    HW116021   3.061   5.231   5.652
 5325SOL    HW216022   3.004   5.342   5.547
 5326SOL     OW16023   2.639   4.750   6.952
 5326SOL    HW116024   2.698   4.706   6.884
 5326SOL    HW216025   2.685   4.831   6.988
 5327SOL     OW16026   2.782   4.635   5.873
 5327SOL    HW116027   2.843   4.670   5.803
 5327SOL    HW216028   2.829   4.563   5.925
 5328SOL     OW16029   3.350   5.354   5.628
 5328SOL    HW116030   3.252   5.343   5.617
 5328SOL    HW216031   3.394   5.359   5.538
 5329SOL     OW16032   3.478   5.003   6.835
 5329SOL    HW116033   3.568   5.004   6.878
 5329SOL    HW216034   3.408   4.981   6.903
 5330SOL     OW16035   2.923   4.830   6.301
 5330SOL    HW116036   2.846   4.779   6.340
 5330SOL    HW216037   2.992   4.766   6.267
 5331SOL     OW16038   2.881   3.961   6.541
 5331SOL    HW116039   2.880   3.912   6.453
 5331SOL    HW216040   2.884   3.895   6.616
 5332SOL     OW16041   2.467   5.210   6.066
 5332SOL    HW116042   2.518   5.156   5.999
 5332SOL    HW216043   2.393   5.259   6.020
 5333SOL     OW16044   3.557   4.147   6.945
 5333SOL    HW116045   3.623   4.155   0.020
 5333SOL    HW216046   3.564   4.056   6.904
 5334SOL     OW16047   2.115   5.072   5.875
 5334SOL    HW116048   2.019   5.065   5.847
 5334SOL    HW216049   2.121   5.110   5.967
 5335SOL     OW16050   2.535   3.913   0.081
 5335SOL    HW116051   2.625   3.887   0.046
 5335SOL    HW216052   2.544   3.994   0.139
 5336SOL     OW16053   1.943   4.052   5.615
 5336SOL    HW116054   1.852   4.028   5.583
 5336SOL    HW216055   1.976   4.134   5.567
 5337SOL     OW16056   1.925   3.879   5.888
 5337SOL    HW116057   1.908   3.963   5.837
 5337SOL    HW216058   2.014   3.841   5.861
 5338SOL     OW16059   3.042   5.061   5.706
 5338SOL    HW116060   2.947   5.032   5.700
 5338SOL    HW216061   3.070   5.063   5.802
 5339SOL     OW16062   3.353   5.508   6.579
 5339SOL    HW116063   3.366   5.570   6.501
 5339SOL    HW216064   3.441   5.488   6.620
 5340SOL     OW16065   3.355   5.017   0.282
 5340SOL    HW116066   3.263   5.013   0.322
 5340SOL    HW216067   3.385   4.924   0.260
 5341SOL     OW16068   2.248   5.451   0.100
 5341SOL    HW116069   2.159   5.495   0.115
 5341SOL    HW216070   2.247   5.359   0.137
 5342SOL     OW16071   3.561   4.602   6.829
 5342SOL    HW116072   3.528   4.512   6.801
 5342SOL    HW216073   3.526   4.672   6.766
 5343SOL     OW16074   3.081   4.040   6.046
 5343SOL    HW116075   3.145   3.964   6.036
 5343SOL    HW216076   3.108   4.096   6.125
 5344SOL     OW16077   2.447   4.461   6.255
 5344SOL    HW116078   2.489   4.551   6.244
 5344SOL    HW216079   2.378   4.447   6.184
 5345SOL     OW16080   3.632   4.629   0.094
 5345SOL    HW116081   3.620   4.724   0.121
 5345SOL    HW216082   3.606   4.618   6.998
 5346SOL     OW16083   2.729   5.088   5.629
 5346SOL    HW116084   2.687   5.112   5.717
 5346SOL    HW216085   2.744   5.171   5.575
 5347SOL     OW16086   2.528   5.509   6.533
 5347SOL    HW116087   2.504   5.603   6.507
 5347SOL    HW216088   2.626   5.496   6.519
 5348SOL     OW16089   2.731   4.694   6.443
 5348SOL    HW116090   2.780   4.615   6.480
 5348SOL    HW216091   2.691   4.747   6.518
 5349SOL     OW16092   2.940   4.713   5.670
 5349SOL    HW116093   2.912   4.767   5.590
 5349SOL    HW216094   3.017   4.655   5.646
 5350SOL     OW16095   3.711   5.282   6.432
 5350SOL    HW116096   3.632   5.268   6.372
 5350SOL    HW216097   3.707   5.218   6.509
 5351SOL     OW16098   1.949   4.955   6.250
 5351SOL    HW116099   1.947   4.905   6.337
 5351SOL    HW216100   2.018   4.914   6.190
 5352SOL     OW16101   3.672   3.899   6.835
 5352SOL    HW116102   3.648   3.803   6.836
 5352SOL    HW216103   3.688   3.928   6.740
 5353SOL     OW16104   2.293   4.152   6.113
 5353SOL    HW116105   2.326   4.082   6.050
 5353SOL    HW216106   2.238   4.108   6.184
 5354SOL     OW16107   3.539   5.227   6.677
 5354SOL    HW116108   3.463   5.207   6.615
 5354SOL    HW216109   3.549   5.152   6.743
 5355SOL     OW16110   2.179   4.275   6.878
 5355SOL    HW116111   2.249   4.222   6.925
 5355SOL    HW216112   2.188   4.262   6.779
 5356SOL     OW16113   2.691   5.304   6.263
 5356SOL    HW116114   2.679   5.367   6.186
 5356SOL    HW216115   2.613   5.241   6.267
 5357SOL     OW16116   3.296   3.960   6.702
 5357SOL    HW116117   3.329   3.877   6.748
 5357SOL    HW216118   3.242   4.014   6.766
 5358SOL     OW16119   2.879   3.742   6.712
 5358SOL    HW116120   2.816   3.676   6.671
 5358SOL    HW216121   2.969   3.700   6.723
 5359SOL     OW16122   2.636   5.056   5.907
 5359SOL    HW116123   2.608   4.960   5.915
 5359SOL    HW216124   2.721   5.070   5.957
 5360SOL     OW16125   2.479   5.285   6.868
 5360SOL    HW116126   2.476   5.381   6.898
 5360SOL    HW216127   2.566   5.267   6.823
 5361SOL     OW16128   3.216   3.774   5.756
 5361SOL    HW116129   3.259   3.707   5.696
 5361SOL    HW216130   3.123   3.745   5.778
 5362SOL     OW16131   3.153   4.188   6.266
 5362SOL    HW116132   3.101   4.273   6.269
 5362SOL    HW216133   3.150   4.144   6.356
 5363SOL     OW16134   3.449   3.929   6.471
 5363SOL    HW116135   3.388   3.948   6.548
 5363SOL    HW216136   3.450   4.008   6.409
 5364SOL     OW16137   1.905   4.788   5.894
 5364SOL    HW116138   2.003   4.788   5.874
 5364SOL    HW216139   1.875   4.695   5.916
 5365SOL     OW16140   2.746   5.386   5.926
 5365SOL    HW116141   2.671   5.365   5.863
 5365SOL    HW216142   2.720   5.464   5.984
 5366SOL     OW16143   2.082   6.221   0.136
 5366SOL    HW116144   1.986   6.209   0.160
 5366SOL    HW216145   2.094   6.205   0.038
 5367SOL     OW16146   2.085   5.868   0.994
 5367SOL    HW116147   2.117   5.834   1.083
 5367SOL    HW216148   1.992   5.836   0.978
 5368SOL     OW16149   1.863   5.976   0.636
 5368SOL    HW116150   1.779   6.005   0.681
 5368SOL    HW216151   1.846   5.892   0.585
 5369SOL     OW16152   2.431   6.872   1.174
 5369SOL    HW116153   2.355   6.878   1.109
 5369SOL    HW216154   2.403   6.914   1.261
 5370SOL     OW16155   3.401   0.055   0.687
 5370SOL    HW116156   3.382   0.053   0.785
 5370SOL    HW216157   3.321   0.088   0.638
 5371SOL     OW16158   2.993   6.286   0.696
 5371SOL    HW116159   3.046   6.369   0.680
 5371SOL    HW216160   2.942   6.293   0.782
 5372SOL     OW16161   3.643   6.170   0.204
 5372SOL    HW116162   3.576   6.210   0.141
 5372SOL    HW216163   3.598   6.104   0.264
 5373SOL     OW16164   2.624   6.746   1.025
 5373SOL    HW116165   2.557   6.784   1.088
 5373SOL    HW216166   2.625   6.800   0.941
 5374SOL     OW16167   2.738   6.351   1.822
 5374SOL    HW116168   2.722   6.417   1.895
 5374SOL    HW216169   2.762   6.399   1.738
 5375SOL     OW16170   2.547   6.581   0.650
 5375SOL    HW116171   2.618   6.571   0.720
 5375SOL    HW216172   2.472   6.637   0.686
 5376SOL     OW16173   2.553   6.734   1.815
 5376SOL    HW116174   2.591   6.825   1.833
 5376SOL    HW216175   2.473   6.742   1.755
 5377SOL     OW16176   2.199   0.006   1.058
 5377SOL    HW116177   2.119   6.961   1.018
 5377SOL    HW216178   2.245   0.059   0.988
 5378SOL     OW16179   2.312   5.979   1.478
 5378SOL    HW116180   2.394   5.921   1.486
 5378SOL    HW216181   2.231   5.925   1.497
 5379SOL     OW16182   3.474   6.035   0.748
 5379SOL    HW116183   3.400   6.056   0.683
 5379SOL    HW216184   3.482   6.109   0.814
 5380SOL     OW16185   2.122   6.675   0.903
 5380SOL    HW116186   2.119   6.581   0.936
 5380SOL    HW216187   2.061   6.732   0.959
 5381SOL     OW16188   2.452   6.548   0.140
 5381SOL    HW116189   2.516   6.563   0.064
 5381SOL    HW216190   2.488   6.591   0.223
 5382SOL     OW16191   3.458   5.711   1.469
 5382SOL    HW116192   3.478   5.791   1.412
 5382SOL    HW216193   3.444   5.740   1.564
 5383SOL     OW16194   1.976   6.241   0.562
 5383SOL    HW116195   1.945   6.148   0.583
 5383SOL    HW216196   1.971   6.297   0.645
 5384SOL     OW16197   3.553   6.493   0.651
 5384SOL    HW116198   3.641   6.448   0.641
 5384SOL    HW216199   3.535   6.549   0.570
 5385SOL     OW16200   3.522   6.672   0.445
 5385SOL    HW116201   3.585   6.696   0.371
 5385SOL    HW216202   3.532   6.737   0.520
 5386SOL     OW16203   1.988   6.331   1.585
 5386SOL    HW116204   2.086   6.353   1.586
 5386SOL    HW216205   1.934   6.415   1.594
 5387SOL     OW16206   3.176   6.817   1.431
 5387SOL    HW116207   3.200   6.747   1.364
 5387SOL    HW216208   3.235   6.808   1.511
 5388SOL     OW16209   2.681   5.599   0.514
 5388SOL    HW116210   2.726   5.684   0.490
 5388SOL    HW216211   2.582   5.615   0.522
 5389SOL     OW16212   2.054   6.550   1.275
 5389SOL    HW116213   2.141   6.504   1.260
 5389SOL    HW216214   1.981   6.502   1.226
 5390SOL     OW16215   3.365   6.592   0.210
 5390SOL    HW116216   3.294   6.528   0.240
 5390SOL    HW216217   3.440   6.591   0.275
 5391SOL     OW16218   2.203   5.835   1.831
 5391SOL    HW116219   2.252   5.921   1.848
 5391SOL    HW216220   2.106   5.848   1.851
 5392SOL     OW16221   3.320   6.989   0.947
 5392SOL    HW116222   3.252   0.016   1.015
 5392SOL    HW216223   3.303   6.895   0.918
 5393SOL     OW16224   2.462   6.301   0.267
 5393SOL    HW116225   2.467   6.390   0.223
 5393SOL    HW216226   2.397   6.305   0.343
 5394SOL     OW16227   3.139   5.943   0.932
 5394SOL    HW116228   3.045   5.910   0.941
 5394SOL    HW216229   3.199   5.892   0.994
 5395SOL     OW16230   2.652   6.197   1.450
 5395SOL    HW116231   2.628   6.174   1.544
 5395SOL    HW216232   2.614   6.129   1.387
 5396SOL     OW16233   3.253   6.056   1.680
 5396SOL    HW116234   3.254   6.105   1.767
 5396SOL    HW216235   3.314   5.977   1.686
 5397SOL     OW16236   2.818   6.473   1.584
 5397SOL    HW116237   2.876   6.401   1.548
 5397SOL    HW216238   2.762   6.511   1.510
 5398SOL     OW16239   2.856   5.992   1.229
 5398SOL    HW116240   2.766   6.014   1.268
 5398SOL    HW216241   2.844   5.942   1.143
 5399SOL     OW16242   2.913   6.288   0.428
 5399SOL    HW116243   2.936   6.285   0.525
 5399SOL    HW216244   2.827   6.240   0.412
 5400SOL     OW16245   1.951   6.412   0.777
 5400SOL    HW116246   2.036   6.400   0.828
 5400SOL    HW216247   1.899   6.489   0.815
 5401SOL     OW16248   2.748   5.927   0.208
 5401SOL    HW116249   2.794   5.989   0.145
 5401SOL    HW216250   2.767   5.832   0.181
 5402SOL     OW16251   3.562   6.158   1.825
 5402SOL    HW116252   3.527   6.237   1.775
 5402SOL    HW216253   3.593   6.088   1.761
 5403SOL     OW16254   3.253   6.723   0.559
 5403SOL    HW116255   3.344   6.714   0.517
 5403SOL    HW216256   3.215   6.812   0.536
 5404SOL     OW16257   2.409   5.760   0.900
 5404SOL    HW116258   2.413   5.789   0.996
 5404SOL    HW216259   2.413   5.841   0.841
 5405SOL     OW16260   3.661   6.638   0.878
 5405SOL    HW116261   3.610   6.626   0.793
 5405SOL    HW216262   3.598   6.646   0.955
 5406SOL     OW16263   2.190   6.536   0.249
 5406SOL    HW116264   2.275   6.552   0.198
 5406SOL    HW216265   2.153   6.447   0.223
 5407SOL     OW16266   3.346   6.329   0.723
 5407SOL    HW116267   3.341   6.289   0.815
 5407SOL    HW216268   3.425   6.390   0.717
 5408SOL     OW16269   2.064   5.861   1.503
 5408SOL    HW116270   1.982   5.918   1.499
 5408SOL    HW216271   2.043   5.774   1.547
 5409SOL     OW16272   3.508   0.027   0.079
 5409SOL    HW116273   3.486   0.123   0.095
 5409SOL    HW216274   3.424   6.973   0.080
 5410SOL     OW16275   2.260   6.273   0.470
 5410SOL    HW116276   2.278   6.176   0.488
 5410SOL    HW216277   2.163   6.292   0.488
 5411SOL     OW16278   3.390   5.809   1.728
 5411SOL    HW116279   3.401   5.830   1.825
 5411SOL    HW216280   3.318   5.740   1.717
 5412SOL     OW16281   2.625   5.863   1.757
 5412SOL    HW116282   2.710   5.809   1.751
 5412SOL    HW216283   2.574   5.834   1.838
 5413SOL     OW16284   3.201   6.174   1.436
 5413SOL    HW116285   3.232   6.139   1.524
 5413SOL    HW216286   3.238   6.266   1.422
 5414SOL     OW16287   2.789   6.092   0.899
 5414SOL    HW116288   2.763   6.084   0.803
 5414SOL    HW216289   2.822   6.003   0.932
 5415SOL     OW16290   2.411   5.658   0.504
 5415SOL    HW116291   2.328   5.655   0.559
 5415SOL    HW216292   2.406   5.736   0.441
 5416SOL     OW16293   3.279   6.795   0.038
 5416SOL    HW116294   3.328   6.725   0.090
 5416SOL    HW216295   3.199   6.754   6.995
 5417SOL     OW16296   2.811   5.836   0.461
 5417SOL    HW116297   2.777   5.875   0.376
 5417SOL    HW216298   2.909   5.851   0.469
 5418SOL     OW16299   2.942   6.269   1.457
 5418SOL    HW116300   2.866   6.203   1.462
 5418SOL    HW216301   3.029   6.220   1.452
 5419SOL     OW16302   3.130   0.147   0.740
 5419SOL    HW116303   3.099   0.232   0.697
 5419SOL    HW216304   3.143   0.163   0.838
 5420SOL     OW16305   2.329   6.715   0.736
 5420SOL    HW116306   2.257   6.706   0.806
 5420SOL    HW216307   2.287   6.714   0.646
 5421SOL     OW16308   2.927   6.175   0.030
 5421SOL    HW116309   2.830   6.189   0.049
 5421SOL    HW216310   2.975   6.155   0.115
 5422SOL     OW16311   1.948   6.144   1.390
 5422SOL    HW116312   2.043   6.139   1.359
 5422SOL    HW216313   1.940   6.215   1.460
 5423SOL     OW16314   2.420   5.809   1.172
 5423SOL    HW116315   2.470   5.734   1.215
 5423SOL    HW216316   2.325   5.808   1.202
 5424SOL     OW16317   2.728   6.042   0.639
 5424SOL    HW116318   2.684   6.106   0.575
 5424SOL    HW216319   2.755   5.960   0.590
 5425SOL     OW16320   2.881   5.635   0.742
 5425SOL    HW116321   2.816   5.636   0.665
 5425SOL    HW216322   2.856   5.562   0.805
 5426SOL     OW16323   3.302   6.732   0.862
 5426SOL    HW116324   3.225   6.668   0.862
 5426SOL    HW216325   3.333   6.747   0.769
 5427SOL     OW16326   3.330   6.192   0.971
 5427SOL    HW116327   3.268   6.113   0.971
 5427SOL    HW216328   3.391   6.187   1.050
 5428SOL     OW16329   3.698   6.394   0.385
 5428SOL    HW116330   3.754   6.336   0.444
 5428SOL    HW216331   3.685   6.350   0.297
 5429SOL     OW16332   3.541   6.831   0.654
 5429SOL    HW116333   3.639   6.844   0.670
 5429SOL    HW216334   3.493   6.917   0.670
 5430SOL     OW16335   3.252   6.140   0.068
 5430SOL    HW116336   3.192   6.138   0.148
 5430SOL    HW216337   3.315   6.062   0.072
 5431SOL     OW16338   2.375   5.850   0.312
 5431SOL    HW116339   2.391   5.784   0.238
 5431SOL    HW216340   2.352   5.939   0.273
 5432SOL     OW16341   3.616   6.813   1.567
 5432SOL    HW116342   3.700   6.763   1.588
 5432SOL    HW216343   3.632   6.911   1.578
 5433SOL     OW16344   2.938   6.894   1.327
 5433SOL    HW116345   2.858   6.879   1.385
 5433SOL    HW216346   3.021   6.877   1.379
 5434SOL     OW16347   2.997   6.760   1.101
 5434SOL    HW116348   2.965   6.810   1.181
 5434SOL    HW216349   2.943   6.787   1.021
 5435SOL     OW16350   3.485   6.681   1.083
 5435SOL    HW116351   3.473   6.737   1.164
 5435SOL    HW216352   3.409   6.697   1.020
 5436SOL     OW16353   2.785   5.680   1.391
 5436SOL    HW116354   2.807   5.658   1.296
 5436SOL    HW216355   2.865   5.724   1.434
 5437SOL     OW16356   2.829   6.696   1.738
 5437SOL    HW116357   2.732   6.710   1.756
 5437SOL    HW216358   2.842   6.622   1.672
 5438SOL     OW16359   2.569   6.632   0.373
 5438SOL    HW116360   2.555   6.622   0.471
 5438SOL    HW216361   2.652   6.582   0.346
 5439SOL     OW16362   2.283   6.400   1.254
 5439SOL    HW116363   2.356   6.414   1.322
 5439SOL    HW216364   2.244   6.309   1.265
 5440SOL     OW16365   3.124   5.962   1.280
 5440SOL    HW116366   3.161   6.041   1.329
 5440SOL    HW216367   3.029   5.980   1.255
 5441SOL     OW16368   2.212   6.700   0.489
 5441SOL    HW116369   2.255   6.778   0.443
 5441SOL    HW216370   2.218   6.620   0.429
 5442SOL     OW16371   2.410   6.129   0.861
 5442SOL    HW116372   2.425   6.188   0.782
 5442SOL    HW216373   2.479   6.149   0.931
 5443SOL     OW16374   3.448   6.211   0.481
 5443SOL    HW116375   3.392   6.254   0.553
 5443SOL    HW216376   3.502   6.282   0.435
 5444SOL     OW16377   2.278   6.330   1.601
 5444SOL    HW116378   2.344   6.375   1.541
 5444SOL    HW216379   2.310   6.238   1.624
 5445SOL     OW16380   3.469   6.370   1.684
 5445SOL    HW116381   3.378   6.410   1.682
 5445SOL    HW216382   3.526   6.411   1.613
 5446SOL     OW16383   2.859   5.720   1.750
 5446SOL    HW116384   2.917   5.799   1.734
 5446SOL    HW216385   2.908   5.637   1.723
 5447SOL     OW16386   2.354   5.622   1.750
 5447SOL    HW116387   2.310   5.564   1.682
 5447SOL    HW216388   2.297   5.702   1.769
 5448SOL     OW16389   2.444   6.453   1.035
 5448SOL    HW116390   2.472   6.548   1.025
 5448SOL    HW216391   2.383   6.443   1.114
 5449SOL     OW16392   3.219   6.440   1.026
 5449SOL    HW116393   3.127   6.437   0.985
 5449SOL    HW216394   3.263   6.351   1.014
 5450SOL     OW16395   3.056   6.113   0.271
 5450SOL    HW116396   3.071   6.033   0.329
 5450SOL    HW216397   3.016   6.187   0.326
 5451SOL     OW16398   2.159   5.783   1.247
 5451SOL    HW116399   2.123   5.819   1.332
 5451SOL    HW216400   2.144   5.684   1.243
 5452SOL     OW16401   1.923   6.898   1.282
 5452SOL    HW116402   1.956   6.842   1.358
 5452SOL    HW216403   1.921   6.994   1.310
 5453SOL     OW16404   2.586   6.215   1.055
 5453SOL    HW116405   2.663   6.197   0.994
 5453SOL    HW216406   2.551   6.307   1.037
 5454SOL     OW16407   3.597   6.547   1.853
 5454SOL    HW116408   3.553   6.477   1.797
 5454SOL    HW216409   3.541   6.563   1.935
 5455SOL     OW16410   2.166   5.652   0.630
 5455SOL    HW116411   2.143   5.747   0.650
 5455SOL    HW216412   2.178   5.601   0.715
 5456SOL     OW16413   3.490   5.963   0.374
 5456SOL    HW116414   3.514   5.893   0.442
 5456SOL    HW216415   3.466   6.048   0.422
 5457SOL     OW16416   2.886   6.339   0.958
 5457SOL    HW116417   2.882   6.362   1.056
 5457SOL    HW216418   2.859   6.244   0.945
 5458SOL     OW16419   3.717   0.065   1.600
 5458SOL    HW116420   3.754   0.141   1.547
 5458SOL    HW216421   3.772   0.053   1.683
 5459SOL     OW16422   2.217   6.508   1.801
 5459SOL    HW116423   2.292   6.518   1.866
 5459SOL    HW216424   2.241   6.440   1.732
 5460SOL     OW16425   3.347   5.880   0.154
 5460SOL    HW116426   3.309   5.789   0.168
 5460SOL    HW216427   3.406   5.903   0.231
 5461SOL     OW16428   3.155   6.410   0.030
 5461SOL    HW116429   3.198   6.321   0.023
 5461SOL    HW216430   3.185   6.469   6.955
 5462SOL     OW16431   2.172   6.391   0.942
 5462SOL    HW116432   2.268   6.417   0.936
 5462SOL    HW216433   2.164   6.297   0.976
 5463SOL     OW16434   2.190   6.113   1.011
 5463SOL    HW116435   2.151   6.021   1.001
 5463SOL    HW216436   2.270   6.122   0.953
 5464SOL     OW16437   2.996   5.959   1.692
 5464SOL    HW116438   2.943   6.015   1.755
 5464SOL    HW216439   3.088   5.996   1.683
 5465SOL     OW16440   3.024   5.789   1.475
 5465SOL    HW116441   3.009   5.852   1.552
 5465SOL    HW216442   3.066   5.839   1.400
 5466SOL     OW16443   2.837   6.378   1.225
 5466SOL    HW116444   2.897   6.354   1.301
 5466SOL    HW216445   2.748   6.333   1.238
 5467SOL     OW16446   1.899   6.138   1.117
 5467SOL    HW116447   1.982   6.125   1.062
 5467SOL    HW216448   1.924   6.141   1.214
 5468SOL     OW16449   2.054   6.109   1.730
 5468SOL    HW116450   2.105   6.054   1.664
 5468SOL    HW216451   2.015   6.189   1.684
 5469SOL     OW16452   3.242   6.523   1.655
 5469SOL    HW116453   3.272   6.618   1.654
 5469SOL    HW216454   3.239   6.488   1.561
 5470SOL     OW16455   2.681   6.155   0.371
 5470SOL    HW116456   2.688   6.076   0.310
 5470SOL    HW216457   2.603   6.212   0.343
 5471SOL     OW16458   3.505   6.188   1.181
 5471SOL    HW116459   3.489   6.129   1.260
 5471SOL    HW216460   3.596   6.171   1.144
 5472SOL     OW16461   2.570   6.033   1.253
 5472SOL    HW116462   2.512   5.955   1.229
 5472SOL    HW216463   2.566   6.101   1.180
 5473SOL     OW16464   2.317   6.084   0.189
 5473SOL    HW116465   2.381   6.156   0.215
 5473SOL    HW216466   2.224   6.122   0.185
 5474SOL     OW16467   2.029   6.728   1.477
 5474SOL    HW116468   2.018   6.679   1.563
 5474SOL    HW216469   2.040   6.662   1.403
 5475SOL     OW16470   3.191   6.623   1.224
 5475SOL    HW116471   3.221   6.556   1.156
 5475SOL    HW216472   3.118   6.679   1.185
 5476SOL     OW16473   3.164   6.433   0.304
 5476SOL    HW116474   3.084   6.405   0.357
 5476SOL    HW216475   3.147   6.414   0.207
 5477SOL     OW16476   1.945   6.858   1.014
 5477SOL    HW116477   1.931   6.868   1.112
 5477SOL    HW216478   1.874   6.799   0.976
 5478SOL     OW16479   2.801   5.662   0.112
 5478SOL    HW116480   2.872   5.717   0.067
 5478SOL    HW216481   2.844   5.603   0.180
 5479SOL     OW16482   3.590   5.746   0.528
 5479SOL    HW116483   3.660   5.738   0.457
 5479SOL    HW216484   3.563   5.655   0.559
 5480SOL     OW16485   3.144   6.506   0.671
 5480SOL    HW116486   3.218   6.441   0.686
 5480SOL    HW216487   3.178   6.585   0.619
 5481SOL     OW16488   2.678   6.844   1.419
 5481SOL    HW116489   2.651   6.886   1.506
 5481SOL    HW216490   2.606   6.860   1.352
 5482SOL     OW16491   3.704   5.755   0.963
 5482SOL    HW116492   3.738   5.664   0.941
 5482SOL    HW216493   3.613   5.767   0.923
 5483SOL     OW16494   2.118   5.903   0.717
 5483SOL    HW116495   2.029   5.941   0.690
 5483SOL    HW216496   2.121   5.894   0.816
 5484SOL     OW16497   2.688   6.582   1.370
 5484SOL    HW116498   2.746   6.559   1.292
 5484SOL    HW216499   2.692   6.680   1.387
 5485SOL     OW16500   2.787   6.499   0.290
 5485SOL    HW116501   2.846   6.536   0.219
 5485SOL    HW216502   2.835   6.429   0.341
 5486SOL     OW16503   2.255   6.892   1.498
 5486SOL    HW116504   2.220   6.983   1.478
 5486SOL    HW216505   2.179   6.827   1.502
 5487SOL     OW16506   3.466   6.845   1.313
 5487SOL    HW116507   3.542   6.833   1.378
 5487SOL    HW216508   3.398   6.907   1.353
 5488SOL     OW16509   2.922   6.697   0.729
 5488SOL    HW116510   2.843   6.646   0.763
 5488SOL    HW216511   2.988   6.634   0.688
 5489SOL     OW16512   2.885   5.824   0.966
 5489SOL    HW116513   2.880   5.781   0.876
 5489SOL    HW216514   2.882   5.755   1.038
 5490SOL     OW16515   3.593   5.980   1.380
 5490SOL    HW116516   3.666   6.048   1.381
 5490SOL    HW216517   3.619   5.905   1.319
 5491SOL     OW16518   1.971   6.609   1.716
 5491SOL    HW116519   1.891   6.587   1.773
 5491SOL    HW216520   2.054   6.575   1.760
 5492SOL     OW16521   2.545   5.780   1.500
 5492SOL    HW116522   2.632   5.756   1.456
 5492SOL    HW216523   2.563   5.814   1.592
 5493SOL     OW16524   1.968   5.905   0.015
 5493SOL    HW116525   1.906   5.851   6.958
 5493SOL    HW216526   1.996   5.988   6.966
 5494SOL     OW16527   3.288   6.438   1.398
 5494SOL    HW116528   3.234   6.502   1.344
 5494SOL    HW216529   3.383   6.438   1.366
 5495SOL     OW16530   1.913   5.759   0.334
 5495SOL    HW116531   1.893   5.843   0.282
 5495SOL    HW216532   2.002   5.724   0.306
 5496SOL     OW16533   2.484   6.413   1.434
 5496SOL    HW116534   2.543   6.492   1.415
 5496SOL    HW216535   2.541   6.331   1.444
 5497SOL     OW16536   2.585   6.144   1.703
 5497SOL    HW116537   2.629   6.210   1.763
 5497SOL    HW216538   2.603   6.051   1.736
 5498SOL     OW16539   3.347   6.778   1.646
 5498SOL    HW116540   3.334   6.797   1.743
 5498SOL    HW216541   3.443   6.793   1.622
 5499SOL     OW16542   3.529   6.461   1.254
 5499SOL    HW116543   3.523   6.370   1.212
 5499SOL    HW216544   3.516   6.531   1.183
 5500SOL     OW16545   3.083   5.903   0.457
 5500SOL    HW116546   3.164   5.851   0.428
 5500SOL    HW216547   3.105   5.955   0.539
 5501SOL     OW16548   2.449   6.321   0.666
 5501SOL    HW116549   2.490   6.412   0.660
 5501SOL    HW216550   2.379   6.311   0.596
 5502SOL     OW16551   3.613   5.950   1.652
 5502SOL    HW116552   3.603   5.967   1.554
 5502SOL    HW216553   3.539   5.891   1.683
 5503SOL     OW16554   3.606   6.519   1.507
 5503SOL    HW116555   3.599   6.618   1.525
 5503SOL    HW216556   3.590   6.502   1.410
 5504SOL     OW16557   2.729   6.550   0.858
 5504SOL    HW116558   2.783   6.473   0.893
 5504SOL    HW216559   2.697   6.606   0.935
 5505SOL     OW16560   2.951   6.585   0.085
 5505SOL    HW116561   2.897   6.591   0.001
 5505SOL    HW216562   3.029   6.524   0.070
 5506SOL     OW16563   2.074   6.908   1.812
 5506SOL    HW116564   2.016   6.827   1.823
 5506SOL    HW216565   2.087   6.952   1.901
 5507SOL     OW16566   1.954   6.822   0.674
 5507SOL    HW116567   1.972   6.760   0.751
 5507SOL    HW216568   2.013   6.796   0.597
 5508SOL     OW16569   2.567   6.970   1.632
 5508SOL    HW116570   2.469   6.962   1.653
 5508SOL    HW216571   2.588   0.066   1.611
 5509SOL     OW16572   3.666   5.769   1.233
 5509SOL    HW116573   3.682   5.673   1.258
 5509SOL    HW216574   3.679   5.780   1.135
 5510SOL     OW16575   2.292   6.015   0.527
 5510SOL    HW116576   2.323   5.943   0.465
 5510SOL    HW216577   2.238   5.974   0.601
 5511SOL     OW16578   3.507   0.044   1.138
 5511SOL    HW116579   3.460   0.028   1.051
 5511SOL    HW216580   3.502   6.961   1.194
 5512SOL     OW16581   2.197   6.142   1.289
 5512SOL    HW116582   2.253   6.085   1.349
 5512SOL    HW216583   2.212   6.116   1.194
 5513SOL     OW16584   3.293   5.817   1.117
 5513SOL    HW116585   3.316   5.728   1.155
 5513SOL    HW216586   3.238   5.868   1.184
 5514SOL     OW16587   2.872   5.602   1.137
 5514SOL    HW116588   2.808   5.538   1.095
 5514SOL    HW216589   2.963   5.562   1.139
 5515SOL     OW16590   2.669   6.878   0.289
 5515SOL    HW116591   2.627   6.790   0.313
 5515SOL    HW216592   2.680   6.933   0.372
 5516SOL     OW16593   3.215   5.639   0.185
 5516SOL    HW116594   3.255   5.582   0.114
 5516SOL    HW216595   3.129   5.600   0.216
 5517SOL     OW16596   3.147   6.046   0.678
 5517SOL    HW116597   3.097   6.133   0.682
 5517SOL    HW216598   3.149   6.005   0.770
 5518SOL     OW16599   3.447   5.789   0.883
 5518SOL    HW116600   3.390   5.809   0.963
 5518SOL    HW216601   3.451   5.869   0.824
 5519SOL     OW16602   1.940   6.644   0.318
 5519SOL    HW116603   2.038   6.626   0.319
 5519SOL    HW216604   1.891   6.561   0.344
 5520SOL     OW16605   2.084   6.206   1.989
 5520SOL    HW116606   1.992   6.205   2.030
 5520SOL    HW216607   2.077   6.182   1.892
 5521SOL     OW16608   2.085   5.869   2.857
 5521SOL    HW116609   2.117   5.834   2.945
 5521SOL    HW216610   1.991   5.836   2.840
 5522SOL     OW16611   1.862   5.972   2.496
 5522SOL    HW116612   1.779   6.002   2.541
 5522SOL    HW216613   1.844   5.888   2.444
 5523SOL     OW16614   2.431   6.872   3.036
 5523SOL    HW116615   2.355   6.877   2.971
 5523SOL    HW216616   2.403   6.915   3.122
 5524SOL     OW16617   3.404   0.055   2.552
 5524SOL    HW116618   3.382   0.051   2.649
 5524SOL    HW216619   3.324   0.090   2.502
 5525SOL     OW16620   2.993   6.287   2.557
 5525SOL    HW116621   3.046   6.370   2.541
 5525SOL    HW216622   2.943   6.295   2.643
 5526SOL     OW16623   3.633   6.183   2.084
 5526SOL    HW116624   3.608   6.179   1.987
 5526SOL    HW216625   3.593   6.104   2.131
 5527SOL     OW16626   2.626   6.748   2.887
 5527SOL    HW116627   2.558   6.785   2.950
 5527SOL    HW216628   2.624   6.801   2.802
 5528SOL     OW16629   2.738   6.351   3.684
 5528SOL    HW116630   2.722   6.417   3.757
 5528SOL    HW216631   2.762   6.399   3.600
 5529SOL     OW16632   2.548   6.583   2.510
 5529SOL    HW116633   2.618   6.572   2.580
 5529SOL    HW216634   2.473   6.638   2.546
 5530SOL     OW16635   2.553   6.734   3.677
 5530SOL    HW116636   2.590   6.825   3.695
 5530SOL    HW216637   2.473   6.742   3.617
 5531SOL     OW16638   2.198   0.006   2.921
 5531SOL    HW116639   2.119   6.961   2.880
 5531SOL    HW216640   2.246   0.059   2.850
 5532SOL     OW16641   2.312   5.980   3.341
 5532SOL    HW116642   2.393   5.922   3.348
 5532SOL    HW216643   2.231   5.925   3.359
 5533SOL     OW16644   3.473   6.032   2.606
 5533SOL    HW116645   3.397   6.051   2.544
 5533SOL    HW216646   3.482   6.107   2.671
 5534SOL     OW16647   2.122   6.676   2.765
 5534SOL    HW116648   2.120   6.581   2.797
 5534SOL    HW216649   2.061   6.731   2.821
 5535SOL     OW16650   2.441   6.565   2.005
 5535SOL    HW116651   2.486   6.616   1.931
 5535SOL    HW216652   2.482   6.591   2.092
 5536SOL     OW16653   3.458   5.711   3.331
 5536SOL    HW116654   3.478   5.790   3.274
 5536SOL    HW216655   3.444   5.740   3.426
 5537SOL     OW16656   1.977   6.245   2.427
 5537SOL    HW116657   1.947   6.151   2.444
 5537SOL    HW216658   1.970   6.298   2.511
 5538SOL     OW16659   3.551   6.502   2.506
 5538SOL    HW116660   3.639   6.458   2.492
 5538SOL    HW216661   3.529   6.558   2.426
 5539SOL     OW16662   3.514   6.692   2.288
 5539SOL    HW116663   3.603   6.686   2.243
 5539SOL    HW216664   3.522   6.750   2.369
 5540SOL     OW16665   1.988   6.331   3.447
 5540SOL    HW116666   2.085   6.353   3.448
 5540SOL    HW216667   1.934   6.415   3.456
 5541SOL     OW16668   3.176   6.817   3.293
 5541SOL    HW116669   3.200   6.747   3.226
 5541SOL    HW216670   3.235   6.808   3.373
 5542SOL     OW16671   2.679   5.595   2.370
 5542SOL    HW116672   2.725   5.681   2.348
 5542SOL    HW216673   2.581   5.611   2.378
 5543SOL     OW16674   2.054   6.550   3.137
 5543SOL    HW116675   2.141   6.504   3.123
 5543SOL    HW216676   1.982   6.502   3.087
 5544SOL     OW16677   3.398   6.587   2.064
 5544SOL    HW116678   3.324   6.526   2.093
 5544SOL    HW216679   3.445   6.623   2.144
 5545SOL     OW16680   2.203   5.835   3.694
 5545SOL    HW116681   2.252   5.921   3.710
 5545SOL    HW216682   2.106   5.848   3.713
 5546SOL     OW16683   3.320   6.988   2.809
 5546SOL    HW116684   3.251   0.014   2.877
 5546SOL    HW216685   3.304   6.894   2.779
 5547SOL     OW16686   2.457   6.303   2.136
 5547SOL    HW116687   2.461   6.388   2.084
 5547SOL    HW216688   2.388   6.311   2.208
 5548SOL     OW16689   3.139   5.945   2.795
 5548SOL    HW116690   3.046   5.910   2.802
 5548SOL    HW216691   3.198   5.892   2.857
 5549SOL     OW16692   2.652   6.197   3.312
 5549SOL    HW116693   2.627   6.174   3.406
 5549SOL    HW216694   2.615   6.129   3.249
 5550SOL     OW16695   3.253   6.056   3.542
 5550SOL    HW116696   3.254   6.105   3.629
 5550SOL    HW216697   3.314   5.977   3.548
 5551SOL     OW16698   2.818   6.473   3.446
 5551SOL    HW116699   2.876   6.400   3.410
 5551SOL    HW216700   2.762   6.511   3.372
 5552SOL     OW16701   2.856   5.992   3.091
 5552SOL    HW116702   2.766   6.013   3.129
 5552SOL    HW216703   2.845   5.944   3.004
 5553SOL     OW16704   2.912   6.285   2.286
 5553SOL    HW116705   2.934   6.281   2.384
 5553SOL    HW216706   2.826   6.237   2.269
 5554SOL     OW16707   1.949   6.413   2.641
 5554SOL    HW116708   2.034   6.402   2.692
 5554SOL    HW216709   1.898   6.490   2.679
 5555SOL     OW16710   2.758   5.938   2.059
 5555SOL    HW116711   2.798   6.006   1.997
 5555SOL    HW216712   2.767   5.847   2.019
 5556SOL     OW16713   3.562   6.158   3.687
 5556SOL    HW116714   3.527   6.237   3.637
 5556SOL    HW216715   3.593   6.088   3.623
 5557SOL     OW16716   3.249   6.722   2.408
 5557SOL    HW116717   3.329   6.715   2.349
 5557SOL    HW216718   3.197   6.804   2.384
 5558SOL     OW16719   2.409   5.759   2.762
 5558SOL    HW116720   2.413   5.789   2.858
 5558SOL    HW216721   2.412   5.839   2.702
 5559SOL     OW16722   3.660   6.639   2.739
 5559SOL    HW116723   3.609   6.629   2.654
 5559SOL    HW216724   3.597   6.646   2.816
 5560SOL     OW16725   2.184   6.546   2.120
 5560SOL    HW116726   2.272   6.562   2.076
 5560SOL    HW216727   2.145   6.460   2.085
 5561SOL     OW16728   3.346   6.332   2.585
 5561SOL    HW116729   3.342   6.290   2.676
 5561SOL    HW216730   3.426   6.393   2.581
 5562SOL     OW16731   2.064   5.861   3.365
 5562SOL    HW116732   1.982   5.918   3.361
 5562SOL    HW216733   2.043   5.775   3.410
 5563SOL     OW16734   3.502   6.969   1.947
 5563SOL    HW116735   3.469   0.062   1.965
 5563SOL    HW216736   3.424   6.908   1.933
 5564SOL     OW16737   3.263   5.690   2.298
 5564SOL    HW116738   3.251   5.665   2.202
 5564SOL    HW216739   3.361   5.699   2.319
 5565SOL     OW16740   2.258   6.274   2.336
 5565SOL    HW116741   2.277   6.177   2.350
 5565SOL    HW216742   2.161   6.291   2.355
 5566SOL     OW16743   3.390   5.809   3.590
 5566SOL    HW116744   3.401   5.830   3.687
 5566SOL    HW216745   3.318   5.741   3.578
 5567SOL     OW16746   2.503   5.703   1.964
 5567SOL    HW116747   2.571   5.634   1.986
 5567SOL    HW216748   2.447   5.672   1.887
 5568SOL     OW16749   2.625   5.863   3.619
 5568SOL    HW116750   2.710   5.809   3.613
 5568SOL    HW216751   2.574   5.834   3.700
 5569SOL     OW16752   3.201   6.174   3.298
 5569SOL    HW116753   3.231   6.139   3.386
 5569SOL    HW216754   3.237   6.266   3.284
 5570SOL     OW16755   2.789   6.092   2.760
 5570SOL    HW116756   2.763   6.085   2.664
 5570SOL    HW216757   2.821   6.003   2.792
 5571SOL     OW16758   2.409   5.650   2.356
 5571SOL    HW116759   2.327   5.648   2.414
 5571SOL    HW216760   2.406   5.731   2.297
 5572SOL     OW16761   3.281   6.788   1.921
 5572SOL    HW116762   3.334   6.718   1.968
 5572SOL    HW216763   3.187   6.755   1.908
 5573SOL     OW16764   2.153   5.634   2.048
 5573SOL    HW116765   2.205   5.706   2.002
 5573SOL    HW216766   2.215   5.569   2.091
 5574SOL     OW16767   2.808   5.837   2.318
 5574SOL    HW116768   2.776   5.878   2.233
 5574SOL    HW216769   2.907   5.850   2.327
 5575SOL     OW16770   2.942   6.269   3.318
 5575SOL    HW116771   2.866   6.203   3.323
 5575SOL    HW216772   3.028   6.220   3.313
 5576SOL     OW16773   3.132   0.147   2.602
 5576SOL    HW116774   3.099   0.231   2.558
 5576SOL    HW216775   3.143   0.163   2.700
 5577SOL     OW16776   2.328   6.714   2.597
 5577SOL    HW116777   2.257   6.705   2.667
 5577SOL    HW216778   2.286   6.711   2.506
 5578SOL     OW16779   2.883   6.122   1.892
 5578SOL    HW116780   2.838   6.208   1.868
 5578SOL    HW216781   2.952   6.138   1.962
 5579SOL     OW16782   1.948   6.144   3.253
 5579SOL    HW116783   2.043   6.139   3.221
 5579SOL    HW216784   1.940   6.215   3.322
 5580SOL     OW16785   2.420   5.810   3.034
 5580SOL    HW116786   2.470   5.734   3.076
 5580SOL    HW216787   2.325   5.808   3.063
 5581SOL     OW16788   2.727   6.044   2.499
 5581SOL    HW116789   2.680   6.106   2.437
 5581SOL    HW216790   2.755   5.962   2.449
 5582SOL     OW16791   2.879   5.639   2.608
 5582SOL    HW116792   2.819   5.639   2.528
 5582SOL    HW216793   2.854   5.563   2.668
 5583SOL     OW16794   3.302   6.733   2.720
 5583SOL    HW116795   3.226   6.669   2.722
 5583SOL    HW216796   3.333   6.746   2.626
 5584SOL     OW16797   3.330   6.192   2.832
 5584SOL    HW116798   3.268   6.114   2.832
 5584SOL    HW216799   3.391   6.186   2.911
 5585SOL     OW16800   3.704   6.391   2.242
 5585SOL    HW116801   3.762   6.344   2.309
 5585SOL    HW216802   3.676   6.326   2.171
 5586SOL     OW16803   3.542   6.831   2.510
 5586SOL    HW116804   3.640   6.842   2.527
 5586SOL    HW216805   3.495   6.917   2.531
 5587SOL     OW16806   3.252   6.160   1.933
 5587SOL    HW116807   3.189   6.138   2.007
 5587SOL    HW216808   3.345   6.134   1.959
 5588SOL     OW16809   2.390   5.850   2.172
 5588SOL    HW116810   2.438   5.798   2.101
 5588SOL    HW216811   2.361   5.938   2.134
 5589SOL     OW16812   3.616   6.813   3.429
 5589SOL    HW116813   3.700   6.763   3.450
 5589SOL    HW216814   3.632   6.911   3.440
 5590SOL     OW16815   2.938   6.894   3.188
 5590SOL    HW116816   2.858   6.879   3.247
 5590SOL    HW216817   3.021   6.877   3.241
 5591SOL     OW16818   2.999   6.762   2.962
 5591SOL    HW116819   2.966   6.811   3.043
 5591SOL    HW216820   2.941   6.785   2.884
 5592SOL     OW16821   3.484   6.681   2.944
 5592SOL    HW116822   3.473   6.737   3.026
 5592SOL    HW216823   3.408   6.698   2.882
 5593SOL     OW16824   2.785   5.680   3.254
 5593SOL    HW116825   2.807   5.657   3.159
 5593SOL    HW216826   2.865   5.724   3.296
 5594SOL     OW16827   2.829   6.696   3.600
 5594SOL    HW116828   2.732   6.710   3.618
 5594SOL    HW216829   2.842   6.622   3.534
 5595SOL     OW16830   2.571   6.638   2.231
 5595SOL    HW116831   2.557   6.629   2.329
 5595SOL    HW216832   2.652   6.587   2.203
 5596SOL     OW16833   2.283   6.401   3.117
 5596SOL    HW116834   2.356   6.414   3.184
 5596SOL    HW216835   2.244   6.309   3.127
 5597SOL     OW16836   3.124   5.962   3.142
 5597SOL    HW116837   3.161   6.041   3.191
 5597SOL    HW216838   3.029   5.979   3.117
 5598SOL     OW16839   2.203   6.704   2.353
 5598SOL    HW116840   2.245   6.783   2.309
 5598SOL    HW216841   2.197   6.628   2.288
 5599SOL     OW16842   2.410   6.130   2.724
 5599SOL    HW116843   2.424   6.189   2.645
 5599SOL    HW216844   2.480   6.149   2.793
 5600SOL     OW16845   3.439   6.207   2.344
 5600SOL    HW116846   3.390   6.254   2.417
 5600SOL    HW216847   3.490   6.275   2.290
 5601SOL     OW16848   2.278   6.330   3.463
 5601SOL    HW116849   2.344   6.375   3.403
 5601SOL    HW216850   2.310   6.238   3.486
 5602SOL     OW16851   3.469   6.370   3.546
 5602SOL    HW116852   3.378   6.410   3.544
 5602SOL    HW216853   3.526   6.411   3.475
 5603SOL     OW16854   2.859   5.720   3.612
 5603SOL    HW116855   2.917   5.800   3.596
 5603SOL    HW216856   2.908   5.637   3.585
 5604SOL     OW16857   2.354   5.622   3.612
 5604SOL    HW116858   2.310   5.564   3.544
 5604SOL    HW216859   2.297   5.702   3.631
 5605SOL     OW16860   2.445   6.452   2.898
 5605SOL    HW116861   2.471   6.548   2.887
 5605SOL    HW216862   2.384   6.443   2.976
 5606SOL     OW16863   3.219   6.440   2.888
 5606SOL    HW116864   3.127   6.437   2.848
 5606SOL    HW216865   3.263   6.351   2.876
 5607SOL     OW16866   3.059   6.113   2.126
 5607SOL    HW116867   3.072   6.030   2.181
 5607SOL    HW216868   3.015   6.183   2.182
 5608SOL     OW16869   2.159   5.782   3.109
 5608SOL    HW116870   2.123   5.819   3.194
 5608SOL    HW216871   2.143   5.684   3.105
 5609SOL     OW16872   1.922   6.898   3.144
 5609SOL    HW116873   1.956   6.841   3.220
 5609SOL    HW216874   1.921   6.994   3.172
 5610SOL     OW16875   2.588   6.215   2.918
 5610SOL    HW116876   2.664   6.196   2.856
 5610SOL    HW216877   2.551   6.307   2.899
 5611SOL     OW16878   3.597   6.547   3.715
 5611SOL    HW116879   3.553   6.477   3.659
 5611SOL    HW216880   3.541   6.563   3.797
 5612SOL     OW16881   2.168   5.647   2.490
 5612SOL    HW116882   2.144   5.742   2.508
 5612SOL    HW216883   2.179   5.598   2.576
 5613SOL     OW16884   3.488   5.967   2.224
 5613SOL    HW116885   3.515   5.894   2.287
 5613SOL    HW216886   3.460   6.047   2.276
 5614SOL     OW16887   2.886   6.340   2.820
 5614SOL    HW116888   2.882   6.362   2.917
 5614SOL    HW216889   2.859   6.244   2.806
 5615SOL     OW16890   3.717   0.065   3.463
 5615SOL    HW116891   3.754   0.141   3.409
 5615SOL    HW216892   3.772   0.053   3.545
 5616SOL     OW16893   2.217   6.508   3.663
 5616SOL    HW116894   2.292   6.518   3.728
 5616SOL    HW216895   2.241   6.440   3.594
 5617SOL     OW16896   3.389   5.855   1.992
 5617SOL    HW116897   3.320   5.787   2.017
 5617SOL    HW216898   3.426   5.897   2.075
 5618SOL     OW16899   3.150   6.410   1.885
 5618SOL    HW116900   3.191   6.319   1.896
 5618SOL    HW216901   3.181   6.451   1.799
 5619SOL     OW16902   2.171   6.392   2.804
 5619SOL    HW116903   2.268   6.416   2.795
 5619SOL    HW216904   2.164   6.298   2.837
 5620SOL     OW16905   2.189   6.113   2.874
 5620SOL    HW116906   2.151   6.022   2.863
 5620SOL    HW216907   2.270   6.123   2.815
 5621SOL     OW16908   2.996   5.959   3.554
 5621SOL    HW116909   2.943   6.015   3.617
 5621SOL    HW216910   3.088   5.996   3.545
 5622SOL     OW16911   3.024   5.789   3.338
 5622SOL    HW116912   3.009   5.851   3.414
 5622SOL    HW216913   3.066   5.839   3.262
 5623SOL     OW16914   1.885   6.895   2.044
 5623SOL    HW116915   1.796   6.923   2.006
 5623SOL    HW216916   1.875   6.806   2.089
 5624SOL     OW16917   2.837   6.378   3.086
 5624SOL    HW116918   2.897   6.354   3.163
 5624SOL    HW216919   2.748   6.332   3.098
 5625SOL     OW16920   1.899   6.138   2.979
 5625SOL    HW116921   1.981   6.125   2.924
 5625SOL    HW216922   1.924   6.140   3.076
 5626SOL     OW16923   2.054   6.109   3.592
 5626SOL    HW116924   2.106   6.054   3.526
 5626SOL    HW216925   2.015   6.188   3.546
 5627SOL     OW16926   3.242   6.523   3.517
 5627SOL    HW116927   3.272   6.618   3.516
 5627SOL    HW216928   3.239   6.488   3.423
 5628SOL     OW16929   2.680   6.158   2.222
 5628SOL    HW116930   2.689   6.078   2.163
 5628SOL    HW216931   2.601   6.212   2.194
 5629SOL     OW16932   3.504   6.188   3.043
 5629SOL    HW116933   3.488   6.128   3.122
 5629SOL    HW216934   3.596   6.171   3.006
 5630SOL     OW16935   2.570   6.033   3.115
 5630SOL    HW116936   2.512   5.955   3.091
 5630SOL    HW216937   2.567   6.101   3.042
 5631SOL     OW16938   2.320   6.081   2.047
 5631SOL    HW116939   2.385   6.152   2.073
 5631SOL    HW216940   2.230   6.121   2.033
 5632SOL     OW16941   2.029   6.728   3.339
 5632SOL    HW116942   2.018   6.680   3.426
 5632SOL    HW216943   2.040   6.662   3.265
 5633SOL     OW16944   3.191   6.623   3.085
 5633SOL    HW116945   3.221   6.555   3.018
 5633SOL    HW216946   3.118   6.679   3.047
 5634SOL     OW16947   3.179   6.447   2.158
 5634SOL    HW116948   3.106   6.416   2.220
 5634SOL    HW216949   3.151   6.430   2.064
 5635SOL     OW16950   1.945   6.858   2.876
 5635SOL    HW116951   1.930   6.868   2.974
 5635SOL    HW216952   1.874   6.798   2.837
 5636SOL     OW16953   3.581   5.736   2.361
 5636SOL    HW116954   3.657   5.726   2.296
 5636SOL    HW216955   3.564   5.648   2.406
 5637SOL     OW16956   3.145   6.508   2.531
 5637SOL    HW116957   3.219   6.443   2.548
 5637SOL    HW216958   3.179   6.586   2.479
 5638SOL     OW16959   2.678   6.844   3.281
 5638SOL    HW116960   2.651   6.886   3.368
 5638SOL    HW216961   2.606   6.860   3.213
 5639SOL     OW16962   3.704   5.755   2.826
 5639SOL    HW116963   3.738   5.664   2.803
 5639SOL    HW216964   3.613   5.767   2.786
 5640SOL     OW16965   2.117   5.899   2.577
 5640SOL    HW116966   2.029   5.937   2.550
 5640SOL    HW216967   2.121   5.892   2.677
 5641SOL     OW16968   3.111   0.210   1.872
 5641SOL    HW116969   3.114   0.144   1.946
 5641SOL    HW216970   3.019   0.213   1.833
 5642SOL     OW16971   2.688   6.582   3.233
 5642SOL    HW116972   2.745   6.559   3.154
 5642SOL    HW216973   2.692   6.680   3.249
 5643SOL     OW16974   2.783   6.495   2.142
 5643SOL    HW116975   2.849   6.536   2.079
 5643SOL    HW216976   2.828   6.425   2.198
 5644SOL     OW16977   2.255   6.892   3.362
 5644SOL    HW116978   2.220   6.983   3.339
 5644SOL    HW216979   2.179   6.827   3.364
 5645SOL     OW16980   3.466   6.845   3.175
 5645SOL    HW116981   3.542   6.833   3.240
 5645SOL    HW216982   3.398   6.907   3.215
 5646SOL     OW16983   2.925   6.695   2.589
 5646SOL    HW116984   2.844   6.646   2.622
 5646SOL    HW216985   2.991   6.630   2.552
 5647SOL     OW16986   2.885   5.825   2.829
 5647SOL    HW116987   2.881   5.781   2.739
 5647SOL    HW216988   2.882   5.755   2.901
 5648SOL     OW16989   3.593   5.980   3.243
 5648SOL    HW116990   3.666   6.048   3.243
 5648SOL    HW216991   3.619   5.905   3.182
 5649SOL     OW16992   1.971   6.609   3.578
 5649SOL    HW116993   1.891   6.588   3.635
 5649SOL    HW216994   2.054   6.575   3.622
 5650SOL     OW16995   2.545   5.780   3.362
 5650SOL    HW116996   2.632   5.756   3.318
 5650SOL    HW216997   2.563   5.814   3.454
 5651SOL     OW16998   1.944   5.914   1.891
 5651SOL    HW116999   1.852   5.890   1.860
 5651SOL    HW217000   1.975   5.995   1.842
 5652SOL     OW17001   3.288   6.438   3.260
 5652SOL    HW117002   3.234   6.502   3.206
 5652SOL    HW217003   3.383   6.438   3.228
 5653SOL     OW17004   1.925   5.741   2.164
 5653SOL    HW117005   1.909   5.826   2.114
 5653SOL    HW217006   2.014   5.703   2.137
 5654SOL     OW17007   2.484   6.413   3.296
 5654SOL    HW117008   2.543   6.492   3.277
 5654SOL    HW217009   2.541   6.331   3.306
 5655SOL     OW17010   2.585   6.144   3.565
 5655SOL    HW117011   2.629   6.210   3.625
 5655SOL    HW217012   2.603   6.051   3.598
 5656SOL     OW17013   3.347   6.778   3.508
 5656SOL    HW117014   3.334   6.797   3.605
 5656SOL    HW217015   3.443   6.793   3.484
 5657SOL     OW17016   3.529   6.461   3.116
 5657SOL    HW117017   3.523   6.370   3.075
 5657SOL    HW217018   3.516   6.531   3.045
 5658SOL     OW17019   3.081   5.903   2.321
 5658SOL    HW117020   3.145   5.826   2.312
 5658SOL    HW217021   3.108   5.958   2.400
 5659SOL     OW17022   2.448   6.323   2.531
 5659SOL    HW117023   2.489   6.413   2.521
 5659SOL    HW217024   2.379   6.310   2.460
 5660SOL     OW17025   3.613   5.950   3.514
 5660SOL    HW117026   3.603   5.967   3.416
 5660SOL    HW217027   3.539   5.891   3.546
 5661SOL     OW17028   3.606   6.519   3.369
 5661SOL    HW117029   3.599   6.618   3.386
 5661SOL    HW217030   3.591   6.501   3.272
 5662SOL     OW17031   2.730   6.551   2.720
 5662SOL    HW117032   2.783   6.474   2.754
 5662SOL    HW217033   2.698   6.606   2.797
 5663SOL     OW17034   2.954   6.587   1.953
 5663SOL    HW117035   2.914   6.634   1.874
 5663SOL    HW217036   3.021   6.520   1.921
 5664SOL     OW17037   2.073   6.908   3.674
 5664SOL    HW117038   2.016   6.827   3.685
 5664SOL    HW217039   2.086   6.952   3.763
 5665SOL     OW17040   1.954   6.820   2.536
 5665SOL    HW117041   1.974   6.758   2.612
 5665SOL    HW217042   2.017   6.801   2.461
 5666SOL     OW17043   2.567   6.970   3.494
 5666SOL    HW117044   2.469   6.962   3.515
 5666SOL    HW217045   2.588   0.066   3.472
 5667SOL     OW17046   3.666   5.768   3.096
 5667SOL    HW117047   3.682   5.673   3.120
 5667SOL    HW217048   3.679   5.780   2.997
 5668SOL     OW17049   2.292   6.014   2.389
 5668SOL    HW117050   2.326   5.943   2.326
 5668SOL    HW217051   2.238   5.970   2.461
 5669SOL     OW17052   3.506   0.044   3.000
 5669SOL    HW117053   3.460   0.027   2.914
 5669SOL    HW217054   3.502   6.961   3.057
 5670SOL     OW17055   2.197   6.142   3.151
 5670SOL    HW117056   2.254   6.085   3.210
 5670SOL    HW217057   2.212   6.116   3.056
 5671SOL     OW17058   3.292   5.817   2.979
 5671SOL    HW117059   3.315   5.727   3.017
 5671SOL    HW217060   3.238   5.868   3.046
 5672SOL     OW17061   2.872   5.602   3.000
 5672SOL    HW117062   2.808   5.539   2.955
 5672SOL    HW217063   2.963   5.562   3.001
 5673SOL     OW17064   2.619   6.908   2.130
 5673SOL    HW117065   2.598   6.812   2.149
 5673SOL    HW217066   2.657   6.951   2.212
 5674SOL     OW17067   3.216   5.636   2.032
 5674SOL    HW117068   3.259   5.568   1.972
 5674SOL    HW217069   3.123   5.607   2.054
 5675SOL     OW17070   3.152   6.050   2.542
 5675SOL    HW117071   3.100   6.134   2.544
 5675SOL    HW217072   3.151   6.007   2.633
 5676SOL     OW17073   3.448   5.789   2.746
 5676SOL    HW117074   3.390   5.809   2.825
 5676SOL    HW217075   3.450   5.869   2.685
 5677SOL     OW17076   1.898   6.646   2.173
 5677SOL    HW117077   1.996   6.652   2.151
 5677SOL    HW217078   1.875   6.552   2.195
 5678SOL     OW17079   2.084   6.206   3.851
 5678SOL    HW117080   1.992   6.205   3.892
 5678SOL    HW217081   2.077   6.182   3.754
 5679SOL     OW17082   2.085   5.869   4.719
 5679SOL    HW117083   2.117   5.834   4.807
 5679SOL    HW217084   1.991   5.836   4.702
 5680SOL     OW17085   1.862   5.972   4.358
 5680SOL    HW117086   1.779   6.002   4.403
 5680SOL    HW217087   1.844   5.888   4.306
 5681SOL     OW17088   2.431   6.872   4.898
 5681SOL    HW117089   2.355   6.877   4.833
 5681SOL    HW217090   2.403   6.915   4.984
 5682SOL     OW17091   3.404   0.055   4.413
 5682SOL    HW117092   3.382   0.051   4.511
 5682SOL    HW217093   3.324   0.090   4.363
 5683SOL     OW17094   2.993   6.287   4.419
 5683SOL    HW117095   3.046   6.370   4.403
 5683SOL    HW217096   2.943   6.295   4.505
 5684SOL     OW17097   3.633   6.183   3.946
 5684SOL    HW117098   3.608   6.179   3.849
 5684SOL    HW217099   3.593   6.104   3.993
 5685SOL     OW17100   2.626   6.748   4.749
 5685SOL    HW117101   2.558   6.785   4.812
 5685SOL    HW217102   2.624   6.801   4.664
 5686SOL     OW17103   2.738   6.351   5.546
 5686SOL    HW117104   2.722   6.417   5.619
 5686SOL    HW217105   2.762   6.399   5.462
 5687SOL     OW17106   2.548   6.583   4.372
 5687SOL    HW117107   2.618   6.572   4.443
 5687SOL    HW217108   2.473   6.638   4.408
 5688SOL     OW17109   2.553   6.734   5.539
 5688SOL    HW117110   2.591   6.825   5.557
 5688SOL    HW217111   2.474   6.742   5.479
 5689SOL     OW17112   2.198   0.006   4.783
 5689SOL    HW117113   2.119   6.961   4.742
 5689SOL    HW217114   2.246   0.059   4.712
 5690SOL     OW17115   2.312   5.980   5.203
 5690SOL    HW117116   2.393   5.922   5.210
 5690SOL    HW217117   2.231   5.925   5.221
 5691SOL     OW17118   3.473   6.032   4.468
 5691SOL    HW117119   3.397   6.051   4.406
 5691SOL    HW217120   3.482   6.107   4.533
 5692SOL     OW17121   2.122   6.676   4.627
 5692SOL    HW117122   2.120   6.581   4.659
 5692SOL    HW217123   2.061   6.731   4.683
 5693SOL     OW17124   2.441   6.565   3.867
 5693SOL    HW117125   2.486   6.616   3.793
 5693SOL    HW217126   2.482   6.591   3.954
 5694SOL     OW17127   3.458   5.711   5.193
 5694SOL    HW117128   3.478   5.790   5.136
 5694SOL    HW217129   3.444   5.740   5.288
 5695SOL     OW17130   1.977   6.245   4.289
 5695SOL    HW117131   1.947   6.151   4.306
 5695SOL    HW217132   1.970   6.298   4.373
 5696SOL     OW17133   3.551   6.502   4.368
 5696SOL    HW117134   3.639   6.458   4.354
 5696SOL    HW217135   3.529   6.558   4.288
 5697SOL     OW17136   3.514   6.692   4.150
 5697SOL    HW117137   3.603   6.686   4.105
 5697SOL    HW217138   3.522   6.750   4.231
 5698SOL     OW17139   1.988   6.331   5.309
 5698SOL    HW117140   2.085   6.353   5.310
 5698SOL    HW217141   1.934   6.415   5.318
 5699SOL     OW17142   3.176   6.817   5.155
 5699SOL    HW117143   3.200   6.747   5.088
 5699SOL    HW217144   3.235   6.808   5.235
 5700SOL     OW17145   2.679   5.595   4.232
 5700SOL    HW117146   2.725   5.681   4.210
 5700SOL    HW217147   2.581   5.611   4.240
 5701SOL     OW17148   2.053   6.550   4.999
 5701SOL    HW117149   2.141   6.504   4.985
 5701SOL    HW217150   1.982   6.502   4.949
 5702SOL     OW17151   3.398   6.587   3.926
 5702SOL    HW117152   3.324   6.526   3.955
 5702SOL    HW217153   3.445   6.623   4.006
 5703SOL     OW17154   2.203   5.835   5.556
 5703SOL    HW117155   2.252   5.921   5.571
 5703SOL    HW217156   2.106   5.848   5.575
 5704SOL     OW17157   3.320   6.988   4.671
 5704SOL    HW117158   3.251   0.014   4.739
 5704SOL    HW217159   3.304   6.894   4.640
 5705SOL     OW17160   2.457   6.303   3.998
 5705SOL    HW117161   2.461   6.388   3.946
 5705SOL    HW217162   2.388   6.311   4.070
 5706SOL     OW17163   3.139   5.945   4.657
 5706SOL    HW117164   3.046   5.910   4.664
 5706SOL    HW217165   3.198   5.892   4.719
 5707SOL     OW17166   2.652   6.197   5.174
 5707SOL    HW117167   2.627   6.174   5.268
 5707SOL    HW217168   2.614   6.129   5.111
 5708SOL     OW17169   3.253   6.056   5.404
 5708SOL    HW117170   3.254   6.105   5.491
 5708SOL    HW217171   3.314   5.977   5.410
 5709SOL     OW17172   2.818   6.473   5.308
 5709SOL    HW117173   2.876   6.400   5.272
 5709SOL    HW217174   2.762   6.511   5.234
 5710SOL     OW17175   2.856   5.992   4.953
 5710SOL    HW117176   2.766   6.013   4.991
 5710SOL    HW217177   2.845   5.944   4.866
 5711SOL     OW17178   2.912   6.285   4.148
 5711SOL    HW117179   2.934   6.281   4.246
 5711SOL    HW217180   2.826   6.237   4.131
 5712SOL     OW17181   1.949   6.413   4.503
 5712SOL    HW117182   2.034   6.402   4.554
 5712SOL    HW217183   1.898   6.490   4.541
 5713SOL     OW17184   2.758   5.938   3.920
 5713SOL    HW117185   2.798   6.006   3.859
 5713SOL    HW217186   2.767   5.847   3.881
 5714SOL     OW17187   3.562   6.158   5.549
 5714SOL    HW117188   3.527   6.237   5.499
 5714SOL    HW217189   3.593   6.088   5.485
 5715SOL     OW17190   3.249   6.722   4.270
 5715SOL    HW117191   3.329   6.715   4.211
 5715SOL    HW217192   3.197   6.803   4.246
 5716SOL     OW17193   2.409   5.759   4.624
 5716SOL    HW117194   2.413   5.789   4.720
 5716SOL    HW217195   2.412   5.839   4.564
 5717SOL     OW17196   3.660   6.639   4.601
 5717SOL    HW117197   3.609   6.629   4.516
 5717SOL    HW217198   3.597   6.646   4.678
 5718SOL     OW17199   2.184   6.546   3.982
 5718SOL    HW117200   2.272   6.562   3.938
 5718SOL    HW217201   2.145   6.460   3.947
 5719SOL     OW17202   3.346   6.332   4.447
 5719SOL    HW117203   3.342   6.290   4.538
 5719SOL    HW217204   3.426   6.393   4.443
 5720SOL     OW17205   2.064   5.861   5.227
 5720SOL    HW117206   1.982   5.918   5.222
 5720SOL    HW217207   2.042   5.774   5.271
 5721SOL     OW17208   3.502   6.969   3.809
 5721SOL    HW117209   3.469   0.062   3.827
 5721SOL    HW217210   3.424   6.908   3.795
 5722SOL     OW17211   3.263   5.690   4.160
 5722SOL    HW117212   3.251   5.665   4.064
 5722SOL    HW217213   3.361   5.700   4.181
 5723SOL     OW17214   2.258   6.274   4.198
 5723SOL    HW117215   2.277   6.177   4.212
 5723SOL    HW217216   2.161   6.291   4.217
 5724SOL     OW17217   3.390   5.809   5.452
 5724SOL    HW117218   3.401   5.830   5.549
 5724SOL    HW217219   3.318   5.741   5.440
 5725SOL     OW17220   2.503   5.703   3.826
 5725SOL    HW117221   2.571   5.634   3.848
 5725SOL    HW217222   2.447   5.671   3.749
 5726SOL     OW17223   2.625   5.863   5.481
 5726SOL    HW117224   2.710   5.809   5.475
 5726SOL    HW217225   2.574   5.834   5.562
 5727SOL     OW17226   3.201   6.174   5.160
 5727SOL    HW117227   3.231   6.139   5.248
 5727SOL    HW217228   3.237   6.266   5.146
 5728SOL     OW17229   2.789   6.092   4.622
 5728SOL    HW117230   2.763   6.085   4.526
 5728SOL    HW217231   2.821   6.003   4.654
 5729SOL     OW17232   2.409   5.650   4.218
 5729SOL    HW117233   2.327   5.648   4.276
 5729SOL    HW217234   2.406   5.731   4.159
 5730SOL     OW17235   3.281   6.788   3.783
 5730SOL    HW117236   3.334   6.718   3.830
 5730SOL    HW217237   3.187   6.755   3.769
 5731SOL     OW17238   2.153   5.634   3.910
 5731SOL    HW117239   2.205   5.706   3.864
 5731SOL    HW217240   2.215   5.569   3.953
 5732SOL     OW17241   2.808   5.837   4.180
 5732SOL    HW117242   2.776   5.878   4.095
 5732SOL    HW217243   2.907   5.850   4.189
 5733SOL     OW17244   2.942   6.269   5.180
 5733SOL    HW117245   2.866   6.203   5.185
 5733SOL    HW217246   3.028   6.220   5.175
 5734SOL     OW17247   3.132   0.147   4.464
 5734SOL    HW117248   3.099   0.231   4.420
 5734SOL    HW217249   3.143   0.163   4.562
 5735SOL     OW17250   2.328   6.714   4.459
 5735SOL    HW117251   2.257   6.705   4.529
 5735SOL    HW217252   2.286   6.711   4.368
 5736SOL     OW17253   2.883   6.122   3.754
 5736SOL    HW117254   2.838   6.208   3.730
 5736SOL    HW217255   2.952   6.139   3.824
 5737SOL     OW17256   1.948   6.144   5.115
 5737SOL    HW117257   2.043   6.139   5.083
 5737SOL    HW217258   1.940   6.215   5.184
 5738SOL     OW17259   2.420   5.810   4.896
 5738SOL    HW117260   2.470   5.734   4.938
 5738SOL    HW217261   2.325   5.808   4.925
 5739SOL     OW17262   2.727   6.044   4.361
 5739SOL    HW117263   2.680   6.106   4.299
 5739SOL    HW217264   2.755   5.962   4.311
 5740SOL     OW17265   2.879   5.639   4.470
 5740SOL    HW117266   2.819   5.639   4.390
 5740SOL    HW217267   2.854   5.563   4.530
 5741SOL     OW17268   3.302   6.733   4.582
 5741SOL    HW117269   3.226   6.669   4.584
 5741SOL    HW217270   3.333   6.746   4.488
 5742SOL     OW17271   3.330   6.192   4.694
 5742SOL    HW117272   3.268   6.114   4.694
 5742SOL    HW217273   3.391   6.186   4.773
 5743SOL     OW17274   3.704   6.391   4.104
 5743SOL    HW117275   3.762   6.344   4.171
 5743SOL    HW217276   3.676   6.326   4.033
 5744SOL     OW17277   3.542   6.831   4.372
 5744SOL    HW117278   3.640   6.842   4.389
 5744SOL    HW217279   3.495   6.917   4.393
 5745SOL     OW17280   3.252   6.160   3.795
 5745SOL    HW117281   3.189   6.138   3.869
 5745SOL    HW217282   3.345   6.134   3.821
 5746SOL     OW17283   2.390   5.850   4.034
 5746SOL    HW117284   2.438   5.798   3.963
 5746SOL    HW217285   2.361   5.938   3.996
 5747SOL     OW17286   3.616   6.813   5.291
 5747SOL    HW117287   3.700   6.763   5.312
 5747SOL    HW217288   3.632   6.911   5.302
 5748SOL     OW17289   2.938   6.894   5.051
 5748SOL    HW117290   2.858   6.879   5.109
 5748SOL    HW217291   3.021   6.877   5.103
 5749SOL     OW17292   2.999   6.762   4.824
 5749SOL    HW117293   2.966   6.811   4.905
 5749SOL    HW217294   2.941   6.785   4.746
 5750SOL     OW17295   3.484   6.681   4.806
 5750SOL    HW117296   3.473   6.737   4.888
 5750SOL    HW217297   3.408   6.698   4.744
 5751SOL     OW17298   2.785   5.680   5.116
 5751SOL    HW117299   2.807   5.658   5.021
 5751SOL    HW217300   2.865   5.724   5.158
 5752SOL     OW17301   2.829   6.696   5.462
 5752SOL    HW117302   2.732   6.710   5.479
 5752SOL    HW217303   2.842   6.622   5.396
 5753SOL     OW17304   2.571   6.638   4.093
 5753SOL    HW117305   2.557   6.629   4.191
 5753SOL    HW217306   2.652   6.587   4.065
 5754SOL     OW17307   2.283   6.401   4.979
 5754SOL    HW117308   2.356   6.414   5.046
 5754SOL    HW217309   2.244   6.309   4.989
 5755SOL     OW17310   3.124   5.962   5.004
 5755SOL    HW117311   3.161   6.041   5.053
 5755SOL    HW217312   3.029   5.979   4.979
 5756SOL     OW17313   2.203   6.704   4.215
 5756SOL    HW117314   2.245   6.783   4.171
 5756SOL    HW217315   2.197   6.628   4.150
 5757SOL     OW17316   2.410   6.130   4.586
 5757SOL    HW117317   2.424   6.189   4.507
 5757SOL    HW217318   2.480   6.149   4.655
 5758SOL     OW17319   3.439   6.207   4.206
 5758SOL    HW117320   3.390   6.254   4.279
 5758SOL    HW217321   3.490   6.274   4.152
 5759SOL     OW17322   2.278   6.330   5.325
 5759SOL    HW117323   2.344   6.375   5.265
 5759SOL    HW217324   2.310   6.238   5.348
 5760SOL     OW17325   3.469   6.370   5.408
 5760SOL    HW117326   3.378   6.410   5.406
 5760SOL    HW217327   3.526   6.411   5.337
 5761SOL     OW17328   2.859   5.720   5.474
 5761SOL    HW117329   2.917   5.800   5.458
 5761SOL    HW217330   2.908   5.637   5.448
 5762SOL     OW17331   2.354   5.622   5.474
 5762SOL    HW117332   2.310   5.564   5.406
 5762SOL    HW217333   2.297   5.702   5.493
 5763SOL     OW17334   2.445   6.452   4.760
 5763SOL    HW117335   2.471   6.548   4.749
 5763SOL    HW217336   2.384   6.443   4.838
 5764SOL     OW17337   3.219   6.440   4.750
 5764SOL    HW117338   3.127   6.437   4.710
 5764SOL    HW217339   3.263   6.351   4.738
 5765SOL     OW17340   3.059   6.113   3.988
 5765SOL    HW117341   3.072   6.030   4.043
 5765SOL    HW217342   3.015   6.183   4.044
 5766SOL     OW17343   2.159   5.782   4.971
 5766SOL    HW117344   2.123   5.819   5.056
 5766SOL    HW217345   2.143   5.684   4.967
 5767SOL     OW17346   1.922   6.898   5.006
 5767SOL    HW117347   1.956   6.841   5.082
 5767SOL    HW217348   1.921   6.994   5.034
 5768SOL     OW17349   2.588   6.215   4.780
 5768SOL    HW117350   2.664   6.196   4.718
 5768SOL    HW217351   2.551   6.307   4.761
 5769SOL     OW17352   3.597   6.547   5.578
 5769SOL    HW117353   3.553   6.477   5.521
 5769SOL    HW217354   3.541   6.563   5.659
 5770SOL     OW17355   2.168   5.647   4.352
 5770SOL    HW117356   2.144   5.742   4.370
 5770SOL    HW217357   2.179   5.598   4.438
 5771SOL     OW17358   3.488   5.967   4.086
 5771SOL    HW117359   3.515   5.894   4.149
 5771SOL    HW217360   3.460   6.047   4.138
 5772SOL     OW17361   2.886   6.340   4.682
 5772SOL    HW117362   2.882   6.362   4.779
 5772SOL    HW217363   2.859   6.244   4.668
 5773SOL     OW17364   3.717   0.065   5.325
 5773SOL    HW117365   3.754   0.141   5.271
 5773SOL    HW217366   3.772   0.053   5.407
 5774SOL     OW17367   2.217   6.507   5.526
 5774SOL    HW117368   2.292   6.518   5.590
 5774SOL    HW217369   2.241   6.440   5.456
 5775SOL     OW17370   3.389   5.855   3.854
 5775SOL    HW117371   3.320   5.787   3.879
 5775SOL    HW217372   3.426   5.897   3.937
 5776SOL     OW17373   3.150   6.410   3.747
 5776SOL    HW117374   3.191   6.319   3.758
 5776SOL    HW217375   3.181   6.451   3.661
 5777SOL     OW17376   2.171   6.392   4.666
 5777SOL    HW117377   2.268   6.416   4.657
 5777SOL    HW217378   2.164   6.298   4.700
 5778SOL     OW17379   2.189   6.113   4.736
 5778SOL    HW117380   2.151   6.022   4.725
 5778SOL    HW217381   2.270   6.123   4.677
 5779SOL     OW17382   2.996   5.959   5.416
 5779SOL    HW117383   2.943   6.015   5.479
 5779SOL    HW217384   3.088   5.996   5.407
 5780SOL     OW17385   3.024   5.789   5.200
 5780SOL    HW117386   3.009   5.852   5.277
 5780SOL    HW217387   3.066   5.839   5.124
 5781SOL     OW17388   1.885   6.895   3.906
 5781SOL    HW117389   1.796   6.923   3.868
 5781SOL    HW217390   1.875   6.806   3.952
 5782SOL     OW17391   2.837   6.378   4.948
 5782SOL    HW117392   2.897   6.354   5.025
 5782SOL    HW217393   2.748   6.332   4.960
 5783SOL     OW17394   1.899   6.138   4.841
 5783SOL    HW117395   1.981   6.125   4.786
 5783SOL    HW217396   1.924   6.140   4.938
 5784SOL     OW17397   2.054   6.109   5.454
 5784SOL    HW117398   2.106   6.054   5.388
 5784SOL    HW217399   2.015   6.188   5.408
 5785SOL     OW17400   3.242   6.523   5.379
 5785SOL    HW117401   3.272   6.618   5.378
 5785SOL    HW217402   3.239   6.488   5.285
 5786SOL     OW17403   2.680   6.158   4.084
 5786SOL    HW117404   2.689   6.078   4.025
 5786SOL    HW217405   2.601   6.213   4.056
 5787SOL     OW17406   3.504   6.188   4.905
 5787SOL    HW117407   3.488   6.128   4.984
 5787SOL    HW217408   3.596   6.171   4.868
 5788SOL     OW17409   2.570   6.033   4.977
 5788SOL    HW117410   2.512   5.955   4.953
 5788SOL    HW217411   2.567   6.101   4.904
 5789SOL     OW17412   2.320   6.081   3.909
 5789SOL    HW117413   2.385   6.152   3.935
 5789SOL    HW217414   2.230   6.121   3.895
 5790SOL     OW17415   2.029   6.728   5.201
 5790SOL    HW117416   2.018   6.680   5.288
 5790SOL    HW217417   2.040   6.662   5.127
 5791SOL     OW17418   3.191   6.623   4.947
 5791SOL    HW117419   3.221   6.555   4.880
 5791SOL    HW217420   3.118   6.679   4.909
 5792SOL     OW17421   3.179   6.447   4.020
 5792SOL    HW117422   3.106   6.416   4.082
 5792SOL    HW217423   3.151   6.430   3.926
 5793SOL     OW17424   1.945   6.858   4.738
 5793SOL    HW117425   1.930   6.868   4.836
 5793SOL    HW217426   1.874   6.798   4.699
 5794SOL     OW17427   3.581   5.736   4.223
 5794SOL    HW117428   3.657   5.726   4.158
 5794SOL    HW217429   3.564   5.648   4.268
 5795SOL     OW17430   3.145   6.508   4.393
 5795SOL    HW117431   3.219   6.443   4.410
 5795SOL    HW217432   3.179   6.586   4.341
 5796SOL     OW17433   2.678   6.844   5.143
 5796SOL    HW117434   2.651   6.886   5.230
 5796SOL    HW217435   2.606   6.860   5.075
 5797SOL     OW17436   3.704   5.755   4.688
 5797SOL    HW117437   3.738   5.664   4.665
 5797SOL    HW217438   3.613   5.767   4.648
 5798SOL     OW17439   2.117   5.899   4.439
 5798SOL    HW117440   2.029   5.937   4.412
 5798SOL    HW217441   2.121   5.892   4.539
 5799SOL     OW17442   3.111   0.211   3.734
 5799SOL    HW117443   3.114   0.144   3.808
 5799SOL    HW217444   3.019   0.212   3.695
 5800SOL     OW17445   2.688   6.582   5.095
 5800SOL    HW117446   2.745   6.559   5.016
 5800SOL    HW217447   2.692   6.680   5.111
 5801SOL     OW17448   2.783   6.495   4.004
 5801SOL    HW117449   2.849   6.536   3.941
 5801SOL    HW217450   2.828   6.425   4.060
 5802SOL     OW17451   2.255   6.892   5.224
 5802SOL    HW117452   2.220   6.983   5.201
 5802SOL    HW217453   2.179   6.827   5.227
 5803SOL     OW17454   3.466   6.845   5.037
 5803SOL    HW117455   3.542   6.833   5.102
 5803SOL    HW217456   3.398   6.907   5.077
 5804SOL     OW17457   2.925   6.695   4.451
 5804SOL    HW117458   2.844   6.646   4.484
 5804SOL    HW217459   2.991   6.630   4.414
 5805SOL     OW17460   2.885   5.825   4.691
 5805SOL    HW117461   2.881   5.781   4.601
 5805SOL    HW217462   2.882   5.755   4.763
 5806SOL     OW17463   3.593   5.980   5.105
 5806SOL    HW117464   3.666   6.049   5.105
 5806SOL    HW217465   3.619   5.905   5.044
 5807SOL     OW17466   1.971   6.609   5.440
 5807SOL    HW117467   1.891   6.587   5.497
 5807SOL    HW217468   2.054   6.575   5.484
 5808SOL     OW17469   2.545   5.780   5.224
 5808SOL    HW117470   2.632   5.756   5.180
 5808SOL    HW217471   2.563   5.814   5.316
 5809SOL     OW17472   1.944   5.914   3.753
 5809SOL    HW117473   1.852   5.890   3.722
 5809SOL    HW217474   1.975   5.995   3.704
 5810SOL     OW17475   3.288   6.438   5.122
 5810SOL    HW117476   3.234   6.502   5.068
 5810SOL    HW217477   3.383   6.438   5.090
 5811SOL     OW17478   1.925   5.741   4.026
 5811SOL    HW117479   1.909   5.826   3.976
 5811SOL    HW217480   2.013   5.703   3.999
 5812SOL     OW17481   2.484   6.413   5.158
 5812SOL    HW117482   2.543   6.492   5.139
 5812SOL    HW217483   2.541   6.331   5.168
 5813SOL     OW17484   2.584   6.144   5.427
 5813SOL    HW117485   2.629   6.211   5.487
 5813SOL    HW217486   2.603   6.052   5.460
 5814SOL     OW17487   3.347   6.778   5.370
 5814SOL    HW117488   3.334   6.797   5.467
 5814SOL    HW217489   3.443   6.793   5.346
 5815SOL     OW17490   3.529   6.461   4.978
 5815SOL    HW117491   3.523   6.370   4.937
 5815SOL    HW217492   3.516   6.531   4.907
 5816SOL     OW17493   3.081   5.903   4.183
 5816SOL    HW117494   3.145   5.826   4.174
 5816SOL    HW217495   3.108   5.958   4.262
 5817SOL     OW17496   2.448   6.323   4.393
 5817SOL    HW117497   2.489   6.413   4.383
 5817SOL    HW217498   2.379   6.310   4.322
 5818SOL     OW17499   3.613   5.950   5.376
 5818SOL    HW117500   3.603   5.967   5.278
 5818SOL    HW217501   3.539   5.891   5.408
 5819SOL     OW17502   3.606   6.519   5.231
 5819SOL    HW117503   3.599   6.618   5.248
 5819SOL    HW217504   3.591   6.501   5.134
 5820SOL     OW17505   2.730   6.551   4.582
 5820SOL    HW117506   2.783   6.474   4.616
 5820SOL    HW217507   2.698   6.606   4.659
 5821SOL     OW17508   2.954   6.587   3.815
 5821SOL    HW117509   2.914   6.634   3.736
 5821SOL    HW217510   3.021   6.520   3.783
 5822SOL     OW17511   2.073   6.908   5.536
 5822SOL    HW117512   2.016   6.827   5.547
 5822SOL    HW217513   2.086   6.952   5.625
 5823SOL     OW17514   1.954   6.820   4.398
 5823SOL    HW117515   1.974   6.758   4.474
 5823SOL    HW217516   2.017   6.801   4.323
 5824SOL     OW17517   2.567   6.970   5.356
 5824SOL    HW117518   2.469   6.962   5.377
 5824SOL    HW217519   2.588   0.066   5.334
 5825SOL     OW17520   3.666   5.768   4.958
 5825SOL    HW117521   3.682   5.673   4.982
 5825SOL    HW217522   3.679   5.780   4.859
 5826SOL     OW17523   2.292   6.014   4.251
 5826SOL    HW117524   2.326   5.943   4.188
 5826SOL    HW217525   2.238   5.970   4.323
 5827SOL     OW17526   3.506   0.044   4.862
 5827SOL    HW117527   3.460   0.027   4.776
 5827SOL    HW217528   3.502   6.961   4.919
 5828SOL     OW17529   2.197   6.142   5.013
 5828SOL    HW117530   2.254   6.085   5.072
 5828SOL    HW217531   2.212   6.116   4.918
 5829SOL     OW17532   3.292   5.817   4.841
 5829SOL    HW117533   3.316   5.727   4.879
 5829SOL    HW217534   3.238   5.868   4.908
 5830SOL     OW17535   2.872   5.602   4.862
 5830SOL    HW117536   2.808   5.539   4.818
 5830SOL    HW217537   2.963   5.562   4.863
 5831SOL     OW17538   2.619   6.908   3.992
 5831SOL    HW117539   2.598   6.812   4.011
 5831SOL    HW217540   2.657   6.951   4.074
 5832SOL     OW17541   3.216   5.636   3.894
 5832SOL    HW117542   3.259   5.569   3.833
 5832SOL    HW217543   3.123   5.607   3.916
 5833SOL     OW17544   3.152   6.050   4.404
 5833SOL    HW117545   3.100   6.134   4.406
 5833SOL    HW217546   3.151   6.007   4.495
 5834SOL     OW17547   3.448   5.789   4.608
 5834SOL    HW117548   3.390   5.809   4.687
 5834SOL    HW217549   3.450   5.869   4.547
 5835SOL     OW17550   1.898   6.646   4.035
 5835SOL    HW117551   1.996   6.652   4.013
 5835SOL    HW217552   1.875   6.552   4.057
 5836SOL     OW17553   2.083   6.206   5.713
 5836SOL    HW117554   1.992   6.205   5.754
 5836SOL    HW217555   2.077   6.182   5.616
 5837SOL     OW17556   2.082   5.873   6.583
 5837SOL    HW117557   2.118   5.835   6.668
 5837SOL    HW217558   1.991   5.837   6.566
 5838SOL     OW17559   1.862   5.972   6.221
 5838SOL    HW117560   1.778   6.003   6.265
 5838SOL    HW217561   1.843   5.888   6.169
 5839SOL     OW17562   2.423   6.878   6.770
 5839SOL    HW117563   2.356   6.893   6.697
 5839SOL    HW217564   2.375   6.875   6.858
 5840SOL     OW17565   3.403   0.056   6.274
 5840SOL    HW117566   3.380   0.049   6.371
 5840SOL    HW217567   3.325   0.091   6.224
 5841SOL     OW17568   2.993   6.286   6.281
 5841SOL    HW117569   3.045   6.370   6.266
 5841SOL    HW217570   2.942   6.294   6.367
 5842SOL     OW17571   3.633   6.183   5.808
 5842SOL    HW117572   3.609   6.179   5.711
 5842SOL    HW217573   3.593   6.105   5.855
 5843SOL     OW17574   2.617   6.740   6.615
 5843SOL    HW117575   2.553   6.783   6.680
 5843SOL    HW217576   2.629   6.800   6.536
 5844SOL     OW17577   2.548   6.583   6.234
 5844SOL    HW117578   2.618   6.573   6.304
 5844SOL    HW217579   2.472   6.638   6.270
 5845SOL     OW17580   2.198   0.012   6.641
 5845SOL    HW117581   2.119   6.964   6.603
 5845SOL    HW217582   2.243   0.065   6.568
 5846SOL     OW17583   3.473   6.033   6.329
 5846SOL    HW117584   3.397   6.050   6.266
 5846SOL    HW217585   3.476   6.107   6.397
 5847SOL     OW17586   2.123   6.677   6.493
 5847SOL    HW117587   2.119   6.582   6.525
 5847SOL    HW217588   2.062   6.733   6.548
 5848SOL     OW17589   2.441   6.565   5.729
 5848SOL    HW117590   2.486   6.616   5.655
 5848SOL    HW217591   2.482   6.591   5.816
 5849SOL     OW17592   1.977   6.245   6.151
 5849SOL    HW117593   1.946   6.151   6.168
 5849SOL    HW217594   1.970   6.298   6.235
 5850SOL     OW17595   3.551   6.503   6.227
 5850SOL    HW117596   3.638   6.456   6.211
 5850SOL    HW217597   3.528   6.559   6.148
 5851SOL     OW17598   3.514   6.692   6.012
 5851SOL    HW117599   3.603   6.686   5.966
 5851SOL    HW217600   3.522   6.751   6.092
 5852SOL     OW17601   2.679   5.595   6.095
 5852SOL    HW117602   2.725   5.681   6.072
 5852SOL    HW217603   2.581   5.611   6.102
 5853SOL     OW17604   2.054   6.556   6.837
 5853SOL    HW117605   2.136   6.501   6.825
 5853SOL    HW217606   1.973   6.502   6.811
 5854SOL     OW17607   3.398   6.587   5.788
 5854SOL    HW117608   3.324   6.526   5.817
 5854SOL    HW217609   3.445   6.623   5.868
 5855SOL     OW17610   3.317   6.994   6.529
 5855SOL    HW117611   3.256   0.020   6.604
 5855SOL    HW217612   3.300   6.899   6.504
 5856SOL     OW17613   2.457   6.303   5.860
 5856SOL    HW117614   2.462   6.388   5.808
 5856SOL    HW217615   2.388   6.312   5.932
 5857SOL     OW17616   3.137   5.942   6.518
 5857SOL    HW117617   3.043   5.909   6.525
 5857SOL    HW217618   3.196   5.892   6.581
 5858SOL     OW17619   2.658   6.187   0.049
 5858SOL    HW117620   2.596   6.235   0.112
 5858SOL    HW217621   2.604   6.136   6.983
 5859SOL     OW17622   2.866   5.977   6.798
 5859SOL    HW117623   2.803   6.035   6.849
 5859SOL    HW217624   2.818   5.934   6.722
 5860SOL     OW17625   2.912   6.285   6.011
 5860SOL    HW117626   2.934   6.281   6.108
 5860SOL    HW217627   2.826   6.237   5.993
 5861SOL     OW17628   1.950   6.410   6.367
 5861SOL    HW117629   2.036   6.401   6.417
 5861SOL    HW217630   1.899   6.489   6.401
 5862SOL     OW17631   2.758   5.938   5.782
 5862SOL    HW117632   2.798   6.006   5.721
 5862SOL    HW217633   2.768   5.847   5.743
 5863SOL     OW17634   3.249   6.722   6.133
 5863SOL    HW117635   3.329   6.715   6.073
 5863SOL    HW217636   3.197   6.804   6.109
 5864SOL     OW17637   2.408   5.758   6.485
 5864SOL    HW117638   2.414   5.790   6.579
 5864SOL    HW217639   2.413   5.837   6.423
 5865SOL     OW17640   3.667   6.638   6.452
 5865SOL    HW117641   3.615   6.626   6.368
 5865SOL    HW217642   3.604   6.639   6.530
 5866SOL     OW17643   2.184   6.546   5.844
 5866SOL    HW117644   2.272   6.562   5.800
 5866SOL    HW217645   2.145   6.461   5.809
 5867SOL     OW17646   3.346   6.332   6.307
 5867SOL    HW117647   3.340   6.288   6.397
 5867SOL    HW217648   3.425   6.393   6.305
 5868SOL     OW17649   3.502   6.969   5.671
 5868SOL    HW117650   3.469   0.062   5.689
 5868SOL    HW217651   3.424   6.908   5.657
 5869SOL     OW17652   3.263   5.690   6.023
 5869SOL    HW117653   3.252   5.664   5.926
 5869SOL    HW217654   3.361   5.699   6.043
 5870SOL     OW17655   2.258   6.273   6.060
 5870SOL    HW117656   2.277   6.176   6.074
 5870SOL    HW217657   2.161   6.291   6.078
 5871SOL     OW17658   2.503   5.703   5.688
 5871SOL    HW117659   2.572   5.634   5.709
 5871SOL    HW217660   2.446   5.671   5.612
 5872SOL     OW17661   2.789   6.091   6.485
 5872SOL    HW117662   2.762   6.086   6.389
 5872SOL    HW217663   2.826   6.003   6.514
 5873SOL     OW17664   2.409   5.650   6.080
 5873SOL    HW117665   2.327   5.648   6.137
 5873SOL    HW217666   2.406   5.731   6.021
 5874SOL     OW17667   3.281   6.788   5.645
 5874SOL    HW117668   3.334   6.718   5.692
 5874SOL    HW217669   3.187   6.755   5.631
 5875SOL     OW17670   2.152   5.634   5.772
 5875SOL    HW117671   2.205   5.706   5.725
 5875SOL    HW217672   2.215   5.570   5.815
 5876SOL     OW17673   2.808   5.836   6.042
 5876SOL    HW117674   2.776   5.878   5.957
 5876SOL    HW217675   2.907   5.850   6.052
 5877SOL     OW17676   3.132   0.148   6.322
 5877SOL    HW117677   3.096   0.233   6.284
 5877SOL    HW217678   3.138   0.156   6.421
 5878SOL     OW17679   2.327   6.713   6.321
 5878SOL    HW117680   2.257   6.706   6.392
 5878SOL    HW217681   2.284   6.711   6.231
 5879SOL     OW17682   2.883   6.122   5.616
 5879SOL    HW117683   2.838   6.208   5.592
 5879SOL    HW217684   2.952   6.139   5.686
 5880SOL     OW17685   2.423   5.807   6.756
 5880SOL    HW117686   2.470   5.724   6.788
 5880SOL    HW217687   2.328   5.805   6.788
 5881SOL     OW17688   2.726   6.044   6.223
 5881SOL    HW117689   2.680   6.106   6.159
 5881SOL    HW217690   2.755   5.962   6.174
 5882SOL     OW17691   2.880   5.635   6.328
 5882SOL    HW117692   2.818   5.635   6.249
 5882SOL    HW217693   2.854   5.561   6.390
 5883SOL     OW17694   3.298   6.735   6.443
 5883SOL    HW117695   3.224   6.667   6.446
 5883SOL    HW217696   3.328   6.749   6.349
 5884SOL     OW17697   3.328   6.190   6.551
 5884SOL    HW117698   3.266   6.111   6.556
 5884SOL    HW217699   3.391   6.187   6.628
 5885SOL     OW17700   3.705   6.391   5.966
 5885SOL    HW117701   3.763   6.343   6.032
 5885SOL    HW217702   3.676   6.326   5.895
 5886SOL     OW17703   3.543   6.833   6.232
 5886SOL    HW117704   3.641   6.845   6.250
 5886SOL    HW217705   3.495   6.918   6.253
 5887SOL     OW17706   3.252   6.160   5.657
 5887SOL    HW117707   3.189   6.138   5.732
 5887SOL    HW217708   3.345   6.134   5.683
 5888SOL     OW17709   2.390   5.850   5.896
 5888SOL    HW117710   2.438   5.798   5.825
 5888SOL    HW217711   2.361   5.938   5.858
 5889SOL     OW17712   3.604   6.787   0.184
 5889SOL    HW117713   3.696   6.762   0.213
 5889SOL    HW217714   3.604   6.881   0.151
 5890SOL     OW17715   2.928   6.901   6.929
 5890SOL    HW117716   2.837   6.880   6.964
 5890SOL    HW217717   2.994   6.899   0.004
 5891SOL     OW17718   2.993   6.761   6.702
 5891SOL    HW117719   2.964   6.819   6.778
 5891SOL    HW217720   2.956   6.797   6.617
 5892SOL     OW17721   3.484   6.662   6.647
 5892SOL    HW117722   3.481   6.725   6.725
 5892SOL    HW217723   3.407   6.682   6.586
 5893SOL     OW17724   2.570   6.638   5.955
 5893SOL    HW117725   2.557   6.628   6.053
 5893SOL    HW217726   2.652   6.587   5.927
 5894SOL     OW17727   2.286   6.399   6.847
 5894SOL    HW117728   2.346   6.423   6.924
 5894SOL    HW217729   2.251   6.307   6.860
 5895SOL     OW17730   3.130   5.974   6.856
 5895SOL    HW117731   3.158   6.048   6.917
 5895SOL    HW217732   3.035   5.987   6.828
 5896SOL     OW17733   2.201   6.704   6.077
 5896SOL    HW117734   2.245   6.782   6.034
 5896SOL    HW217735   2.196   6.628   6.012
 5897SOL     OW17736   2.409   6.132   6.449
 5897SOL    HW117737   2.422   6.190   6.369
 5897SOL    HW217738   2.480   6.150   6.516
 5898SOL     OW17739   3.439   6.208   6.067
 5898SOL    HW117740   3.390   6.253   6.142
 5898SOL    HW217741   3.489   6.275   6.014
 5899SOL     OW17742   2.449   6.453   6.623
 5899SOL    HW117743   2.477   6.548   6.609
 5899SOL    HW217744   2.386   6.447   6.701
 5900SOL     OW17745   3.214   6.437   6.605
 5900SOL    HW117746   3.123   6.431   6.564
 5900SOL    HW217747   3.261   6.349   6.593
 5901SOL     OW17748   3.059   6.113   5.850
 5901SOL    HW117749   3.072   6.030   5.905
 5901SOL    HW217750   3.015   6.183   5.906
 5902SOL     OW17751   2.163   5.784   6.835
 5902SOL    HW117752   2.121   5.817   6.920
 5902SOL    HW217753   2.148   5.685   6.827
 5903SOL     OW17754   1.910   6.900   6.877
 5903SOL    HW117755   1.954   6.837   6.941
 5903SOL    HW217756   1.937   6.993   6.899
 5904SOL     OW17757   2.587   6.211   6.642
 5904SOL    HW117758   2.665   6.192   6.582
 5904SOL    HW217759   2.554   6.304   6.625
 5905SOL     OW17760   2.168   5.647   6.213
 5905SOL    HW117761   2.144   5.742   6.231
 5905SOL    HW217762   2.179   5.598   6.300
 5906SOL     OW17763   3.488   5.967   5.948
 5906SOL    HW117764   3.514   5.894   6.010
 5906SOL    HW217765   3.460   6.047   6.000
 5907SOL     OW17766   2.884   6.340   6.550
 5907SOL    HW117767   2.883   6.360   6.648
 5907SOL    HW217768   2.859   6.244   6.535
 5908SOL     OW17769   3.389   5.855   5.716
 5908SOL    HW117770   3.320   5.787   5.741
 5908SOL    HW217771   3.426   5.897   5.799
 5909SOL     OW17772   3.150   6.410   5.609
 5909SOL    HW117773   3.191   6.319   5.620
 5909SOL    HW217774   3.181   6.451   5.523
 5910SOL     OW17775   2.173   6.391   6.529
 5910SOL    HW117776   2.269   6.417   6.517
 5910SOL    HW217777   2.168   6.296   6.559
 5911SOL     OW17778   2.193   6.115   6.604
 5911SOL    HW117779   2.153   6.024   6.590
 5911SOL    HW217780   2.273   6.125   6.545
 5912SOL     OW17781   3.002   5.826   0.054
 5912SOL    HW117782   3.070   5.842   0.126
 5912SOL    HW217783   3.036   5.863   6.968
 5913SOL     OW17784   1.885   6.895   5.768
 5913SOL    HW117785   1.796   6.923   5.730
 5913SOL    HW217786   1.875   6.806   5.814
 5914SOL     OW17787   2.851   6.375   6.825
 5914SOL    HW117788   2.923   6.335   6.882
 5914SOL    HW217789   2.762   6.346   6.860
 5915SOL     OW17790   1.913   6.142   6.713
 5915SOL    HW117791   1.967   6.109   6.636
 5915SOL    HW217792   1.974   6.177   6.784
 5916SOL     OW17793   2.680   6.157   5.947
 5916SOL    HW117794   2.689   6.078   5.887
 5916SOL    HW217795   2.601   6.212   5.918
 5917SOL     OW17796   3.510   6.194   6.753
 5917SOL    HW117797   3.494   6.136   6.833
 5917SOL    HW217798   3.604   6.184   6.722
 5918SOL     OW17799   2.533   6.049   6.850
 5918SOL    HW117800   2.498   5.961   6.818
 5918SOL    HW217801   2.549   6.109   6.772
 5919SOL     OW17802   2.320   6.081   5.771
 5919SOL    HW117803   2.385   6.152   5.797
 5919SOL    HW217804   2.230   6.121   5.758
 5920SOL     OW17805   2.038   6.724   0.043
 5920SOL    HW117806   2.016   6.674   0.127
 5920SOL    HW217807   2.041   6.660   6.966
 5921SOL     OW17808   3.176   6.600   6.820
 5921SOL    HW117809   3.212   6.540   6.749
 5921SOL    HW217810   3.108   6.662   6.780
 5922SOL     OW17811   3.179   6.447   5.882
 5922SOL    HW117812   3.106   6.417   5.944
 5922SOL    HW217813   3.151   6.430   5.788
 5923SOL     OW17814   1.944   6.859   6.605
 5923SOL    HW117815   1.926   6.868   6.703
 5923SOL    HW217816   1.875   6.800   6.563
 5924SOL     OW17817   3.581   5.736   6.085
 5924SOL    HW117818   3.657   5.726   6.020
 5924SOL    HW217819   3.564   5.649   6.130
 5925SOL     OW17820   3.144   6.508   6.255
 5925SOL    HW117821   3.218   6.443   6.271
 5925SOL    HW217822   3.179   6.586   6.203
 5926SOL     OW17823   2.675   6.841   0.017
 5926SOL    HW117824   2.672   6.855   0.116
 5926SOL    HW217825   2.590   6.874   6.976
 5927SOL     OW17826   3.704   5.760   6.556
 5927SOL    HW117827   3.738   5.669   6.533
 5927SOL    HW217828   3.612   5.771   6.517
 5928SOL     OW17829   2.117   5.899   6.301
 5928SOL    HW117830   2.028   5.936   6.273
 5928SOL    HW217831   2.120   5.893   6.401
 5929SOL     OW17832   3.110   0.211   5.596
 5929SOL    HW117833   3.115   0.144   5.670
 5929SOL    HW217834   3.018   0.211   5.557
 5930SOL     OW17835   2.653   6.583   6.940
 5930SOL    HW117836   2.707   6.561   6.859
 5930SOL    HW217837   2.670   6.678   6.967
 5931SOL     OW17838   2.783   6.495   5.866
 5931SOL    HW117839   2.849   6.536   5.803
 5931SOL    HW217840   2.828   6.425   5.922
 5932SOL     OW17841   2.261   6.886   6.996
 5932SOL    HW117842   2.243   6.962   0.059
 5932SOL    HW217843   2.191   6.816   0.008
 5933SOL     OW17844   3.481   6.829   6.855
 5933SOL    HW117845   3.562   6.848   6.910
 5933SOL    HW217846   3.402   6.819   6.915
 5934SOL     OW17847   2.924   6.694   6.311
 5934SOL    HW117848   2.845   6.645   6.346
 5934SOL    HW217849   2.991   6.628   6.275
 5935SOL     OW17850   2.882   5.823   6.542
 5935SOL    HW117851   2.880   5.775   6.455
 5935SOL    HW217852   2.884   5.757   6.617
 5936SOL     OW17853   3.557   6.009   6.947
 5936SOL    HW117854   3.628   6.014   0.018
 5936SOL    HW217855   3.560   5.919   6.904
 5937SOL     OW17856   2.535   5.776   0.081
 5937SOL    HW117857   2.624   5.750   0.043
 5937SOL    HW217858   2.545   5.855   0.140
 5938SOL     OW17859   1.943   5.914   5.615
 5938SOL    HW117860   1.852   5.890   5.583
 5938SOL    HW217861   1.975   5.995   5.566
 5939SOL     OW17862   1.925   5.741   5.888
 5939SOL    HW117863   1.909   5.826   5.837
 5939SOL    HW217864   2.014   5.703   5.861
 5940SOL     OW17865   3.332   6.857   0.319
 5940SOL    HW117866   3.280   6.774   0.336
 5940SOL    HW217867   3.413   6.835   0.265
 5941SOL     OW17868   3.559   6.461   6.828
 5941SOL    HW117869   3.526   6.370   6.801
 5941SOL    HW217870   3.526   6.529   6.762
 5942SOL     OW17871   3.081   5.902   6.045
 5942SOL    HW117872   3.145   5.826   6.036
 5942SOL    HW217873   3.107   5.958   6.124
 5943SOL     OW17874   2.446   6.324   6.256
 5943SOL    HW117875   2.489   6.413   6.245
 5943SOL    HW217876   2.378   6.311   6.184
 5944SOL     OW17877   3.646   6.506   0.083
 5944SOL    HW117878   3.612   6.595   0.112
 5944SOL    HW217879   3.612   6.486   6.990
 5945SOL     OW17880   2.730   6.550   6.444
 5945SOL    HW117881   2.783   6.473   6.479
 5945SOL    HW217882   2.695   6.605   6.520
 5946SOL     OW17883   2.954   6.587   5.677
 5946SOL    HW117884   2.914   6.634   5.598
 5946SOL    HW217885   3.021   6.520   5.644
 5947SOL     OW17886   1.957   6.823   6.260
 5947SOL    HW117887   1.967   6.759   6.336
 5947SOL    HW217888   2.019   6.797   6.186
 5948SOL     OW17889   3.673   5.761   6.835
 5948SOL    HW117890   3.648   5.664   6.836
 5948SOL    HW217891   3.689   5.790   6.740
 5949SOL     OW17892   2.293   6.013   6.113
 5949SOL    HW117893   2.326   5.944   6.050
 5949SOL    HW217894   2.238   5.970   6.184
 5950SOL     OW17895   3.509   0.053   6.715
 5950SOL    HW117896   3.463   0.045   6.627
 5950SOL    HW217897   3.504   6.965   6.763
 5951SOL     OW17898   2.179   6.137   6.878
 5951SOL    HW117899   2.250   6.085   6.925
 5951SOL    HW217900   2.189   6.124   6.779
 5952SOL     OW17901   3.296   5.822   6.703
 5952SOL    HW117902   3.328   5.739   6.748
 5952SOL    HW217903   3.242   5.876   6.767
 5953SOL     OW17904   2.879   5.603   6.712
 5953SOL    HW117905   2.816   5.537   6.671
 5953SOL    HW217906   2.969   5.562   6.723
 5954SOL     OW17907   2.619   6.908   5.853
 5954SOL    HW117908   2.598   6.812   5.873
 5954SOL    HW217909   2.657   6.951   5.935
 5955SOL     OW17910   3.216   5.636   5.756
 5955SOL    HW117911   3.259   5.569   5.695
 5955SOL    HW217912   3.123   5.607   5.778
 5956SOL     OW17913   3.153   6.049   6.266
 5956SOL    HW117914   3.100   6.134   6.268
 5956SOL    HW217915   3.150   6.006   6.356
 5957SOL     OW17916   3.449   5.791   6.471
 5957SOL    HW117917   3.388   5.810   6.548
 5957SOL    HW217918   3.450   5.870   6.409
 5958SOL     OW17919   1.898   6.646   5.897
 5958SOL    HW117920   1.996   6.652   5.875
 5958SOL    HW217921   1.875   6.552   5.919
 5959SOL     OW17922   3.944   0.644   0.137
 5959SOL    HW117923   3.850   0.623   0.163
 5959SOL    HW217924   3.957   0.624   0.039
 5960SOL     OW17925   3.946   0.303   0.996
 5960SOL    HW117926   3.986   0.265   1.080
 5960SOL    HW217927   3.863   0.252   0.973
 5961SOL     OW17928   3.729   0.391   0.630
 5961SOL    HW117929   3.644   0.416   0.675
 5961SOL    HW217930   3.712   0.314   0.568
 5962SOL     OW17931   4.293   1.297   1.186
 5962SOL    HW117932   4.203   1.293   1.142
 5962SOL    HW217933   4.310   1.390   1.219
 5963SOL     OW17934   5.288   1.513   0.708
 5963SOL    HW117935   5.246   1.488   0.796
 5963SOL    HW217936   5.218   1.516   0.637
 5964SOL     OW17937   4.857   0.701   0.695
 5964SOL    HW117938   4.910   0.784   0.680
 5964SOL    HW217939   4.805   0.709   0.780
 5965SOL     OW17940   5.509   0.582   0.200
 5965SOL    HW117941   5.443   0.634   0.146
 5965SOL    HW217942   5.460   0.515   0.256
 5966SOL     OW17943   4.468   1.141   1.041
 5966SOL    HW117944   4.400   1.176   1.106
 5966SOL    HW217945   4.512   1.217   0.994
 5967SOL     OW17946   4.596   0.765   1.820
 5967SOL    HW117947   4.585   0.834   1.893
 5967SOL    HW217948   4.621   0.811   1.735
 5968SOL     OW17949   4.407   0.998   0.650
 5968SOL    HW117950   4.478   0.988   0.720
 5968SOL    HW217951   4.333   1.055   0.686
 5969SOL     OW17952   4.435   1.153   1.818
 5969SOL    HW117953   4.488   1.232   1.851
 5969SOL    HW217954   4.350   1.185   1.776
 5970SOL     OW17955   4.050   1.423   1.066
 5970SOL    HW117956   3.974   1.378   1.020
 5970SOL    HW217957   4.103   1.476   0.999
 5971SOL     OW17958   5.182   1.501   1.358
 5971SOL    HW117959   5.239   1.583   1.365
 5971SOL    HW217960   5.111   1.504   1.429
 5972SOL     OW17961   4.168   0.398   1.483
 5972SOL    HW117962   4.254   0.347   1.489
 5972SOL    HW217963   4.091   0.334   1.489
 5973SOL     OW17964   5.340   0.460   0.732
 5973SOL    HW117965   5.277   0.487   0.659
 5973SOL    HW217966   5.348   0.535   0.798
 5974SOL     OW17967   3.944   1.724   0.470
 5974SOL    HW117968   3.962   1.802   0.529
 5974SOL    HW217969   4.029   1.695   0.426
 5975SOL     OW17970   4.861   1.340   1.698
 5975SOL    HW117971   4.908   1.338   1.786
 5975SOL    HW217972   4.805   1.258   1.688
 5976SOL     OW17973   3.938   1.448   0.532
 5976SOL    HW117974   3.926   1.546   0.543
 5976SOL    HW217975   3.887   1.400   0.605
 5977SOL     OW17976   3.992   1.091   0.900
 5977SOL    HW117977   3.988   0.996   0.932
 5977SOL    HW217978   3.930   1.147   0.954
 5978SOL     OW17979   4.323   1.797   1.426
 5978SOL    HW117980   4.240   1.773   1.476
 5978SOL    HW217981   4.354   1.887   1.454
 5979SOL     OW17982   4.311   0.967   0.147
 5979SOL    HW117983   4.368   0.989   0.069
 5979SOL    HW217984   4.347   1.012   0.229
 5980SOL     OW17985   5.303   0.132   1.447
 5980SOL    HW117986   5.315   0.226   1.416
 5980SOL    HW217987   5.325   0.125   1.544
 5981SOL     OW17988   3.840   0.655   0.562
 5981SOL    HW117989   3.811   0.561   0.581
 5981SOL    HW217990   3.834   0.709   0.646
 5982SOL     OW17991   5.560   1.763   0.350
 5982SOL    HW117992   5.632   1.733   0.412
 5982SOL    HW217993   5.566   1.862   0.337
 5983SOL     OW17994   3.738   1.580   0.146
 5983SOL    HW117995   3.667   1.513   0.126
 5983SOL    HW217996   3.716   1.627   0.232
 5984SOL     OW17997   5.415   0.914   0.650
 5984SOL    HW117998   5.499   0.863   0.632
 5984SOL    HW217999   5.393   0.972   0.571
 5985SOL     OW18000   5.379   1.096   0.445
 5985SOL    HW118001   5.449   1.115   0.376
 5985SOL    HW218002   5.385   1.165   0.517
 5986SOL     OW18003   3.846   0.749   1.582
 5986SOL    HW118004   3.942   0.776   1.585
 5986SOL    HW218005   3.788   0.830   1.583
 5987SOL     OW18006   4.336   1.389   0.737
 5987SOL    HW118007   4.290   1.301   0.750
 5987SOL    HW218008   4.326   1.418   0.642
 5988SOL     OW18009   5.012   1.235   1.422
 5988SOL    HW118010   5.039   1.165   1.356
 5988SOL    HW218011   5.072   1.231   1.502
 5989SOL     OW18012   4.545   0.029   0.522
 5989SOL    HW118013   4.587   0.118   0.502
 5989SOL    HW218014   4.446   0.038   0.524
 5990SOL     OW18015   3.914   0.962   1.277
 5990SOL    HW118016   4.003   0.919   1.263
 5990SOL    HW218017   3.846   0.916   1.220
 5991SOL     OW18018   5.215   1.020   0.214
 5991SOL    HW118019   5.147   0.954   0.247
 5991SOL    HW218020   5.303   1.004   0.258
 5992SOL     OW18021   4.905   1.811   1.622
 5992SOL    HW118022   4.914   1.880   1.550
 5992SOL    HW218023   4.926   1.720   1.585
 5993SOL     OW18024   4.044   0.270   1.790
 5993SOL    HW118025   4.107   0.336   1.830
 5993SOL    HW218026   3.957   0.272   1.840
 5994SOL     OW18027   5.188   1.421   0.947
 5994SOL    HW118028   5.121   1.439   1.019
 5994SOL    HW218029   5.181   1.325   0.919
 5995SOL     OW18030   5.366   1.752   0.584
 5995SOL    HW118031   5.349   1.725   0.489
 5995SOL    HW218032   5.350   1.674   0.644
 5996SOL     OW18033   4.321   0.716   0.266
 5996SOL    HW118034   4.327   0.806   0.224
 5996SOL    HW218035   4.256   0.718   0.342
 5997SOL     OW18036   5.007   0.367   0.949
 5997SOL    HW118037   4.910   0.343   0.952
 5997SOL    HW218038   5.056   0.316   1.020
 5998SOL     OW18039   5.300   1.677   0.317
 5998SOL    HW118040   5.395   1.707   0.315
 5998SOL    HW218041   5.266   1.668   0.223
 5999SOL     OW18042   4.517   0.616   1.454
 5999SOL    HW118043   4.490   0.590   1.547
 5999SOL    HW218044   4.478   0.550   1.389
 6000SOL     OW18045   5.118   0.473   1.680
 6000SOL    HW118046   5.116   0.520   1.769
 6000SOL    HW218047   5.175   0.392   1.686
 6001SOL     OW18048   4.677   0.885   1.583
 6001SOL    HW118049   4.735   0.814   1.545
 6001SOL    HW218050   4.623   0.927   1.510
 6002SOL     OW18051   4.719   0.412   1.227
 6002SOL    HW118052   4.633   0.434   1.273
 6002SOL    HW218053   4.700   0.362   1.143
 6003SOL     OW18054   4.777   0.700   0.427
 6003SOL    HW118055   4.800   0.697   0.524
 6003SOL    HW218056   4.689   0.654   0.412
 6004SOL     OW18057   3.814   0.824   0.779
 6004SOL    HW118058   3.899   0.813   0.830
 6004SOL    HW218059   3.764   0.903   0.814
 6005SOL     OW18060   3.852   1.871   1.588
 6005SOL    HW118061   3.857   1.844   1.684
 6005SOL    HW218062   3.767   1.838   1.548
 6006SOL     OW18063   4.609   0.370   0.210
 6006SOL    HW118064   4.653   0.424   0.138
 6006SOL    HW218065   4.595   0.276   0.177
 6007SOL     OW18066   5.425   0.573   1.825
 6007SOL    HW118067   5.389   0.652   1.776
 6007SOL    HW218068   5.453   0.503   1.759
 6008SOL     OW18069   5.107   1.141   0.549
 6008SOL    HW118070   5.190   1.128   0.495
 6008SOL    HW218071   5.047   1.207   0.504
 6009SOL     OW18072   4.228   0.191   0.911
 6009SOL    HW118073   4.267   0.220   0.998
 6009SOL    HW218074   4.253   0.256   0.839
 6010SOL     OW18075   4.716   1.439   0.470
 6010SOL    HW118076   4.684   1.520   0.420
 6010SOL    HW218077   4.697   1.450   0.567
 6011SOL     OW18078   4.080   1.814   0.869
 6011SOL    HW118079   4.124   1.724   0.876
 6011SOL    HW218080   4.147   1.885   0.889
 6012SOL     OW18081   5.523   1.054   0.874
 6012SOL    HW118082   5.473   1.033   0.790
 6012SOL    HW218083   5.460   1.061   0.951
 6013SOL     OW18084   4.950   1.536   1.514
 6013SOL    HW118085   4.938   1.462   1.580
 6013SOL    HW218086   4.883   1.527   1.441
 6014SOL     OW18087   4.038   0.959   0.228
 6014SOL    HW118088   4.132   0.972   0.194
 6014SOL    HW218089   4.009   0.865   0.209
 6015SOL     OW18090   5.207   0.747   0.725
 6015SOL    HW118091   5.202   0.706   0.816
 6015SOL    HW218092   5.287   0.808   0.720
 6016SOL     OW18093   4.192   1.265   1.731
 6016SOL    HW118094   4.166   1.271   1.635
 6016SOL    HW218095   4.110   1.262   1.788
 6017SOL     OW18096   4.844   1.766   0.242
 6017SOL    HW118097   4.771   1.720   0.293
 6017SOL    HW218098   4.881   1.703   0.173
 6018SOL     OW18099   3.916   0.272   1.512
 6018SOL    HW118100   3.857   0.352   1.497
 6018SOL    HW218101   3.939   0.265   1.609
 6019SOL     OW18102   5.370   1.430   0.103
 6019SOL    HW118103   5.322   1.512   0.071
 6019SOL    HW218104   5.307   1.374   0.156
 6020SOL     OW18105   4.208   1.699   0.378
 6020SOL    HW118106   4.237   1.784   0.422
 6020SOL    HW218107   4.267   1.681   0.299
 6021SOL     OW18108   5.150   0.133   0.425
 6021SOL    HW118109   5.135   0.062   0.356
 6021SOL    HW218110   5.248   0.142   0.443
 6022SOL     OW18111   3.982   1.792   1.226
 6022SOL    HW118112   4.033   1.719   1.273
 6022SOL    HW218113   3.964   1.764   1.132
 6023SOL     OW18114   4.660   1.702   0.897
 6023SOL    HW118115   4.743   1.654   0.927
 6023SOL    HW218116   4.617   1.650   0.823
 6024SOL     OW18117   4.121   0.686   0.470
 6024SOL    HW118118   4.141   0.589   0.488
 6024SOL    HW218119   4.025   0.704   0.488
 6025SOL     OW18120   5.253   0.230   1.727
 6025SOL    HW118121   5.268   0.236   1.825
 6025SOL    HW218122   5.167   0.183   1.709
 6026SOL     OW18123   4.346   0.121   0.106
 6026SOL    HW118124   4.445   0.109   0.117
 6026SOL    HW218125   4.325   0.142   0.010
 6027SOL     OW18126   4.486   0.277   1.766
 6027SOL    HW118127   4.574   0.231   1.759
 6027SOL    HW218128   4.432   0.235   1.839
 6028SOL     OW18129   4.598   1.515   1.193
 6028SOL    HW118130   4.579   1.479   1.101
 6028SOL    HW218131   4.671   1.461   1.235
 6029SOL     OW18132   5.066   0.591   1.437
 6029SOL    HW118133   5.095   0.556   1.526
 6029SOL    HW218134   5.101   0.684   1.424
 6030SOL     OW18135   4.543   1.390   0.942
 6030SOL    HW118136   4.633   1.378   0.899
 6030SOL    HW218137   4.473   1.395   0.870
 6031SOL     OW18138   4.651   0.510   0.896
 6031SOL    HW118139   4.623   0.504   0.800
 6031SOL    HW218140   4.684   0.421   0.927
 6032SOL     OW18141   4.278   0.066   0.496
 6032SOL    HW118142   4.197   0.056   0.553
 6032SOL    HW218143   4.265   0.142   0.432
 6033SOL     OW18144   5.144   1.213   0.012
 6033SOL    HW118145   5.174   1.132   0.064
 6033SOL    HW218146   5.062   1.251   0.054
 6034SOL     OW18147   4.040   0.071   0.197
 6034SOL    HW118148   4.090   0.157   0.206
 6034SOL    HW218149   4.072   0.006   0.266
 6035SOL     OW18150   4.674   0.263   0.458
 6035SOL    HW118151   4.642   0.304   0.372
 6035SOL    HW218152   4.773   0.271   0.464
 6036SOL     OW18153   4.804   0.684   1.454
 6036SOL    HW118154   4.729   0.619   1.465
 6036SOL    HW218155   4.891   0.635   1.453
 6037SOL     OW18156   4.943   1.568   0.796
 6037SOL    HW118157   4.956   1.637   0.726
 6037SOL    HW218158   5.016   1.574   0.864
 6038SOL     OW18159   4.195   1.152   0.731
 6038SOL    HW118160   4.124   1.131   0.799
 6038SOL    HW218161   4.156   1.144   0.640
 6039SOL     OW18162   4.981   1.785   0.611
 6039SOL    HW118163   5.037   1.848   0.557
 6039SOL    HW218164   4.908   1.836   0.657
 6040SOL     OW18165   4.781   0.562   0.033
 6040SOL    HW118166   4.691   0.605   0.048
 6040SOL    HW218167   4.834   0.567   0.118
 6041SOL     OW18168   3.815   0.552   1.397
 6041SOL    HW118169   3.908   0.553   1.361
 6041SOL    HW218170   3.805   0.626   1.464
 6042SOL     OW18171   4.294   0.242   1.175
 6042SOL    HW118172   4.348   0.171   1.221
 6042SOL    HW218173   4.199   0.237   1.204
 6043SOL     OW18174   4.590   0.463   0.637
 6043SOL    HW118175   4.544   0.524   0.573
 6043SOL    HW218176   4.617   0.379   0.589
 6044SOL     OW18177   4.681   0.028   0.770
 6044SOL    HW118178   4.624   0.029   0.688
 6044SOL    HW218179   4.753   6.959   0.760
 6045SOL     OW18180   5.170   1.161   0.860
 6045SOL    HW118181   5.094   1.097   0.861
 6045SOL    HW218182   5.203   1.172   0.766
 6046SOL     OW18183   5.190   0.609   0.971
 6046SOL    HW118184   5.129   0.530   0.972
 6046SOL    HW218185   5.253   0.603   1.049
 6047SOL     OW18186   5.552   0.805   0.391
 6047SOL    HW118187   5.613   0.745   0.443
 6047SOL    HW218188   5.546   0.773   0.297
 6048SOL     OW18189   4.198   1.425   0.153
 6048SOL    HW118190   4.138   1.377   0.216
 6048SOL    HW218191   4.159   1.422   0.060
 6049SOL     OW18192   5.397   1.265   0.653
 6049SOL    HW118193   5.496   1.263   0.661
 6049SOL    HW218194   5.364   1.359   0.667
 6050SOL     OW18195   5.113   0.556   0.065
 6050SOL    HW118196   5.058   0.548   0.148
 6050SOL    HW218197   5.187   0.489   0.068
 6051SOL     OW18198   4.235   0.263   0.306
 6051SOL    HW118199   4.287   0.208   0.241
 6051SOL    HW218200   4.216   0.352   0.266
 6052SOL     OW18201   5.477   1.241   1.561
 6052SOL    HW118202   5.566   1.199   1.547
 6052SOL    HW218203   5.488   1.334   1.595
 6053SOL     OW18204   4.777   1.350   1.336
 6053SOL    HW118205   4.696   1.320   1.386
 6053SOL    HW218206   4.859   1.310   1.378
 6054SOL     OW18207   5.337   1.629   1.657
 6054SOL    HW118208   5.322   1.665   1.565
 6054SOL    HW218209   5.423   1.578   1.659
 6055SOL     OW18210   4.861   1.219   1.105
 6055SOL    HW118211   4.801   1.253   1.177
 6055SOL    HW218212   4.827   1.250   1.016
 6056SOL     OW18213   5.348   1.096   1.079
 6056SOL    HW118214   5.343   1.162   1.155
 6056SOL    HW218215   5.272   1.113   1.016
 6057SOL     OW18216   4.619   0.150   1.388
 6057SOL    HW118217   4.635   0.114   1.296
 6057SOL    HW218218   4.705   0.177   1.429
 6058SOL     OW18219   4.703   1.115   1.721
 6058SOL    HW118220   4.609   1.134   1.748
 6058SOL    HW218221   4.706   1.032   1.665
 6059SOL     OW18222   4.437   1.058   0.376
 6059SOL    HW118223   4.419   1.041   0.472
 6059SOL    HW218224   4.517   1.004   0.348
 6060SOL     OW18225   4.147   0.817   1.254
 6060SOL    HW118226   4.220   0.829   1.321
 6060SOL    HW218227   4.108   0.725   1.263
 6061SOL     OW18228   4.984   0.378   1.286
 6061SOL    HW118229   5.022   0.457   1.335
 6061SOL    HW218230   4.890   0.397   1.260
 6062SOL     OW18231   3.798   1.572   1.353
 6062SOL    HW118232   3.763   1.642   1.291
 6062SOL    HW218233   3.898   1.570   1.347
 6063SOL     OW18234   4.090   1.120   0.484
 6063SOL    HW118235   4.068   1.196   0.423
 6063SOL    HW218236   4.086   1.034   0.433
 6064SOL     OW18237   4.277   0.546   0.860
 6064SOL    HW118238   4.291   0.605   0.781
 6064SOL    HW218239   4.347   0.566   0.929
 6065SOL     OW18240   4.968   1.345   0.406
 6065SOL    HW118241   5.026   1.421   0.436
 6065SOL    HW218242   4.873   1.362   0.433
 6066SOL     OW18243   5.011   1.462   1.147
 6066SOL    HW118244   5.070   1.467   1.228
 6066SOL    HW218245   4.957   1.378   1.151
 6067SOL     OW18246   5.307   0.633   0.484
 6067SOL    HW118247   5.251   0.681   0.551
 6067SOL    HW218248   5.368   0.697   0.439
 6068SOL     OW18249   4.072   1.530   1.310
 6068SOL    HW118250   4.056   1.485   1.222
 6068SOL    HW218251   4.170   1.543   1.322
 6069SOL     OW18252   4.142   0.744   1.601
 6069SOL    HW118253   4.205   0.793   1.540
 6069SOL    HW218254   4.181   0.654   1.624
 6070SOL     OW18255   5.332   0.786   1.685
 6070SOL    HW118256   5.241   0.826   1.682
 6070SOL    HW218257   5.389   0.826   1.613
 6071SOL     OW18258   4.721   0.136   1.735
 6071SOL    HW118259   4.764   0.182   1.657
 6071SOL    HW218260   4.724   0.037   1.721
 6072SOL     OW18261   4.187   0.038   1.758
 6072SOL    HW118262   4.122   6.965   1.738
 6072SOL    HW218263   4.139   0.125   1.768
 6073SOL     OW18264   4.308   0.873   1.033
 6073SOL    HW118265   4.343   0.966   1.031
 6073SOL    HW218266   4.248   0.862   1.113
 6074SOL     OW18267   5.075   0.857   1.025
 6074SOL    HW118268   4.985   0.850   0.982
 6074SOL    HW218269   5.123   0.770   1.016
 6075SOL     OW18270   4.923   0.523   0.272
 6075SOL    HW118271   4.940   0.444   0.331
 6075SOL    HW218272   4.881   0.596   0.326
 6076SOL     OW18273   4.034   0.209   1.247
 6076SOL    HW118274   3.970   0.218   1.324
 6076SOL    HW218275   4.022   0.118   1.205
 6077SOL     OW18276   3.775   1.310   1.275
 6077SOL    HW118277   3.808   1.249   1.348
 6077SOL    HW218278   3.779   1.404   1.308
 6078SOL     OW18279   4.452   0.636   1.054
 6078SOL    HW118280   4.527   0.615   0.992
 6078SOL    HW218281   4.415   0.726   1.033
 6079SOL     OW18282   5.460   0.960   1.856
 6079SOL    HW118283   5.417   0.892   1.797
 6079SOL    HW218284   5.400   0.980   1.934
 6080SOL     OW18285   4.042   0.060   0.627
 6080SOL    HW118286   4.021   0.154   0.655
 6080SOL    HW218287   3.995   6.996   0.687
 6081SOL     OW18288   5.351   0.398   0.354
 6081SOL    HW118289   5.382   0.322   0.412
 6081SOL    HW218290   5.325   0.475   0.411
 6082SOL     OW18291   4.748   0.756   0.958
 6082SOL    HW118292   4.744   0.778   1.056
 6082SOL    HW218293   4.721   0.661   0.943
 6083SOL     OW18294   4.705   1.563   1.718
 6083SOL    HW118295   4.688   1.610   1.631
 6083SOL    HW218296   4.753   1.477   1.700
 6084SOL     OW18297   5.579   1.503   1.603
 6084SOL    HW118298   5.597   1.530   1.509
 6084SOL    HW218299   5.662   1.515   1.658
 6085SOL     OW18300   4.077   0.918   1.804
 6085SOL    HW118301   4.156   0.940   1.860
 6085SOL    HW218302   4.104   0.852   1.734
 6086SOL     OW18303   5.245   0.268   0.138
 6086SOL    HW118304   5.173   0.202   0.160
 6086SOL    HW218305   5.276   0.312   0.222
 6087SOL     OW18306   5.015   0.821   0.032
 6087SOL    HW118307   5.064   0.734   0.023
 6087SOL    HW218308   5.042   0.882   6.957
 6088SOL     OW18309   4.793   1.337   0.855
 6088SOL    HW118310   4.797   1.259   0.793
 6088SOL    HW218311   4.852   1.410   0.822
 6089SOL     OW18312   4.036   0.809   0.943
 6089SOL    HW118313   4.132   0.836   0.938
 6089SOL    HW218314   4.029   0.714   0.974
 6090SOL     OW18315   4.059   0.539   1.012
 6090SOL    HW118316   4.016   0.449   1.000
 6090SOL    HW218317   4.140   0.545   0.953
 6091SOL     OW18318   4.849   0.411   1.672
 6091SOL    HW118319   4.801   0.453   1.749
 6091SOL    HW218320   4.947   0.432   1.679
 6092SOL     OW18321   4.859   0.225   1.486
 6092SOL    HW118322   4.859   0.300   1.552
 6092SOL    HW218323   4.916   0.250   1.407
 6093SOL     OW18324   3.818   1.783   0.943
 6093SOL    HW118325   3.780   1.702   0.898
 6093SOL    HW218326   3.911   1.800   0.911
 6094SOL     OW18327   4.217   1.576   0.905
 6094SOL    HW118328   4.287   1.642   0.931
 6094SOL    HW218329   4.257   1.508   0.843
 6095SOL     OW18330   4.699   0.794   1.224
 6095SOL    HW118331   4.759   0.769   1.300
 6095SOL    HW218332   4.609   0.751   1.236
 6096SOL     OW18333   3.759   0.549   1.120
 6096SOL    HW118334   3.837   0.533   1.060
 6096SOL    HW218335   3.791   0.551   1.215
 6097SOL     OW18336   3.909   0.530   1.729
 6097SOL    HW118337   3.988   0.497   1.677
 6097SOL    HW218338   3.869   0.608   1.682
 6098SOL     OW18339   5.104   0.935   1.655
 6098SOL    HW118340   5.127   1.033   1.656
 6098SOL    HW218341   5.101   0.903   1.560
 6099SOL     OW18342   4.540   0.578   0.374
 6099SOL    HW118343   4.552   0.499   0.315
 6099SOL    HW218344   4.460   0.630   0.345
 6100SOL     OW18345   5.366   0.605   1.181
 6100SOL    HW118346   5.347   0.544   1.258
 6100SOL    HW218347   5.457   0.585   1.145
 6101SOL     OW18348   3.964   1.547   1.726
 6101SOL    HW118349   3.942   1.621   1.789
 6101SOL    HW218350   3.970   1.461   1.776
 6102SOL     OW18351   4.432   0.460   1.255
 6102SOL    HW118352   4.377   0.381   1.229
 6102SOL    HW218353   4.432   0.527   1.181
 6103SOL     OW18354   4.643   1.681   1.472
 6103SOL    HW118355   4.618   1.635   1.387
 6103SOL    HW218356   4.644   1.780   1.457
 6104SOL     OW18357   4.177   0.499   0.182
 6104SOL    HW118358   4.243   0.569   0.209
 6104SOL    HW218359   4.085   0.537   0.184
 6105SOL     OW18360   3.866   1.138   1.475
 6105SOL    HW118361   3.867   1.093   1.565
 6105SOL    HW218362   3.886   1.070   1.404
 6106SOL     OW18363   5.039   1.044   1.219
 6106SOL    HW118364   5.067   0.976   1.151
 6106SOL    HW218365   4.972   1.106   1.179
 6107SOL     OW18366   5.025   0.845   0.306
 6107SOL    HW118367   4.944   0.817   0.357
 6107SOL    HW218368   5.012   0.826   0.209
 6108SOL     OW18369   5.505   1.730   1.157
 6108SOL    HW118370   5.566   1.764   1.086
 6108SOL    HW218371   5.473   1.638   1.133
 6109SOL     OW18372   4.965   1.733   1.105
 6109SOL    HW118373   5.051   1.762   1.062
 6109SOL    HW218374   4.971   1.636   1.129
 6110SOL     OW18375   3.810   1.266   1.010
 6110SOL    HW118376   3.793   1.280   1.108
 6110SOL    HW218377   3.738   1.207   0.972
 6111SOL     OW18378   4.405   1.673   1.736
 6111SOL    HW118379   4.342   1.751   1.731
 6111SOL    HW218380   4.478   1.685   1.669
 6112SOL     OW18381   4.616   0.111   0.129
 6112SOL    HW118382   4.705   0.137   0.093
 6112SOL    HW218383   4.626   0.032   0.190
 6113SOL     OW18384   5.442   0.175   0.482
 6113SOL    HW118385   5.519   0.147   0.425
 6113SOL    HW218386   5.428   0.108   0.555
 6114SOL     OW18387   5.114   1.562   0.491
 6114SOL    HW118388   5.179   1.592   0.422
 6114SOL    HW218389   5.060   1.640   0.522
 6115SOL     OW18390   3.869   1.787   1.846
 6115SOL    HW118391   3.812   1.719   1.891
 6115SOL    HW218392   3.919   1.840   1.914
 6116SOL     OW18393   5.006   0.924   0.670
 6116SOL    HW118394   5.081   0.859   0.685
 6116SOL    HW218395   5.040   1.002   0.618
 6117SOL     OW18396   4.528   1.279   1.426
 6117SOL    HW118397   4.498   1.322   1.511
 6117SOL    HW218398   4.459   1.294   1.356
 6118SOL     OW18399   4.398   1.605   0.191
 6118SOL    HW118400   4.403   1.654   0.104
 6118SOL    HW218401   4.340   1.524   0.180
 6119SOL     OW18402   5.341   1.729   1.387
 6119SOL    HW118403   5.399   1.729   1.306
 6119SOL    HW218404   5.327   1.822   1.419
 6120SOL     OW18405   5.591   0.161   0.956
 6120SOL    HW118406   5.588   0.061   0.947
 6120SOL    HW218407   5.499   0.198   0.939
 6121SOL     OW18408   3.983   0.313   0.715
 6121SOL    HW118409   3.892   0.348   0.688
 6121SOL    HW218410   3.989   0.312   0.814
 6122SOL     OW18411   4.943   1.599   0.040
 6122SOL    HW118412   4.937   1.504   0.070
 6122SOL    HW218413   4.858   1.625   6.995
 6123SOL     OW18414   4.547   1.010   1.378
 6123SOL    HW118415   4.598   0.994   1.294
 6123SOL    HW218416   4.545   1.108   1.397
 6124SOL     OW18417   4.648   0.914   0.294
 6124SOL    HW118418   4.703   0.942   0.216
 6124SOL    HW218419   4.696   0.841   0.344
 6125SOL     OW18420   5.212   1.654   0.041
 6125SOL    HW118421   5.114   1.633   0.040
 6125SOL    HW218422   5.244   1.669   6.948
 6126SOL     OW18423   4.089   1.303   1.487
 6126SOL    HW118424   4.080   1.383   1.428
 6126SOL    HW218425   4.010   1.244   1.476
 6127SOL     OW18426   5.336   1.284   1.284
 6127SOL    HW118427   5.401   1.265   1.359
 6127SOL    HW218428   5.271   1.354   1.313
 6128SOL     OW18429   4.785   1.106   0.714
 6128SOL    HW118430   4.708   1.057   0.755
 6128SOL    HW218431   4.853   1.041   0.681
 6129SOL     OW18432   4.748   0.249   0.951
 6129SOL    HW118433   4.726   0.202   0.866
 6129SOL    HW218434   4.739   0.185   1.028
 6130SOL     OW18435   4.337   1.478   0.485
 6130SOL    HW118436   4.376   1.426   0.408
 6130SOL    HW218437   4.275   1.548   0.449
 6131SOL     OW18438   5.457   0.392   1.376
 6131SOL    HW118439   5.526   0.464   1.381
 6131SOL    HW218440   5.494   0.315   1.323
 6132SOL     OW18441   4.002   1.320   0.309
 6132SOL    HW118442   3.919   1.306   0.256
 6132SOL    HW218443   3.982   1.373   0.391
 6133SOL     OW18444   3.839   1.034   1.728
 6133SOL    HW118445   3.757   1.007   1.779
 6133SOL    HW218446   3.919   0.989   1.767
 6134SOL     OW18447   4.393   0.237   1.508
 6134SOL    HW118448   4.475   0.211   1.456
 6134SOL    HW218449   4.421   0.270   1.598
 6135SOL     OW18450   3.834   0.342   0.034
 6135SOL    HW118451   3.780   0.282   6.975
 6135SOL    HW218452   3.877   0.413   6.980
 6136SOL     OW18453   5.148   0.858   1.395
 6136SOL    HW118454   5.092   0.921   1.342
 6136SOL    HW218455   5.242   0.859   1.361
 6137SOL     OW18456   3.794   0.167   0.306
 6137SOL    HW118457   3.782   0.251   0.252
 6137SOL    HW218458   3.875   0.119   0.273
 6138SOL     OW18459   4.910   1.344   0.128
 6138SOL    HW118460   4.812   1.329   0.111
 6138SOL    HW218461   4.928   1.335   0.225
 6139SOL     OW18462   4.348   0.830   1.433
 6139SOL    HW118463   4.405   0.911   1.418
 6139SOL    HW218464   4.406   0.750   1.444
 6140SOL     OW18465   5.209   1.789   0.987
 6140SOL    HW118466   5.233   1.853   0.914
 6140SOL    HW218467   5.293   1.752   1.027
 6141SOL     OW18468   4.444   0.558   1.706
 6141SOL    HW118469   4.489   0.629   1.761
 6141SOL    HW218470   4.465   0.468   1.744
 6142SOL     OW18471   5.198   1.196   1.634
 6142SOL    HW118472   5.183   1.210   1.732
 6142SOL    HW218473   5.294   1.215   1.613
 6143SOL     OW18474   4.095   1.738   1.567
 6143SOL    HW118475   4.011   1.790   1.552
 6143SOL    HW218476   4.073   1.650   1.609
 6144SOL     OW18477   5.390   0.878   1.256
 6144SOL    HW118478   5.385   0.788   1.214
 6144SOL    HW218479   5.377   0.948   1.185
 6145SOL     OW18480   4.949   0.316   0.455
 6145SOL    HW118481   5.019   0.246   0.444
 6145SOL    HW218482   4.969   0.371   0.536
 6146SOL     OW18483   4.312   0.736   0.665
 6146SOL    HW118484   4.352   0.828   0.657
 6146SOL    HW218485   4.241   0.724   0.596
 6147SOL     OW18486   5.474   0.369   1.648
 6147SOL    HW118487   5.465   0.384   1.550
 6147SOL    HW218488   5.401   0.308   1.679
 6148SOL     OW18489   5.477   0.932   1.509
 6148SOL    HW118490   5.465   1.029   1.531
 6148SOL    HW218491   5.455   0.917   1.413
 6149SOL     OW18492   4.626   1.383   0.052
 6149SOL    HW118493   4.565   1.358   0.127
 6149SOL    HW218494   4.630   1.482   0.044
 6150SOL     OW18495   4.389   1.785   0.942
 6150SOL    HW118496   4.365   1.880   0.920
 6150SOL    HW218497   4.487   1.772   0.931
 6151SOL     OW18498   4.593   0.970   0.857
 6151SOL    HW118499   4.645   0.893   0.893
 6151SOL    HW218500   4.551   1.021   0.932
 6152SOL     OW18501   4.804   0.983   0.081
 6152SOL    HW118502   4.800   1.041   6.999
 6152SOL    HW218503   4.884   0.923   0.076
 6153SOL     OW18504   5.570   1.557   0.846
 6153SOL    HW118505   5.493   1.543   0.784
 6153SOL    HW218506   5.571   1.484   0.915
 6154SOL     OW18507   3.955   1.299   1.857
 6154SOL    HW118508   3.889   1.232   1.822
 6154SOL    HW218509   3.941   1.312   1.955
 6155SOL     OW18510   3.807   1.234   0.665
 6155SOL    HW118511   3.824   1.183   0.750
 6155SOL    HW218512   3.854   1.189   0.589
 6156SOL     OW18513   4.406   1.409   1.633
 6156SOL    HW118514   4.325   1.359   1.665
 6156SOL    HW218515   4.405   1.502   1.670
 6157SOL     OW18516   5.576   0.183   1.246
 6157SOL    HW118517   5.496   0.123   1.241
 6157SOL    HW218518   5.604   0.209   1.154
 6158SOL     OW18519   4.155   0.427   0.525
 6158SOL    HW118520   4.186   0.355   0.462
 6158SOL    HW218521   4.101   0.385   0.598
 6159SOL     OW18522   5.415   1.484   1.096
 6159SOL    HW118523   5.336   1.465   1.038
 6159SOL    HW218524   5.425   1.412   1.164
 6160SOL     OW18525   4.058   0.558   1.288
 6160SOL    HW118526   4.115   0.501   1.346
 6160SOL    HW218527   4.076   0.536   1.192
 6161SOL     OW18528   4.551   1.580   0.680
 6161SOL    HW118529   4.539   1.639   0.600
 6161SOL    HW218530   4.475   1.515   0.686
 6162SOL     OW18531   5.137   0.216   1.130
 6162SOL    HW118532   5.219   0.173   1.167
 6162SOL    HW218533   5.089   0.265   1.203
 6163SOL     OW18534   4.701   0.055   1.137
 6163SOL    HW118535   4.644   6.992   1.086
 6163SOL    HW218536   4.756   0.005   1.203
 6164SOL     OW18537   4.508   1.318   0.308
 6164SOL    HW118538   4.473   1.226   0.328
 6164SOL    HW218539   4.584   1.339   0.368
 6165SOL     OW18540   4.347   1.559   1.290
 6165SOL    HW118541   4.345   1.646   1.339
 6165SOL    HW218542   4.438   1.546   1.249
 6166SOL     OW18543   5.069   0.057   0.156
 6166SOL    HW118544   5.084   6.961   0.134
 6166SOL    HW218545   4.973   0.080   0.141
 6167SOL     OW18546   4.992   0.452   0.687
 6167SOL    HW118547   4.947   0.541   0.683
 6167SOL    HW218548   5.011   0.428   0.782
 6168SOL     OW18549   5.343   0.256   0.913
 6168SOL    HW118550   5.254   0.238   0.956
 6168SOL    HW218551   5.331   0.322   0.839
 6169SOL     OW18552   3.811   1.053   0.361
 6169SOL    HW118553   3.899   1.029   0.319
 6169SOL    HW218554   3.756   0.971   0.373
 6170SOL     OW18555   4.612   1.663   0.353
 6170SOL    HW118556   4.537   1.634   0.294
 6170SOL    HW218557   4.584   1.742   0.408
 6171SOL     OW18558   3.944   0.620   1.990
 6171SOL    HW118559   3.855   0.619   2.034
 6171SOL    HW218560   3.933   0.599   1.892
 6172SOL     OW18561   3.946   0.303   2.859
 6172SOL    HW118562   3.986   0.265   2.942
 6172SOL    HW218563   3.863   0.252   2.835
 6173SOL     OW18564   3.733   0.395   2.490
 6173SOL    HW118565   3.644   0.412   2.532
 6173SOL    HW218566   3.724   0.322   2.422
 6174SOL     OW18567   4.293   1.297   3.047
 6174SOL    HW118568   4.203   1.294   3.004
 6174SOL    HW218569   4.310   1.390   3.081
 6175SOL     OW18570   5.289   1.513   2.569
 6175SOL    HW118571   5.246   1.489   2.657
 6175SOL    HW218572   5.218   1.520   2.499
 6176SOL     OW18573   4.858   0.702   2.557
 6176SOL    HW118574   4.910   0.786   2.540
 6176SOL    HW218575   4.807   0.711   2.643
 6177SOL     OW18576   5.492   0.602   2.084
 6177SOL    HW118577   5.471   0.598   1.986
 6177SOL    HW218578   5.454   0.521   2.130
 6178SOL     OW18579   4.468   1.141   2.903
 6178SOL    HW118580   4.400   1.176   2.967
 6178SOL    HW218581   4.512   1.217   2.856
 6179SOL     OW18582   4.596   0.765   3.682
 6179SOL    HW118583   4.585   0.833   3.755
 6179SOL    HW218584   4.621   0.811   3.597
 6180SOL     OW18585   4.408   1.000   2.510
 6180SOL    HW118586   4.479   0.989   2.580
 6180SOL    HW218587   4.333   1.055   2.547
 6181SOL     OW18588   4.435   1.153   3.680
 6181SOL    HW118589   4.488   1.232   3.713
 6181SOL    HW218590   4.350   1.185   3.638
 6182SOL     OW18591   4.051   1.423   2.928
 6182SOL    HW118592   3.974   1.378   2.881
 6182SOL    HW218593   4.103   1.476   2.861
 6183SOL     OW18594   5.182   1.502   3.220
 6183SOL    HW118595   5.239   1.583   3.227
 6183SOL    HW218596   5.111   1.504   3.290
 6184SOL     OW18597   4.167   0.398   3.345
 6184SOL    HW118598   4.253   0.347   3.351
 6184SOL    HW218599   4.091   0.334   3.351
 6185SOL     OW18600   5.340   0.457   2.591
 6185SOL    HW118601   5.279   0.486   2.518
 6185SOL    HW218602   5.348   0.530   2.659
 6186SOL     OW18603   3.946   1.714   2.333
 6186SOL    HW118604   3.964   1.793   2.393
 6186SOL    HW218605   4.021   1.704   2.268
 6187SOL     OW18606   4.861   1.340   3.560
 6187SOL    HW118607   4.908   1.338   3.648
 6187SOL    HW218608   4.805   1.258   3.550
 6188SOL     OW18609   3.957   1.443   2.398
 6188SOL    HW118610   3.941   1.542   2.397
 6188SOL    HW218611   3.897   1.400   2.465
 6189SOL     OW18612   3.993   1.091   2.763
 6189SOL    HW118613   3.989   0.996   2.795
 6189SOL    HW218614   3.931   1.147   2.816
 6190SOL     OW18615   4.323   1.796   3.288
 6190SOL    HW118616   4.240   1.773   3.338
 6190SOL    HW218617   4.354   1.887   3.317
 6191SOL     OW18618   4.306   0.987   2.003
 6191SOL    HW118619   4.353   1.034   1.928
 6191SOL    HW218620   4.346   1.015   2.090
 6192SOL     OW18621   5.303   0.132   3.309
 6192SOL    HW118622   5.314   0.226   3.278
 6192SOL    HW218623   5.325   0.125   3.406
 6193SOL     OW18624   3.838   0.661   2.426
 6193SOL    HW118625   3.811   0.566   2.443
 6193SOL    HW218626   3.832   0.713   2.511
 6194SOL     OW18627   5.570   1.756   2.195
 6194SOL    HW118628   5.640   1.725   2.259
 6194SOL    HW218629   5.586   1.851   2.171
 6195SOL     OW18630   3.753   1.590   1.985
 6195SOL    HW118631   3.737   1.494   2.004
 6195SOL    HW218632   3.732   1.644   2.067
 6196SOL     OW18633   5.414   0.920   2.509
 6196SOL    HW118634   5.499   0.870   2.493
 6196SOL    HW218635   5.392   0.974   2.428
 6197SOL     OW18636   5.377   1.104   2.294
 6197SOL    HW118637   5.465   1.101   2.248
 6197SOL    HW218638   5.379   1.171   2.368
 6198SOL     OW18639   3.846   0.749   3.444
 6198SOL    HW118640   3.942   0.776   3.447
 6198SOL    HW218641   3.788   0.830   3.445
 6199SOL     OW18642   4.336   1.391   2.596
 6199SOL    HW118643   4.290   1.303   2.608
 6199SOL    HW218644   4.323   1.422   2.501
 6200SOL     OW18645   5.012   1.235   3.284
 6200SOL    HW118646   5.039   1.164   3.218
 6200SOL    HW218647   5.072   1.231   3.364
 6201SOL     OW18648   4.547   0.029   2.383
 6201SOL    HW118649   4.587   0.118   2.362
 6201SOL    HW218650   4.447   0.036   2.385
 6202SOL     OW18651   3.914   0.962   3.139
 6202SOL    HW118652   4.004   0.919   3.124
 6202SOL    HW218653   3.846   0.915   3.083
 6203SOL     OW18654   5.256   1.000   2.066
 6203SOL    HW118655   5.182   0.939   2.096
 6203SOL    HW218656   5.303   1.038   2.146
 6204SOL     OW18657   4.906   1.811   3.484
 6204SOL    HW118658   4.913   1.880   3.412
 6204SOL    HW218659   4.926   1.721   3.447
 6205SOL     OW18660   4.044   0.270   3.652
 6205SOL    HW118661   4.107   0.336   3.692
 6205SOL    HW218662   3.957   0.272   3.702
 6206SOL     OW18663   5.189   1.420   2.809
 6206SOL    HW118664   5.122   1.439   2.881
 6206SOL    HW218665   5.181   1.325   2.781
 6207SOL     OW18666   5.374   1.749   2.438
 6207SOL    HW118667   5.357   1.720   2.344
 6207SOL    HW218668   5.353   1.674   2.500
 6208SOL     OW18669   4.317   0.719   2.134
 6208SOL    HW118670   4.322   0.805   2.083
 6208SOL    HW218671   4.248   0.727   2.206
 6209SOL     OW18672   5.007   0.367   2.811
 6209SOL    HW118673   4.910   0.343   2.814
 6209SOL    HW218674   5.056   0.316   2.881
 6210SOL     OW18675   5.307   1.673   2.170
 6210SOL    HW118676   5.403   1.700   2.166
 6210SOL    HW218677   5.274   1.655   2.077
 6211SOL     OW18678   4.517   0.616   3.317
 6211SOL    HW118679   4.490   0.590   3.410
 6211SOL    HW218680   4.479   0.550   3.251
 6212SOL     OW18681   5.118   0.473   3.542
 6212SOL    HW118682   5.116   0.520   3.631
 6212SOL    HW218683   5.175   0.391   3.548
 6213SOL     OW18684   4.677   0.885   3.445
 6213SOL    HW118685   4.735   0.813   3.407
 6213SOL    HW218686   4.623   0.927   3.372
 6214SOL     OW18687   4.719   0.412   3.089
 6214SOL    HW118688   4.633   0.434   3.134
 6214SOL    HW218689   4.700   0.361   3.005
 6215SOL     OW18690   4.775   0.698   2.287
 6215SOL    HW118691   4.796   0.694   2.385
 6215SOL    HW218692   4.688   0.652   2.269
 6216SOL     OW18693   3.812   0.828   2.642
 6216SOL    HW118694   3.898   0.815   2.692
 6216SOL    HW218695   3.763   0.907   2.679
 6217SOL     OW18696   3.852   1.871   3.450
 6217SOL    HW118697   3.857   1.843   3.546
 6217SOL    HW218698   3.766   1.839   3.410
 6218SOL     OW18699   4.614   0.355   2.062
 6218SOL    HW118700   4.660   0.416   1.998
 6218SOL    HW218701   4.589   0.270   2.016
 6219SOL     OW18702   5.425   0.573   3.687
 6219SOL    HW118703   5.389   0.652   3.638
 6219SOL    HW218704   5.453   0.503   3.621
 6220SOL     OW18705   5.104   1.143   2.396
 6220SOL    HW118706   5.188   1.128   2.345
 6220SOL    HW218707   5.047   1.210   2.348
 6221SOL     OW18708   4.227   0.190   2.773
 6221SOL    HW118709   4.267   0.221   2.860
 6221SOL    HW218710   4.252   0.254   2.701
 6222SOL     OW18711   4.719   1.443   2.326
 6222SOL    HW118712   4.687   1.523   2.276
 6222SOL    HW218713   4.703   1.456   2.424
 6223SOL     OW18714   4.080   1.814   2.732
 6223SOL    HW118715   4.124   1.724   2.739
 6223SOL    HW218716   4.147   1.886   2.751
 6224SOL     OW18717   5.522   1.057   2.734
 6224SOL    HW118718   5.471   1.034   2.651
 6224SOL    HW218719   5.459   1.062   2.811
 6225SOL     OW18720   4.950   1.536   3.376
 6225SOL    HW118721   4.938   1.462   3.442
 6225SOL    HW218722   4.883   1.528   3.303
 6226SOL     OW18723   4.045   0.959   2.116
 6226SOL    HW118724   4.133   0.979   2.073
 6226SOL    HW218725   4.009   0.874   2.079
 6227SOL     OW18726   5.207   0.750   2.586
 6227SOL    HW118727   5.200   0.706   2.676
 6227SOL    HW218728   5.287   0.810   2.584
 6228SOL     OW18729   4.192   1.265   3.593
 6228SOL    HW118730   4.166   1.271   3.497
 6228SOL    HW218731   4.110   1.262   3.650
 6229SOL     OW18732   4.846   1.776   2.089
 6229SOL    HW118733   4.766   1.738   2.137
 6229SOL    HW218734   4.875   1.712   2.018
 6230SOL     OW18735   3.916   0.272   3.374
 6230SOL    HW118736   3.857   0.352   3.359
 6230SOL    HW218737   3.939   0.265   3.471
 6231SOL     OW18738   5.349   1.382   1.950
 6231SOL    HW118739   5.310   1.473   1.935
 6231SOL    HW218740   5.279   1.313   1.931
 6232SOL     OW18741   4.189   1.734   2.181
 6232SOL    HW118742   4.230   1.797   2.247
 6232SOL    HW218743   4.260   1.699   2.120
 6233SOL     OW18744   5.149   0.132   2.288
 6233SOL    HW118745   5.128   0.088   2.200
 6233SOL    HW218746   5.248   0.138   2.299
 6234SOL     OW18747   3.982   1.791   3.088
 6234SOL    HW118748   4.033   1.719   3.135
 6234SOL    HW218749   3.964   1.764   2.994
 6235SOL     OW18750   4.660   1.702   2.759
 6235SOL    HW118751   4.743   1.655   2.789
 6235SOL    HW218752   4.618   1.650   2.684
 6236SOL     OW18753   4.119   0.687   2.337
 6236SOL    HW118754   4.140   0.590   2.350
 6236SOL    HW218755   4.022   0.703   2.355
 6237SOL     OW18756   5.253   0.230   3.589
 6237SOL    HW118757   5.268   0.236   3.687
 6237SOL    HW218758   5.167   0.182   3.570
 6238SOL     OW18759   4.369   0.111   1.964
 6238SOL    HW118760   4.408   0.037   2.018
 6238SOL    HW218761   4.306   0.073   1.896
 6239SOL     OW18762   4.486   0.277   3.628
 6239SOL    HW118763   4.574   0.231   3.621
 6239SOL    HW218764   4.432   0.235   3.701
 6240SOL     OW18765   4.598   1.514   3.055
 6240SOL    HW118766   4.579   1.479   2.963
 6240SOL    HW218767   4.671   1.461   3.097
 6241SOL     OW18768   5.066   0.591   3.299
 6241SOL    HW118769   5.095   0.556   3.388
 6241SOL    HW218770   5.101   0.684   3.287
 6242SOL     OW18771   4.544   1.389   2.803
 6242SOL    HW118772   4.634   1.378   2.761
 6242SOL    HW218773   4.474   1.395   2.731
 6243SOL     OW18774   4.651   0.511   2.757
 6243SOL    HW118775   4.623   0.505   2.661
 6243SOL    HW218776   4.683   0.421   2.788
 6244SOL     OW18777   4.279   0.066   2.356
 6244SOL    HW118778   4.197   0.056   2.413
 6244SOL    HW218779   4.266   0.142   2.292
 6245SOL     OW18780   5.150   1.199   1.905
 6245SOL    HW118781   5.183   1.121   1.958
 6245SOL    HW218782   5.061   1.228   1.941
 6246SOL     OW18783   4.036   0.048   2.048
 6246SOL    HW118784   4.075   0.140   2.046
 6246SOL    HW218785   4.087   6.991   2.112
 6247SOL     OW18786   4.673   0.265   2.318
 6247SOL    HW118787   4.643   0.301   2.230
 6247SOL    HW218788   4.772   0.273   2.325
 6248SOL     OW18789   4.804   0.684   3.316
 6248SOL    HW118790   4.729   0.619   3.327
 6248SOL    HW218791   4.891   0.634   3.316
 6249SOL     OW18792   4.944   1.569   2.656
 6249SOL    HW118793   4.958   1.639   2.586
 6249SOL    HW218794   5.015   1.578   2.726
 6250SOL     OW18795   4.192   1.152   2.590
 6250SOL    HW118796   4.126   1.131   2.662
 6250SOL    HW218797   4.150   1.139   2.500
 6251SOL     OW18798   4.987   1.792   2.472
 6251SOL    HW118799   5.039   1.854   2.413
 6251SOL    HW218800   4.914   1.842   2.518
 6252SOL     OW18801   4.741   0.537   1.894
 6252SOL    HW118802   4.697   0.623   1.871
 6252SOL    HW218803   4.813   0.553   1.962
 6253SOL     OW18804   3.815   0.552   3.259
 6253SOL    HW118805   3.908   0.552   3.222
 6253SOL    HW218806   3.805   0.626   3.326
 6254SOL     OW18807   4.295   0.242   3.037
 6254SOL    HW118808   4.348   0.170   3.082
 6254SOL    HW218809   4.199   0.237   3.067
 6255SOL     OW18810   4.590   0.465   2.497
 6255SOL    HW118811   4.539   0.525   2.436
 6255SOL    HW218812   4.617   0.383   2.448
 6256SOL     OW18813   4.682   0.028   2.632
 6256SOL    HW118814   4.625   0.029   2.549
 6256SOL    HW218815   4.753   6.958   2.622
 6257SOL     OW18816   5.169   1.161   2.720
 6257SOL    HW118817   5.093   1.096   2.724
 6257SOL    HW218818   5.198   1.172   2.625
 6258SOL     OW18819   5.190   0.609   2.832
 6258SOL    HW118820   5.129   0.529   2.833
 6258SOL    HW218821   5.253   0.603   2.910
 6259SOL     OW18822   5.566   0.810   2.242
 6259SOL    HW118823   5.624   0.761   2.308
 6259SOL    HW218824   5.536   0.746   2.171
 6260SOL     OW18825   4.211   1.420   2.017
 6260SOL    HW118826   4.131   1.394   2.070
 6260SOL    HW218827   4.209   1.375   1.928
 6261SOL     OW18828   5.399   1.267   2.506
 6261SOL    HW118829   5.498   1.264   2.517
 6261SOL    HW218830   5.365   1.359   2.526
 6262SOL     OW18831   5.115   0.575   1.933
 6262SOL    HW118832   5.051   0.552   2.007
 6262SOL    HW218833   5.209   0.560   1.964
 6263SOL     OW18834   4.247   0.263   2.165
 6263SOL    HW118835   4.304   0.213   2.099
 6263SOL    HW218836   4.222   0.352   2.128
 6264SOL     OW18837   5.476   1.241   3.423
 6264SOL    HW118838   5.566   1.199   3.410
 6264SOL    HW218839   5.488   1.334   3.457
 6265SOL     OW18840   4.778   1.350   3.198
 6265SOL    HW118841   4.696   1.320   3.248
 6265SOL    HW218842   4.859   1.310   3.240
 6266SOL     OW18843   5.338   1.629   3.519
 6266SOL    HW118844   5.322   1.665   3.427
 6266SOL    HW218845   5.423   1.578   3.521
 6267SOL     OW18846   4.861   1.219   2.967
 6267SOL    HW118847   4.801   1.253   3.039
 6267SOL    HW218848   4.827   1.250   2.878
 6268SOL     OW18849   5.348   1.097   2.941
 6268SOL    HW118850   5.344   1.162   3.017
 6268SOL    HW218851   5.272   1.113   2.879
 6269SOL     OW18852   4.618   0.150   3.250
 6269SOL    HW118853   4.635   0.114   3.158
 6269SOL    HW218854   4.705   0.177   3.291
 6270SOL     OW18855   4.703   1.115   3.583
 6270SOL    HW118856   4.609   1.134   3.610
 6270SOL    HW218857   4.706   1.032   3.527
 6271SOL     OW18858   4.437   1.059   2.235
 6271SOL    HW118859   4.419   1.041   2.332
 6271SOL    HW218860   4.516   1.005   2.205
 6272SOL     OW18861   4.147   0.816   3.116
 6272SOL    HW118862   4.220   0.829   3.183
 6272SOL    HW218863   4.108   0.725   3.125
 6273SOL     OW18864   4.984   0.378   3.148
 6273SOL    HW118865   5.022   0.457   3.197
 6273SOL    HW218866   4.890   0.397   3.122
 6274SOL     OW18867   3.798   1.572   3.215
 6274SOL    HW118868   3.763   1.643   3.154
 6274SOL    HW218869   3.898   1.570   3.210
 6275SOL     OW18870   4.066   1.118   2.349
 6275SOL    HW118871   4.072   1.200   2.292
 6275SOL    HW218872   4.064   1.037   2.291
 6276SOL     OW18873   4.277   0.546   2.723
 6276SOL    HW118874   4.291   0.606   2.644
 6276SOL    HW218875   4.347   0.566   2.792
 6277SOL     OW18876   4.970   1.354   2.254
 6277SOL    HW118877   5.031   1.427   2.285
 6277SOL    HW218878   4.877   1.374   2.285
 6278SOL     OW18879   5.012   1.462   3.009
 6278SOL    HW118880   5.070   1.467   3.090
 6278SOL    HW218881   4.957   1.378   3.013
 6279SOL     OW18882   5.296   0.623   2.347
 6279SOL    HW118883   5.248   0.677   2.416
 6279SOL    HW218884   5.348   0.683   2.287
 6280SOL     OW18885   4.072   1.530   3.172
 6280SOL    HW118886   4.056   1.485   3.084
 6280SOL    HW218887   4.170   1.544   3.184
 6281SOL     OW18888   4.142   0.744   3.463
 6281SOL    HW118889   4.205   0.792   3.403
 6281SOL    HW218890   4.181   0.654   3.486
 6282SOL     OW18891   5.332   0.786   3.547
 6282SOL    HW118892   5.241   0.826   3.544
 6282SOL    HW218893   5.389   0.826   3.475
 6283SOL     OW18894   4.721   0.136   3.597
 6283SOL    HW118895   4.764   0.181   3.518
 6283SOL    HW218896   4.724   0.037   3.583
 6284SOL     OW18897   4.187   0.038   3.620
 6284SOL    HW118898   4.122   6.965   3.599
 6284SOL    HW218899   4.139   0.125   3.630
 6285SOL     OW18900   4.308   0.873   2.895
 6285SOL    HW118901   4.344   0.966   2.894
 6285SOL    HW218902   4.248   0.862   2.975
 6286SOL     OW18903   5.075   0.858   2.886
 6286SOL    HW118904   4.984   0.849   2.846
 6286SOL    HW218905   5.123   0.770   2.878
 6287SOL     OW18906   4.922   0.527   2.126
 6287SOL    HW118907   4.934   0.444   2.180
 6287SOL    HW218908   4.877   0.597   2.181
 6288SOL     OW18909   4.034   0.209   3.109
 6288SOL    HW118910   3.970   0.218   3.186
 6288SOL    HW218911   4.023   0.119   3.067
 6289SOL     OW18912   3.776   1.310   3.137
 6289SOL    HW118913   3.808   1.249   3.210
 6289SOL    HW218914   3.779   1.404   3.170
 6290SOL     OW18915   4.453   0.636   2.917
 6290SOL    HW118916   4.527   0.615   2.854
 6290SOL    HW218917   4.415   0.727   2.895
 6291SOL     OW18918   5.460   0.961   3.718
 6291SOL    HW118919   5.417   0.892   3.659
 6291SOL    HW218920   5.400   0.980   3.796
 6292SOL     OW18921   4.045   0.060   2.491
 6292SOL    HW118922   4.022   0.153   2.518
 6292SOL    HW218923   4.001   6.996   2.554
 6293SOL     OW18924   5.350   0.393   2.206
 6293SOL    HW118925   5.380   0.315   2.261
 6293SOL    HW218926   5.319   0.466   2.267
 6294SOL     OW18927   4.749   0.756   2.820
 6294SOL    HW118928   4.744   0.778   2.918
 6294SOL    HW218929   4.721   0.662   2.805
 6295SOL     OW18930   4.705   1.563   3.579
 6295SOL    HW118931   4.689   1.611   3.493
 6295SOL    HW218932   4.753   1.477   3.561
 6296SOL     OW18933   5.579   1.503   3.466
 6296SOL    HW118934   5.597   1.530   3.371
 6296SOL    HW218935   5.662   1.515   3.520
 6297SOL     OW18936   4.077   0.918   3.666
 6297SOL    HW118937   4.156   0.940   3.722
 6297SOL    HW218938   4.104   0.852   3.596
 6298SOL     OW18939   5.263   0.234   1.997
 6298SOL    HW118940   5.164   0.230   2.005
 6298SOL    HW218941   5.301   0.293   2.069
 6299SOL     OW18942   5.013   0.826   1.888
 6299SOL    HW118943   5.053   0.735   1.896
 6299SOL    HW218944   5.044   0.869   1.803
 6300SOL     OW18945   4.794   1.338   2.717
 6300SOL    HW118946   4.798   1.260   2.654
 6300SOL    HW218947   4.853   1.411   2.682
 6301SOL     OW18948   4.035   0.809   2.804
 6301SOL    HW118949   4.132   0.836   2.799
 6301SOL    HW218950   4.028   0.715   2.836
 6302SOL     OW18951   4.059   0.539   2.874
 6302SOL    HW118952   4.016   0.450   2.862
 6302SOL    HW218953   4.140   0.545   2.815
 6303SOL     OW18954   4.849   0.412   3.534
 6303SOL    HW118955   4.801   0.453   3.611
 6303SOL    HW218956   4.947   0.432   3.541
 6304SOL     OW18957   4.859   0.224   3.348
 6304SOL    HW118958   4.859   0.300   3.414
 6304SOL    HW218959   4.916   0.250   3.269
 6305SOL     OW18960   3.724   1.315   2.057
 6305SOL    HW118961   3.635   1.335   2.017
 6305SOL    HW218962   3.726   1.222   2.092
 6306SOL     OW18963   3.817   1.783   2.805
 6306SOL    HW118964   3.781   1.702   2.760
 6306SOL    HW218965   3.911   1.800   2.773
 6307SOL     OW18966   4.218   1.576   2.767
 6307SOL    HW118967   4.287   1.642   2.794
 6307SOL    HW218968   4.258   1.508   2.705
 6308SOL     OW18969   4.699   0.794   3.086
 6308SOL    HW118970   4.758   0.769   3.162
 6308SOL    HW218971   4.609   0.751   3.097
 6309SOL     OW18972   3.759   0.550   2.982
 6309SOL    HW118973   3.837   0.532   2.922
 6309SOL    HW218974   3.790   0.551   3.077
 6310SOL     OW18975   3.909   0.530   3.591
 6310SOL    HW118976   3.988   0.497   3.539
 6310SOL    HW218977   3.869   0.608   3.544
 6311SOL     OW18978   5.104   0.935   3.517
 6311SOL    HW118979   5.127   1.033   3.518
 6311SOL    HW218980   5.101   0.903   3.422
 6312SOL     OW18981   4.541   0.576   2.222
 6312SOL    HW118982   4.551   0.496   2.164
 6312SOL    HW218983   4.462   0.630   2.192
 6313SOL     OW18984   5.366   0.605   3.042
 6313SOL    HW118985   5.347   0.545   3.119
 6313SOL    HW218986   5.457   0.586   3.007
 6314SOL     OW18987   3.964   1.547   3.588
 6314SOL    HW118988   3.942   1.621   3.651
 6314SOL    HW218989   3.970   1.461   3.639
 6315SOL     OW18990   4.433   0.461   3.118
 6315SOL    HW118991   4.377   0.382   3.091
 6315SOL    HW218992   4.432   0.528   3.043
 6316SOL     OW18993   4.644   1.681   3.333
 6316SOL    HW118994   4.618   1.635   3.248
 6316SOL    HW218995   4.644   1.780   3.319
 6317SOL     OW18996   4.183   0.495   2.041
 6317SOL    HW118997   4.248   0.567   2.068
 6317SOL    HW218998   4.092   0.535   2.030
 6318SOL     OW18999   3.866   1.138   3.337
 6318SOL    HW119000   3.868   1.093   3.427
 6318SOL    HW219001   3.886   1.070   3.266
 6319SOL     OW19002   5.040   1.044   3.081
 6319SOL    HW119003   5.067   0.976   3.013
 6319SOL    HW219004   4.972   1.106   3.041
 6320SOL     OW19005   5.040   0.856   2.161
 6320SOL    HW119006   4.963   0.829   2.219
 6320SOL    HW219007   5.014   0.844   2.065
 6321SOL     OW19008   5.504   1.730   3.019
 6321SOL    HW119009   5.565   1.764   2.947
 6321SOL    HW219010   5.473   1.638   2.994
 6322SOL     OW19011   4.965   1.733   2.967
 6322SOL    HW119012   5.051   1.762   2.924
 6322SOL    HW219013   4.971   1.636   2.991
 6323SOL     OW19014   3.810   1.265   2.873
 6323SOL    HW119015   3.794   1.280   2.970
 6323SOL    HW219016   3.737   1.207   2.836
 6324SOL     OW19017   4.405   1.673   3.598
 6324SOL    HW119018   4.342   1.751   3.593
 6324SOL    HW219019   4.477   1.685   3.531
 6325SOL     OW19020   5.430   0.166   2.331
 6325SOL    HW119021   5.515   0.149   2.282
 6325SOL    HW219022   5.427   0.108   2.413
 6326SOL     OW19023   5.119   1.570   2.349
 6326SOL    HW119024   5.182   1.602   2.279
 6326SOL    HW219025   5.064   1.647   2.382
 6327SOL     OW19026   3.869   1.787   3.708
 6327SOL    HW119027   3.812   1.719   3.753
 6327SOL    HW219028   3.919   1.840   3.776
 6328SOL     OW19029   5.006   0.928   2.528
 6328SOL    HW119030   5.081   0.864   2.545
 6328SOL    HW219031   5.039   1.005   2.473
 6329SOL     OW19032   4.528   1.279   3.288
 6329SOL    HW119033   4.498   1.322   3.374
 6329SOL    HW219034   4.459   1.294   3.218
 6330SOL     OW19035   4.393   1.621   2.016
 6330SOL    HW119036   4.409   1.640   1.919
 6330SOL    HW219037   4.334   1.541   2.025
 6331SOL     OW19038   5.341   1.729   3.249
 6331SOL    HW119039   5.398   1.729   3.167
 6331SOL    HW219040   5.327   1.822   3.281
 6332SOL     OW19041   5.590   0.161   2.818
 6332SOL    HW119042   5.588   0.061   2.808
 6332SOL    HW219043   5.499   0.198   2.802
 6333SOL     OW19044   3.984   0.313   2.577
 6333SOL    HW119045   3.894   0.349   2.550
 6333SOL    HW219046   3.990   0.311   2.677
 6334SOL     OW19047   4.932   1.601   1.895
 6334SOL    HW119048   4.923   1.507   1.928
 6334SOL    HW219049   4.866   1.618   1.823
 6335SOL     OW19050   4.547   1.010   3.240
 6335SOL    HW119051   4.598   0.993   3.156
 6335SOL    HW219052   4.545   1.108   3.259
 6336SOL     OW19053   4.644   0.911   2.149
 6336SOL    HW119054   4.705   0.946   2.078
 6336SOL    HW219055   4.690   0.839   2.201
 6337SOL     OW19056   5.212   1.630   1.904
 6337SOL    HW119057   5.114   1.619   1.893
 6337SOL    HW219058   5.256   1.635   1.814
 6338SOL     OW19059   4.090   1.303   3.349
 6338SOL    HW119060   4.080   1.383   3.290
 6338SOL    HW219061   4.010   1.244   3.338
 6339SOL     OW19062   5.337   1.284   3.146
 6339SOL    HW119063   5.400   1.265   3.222
 6339SOL    HW219064   5.271   1.354   3.175
 6340SOL     OW19065   4.785   1.107   2.577
 6340SOL    HW119066   4.709   1.056   2.617
 6340SOL    HW219067   4.854   1.042   2.543
 6341SOL     OW19068   4.748   0.249   2.813
 6341SOL    HW119069   4.726   0.202   2.728
 6341SOL    HW219070   4.739   0.185   2.889
 6342SOL     OW19071   4.329   1.486   2.342
 6342SOL    HW119072   4.380   1.432   2.275
 6342SOL    HW219073   4.255   1.535   2.295
 6343SOL     OW19074   5.457   0.392   3.237
 6343SOL    HW119075   5.526   0.464   3.243
 6343SOL    HW219076   5.493   0.315   3.185
 6344SOL     OW19077   3.977   1.348   2.150
 6344SOL    HW119078   3.881   1.341   2.123
 6344SOL    HW219079   3.983   1.386   2.242
 6345SOL     OW19080   3.838   1.034   3.590
 6345SOL    HW119081   3.757   1.007   3.640
 6345SOL    HW219082   3.919   0.989   3.629
 6346SOL     OW19083   4.393   0.237   3.370
 6346SOL    HW119084   4.474   0.211   3.318
 6346SOL    HW219085   4.421   0.270   3.461
 6347SOL     OW19086   3.800   0.333   1.896
 6347SOL    HW119087   3.704   0.311   1.879
 6347SOL    HW219088   3.825   0.413   1.842
 6348SOL     OW19089   5.148   0.858   3.257
 6348SOL    HW119090   5.092   0.921   3.204
 6348SOL    HW219091   5.242   0.859   3.223
 6349SOL     OW19092   3.796   0.178   2.179
 6349SOL    HW119093   3.799   0.248   2.108
 6349SOL    HW219094   3.848   0.098   2.149
 6350SOL     OW19095   4.904   1.337   1.983
 6350SOL    HW119096   4.809   1.308   1.976
 6350SOL    HW219097   4.932   1.339   2.079
 6351SOL     OW19098   4.348   0.830   3.295
 6351SOL    HW119099   4.404   0.911   3.281
 6351SOL    HW219100   4.406   0.750   3.306
 6352SOL     OW19101   5.209   1.788   2.850
 6352SOL    HW119102   5.230   1.850   2.774
 6352SOL    HW219103   5.294   1.754   2.889
 6353SOL     OW19104   4.444   0.558   3.568
 6353SOL    HW119105   4.489   0.629   3.624
 6353SOL    HW219106   4.465   0.468   3.606
 6354SOL     OW19107   5.198   1.196   3.496
 6354SOL    HW119108   5.182   1.210   3.594
 6354SOL    HW219109   5.294   1.215   3.475
 6355SOL     OW19110   4.095   1.738   3.429
 6355SOL    HW119111   4.011   1.790   3.414
 6355SOL    HW219112   4.073   1.650   3.471
 6356SOL     OW19113   5.390   0.878   3.118
 6356SOL    HW119114   5.385   0.787   3.077
 6356SOL    HW219115   5.377   0.948   3.047
 6357SOL     OW19116   4.948   0.318   2.318
 6357SOL    HW119117   5.018   0.247   2.310
 6357SOL    HW219118   4.967   0.375   2.398
 6358SOL     OW19119   4.312   0.737   2.529
 6358SOL    HW119120   4.352   0.828   2.518
 6358SOL    HW219121   4.242   0.723   2.459
 6359SOL     OW19122   5.474   0.369   3.510
 6359SOL    HW119123   5.464   0.384   3.411
 6359SOL    HW219124   5.401   0.308   3.541
 6360SOL     OW19125   5.477   0.932   3.372
 6360SOL    HW119126   5.464   1.029   3.393
 6360SOL    HW219127   5.455   0.917   3.275
 6361SOL     OW19128   4.590   1.364   1.905
 6361SOL    HW119129   4.549   1.388   1.993
 6361SOL    HW219130   4.606   1.447   1.852
 6362SOL     OW19131   4.389   1.785   2.804
 6362SOL    HW119132   4.365   1.880   2.783
 6362SOL    HW219133   4.487   1.772   2.793
 6363SOL     OW19134   4.593   0.970   2.718
 6363SOL    HW119135   4.644   0.893   2.755
 6363SOL    HW219136   4.550   1.021   2.793
 6364SOL     OW19137   4.802   0.989   1.946
 6364SOL    HW119138   4.774   1.043   1.866
 6364SOL    HW219139   4.879   0.931   1.921
 6365SOL     OW19140   5.570   1.556   2.709
 6365SOL    HW119141   5.493   1.544   2.646
 6365SOL    HW219142   5.565   1.487   2.781
 6366SOL     OW19143   3.955   1.299   3.719
 6366SOL    HW119144   3.889   1.232   3.684
 6366SOL    HW219145   3.941   1.312   3.817
 6367SOL     OW19146   3.811   1.230   2.525
 6367SOL    HW119147   3.816   1.184   2.614
 6367SOL    HW219148   3.879   1.190   2.464
 6368SOL     OW19149   4.406   1.409   3.495
 6368SOL    HW119150   4.326   1.359   3.527
 6368SOL    HW219151   4.405   1.502   3.532
 6369SOL     OW19152   5.576   0.183   3.108
 6369SOL    HW119153   5.496   0.123   3.103
 6369SOL    HW219154   5.604   0.208   3.016
 6370SOL     OW19155   4.154   0.426   2.386
 6370SOL    HW119156   4.189   0.355   2.325
 6370SOL    HW219157   4.101   0.384   2.459
 6371SOL     OW19158   5.417   1.483   2.956
 6371SOL    HW119159   5.336   1.465   2.900
 6371SOL    HW219160   5.426   1.412   3.026
 6372SOL     OW19161   4.058   0.558   3.150
 6372SOL    HW119162   4.115   0.501   3.208
 6372SOL    HW219163   4.076   0.536   3.054
 6373SOL     OW19164   4.553   1.580   2.540
 6373SOL    HW119165   4.539   1.641   2.463
 6373SOL    HW219166   4.476   1.516   2.546
 6374SOL     OW19167   5.137   0.216   2.991
 6374SOL    HW119168   5.219   0.172   3.029
 6374SOL    HW219169   5.089   0.265   3.064
 6375SOL     OW19170   4.701   0.056   2.999
 6375SOL    HW119171   4.644   6.992   2.947
 6375SOL    HW219172   4.756   0.005   3.065
 6376SOL     OW19173   4.498   1.332   2.183
 6376SOL    HW119174   4.470   1.236   2.191
 6376SOL    HW219175   4.583   1.346   2.234
 6377SOL     OW19176   4.347   1.559   3.152
 6377SOL    HW119177   4.345   1.646   3.201
 6377SOL    HW219178   4.438   1.546   3.111
 6378SOL     OW19179   5.046   0.015   2.054
 6378SOL    HW119180   5.093   6.948   1.998
 6378SOL    HW219181   4.969   6.972   2.101
 6379SOL     OW19182   4.993   0.454   2.549
 6379SOL    HW119183   4.948   0.544   2.546
 6379SOL    HW219184   5.011   0.430   2.644
 6380SOL     OW19185   5.343   0.257   2.777
 6380SOL    HW119186   5.254   0.237   2.818
 6380SOL    HW219187   5.331   0.321   2.701
 6381SOL     OW19188   3.767   1.064   2.170
 6381SOL    HW119189   3.865   1.064   2.150
 6381SOL    HW219190   3.737   0.971   2.192
 6382SOL     OW19191   4.608   1.662   2.202
 6382SOL    HW119192   4.533   1.641   2.139
 6382SOL    HW219193   4.582   1.740   2.260
 6383SOL     OW19194   3.944   0.620   3.851
 6383SOL    HW119195   3.855   0.619   3.896
 6383SOL    HW219196   3.933   0.599   3.754
 6384SOL     OW19197   3.946   0.303   4.721
 6384SOL    HW119198   3.986   0.265   4.804
 6384SOL    HW219199   3.863   0.252   4.697
 6385SOL     OW19200   3.733   0.395   4.352
 6385SOL    HW119201   3.644   0.412   4.394
 6385SOL    HW219202   3.724   0.322   4.284
 6386SOL     OW19203   4.293   1.297   4.909
 6386SOL    HW119204   4.203   1.294   4.866
 6386SOL    HW219205   4.310   1.390   4.943
 6387SOL     OW19206   5.289   1.513   4.432
 6387SOL    HW119207   5.246   1.489   4.519
 6387SOL    HW219208   5.218   1.520   4.361
 6388SOL     OW19209   4.858   0.702   4.419
 6388SOL    HW119210   4.910   0.786   4.402
 6388SOL    HW219211   4.807   0.711   4.505
 6389SOL     OW19212   5.492   0.602   3.946
 6389SOL    HW119213   5.471   0.598   3.848
 6389SOL    HW219214   5.455   0.521   3.992
 6390SOL     OW19215   4.467   1.141   4.765
 6390SOL    HW119216   4.400   1.176   4.829
 6390SOL    HW219217   4.512   1.217   4.718
 6391SOL     OW19218   4.596   0.765   5.544
 6391SOL    HW119219   4.585   0.834   5.617
 6391SOL    HW219220   4.621   0.811   5.459
 6392SOL     OW19221   4.408   1.000   4.372
 6392SOL    HW119222   4.479   0.989   4.442
 6392SOL    HW219223   4.333   1.055   4.409
 6393SOL     OW19224   4.435   1.153   5.542
 6393SOL    HW119225   4.488   1.232   5.575
 6393SOL    HW219226   4.350   1.185   5.500
 6394SOL     OW19227   4.050   1.423   4.790
 6394SOL    HW119228   3.974   1.378   4.743
 6394SOL    HW219229   4.103   1.476   4.723
 6395SOL     OW19230   5.182   1.502   5.082
 6395SOL    HW119231   5.239   1.583   5.089
 6395SOL    HW219232   5.111   1.504   5.152
 6396SOL     OW19233   4.167   0.398   5.207
 6396SOL    HW119234   4.253   0.347   5.213
 6396SOL    HW219235   4.091   0.334   5.213
 6397SOL     OW19236   5.340   0.457   4.453
 6397SOL    HW119237   5.279   0.486   4.380
 6397SOL    HW219238   5.348   0.530   4.521
 6398SOL     OW19239   3.946   1.714   4.195
 6398SOL    HW119240   3.964   1.793   4.255
 6398SOL    HW219241   4.021   1.704   4.130
 6399SOL     OW19242   4.861   1.340   5.422
 6399SOL    HW119243   4.908   1.338   5.510
 6399SOL    HW219244   4.805   1.258   5.412
 6400SOL     OW19245   3.957   1.443   4.260
 6400SOL    HW119246   3.941   1.542   4.259
 6400SOL    HW219247   3.897   1.400   4.327
 6401SOL     OW19248   3.993   1.091   4.625
 6401SOL    HW119249   3.989   0.996   4.657
 6401SOL    HW219250   3.931   1.147   4.678
 6402SOL     OW19251   4.323   1.797   5.150
 6402SOL    HW119252   4.240   1.773   5.200
 6402SOL    HW219253   4.354   1.887   5.178
 6403SOL     OW19254   4.306   0.987   3.865
 6403SOL    HW119255   4.353   1.034   3.790
 6403SOL    HW219256   4.346   1.015   3.952
 6404SOL     OW19257   5.303   0.132   5.171
 6404SOL    HW119258   5.314   0.226   5.140
 6404SOL    HW219259   5.325   0.126   5.268
 6405SOL     OW19260   3.838   0.661   4.288
 6405SOL    HW119261   3.811   0.566   4.305
 6405SOL    HW219262   3.833   0.713   4.373
 6406SOL     OW19263   5.570   1.756   4.057
 6406SOL    HW119264   5.640   1.725   4.121
 6406SOL    HW219265   5.586   1.851   4.033
 6407SOL     OW19266   3.753   1.590   3.847
 6407SOL    HW119267   3.737   1.494   3.866
 6407SOL    HW219268   3.732   1.644   3.929
 6408SOL     OW19269   5.414   0.920   4.371
 6408SOL    HW119270   5.499   0.870   4.355
 6408SOL    HW219271   5.392   0.974   4.290
 6409SOL     OW19272   5.377   1.104   4.156
 6409SOL    HW119273   5.466   1.101   4.110
 6409SOL    HW219274   5.379   1.171   4.230
 6410SOL     OW19275   3.846   0.749   5.306
 6410SOL    HW119276   3.942   0.776   5.309
 6410SOL    HW219277   3.788   0.830   5.308
 6411SOL     OW19278   4.336   1.391   4.458
 6411SOL    HW119279   4.290   1.303   4.470
 6411SOL    HW219280   4.323   1.422   4.363
 6412SOL     OW19281   5.013   1.235   5.146
 6412SOL    HW119282   5.040   1.164   5.080
 6412SOL    HW219283   5.072   1.231   5.226
 6413SOL     OW19284   4.547   0.029   4.245
 6413SOL    HW119285   4.587   0.118   4.224
 6413SOL    HW219286   4.447   0.036   4.247
 6414SOL     OW19287   3.914   0.962   5.001
 6414SOL    HW119288   4.004   0.919   4.986
 6414SOL    HW219289   3.846   0.915   4.945
 6415SOL     OW19290   5.256   1.000   3.928
 6415SOL    HW119291   5.182   0.940   3.958
 6415SOL    HW219292   5.303   1.038   4.008
 6416SOL     OW19293   4.905   1.811   5.346
 6416SOL    HW119294   4.913   1.880   5.274
 6416SOL    HW219295   4.926   1.721   5.309
 6417SOL     OW19296   4.044   0.269   5.514
 6417SOL    HW119297   4.107   0.336   5.554
 6417SOL    HW219298   3.957   0.272   5.564
 6418SOL     OW19299   5.189   1.420   4.671
 6418SOL    HW119300   5.122   1.439   4.743
 6418SOL    HW219301   5.181   1.325   4.643
 6419SOL     OW19302   5.374   1.749   4.300
 6419SOL    HW119303   5.356   1.720   4.206
 6419SOL    HW219304   5.353   1.674   4.362
 6420SOL     OW19305   4.317   0.719   3.996
 6420SOL    HW119306   4.322   0.805   3.945
 6420SOL    HW219307   4.248   0.726   4.068
 6421SOL     OW19308   5.006   0.367   4.673
 6421SOL    HW119309   4.909   0.343   4.676
 6421SOL    HW219310   5.056   0.316   4.743
 6422SOL     OW19311   5.307   1.673   4.032
 6422SOL    HW119312   5.403   1.700   4.028
 6422SOL    HW219313   5.274   1.655   3.939
 6423SOL     OW19314   4.517   0.616   5.179
 6423SOL    HW119315   4.490   0.590   5.272
 6423SOL    HW219316   4.479   0.550   5.113
 6424SOL     OW19317   5.118   0.473   5.404
 6424SOL    HW119318   5.116   0.520   5.493
 6424SOL    HW219319   5.175   0.391   5.411
 6425SOL     OW19320   4.677   0.885   5.307
 6425SOL    HW119321   4.735   0.813   5.269
 6425SOL    HW219322   4.623   0.927   5.234
 6426SOL     OW19323   4.719   0.412   4.951
 6426SOL    HW119324   4.633   0.434   4.997
 6426SOL    HW219325   4.700   0.361   4.867
 6427SOL     OW19326   4.775   0.698   4.149
 6427SOL    HW119327   4.796   0.694   4.247
 6427SOL    HW219328   4.688   0.652   4.131
 6428SOL     OW19329   3.812   0.828   4.504
 6428SOL    HW119330   3.898   0.815   4.554
 6428SOL    HW219331   3.763   0.907   4.541
 6429SOL     OW19332   3.852   1.871   5.312
 6429SOL    HW119333   3.857   1.844   5.408
 6429SOL    HW219334   3.767   1.838   5.272
 6430SOL     OW19335   4.614   0.355   3.924
 6430SOL    HW119336   4.660   0.416   3.859
 6430SOL    HW219337   4.588   0.270   3.878
 6431SOL     OW19338   5.425   0.572   5.549
 6431SOL    HW119339   5.389   0.652   5.500
 6431SOL    HW219340   5.453   0.503   5.483
 6432SOL     OW19341   5.104   1.143   4.258
 6432SOL    HW119342   5.188   1.128   4.207
 6432SOL    HW219343   5.047   1.210   4.210
 6433SOL     OW19344   4.227   0.190   4.635
 6433SOL    HW119345   4.267   0.221   4.722
 6433SOL    HW219346   4.252   0.254   4.563
 6434SOL     OW19347   4.719   1.443   4.188
 6434SOL    HW119348   4.687   1.523   4.138
 6434SOL    HW219349   4.703   1.455   4.286
 6435SOL     OW19350   4.080   1.814   4.594
 6435SOL    HW119351   4.124   1.724   4.601
 6435SOL    HW219352   4.147   1.886   4.613
 6436SOL     OW19353   5.522   1.057   4.596
 6436SOL    HW119354   5.470   1.034   4.513
 6436SOL    HW219355   5.459   1.063   4.673
 6437SOL     OW19356   4.950   1.536   5.238
 6437SOL    HW119357   4.938   1.462   5.304
 6437SOL    HW219358   4.883   1.528   5.165
 6438SOL     OW19359   4.045   0.959   3.978
 6438SOL    HW119360   4.133   0.979   3.935
 6438SOL    HW219361   4.009   0.873   3.941
 6439SOL     OW19362   5.207   0.750   4.448
 6439SOL    HW119363   5.200   0.706   4.538
 6439SOL    HW219364   5.287   0.810   4.446
 6440SOL     OW19365   4.192   1.265   5.455
 6440SOL    HW119366   4.166   1.271   5.359
 6440SOL    HW219367   4.110   1.262   5.512
 6441SOL     OW19368   4.846   1.776   3.951
 6441SOL    HW119369   4.766   1.738   3.999
 6441SOL    HW219370   4.875   1.712   3.880
 6442SOL     OW19371   3.916   0.272   5.236
 6442SOL    HW119372   3.857   0.352   5.221
 6442SOL    HW219373   3.939   0.265   5.333
 6443SOL     OW19374   5.349   1.382   3.812
 6443SOL    HW119375   5.310   1.473   3.797
 6443SOL    HW219376   5.279   1.312   3.793
 6444SOL     OW19377   4.189   1.735   4.043
 6444SOL    HW119378   4.230   1.797   4.109
 6444SOL    HW219379   4.260   1.699   3.982
 6445SOL     OW19380   5.149   0.132   4.149
 6445SOL    HW119381   5.128   0.088   4.062
 6445SOL    HW219382   5.248   0.138   4.161
 6446SOL     OW19383   3.982   1.792   4.950
 6446SOL    HW119384   4.033   1.719   4.997
 6446SOL    HW219385   3.964   1.764   4.856
 6447SOL     OW19386   4.660   1.702   4.621
 6447SOL    HW119387   4.742   1.655   4.651
 6447SOL    HW219388   4.618   1.650   4.546
 6448SOL     OW19389   4.119   0.687   4.199
 6448SOL    HW119390   4.140   0.590   4.212
 6448SOL    HW219391   4.022   0.703   4.217
 6449SOL     OW19392   5.253   0.230   5.451
 6449SOL    HW119393   5.268   0.236   5.549
 6449SOL    HW219394   5.167   0.182   5.433
 6450SOL     OW19395   4.369   0.111   3.826
 6450SOL    HW119396   4.408   0.037   3.880
 6450SOL    HW219397   4.306   0.073   3.758
 6451SOL     OW19398   4.486   0.277   5.490
 6451SOL    HW119399   4.574   0.231   5.483
 6451SOL    HW219400   4.432   0.235   5.563
 6452SOL     OW19401   4.598   1.514   4.917
 6452SOL    HW119402   4.579   1.479   4.825
 6452SOL    HW219403   4.671   1.461   4.959
 6453SOL     OW19404   5.066   0.591   5.161
 6453SOL    HW119405   5.095   0.556   5.250
 6453SOL    HW219406   5.101   0.684   5.149
 6454SOL     OW19407   4.544   1.389   4.665
 6454SOL    HW119408   4.634   1.378   4.623
 6454SOL    HW219409   4.474   1.395   4.594
 6455SOL     OW19410   4.651   0.511   4.619
 6455SOL    HW119411   4.623   0.505   4.523
 6455SOL    HW219412   4.683   0.421   4.650
 6456SOL     OW19413   4.279   0.066   4.218
 6456SOL    HW119414   4.197   0.056   4.275
 6456SOL    HW219415   4.266   0.142   4.154
 6457SOL     OW19416   5.150   1.199   3.767
 6457SOL    HW119417   5.183   1.121   3.820
 6457SOL    HW219418   5.061   1.228   3.803
 6458SOL     OW19419   4.035   0.048   3.910
 6458SOL    HW119420   4.075   0.140   3.908
 6458SOL    HW219421   4.087   6.991   3.974
 6459SOL     OW19422   4.673   0.265   4.180
 6459SOL    HW119423   4.643   0.301   4.092
 6459SOL    HW219424   4.772   0.273   4.187
 6460SOL     OW19425   4.804   0.684   5.178
 6460SOL    HW119426   4.729   0.619   5.189
 6460SOL    HW219427   4.891   0.634   5.178
 6461SOL     OW19428   4.944   1.569   4.518
 6461SOL    HW119429   4.958   1.639   4.448
 6461SOL    HW219430   5.015   1.577   4.588
 6462SOL     OW19431   4.192   1.152   4.452
 6462SOL    HW119432   4.126   1.131   4.524
 6462SOL    HW219433   4.150   1.139   4.362
 6463SOL     OW19434   4.987   1.792   4.334
 6463SOL    HW119435   5.039   1.854   4.275
 6463SOL    HW219436   4.914   1.842   4.380
 6464SOL     OW19437   4.742   0.536   3.756
 6464SOL    HW119438   4.698   0.623   3.733
 6464SOL    HW219439   4.813   0.553   3.825
 6465SOL     OW19440   3.815   0.552   5.121
 6465SOL    HW119441   3.908   0.552   5.084
 6465SOL    HW219442   3.805   0.626   5.188
 6466SOL     OW19443   4.295   0.242   4.899
 6466SOL    HW119444   4.348   0.170   4.944
 6466SOL    HW219445   4.199   0.237   4.929
 6467SOL     OW19446   4.590   0.465   4.359
 6467SOL    HW119447   4.539   0.525   4.298
 6467SOL    HW219448   4.617   0.383   4.310
 6468SOL     OW19449   4.682   0.028   4.494
 6468SOL    HW119450   4.625   0.029   4.411
 6468SOL    HW219451   4.753   6.958   4.484
 6469SOL     OW19452   5.169   1.161   4.582
 6469SOL    HW119453   5.093   1.096   4.587
 6469SOL    HW219454   5.198   1.172   4.487
 6470SOL     OW19455   5.190   0.608   4.694
 6470SOL    HW119456   5.129   0.529   4.695
 6470SOL    HW219457   5.253   0.603   4.772
 6471SOL     OW19458   5.566   0.810   4.104
 6471SOL    HW119459   5.624   0.762   4.170
 6471SOL    HW219460   5.536   0.746   4.033
 6472SOL     OW19461   4.211   1.420   3.879
 6472SOL    HW119462   4.131   1.394   3.932
 6472SOL    HW219463   4.209   1.375   3.790
 6473SOL     OW19464   5.399   1.267   4.367
 6473SOL    HW119465   5.498   1.264   4.379
 6473SOL    HW219466   5.365   1.359   4.388
 6474SOL     OW19467   5.115   0.575   3.795
 6474SOL    HW119468   5.051   0.552   3.869
 6474SOL    HW219469   5.209   0.560   3.826
 6475SOL     OW19470   4.247   0.263   4.027
 6475SOL    HW119471   4.304   0.214   3.961
 6475SOL    HW219472   4.223   0.352   3.990
 6476SOL     OW19473   5.476   1.241   5.285
 6476SOL    HW119474   5.566   1.199   5.272
 6476SOL    HW219475   5.488   1.334   5.319
 6477SOL     OW19476   4.778   1.350   5.060
 6477SOL    HW119477   4.696   1.320   5.110
 6477SOL    HW219478   4.859   1.310   5.102
 6478SOL     OW19479   5.337   1.629   5.381
 6478SOL    HW119480   5.322   1.665   5.288
 6478SOL    HW219481   5.423   1.578   5.383
 6479SOL     OW19482   4.861   1.219   4.829
 6479SOL    HW119483   4.801   1.253   4.901
 6479SOL    HW219484   4.827   1.250   4.740
 6480SOL     OW19485   5.348   1.097   4.803
 6480SOL    HW119486   5.344   1.162   4.879
 6480SOL    HW219487   5.272   1.113   4.741
 6481SOL     OW19488   4.618   0.150   5.112
 6481SOL    HW119489   4.635   0.114   5.020
 6481SOL    HW219490   4.705   0.177   5.153
 6482SOL     OW19491   4.703   1.115   5.445
 6482SOL    HW119492   4.609   1.134   5.472
 6482SOL    HW219493   4.706   1.032   5.389
 6483SOL     OW19494   4.437   1.059   4.097
 6483SOL    HW119495   4.419   1.041   4.194
 6483SOL    HW219496   4.516   1.005   4.067
 6484SOL     OW19497   4.147   0.816   4.978
 6484SOL    HW119498   4.220   0.829   5.045
 6484SOL    HW219499   4.108   0.725   4.987
 6485SOL     OW19500   4.984   0.378   5.010
 6485SOL    HW119501   5.022   0.457   5.059
 6485SOL    HW219502   4.890   0.397   4.984
 6486SOL     OW19503   3.798   1.572   5.077
 6486SOL    HW119504   3.763   1.642   5.016
 6486SOL    HW219505   3.898   1.570   5.072
 6487SOL     OW19506   4.066   1.118   4.211
 6487SOL    HW119507   4.072   1.200   4.154
 6487SOL    HW219508   4.064   1.037   4.153
 6488SOL     OW19509   4.277   0.546   4.585
 6488SOL    HW119510   4.291   0.606   4.506
 6488SOL    HW219511   4.347   0.566   4.654
 6489SOL     OW19512   4.970   1.354   4.116
 6489SOL    HW119513   5.031   1.427   4.147
 6489SOL    HW219514   4.877   1.374   4.147
 6490SOL     OW19515   5.012   1.462   4.871
 6490SOL    HW119516   5.070   1.467   4.952
 6490SOL    HW219517   4.957   1.378   4.875
 6491SOL     OW19518   5.296   0.623   4.209
 6491SOL    HW119519   5.248   0.677   4.278
 6491SOL    HW219520   5.348   0.684   4.149
 6492SOL     OW19521   4.072   1.530   5.034
 6492SOL    HW119522   4.056   1.485   4.946
 6492SOL    HW219523   4.170   1.544   5.046
 6493SOL     OW19524   4.142   0.744   5.325
 6493SOL    HW119525   4.205   0.792   5.265
 6493SOL    HW219526   4.181   0.654   5.348
 6494SOL     OW19527   5.332   0.785   5.409
 6494SOL    HW119528   5.241   0.826   5.406
 6494SOL    HW219529   5.389   0.826   5.337
 6495SOL     OW19530   4.721   0.136   5.459
 6495SOL    HW119531   4.764   0.181   5.380
 6495SOL    HW219532   4.724   0.037   5.445
 6496SOL     OW19533   4.187   0.038   5.482
 6496SOL    HW119534   4.122   6.965   5.461
 6496SOL    HW219535   4.139   0.125   5.492
 6497SOL     OW19536   4.308   0.873   4.757
 6497SOL    HW119537   4.344   0.967   4.756
 6497SOL    HW219538   4.248   0.862   4.837
 6498SOL     OW19539   5.075   0.858   4.747
 6498SOL    HW119540   4.984   0.849   4.708
 6498SOL    HW219541   5.124   0.770   4.740
 6499SOL     OW19542   4.922   0.527   3.988
 6499SOL    HW119543   4.934   0.444   4.042
 6499SOL    HW219544   4.877   0.597   4.043
 6500SOL     OW19545   4.034   0.209   4.971
 6500SOL    HW119546   3.970   0.218   5.048
 6500SOL    HW219547   4.023   0.119   4.929
 6501SOL     OW19548   3.776   1.310   4.999
 6501SOL    HW119549   3.808   1.249   5.072
 6501SOL    HW219550   3.779   1.404   5.032
 6502SOL     OW19551   4.453   0.636   4.779
 6502SOL    HW119552   4.527   0.615   4.716
 6502SOL    HW219553   4.415   0.727   4.757
 6503SOL     OW19554   5.460   0.961   5.580
 6503SOL    HW119555   5.417   0.892   5.521
 6503SOL    HW219556   5.401   0.980   5.658
 6504SOL     OW19557   4.045   0.060   4.353
 6504SOL    HW119558   4.022   0.153   4.380
 6504SOL    HW219559   4.001   6.996   4.416
 6505SOL     OW19560   5.350   0.393   4.068
 6505SOL    HW119561   5.380   0.315   4.123
 6505SOL    HW219562   5.319   0.466   4.129
 6506SOL     OW19563   4.749   0.756   4.682
 6506SOL    HW119564   4.744   0.778   4.780
 6506SOL    HW219565   4.721   0.662   4.667
 6507SOL     OW19566   4.705   1.563   5.441
 6507SOL    HW119567   4.689   1.610   5.355
 6507SOL    HW219568   4.753   1.477   5.424
 6508SOL     OW19569   5.579   1.503   5.328
 6508SOL    HW119570   5.598   1.530   5.233
 6508SOL    HW219571   5.661   1.515   5.383
 6509SOL     OW19572   4.077   0.918   5.528
 6509SOL    HW119573   4.156   0.940   5.584
 6509SOL    HW219574   4.104   0.852   5.458
 6510SOL     OW19575   5.263   0.234   3.859
 6510SOL    HW119576   5.164   0.230   3.867
 6510SOL    HW219577   5.301   0.293   3.931
 6511SOL     OW19578   5.013   0.826   3.750
 6511SOL    HW119579   5.052   0.735   3.758
 6511SOL    HW219580   5.044   0.869   3.665
 6512SOL     OW19581   4.794   1.338   4.579
 6512SOL    HW119582   4.798   1.260   4.516
 6512SOL    HW219583   4.853   1.411   4.544
 6513SOL     OW19584   4.035   0.809   4.666
 6513SOL    HW119585   4.132   0.836   4.661
 6513SOL    HW219586   4.028   0.715   4.698
 6514SOL     OW19587   4.059   0.539   4.736
 6514SOL    HW119588   4.016   0.450   4.724
 6514SOL    HW219589   4.140   0.545   4.677
 6515SOL     OW19590   4.849   0.412   5.396
 6515SOL    HW119591   4.801   0.453   5.472
 6515SOL    HW219592   4.947   0.432   5.403
 6516SOL     OW19593   4.859   0.225   5.210
 6516SOL    HW119594   4.859   0.300   5.276
 6516SOL    HW219595   4.916   0.250   5.131
 6517SOL     OW19596   3.724   1.315   3.919
 6517SOL    HW119597   3.635   1.335   3.879
 6517SOL    HW219598   3.726   1.221   3.954
 6518SOL     OW19599   3.817   1.783   4.667
 6518SOL    HW119600   3.781   1.702   4.622
 6518SOL    HW219601   3.911   1.800   4.635
 6519SOL     OW19602   4.218   1.576   4.629
 6519SOL    HW119603   4.287   1.642   4.656
 6519SOL    HW219604   4.258   1.508   4.567
 6520SOL     OW19605   4.699   0.794   4.948
 6520SOL    HW119606   4.758   0.769   5.024
 6520SOL    HW219607   4.609   0.751   4.959
 6521SOL     OW19608   3.759   0.550   4.844
 6521SOL    HW119609   3.837   0.532   4.784
 6521SOL    HW219610   3.790   0.551   4.939
 6522SOL     OW19611   3.909   0.530   5.453
 6522SOL    HW119612   3.988   0.497   5.401
 6522SOL    HW219613   3.869   0.608   5.406
 6523SOL     OW19614   5.104   0.935   5.379
 6523SOL    HW119615   5.127   1.033   5.380
 6523SOL    HW219616   5.101   0.903   5.284
 6524SOL     OW19617   4.541   0.577   4.084
 6524SOL    HW119618   4.551   0.496   4.026
 6524SOL    HW219619   4.462   0.630   4.054
 6525SOL     OW19620   5.366   0.605   4.904
 6525SOL    HW119621   5.347   0.545   4.981
 6525SOL    HW219622   5.457   0.586   4.869
 6526SOL     OW19623   3.964   1.547   5.450
 6526SOL    HW119624   3.942   1.621   5.513
 6526SOL    HW219625   3.970   1.461   5.500
 6527SOL     OW19626   4.433   0.461   4.980
 6527SOL    HW119627   4.377   0.382   4.953
 6527SOL    HW219628   4.432   0.528   4.905
 6528SOL     OW19629   4.644   1.681   5.195
 6528SOL    HW119630   4.618   1.635   5.110
 6528SOL    HW219631   4.644   1.780   5.181
 6529SOL     OW19632   4.183   0.495   3.903
 6529SOL    HW119633   4.248   0.567   3.930
 6529SOL    HW219634   4.092   0.535   3.892
 6530SOL     OW19635   3.866   1.138   5.199
 6530SOL    HW119636   3.868   1.093   5.289
 6530SOL    HW219637   3.886   1.070   5.128
 6531SOL     OW19638   5.040   1.044   4.943
 6531SOL    HW119639   5.067   0.976   4.874
 6531SOL    HW219640   4.972   1.106   4.903
 6532SOL     OW19641   5.040   0.856   4.023
 6532SOL    HW119642   4.963   0.829   4.082
 6532SOL    HW219643   5.014   0.844   3.927
 6533SOL     OW19644   5.504   1.730   4.880
 6533SOL    HW119645   5.565   1.764   4.809
 6533SOL    HW219646   5.473   1.638   4.856
 6534SOL     OW19647   4.965   1.733   4.829
 6534SOL    HW119648   5.051   1.762   4.786
 6534SOL    HW219649   4.971   1.636   4.853
 6535SOL     OW19650   3.810   1.265   4.734
 6535SOL    HW119651   3.794   1.280   4.832
 6535SOL    HW219652   3.737   1.207   4.698
 6536SOL     OW19653   4.405   1.673   5.460
 6536SOL    HW119654   4.342   1.751   5.455
 6536SOL    HW219655   4.478   1.685   5.393
 6537SOL     OW19656   5.430   0.165   4.193
 6537SOL    HW119657   5.515   0.149   4.144
 6537SOL    HW219658   5.427   0.108   4.275
 6538SOL     OW19659   5.119   1.570   4.211
 6538SOL    HW119660   5.182   1.602   4.141
 6538SOL    HW219661   5.064   1.647   4.244
 6539SOL     OW19662   3.869   1.787   5.570
 6539SOL    HW119663   3.812   1.719   5.615
 6539SOL    HW219664   3.919   1.840   5.638
 6540SOL     OW19665   5.006   0.928   4.390
 6540SOL    HW119666   5.081   0.864   4.407
 6540SOL    HW219667   5.039   1.005   4.335
 6541SOL     OW19668   4.528   1.279   5.150
 6541SOL    HW119669   4.498   1.322   5.235
 6541SOL    HW219670   4.459   1.294   5.080
 6542SOL     OW19671   4.393   1.621   3.878
 6542SOL    HW119672   4.409   1.640   3.781
 6542SOL    HW219673   4.334   1.541   3.887
 6543SOL     OW19674   5.341   1.729   5.111
 6543SOL    HW119675   5.398   1.729   5.029
 6543SOL    HW219676   5.327   1.822   5.143
 6544SOL     OW19677   5.590   0.161   4.680
 6544SOL    HW119678   5.588   0.061   4.670
 6544SOL    HW219679   5.499   0.198   4.664
 6545SOL     OW19680   3.984   0.313   4.439
 6545SOL    HW119681   3.894   0.349   4.412
 6545SOL    HW219682   3.990   0.311   4.539
 6546SOL     OW19683   4.933   1.601   3.757
 6546SOL    HW119684   4.923   1.507   3.790
 6546SOL    HW219685   4.866   1.618   3.685
 6547SOL     OW19686   4.547   1.010   5.102
 6547SOL    HW119687   4.598   0.993   5.018
 6547SOL    HW219688   4.545   1.108   5.121
 6548SOL     OW19689   4.644   0.911   4.011
 6548SOL    HW119690   4.705   0.946   3.940
 6548SOL    HW219691   4.690   0.839   4.063
 6549SOL     OW19692   5.212   1.630   3.766
 6549SOL    HW119693   5.114   1.619   3.755
 6549SOL    HW219694   5.256   1.635   3.676
 6550SOL     OW19695   4.090   1.303   5.211
 6550SOL    HW119696   4.080   1.383   5.152
 6550SOL    HW219697   4.010   1.244   5.200
 6551SOL     OW19698   5.338   1.284   5.009
 6551SOL    HW119699   5.400   1.265   5.084
 6551SOL    HW219700   5.271   1.354   5.037
 6552SOL     OW19701   4.785   1.107   4.439
 6552SOL    HW119702   4.709   1.057   4.479
 6552SOL    HW219703   4.854   1.042   4.405
 6553SOL     OW19704   4.748   0.249   4.675
 6553SOL    HW119705   4.726   0.202   4.590
 6553SOL    HW219706   4.739   0.185   4.751
 6554SOL     OW19707   4.329   1.486   4.204
 6554SOL    HW119708   4.380   1.432   4.137
 6554SOL    HW219709   4.255   1.535   4.157
 6555SOL     OW19710   5.457   0.392   5.099
 6555SOL    HW119711   5.526   0.465   5.105
 6555SOL    HW219712   5.493   0.315   5.047
 6556SOL     OW19713   3.977   1.348   4.012
 6556SOL    HW119714   3.881   1.341   3.985
 6556SOL    HW219715   3.983   1.386   4.104
 6557SOL     OW19716   3.838   1.034   5.452
 6557SOL    HW119717   3.757   1.007   5.502
 6557SOL    HW219718   3.919   0.989   5.491
 6558SOL     OW19719   4.393   0.237   5.232
 6558SOL    HW119720   4.474   0.211   5.180
 6558SOL    HW219721   4.421   0.270   5.323
 6559SOL     OW19722   3.800   0.334   3.758
 6559SOL    HW119723   3.704   0.311   3.741
 6559SOL    HW219724   3.825   0.414   3.704
 6560SOL     OW19725   5.148   0.858   5.119
 6560SOL    HW119726   5.092   0.921   5.066
 6560SOL    HW219727   5.242   0.859   5.085
 6561SOL     OW19728   3.796   0.178   4.041
 6561SOL    HW119729   3.799   0.249   3.970
 6561SOL    HW219730   3.848   0.098   4.011
 6562SOL     OW19731   4.904   1.337   3.845
 6562SOL    HW119732   4.809   1.308   3.838
 6562SOL    HW219733   4.932   1.339   3.941
 6563SOL     OW19734   4.348   0.830   5.157
 6563SOL    HW119735   4.404   0.911   5.143
 6563SOL    HW219736   4.406   0.750   5.168
 6564SOL     OW19737   5.209   1.788   4.712
 6564SOL    HW119738   5.230   1.850   4.636
 6564SOL    HW219739   5.294   1.754   4.752
 6565SOL     OW19740   4.444   0.558   5.430
 6565SOL    HW119741   4.489   0.629   5.486
 6565SOL    HW219742   4.465   0.468   5.468
 6566SOL     OW19743   5.198   1.196   5.358
 6566SOL    HW119744   5.182   1.209   5.456
 6566SOL    HW219745   5.293   1.215   5.337
 6567SOL     OW19746   4.095   1.738   5.291
 6567SOL    HW119747   4.011   1.790   5.276
 6567SOL    HW219748   4.073   1.650   5.333
 6568SOL     OW19749   5.390   0.879   4.980
 6568SOL    HW119750   5.385   0.788   4.939
 6568SOL    HW219751   5.377   0.948   4.909
 6569SOL     OW19752   4.948   0.318   4.180
 6569SOL    HW119753   5.018   0.247   4.172
 6569SOL    HW219754   4.968   0.375   4.260
 6570SOL     OW19755   4.312   0.737   4.391
 6570SOL    HW119756   4.352   0.828   4.380
 6570SOL    HW219757   4.242   0.723   4.321
 6571SOL     OW19758   5.474   0.369   5.371
 6571SOL    HW119759   5.464   0.384   5.273
 6571SOL    HW219760   5.401   0.308   5.403
 6572SOL     OW19761   5.476   0.932   5.234
 6572SOL    HW119762   5.464   1.029   5.255
 6572SOL    HW219763   5.455   0.917   5.137
 6573SOL     OW19764   4.591   1.364   3.767
 6573SOL    HW119765   4.549   1.388   3.855
 6573SOL    HW219766   4.605   1.447   3.714
 6574SOL     OW19767   4.389   1.785   4.666
 6574SOL    HW119768   4.365   1.880   4.645
 6574SOL    HW219769   4.487   1.772   4.655
 6575SOL     OW19770   4.593   0.970   4.580
 6575SOL    HW119771   4.644   0.893   4.617
 6575SOL    HW219772   4.550   1.021   4.655
 6576SOL     OW19773   4.802   0.989   3.808
 6576SOL    HW119774   4.774   1.043   3.728
 6576SOL    HW219775   4.879   0.931   3.783
 6577SOL     OW19776   5.570   1.556   4.571
 6577SOL    HW119777   5.493   1.544   4.508
 6577SOL    HW219778   5.565   1.487   4.643
 6578SOL     OW19779   3.955   1.299   5.581
 6578SOL    HW119780   3.889   1.232   5.547
 6578SOL    HW219781   3.941   1.313   5.679
 6579SOL     OW19782   3.811   1.230   4.387
 6579SOL    HW119783   3.816   1.184   4.476
 6579SOL    HW219784   3.879   1.190   4.326
 6580SOL     OW19785   4.406   1.409   5.357
 6580SOL    HW119786   4.326   1.359   5.389
 6580SOL    HW219787   4.405   1.502   5.394
 6581SOL     OW19788   5.576   0.183   4.970
 6581SOL    HW119789   5.496   0.123   4.966
 6581SOL    HW219790   5.604   0.208   4.878
 6582SOL     OW19791   4.154   0.426   4.248
 6582SOL    HW119792   4.189   0.355   4.187
 6582SOL    HW219793   4.101   0.384   4.321
 6583SOL     OW19794   5.417   1.482   4.818
 6583SOL    HW119795   5.336   1.465   4.762
 6583SOL    HW219796   5.426   1.412   4.888
 6584SOL     OW19797   4.058   0.558   5.012
 6584SOL    HW119798   4.115   0.501   5.070
 6584SOL    HW219799   4.076   0.536   4.916
 6585SOL     OW19800   4.553   1.580   4.402
 6585SOL    HW119801   4.539   1.641   4.325
 6585SOL    HW219802   4.476   1.516   4.409
 6586SOL     OW19803   5.137   0.216   4.853
 6586SOL    HW119804   5.219   0.172   4.891
 6586SOL    HW219805   5.089   0.265   4.926
 6587SOL     OW19806   4.701   0.055   4.861
 6587SOL    HW119807   4.644   6.992   4.809
 6587SOL    HW219808   4.756   0.005   4.927
 6588SOL     OW19809   4.498   1.332   4.045
 6588SOL    HW119810   4.470   1.236   4.053
 6588SOL    HW219811   4.583   1.346   4.096
 6589SOL     OW19812   4.347   1.559   5.014
 6589SOL    HW119813   4.345   1.646   5.063
 6589SOL    HW219814   4.438   1.546   4.973
 6590SOL     OW19815   5.046   0.015   3.916
 6590SOL    HW119816   5.093   6.948   3.860
 6590SOL    HW219817   4.969   6.972   3.963
 6591SOL     OW19818   4.993   0.454   4.411
 6591SOL    HW119819   4.948   0.544   4.408
 6591SOL    HW219820   5.011   0.430   4.506
 6592SOL     OW19821   5.343   0.257   4.639
 6592SOL    HW119822   5.254   0.237   4.680
 6592SOL    HW219823   5.331   0.321   4.563
 6593SOL     OW19824   3.767   1.064   4.032
 6593SOL    HW119825   3.865   1.064   4.012
 6593SOL    HW219826   3.737   0.971   4.054
 6594SOL     OW19827   4.608   1.662   4.064
 6594SOL    HW119828   4.533   1.641   4.001
 6594SOL    HW219829   4.582   1.740   4.122
 6595SOL     OW19830   3.944   0.620   5.714
 6595SOL    HW119831   3.855   0.619   5.758
 6595SOL    HW219832   3.933   0.599   5.616
 6596SOL     OW19833   3.940   0.308   6.586
 6596SOL    HW119834   3.982   0.265   6.666
 6596SOL    HW219835   3.860   0.255   6.559
 6597SOL     OW19836   3.734   0.395   6.213
 6597SOL    HW119837   3.645   0.415   6.255
 6597SOL    HW219838   3.724   0.322   6.146
 6598SOL     OW19839   4.283   1.281   6.755
 6598SOL    HW119840   4.195   1.302   6.713
 6598SOL    HW219841   4.312   1.359   6.811
 6599SOL     OW19842   5.288   1.512   6.294
 6599SOL    HW119843   5.244   1.490   6.381
 6599SOL    HW219844   5.219   1.521   6.222
 6600SOL     OW19845   4.857   0.702   6.282
 6600SOL    HW119846   4.909   0.786   6.266
 6600SOL    HW219847   4.805   0.711   6.366
 6601SOL     OW19848   5.494   0.601   5.808
 6601SOL    HW119849   5.471   0.598   5.710
 6601SOL    HW219850   5.455   0.521   5.854
 6602SOL     OW19851   4.482   1.144   6.629
 6602SOL    HW119852   4.407   1.170   6.690
 6602SOL    HW219853   4.515   1.224   6.580
 6603SOL     OW19854   4.408   1.000   6.235
 6603SOL    HW119855   4.478   0.989   6.304
 6603SOL    HW219856   4.333   1.055   6.271
 6604SOL     OW19857   4.056   1.412   6.649
 6604SOL    HW119858   3.971   1.379   6.607
 6604SOL    HW219859   4.103   1.474   6.586
 6605SOL     OW19860   5.342   0.460   6.314
 6605SOL    HW119861   5.279   0.487   6.240
 6605SOL    HW219862   5.343   0.530   6.384
 6606SOL     OW19863   3.946   1.714   6.057
 6606SOL    HW119864   3.964   1.793   6.116
 6606SOL    HW219865   4.021   1.704   5.992
 6607SOL     OW19866   3.957   1.443   6.122
 6607SOL    HW119867   3.941   1.542   6.122
 6607SOL    HW219868   3.897   1.400   6.190
 6608SOL     OW19869   3.991   1.091   6.486
 6608SOL    HW119870   3.988   0.997   6.521
 6608SOL    HW219871   3.932   1.149   6.542
 6609SOL     OW19872   4.338   1.805   6.988
 6609SOL    HW119873   4.249   1.777   0.023
 6609SOL    HW219874   4.360   1.897   0.022
 6610SOL     OW19875   4.306   0.987   5.727
 6610SOL    HW119876   4.353   1.034   5.652
 6610SOL    HW219877   4.346   1.015   5.814
 6611SOL     OW19878   3.838   0.662   6.150
 6611SOL    HW119879   3.811   0.567   6.167
 6611SOL    HW219880   3.833   0.714   6.235
 6612SOL     OW19881   5.570   1.755   5.918
 6612SOL    HW119882   5.639   1.725   5.984
 6612SOL    HW219883   5.586   1.851   5.895
 6613SOL     OW19884   3.753   1.590   5.709
 6613SOL    HW119885   3.737   1.494   5.728
 6613SOL    HW219886   3.732   1.644   5.791
 6614SOL     OW19887   5.413   0.919   6.231
 6614SOL    HW119888   5.499   0.870   6.217
 6614SOL    HW219889   5.392   0.973   6.150
 6615SOL     OW19890   5.377   1.105   6.018
 6615SOL    HW119891   5.466   1.102   5.972
 6615SOL    HW219892   5.380   1.171   6.092
 6616SOL     OW19893   4.336   1.390   6.320
 6616SOL    HW119894   4.289   1.303   6.333
 6616SOL    HW219895   4.322   1.421   6.226
 6617SOL     OW19896   4.547   0.028   6.103
 6617SOL    HW119897   4.587   0.118   6.084
 6617SOL    HW219898   4.447   0.036   6.107
 6618SOL     OW19899   3.917   0.978   6.846
 6618SOL    HW119900   4.000   0.924   6.831
 6618SOL    HW219901   3.837   0.923   6.822
 6619SOL     OW19902   5.256   1.000   5.790
 6619SOL    HW119903   5.182   0.940   5.820
 6619SOL    HW219904   5.303   1.038   5.870
 6620SOL     OW19905   5.176   1.423   6.531
 6620SOL    HW119906   5.118   1.437   6.612
 6620SOL    HW219907   5.173   1.327   6.505
 6621SOL     OW19908   5.373   1.750   6.161
 6621SOL    HW119909   5.355   1.719   6.068
 6621SOL    HW219910   5.354   1.675   6.225
 6622SOL     OW19911   4.317   0.719   5.858
 6622SOL    HW119912   4.322   0.805   5.807
 6622SOL    HW219913   4.248   0.727   5.930
 6623SOL     OW19914   5.006   0.365   6.537
 6623SOL    HW119915   4.909   0.341   6.537
 6623SOL    HW219916   5.054   0.314   6.609
 6624SOL     OW19917   5.307   1.672   5.894
 6624SOL    HW119918   5.403   1.700   5.891
 6624SOL    HW219919   5.274   1.655   5.801
 6625SOL     OW19920   4.519   0.622   0.042
 6625SOL    HW119921   4.459   0.654   0.115
 6625SOL    HW219922   4.468   0.562   6.980
 6626SOL     OW19923   4.729   0.390   6.794
 6626SOL    HW119924   4.680   0.448   6.859
 6626SOL    HW219925   4.664   0.353   6.728
 6627SOL     OW19926   4.775   0.699   6.011
 6627SOL    HW119927   4.796   0.694   6.109
 6627SOL    HW219928   4.688   0.652   5.993
 6628SOL     OW19929   3.813   0.828   6.366
 6628SOL    HW119930   3.898   0.816   6.417
 6628SOL    HW219931   3.764   0.907   6.403
 6629SOL     OW19932   3.883   1.852   0.149
 6629SOL    HW119933   3.842   1.778   0.203
 6629SOL    HW219934   3.826   1.868   0.068
 6630SOL     OW19935   4.614   0.355   5.786
 6630SOL    HW119936   4.660   0.416   5.722
 6630SOL    HW219937   4.589   0.270   5.740
 6631SOL     OW19938   5.103   1.142   6.119
 6631SOL    HW119939   5.188   1.128   6.069
 6631SOL    HW219940   5.047   1.210   6.071
 6632SOL     OW19941   4.229   0.198   6.500
 6632SOL    HW119942   4.274   0.242   6.577
 6632SOL    HW219943   4.249   0.249   6.416
 6633SOL     OW19944   4.719   1.443   6.050
 6633SOL    HW119945   4.687   1.523   5.999
 6633SOL    HW219946   4.702   1.456   6.147
 6634SOL     OW19947   4.079   1.814   6.454
 6634SOL    HW119948   4.122   1.724   6.464
 6634SOL    HW219949   4.147   1.885   6.474
 6635SOL     OW19950   5.524   1.056   6.453
 6635SOL    HW119951   5.473   1.033   6.370
 6635SOL    HW219952   5.462   1.057   6.531
 6636SOL     OW19953   4.045   0.959   5.840
 6636SOL    HW119954   4.133   0.979   5.797
 6636SOL    HW219955   4.009   0.873   5.803
 6637SOL     OW19956   5.207   0.749   6.308
 6637SOL    HW119957   5.199   0.705   6.397
 6637SOL    HW219958   5.286   0.809   6.307
 6638SOL     OW19959   4.846   1.776   5.812
 6638SOL    HW119960   4.767   1.738   5.861
 6638SOL    HW219961   4.875   1.712   5.742
 6639SOL     OW19962   5.349   1.382   5.674
 6639SOL    HW119963   5.310   1.473   5.658
 6639SOL    HW219964   5.279   1.312   5.655
 6640SOL     OW19965   4.189   1.735   5.904
 6640SOL    HW119966   4.230   1.797   5.971
 6640SOL    HW219967   4.260   1.699   5.844
 6641SOL     OW19968   5.149   0.132   6.010
 6641SOL    HW119969   5.129   0.088   5.923
 6641SOL    HW219970   5.248   0.138   6.022
 6642SOL     OW19971   3.993   1.798   6.819
 6642SOL    HW119972   4.042   1.739   6.883
 6642SOL    HW219973   3.951   1.743   6.747
 6643SOL     OW19974   4.660   1.700   6.481
 6643SOL    HW119975   4.745   1.655   6.509
 6643SOL    HW219976   4.618   1.649   6.407
 6644SOL     OW19977   4.119   0.687   6.061
 6644SOL    HW119978   4.139   0.590   6.074
 6644SOL    HW219979   4.022   0.703   6.079
 6645SOL     OW19980   4.369   0.111   5.688
 6645SOL    HW119981   4.408   0.036   5.742
 6645SOL    HW219982   4.306   0.073   5.620
 6646SOL     OW19983   4.593   1.518   6.762
 6646SOL    HW119984   4.575   1.484   6.670
 6646SOL    HW219985   4.632   1.445   6.818
 6647SOL     OW19986   4.543   1.389   6.520
 6647SOL    HW119987   4.633   1.378   6.478
 6647SOL    HW219988   4.473   1.394   6.449
 6648SOL     OW19989   4.652   0.510   6.482
 6648SOL    HW119990   4.623   0.505   6.387
 6648SOL    HW219991   4.690   0.421   6.510
 6649SOL     OW19992   4.279   0.067   6.081
 6649SOL    HW119993   4.197   0.056   6.138
 6649SOL    HW219994   4.265   0.142   6.017
 6650SOL     OW19995   5.149   1.199   5.629
 6650SOL    HW119996   5.183   1.121   5.682
 6650SOL    HW219997   5.061   1.228   5.665
 6651SOL     OW19998   4.035   0.048   5.772
 6651SOL    HW119999   4.075   0.140   5.769
 6651SOL    HW220000   4.088   6.991   5.835
 6652SOL     OW20001   4.673   0.266   6.043
 6652SOL    HW120002   4.643   0.301   5.954
 6652SOL    HW220003   4.772   0.273   6.050
 6653SOL     OW20004   4.943   1.570   6.381
 6653SOL    HW120005   4.957   1.641   6.312
 6653SOL    HW220006   5.021   1.569   6.444
 6654SOL     OW20007   4.192   1.151   6.315
 6654SOL    HW120008   4.125   1.132   6.386
 6654SOL    HW220009   4.150   1.138   6.225
 6655SOL     OW20010   4.986   1.791   6.196
 6655SOL    HW120011   5.039   1.854   6.138
 6655SOL    HW220012   4.913   1.842   6.241
 6656SOL     OW20013   4.742   0.536   5.618
 6656SOL    HW120014   4.698   0.623   5.595
 6656SOL    HW220015   4.813   0.553   5.687
 6657SOL     OW20016   4.301   0.220   6.776
 6657SOL    HW120017   4.322   0.127   6.746
 6657SOL    HW220018   4.204   0.227   6.798
 6658SOL     OW20019   4.589   0.466   6.222
 6658SOL    HW120020   4.539   0.526   6.159
 6658SOL    HW220021   4.617   0.383   6.174
 6659SOL     OW20022   4.680   0.031   6.349
 6659SOL    HW120023   4.625   0.028   6.265
 6659SOL    HW220024   4.750   6.960   6.346
 6660SOL     OW20025   5.164   1.160   6.442
 6660SOL    HW120026   5.094   1.088   6.444
 6660SOL    HW220027   5.195   1.174   6.348
 6661SOL     OW20028   5.189   0.606   6.551
 6661SOL    HW120029   5.128   0.526   6.557
 6661SOL    HW220030   5.254   0.604   6.626
 6662SOL     OW20031   5.566   0.809   5.966
 6662SOL    HW120032   5.624   0.762   6.032
 6662SOL    HW220033   5.537   0.745   5.895
 6663SOL     OW20034   4.211   1.421   5.741
 6663SOL    HW120035   4.131   1.394   5.795
 6663SOL    HW220036   4.209   1.375   5.652
 6664SOL     OW20037   5.398   1.267   6.229
 6664SOL    HW120038   5.498   1.263   6.242
 6664SOL    HW220039   5.365   1.359   6.250
 6665SOL     OW20040   5.115   0.575   5.657
 6665SOL    HW120041   5.051   0.552   5.731
 6665SOL    HW220042   5.209   0.560   5.688
 6666SOL     OW20043   4.246   0.263   5.889
 6666SOL    HW120044   4.304   0.213   5.824
 6666SOL    HW220045   4.222   0.352   5.852
 6667SOL     OW20046   5.482   1.178   0.170
 6667SOL    HW120047   5.580   1.165   0.153
 6667SOL    HW220048   5.456   1.271   0.144
 6668SOL     OW20049   4.843   1.238   6.694
 6668SOL    HW120050   4.759   1.197   6.730
 6668SOL    HW220051   4.829   1.262   6.598
 6669SOL     OW20052   5.343   1.084   6.650
 6669SOL    HW120053   5.344   1.154   6.721
 6669SOL    HW220054   5.268   1.101   6.586
 6670SOL     OW20055   4.437   1.059   5.959
 6670SOL    HW120056   4.419   1.042   6.056
 6670SOL    HW220057   4.516   1.005   5.929
 6671SOL     OW20058   4.149   0.815   6.847
 6671SOL    HW120059   4.207   0.839   6.925
 6671SOL    HW220060   4.112   0.722   6.860
 6672SOL     OW20061   4.988   0.384   6.872
 6672SOL    HW120062   5.018   0.462   6.927
 6672SOL    HW220063   4.896   0.401   6.838
 6673SOL     OW20064   3.814   1.561   6.859
 6673SOL    HW120065   3.752   1.635   6.883
 6673SOL    HW220066   3.890   1.559   6.923
 6674SOL     OW20067   4.066   1.118   6.073
 6674SOL    HW120068   4.071   1.200   6.016
 6674SOL    HW220069   4.064   1.037   6.014
 6675SOL     OW20070   4.275   0.547   6.447
 6675SOL    HW120071   4.288   0.605   6.367
 6675SOL    HW220072   4.346   0.567   6.515
 6676SOL     OW20073   4.970   1.355   5.978
 6676SOL    HW120074   5.031   1.427   6.009
 6676SOL    HW220075   4.877   1.374   6.008
 6677SOL     OW20076   5.005   1.450   6.747
 6677SOL    HW120077   5.041   1.440   6.840
 6677SOL    HW220078   4.944   1.374   6.726
 6678SOL     OW20079   5.296   0.624   6.069
 6678SOL    HW120080   5.249   0.676   6.139
 6678SOL    HW220081   5.348   0.685   6.011
 6679SOL     OW20082   4.091   1.496   6.905
 6679SOL    HW120083   4.059   1.459   6.817
 6679SOL    HW220084   4.186   1.527   6.895
 6680SOL     OW20085   4.309   0.870   6.623
 6680SOL    HW120086   4.341   0.965   6.617
 6680SOL    HW220087   4.248   0.861   6.702
 6681SOL     OW20088   5.071   0.856   6.595
 6681SOL    HW120089   4.980   0.841   6.556
 6681SOL    HW220090   5.123   0.771   6.592
 6682SOL     OW20091   4.922   0.527   5.850
 6682SOL    HW120092   4.935   0.444   5.905
 6682SOL    HW220093   4.877   0.597   5.905
 6683SOL     OW20094   4.036   0.209   6.834
 6683SOL    HW120095   3.978   0.210   6.915
 6683SOL    HW220096   4.033   0.119   6.792
 6684SOL     OW20097   3.751   1.301   6.869
 6684SOL    HW120098   3.804   1.253   6.938
 6684SOL    HW220099   3.778   1.397   6.866
 6685SOL     OW20100   4.450   0.628   6.641
 6685SOL    HW120101   4.528   0.609   6.581
 6685SOL    HW220102   4.417   0.721   6.624
 6686SOL     OW20103   4.046   0.059   6.219
 6686SOL    HW120104   4.021   0.153   6.244
 6686SOL    HW220105   3.991   6.995   6.272
 6687SOL     OW20106   5.351   0.393   5.930
 6687SOL    HW120107   5.379   0.315   5.985
 6687SOL    HW220108   5.319   0.467   5.990
 6688SOL     OW20109   4.747   0.757   6.550
 6688SOL    HW120110   4.741   0.777   6.648
 6688SOL    HW220111   4.721   0.662   6.534
 6689SOL     OW20112   5.264   0.234   5.721
 6689SOL    HW120113   5.164   0.230   5.730
 6689SOL    HW220114   5.301   0.293   5.793
 6690SOL     OW20115   5.012   0.826   5.612
 6690SOL    HW120116   5.052   0.735   5.620
 6690SOL    HW220117   5.044   0.869   5.527
 6691SOL     OW20118   4.796   1.337   6.439
 6691SOL    HW120119   4.799   1.259   6.376
 6691SOL    HW220120   4.854   1.411   6.404
 6692SOL     OW20121   4.037   0.808   6.528
 6692SOL    HW120122   4.133   0.834   6.521
 6692SOL    HW220123   4.031   0.713   6.560
 6693SOL     OW20124   4.064   0.539   6.607
 6693SOL    HW120125   4.018   0.452   6.592
 6693SOL    HW220126   4.143   0.546   6.546
 6694SOL     OW20127   4.857   0.221   0.065
 6694SOL    HW120128   4.881   0.286   0.137
 6694SOL    HW220129   4.888   0.255   6.977
 6695SOL     OW20130   3.725   1.315   5.780
 6695SOL    HW120131   3.635   1.335   5.740
 6695SOL    HW220132   3.726   1.222   5.816
 6696SOL     OW20133   3.815   1.789   6.527
 6696SOL    HW120134   3.780   1.706   6.484
 6696SOL    HW220135   3.911   1.802   6.501
 6697SOL     OW20136   4.217   1.578   6.491
 6697SOL    HW120137   4.287   1.643   6.519
 6697SOL    HW220138   4.258   1.509   6.430
 6698SOL     OW20139   4.704   0.795   6.822
 6698SOL    HW120140   4.783   0.775   6.880
 6698SOL    HW220141   4.622   0.753   6.861
 6699SOL     OW20142   3.774   0.558   6.711
 6699SOL    HW120143   3.822   0.508   6.639
 6699SOL    HW220144   3.839   0.587   6.781
 6700SOL     OW20145   4.541   0.576   5.946
 6700SOL    HW120146   4.551   0.496   5.888
 6700SOL    HW220147   4.462   0.630   5.916
 6701SOL     OW20148   5.372   0.611   6.751
 6701SOL    HW120149   5.357   0.554   6.832
 6701SOL    HW220150   5.466   0.601   6.720
 6702SOL     OW20151   4.400   0.468   6.853
 6702SOL    HW120152   4.369   0.377   6.824
 6702SOL    HW220153   4.413   0.526   6.773
 6703SOL     OW20154   4.668   1.662   6.997
 6703SOL    HW120155   4.635   1.651   6.903
 6703SOL    HW220156   4.648   1.755   0.028
 6704SOL     OW20157   4.183   0.495   5.765
 6704SOL    HW120158   4.248   0.567   5.792
 6704SOL    HW220159   4.092   0.535   5.754
 6705SOL     OW20160   3.881   1.142   0.058
 6705SOL    HW120161   3.935   1.100   0.131
 6705SOL    HW220162   3.890   1.088   6.975
 6706SOL     OW20163   5.009   1.006   6.814
 6706SOL    HW120164   5.047   0.955   6.737
 6706SOL    HW220165   4.983   1.098   6.784
 6707SOL     OW20166   5.039   0.856   5.885
 6707SOL    HW120167   4.963   0.829   5.944
 6707SOL    HW220168   5.014   0.844   5.789
 6708SOL     OW20169   5.479   1.758   6.724
 6708SOL    HW120170   5.555   1.781   6.662
 6708SOL    HW220171   5.458   1.661   6.716
 6709SOL     OW20172   4.972   1.726   6.699
 6709SOL    HW120173   5.056   1.755   6.653
 6709SOL    HW220174   4.976   1.627   6.718
 6710SOL     OW20175   3.805   1.264   6.600
 6710SOL    HW120176   3.785   1.272   6.697
 6710SOL    HW220177   3.738   1.203   6.557
 6711SOL     OW20178   5.430   0.166   6.055
 6711SOL    HW120179   5.515   0.148   6.006
 6711SOL    HW220180   5.426   0.108   6.137
 6712SOL     OW20181   5.119   1.570   6.074
 6712SOL    HW120182   5.182   1.602   6.003
 6712SOL    HW220183   5.064   1.647   6.107
 6713SOL     OW20184   5.006   0.928   6.252
 6713SOL    HW120185   5.081   0.864   6.269
 6713SOL    HW220186   5.039   1.005   6.197
 6714SOL     OW20187   4.393   1.621   5.740
 6714SOL    HW120188   4.409   1.640   5.643
 6714SOL    HW220189   4.334   1.541   5.749
 6715SOL     OW20190   5.590   0.163   6.534
 6715SOL    HW120191   5.586   0.063   6.531
 6715SOL    HW220192   5.498   0.200   6.519
 6716SOL     OW20193   3.983   0.313   6.303
 6716SOL    HW120194   3.894   0.349   6.274
 6716SOL    HW220195   3.988   0.313   6.403
 6717SOL     OW20196   4.932   1.601   5.619
 6717SOL    HW120197   4.923   1.507   5.652
 6717SOL    HW220198   4.865   1.618   5.547
 6718SOL     OW20199   4.500   1.027   6.952
 6718SOL    HW120200   4.558   0.985   6.882
 6718SOL    HW220201   4.545   1.109   6.988
 6719SOL     OW20202   4.644   0.911   5.873
 6719SOL    HW120203   4.705   0.946   5.802
 6719SOL    HW220204   4.690   0.839   5.925
 6720SOL     OW20205   5.212   1.630   5.628
 6720SOL    HW120206   5.113   1.619   5.617
 6720SOL    HW220207   5.256   1.635   5.538
 6721SOL     OW20208   5.339   1.279   6.835
 6721SOL    HW120209   5.430   1.280   6.878
 6721SOL    HW220210   5.270   1.257   6.903
 6722SOL     OW20211   4.785   1.106   6.300
 6722SOL    HW120212   4.708   1.055   6.340
 6722SOL    HW220213   4.854   1.042   6.267
 6723SOL     OW20214   4.749   0.246   6.523
 6723SOL    HW120215   4.722   0.195   6.442
 6723SOL    HW220216   4.747   0.186   6.603
 6724SOL     OW20217   4.329   1.486   6.066
 6724SOL    HW120218   4.380   1.432   5.999
 6724SOL    HW220219   4.254   1.534   6.020
 6725SOL     OW20220   5.424   0.430   6.947
 6725SOL    HW120221   5.487   0.440   0.024
 6725SOL    HW220222   5.440   0.342   6.902
 6726SOL     OW20223   3.977   1.348   5.874
 6726SOL    HW120224   3.881   1.341   5.847
 6726SOL    HW220225   3.982   1.387   5.966
 6727SOL     OW20226   3.800   0.333   5.620
 6727SOL    HW120227   3.704   0.311   5.603
 6727SOL    HW220228   3.825   0.414   5.566
 6728SOL     OW20229   3.797   0.178   5.904
 6728SOL    HW120230   3.799   0.248   5.833
 6728SOL    HW220231   3.848   0.098   5.873
 6729SOL     OW20232   4.904   1.337   5.707
 6729SOL    HW120233   4.809   1.307   5.700
 6729SOL    HW220234   4.932   1.339   5.803
 6730SOL     OW20235   5.215   1.784   6.579
 6730SOL    HW120236   5.229   1.846   6.501
 6730SOL    HW220237   5.304   1.765   6.622
 6731SOL     OW20238   5.217   1.293   0.283
 6731SOL    HW120239   5.125   1.288   0.322
 6731SOL    HW220240   5.249   1.201   0.261
 6732SOL     OW20241   4.110   1.727   0.089
 6732SOL    HW120242   4.031   1.781   0.117
 6732SOL    HW220243   4.103   1.635   0.128
 6733SOL     OW20244   5.422   0.878   6.829
 6733SOL    HW120245   5.391   0.788   6.800
 6733SOL    HW220246   5.388   0.948   6.766
 6734SOL     OW20247   4.948   0.319   6.042
 6734SOL    HW120248   5.018   0.247   6.035
 6734SOL    HW220249   4.967   0.375   6.122
 6735SOL     OW20250   4.311   0.738   6.253
 6735SOL    HW120251   4.352   0.828   6.242
 6735SOL    HW220252   4.241   0.724   6.183
 6736SOL     OW20253   5.491   0.904   0.094
 6736SOL    HW120254   5.482   1.000   0.121
 6736SOL    HW220255   5.467   0.894   6.998
 6737SOL     OW20256   4.590   1.364   5.629
 6737SOL    HW120257   4.549   1.388   5.717
 6737SOL    HW220258   4.605   1.447   5.576
 6738SOL     OW20259   4.391   1.786   6.533
 6738SOL    HW120260   4.366   1.879   6.507
 6738SOL    HW220261   4.489   1.772   6.519
 6739SOL     OW20262   4.593   0.970   6.442
 6739SOL    HW120263   4.643   0.892   6.480
 6739SOL    HW220264   4.553   1.023   6.517
 6740SOL     OW20265   4.802   0.989   5.670
 6740SOL    HW120266   4.774   1.043   5.590
 6740SOL    HW220267   4.879   0.931   5.645
 6741SOL     OW20268   5.574   1.557   6.432
 6741SOL    HW120269   5.493   1.544   6.373
 6741SOL    HW220270   5.569   1.495   6.510
 6742SOL     OW20271   3.811   1.229   6.249
 6742SOL    HW120272   3.814   1.182   6.338
 6742SOL    HW220273   3.880   1.189   6.189
 6743SOL     OW20274   5.574   0.189   6.848
 6743SOL    HW120275   5.502   0.121   6.864
 6743SOL    HW220276   5.582   0.208   6.751
 6744SOL     OW20277   4.154   0.426   6.111
 6744SOL    HW120278   4.189   0.355   6.049
 6744SOL    HW220279   4.100   0.383   6.183
 6745SOL     OW20280   5.402   1.502   6.676
 6745SOL    HW120281   5.325   1.482   6.616
 6745SOL    HW220282   5.413   1.428   6.742
 6746SOL     OW20283   4.037   0.551   6.880
 6746SOL    HW120284   4.106   0.498   6.928
 6746SOL    HW220285   4.051   0.542   6.781
 6747SOL     OW20286   4.553   1.579   6.263
 6747SOL    HW120287   4.540   1.642   6.186
 6747SOL    HW220288   4.475   1.516   6.268
 6748SOL     OW20289   5.135   0.214   6.720
 6748SOL    HW120290   5.223   0.181   6.753
 6748SOL    HW220291   5.091   0.268   6.792
 6749SOL     OW20292   4.719   0.051   6.710
 6749SOL    HW120293   4.636   6.997   6.694
 6749SOL    HW220294   4.763   0.020   6.795
 6750SOL     OW20295   4.498   1.332   5.906
 6750SOL    HW120296   4.470   1.236   5.915
 6750SOL    HW220297   4.583   1.346   5.958
 6751SOL     OW20298   4.348   1.565   6.865
 6751SOL    HW120299   4.345   1.660   6.895
 6751SOL    HW220300   4.435   1.547   6.819
 6752SOL     OW20301   5.046   0.016   5.777
 6752SOL    HW120302   5.093   6.947   5.721
 6752SOL    HW220303   4.970   6.973   5.826
 6753SOL     OW20304   4.993   0.454   6.274
 6753SOL    HW120305   4.948   0.543   6.272
 6753SOL    HW220306   5.011   0.428   6.369
 6754SOL     OW20307   5.341   0.260   6.498
 6754SOL    HW120308   5.250   0.238   6.533
 6754SOL    HW220309   5.332   0.324   6.421
 6755SOL     OW20310   3.767   1.064   5.893
 6755SOL    HW120311   3.865   1.064   5.874
 6755SOL    HW220312   3.737   0.971   5.915
 6756SOL     OW20313   4.608   1.662   5.926
 6756SOL    HW120314   4.533   1.641   5.863
 6756SOL    HW220315   4.582   1.740   5.984
 6757SOL     OW20316   3.944   2.499   0.136
 6757SOL    HW120317   3.848   2.483   0.161
 6757SOL    HW220318   3.957   2.480   0.039
 6758SOL     OW20319   3.946   2.144   0.994
 6758SOL    HW120320   3.979   2.110   1.082
 6758SOL    HW220321   3.853   2.112   0.978
 6759SOL     OW20322   3.724   2.250   0.637
 6759SOL    HW120323   3.643   2.284   0.684
 6759SOL    HW220324   3.703   2.163   0.592
 6760SOL     OW20325   4.293   3.159   1.185
 6760SOL    HW120326   4.203   3.155   1.142
 6760SOL    HW220327   4.310   3.251   1.219
 6761SOL     OW20328   5.288   3.375   0.708
 6761SOL    HW120329   5.246   3.350   0.796
 6761SOL    HW220330   5.218   3.378   0.638
 6762SOL     OW20331   4.856   2.563   0.696
 6762SOL    HW120332   4.909   2.646   0.680
 6762SOL    HW220333   4.806   2.572   0.782
 6763SOL     OW20334   5.509   2.441   0.200
 6763SOL    HW120335   5.443   2.491   0.144
 6763SOL    HW220336   5.460   2.379   0.261
 6764SOL     OW20337   4.468   3.003   1.041
 6764SOL    HW120338   4.400   3.037   1.105
 6764SOL    HW220339   4.512   3.079   0.994
 6765SOL     OW20340   4.598   2.626   1.821
 6765SOL    HW120341   4.586   2.694   1.893
 6765SOL    HW220342   4.622   2.672   1.735
 6766SOL     OW20343   4.407   2.858   0.650
 6766SOL    HW120344   4.478   2.850   0.720
 6766SOL    HW220345   4.333   2.916   0.686
 6767SOL     OW20346   4.435   3.015   1.818
 6767SOL    HW120347   4.487   3.094   1.851
 6767SOL    HW220348   4.350   3.047   1.776
 6768SOL     OW20349   4.050   3.285   1.066
 6768SOL    HW120350   3.974   3.240   1.019
 6768SOL    HW220351   4.103   3.338   0.999
 6769SOL     OW20352   5.182   3.364   1.358
 6769SOL    HW120353   5.240   3.445   1.365
 6769SOL    HW220354   5.111   3.366   1.429
 6770SOL     OW20355   4.174   2.255   1.478
 6770SOL    HW120356   4.255   2.198   1.486
 6770SOL    HW220357   4.093   2.201   1.497
 6771SOL     OW20358   5.336   2.311   0.747
 6771SOL    HW120359   5.263   2.332   0.683
 6771SOL    HW220360   5.345   2.386   0.813
 6772SOL     OW20361   3.944   3.586   0.470
 6772SOL    HW120362   3.962   3.664   0.529
 6772SOL    HW220363   4.029   3.557   0.426
 6773SOL     OW20364   4.861   3.202   1.698
 6773SOL    HW120365   4.908   3.200   1.786
 6773SOL    HW220366   4.805   3.120   1.688
 6774SOL     OW20367   3.938   3.310   0.532
 6774SOL    HW120368   3.926   3.408   0.543
 6774SOL    HW220369   3.887   3.263   0.605
 6775SOL     OW20370   3.992   2.952   0.900
 6775SOL    HW120371   3.988   2.858   0.933
 6775SOL    HW220372   3.930   3.009   0.953
 6776SOL     OW20373   4.323   3.659   1.426
 6776SOL    HW120374   4.240   3.635   1.476
 6776SOL    HW220375   4.354   3.749   1.454
 6777SOL     OW20376   4.311   2.829   0.147
 6777SOL    HW120377   4.369   2.851   0.068
 6777SOL    HW220378   4.348   2.875   0.228
 6778SOL     OW20379   5.320   1.987   1.469
 6778SOL    HW120380   5.340   2.067   1.412
 6778SOL    HW220381   5.306   2.016   1.564
 6779SOL     OW20382   3.839   2.516   0.562
 6779SOL    HW120383   3.809   2.422   0.582
 6779SOL    HW220384   3.834   2.571   0.645
 6780SOL     OW20385   5.560   3.625   0.349
 6780SOL    HW120386   5.632   3.595   0.412
 6780SOL    HW220387   5.566   3.724   0.337
 6781SOL     OW20388   3.738   3.442   0.147
 6781SOL    HW120389   3.667   3.375   0.126
 6781SOL    HW220390   3.716   3.489   0.232
 6782SOL     OW20391   5.415   2.776   0.650
 6782SOL    HW120392   5.499   2.725   0.632
 6782SOL    HW220393   5.393   2.834   0.571
 6783SOL     OW20394   5.379   2.958   0.445
 6783SOL    HW120395   5.448   2.977   0.375
 6783SOL    HW220396   5.385   3.027   0.517
 6784SOL     OW20397   3.848   2.606   1.585
 6784SOL    HW120398   3.944   2.633   1.586
 6784SOL    HW220399   3.791   2.689   1.587
 6785SOL     OW20400   4.336   3.251   0.737
 6785SOL    HW120401   4.290   3.163   0.750
 6785SOL    HW220402   4.326   3.280   0.642
 6786SOL     OW20403   5.012   3.097   1.422
 6786SOL    HW120404   5.039   3.027   1.356
 6786SOL    HW220405   5.072   3.093   1.502
 6787SOL     OW20406   4.543   1.875   0.515
 6787SOL    HW120407   4.588   1.960   0.490
 6787SOL    HW220408   4.444   1.890   0.522
 6788SOL     OW20409   3.915   2.824   1.277
 6788SOL    HW120410   4.003   2.780   1.262
 6788SOL    HW220411   3.845   2.776   1.222
 6789SOL     OW20412   5.215   2.883   0.214
 6789SOL    HW120413   5.148   2.816   0.246
 6789SOL    HW220414   5.302   2.866   0.260
 6790SOL     OW20415   4.905   3.673   1.622
 6790SOL    HW120416   4.914   3.741   1.550
 6790SOL    HW220417   4.926   3.582   1.585
 6791SOL     OW20418   4.065   2.111   1.832
 6791SOL    HW120419   4.114   2.197   1.847
 6791SOL    HW220420   3.968   2.124   1.851
 6792SOL     OW20421   5.188   3.283   0.947
 6792SOL    HW120422   5.122   3.301   1.019
 6792SOL    HW220423   5.180   3.187   0.919
 6793SOL     OW20424   5.367   3.614   0.583
 6793SOL    HW120425   5.349   3.587   0.489
 6793SOL    HW220426   5.350   3.536   0.644
 6794SOL     OW20427   4.324   2.579   0.267
 6794SOL    HW120428   4.330   2.669   0.224
 6794SOL    HW220429   4.259   2.582   0.343
 6795SOL     OW20430   5.001   2.219   0.932
 6795SOL    HW120431   4.907   2.186   0.941
 6795SOL    HW220432   5.061   2.168   0.994
 6796SOL     OW20433   5.300   3.539   0.317
 6796SOL    HW120434   5.395   3.569   0.315
 6796SOL    HW220435   5.266   3.530   0.223
 6797SOL     OW20436   4.514   2.475   1.449
 6797SOL    HW120437   4.489   2.451   1.543
 6797SOL    HW220438   4.476   2.406   1.387
 6798SOL     OW20439   5.115   2.332   1.679
 6798SOL    HW120440   5.115   2.381   1.766
 6798SOL    HW220441   5.176   2.253   1.686
 6799SOL     OW20442   4.677   2.747   1.583
 6799SOL    HW120443   4.735   2.675   1.545
 6799SOL    HW220444   4.623   2.789   1.510
 6800SOL     OW20445   4.718   2.268   1.230
 6800SOL    HW120446   4.628   2.291   1.268
 6800SOL    HW220447   4.706   2.218   1.144
 6801SOL     OW20448   4.775   2.563   0.429
 6801SOL    HW120449   4.798   2.560   0.526
 6801SOL    HW220450   4.689   2.515   0.413
 6802SOL     OW20451   3.814   2.686   0.778
 6802SOL    HW120452   3.899   2.675   0.829
 6802SOL    HW220453   3.764   2.765   0.813
 6803SOL     OW20454   3.852   3.733   1.588
 6803SOL    HW120455   3.857   3.706   1.684
 6803SOL    HW220456   3.767   3.700   1.548
 6804SOL     OW20457   4.612   2.205   0.207
 6804SOL    HW120458   4.663   2.265   0.145
 6804SOL    HW220459   4.628   2.109   0.181
 6805SOL     OW20460   5.425   2.435   1.826
 6805SOL    HW120461   5.390   2.514   1.776
 6805SOL    HW220462   5.455   2.365   1.761
 6806SOL     OW20463   5.106   3.003   0.549
 6806SOL    HW120464   5.190   2.990   0.495
 6806SOL    HW220465   5.047   3.069   0.504
 6807SOL     OW20466   4.271   2.036   0.900
 6807SOL    HW120467   4.275   2.065   0.996
 6807SOL    HW220468   4.274   2.116   0.841
 6808SOL     OW20469   4.716   3.301   0.470
 6808SOL    HW120470   4.684   3.382   0.420
 6808SOL    HW220471   4.697   3.312   0.567
 6809SOL     OW20472   4.080   3.676   0.869
 6809SOL    HW120473   4.124   3.586   0.876
 6809SOL    HW220474   4.147   3.747   0.889
 6810SOL     OW20475   5.524   2.916   0.874
 6810SOL    HW120476   5.473   2.895   0.790
 6810SOL    HW220477   5.460   2.923   0.951
 6811SOL     OW20478   4.950   3.398   1.514
 6811SOL    HW120479   4.938   3.324   1.581
 6811SOL    HW220480   4.883   3.389   1.441
 6812SOL     OW20481   4.039   2.822   0.229
 6812SOL    HW120482   4.132   2.835   0.194
 6812SOL    HW220483   4.010   2.728   0.210
 6813SOL     OW20484   5.208   2.607   0.723
 6813SOL    HW120485   5.203   2.567   0.814
 6813SOL    HW220486   5.287   2.668   0.718
 6814SOL     OW20487   4.192   3.127   1.731
 6814SOL    HW120488   4.166   3.133   1.635
 6814SOL    HW220489   4.110   3.124   1.788
 6815SOL     OW20490   4.844   3.628   0.242
 6815SOL    HW120491   4.771   3.582   0.293
 6815SOL    HW220492   4.881   3.565   0.173
 6816SOL     OW20493   3.926   2.137   1.502
 6816SOL    HW120494   3.844   2.194   1.499
 6816SOL    HW220495   3.905   2.050   1.547
 6817SOL     OW20496   5.370   3.292   0.103
 6817SOL    HW120497   5.322   3.374   0.071
 6817SOL    HW220498   5.307   3.235   0.156
 6818SOL     OW20499   4.208   3.561   0.378
 6818SOL    HW120500   4.237   3.646   0.422
 6818SOL    HW220501   4.267   3.543   0.299
 6819SOL     OW20502   3.982   3.654   1.226
 6819SOL    HW120503   4.033   3.582   1.273
 6819SOL    HW220504   3.964   3.625   1.132
 6820SOL     OW20505   4.660   3.564   0.897
 6820SOL    HW120506   4.743   3.517   0.927
 6820SOL    HW220507   4.617   3.512   0.823
 6821SOL     OW20508   4.121   2.549   0.469
 6821SOL    HW120509   4.141   2.453   0.488
 6821SOL    HW220510   4.025   2.568   0.488
 6822SOL     OW20511   5.252   2.085   1.728
 6822SOL    HW120512   5.263   2.106   1.825
 6822SOL    HW220513   5.180   2.017   1.716
 6823SOL     OW20514   4.487   2.138   1.757
 6823SOL    HW120515   4.572   2.085   1.751
 6823SOL    HW220516   4.436   2.110   1.838
 6824SOL     OW20517   4.598   3.377   1.193
 6824SOL    HW120518   4.579   3.341   1.101
 6824SOL    HW220519   4.671   3.323   1.235
 6825SOL     OW20520   5.064   2.451   1.435
 6825SOL    HW120521   5.094   2.416   1.524
 6825SOL    HW220522   5.099   2.543   1.422
 6826SOL     OW20523   4.543   3.251   0.942
 6826SOL    HW120524   4.633   3.240   0.899
 6826SOL    HW220525   4.473   3.257   0.870
 6827SOL     OW20526   4.651   2.369   0.899
 6827SOL    HW120527   4.624   2.361   0.803
 6827SOL    HW220528   4.683   2.280   0.932
 6828SOL     OW20529   4.273   1.934   0.503
 6828SOL    HW120530   4.190   1.930   0.558
 6828SOL    HW220531   4.269   2.012   0.441
 6829SOL     OW20532   5.145   3.075   0.012
 6829SOL    HW120533   5.174   2.994   0.064
 6829SOL    HW220534   5.062   3.113   0.054
 6830SOL     OW20535   4.673   2.112   0.461
 6830SOL    HW120536   4.640   2.152   0.376
 6830SOL    HW220537   4.771   2.127   0.469
 6831SOL     OW20538   4.804   2.545   1.455
 6831SOL    HW120539   4.729   2.479   1.461
 6831SOL    HW220540   4.891   2.496   1.451
 6832SOL     OW20541   4.943   3.429   0.796
 6832SOL    HW120542   4.956   3.499   0.726
 6832SOL    HW220543   5.016   3.436   0.864
 6833SOL     OW20544   4.195   3.014   0.731
 6833SOL    HW120545   4.124   2.993   0.799
 6833SOL    HW220546   4.156   3.006   0.639
 6834SOL     OW20547   4.981   3.647   0.611
 6834SOL    HW120548   5.037   3.710   0.558
 6834SOL    HW220549   4.908   3.698   0.657
 6835SOL     OW20550   4.786   2.441   0.031
 6835SOL    HW120551   4.690   2.465   0.050
 6835SOL    HW220552   4.835   2.429   0.117
 6836SOL     OW20553   3.810   2.419   1.391
 6836SOL    HW120554   3.905   2.415   1.359
 6836SOL    HW220555   3.802   2.490   1.461
 6837SOL     OW20556   4.282   2.086   1.172
 6837SOL    HW120557   4.332   2.010   1.214
 6837SOL    HW220558   4.187   2.084   1.201
 6838SOL     OW20559   4.590   2.319   0.639
 6838SOL    HW120560   4.546   2.382   0.575
 6838SOL    HW220561   4.617   2.236   0.590
 6839SOL     OW20562   4.743   1.911   0.742
 6839SOL    HW120563   4.678   1.912   0.665
 6839SOL    HW220564   4.718   1.838   0.805
 6840SOL     OW20565   5.170   3.023   0.860
 6840SOL    HW120566   5.094   2.958   0.861
 6840SOL    HW220567   5.203   3.034   0.766
 6841SOL     OW20568   5.192   2.470   0.972
 6841SOL    HW120569   5.130   2.391   0.971
 6841SOL    HW220570   5.253   2.464   1.050
 6842SOL     OW20571   5.553   2.667   0.391
 6842SOL    HW120572   5.613   2.607   0.442
 6842SOL    HW220573   5.546   2.636   0.296
 6843SOL     OW20574   4.198   3.287   0.153
 6843SOL    HW120575   4.138   3.238   0.216
 6843SOL    HW220576   4.159   3.284   0.060
 6844SOL     OW20577   5.397   3.127   0.652
 6844SOL    HW120578   5.496   3.125   0.661
 6844SOL    HW220579   5.364   3.221   0.667
 6845SOL     OW20580   5.114   2.415   0.067
 6845SOL    HW120581   5.054   2.413   0.146
 6845SOL    HW220582   5.178   2.337   0.071
 6846SOL     OW20583   4.238   2.127   0.312
 6846SOL    HW120584   4.250   2.060   0.239
 6846SOL    HW220585   4.215   2.216   0.273
 6847SOL     OW20586   5.477   3.103   1.561
 6847SOL    HW120587   5.566   3.061   1.548
 6847SOL    HW220588   5.488   3.196   1.595
 6848SOL     OW20589   4.777   3.212   1.336
 6848SOL    HW120590   4.696   3.182   1.386
 6848SOL    HW220591   4.859   3.172   1.378
 6849SOL     OW20592   5.337   3.491   1.657
 6849SOL    HW120593   5.322   3.527   1.564
 6849SOL    HW220594   5.423   3.440   1.659
 6850SOL     OW20595   4.861   3.081   1.105
 6850SOL    HW120596   4.801   3.116   1.177
 6850SOL    HW220597   4.827   3.112   1.016
 6851SOL     OW20598   5.348   2.958   1.079
 6851SOL    HW120599   5.343   3.024   1.155
 6851SOL    HW220600   5.273   2.975   1.016
 6852SOL     OW20601   4.647   1.956   1.391
 6852SOL    HW120602   4.669   1.934   1.296
 6852SOL    HW220603   4.727   2.000   1.434
 6853SOL     OW20604   4.703   2.977   1.721
 6853SOL    HW120605   4.609   2.996   1.748
 6853SOL    HW220606   4.705   2.894   1.665
 6854SOL     OW20607   4.437   2.919   0.376
 6854SOL    HW120608   4.419   2.903   0.472
 6854SOL    HW220609   4.517   2.866   0.348
 6855SOL     OW20610   4.146   2.677   1.254
 6855SOL    HW120611   4.219   2.690   1.321
 6855SOL    HW220612   4.107   2.585   1.265
 6856SOL     OW20613   4.986   2.238   1.280
 6856SOL    HW120614   5.023   2.317   1.329
 6856SOL    HW220615   4.891   2.256   1.255
 6857SOL     OW20616   3.799   3.434   1.353
 6857SOL    HW120617   3.763   3.504   1.292
 6857SOL    HW220618   3.898   3.432   1.348
 6858SOL     OW20619   4.090   2.982   0.484
 6858SOL    HW120620   4.068   3.059   0.424
 6858SOL    HW220621   4.087   2.897   0.432
 6859SOL     OW20622   4.272   2.405   0.861
 6859SOL    HW120623   4.287   2.464   0.781
 6859SOL    HW220624   4.341   2.425   0.931
 6860SOL     OW20625   4.968   3.207   0.406
 6860SOL    HW120626   5.026   3.283   0.436
 6860SOL    HW220627   4.873   3.224   0.433
 6861SOL     OW20628   5.011   3.324   1.148
 6861SOL    HW120629   5.070   3.330   1.228
 6861SOL    HW220630   4.957   3.240   1.152
 6862SOL     OW20631   5.312   2.488   0.481
 6862SOL    HW120632   5.254   2.532   0.550
 6862SOL    HW220633   5.368   2.558   0.437
 6863SOL     OW20634   4.072   3.392   1.310
 6863SOL    HW120635   4.056   3.347   1.222
 6863SOL    HW220636   4.170   3.405   1.322
 6864SOL     OW20637   4.140   2.608   1.600
 6864SOL    HW120638   4.206   2.654   1.541
 6864SOL    HW220639   4.173   2.517   1.623
 6865SOL     OW20640   5.332   2.647   1.684
 6865SOL    HW120641   5.241   2.689   1.682
 6865SOL    HW220642   5.389   2.688   1.613
 6866SOL     OW20643   4.721   1.996   1.750
 6866SOL    HW120644   4.779   2.076   1.734
 6866SOL    HW220645   4.770   1.913   1.723
 6867SOL     OW20646   4.216   1.898   1.750
 6867SOL    HW120647   4.172   1.840   1.682
 6867SOL    HW220648   4.159   1.978   1.769
 6868SOL     OW20649   4.307   2.733   1.034
 6868SOL    HW120650   4.343   2.827   1.030
 6868SOL    HW220651   4.248   2.723   1.114
 6869SOL     OW20652   5.076   2.719   1.025
 6869SOL    HW120653   4.986   2.712   0.982
 6869SOL    HW220654   5.124   2.632   1.016
 6870SOL     OW20655   4.919   2.389   0.272
 6870SOL    HW120656   4.933   2.309   0.330
 6870SOL    HW220657   4.880   2.463   0.327
 6871SOL     OW20658   4.021   2.059   1.246
 6871SOL    HW120659   3.985   2.095   1.332
 6871SOL    HW220660   4.005   1.960   1.243
 6872SOL     OW20661   3.776   3.172   1.275
 6872SOL    HW120662   3.808   3.110   1.347
 6872SOL    HW220663   3.779   3.266   1.308
 6873SOL     OW20664   4.447   2.492   1.054
 6873SOL    HW120665   4.525   2.473   0.995
 6873SOL    HW220666   4.413   2.584   1.036
 6874SOL     OW20667   5.460   2.822   1.856
 6874SOL    HW120668   5.417   2.754   1.797
 6874SOL    HW220669   5.400   2.842   1.934
 6875SOL     OW20670   4.029   1.927   0.629
 6875SOL    HW120671   4.005   2.022   0.649
 6875SOL    HW220672   4.041   1.877   0.715
 6876SOL     OW20673   5.351   2.239   0.375
 6876SOL    HW120674   5.376   2.169   0.442
 6876SOL    HW220675   5.329   2.324   0.422
 6877SOL     OW20676   4.747   2.617   0.958
 6877SOL    HW120677   4.743   2.639   1.056
 6877SOL    HW220678   4.720   2.522   0.944
 6878SOL     OW20679   4.705   3.425   1.718
 6878SOL    HW120680   4.688   3.472   1.631
 6878SOL    HW220681   4.753   3.339   1.700
 6879SOL     OW20682   5.579   3.365   1.603
 6879SOL    HW120683   5.598   3.392   1.509
 6879SOL    HW220684   5.662   3.377   1.658
 6880SOL     OW20685   4.077   2.780   1.805
 6880SOL    HW120686   4.157   2.802   1.861
 6880SOL    HW220687   4.102   2.715   1.734
 6881SOL     OW20688   5.210   2.156   0.154
 6881SOL    HW120689   5.171   2.064   0.168
 6881SOL    HW220690   5.268   2.179   0.231
 6882SOL     OW20691   5.018   2.683   0.034
 6882SOL    HW120692   5.064   2.595   0.023
 6882SOL    HW220693   5.043   2.743   6.957
 6883SOL     OW20694   4.793   3.199   0.855
 6883SOL    HW120695   4.797   3.121   0.792
 6883SOL    HW220696   4.852   3.272   0.822
 6884SOL     OW20697   4.035   2.668   0.943
 6884SOL    HW120698   4.132   2.694   0.940
 6884SOL    HW220699   4.028   2.574   0.976
 6885SOL     OW20700   4.051   2.389   1.011
 6885SOL    HW120701   4.013   2.297   1.001
 6885SOL    HW220702   4.132   2.398   0.953
 6886SOL     OW20703   4.858   2.235   1.692
 6886SOL    HW120704   4.805   2.292   1.755
 6886SOL    HW220705   4.950   2.272   1.683
 6887SOL     OW20706   4.886   2.065   1.476
 6887SOL    HW120707   4.871   2.128   1.553
 6887SOL    HW220708   4.928   2.115   1.400
 6888SOL     OW20709   3.817   3.645   0.943
 6888SOL    HW120710   3.780   3.564   0.898
 6888SOL    HW220711   3.911   3.662   0.911
 6889SOL     OW20712   4.217   3.438   0.904
 6889SOL    HW120713   4.287   3.504   0.931
 6889SOL    HW220714   4.257   3.370   0.843
 6890SOL     OW20715   4.698   2.655   1.224
 6890SOL    HW120716   4.759   2.632   1.300
 6890SOL    HW220717   4.609   2.614   1.239
 6891SOL     OW20718   3.761   2.414   1.117
 6891SOL    HW120719   3.843   2.401   1.062
 6891SOL    HW220720   3.786   2.416   1.214
 6892SOL     OW20721   3.916   2.385   1.730
 6892SOL    HW120722   3.969   2.331   1.664
 6892SOL    HW220723   3.877   2.465   1.685
 6893SOL     OW20724   5.104   2.797   1.655
 6893SOL    HW120725   5.127   2.894   1.656
 6893SOL    HW220726   5.101   2.765   1.560
 6894SOL     OW20727   4.542   2.431   0.370
 6894SOL    HW120728   4.550   2.352   0.309
 6894SOL    HW220729   4.465   2.488   0.342
 6895SOL     OW20730   5.367   2.465   1.181
 6895SOL    HW120731   5.350   2.405   1.260
 6895SOL    HW220732   5.458   2.447   1.145
 6896SOL     OW20733   3.964   3.409   1.726
 6896SOL    HW120734   3.942   3.483   1.789
 6896SOL    HW220735   3.970   3.323   1.776
 6897SOL     OW20736   4.432   2.309   1.253
 6897SOL    HW120737   4.374   2.231   1.229
 6897SOL    HW220738   4.428   2.377   1.179
 6898SOL     OW20739   4.643   3.543   1.472
 6898SOL    HW120740   4.618   3.497   1.387
 6898SOL    HW220741   4.644   3.642   1.457
 6899SOL     OW20742   4.179   2.361   0.188
 6899SOL    HW120743   4.243   2.433   0.214
 6899SOL    HW220744   4.086   2.398   0.185
 6900SOL     OW20745   3.866   2.999   1.475
 6900SOL    HW120746   3.868   2.955   1.565
 6900SOL    HW220747   3.886   2.932   1.404
 6901SOL     OW20748   5.039   2.906   1.219
 6901SOL    HW120749   5.067   2.838   1.151
 6901SOL    HW220750   4.972   2.968   1.179
 6902SOL     OW20751   5.025   2.708   0.306
 6902SOL    HW120752   4.944   2.680   0.357
 6902SOL    HW220753   5.014   2.687   0.209
 6903SOL     OW20754   5.505   3.592   1.157
 6903SOL    HW120755   5.566   3.626   1.086
 6903SOL    HW220756   5.473   3.500   1.133
 6904SOL     OW20757   4.965   3.595   1.105
 6904SOL    HW120758   5.051   3.624   1.062
 6904SOL    HW220759   4.971   3.498   1.129
 6905SOL     OW20760   3.810   3.128   1.010
 6905SOL    HW120761   3.794   3.142   1.108
 6905SOL    HW220762   3.738   3.069   0.972
 6906SOL     OW20763   4.405   3.535   1.736
 6906SOL    HW120764   4.343   3.614   1.731
 6906SOL    HW220765   4.478   3.547   1.669
 6907SOL     OW20766   4.663   1.940   0.113
 6907SOL    HW120767   4.733   1.994   0.067
 6907SOL    HW220768   4.706   1.880   0.180
 6908SOL     OW20769   5.452   2.023   0.528
 6908SOL    HW120770   5.522   2.014   0.457
 6908SOL    HW220771   5.424   1.932   0.559
 6909SOL     OW20772   5.114   3.424   0.491
 6909SOL    HW120773   5.179   3.454   0.422
 6909SOL    HW220774   5.060   3.502   0.522
 6910SOL     OW20775   3.869   3.649   1.846
 6910SOL    HW120776   3.812   3.581   1.891
 6910SOL    HW220777   3.919   3.702   1.914
 6911SOL     OW20778   5.007   2.786   0.670
 6911SOL    HW120779   5.081   2.720   0.684
 6911SOL    HW220780   5.041   2.864   0.618
 6912SOL     OW20781   4.528   3.140   1.426
 6912SOL    HW120782   4.498   3.184   1.511
 6912SOL    HW220783   4.458   3.155   1.356
 6913SOL     OW20784   4.398   3.467   0.191
 6913SOL    HW120785   4.403   3.516   0.104
 6913SOL    HW220786   4.340   3.386   0.180
 6914SOL     OW20787   5.341   3.591   1.387
 6914SOL    HW120788   5.399   3.591   1.306
 6914SOL    HW220789   5.327   3.684   1.419
 6915SOL     OW20790   5.566   2.031   0.963
 6915SOL    HW120791   5.600   1.940   0.941
 6915SOL    HW220792   5.475   2.043   0.923
 6916SOL     OW20793   3.979   2.179   0.716
 6916SOL    HW120794   3.890   2.214   0.688
 6916SOL    HW220795   3.982   2.170   0.816
 6917SOL     OW20796   4.943   3.461   0.040
 6917SOL    HW120797   4.937   3.366   0.071
 6917SOL    HW220798   4.858   3.487   6.995
 6918SOL     OW20799   4.547   2.872   1.378
 6918SOL    HW120800   4.598   2.856   1.293
 6918SOL    HW220801   4.544   2.970   1.398
 6919SOL     OW20802   4.647   2.775   0.293
 6919SOL    HW120803   4.702   2.804   0.215
 6919SOL    HW220804   4.696   2.703   0.344
 6920SOL     OW20805   5.212   3.516   0.041
 6920SOL    HW120806   5.114   3.495   0.040
 6920SOL    HW220807   5.244   3.531   6.948
 6921SOL     OW20808   4.089   3.165   1.487
 6921SOL    HW120809   4.080   3.245   1.428
 6921SOL    HW220810   4.010   3.106   1.476
 6922SOL     OW20811   5.337   3.146   1.284
 6922SOL    HW120812   5.400   3.127   1.359
 6922SOL    HW220813   5.271   3.216   1.313
 6923SOL     OW20814   4.785   2.968   0.714
 6923SOL    HW120815   4.709   2.918   0.755
 6923SOL    HW220816   4.853   2.903   0.681
 6924SOL     OW20817   4.747   2.101   0.966
 6924SOL    HW120818   4.742   2.057   0.876
 6924SOL    HW220819   4.744   2.031   1.038
 6925SOL     OW20820   4.336   3.340   0.485
 6925SOL    HW120821   4.376   3.288   0.408
 6925SOL    HW220822   4.275   3.410   0.449
 6926SOL     OW20823   5.456   2.255   1.381
 6926SOL    HW120824   5.528   2.324   1.381
 6926SOL    HW220825   5.481   2.180   1.320
 6927SOL     OW20826   4.002   3.182   0.309
 6927SOL    HW120827   3.919   3.169   0.256
 6927SOL    HW220828   3.982   3.235   0.391
 6928SOL     OW20829   3.838   2.896   1.728
 6928SOL    HW120830   3.757   2.869   1.778
 6928SOL    HW220831   3.919   2.851   1.767
 6929SOL     OW20832   4.407   2.056   1.500
 6929SOL    HW120833   4.494   2.032   1.456
 6929SOL    HW220834   4.425   2.090   1.592
 6930SOL     OW20835   3.830   2.183   0.014
 6930SOL    HW120836   3.767   2.130   6.957
 6930SOL    HW220837   3.859   2.265   6.963
 6931SOL     OW20838   5.147   2.718   1.395
 6931SOL    HW120839   5.092   2.782   1.341
 6931SOL    HW220840   5.241   2.720   1.361
 6932SOL     OW20841   3.773   2.035   0.327
 6932SOL    HW120842   3.760   2.127   0.290
 6932SOL    HW220843   3.849   1.991   0.279
 6933SOL     OW20844   4.910   3.207   0.128
 6933SOL    HW120845   4.812   3.191   0.111
 6933SOL    HW220846   4.928   3.196   0.225
 6934SOL     OW20847   4.347   2.692   1.433
 6934SOL    HW120848   4.405   2.773   1.419
 6934SOL    HW220849   4.405   2.611   1.443
 6935SOL     OW20850   5.210   3.651   0.987
 6935SOL    HW120851   5.233   3.715   0.914
 6935SOL    HW220852   5.293   3.614   1.027
 6936SOL     OW20853   4.446   2.420   1.702
 6936SOL    HW120854   4.490   2.487   1.762
 6936SOL    HW220855   4.466   2.328   1.736
 6937SOL     OW20856   5.198   3.058   1.634
 6937SOL    HW120857   5.182   3.071   1.732
 6937SOL    HW220858   5.293   3.077   1.613
 6938SOL     OW20859   4.095   3.600   1.567
 6938SOL    HW120860   4.011   3.652   1.552
 6938SOL    HW220861   4.073   3.512   1.609
 6939SOL     OW20862   5.390   2.740   1.256
 6939SOL    HW120863   5.385   2.649   1.214
 6939SOL    HW220864   5.377   2.810   1.185
 6940SOL     OW20865   4.945   2.179   0.457
 6940SOL    HW120866   5.026   2.127   0.428
 6940SOL    HW220867   4.967   2.231   0.539
 6941SOL     OW20868   4.312   2.597   0.666
 6941SOL    HW120869   4.352   2.688   0.659
 6941SOL    HW220870   4.241   2.586   0.596
 6942SOL     OW20871   5.475   2.227   1.653
 6942SOL    HW120872   5.465   2.243   1.554
 6942SOL    HW220873   5.401   2.167   1.684
 6943SOL     OW20874   5.476   2.794   1.510
 6943SOL    HW120875   5.465   2.891   1.531
 6943SOL    HW220876   5.455   2.779   1.413
 6944SOL     OW20877   4.626   3.245   0.052
 6944SOL    HW120878   4.565   3.220   0.127
 6944SOL    HW220879   4.630   3.345   0.044
 6945SOL     OW20880   4.389   3.647   0.942
 6945SOL    HW120881   4.365   3.742   0.920
 6945SOL    HW220882   4.487   3.634   0.931
 6946SOL     OW20883   4.593   2.832   0.857
 6946SOL    HW120884   4.644   2.755   0.893
 6946SOL    HW220885   4.551   2.883   0.932
 6947SOL     OW20886   4.805   2.845   0.081
 6947SOL    HW120887   4.802   2.902   6.999
 6947SOL    HW220888   4.884   2.784   0.076
 6948SOL     OW20889   5.570   3.419   0.846
 6948SOL    HW120890   5.493   3.405   0.784
 6948SOL    HW220891   5.571   3.347   0.915
 6949SOL     OW20892   3.955   3.161   1.857
 6949SOL    HW120893   3.889   3.094   1.822
 6949SOL    HW220894   3.941   3.174   1.955
 6950SOL     OW20895   3.807   3.096   0.665
 6950SOL    HW120896   3.823   3.045   0.750
 6950SOL    HW220897   3.854   3.051   0.590
 6951SOL     OW20898   4.406   3.271   1.633
 6951SOL    HW120899   4.326   3.221   1.665
 6951SOL    HW220900   4.405   3.364   1.670
 6952SOL     OW20901   5.529   2.044   1.234
 6952SOL    HW120902   5.543   1.948   1.258
 6952SOL    HW220903   5.541   2.056   1.135
 6953SOL     OW20904   4.155   2.291   0.528
 6953SOL    HW120905   4.185   2.220   0.465
 6953SOL    HW220906   4.100   2.250   0.601
 6954SOL     OW20907   5.416   3.346   1.095
 6954SOL    HW120908   5.336   3.327   1.038
 6954SOL    HW220909   5.425   3.274   1.164
 6955SOL     OW20910   4.059   2.418   1.289
 6955SOL    HW120911   4.115   2.361   1.349
 6955SOL    HW220912   4.074   2.392   1.194
 6956SOL     OW20913   4.551   3.441   0.680
 6956SOL    HW120914   4.539   3.501   0.600
 6956SOL    HW220915   4.475   3.377   0.686
 6957SOL     OW20916   5.154   2.094   1.117
 6957SOL    HW120917   5.177   2.004   1.154
 6957SOL    HW220918   5.100   2.144   1.184
 6958SOL     OW20919   4.734   1.878   1.137
 6958SOL    HW120920   4.670   1.814   1.094
 6958SOL    HW220921   4.825   1.838   1.139
 6959SOL     OW20922   4.508   3.180   0.308
 6959SOL    HW120923   4.473   3.088   0.328
 6959SOL    HW220924   4.584   3.201   0.368
 6960SOL     OW20925   4.347   3.421   1.289
 6960SOL    HW120926   4.345   3.508   1.339
 6960SOL    HW220927   4.438   3.408   1.249
 6961SOL     OW20928   5.077   1.916   0.185
 6961SOL    HW120929   5.117   1.857   0.115
 6961SOL    HW220930   4.990   1.875   0.216
 6962SOL     OW20931   5.009   2.322   0.678
 6962SOL    HW120932   4.960   2.409   0.682
 6962SOL    HW220933   5.011   2.282   0.770
 6963SOL     OW20934   5.309   2.065   0.883
 6963SOL    HW120935   5.252   2.086   0.963
 6963SOL    HW220936   5.313   2.145   0.823
 6964SOL     OW20937   3.811   2.916   0.362
 6964SOL    HW120938   3.899   2.892   0.320
 6964SOL    HW220939   3.756   2.833   0.373
 6965SOL     OW20940   4.612   3.525   0.353
 6965SOL    HW120941   4.537   3.496   0.294
 6965SOL    HW220942   4.584   3.604   0.408
 6966SOL     OW20943   3.945   2.481   1.990
 6966SOL    HW120944   3.854   2.481   2.030
 6966SOL    HW220945   3.939   2.459   1.892
 6967SOL     OW20946   3.947   2.144   2.857
 6967SOL    HW120947   3.979   2.110   2.945
 6967SOL    HW220948   3.853   2.112   2.840
 6968SOL     OW20949   3.725   2.248   2.496
 6968SOL    HW120950   3.641   2.278   2.541
 6968SOL    HW220951   3.706   2.165   2.444
 6969SOL     OW20952   4.289   3.156   3.046
 6969SOL    HW120953   4.199   3.160   3.004
 6969SOL    HW220954   4.316   3.249   3.075
 6970SOL     OW20955   5.288   3.375   2.570
 6970SOL    HW120956   5.247   3.353   2.658
 6970SOL    HW220957   5.217   3.382   2.501
 6971SOL     OW20958   4.857   2.565   2.557
 6971SOL    HW120959   4.909   2.649   2.540
 6971SOL    HW220960   4.807   2.573   2.643
 6972SOL     OW20961   5.494   2.461   2.085
 6972SOL    HW120962   5.470   2.457   1.988
 6972SOL    HW220963   5.456   2.382   2.132
 6973SOL     OW20964   4.467   3.001   2.903
 6973SOL    HW120965   4.400   3.035   2.969
 6973SOL    HW220966   4.509   3.078   2.855
 6974SOL     OW20967   4.598   2.625   3.683
 6974SOL    HW120968   4.581   2.694   3.754
 6974SOL    HW220969   4.621   2.671   3.597
 6975SOL     OW20970   4.408   2.861   2.511
 6975SOL    HW120971   4.479   2.851   2.580
 6975SOL    HW220972   4.333   2.917   2.547
 6976SOL     OW20973   4.439   3.012   3.668
 6976SOL    HW120974   4.487   3.085   3.716
 6976SOL    HW220975   4.350   3.044   3.637
 6977SOL     OW20976   4.051   3.286   2.933
 6977SOL    HW120977   3.973   3.242   2.888
 6977SOL    HW220978   4.103   3.339   2.865
 6978SOL     OW20979   4.174   2.255   3.340
 6978SOL    HW120980   4.255   2.197   3.348
 6978SOL    HW220981   4.093   2.201   3.359
 6979SOL     OW20982   5.335   2.308   2.607
 6979SOL    HW120983   5.260   2.327   2.543
 6979SOL    HW220984   5.342   2.383   2.672
 6980SOL     OW20985   3.946   3.576   2.333
 6980SOL    HW120986   3.964   3.655   2.393
 6980SOL    HW220987   4.021   3.566   2.268
 6981SOL     OW20988   4.846   3.203   3.579
 6981SOL    HW120989   4.896   3.194   3.665
 6981SOL    HW220990   4.791   3.121   3.564
 6982SOL     OW20991   3.957   3.305   2.398
 6982SOL    HW120992   3.941   3.404   2.397
 6982SOL    HW220993   3.897   3.262   2.465
 6983SOL     OW20994   3.993   2.952   2.763
 6983SOL    HW120995   3.989   2.858   2.796
 6983SOL    HW220996   3.931   3.009   2.817
 6984SOL     OW20997   4.340   3.666   3.274
 6984SOL    HW120998   4.250   3.656   3.318
 6984SOL    HW220999   4.382   3.751   3.304
 6985SOL     OW21000   4.306   2.849   2.003
 6985SOL    HW121001   4.353   2.896   1.928
 6985SOL    HW221002   4.346   2.877   2.090
 6986SOL     OW21003   5.321   1.987   3.331
 6986SOL    HW121004   5.340   2.067   3.274
 6986SOL    HW221005   5.306   2.016   3.426
 6987SOL     OW21006   3.838   2.523   2.426
 6987SOL    HW121007   3.809   2.429   2.443
 6987SOL    HW221008   3.832   2.575   2.511
 6988SOL     OW21009   5.570   3.617   2.194
 6988SOL    HW121010   5.639   3.587   2.260
 6988SOL    HW221011   5.586   3.713   2.171
 6989SOL     OW21012   3.753   3.453   1.985
 6989SOL    HW121013   3.737   3.356   2.004
 6989SOL    HW221014   3.733   3.506   2.067
 6990SOL     OW21015   5.415   2.783   2.508
 6990SOL    HW121016   5.499   2.732   2.490
 6990SOL    HW221017   5.391   2.837   2.428
 6991SOL     OW21018   5.376   2.967   2.294
 6991SOL    HW121019   5.465   2.964   2.249
 6991SOL    HW221020   5.379   3.034   2.368
 6992SOL     OW21021   3.848   2.605   3.447
 6992SOL    HW121022   3.944   2.633   3.449
 6992SOL    HW221023   3.790   2.686   3.449
 6993SOL     OW21024   4.335   3.252   2.595
 6993SOL    HW121025   4.289   3.164   2.607
 6993SOL    HW221026   4.322   3.284   2.501
 6994SOL     OW21027   5.040   3.115   3.266
 6994SOL    HW121028   5.047   3.031   3.212
 6994SOL    HW221029   5.079   3.099   3.357
 6995SOL     OW21030   4.541   1.871   2.370
 6995SOL    HW121031   4.587   1.957   2.347
 6995SOL    HW221032   4.443   1.887   2.378
 6996SOL     OW21033   3.916   2.825   3.138
 6996SOL    HW121034   4.004   2.780   3.123
 6996SOL    HW221035   3.845   2.777   3.087
 6997SOL     OW21036   5.256   2.862   2.066
 6997SOL    HW121037   5.183   2.802   2.096
 6997SOL    HW221038   5.303   2.900   2.146
 6998SOL     OW21039   4.065   2.111   3.694
 6998SOL    HW121040   4.114   2.197   3.709
 6998SOL    HW221041   3.968   2.124   3.713
 6999SOL     OW21042   5.192   3.281   2.813
 6999SOL    HW121043   5.126   3.299   2.885
 6999SOL    HW221044   5.183   3.186   2.782
 7000SOL     OW21045   5.375   3.610   2.438
 7000SOL    HW121046   5.357   3.581   2.344
 7000SOL    HW221047   5.353   3.536   2.501
 7001SOL     OW21048   4.319   2.581   2.135
 7001SOL    HW121049   4.324   2.666   2.083
 7001SOL    HW221050   4.249   2.590   2.206
 7002SOL     OW21051   5.001   2.221   2.795
 7002SOL    HW121052   4.908   2.187   2.802
 7002SOL    HW221053   5.060   2.168   2.857
 7003SOL     OW21054   5.307   3.535   2.170
 7003SOL    HW121055   5.403   3.562   2.166
 7003SOL    HW221056   5.274   3.517   2.077
 7004SOL     OW21057   4.514   2.474   3.311
 7004SOL    HW121058   4.489   2.451   3.405
 7004SOL    HW221059   4.476   2.407   3.248
 7005SOL     OW21060   5.115   2.332   3.542
 7005SOL    HW121061   5.116   2.381   3.629
 7005SOL    HW221062   5.176   2.253   3.548
 7006SOL     OW21063   4.676   2.745   3.442
 7006SOL    HW121064   4.733   2.672   3.404
 7006SOL    HW221065   4.623   2.787   3.369
 7007SOL     OW21066   4.718   2.267   3.092
 7007SOL    HW121067   4.628   2.290   3.129
 7007SOL    HW221068   4.707   2.219   3.005
 7008SOL     OW21069   4.774   2.561   2.287
 7008SOL    HW121070   4.796   2.556   2.384
 7008SOL    HW221071   4.688   2.513   2.270
 7009SOL     OW21072   3.813   2.690   2.642
 7009SOL    HW121073   3.898   2.677   2.692
 7009SOL    HW221074   3.764   2.769   2.678
 7010SOL     OW21075   3.850   3.755   3.423
 7010SOL    HW121076   3.836   3.724   3.517
 7010SOL    HW221077   3.771   3.727   3.368
 7011SOL     OW21078   4.620   2.214   2.059
 7011SOL    HW121079   4.660   2.282   1.997
 7011SOL    HW221080   4.629   2.123   2.018
 7012SOL     OW21081   5.425   2.435   3.688
 7012SOL    HW121082   5.390   2.514   3.638
 7012SOL    HW221083   5.455   2.365   3.623
 7013SOL     OW21084   5.103   3.005   2.396
 7013SOL    HW121085   5.188   2.990   2.345
 7013SOL    HW221086   5.047   3.072   2.348
 7014SOL     OW21087   4.271   2.035   2.762
 7014SOL    HW121088   4.275   2.065   2.858
 7014SOL    HW221089   4.274   2.115   2.702
 7015SOL     OW21090   4.719   3.305   2.326
 7015SOL    HW121091   4.688   3.385   2.276
 7015SOL    HW221092   4.702   3.317   2.423
 7016SOL     OW21093   4.083   3.676   2.730
 7016SOL    HW121094   4.127   3.587   2.739
 7016SOL    HW221095   4.150   3.748   2.750
 7017SOL     OW21096   5.523   2.918   2.732
 7017SOL    HW121097   5.471   2.895   2.649
 7017SOL    HW221098   5.460   2.922   2.809
 7018SOL     OW21099   4.046   2.821   2.116
 7018SOL    HW121100   4.134   2.841   2.073
 7018SOL    HW221101   4.009   2.736   2.078
 7019SOL     OW21102   5.207   2.612   2.585
 7019SOL    HW121103   5.201   2.567   2.674
 7019SOL    HW221104   5.287   2.671   2.582
 7020SOL     OW21105   4.193   3.096   3.600
 7020SOL    HW121106   4.170   3.126   3.508
 7020SOL    HW221107   4.110   3.089   3.655
 7021SOL     OW21108   4.846   3.638   2.088
 7021SOL    HW121109   4.767   3.601   2.137
 7021SOL    HW221110   4.875   3.574   2.018
 7022SOL     OW21111   3.926   2.137   3.364
 7022SOL    HW121112   3.845   2.195   3.361
 7022SOL    HW221113   3.904   2.051   3.410
 7023SOL     OW21114   5.349   3.244   1.950
 7023SOL    HW121115   5.310   3.335   1.935
 7023SOL    HW221116   5.279   3.174   1.931
 7024SOL     OW21117   4.189   3.596   2.181
 7024SOL    HW121118   4.230   3.659   2.247
 7024SOL    HW221119   4.260   3.561   2.120
 7025SOL     OW21120   5.125   1.966   2.298
 7025SOL    HW121121   5.113   1.941   2.202
 7025SOL    HW221122   5.223   1.975   2.318
 7026SOL     OW21123   3.980   3.654   3.093
 7026SOL    HW121124   4.041   3.584   3.132
 7026SOL    HW221125   3.955   3.628   2.999
 7027SOL     OW21126   4.658   3.564   2.758
 7027SOL    HW121127   4.739   3.518   2.793
 7027SOL    HW221128   4.618   3.511   2.683
 7028SOL     OW21129   4.119   2.550   2.337
 7028SOL    HW121130   4.139   2.453   2.350
 7028SOL    HW221131   4.022   2.567   2.354
 7029SOL     OW21132   5.252   2.085   3.590
 7029SOL    HW121133   5.263   2.106   3.687
 7029SOL    HW221134   5.179   2.017   3.578
 7030SOL     OW21135   4.365   1.979   1.964
 7030SOL    HW121136   4.433   1.910   1.986
 7030SOL    HW221137   4.309   1.947   1.887
 7031SOL     OW21138   4.487   2.138   3.619
 7031SOL    HW121139   4.572   2.085   3.613
 7031SOL    HW221140   4.436   2.110   3.700
 7032SOL     OW21141   4.592   3.360   3.043
 7032SOL    HW121142   4.575   3.323   2.952
 7032SOL    HW221143   4.667   3.310   3.086
 7033SOL     OW21144   5.064   2.450   3.297
 7033SOL    HW121145   5.094   2.415   3.386
 7033SOL    HW221146   5.100   2.543   3.284
 7034SOL     OW21147   4.542   3.244   2.796
 7034SOL    HW121148   4.632   3.237   2.754
 7034SOL    HW221149   4.473   3.253   2.725
 7035SOL     OW21150   4.651   2.369   2.760
 7035SOL    HW121151   4.624   2.362   2.664
 7035SOL    HW221152   4.683   2.280   2.792
 7036SOL     OW21153   4.271   1.926   2.356
 7036SOL    HW121154   4.189   1.924   2.414
 7036SOL    HW221155   4.268   2.007   2.297
 7037SOL     OW21156   5.150   3.061   1.905
 7037SOL    HW121157   5.183   2.983   1.958
 7037SOL    HW221158   5.061   3.090   1.941
 7038SOL     OW21159   4.014   1.910   2.048
 7038SOL    HW121160   4.067   1.982   2.002
 7038SOL    HW221161   4.077   1.845   2.091
 7039SOL     OW21162   4.670   2.113   2.318
 7039SOL    HW121163   4.638   2.154   2.233
 7039SOL    HW221164   4.769   2.126   2.327
 7040SOL     OW21165   4.804   2.543   3.316
 7040SOL    HW121166   4.729   2.477   3.322
 7040SOL    HW221167   4.891   2.494   3.312
 7041SOL     OW21168   4.948   3.430   2.655
 7041SOL    HW121169   4.959   3.501   2.585
 7041SOL    HW221170   5.015   3.445   2.727
 7042SOL     OW21171   4.192   3.013   2.590
 7042SOL    HW121172   4.125   2.993   2.662
 7042SOL    HW221173   4.150   3.000   2.500
 7043SOL     OW21174   4.986   3.653   2.472
 7043SOL    HW121175   5.038   3.716   2.413
 7043SOL    HW221176   4.914   3.704   2.519
 7044SOL     OW21177   4.745   2.398   1.891
 7044SOL    HW121178   4.700   2.484   1.867
 7044SOL    HW221179   4.814   2.416   1.961
 7045SOL     OW21180   3.810   2.419   3.252
 7045SOL    HW121181   3.905   2.414   3.220
 7045SOL    HW221182   3.802   2.490   3.323
 7046SOL     OW21183   4.282   2.086   3.034
 7046SOL    HW121184   4.332   2.010   3.076
 7046SOL    HW221185   4.187   2.084   3.063
 7047SOL     OW21186   4.590   2.320   2.498
 7047SOL    HW121187   4.542   2.382   2.436
 7047SOL    HW221188   4.618   2.238   2.449
 7048SOL     OW21189   4.741   1.915   2.608
 7048SOL    HW121190   4.681   1.915   2.528
 7048SOL    HW221191   4.716   1.839   2.668
 7049SOL     OW21192   5.170   3.022   2.720
 7049SOL    HW121193   5.091   2.960   2.724
 7049SOL    HW221194   5.198   3.034   2.625
 7050SOL     OW21195   5.192   2.469   2.832
 7050SOL    HW121196   5.130   2.391   2.831
 7050SOL    HW221197   5.253   2.463   2.911
 7051SOL     OW21198   5.566   2.671   2.242
 7051SOL    HW121199   5.625   2.623   2.307
 7051SOL    HW221200   5.537   2.607   2.171
 7052SOL     OW21201   4.211   3.282   2.017
 7052SOL    HW121202   4.131   3.256   2.070
 7052SOL    HW221203   4.209   3.237   1.928
 7053SOL     OW21204   5.399   3.129   2.505
 7053SOL    HW121205   5.498   3.127   2.517
 7053SOL    HW221206   5.364   3.221   2.527
 7054SOL     OW21207   5.114   2.436   1.932
 7054SOL    HW121208   5.051   2.414   2.007
 7054SOL    HW221209   5.207   2.410   1.958
 7055SOL     OW21210   4.252   2.126   2.172
 7055SOL    HW121211   4.300   2.074   2.101
 7055SOL    HW221212   4.223   2.214   2.134
 7056SOL     OW21213   5.477   3.088   3.428
 7056SOL    HW121214   5.564   3.042   3.412
 7056SOL    HW221215   5.495   3.183   3.457
 7057SOL     OW21216   4.769   3.181   3.180
 7057SOL    HW121217   4.688   3.165   3.237
 7057SOL    HW221218   4.851   3.167   3.235
 7058SOL     OW21219   4.864   3.073   2.952
 7058SOL    HW121220   4.808   3.104   3.029
 7058SOL    HW221221   4.823   3.104   2.867
 7059SOL     OW21222   5.347   2.954   2.937
 7059SOL    HW121223   5.344   3.021   3.011
 7059SOL    HW221224   5.273   2.972   2.873
 7060SOL     OW21225   4.647   1.956   3.254
 7060SOL    HW121226   4.669   1.933   3.159
 7060SOL    HW221227   4.727   2.000   3.296
 7061SOL     OW21228   4.698   2.971   3.582
 7061SOL    HW121229   4.604   2.985   3.612
 7061SOL    HW221230   4.703   2.889   3.525
 7062SOL     OW21231   4.437   2.921   2.235
 7062SOL    HW121232   4.419   2.903   2.332
 7062SOL    HW221233   4.516   2.867   2.205
 7063SOL     OW21234   4.146   2.677   3.116
 7063SOL    HW121235   4.219   2.690   3.183
 7063SOL    HW221236   4.107   2.585   3.127
 7064SOL     OW21237   4.986   2.238   3.142
 7064SOL    HW121238   5.023   2.317   3.191
 7064SOL    HW221239   4.891   2.255   3.117
 7065SOL     OW21240   3.797   3.422   3.189
 7065SOL    HW121241   3.746   3.507   3.180
 7065SOL    HW221242   3.895   3.442   3.192
 7066SOL     OW21243   4.066   2.980   2.349
 7066SOL    HW121244   4.072   3.062   2.292
 7066SOL    HW221245   4.064   2.899   2.290
 7067SOL     OW21246   4.272   2.405   2.724
 7067SOL    HW121247   4.286   2.464   2.645
 7067SOL    HW221248   4.341   2.425   2.793
 7068SOL     OW21249   4.970   3.217   2.254
 7068SOL    HW121250   5.031   3.289   2.286
 7068SOL    HW221251   4.877   3.236   2.285
 7069SOL     OW21252   5.004   3.308   3.006
 7069SOL    HW121253   5.020   3.303   3.105
 7069SOL    HW221254   4.951   3.228   2.977
 7070SOL     OW21255   5.301   2.483   2.345
 7070SOL    HW121256   5.250   2.531   2.416
 7070SOL    HW221257   5.348   2.549   2.287
 7071SOL     OW21258   4.085   3.398   3.175
 7071SOL    HW121259   4.062   3.353   3.089
 7071SOL    HW221260   4.185   3.407   3.182
 7072SOL     OW21261   4.141   2.607   3.461
 7072SOL    HW121262   4.207   2.654   3.403
 7072SOL    HW221263   4.174   2.516   3.484
 7073SOL     OW21264   5.332   2.647   3.547
 7073SOL    HW121265   5.241   2.688   3.545
 7073SOL    HW221266   5.389   2.687   3.475
 7074SOL     OW21267   4.721   1.996   3.612
 7074SOL    HW121268   4.779   2.075   3.596
 7074SOL    HW221269   4.770   1.913   3.586
 7075SOL     OW21270   4.216   1.898   3.612
 7075SOL    HW121271   4.172   1.840   3.544
 7075SOL    HW221272   4.159   1.978   3.631
 7076SOL     OW21273   4.308   2.734   2.897
 7076SOL    HW121274   4.344   2.827   2.893
 7076SOL    HW221275   4.248   2.724   2.976
 7077SOL     OW21276   5.077   2.717   2.888
 7077SOL    HW121277   4.986   2.711   2.845
 7077SOL    HW221278   5.125   2.630   2.877
 7078SOL     OW21279   4.922   2.388   2.126
 7078SOL    HW121280   4.934   2.306   2.181
 7078SOL    HW221281   4.878   2.459   2.182
 7079SOL     OW21282   4.021   2.058   3.109
 7079SOL    HW121283   3.985   2.095   3.194
 7079SOL    HW221284   4.005   1.960   3.105
 7080SOL     OW21285   3.759   3.161   3.145
 7080SOL    HW121286   3.809   3.107   3.213
 7080SOL    HW221287   3.772   3.259   3.163
 7081SOL     OW21288   4.448   2.493   2.917
 7081SOL    HW121289   4.525   2.473   2.856
 7081SOL    HW221290   4.413   2.585   2.898
 7082SOL     OW21291   5.459   2.821   3.719
 7082SOL    HW121292   5.417   2.753   3.660
 7082SOL    HW221293   5.399   2.841   3.797
 7083SOL     OW21294   4.030   1.923   2.490
 7083SOL    HW121295   4.006   2.018   2.508
 7083SOL    HW221296   4.041   1.875   2.577
 7084SOL     OW21297   5.351   2.243   2.224
 7084SOL    HW121298   5.377   2.169   2.287
 7084SOL    HW221299   5.323   2.323   2.277
 7085SOL     OW21300   4.748   2.617   2.820
 7085SOL    HW121301   4.743   2.639   2.917
 7085SOL    HW221302   4.721   2.522   2.805
 7086SOL     OW21303   5.604   3.328   3.463
 7086SOL    HW121304   5.620   3.368   3.372
 7086SOL    HW221305   5.677   3.356   3.525
 7087SOL     OW21306   4.071   2.773   3.669
 7087SOL    HW121307   4.151   2.807   3.719
 7087SOL    HW221308   4.101   2.710   3.597
 7088SOL     OW21309   5.251   2.130   1.992
 7088SOL    HW121310   5.182   2.063   2.017
 7088SOL    HW221311   5.288   2.173   2.075
 7089SOL     OW21312   5.013   2.688   1.888
 7089SOL    HW121313   5.053   2.597   1.897
 7089SOL    HW221314   5.044   2.730   1.803
 7090SOL     OW21315   4.794   3.202   2.712
 7090SOL    HW121316   4.799   3.124   2.650
 7090SOL    HW221317   4.854   3.274   2.679
 7091SOL     OW21318   4.035   2.668   2.805
 7091SOL    HW121319   4.132   2.694   2.800
 7091SOL    HW221320   4.028   2.574   2.837
 7092SOL     OW21321   4.051   2.389   2.873
 7092SOL    HW121322   4.012   2.298   2.863
 7092SOL    HW221323   4.132   2.398   2.815
 7093SOL     OW21324   4.858   2.235   3.554
 7093SOL    HW121325   4.805   2.291   3.617
 7093SOL    HW221326   4.950   2.272   3.545
 7094SOL     OW21327   4.886   2.065   3.338
 7094SOL    HW121328   4.871   2.127   3.414
 7094SOL    HW221329   4.928   2.115   3.262
 7095SOL     OW21330   3.724   3.177   2.057
 7095SOL    HW121331   3.635   3.197   2.017
 7095SOL    HW221332   3.726   3.084   2.092
 7096SOL     OW21333   3.821   3.647   2.798
 7096SOL    HW121334   3.786   3.565   2.753
 7096SOL    HW221335   3.916   3.663   2.769
 7097SOL     OW21336   4.218   3.437   2.769
 7097SOL    HW121337   4.288   3.504   2.794
 7097SOL    HW221338   4.258   3.369   2.706
 7098SOL     OW21339   4.699   2.655   3.086
 7098SOL    HW121340   4.759   2.630   3.162
 7098SOL    HW221341   4.609   2.614   3.100
 7099SOL     OW21342   3.761   2.414   2.979
 7099SOL    HW121343   3.844   2.402   2.924
 7099SOL    HW221344   3.786   2.416   3.076
 7100SOL     OW21345   3.916   2.384   3.592
 7100SOL    HW121346   3.970   2.332   3.526
 7100SOL    HW221347   3.877   2.464   3.547
 7101SOL     OW21348   5.104   2.798   3.517
 7101SOL    HW121349   5.128   2.895   3.517
 7101SOL    HW221350   5.102   2.765   3.422
 7102SOL     OW21351   4.541   2.434   2.223
 7102SOL    HW121352   4.550   2.355   2.163
 7102SOL    HW221353   4.463   2.489   2.193
 7103SOL     OW21354   5.366   2.465   3.043
 7103SOL    HW121355   5.350   2.405   3.122
 7103SOL    HW221356   5.458   2.447   3.007
 7104SOL     OW21357   4.432   2.309   3.114
 7104SOL    HW121358   4.374   2.232   3.091
 7104SOL    HW221359   4.429   2.378   3.041
 7105SOL     OW21360   4.183   2.357   2.047
 7105SOL    HW121361   4.248   2.429   2.072
 7105SOL    HW221362   4.092   2.397   2.034
 7106SOL     OW21363   3.878   2.999   3.339
 7106SOL    HW121364   3.879   2.953   3.428
 7106SOL    HW221365   3.896   2.933   3.266
 7107SOL     OW21366   5.038   2.904   3.082
 7107SOL    HW121367   5.069   2.836   3.015
 7107SOL    HW221368   4.973   2.966   3.038
 7108SOL     OW21369   5.040   2.718   2.161
 7108SOL    HW121370   4.964   2.692   2.220
 7108SOL    HW221371   5.014   2.706   2.065
 7109SOL     OW21372   5.468   3.609   2.963
 7109SOL    HW121373   5.548   3.629   2.906
 7109SOL    HW221374   5.453   3.510   2.965
 7110SOL     OW21375   4.966   3.587   2.961
 7110SOL    HW121376   5.054   3.618   2.925
 7110SOL    HW221377   4.972   3.490   2.985
 7111SOL     OW21378   3.811   3.124   2.878
 7111SOL    HW121379   3.789   3.138   2.975
 7111SOL    HW221380   3.739   3.070   2.835
 7112SOL     OW21381   5.444   2.012   2.361
 7112SOL    HW121382   5.519   2.002   2.296
 7112SOL    HW221383   5.426   1.924   2.406
 7113SOL     OW21384   5.119   3.433   2.349
 7113SOL    HW121385   5.182   3.465   2.279
 7113SOL    HW221386   5.064   3.509   2.382
 7114SOL     OW21387   5.006   2.790   2.527
 7114SOL    HW121388   5.081   2.726   2.543
 7114SOL    HW221389   5.039   2.867   2.473
 7115SOL     OW21390   4.528   3.138   3.301
 7115SOL    HW121391   4.516   3.161   3.397
 7115SOL    HW221392   4.451   3.173   3.248
 7116SOL     OW21393   4.392   3.483   2.016
 7116SOL    HW121394   4.409   3.502   1.919
 7116SOL    HW221395   4.334   3.403   2.025
 7117SOL     OW21396   5.566   2.031   2.826
 7117SOL    HW121397   5.600   1.940   2.803
 7117SOL    HW221398   5.475   2.044   2.786
 7118SOL     OW21399   3.979   2.176   2.577
 7118SOL    HW121400   3.891   2.213   2.550
 7118SOL    HW221401   3.983   2.168   2.677
 7119SOL     OW21402   4.933   3.463   1.895
 7119SOL    HW121403   4.923   3.369   1.928
 7119SOL    HW221404   4.865   3.480   1.823
 7120SOL     OW21405   4.548   2.872   3.237
 7120SOL    HW121406   4.597   2.856   3.152
 7120SOL    HW221407   4.542   2.970   3.255
 7121SOL     OW21408   4.644   2.772   2.149
 7121SOL    HW121409   4.705   2.808   2.078
 7121SOL    HW221410   4.691   2.701   2.201
 7122SOL     OW21411   5.212   3.492   1.904
 7122SOL    HW121412   5.114   3.481   1.893
 7122SOL    HW221413   5.256   3.497   1.814
 7123SOL     OW21414   4.093   3.179   3.360
 7123SOL    HW121415   4.085   3.251   3.292
 7123SOL    HW221416   4.018   3.113   3.347
 7124SOL     OW21417   5.331   3.138   3.142
 7124SOL    HW121418   5.411   3.129   3.201
 7124SOL    HW221419   5.251   3.157   3.197
 7125SOL     OW21420   4.786   2.968   2.576
 7125SOL    HW121421   4.709   2.919   2.617
 7125SOL    HW221422   4.854   2.903   2.543
 7126SOL     OW21423   4.747   2.101   2.829
 7126SOL    HW121424   4.743   2.057   2.739
 7126SOL    HW221425   4.744   2.031   2.900
 7127SOL     OW21426   4.328   3.348   2.341
 7127SOL    HW121427   4.380   3.294   2.274
 7127SOL    HW221428   4.255   3.397   2.295
 7128SOL     OW21429   5.455   2.256   3.243
 7128SOL    HW121430   5.528   2.324   3.243
 7128SOL    HW221431   5.481   2.181   3.182
 7129SOL     OW21432   3.977   3.210   2.150
 7129SOL    HW121433   3.881   3.203   2.123
 7129SOL    HW221434   3.983   3.248   2.242
 7130SOL     OW21435   3.836   2.887   3.588
 7130SOL    HW121436   3.754   2.860   3.638
 7130SOL    HW221437   3.915   2.842   3.628
 7131SOL     OW21438   4.407   2.055   3.362
 7131SOL    HW121439   4.494   2.032   3.318
 7131SOL    HW221440   4.425   2.090   3.454
 7132SOL     OW21441   3.806   2.190   1.891
 7132SOL    HW121442   3.714   2.167   1.859
 7132SOL    HW221443   3.838   2.272   1.843
 7133SOL     OW21444   5.148   2.718   3.258
 7133SOL    HW121445   5.092   2.780   3.203
 7133SOL    HW221446   5.242   2.719   3.223
 7134SOL     OW21447   3.787   2.017   2.164
 7134SOL    HW121448   3.771   2.102   2.113
 7134SOL    HW221449   3.875   1.979   2.138
 7135SOL     OW21450   4.904   3.199   1.983
 7135SOL    HW121451   4.809   3.169   1.976
 7135SOL    HW221452   4.932   3.201   2.079
 7136SOL     OW21453   4.348   2.692   3.295
 7136SOL    HW121454   4.405   2.772   3.279
 7136SOL    HW221455   4.406   2.611   3.305
 7137SOL     OW21456   5.213   3.647   2.852
 7137SOL    HW121457   5.227   3.710   2.776
 7137SOL    HW221458   5.301   3.632   2.899
 7138SOL     OW21459   4.446   2.419   3.564
 7138SOL    HW121460   4.490   2.486   3.624
 7138SOL    HW221461   4.465   2.327   3.598
 7139SOL     OW21462   5.199   3.060   3.496
 7139SOL    HW121463   5.182   3.072   3.593
 7139SOL    HW221464   5.297   3.072   3.478
 7140SOL     OW21465   4.103   3.640   3.396
 7140SOL    HW121466   4.014   3.685   3.390
 7140SOL    HW221467   4.089   3.541   3.405
 7141SOL     OW21468   5.389   2.739   3.117
 7141SOL    HW121469   5.385   2.648   3.077
 7141SOL    HW221470   5.377   2.808   3.045
 7142SOL     OW21471   4.943   2.179   2.322
 7142SOL    HW121472   5.007   2.102   2.312
 7142SOL    HW221473   4.970   2.234   2.401
 7143SOL     OW21474   4.310   2.598   2.531
 7143SOL    HW121475   4.352   2.689   2.520
 7143SOL    HW221476   4.241   2.585   2.460
 7144SOL     OW21477   5.475   2.227   3.515
 7144SOL    HW121478   5.465   2.243   3.416
 7144SOL    HW221479   5.401   2.167   3.546
 7145SOL     OW21480   5.473   2.793   3.371
 7145SOL    HW121481   5.460   2.890   3.393
 7145SOL    HW221482   5.454   2.778   3.274
 7146SOL     OW21483   4.590   3.226   1.905
 7146SOL    HW121484   4.549   3.250   1.993
 7146SOL    HW221485   4.605   3.309   1.852
 7147SOL     OW21486   4.388   3.646   2.802
 7147SOL    HW121487   4.366   3.741   2.783
 7147SOL    HW221488   4.487   3.633   2.795
 7148SOL     OW21489   4.593   2.833   2.718
 7148SOL    HW121490   4.644   2.755   2.755
 7148SOL    HW221491   4.550   2.883   2.793
 7149SOL     OW21492   4.802   2.851   1.946
 7149SOL    HW121493   4.774   2.905   1.866
 7149SOL    HW221494   4.879   2.793   1.921
 7150SOL     OW21495   5.573   3.414   2.708
 7150SOL    HW121496   5.494   3.408   2.647
 7150SOL    HW221497   5.560   3.353   2.786
 7151SOL     OW21498   3.959   3.097   3.734
 7151SOL    HW121499   3.890   3.039   3.691
 7151SOL    HW221500   3.918   3.146   3.811
 7152SOL     OW21501   3.811   3.091   2.525
 7152SOL    HW121502   3.816   3.045   2.614
 7152SOL    HW221503   3.880   3.052   2.464
 7153SOL     OW21504   5.529   2.044   3.096
 7153SOL    HW121505   5.543   1.948   3.120
 7153SOL    HW221506   5.542   2.056   2.997
 7154SOL     OW21507   4.154   2.290   2.389
 7154SOL    HW121508   4.188   2.220   2.326
 7154SOL    HW221509   4.100   2.247   2.461
 7155SOL     OW21510   5.423   3.340   2.952
 7155SOL    HW121511   5.339   3.326   2.899
 7155SOL    HW221512   5.428   3.273   3.026
 7156SOL     OW21513   4.059   2.418   3.151
 7156SOL    HW121514   4.116   2.361   3.211
 7156SOL    HW221515   4.074   2.392   3.056
 7157SOL     OW21516   4.554   3.440   2.539
 7157SOL    HW121517   4.540   3.503   2.463
 7157SOL    HW221518   4.475   3.378   2.545
 7158SOL     OW21519   5.154   2.093   2.979
 7158SOL    HW121520   5.177   2.003   3.017
 7158SOL    HW221521   5.100   2.144   3.046
 7159SOL     OW21522   4.734   1.878   3.000
 7159SOL    HW121523   4.670   1.815   2.956
 7159SOL    HW221524   4.825   1.838   3.001
 7160SOL     OW21525   4.499   3.194   2.182
 7160SOL    HW121526   4.471   3.098   2.191
 7160SOL    HW221527   4.583   3.208   2.234
 7161SOL     OW21528   4.359   3.417   3.163
 7161SOL    HW121529   4.358   3.509   3.203
 7161SOL    HW221530   4.446   3.402   3.117
 7162SOL     OW21531   5.078   1.912   2.032
 7162SOL    HW121532   5.120   1.845   1.971
 7162SOL    HW221533   4.985   1.883   2.054
 7163SOL     OW21534   5.015   2.326   2.542
 7163SOL    HW121535   4.962   2.411   2.544
 7163SOL    HW221536   5.013   2.284   2.633
 7164SOL     OW21537   5.310   2.065   2.746
 7164SOL    HW121538   5.252   2.085   2.825
 7164SOL    HW221539   5.312   2.145   2.685
 7165SOL     OW21540   3.767   2.926   2.170
 7165SOL    HW121541   3.865   2.926   2.151
 7165SOL    HW221542   3.737   2.833   2.191
 7166SOL     OW21543   4.608   3.524   2.202
 7166SOL    HW121544   4.533   3.503   2.139
 7166SOL    HW221545   4.582   3.601   2.260
 7167SOL     OW21546   3.945   2.479   3.852
 7167SOL    HW121547   3.854   2.481   3.892
 7167SOL    HW221548   3.939   2.458   3.755
 7168SOL     OW21549   3.946   2.145   4.719
 7168SOL    HW121550   3.979   2.110   4.807
 7168SOL    HW221551   3.853   2.112   4.702
 7169SOL     OW21552   3.725   2.248   4.358
 7169SOL    HW121553   3.641   2.278   4.403
 7169SOL    HW221554   3.706   2.165   4.306
 7170SOL     OW21555   4.293   3.159   4.909
 7170SOL    HW121556   4.202   3.156   4.867
 7170SOL    HW221557   4.310   3.252   4.943
 7171SOL     OW21558   5.288   3.375   4.432
 7171SOL    HW121559   5.246   3.351   4.520
 7171SOL    HW221560   5.217   3.382   4.362
 7172SOL     OW21561   4.857   2.565   4.419
 7172SOL    HW121562   4.909   2.649   4.402
 7172SOL    HW221563   4.807   2.573   4.505
 7173SOL     OW21564   5.494   2.461   3.947
 7173SOL    HW121565   5.470   2.457   3.850
 7173SOL    HW221566   5.456   2.382   3.994
 7174SOL     OW21567   4.468   3.003   4.765
 7174SOL    HW121568   4.400   3.038   4.830
 7174SOL    HW221569   4.512   3.080   4.719
 7175SOL     OW21570   4.598   2.626   5.545
 7175SOL    HW121571   4.586   2.694   5.617
 7175SOL    HW221572   4.622   2.672   5.460
 7176SOL     OW21573   4.408   2.861   4.372
 7176SOL    HW121574   4.479   2.851   4.442
 7176SOL    HW221575   4.333   2.917   4.409
 7177SOL     OW21576   4.435   3.015   5.542
 7177SOL    HW121577   4.487   3.094   5.575
 7177SOL    HW221578   4.350   3.047   5.500
 7178SOL     OW21579   4.050   3.285   4.790
 7178SOL    HW121580   3.974   3.240   4.744
 7178SOL    HW221581   4.103   3.338   4.723
 7179SOL     OW21582   5.182   3.364   5.082
 7179SOL    HW121583   5.239   3.445   5.089
 7179SOL    HW221584   5.111   3.366   5.152
 7180SOL     OW21585   4.174   2.255   5.202
 7180SOL    HW121586   4.255   2.198   5.210
 7180SOL    HW221587   4.093   2.201   5.221
 7181SOL     OW21588   5.335   2.308   4.469
 7181SOL    HW121589   5.260   2.327   4.406
 7181SOL    HW221590   5.342   2.383   4.535
 7182SOL     OW21591   3.947   3.576   4.204
 7182SOL    HW121592   3.965   3.656   4.261
 7182SOL    HW221593   4.022   3.564   4.138
 7183SOL     OW21594   4.861   3.202   5.422
 7183SOL    HW121595   4.908   3.200   5.510
 7183SOL    HW221596   4.805   3.120   5.412
 7184SOL     OW21597   3.956   3.308   4.271
 7184SOL    HW121598   3.939   3.407   4.269
 7184SOL    HW221599   3.894   3.264   4.336
 7185SOL     OW21600   3.995   2.952   4.625
 7185SOL    HW121601   3.990   2.858   4.657
 7185SOL    HW221602   3.931   3.009   4.678
 7186SOL     OW21603   4.323   3.659   5.150
 7186SOL    HW121604   4.240   3.635   5.200
 7186SOL    HW221605   4.354   3.749   5.178
 7187SOL     OW21606   4.307   2.849   3.862
 7187SOL    HW121607   4.353   2.894   3.785
 7187SOL    HW221608   4.347   2.882   3.948
 7188SOL     OW21609   5.321   1.987   5.193
 7188SOL    HW121610   5.340   2.067   5.137
 7188SOL    HW221611   5.306   2.015   5.288
 7189SOL     OW21612   3.838   2.522   4.288
 7189SOL    HW121613   3.809   2.428   4.305
 7189SOL    HW221614   3.832   2.575   4.373
 7190SOL     OW21615   5.570   3.618   4.058
 7190SOL    HW121616   5.641   3.589   4.122
 7190SOL    HW221617   5.586   3.713   4.031
 7191SOL     OW21618   3.675   3.451   3.879
 7191SOL    HW121619   3.711   3.359   3.899
 7191SOL    HW221620   3.706   3.515   3.949
 7192SOL     OW21621   5.415   2.783   4.371
 7192SOL    HW121622   5.500   2.732   4.354
 7192SOL    HW221623   5.391   2.836   4.290
 7193SOL     OW21624   5.377   2.967   4.156
 7193SOL    HW121625   5.466   2.963   4.110
 7193SOL    HW221626   5.379   3.034   4.230
 7194SOL     OW21627   3.848   2.606   5.309
 7194SOL    HW121628   3.944   2.633   5.310
 7194SOL    HW221629   3.791   2.689   5.311
 7195SOL     OW21630   4.337   3.255   4.452
 7195SOL    HW121631   4.291   3.167   4.466
 7195SOL    HW221632   4.323   3.286   4.358
 7196SOL     OW21633   5.013   3.097   5.145
 7196SOL    HW121634   5.040   3.026   5.080
 7196SOL    HW221635   5.072   3.093   5.226
 7197SOL     OW21636   4.541   1.871   4.232
 7197SOL    HW121637   4.587   1.957   4.209
 7197SOL    HW221638   4.443   1.887   4.240
 7198SOL     OW21639   3.915   2.824   5.000
 7198SOL    HW121640   4.004   2.780   4.986
 7198SOL    HW221641   3.845   2.776   4.947
 7199SOL     OW21642   5.256   2.863   3.927
 7199SOL    HW121643   5.182   2.802   3.957
 7199SOL    HW221644   5.303   2.900   4.008
 7200SOL     OW21645   4.905   3.673   5.346
 7200SOL    HW121646   4.914   3.742   5.274
 7200SOL    HW221647   4.926   3.583   5.309
 7201SOL     OW21648   4.065   2.111   5.555
 7201SOL    HW121649   4.114   2.197   5.571
 7201SOL    HW221650   3.968   2.124   5.575
 7202SOL     OW21651   5.189   3.282   4.671
 7202SOL    HW121652   5.122   3.301   4.743
 7202SOL    HW221653   5.180   3.186   4.643
 7203SOL     OW21654   5.374   3.611   4.302
 7203SOL    HW121655   5.357   3.582   4.208
 7203SOL    HW221656   5.353   3.535   4.364
 7204SOL     OW21657   4.318   2.583   3.996
 7204SOL    HW121658   4.322   2.668   3.944
 7204SOL    HW221659   4.249   2.591   4.068
 7205SOL     OW21660   5.001   2.221   4.657
 7205SOL    HW121661   4.908   2.186   4.664
 7205SOL    HW221662   5.060   2.168   4.719
 7206SOL     OW21663   5.309   3.535   4.036
 7206SOL    HW121664   5.405   3.564   4.033
 7206SOL    HW221665   5.277   3.517   3.943
 7207SOL     OW21666   4.514   2.475   5.173
 7207SOL    HW121667   4.489   2.451   5.267
 7207SOL    HW221668   4.476   2.407   5.111
 7208SOL     OW21669   5.115   2.332   5.403
 7208SOL    HW121670   5.116   2.381   5.490
 7208SOL    HW221671   5.176   2.253   5.410
 7209SOL     OW21672   4.677   2.747   5.307
 7209SOL    HW121673   4.735   2.675   5.269
 7209SOL    HW221674   4.623   2.788   5.234
 7210SOL     OW21675   4.718   2.268   4.953
 7210SOL    HW121676   4.628   2.290   4.991
 7210SOL    HW221677   4.707   2.219   4.867
 7211SOL     OW21678   4.774   2.561   4.149
 7211SOL    HW121679   4.796   2.556   4.246
 7211SOL    HW221680   4.688   2.513   4.131
 7212SOL     OW21681   3.813   2.689   4.504
 7212SOL    HW121682   3.898   2.677   4.554
 7212SOL    HW221683   3.763   2.768   4.540
 7213SOL     OW21684   3.852   3.733   5.312
 7213SOL    HW121685   3.857   3.706   5.408
 7213SOL    HW221686   3.767   3.700   5.272
 7214SOL     OW21687   4.620   2.214   3.921
 7214SOL    HW121688   4.660   2.282   3.859
 7214SOL    HW221689   4.628   2.123   3.880
 7215SOL     OW21690   5.425   2.435   5.550
 7215SOL    HW121691   5.390   2.514   5.500
 7215SOL    HW221692   5.455   2.365   5.485
 7216SOL     OW21693   5.105   3.004   4.259
 7216SOL    HW121694   5.189   2.989   4.207
 7216SOL    HW221695   5.049   3.072   4.211
 7217SOL     OW21696   4.271   2.035   4.624
 7217SOL    HW121697   4.275   2.065   4.720
 7217SOL    HW221698   4.274   2.115   4.564
 7218SOL     OW21699   4.726   3.306   4.198
 7218SOL    HW121700   4.699   3.386   4.145
 7218SOL    HW221701   4.705   3.321   4.294
 7219SOL     OW21702   4.080   3.676   4.595
 7219SOL    HW121703   4.124   3.586   4.602
 7219SOL    HW221704   4.147   3.747   4.614
 7220SOL     OW21705   5.522   2.919   4.596
 7220SOL    HW121706   5.471   2.895   4.513
 7220SOL    HW221707   5.459   2.924   4.673
 7221SOL     OW21708   4.950   3.398   5.238
 7221SOL    HW121709   4.938   3.324   5.304
 7221SOL    HW221710   4.882   3.390   5.165
 7222SOL     OW21711   4.045   2.819   3.979
 7222SOL    HW121712   4.131   2.846   3.935
 7222SOL    HW221713   4.010   2.735   3.937
 7223SOL     OW21714   5.207   2.612   4.447
 7223SOL    HW121715   5.201   2.567   4.536
 7223SOL    HW221716   5.288   2.671   4.445
 7224SOL     OW21717   4.193   3.127   5.455
 7224SOL    HW121718   4.166   3.133   5.359
 7224SOL    HW221719   4.110   3.124   5.512
 7225SOL     OW21720   4.843   3.634   3.940
 7225SOL    HW121721   4.765   3.599   3.991
 7225SOL    HW221722   4.875   3.564   3.875
 7226SOL     OW21723   3.926   2.137   5.227
 7226SOL    HW121724   3.844   2.194   5.223
 7226SOL    HW221725   3.905   2.050   5.272
 7227SOL     OW21726   5.349   3.240   3.817
 7227SOL    HW121727   5.309   3.331   3.808
 7227SOL    HW221728   5.279   3.171   3.795
 7228SOL     OW21729   4.188   3.598   4.060
 7228SOL    HW121730   4.225   3.664   4.125
 7228SOL    HW221731   4.252   3.587   3.984
 7229SOL     OW21732   5.125   1.966   4.160
 7229SOL    HW121733   5.113   1.941   4.064
 7229SOL    HW221734   5.223   1.975   4.180
 7230SOL     OW21735   3.982   3.654   4.950
 7230SOL    HW121736   4.033   3.581   4.997
 7230SOL    HW221737   3.964   3.626   4.856
 7231SOL     OW21738   4.660   3.565   4.621
 7231SOL    HW121739   4.742   3.518   4.654
 7231SOL    HW221740   4.618   3.511   4.547
 7232SOL     OW21741   4.120   2.550   4.200
 7232SOL    HW121742   4.140   2.453   4.213
 7232SOL    HW221743   4.023   2.567   4.216
 7233SOL     OW21744   5.252   2.085   5.452
 7233SOL    HW121745   5.263   2.106   5.549
 7233SOL    HW221746   5.180   2.017   5.441
 7234SOL     OW21747   4.365   1.979   3.826
 7234SOL    HW121748   4.433   1.910   3.848
 7234SOL    HW221749   4.309   1.948   3.749
 7235SOL     OW21750   4.487   2.138   5.481
 7235SOL    HW121751   4.572   2.085   5.475
 7235SOL    HW221752   4.436   2.110   5.562
 7236SOL     OW21753   4.599   3.377   4.916
 7236SOL    HW121754   4.579   3.340   4.825
 7236SOL    HW221755   4.671   3.323   4.959
 7237SOL     OW21756   5.064   2.451   5.159
 7237SOL    HW121757   5.094   2.416   5.248
 7237SOL    HW221758   5.099   2.543   5.146
 7238SOL     OW21759   4.544   3.251   4.665
 7238SOL    HW121760   4.634   3.239   4.623
 7238SOL    HW221761   4.474   3.257   4.593
 7239SOL     OW21762   4.651   2.370   4.622
 7239SOL    HW121763   4.625   2.362   4.525
 7239SOL    HW221764   4.683   2.281   4.654
 7240SOL     OW21765   4.271   1.926   4.218
 7240SOL    HW121766   4.189   1.924   4.276
 7240SOL    HW221767   4.268   2.007   4.159
 7241SOL     OW21768   5.148   3.060   3.767
 7241SOL    HW121769   5.184   2.982   3.818
 7241SOL    HW221770   5.059   3.087   3.804
 7242SOL     OW21771   4.014   1.910   3.910
 7242SOL    HW121772   4.067   1.982   3.864
 7242SOL    HW221773   4.077   1.846   3.953
 7243SOL     OW21774   4.670   2.113   4.180
 7243SOL    HW121775   4.638   2.154   4.095
 7243SOL    HW221776   4.769   2.126   4.189
 7244SOL     OW21777   4.803   2.545   5.179
 7244SOL    HW121778   4.728   2.479   5.185
 7244SOL    HW221779   4.890   2.496   5.175
 7245SOL     OW21780   4.944   3.431   4.517
 7245SOL    HW121781   4.958   3.501   4.448
 7245SOL    HW221782   5.015   3.439   4.588
 7246SOL     OW21783   4.193   3.016   4.451
 7246SOL    HW121784   4.126   2.994   4.523
 7246SOL    HW221785   4.151   3.002   4.362
 7247SOL     OW21786   4.987   3.654   4.334
 7247SOL    HW121787   5.040   3.716   4.277
 7247SOL    HW221788   4.915   3.704   4.381
 7248SOL     OW21789   4.745   2.398   3.753
 7248SOL    HW121790   4.700   2.484   3.729
 7248SOL    HW221791   4.814   2.415   3.823
 7249SOL     OW21792   3.810   2.419   5.115
 7249SOL    HW121793   3.905   2.415   5.083
 7249SOL    HW221794   3.802   2.490   5.185
 7250SOL     OW21795   4.282   2.086   4.896
 7250SOL    HW121796   4.332   2.010   4.938
 7250SOL    HW221797   4.187   2.084   4.926
 7251SOL     OW21798   4.590   2.321   4.360
 7251SOL    HW121799   4.542   2.382   4.298
 7251SOL    HW221800   4.618   2.238   4.311
 7252SOL     OW21801   4.741   1.915   4.470
 7252SOL    HW121802   4.680   1.915   4.390
 7252SOL    HW221803   4.716   1.839   4.530
 7253SOL     OW21804   5.169   3.023   4.582
 7253SOL    HW121805   5.093   2.957   4.587
 7253SOL    HW221806   5.197   3.034   4.487
 7254SOL     OW21807   5.192   2.470   4.694
 7254SOL    HW121808   5.130   2.392   4.694
 7254SOL    HW221809   5.253   2.464   4.773
 7255SOL     OW21810   5.566   2.671   4.104
 7255SOL    HW121811   5.624   2.623   4.170
 7255SOL    HW221812   5.536   2.607   4.033
 7256SOL     OW21813   4.226   3.203   3.934
 7256SOL    HW121814   4.132   3.206   3.967
 7256SOL    HW221815   4.226   3.190   3.835
 7257SOL     OW21816   5.399   3.129   4.366
 7257SOL    HW121817   5.498   3.126   4.379
 7257SOL    HW221818   5.365   3.221   4.388
 7258SOL     OW21819   5.114   2.436   3.795
 7258SOL    HW121820   5.051   2.414   3.869
 7258SOL    HW221821   5.207   2.410   3.820
 7259SOL     OW21822   4.252   2.126   4.034
 7259SOL    HW121823   4.299   2.074   3.963
 7259SOL    HW221824   4.224   2.215   3.996
 7260SOL     OW21825   5.476   3.103   5.284
 7260SOL    HW121826   5.566   3.060   5.272
 7260SOL    HW221827   5.488   3.196   5.319
 7261SOL     OW21828   4.777   3.212   5.060
 7261SOL    HW121829   4.696   3.182   5.110
 7261SOL    HW221830   4.859   3.172   5.102
 7262SOL     OW21831   5.337   3.491   5.381
 7262SOL    HW121832   5.322   3.527   5.288
 7262SOL    HW221833   5.423   3.440   5.383
 7263SOL     OW21834   4.861   3.081   4.829
 7263SOL    HW121835   4.801   3.115   4.902
 7263SOL    HW221836   4.826   3.111   4.740
 7264SOL     OW21837   5.348   2.959   4.803
 7264SOL    HW121838   5.345   3.024   4.879
 7264SOL    HW221839   5.272   2.975   4.741
 7265SOL     OW21840   4.647   1.956   5.116
 7265SOL    HW121841   4.669   1.934   5.021
 7265SOL    HW221842   4.727   2.000   5.158
 7266SOL     OW21843   4.703   2.977   5.445
 7266SOL    HW121844   4.609   2.996   5.472
 7266SOL    HW221845   4.705   2.894   5.389
 7267SOL     OW21846   4.438   2.925   4.096
 7267SOL    HW121847   4.418   2.905   4.192
 7267SOL    HW221848   4.516   2.870   4.066
 7268SOL     OW21849   4.146   2.677   4.978
 7268SOL    HW121850   4.219   2.690   5.045
 7268SOL    HW221851   4.107   2.585   4.988
 7269SOL     OW21852   4.987   2.238   5.004
 7269SOL    HW121853   5.023   2.317   5.053
 7269SOL    HW221854   4.891   2.256   4.979
 7270SOL     OW21855   3.798   3.434   5.077
 7270SOL    HW121856   3.763   3.504   5.016
 7270SOL    HW221857   3.898   3.432   5.072
 7271SOL     OW21858   4.068   2.981   4.210
 7271SOL    HW121859   4.074   3.062   4.152
 7271SOL    HW221860   4.065   2.899   4.152
 7272SOL     OW21861   4.272   2.405   4.586
 7272SOL    HW121862   4.286   2.464   4.507
 7272SOL    HW221863   4.341   2.425   4.655
 7273SOL     OW21864   4.972   3.216   4.121
 7273SOL    HW121865   5.034   3.288   4.151
 7273SOL    HW221866   4.880   3.234   4.154
 7274SOL     OW21867   5.012   3.324   4.871
 7274SOL    HW121868   5.070   3.330   4.952
 7274SOL    HW221869   4.957   3.240   4.876
 7275SOL     OW21870   5.301   2.483   4.207
 7275SOL    HW121871   5.250   2.530   4.278
 7275SOL    HW221872   5.348   2.550   4.149
 7276SOL     OW21873   4.072   3.392   5.034
 7276SOL    HW121874   4.056   3.347   4.946
 7276SOL    HW221875   4.170   3.406   5.046
 7277SOL     OW21876   4.139   2.608   5.324
 7277SOL    HW121877   4.206   2.654   5.265
 7277SOL    HW221878   4.172   2.517   5.347
 7278SOL     OW21879   5.332   2.647   5.408
 7278SOL    HW121880   5.241   2.688   5.406
 7278SOL    HW221881   5.389   2.688   5.337
 7279SOL     OW21882   4.721   1.996   5.474
 7279SOL    HW121883   4.779   2.076   5.458
 7279SOL    HW221884   4.770   1.913   5.447
 7280SOL     OW21885   4.216   1.898   5.474
 7280SOL    HW121886   4.172   1.840   5.406
 7280SOL    HW221887   4.159   1.978   5.493
 7281SOL     OW21888   4.308   2.733   4.759
 7281SOL    HW121889   4.343   2.827   4.756
 7281SOL    HW221890   4.248   2.723   4.838
 7282SOL     OW21891   5.076   2.719   4.748
 7282SOL    HW121892   4.985   2.710   4.707
 7282SOL    HW221893   5.125   2.632   4.739
 7283SOL     OW21894   4.922   2.389   3.988
 7283SOL    HW121895   4.934   2.306   4.043
 7283SOL    HW221896   4.877   2.459   4.044
 7284SOL     OW21897   4.021   2.058   4.971
 7284SOL    HW121898   3.985   2.095   5.057
 7284SOL    HW221899   4.005   1.960   4.967
 7285SOL     OW21900   3.776   3.172   4.999
 7285SOL    HW121901   3.808   3.111   5.071
 7285SOL    HW221902   3.779   3.266   5.032
 7286SOL     OW21903   4.448   2.493   4.779
 7286SOL    HW121904   4.525   2.473   4.718
 7286SOL    HW221905   4.413   2.584   4.760
 7287SOL     OW21906   5.460   2.823   5.580
 7287SOL    HW121907   5.417   2.754   5.522
 7287SOL    HW221908   5.401   2.842   5.658
 7288SOL     OW21909   4.030   1.923   4.352
 7288SOL    HW121910   4.006   2.018   4.370
 7288SOL    HW221911   4.041   1.874   4.439
 7289SOL     OW21912   5.351   2.243   4.086
 7289SOL    HW121913   5.377   2.169   4.149
 7289SOL    HW221914   5.323   2.323   4.139
 7290SOL     OW21915   4.748   2.617   4.682
 7290SOL    HW121916   4.742   2.639   4.779
 7290SOL    HW221917   4.721   2.522   4.667
 7291SOL     OW21918   4.705   3.425   5.442
 7291SOL    HW121919   4.689   3.472   5.355
 7291SOL    HW221920   4.753   3.339   5.424
 7292SOL     OW21921   5.579   3.365   5.327
 7292SOL    HW121922   5.598   3.392   5.233
 7292SOL    HW221923   5.661   3.377   5.383
 7293SOL     OW21924   4.077   2.780   5.529
 7293SOL    HW121925   4.157   2.802   5.585
 7293SOL    HW221926   4.102   2.715   5.458
 7294SOL     OW21927   5.251   2.131   3.854
 7294SOL    HW121928   5.182   2.063   3.879
 7294SOL    HW221929   5.288   2.173   3.937
 7295SOL     OW21930   5.013   2.688   3.750
 7295SOL    HW121931   5.053   2.597   3.759
 7295SOL    HW221932   5.044   2.730   3.665
 7296SOL     OW21933   4.793   3.200   4.578
 7296SOL    HW121934   4.797   3.121   4.516
 7296SOL    HW221935   4.853   3.272   4.544
 7297SOL     OW21936   4.035   2.668   4.667
 7297SOL    HW121937   4.132   2.694   4.661
 7297SOL    HW221938   4.027   2.574   4.699
 7298SOL     OW21939   4.051   2.389   4.735
 7298SOL    HW121940   4.012   2.298   4.725
 7298SOL    HW221941   4.132   2.398   4.677
 7299SOL     OW21942   4.858   2.235   5.416
 7299SOL    HW121943   4.805   2.292   5.479
 7299SOL    HW221944   4.950   2.272   5.407
 7300SOL     OW21945   4.886   2.065   5.200
 7300SOL    HW121946   4.871   2.127   5.276
 7300SOL    HW221947   4.928   2.115   5.124
 7301SOL     OW21948   3.730   3.173   3.920
 7301SOL    HW121949   3.640   3.190   3.882
 7301SOL    HW221950   3.734   3.080   3.957
 7302SOL     OW21951   3.817   3.645   4.668
 7302SOL    HW121952   3.781   3.564   4.622
 7302SOL    HW221953   3.911   3.662   4.636
 7303SOL     OW21954   4.218   3.437   4.628
 7303SOL    HW121955   4.287   3.504   4.655
 7303SOL    HW221956   4.258   3.371   4.566
 7304SOL     OW21957   4.698   2.656   4.948
 7304SOL    HW121958   4.759   2.632   5.024
 7304SOL    HW221959   4.609   2.613   4.962
 7305SOL     OW21960   3.761   2.414   4.841
 7305SOL    HW121961   3.843   2.401   4.786
 7305SOL    HW221962   3.786   2.416   4.938
 7306SOL     OW21963   3.916   2.385   5.454
 7306SOL    HW121964   3.969   2.331   5.388
 7306SOL    HW221965   3.877   2.465   5.408
 7307SOL     OW21966   5.104   2.797   5.379
 7307SOL    HW121967   5.127   2.894   5.380
 7307SOL    HW221968   5.101   2.765   5.284
 7308SOL     OW21969   4.541   2.435   4.084
 7308SOL    HW121970   4.550   2.355   4.025
 7308SOL    HW221971   4.463   2.490   4.055
 7309SOL     OW21972   5.366   2.465   4.905
 7309SOL    HW121973   5.350   2.406   4.983
 7309SOL    HW221974   5.458   2.448   4.868
 7310SOL     OW21975   3.964   3.409   5.450
 7310SOL    HW121976   3.942   3.483   5.513
 7310SOL    HW221977   3.970   3.323   5.500
 7311SOL     OW21978   4.432   2.309   4.977
 7311SOL    HW121979   4.374   2.232   4.953
 7311SOL    HW221980   4.429   2.377   4.904
 7312SOL     OW21981   4.644   3.543   5.195
 7312SOL    HW121982   4.618   3.497   5.110
 7312SOL    HW221983   4.644   3.642   5.181
 7313SOL     OW21984   4.184   2.358   3.910
 7313SOL    HW121985   4.248   2.431   3.935
 7313SOL    HW221986   4.093   2.396   3.896
 7314SOL     OW21987   3.866   2.999   5.199
 7314SOL    HW121988   3.868   2.955   5.289
 7314SOL    HW221989   3.886   2.932   5.128
 7315SOL     OW21990   5.040   2.906   4.943
 7315SOL    HW121991   5.067   2.838   4.874
 7315SOL    HW221992   4.972   2.968   4.903
 7316SOL     OW21993   5.039   2.720   4.023
 7316SOL    HW121994   4.964   2.691   4.082
 7316SOL    HW221995   5.014   2.706   3.927
 7317SOL     OW21996   5.503   3.592   4.880
 7317SOL    HW121997   5.565   3.626   4.809
 7317SOL    HW221998   5.473   3.500   4.856
 7318SOL     OW21999   4.965   3.594   4.828
 7318SOL    HW122000   5.051   3.623   4.786
 7318SOL    HW222001   4.971   3.498   4.853
 7319SOL     OW22002   3.810   3.127   4.734
 7319SOL    HW122003   3.794   3.142   4.832
 7319SOL    HW222004   3.738   3.068   4.697
 7320SOL     OW22005   4.405   3.535   5.460
 7320SOL    HW122006   4.342   3.613   5.455
 7320SOL    HW222007   4.478   3.547   5.393
 7321SOL     OW22008   5.444   2.012   4.223
 7321SOL    HW122009   5.519   2.001   4.158
 7321SOL    HW222010   5.426   1.924   4.268
 7322SOL     OW22011   5.119   3.433   4.211
 7322SOL    HW122012   5.184   3.466   4.143
 7322SOL    HW222013   5.064   3.510   4.245
 7323SOL     OW22014   3.869   3.649   5.570
 7323SOL    HW122015   3.812   3.581   5.615
 7323SOL    HW222016   3.919   3.702   5.638
 7324SOL     OW22017   5.006   2.790   4.390
 7324SOL    HW122018   5.080   2.725   4.406
 7324SOL    HW222019   5.040   2.867   4.336
 7325SOL     OW22020   4.528   3.141   5.150
 7325SOL    HW122021   4.499   3.184   5.235
 7325SOL    HW222022   4.458   3.155   5.080
 7326SOL     OW22023   5.341   3.591   5.111
 7326SOL    HW122024   5.398   3.591   5.029
 7326SOL    HW222025   5.327   3.684   5.143
 7327SOL     OW22026   5.566   2.031   4.687
 7327SOL    HW122027   5.600   1.940   4.665
 7327SOL    HW222028   5.475   2.043   4.648
 7328SOL     OW22029   3.979   2.175   4.439
 7328SOL    HW122030   3.891   2.213   4.412
 7328SOL    HW222031   3.983   2.168   4.539
 7329SOL     OW22032   4.942   3.449   3.754
 7329SOL    HW122033   4.933   3.360   3.798
 7329SOL    HW222034   4.901   3.446   3.663
 7330SOL     OW22035   4.547   2.872   5.102
 7330SOL    HW122036   4.598   2.856   5.017
 7330SOL    HW222037   4.545   2.970   5.122
 7331SOL     OW22038   4.645   2.774   4.010
 7331SOL    HW122039   4.707   2.810   3.941
 7331SOL    HW222040   4.691   2.702   4.062
 7332SOL     OW22041   5.215   3.490   3.775
 7332SOL    HW122042   5.117   3.474   3.764
 7332SOL    HW222043   5.257   3.499   3.684
 7333SOL     OW22044   4.090   3.165   5.211
 7333SOL    HW122045   4.079   3.246   5.152
 7333SOL    HW222046   4.010   3.106   5.200
 7334SOL     OW22047   5.338   3.146   5.009
 7334SOL    HW122048   5.400   3.127   5.084
 7334SOL    HW222049   5.272   3.216   5.037
 7335SOL     OW22050   4.785   2.968   4.438
 7335SOL    HW122051   4.709   2.919   4.478
 7335SOL    HW222052   4.854   2.903   4.405
 7336SOL     OW22053   4.747   2.101   4.691
 7336SOL    HW122054   4.742   2.057   4.601
 7336SOL    HW222055   4.744   2.031   4.762
 7337SOL     OW22056   4.329   3.357   4.195
 7337SOL    HW122057   4.358   3.291   4.126
 7337SOL    HW222058   4.248   3.406   4.162
 7338SOL     OW22059   5.455   2.256   5.104
 7338SOL    HW122060   5.528   2.324   5.105
 7338SOL    HW222061   5.481   2.181   5.044
 7339SOL     OW22062   3.974   3.212   4.025
 7339SOL    HW122063   3.881   3.205   3.991
 7339SOL    HW222064   3.973   3.252   4.117
 7340SOL     OW22065   3.838   2.896   5.452
 7340SOL    HW122066   3.757   2.869   5.502
 7340SOL    HW222067   3.919   2.851   5.491
 7341SOL     OW22068   4.407   2.056   5.224
 7341SOL    HW122069   4.494   2.032   5.180
 7341SOL    HW222070   4.425   2.090   5.316
 7342SOL     OW22071   3.805   2.190   3.753
 7342SOL    HW122072   3.714   2.167   3.721
 7342SOL    HW222073   3.838   2.271   3.705
 7343SOL     OW22074   5.147   2.718   5.119
 7343SOL    HW122075   5.092   2.782   5.065
 7343SOL    HW222076   5.242   2.720   5.086
 7344SOL     OW22077   3.787   2.017   4.026
 7344SOL    HW122078   3.770   2.101   3.975
 7344SOL    HW222079   3.875   1.979   3.999
 7345SOL     OW22080   4.904   3.195   3.854
 7345SOL    HW122081   4.812   3.158   3.847
 7345SOL    HW222082   4.933   3.196   3.950
 7346SOL     OW22083   4.347   2.692   5.158
 7346SOL    HW122084   4.405   2.773   5.143
 7346SOL    HW222085   4.405   2.611   5.167
 7347SOL     OW22086   5.209   3.650   4.711
 7347SOL    HW122087   5.231   3.713   4.637
 7347SOL    HW222088   5.294   3.616   4.752
 7348SOL     OW22089   4.446   2.420   5.427
 7348SOL    HW122090   4.490   2.487   5.486
 7348SOL    HW222091   4.465   2.328   5.460
 7349SOL     OW22092   5.197   3.058   5.358
 7349SOL    HW122093   5.182   3.071   5.456
 7349SOL    HW222094   5.293   3.077   5.337
 7350SOL     OW22095   4.095   3.600   5.291
 7350SOL    HW122096   4.011   3.652   5.276
 7350SOL    HW222097   4.073   3.512   5.333
 7351SOL     OW22098   5.390   2.740   4.980
 7351SOL    HW122099   5.385   2.649   4.939
 7351SOL    HW222100   5.377   2.809   4.909
 7352SOL     OW22101   4.944   2.179   4.184
 7352SOL    HW122102   5.007   2.102   4.174
 7352SOL    HW222103   4.970   2.234   4.263
 7353SOL     OW22104   4.311   2.599   4.393
 7353SOL    HW122105   4.352   2.689   4.382
 7353SOL    HW222106   4.241   2.585   4.322
 7354SOL     OW22107   5.475   2.227   5.376
 7354SOL    HW122108   5.465   2.243   5.278
 7354SOL    HW222109   5.401   2.167   5.408
 7355SOL     OW22110   5.476   2.794   5.233
 7355SOL    HW122111   5.465   2.891   5.255
 7355SOL    HW222112   5.455   2.779   5.137
 7356SOL     OW22113   4.601   3.196   3.788
 7356SOL    HW122114   4.564   3.206   3.880
 7356SOL    HW222115   4.619   3.287   3.750
 7357SOL     OW22116   4.389   3.647   4.664
 7357SOL    HW122117   4.365   3.742   4.644
 7357SOL    HW222118   4.488   3.635   4.656
 7358SOL     OW22119   4.593   2.833   4.580
 7358SOL    HW122120   4.644   2.755   4.617
 7358SOL    HW222121   4.551   2.883   4.656
 7359SOL     OW22122   4.805   2.856   3.809
 7359SOL    HW122123   4.773   2.905   3.728
 7359SOL    HW222124   4.881   2.795   3.784
 7360SOL     OW22125   5.570   3.418   4.571
 7360SOL    HW122126   5.493   3.406   4.509
 7360SOL    HW222127   5.565   3.349   4.644
 7361SOL     OW22128   3.955   3.161   5.581
 7361SOL    HW122129   3.889   3.094   5.546
 7361SOL    HW222130   3.940   3.174   5.679
 7362SOL     OW22131   3.810   3.092   4.388
 7362SOL    HW122132   3.815   3.044   4.476
 7362SOL    HW222133   3.878   3.053   4.326
 7363SOL     OW22134   4.406   3.271   5.357
 7363SOL    HW122135   4.326   3.221   5.389
 7363SOL    HW222136   4.405   3.364   5.394
 7364SOL     OW22137   5.529   2.045   4.958
 7364SOL    HW122138   5.543   1.949   4.982
 7364SOL    HW222139   5.542   2.056   4.859
 7365SOL     OW22140   4.155   2.290   4.251
 7365SOL    HW122141   4.188   2.220   4.188
 7365SOL    HW222142   4.100   2.246   4.323
 7366SOL     OW22143   5.418   3.344   4.818
 7366SOL    HW122144   5.336   3.326   4.762
 7366SOL    HW222145   5.426   3.274   4.888
 7367SOL     OW22146   4.059   2.418   5.013
 7367SOL    HW122147   4.116   2.361   5.073
 7367SOL    HW222148   4.074   2.392   4.918
 7368SOL     OW22149   4.553   3.441   4.403
 7368SOL    HW122150   4.533   3.507   4.331
 7368SOL    HW222151   4.477   3.376   4.411
 7369SOL     OW22152   5.154   2.093   4.841
 7369SOL    HW122153   5.177   2.003   4.879
 7369SOL    HW222154   5.100   2.144   4.908
 7370SOL     OW22155   4.734   1.878   4.862
 7370SOL    HW122156   4.670   1.815   4.818
 7370SOL    HW222157   4.825   1.838   4.863
 7371SOL     OW22158   4.515   3.197   4.042
 7371SOL    HW122159   4.468   3.109   4.050
 7371SOL    HW222160   4.590   3.202   4.108
 7372SOL     OW22161   4.347   3.421   5.013
 7372SOL    HW122162   4.345   3.508   5.063
 7372SOL    HW222163   4.438   3.408   4.973
 7373SOL     OW22164   5.078   1.912   3.894
 7373SOL    HW122165   5.120   1.845   3.833
 7373SOL    HW222166   4.985   1.883   3.916
 7374SOL     OW22167   5.016   2.326   4.404
 7374SOL    HW122168   4.962   2.411   4.406
 7374SOL    HW222169   5.013   2.284   4.495
 7375SOL     OW22170   5.310   2.065   4.608
 7375SOL    HW122171   5.252   2.084   4.687
 7375SOL    HW222172   5.312   2.145   4.547
 7376SOL     OW22173   3.769   2.924   4.032
 7376SOL    HW122174   3.867   2.923   4.011
 7376SOL    HW222175   3.738   2.832   4.055
 7377SOL     OW22176   4.610   3.520   4.065
 7377SOL    HW122177   4.531   3.461   4.050
 7377SOL    HW222178   4.584   3.598   4.121
 7378SOL     OW22179   3.945   2.482   5.714
 7378SOL    HW122180   3.854   2.481   5.754
 7378SOL    HW222181   3.939   2.459   5.616
 7379SOL     OW22182   3.944   2.150   6.582
 7379SOL    HW122183   3.980   2.111   6.667
 7379SOL    HW222184   3.853   2.113   6.565
 7380SOL     OW22185   3.724   2.248   6.221
 7380SOL    HW122186   3.640   2.279   6.265
 7380SOL    HW222187   3.706   2.165   6.169
 7381SOL     OW22188   4.283   3.143   6.756
 7381SOL    HW122189   4.195   3.164   6.713
 7381SOL    HW222190   4.312   3.221   6.811
 7382SOL     OW22191   5.288   3.375   6.294
 7382SOL    HW122192   5.244   3.352   6.381
 7382SOL    HW222193   5.219   3.383   6.222
 7383SOL     OW22194   4.856   2.565   6.281
 7383SOL    HW122195   4.908   2.649   6.266
 7383SOL    HW222196   4.805   2.572   6.366
 7384SOL     OW22197   5.495   2.461   5.808
 7384SOL    HW122198   5.471   2.457   5.712
 7384SOL    HW222199   5.456   2.382   5.856
 7385SOL     OW22200   4.482   3.005   6.629
 7385SOL    HW122201   4.407   3.032   6.690
 7385SOL    HW222202   4.514   3.086   6.579
 7386SOL     OW22203   4.408   2.861   6.235
 7386SOL    HW122204   4.479   2.850   6.304
 7386SOL    HW222205   4.333   2.917   6.271
 7387SOL     OW22206   4.056   3.274   6.649
 7387SOL    HW122207   3.971   3.241   6.607
 7387SOL    HW222208   4.103   3.336   6.586
 7388SOL     OW22209   5.335   2.309   6.330
 7388SOL    HW122210   5.259   2.326   6.267
 7388SOL    HW222211   5.337   2.381   6.400
 7389SOL     OW22212   3.946   3.576   6.057
 7389SOL    HW122213   3.964   3.655   6.116
 7389SOL    HW222214   4.021   3.566   5.992
 7390SOL     OW22215   3.957   3.305   6.122
 7390SOL    HW122216   3.941   3.404   6.122
 7390SOL    HW222217   3.897   3.262   6.190
 7391SOL     OW22218   3.991   2.953   6.487
 7391SOL    HW122219   3.987   2.859   6.522
 7391SOL    HW222220   3.932   3.012   6.542
 7392SOL     OW22221   4.338   3.667   6.988
 7392SOL    HW122222   4.249   3.639   0.023
 7392SOL    HW222223   4.360   3.759   0.022
 7393SOL     OW22224   4.306   2.849   5.727
 7393SOL    HW122225   4.354   2.896   5.652
 7393SOL    HW222226   4.346   2.877   5.814
 7394SOL     OW22227   3.838   2.523   6.150
 7394SOL    HW122228   3.808   2.429   6.167
 7394SOL    HW222229   3.832   2.575   6.235
 7395SOL     OW22230   5.570   3.617   5.918
 7395SOL    HW122231   5.639   3.587   5.984
 7395SOL    HW222232   5.586   3.713   5.895
 7396SOL     OW22233   3.753   3.453   5.709
 7396SOL    HW122234   3.737   3.356   5.728
 7396SOL    HW222235   3.732   3.506   5.791
 7397SOL     OW22236   5.415   2.782   6.231
 7397SOL    HW122237   5.499   2.732   6.215
 7397SOL    HW222238   5.391   2.836   6.150
 7398SOL     OW22239   5.377   2.967   6.018
 7398SOL    HW122240   5.466   2.964   5.972
 7398SOL    HW222241   5.379   3.034   6.092
 7399SOL     OW22242   4.336   3.252   6.320
 7399SOL    HW122243   4.289   3.165   6.333
 7399SOL    HW222244   4.322   3.283   6.226
 7400SOL     OW22245   4.541   1.871   6.094
 7400SOL    HW122246   4.587   1.957   6.072
 7400SOL    HW222247   4.443   1.887   6.102
 7401SOL     OW22248   3.916   2.840   6.847
 7401SOL    HW122249   3.999   2.786   6.831
 7401SOL    HW222250   3.836   2.786   6.821
 7402SOL     OW22251   5.256   2.862   5.790
 7402SOL    HW122252   5.182   2.802   5.820
 7402SOL    HW222253   5.303   2.900   5.870
 7403SOL     OW22254   5.176   3.285   6.531
 7403SOL    HW122255   5.118   3.299   6.612
 7403SOL    HW222256   5.173   3.189   6.505
 7404SOL     OW22257   5.373   3.612   6.161
 7404SOL    HW122258   5.355   3.581   6.068
 7404SOL    HW222259   5.354   3.537   6.225
 7405SOL     OW22260   4.319   2.581   5.859
 7405SOL    HW122261   4.324   2.666   5.807
 7405SOL    HW222262   4.249   2.590   5.930
 7406SOL     OW22263   4.999   2.218   6.517
 7406SOL    HW122264   4.905   2.185   6.525
 7406SOL    HW222265   5.057   2.168   6.581
 7407SOL     OW22266   5.307   3.534   5.894
 7407SOL    HW122267   5.403   3.562   5.891
 7407SOL    HW222268   5.274   3.517   5.801
 7408SOL     OW22269   4.518   2.471   0.046
 7408SOL    HW122270   4.455   2.514   0.112
 7408SOL    HW222271   4.465   2.416   6.982
 7409SOL     OW22272   4.730   2.256   6.794
 7409SOL    HW122273   4.670   2.309   6.853
 7409SOL    HW222274   4.676   2.209   6.724
 7410SOL     OW22275   4.774   2.561   6.011
 7410SOL    HW122276   4.796   2.556   6.108
 7410SOL    HW222277   4.688   2.513   5.994
 7411SOL     OW22278   3.813   2.689   6.367
 7411SOL    HW122279   3.899   2.678   6.417
 7411SOL    HW222280   3.764   2.768   6.402
 7412SOL     OW22281   3.883   3.714   0.149
 7412SOL    HW122282   3.842   3.640   0.203
 7412SOL    HW222283   3.826   3.731   0.068
 7413SOL     OW22284   4.620   2.215   5.783
 7413SOL    HW122285   4.660   2.282   5.721
 7413SOL    HW222286   4.629   2.123   5.743
 7414SOL     OW22287   5.103   3.005   6.119
 7414SOL    HW122288   5.188   2.989   6.069
 7414SOL    HW222289   5.047   3.072   6.071
 7415SOL     OW22290   4.271   2.035   6.485
 7415SOL    HW122291   4.277   2.066   6.580
 7415SOL    HW222292   4.275   2.114   6.423
 7416SOL     OW22293   4.719   3.305   6.050
 7416SOL    HW122294   4.687   3.385   5.999
 7416SOL    HW222295   4.702   3.318   6.147
 7417SOL     OW22296   4.079   3.676   6.454
 7417SOL    HW122297   4.122   3.586   6.464
 7417SOL    HW222298   4.147   3.747   6.474
 7418SOL     OW22299   5.525   2.918   6.453
 7418SOL    HW122300   5.474   2.894   6.370
 7418SOL    HW222301   5.462   2.919   6.531
 7419SOL     OW22302   4.046   2.821   5.840
 7419SOL    HW122303   4.133   2.841   5.797
 7419SOL    HW222304   4.009   2.736   5.803
 7420SOL     OW22305   5.206   2.611   6.306
 7420SOL    HW122306   5.199   2.565   6.395
 7420SOL    HW222307   5.287   2.670   6.306
 7421SOL     OW22308   4.846   3.638   5.812
 7421SOL    HW122309   4.767   3.600   5.861
 7421SOL    HW222310   4.875   3.574   5.742
 7422SOL     OW22311   5.349   3.244   5.673
 7422SOL    HW122312   5.310   3.335   5.658
 7422SOL    HW222313   5.279   3.174   5.655
 7423SOL     OW22314   4.189   3.597   5.904
 7423SOL    HW122315   4.230   3.659   5.971
 7423SOL    HW222316   4.260   3.561   5.844
 7424SOL     OW22317   5.125   1.966   6.022
 7424SOL    HW122318   5.114   1.941   5.926
 7424SOL    HW222319   5.223   1.975   6.043
 7425SOL     OW22320   3.993   3.660   6.819
 7425SOL    HW122321   4.041   3.601   6.883
 7425SOL    HW222322   3.951   3.604   6.747
 7426SOL     OW22323   4.660   3.562   6.481
 7426SOL    HW122324   4.745   3.517   6.509
 7426SOL    HW222325   4.618   3.511   6.407
 7427SOL     OW22326   4.119   2.550   6.061
 7427SOL    HW122327   4.139   2.453   6.074
 7427SOL    HW222328   4.022   2.567   6.078
 7428SOL     OW22329   4.365   1.979   5.688
 7428SOL    HW122330   4.433   1.910   5.710
 7428SOL    HW222331   4.309   1.947   5.611
 7429SOL     OW22332   4.593   3.380   6.762
 7429SOL    HW122333   4.575   3.346   6.670
 7429SOL    HW222334   4.633   3.307   6.817
 7430SOL     OW22335   4.543   3.251   6.520
 7430SOL    HW122336   4.633   3.240   6.478
 7430SOL    HW222337   4.473   3.256   6.449
 7431SOL     OW22338   4.651   2.370   6.484
 7431SOL    HW122339   4.624   2.362   6.388
 7431SOL    HW222340   4.688   2.283   6.516
 7432SOL     OW22341   4.271   1.926   6.080
 7432SOL    HW122342   4.189   1.924   6.138
 7432SOL    HW222343   4.268   2.007   6.021
 7433SOL     OW22344   5.149   3.061   5.629
 7433SOL    HW122345   5.183   2.983   5.682
 7433SOL    HW222346   5.061   3.090   5.665
 7434SOL     OW22347   4.015   1.910   5.772
 7434SOL    HW122348   4.067   1.982   5.726
 7434SOL    HW222349   4.077   1.845   5.815
 7435SOL     OW22350   4.670   2.112   6.042
 7435SOL    HW122351   4.639   2.154   5.957
 7435SOL    HW222352   4.769   2.126   6.052
 7436SOL     OW22353   4.942   3.433   6.381
 7436SOL    HW122354   4.957   3.503   6.312
 7436SOL    HW222355   5.021   3.431   6.444
 7437SOL     OW22356   4.192   3.013   6.315
 7437SOL    HW122357   4.125   2.994   6.386
 7437SOL    HW222358   4.150   3.000   6.225
 7438SOL     OW22359   4.986   3.653   6.196
 7438SOL    HW122360   5.039   3.716   6.138
 7438SOL    HW222361   4.913   3.704   6.241
 7439SOL     OW22362   4.745   2.398   5.615
 7439SOL    HW122363   4.700   2.484   5.592
 7439SOL    HW222364   4.814   2.415   5.685
 7440SOL     OW22365   4.287   2.083   6.756
 7440SOL    HW122366   4.332   2.000   6.787
 7440SOL    HW222367   4.191   2.083   6.787
 7441SOL     OW22368   4.589   2.321   6.222
 7441SOL    HW122369   4.542   2.382   6.158
 7441SOL    HW222370   4.617   2.238   6.175
 7442SOL     OW22371   4.742   1.910   6.327
 7442SOL    HW122372   4.680   1.911   6.249
 7442SOL    HW222373   4.717   1.837   6.389
 7443SOL     OW22374   5.164   3.022   6.442
 7443SOL    HW122375   5.095   2.950   6.444
 7443SOL    HW222376   5.195   3.036   6.348
 7444SOL     OW22377   5.190   2.467   6.550
 7444SOL    HW122378   5.128   2.389   6.556
 7444SOL    HW222379   5.253   2.465   6.628
 7445SOL     OW22380   5.567   2.671   5.965
 7445SOL    HW122381   5.624   2.624   6.031
 7445SOL    HW222382   5.537   2.607   5.894
 7446SOL     OW22383   4.211   3.283   5.741
 7446SOL    HW122384   4.131   3.256   5.795
 7446SOL    HW222385   4.209   3.237   5.652
 7447SOL     OW22386   5.398   3.129   6.229
 7447SOL    HW122387   5.498   3.126   6.242
 7447SOL    HW222388   5.365   3.221   6.250
 7448SOL     OW22389   5.114   2.436   5.657
 7448SOL    HW122390   5.051   2.414   5.731
 7448SOL    HW222391   5.207   2.410   5.683
 7449SOL     OW22392   4.252   2.126   5.896
 7449SOL    HW122393   4.300   2.074   5.825
 7449SOL    HW222394   4.223   2.214   5.858
 7450SOL     OW22395   5.482   3.041   0.171
 7450SOL    HW122396   5.580   3.028   0.153
 7450SOL    HW222397   5.456   3.134   0.145
 7451SOL     OW22398   4.843   3.100   6.694
 7451SOL    HW122399   4.759   3.058   6.730
 7451SOL    HW222400   4.829   3.124   6.598
 7452SOL     OW22401   5.343   2.946   6.650
 7452SOL    HW122402   5.344   3.016   6.721
 7452SOL    HW222403   5.268   2.963   6.586
 7453SOL     OW22404   4.437   2.921   5.959
 7453SOL    HW122405   4.419   2.903   6.056
 7453SOL    HW222406   4.516   2.867   5.929
 7454SOL     OW22407   4.148   2.676   6.846
 7454SOL    HW122408   4.206   2.701   6.924
 7454SOL    HW222409   4.113   2.583   6.860
 7455SOL     OW22410   4.993   2.250   6.856
 7455SOL    HW122411   5.021   2.323   6.917
 7455SOL    HW222412   4.899   2.264   6.826
 7456SOL     OW22413   3.814   3.423   6.859
 7456SOL    HW122414   3.752   3.497   6.882
 7456SOL    HW222415   3.890   3.421   6.924
 7457SOL     OW22416   4.066   2.980   6.073
 7457SOL    HW122417   4.072   3.062   6.016
 7457SOL    HW222418   4.064   2.899   6.014
 7458SOL     OW22419   4.271   2.407   6.449
 7458SOL    HW122420   4.284   2.466   6.369
 7458SOL    HW222421   4.342   2.426   6.517
 7459SOL     OW22422   4.970   3.217   5.978
 7459SOL    HW122423   5.031   3.289   6.009
 7459SOL    HW222424   4.877   3.236   6.008
 7460SOL     OW22425   5.005   3.312   6.747
 7460SOL    HW122426   5.041   3.302   6.840
 7460SOL    HW222427   4.944   3.236   6.726
 7461SOL     OW22428   5.301   2.483   6.067
 7461SOL    HW122429   5.251   2.530   6.141
 7461SOL    HW222430   5.348   2.551   6.011
 7462SOL     OW22431   4.091   3.358   6.905
 7462SOL    HW122432   4.059   3.321   6.818
 7462SOL    HW222433   4.186   3.389   6.895
 7463SOL     OW22434   4.308   2.732   6.623
 7463SOL    HW122435   4.342   2.826   6.616
 7463SOL    HW222436   4.248   2.724   6.702
 7464SOL     OW22437   5.071   2.718   6.595
 7464SOL    HW122438   4.981   2.703   6.556
 7464SOL    HW222439   5.124   2.633   6.592
 7465SOL     OW22440   4.921   2.388   5.850
 7465SOL    HW122441   4.934   2.306   5.905
 7465SOL    HW222442   4.878   2.459   5.906
 7466SOL     OW22443   4.027   2.062   6.834
 7466SOL    HW122444   3.985   2.094   6.920
 7466SOL    HW222445   4.014   1.964   6.825
 7467SOL     OW22446   3.751   3.163   6.868
 7467SOL    HW122447   3.804   3.115   6.939
 7467SOL    HW222448   3.778   3.259   6.866
 7468SOL     OW22449   4.448   2.489   6.641
 7468SOL    HW122450   4.526   2.468   6.582
 7468SOL    HW222451   4.417   2.582   6.624
 7469SOL     OW22452   4.030   1.924   6.213
 7469SOL    HW122453   4.006   2.019   6.231
 7469SOL    HW222454   4.041   1.875   6.299
 7470SOL     OW22455   5.351   2.243   5.948
 7470SOL    HW122456   5.377   2.169   6.010
 7470SOL    HW222457   5.322   2.323   6.000
 7471SOL     OW22458   4.746   2.619   6.550
 7471SOL    HW122459   4.741   2.639   6.648
 7471SOL    HW222460   4.721   2.523   6.535
 7472SOL     OW22461   5.251   2.131   5.716
 7472SOL    HW122462   5.182   2.063   5.741
 7472SOL    HW222463   5.288   2.173   5.799
 7473SOL     OW22464   5.012   2.687   5.612
 7473SOL    HW122465   5.053   2.597   5.621
 7473SOL    HW222466   5.044   2.730   5.527
 7474SOL     OW22467   4.796   3.199   6.439
 7474SOL    HW122468   4.799   3.121   6.376
 7474SOL    HW222469   4.854   3.273   6.404
 7475SOL     OW22470   4.037   2.667   6.529
 7475SOL    HW122471   4.133   2.694   6.522
 7475SOL    HW222472   4.031   2.572   6.559
 7476SOL     OW22473   4.055   2.391   6.604
 7476SOL    HW122474   4.015   2.300   6.590
 7476SOL    HW222475   4.135   2.401   6.545
 7477SOL     OW22476   4.864   2.102   0.053
 7477SOL    HW122477   4.931   2.117   0.125
 7477SOL    HW222478   4.899   2.139   6.967
 7478SOL     OW22479   3.725   3.177   5.780
 7478SOL    HW122480   3.635   3.197   5.740
 7478SOL    HW222481   3.726   3.084   5.816
 7479SOL     OW22482   3.815   3.651   6.527
 7479SOL    HW122483   3.780   3.568   6.484
 7479SOL    HW222484   3.911   3.664   6.501
 7480SOL     OW22485   4.217   3.440   6.491
 7480SOL    HW122486   4.288   3.505   6.519
 7480SOL    HW222487   4.258   3.371   6.430
 7481SOL     OW22488   4.705   2.658   6.823
 7481SOL    HW122489   4.783   2.634   6.880
 7481SOL    HW222490   4.623   2.613   6.858
 7482SOL     OW22491   3.775   2.418   6.713
 7482SOL    HW122492   3.830   2.384   6.636
 7482SOL    HW222493   3.835   2.454   6.784
 7483SOL     OW22494   4.541   2.434   5.947
 7483SOL    HW122495   4.551   2.355   5.887
 7483SOL    HW222496   4.463   2.489   5.917
 7484SOL     OW22497   5.372   2.472   6.752
 7484SOL    HW122498   5.356   2.413   6.832
 7484SOL    HW222499   5.466   2.461   6.721
 7485SOL     OW22500   4.396   2.325   6.850
 7485SOL    HW122501   4.361   2.237   6.819
 7485SOL    HW222502   4.412   2.385   6.771
 7486SOL     OW22503   4.668   3.524   6.997
 7486SOL    HW122504   4.635   3.513   6.903
 7486SOL    HW222505   4.648   3.617   0.028
 7487SOL     OW22506   4.183   2.357   5.771
 7487SOL    HW122507   4.247   2.429   5.796
 7487SOL    HW222508   4.092   2.397   5.758
 7488SOL     OW22509   3.881   3.004   0.058
 7488SOL    HW122510   3.936   2.963   0.131
 7488SOL    HW222511   3.890   2.950   6.975
 7489SOL     OW22512   5.009   2.868   6.814
 7489SOL    HW122513   5.047   2.817   6.737
 7489SOL    HW222514   4.983   2.959   6.783
 7490SOL     OW22515   5.039   2.719   5.885
 7490SOL    HW122516   4.964   2.691   5.944
 7490SOL    HW222517   5.014   2.706   5.789
 7491SOL     OW22518   5.479   3.620   6.724
 7491SOL    HW122519   5.555   3.643   6.662
 7491SOL    HW222520   5.458   3.523   6.716
 7492SOL     OW22521   4.972   3.588   6.699
 7492SOL    HW122522   5.055   3.617   6.653
 7492SOL    HW222523   4.976   3.489   6.718
 7493SOL     OW22524   3.806   3.126   6.600
 7493SOL    HW122525   3.785   3.134   6.697
 7493SOL    HW222526   3.738   3.065   6.557
 7494SOL     OW22527   5.443   2.012   6.085
 7494SOL    HW122528   5.519   2.002   6.020
 7494SOL    HW222529   5.425   1.925   6.130
 7495SOL     OW22530   5.119   3.432   6.074
 7495SOL    HW122531   5.182   3.464   6.003
 7495SOL    HW222532   5.064   3.509   6.107
 7496SOL     OW22533   5.006   2.791   6.253
 7496SOL    HW122534   5.080   2.726   6.268
 7496SOL    HW222535   5.039   2.867   6.197
 7497SOL     OW22536   4.393   3.483   5.740
 7497SOL    HW122537   4.409   3.502   5.643
 7497SOL    HW222538   4.334   3.403   5.749
 7498SOL     OW22539   5.566   2.036   6.556
 7498SOL    HW122540   5.600   1.945   6.533
 7498SOL    HW222541   5.474   2.047   6.517
 7499SOL     OW22542   3.979   2.176   6.301
 7499SOL    HW122543   3.890   2.213   6.273
 7499SOL    HW222544   3.982   2.169   6.401
 7500SOL     OW22545   4.932   3.463   5.619
 7500SOL    HW122546   4.923   3.369   5.652
 7500SOL    HW222547   4.865   3.480   5.547
 7501SOL     OW22548   4.501   2.888   6.952
 7501SOL    HW122549   4.560   2.845   6.884
 7501SOL    HW222550   4.545   2.970   6.988
 7502SOL     OW22551   4.644   2.773   5.873
 7502SOL    HW122552   4.705   2.808   5.802
 7502SOL    HW222553   4.691   2.701   5.925
 7503SOL     OW22554   5.212   3.492   5.628
 7503SOL    HW122555   5.113   3.481   5.617
 7503SOL    HW222556   5.256   3.497   5.538
 7504SOL     OW22557   5.339   3.141   6.835
 7504SOL    HW122558   5.430   3.142   6.878
 7504SOL    HW222559   5.270   3.119   6.903
 7505SOL     OW22560   4.785   2.968   6.300
 7505SOL    HW122561   4.708   2.917   6.340
 7505SOL    HW222562   4.854   2.904   6.267
 7506SOL     OW22563   4.743   2.099   6.540
 7506SOL    HW122564   4.742   2.050   6.453
 7506SOL    HW222565   4.746   2.033   6.616
 7507SOL     OW22566   4.329   3.348   6.066
 7507SOL    HW122567   4.380   3.294   5.999
 7507SOL    HW222568   4.254   3.396   6.020
 7508SOL     OW22569   5.419   2.285   6.946
 7508SOL    HW122570   5.486   2.292   0.020
 7508SOL    HW222571   5.426   2.195   6.904
 7509SOL     OW22572   3.977   3.210   5.874
 7509SOL    HW122573   3.881   3.203   5.847
 7509SOL    HW222574   3.982   3.249   5.967
 7510SOL     OW22575   4.397   2.052   0.081
 7510SOL    HW122576   4.487   2.026   0.047
 7510SOL    HW222577   4.405   2.132   0.140
 7511SOL     OW22578   3.806   2.190   5.615
 7511SOL    HW122579   3.714   2.167   5.584
 7511SOL    HW222580   3.838   2.272   5.567
 7512SOL     OW22581   3.787   2.017   5.888
 7512SOL    HW122582   3.771   2.101   5.837
 7512SOL    HW222583   3.875   1.979   5.862
 7513SOL     OW22584   4.904   3.199   5.706
 7513SOL    HW122585   4.809   3.169   5.700
 7513SOL    HW222586   4.932   3.201   5.802
 7514SOL     OW22587   5.215   3.646   6.579
 7514SOL    HW122588   5.229   3.708   6.501
 7514SOL    HW222589   5.304   3.627   6.622
 7515SOL     OW22590   5.217   3.155   0.283
 7515SOL    HW122591   5.125   3.150   0.322
 7515SOL    HW222592   5.248   3.063   0.261
 7516SOL     OW22593   4.110   3.589   0.089
 7516SOL    HW122594   4.031   3.643   0.117
 7516SOL    HW222595   4.103   3.497   0.128
 7517SOL     OW22596   5.424   2.740   6.829
 7517SOL    HW122597   5.390   2.650   6.801
 7517SOL    HW222598   5.389   2.810   6.766
 7518SOL     OW22599   4.944   2.179   6.045
 7518SOL    HW122600   5.007   2.102   6.036
 7518SOL    HW222601   4.970   2.234   6.125
 7519SOL     OW22602   4.309   2.599   6.255
 7519SOL    HW122603   4.352   2.689   6.244
 7519SOL    HW222604   4.240   2.586   6.184
 7520SOL     OW22605   5.494   2.766   0.094
 7520SOL    HW122606   5.482   2.862   0.121
 7520SOL    HW222607   5.468   2.756   6.998
 7521SOL     OW22608   4.590   3.226   5.629
 7521SOL    HW122609   4.549   3.250   5.717
 7521SOL    HW222610   4.605   3.309   5.576
 7522SOL     OW22611   4.391   3.648   6.533
 7522SOL    HW122612   4.366   3.741   6.507
 7522SOL    HW222613   4.489   3.634   6.519
 7523SOL     OW22614   4.593   2.832   6.442
 7523SOL    HW122615   4.642   2.753   6.480
 7523SOL    HW222616   4.553   2.885   6.517
 7524SOL     OW22617   4.802   2.852   5.670
 7524SOL    HW122618   4.774   2.905   5.590
 7524SOL    HW222619   4.879   2.793   5.646
 7525SOL     OW22620   5.573   3.419   6.432
 7525SOL    HW122621   5.493   3.406   6.373
 7525SOL    HW222622   5.568   3.357   6.510
 7526SOL     OW22623   3.811   3.091   6.249
 7526SOL    HW122624   3.814   3.044   6.338
 7526SOL    HW222625   3.880   3.051   6.189
 7527SOL     OW22626   5.534   2.038   6.835
 7527SOL    HW122627   5.510   1.941   6.836
 7527SOL    HW222628   5.550   2.066   6.740
 7528SOL     OW22629   4.154   2.290   6.113
 7528SOL    HW122630   4.188   2.220   6.050
 7528SOL    HW222631   4.100   2.247   6.184
 7529SOL     OW22632   5.402   3.364   6.676
 7529SOL    HW122633   5.325   3.344   6.616
 7529SOL    HW222634   5.413   3.290   6.742
 7530SOL     OW22635   4.040   2.412   6.878
 7530SOL    HW122636   4.111   2.360   6.925
 7530SOL    HW222637   4.050   2.400   6.779
 7531SOL     OW22638   4.553   3.441   6.263
 7531SOL    HW122639   4.540   3.504   6.186
 7531SOL    HW222640   4.475   3.378   6.268
 7532SOL     OW22641   5.158   2.098   6.702
 7532SOL    HW122642   5.191   2.016   6.748
 7532SOL    HW222643   5.104   2.152   6.766
 7533SOL     OW22644   4.741   1.880   6.712
 7533SOL    HW122645   4.678   1.814   6.672
 7533SOL    HW222646   4.831   1.838   6.722
 7534SOL     OW22647   4.498   3.194   5.906
 7534SOL    HW122648   4.470   3.098   5.915
 7534SOL    HW222649   4.583   3.208   5.958
 7535SOL     OW22650   4.348   3.427   6.865
 7535SOL    HW122651   4.345   3.522   6.895
 7535SOL    HW222652   4.435   3.409   6.819
 7536SOL     OW22653   5.078   1.912   5.755
 7536SOL    HW122654   5.121   1.844   5.696
 7536SOL    HW222655   4.985   1.883   5.778
 7537SOL     OW22656   5.015   2.326   6.266
 7537SOL    HW122657   4.963   2.411   6.269
 7537SOL    HW222658   5.012   2.282   6.356
 7538SOL     OW22659   5.311   2.067   6.470
 7538SOL    HW122660   5.250   2.086   6.548
 7538SOL    HW222661   5.312   2.146   6.409
 7539SOL     OW22662   3.767   2.926   5.893
 7539SOL    HW122663   3.865   2.926   5.875
 7539SOL    HW222664   3.737   2.833   5.915
 7540SOL     OW22665   4.608   3.524   5.926
 7540SOL    HW122666   4.533   3.503   5.863
 7540SOL    HW222667   4.582   3.602   5.984
 7541SOL     OW22668   3.944   4.361   0.136
 7541SOL    HW122669   3.848   4.345   0.161
 7541SOL    HW222670   3.957   4.342   0.039
 7542SOL     OW22671   3.946   4.006   0.994
 7542SOL    HW122672   3.979   3.972   1.082
 7542SOL    HW222673   3.853   3.974   0.978
 7543SOL     OW22674   3.724   4.112   0.637
 7543SOL    HW122675   3.643   4.146   0.684
 7543SOL    HW222676   3.703   4.025   0.592
 7544SOL     OW22677   4.293   5.021   1.185
 7544SOL    HW122678   4.203   5.017   1.142
 7544SOL    HW222679   4.310   5.114   1.219
 7545SOL     OW22680   5.288   5.237   0.709
 7545SOL    HW122681   5.246   5.212   0.796
 7545SOL    HW222682   5.218   5.240   0.638
 7546SOL     OW22683   4.856   4.425   0.696
 7546SOL    HW122684   4.909   4.508   0.680
 7546SOL    HW222685   4.806   4.434   0.782
 7547SOL     OW22686   5.509   4.303   0.200
 7547SOL    HW122687   5.443   4.353   0.144
 7547SOL    HW222688   5.460   4.241   0.261
 7548SOL     OW22689   4.468   4.865   1.041
 7548SOL    HW122690   4.400   4.899   1.105
 7548SOL    HW222691   4.512   4.941   0.994
 7549SOL     OW22692   4.598   4.488   1.821
 7549SOL    HW122693   4.586   4.556   1.893
 7549SOL    HW222694   4.622   4.534   1.736
 7550SOL     OW22695   4.407   4.720   0.650
 7550SOL    HW122696   4.478   4.712   0.720
 7550SOL    HW222697   4.333   4.778   0.686
 7551SOL     OW22698   4.435   4.877   1.818
 7551SOL    HW122699   4.487   4.956   1.851
 7551SOL    HW222700   4.350   4.909   1.776
 7552SOL     OW22701   4.050   5.147   1.066
 7552SOL    HW122702   3.974   5.102   1.020
 7552SOL    HW222703   4.103   5.200   0.999
 7553SOL     OW22704   5.182   5.225   1.358
 7553SOL    HW122705   5.239   5.307   1.365
 7553SOL    HW222706   5.111   5.228   1.429
 7554SOL     OW22707   4.174   4.117   1.478
 7554SOL    HW122708   4.256   4.060   1.487
 7554SOL    HW222709   4.093   4.063   1.497
 7555SOL     OW22710   5.336   4.173   0.747
 7555SOL    HW122711   5.263   4.194   0.683
 7555SOL    HW222712   5.345   4.248   0.813
 7556SOL     OW22713   3.944   5.448   0.470
 7556SOL    HW122714   3.962   5.526   0.529
 7556SOL    HW222715   4.029   5.419   0.426
 7557SOL     OW22716   4.861   5.064   1.698
 7557SOL    HW122717   4.908   5.062   1.786
 7557SOL    HW222718   4.805   4.982   1.688
 7558SOL     OW22719   3.938   5.172   0.532
 7558SOL    HW122720   3.926   5.270   0.543
 7558SOL    HW222721   3.887   5.124   0.605
 7559SOL     OW22722   3.992   4.814   0.900
 7559SOL    HW122723   3.988   4.720   0.933
 7559SOL    HW222724   3.930   4.871   0.953
 7560SOL     OW22725   4.323   5.521   1.426
 7560SOL    HW122726   4.240   5.497   1.476
 7560SOL    HW222727   4.354   5.612   1.454
 7561SOL     OW22728   4.311   4.691   0.147
 7561SOL    HW122729   4.369   4.713   0.068
 7561SOL    HW222730   4.348   4.737   0.229
 7562SOL     OW22731   5.320   3.849   1.469
 7562SOL    HW122732   5.340   3.929   1.413
 7562SOL    HW222733   5.306   3.878   1.564
 7563SOL     OW22734   3.839   4.378   0.562
 7563SOL    HW122735   3.809   4.284   0.582
 7563SOL    HW222736   3.834   4.433   0.645
 7564SOL     OW22737   5.560   5.487   0.350
 7564SOL    HW122738   5.632   5.457   0.412
 7564SOL    HW222739   5.566   5.586   0.337
 7565SOL     OW22740   3.739   5.304   0.147
 7565SOL    HW122741   3.668   5.237   0.126
 7565SOL    HW222742   3.716   5.351   0.232
 7566SOL     OW22743   5.415   4.639   0.650
 7566SOL    HW122744   5.499   4.587   0.632
 7566SOL    HW222745   5.393   4.696   0.571
 7567SOL     OW22746   5.379   4.820   0.445
 7567SOL    HW122747   5.449   4.839   0.375
 7567SOL    HW222748   5.385   4.889   0.517
 7568SOL     OW22749   3.848   4.468   1.585
 7568SOL    HW122750   3.944   4.495   1.586
 7568SOL    HW222751   3.791   4.551   1.587
 7569SOL     OW22752   4.336   5.113   0.737
 7569SOL    HW122753   4.290   5.025   0.750
 7569SOL    HW222754   4.326   5.142   0.642
 7570SOL     OW22755   5.012   4.959   1.422
 7570SOL    HW122756   5.039   4.889   1.356
 7570SOL    HW222757   5.072   4.955   1.502
 7571SOL     OW22758   4.543   3.737   0.514
 7571SOL    HW122759   4.588   3.822   0.490
 7571SOL    HW222760   4.444   3.752   0.522
 7572SOL     OW22761   3.915   4.686   1.277
 7572SOL    HW122762   4.004   4.642   1.262
 7572SOL    HW222763   3.845   4.638   1.223
 7573SOL     OW22764   5.215   4.745   0.214
 7573SOL    HW122765   5.148   4.678   0.246
 7573SOL    HW222766   5.302   4.728   0.260
 7574SOL     OW22767   4.905   5.535   1.622
 7574SOL    HW122768   4.914   5.603   1.550
 7574SOL    HW222769   4.926   5.444   1.585
 7575SOL     OW22770   4.065   3.973   1.831
 7575SOL    HW122771   4.114   4.059   1.848
 7575SOL    HW222772   3.968   3.986   1.851
 7576SOL     OW22773   5.188   5.145   0.947
 7576SOL    HW122774   5.121   5.163   1.019
 7576SOL    HW222775   5.180   5.049   0.919
 7577SOL     OW22776   5.366   5.476   0.584
 7577SOL    HW122777   5.349   5.449   0.489
 7577SOL    HW222778   5.350   5.398   0.644
 7578SOL     OW22779   4.324   4.441   0.267
 7578SOL    HW122780   4.330   4.531   0.224
 7578SOL    HW222781   4.259   4.444   0.343
 7579SOL     OW22782   5.001   4.081   0.932
 7579SOL    HW122783   4.907   4.048   0.941
 7579SOL    HW222784   5.061   4.030   0.994
 7580SOL     OW22785   5.300   5.401   0.317
 7580SOL    HW122786   5.395   5.431   0.315
 7580SOL    HW222787   5.266   5.392   0.223
 7581SOL     OW22788   4.514   4.337   1.449
 7581SOL    HW122789   4.489   4.313   1.543
 7581SOL    HW222790   4.476   4.268   1.387
 7582SOL     OW22791   5.115   4.194   1.679
 7582SOL    HW122792   5.116   4.243   1.766
 7582SOL    HW222793   5.176   4.115   1.686
 7583SOL     OW22794   4.677   4.609   1.583
 7583SOL    HW122795   4.735   4.537   1.545
 7583SOL    HW222796   4.623   4.651   1.510
 7584SOL     OW22797   4.718   4.130   1.229
 7584SOL    HW122798   4.628   4.153   1.268
 7584SOL    HW222799   4.706   4.080   1.144
 7585SOL     OW22800   4.775   4.425   0.429
 7585SOL    HW122801   4.798   4.422   0.526
 7585SOL    HW222802   4.689   4.377   0.413
 7586SOL     OW22803   3.814   4.548   0.778
 7586SOL    HW122804   3.899   4.537   0.829
 7586SOL    HW222805   3.764   4.627   0.813
 7587SOL     OW22806   3.852   5.595   1.588
 7587SOL    HW122807   3.857   5.568   1.684
 7587SOL    HW222808   3.767   5.562   1.548
 7588SOL     OW22809   4.612   4.067   0.207
 7588SOL    HW122810   4.663   4.127   0.145
 7588SOL    HW222811   4.628   3.971   0.181
 7589SOL     OW22812   5.425   4.297   1.826
 7589SOL    HW122813   5.390   4.376   1.776
 7589SOL    HW222814   5.455   4.227   1.761
 7590SOL     OW22815   5.106   4.865   0.549
 7590SOL    HW122816   5.190   4.852   0.495
 7590SOL    HW222817   5.047   4.931   0.504
 7591SOL     OW22818   4.271   3.898   0.900
 7591SOL    HW122819   4.275   3.927   0.996
 7591SOL    HW222820   4.274   3.978   0.841
 7592SOL     OW22821   4.716   5.163   0.470
 7592SOL    HW122822   4.684   5.244   0.420
 7592SOL    HW222823   4.697   5.174   0.567
 7593SOL     OW22824   4.080   5.538   0.869
 7593SOL    HW122825   4.124   5.448   0.876
 7593SOL    HW222826   4.147   5.609   0.889
 7594SOL     OW22827   5.524   4.778   0.874
 7594SOL    HW122828   5.473   4.756   0.790
 7594SOL    HW222829   5.460   4.785   0.950
 7595SOL     OW22830   4.950   5.260   1.515
 7595SOL    HW122831   4.938   5.186   1.581
 7595SOL    HW222832   4.883   5.251   1.441
 7596SOL     OW22833   4.039   4.684   0.229
 7596SOL    HW122834   4.132   4.697   0.194
 7596SOL    HW222835   4.010   4.590   0.210
 7597SOL     OW22836   5.208   4.469   0.723
 7597SOL    HW122837   5.203   4.429   0.814
 7597SOL    HW222838   5.287   4.530   0.718
 7598SOL     OW22839   4.192   4.989   1.731
 7598SOL    HW122840   4.166   4.995   1.635
 7598SOL    HW222841   4.110   4.986   1.788
 7599SOL     OW22842   4.844   5.490   0.242
 7599SOL    HW122843   4.771   5.444   0.293
 7599SOL    HW222844   4.881   5.427   0.174
 7600SOL     OW22845   3.926   3.999   1.502
 7600SOL    HW122846   3.844   4.056   1.500
 7600SOL    HW222847   3.905   3.912   1.548
 7601SOL     OW22848   5.370   5.155   0.103
 7601SOL    HW122849   5.322   5.237   0.071
 7601SOL    HW222850   5.307   5.097   0.155
 7602SOL     OW22851   4.208   5.423   0.378
 7602SOL    HW122852   4.237   5.508   0.422
 7602SOL    HW222853   4.267   5.405   0.299
 7603SOL     OW22854   3.982   5.516   1.226
 7603SOL    HW122855   4.033   5.444   1.273
 7603SOL    HW222856   3.964   5.487   1.132
 7604SOL     OW22857   4.660   5.426   0.897
 7604SOL    HW122858   4.743   5.379   0.927
 7604SOL    HW222859   4.617   5.374   0.823
 7605SOL     OW22860   4.121   4.411   0.469
 7605SOL    HW122861   4.141   4.315   0.488
 7605SOL    HW222862   4.025   4.430   0.488
 7606SOL     OW22863   5.252   3.947   1.728
 7606SOL    HW122864   5.263   3.968   1.825
 7606SOL    HW222865   5.180   3.879   1.717
 7607SOL     OW22866   4.487   4.000   1.757
 7607SOL    HW122867   4.572   3.947   1.751
 7607SOL    HW222868   4.436   3.972   1.838
 7608SOL     OW22869   4.598   5.239   1.193
 7608SOL    HW122870   4.579   5.203   1.101
 7608SOL    HW222871   4.671   5.185   1.235
 7609SOL     OW22872   5.064   4.313   1.435
 7609SOL    HW122873   5.094   4.278   1.524
 7609SOL    HW222874   5.099   4.405   1.422
 7610SOL     OW22875   4.543   5.114   0.942
 7610SOL    HW122876   4.633   5.102   0.899
 7610SOL    HW222877   4.473   5.119   0.870
 7611SOL     OW22878   4.651   4.231   0.899
 7611SOL    HW122879   4.625   4.223   0.803
 7611SOL    HW222880   4.683   4.142   0.932
 7612SOL     OW22881   4.273   3.796   0.503
 7612SOL    HW122882   4.190   3.792   0.558
 7612SOL    HW222883   4.269   3.874   0.441
 7613SOL     OW22884   5.145   4.937   0.012
 7613SOL    HW122885   5.174   4.856   0.064
 7613SOL    HW222886   5.062   4.975   0.054
 7614SOL     OW22887   4.673   3.974   0.461
 7614SOL    HW122888   4.640   4.014   0.376
 7614SOL    HW222889   4.771   3.989   0.469
 7615SOL     OW22890   4.804   4.407   1.455
 7615SOL    HW122891   4.729   4.341   1.461
 7615SOL    HW222892   4.891   4.358   1.451
 7616SOL     OW22893   4.942   5.291   0.796
 7616SOL    HW122894   4.956   5.361   0.726
 7616SOL    HW222895   5.016   5.298   0.864
 7617SOL     OW22896   4.195   4.876   0.731
 7617SOL    HW122897   4.124   4.855   0.799
 7617SOL    HW222898   4.156   4.868   0.639
 7618SOL     OW22899   4.981   5.509   0.611
 7618SOL    HW122900   5.037   5.572   0.557
 7618SOL    HW222901   4.908   5.560   0.657
 7619SOL     OW22902   4.786   4.302   0.031
 7619SOL    HW122903   4.690   4.327   0.051
 7619SOL    HW222904   4.835   4.291   0.117
 7620SOL     OW22905   3.810   4.281   1.391
 7620SOL    HW122906   3.905   4.276   1.359
 7620SOL    HW222907   3.802   4.352   1.461
 7621SOL     OW22908   4.282   3.948   1.172
 7621SOL    HW122909   4.332   3.872   1.215
 7621SOL    HW222910   4.187   3.946   1.202
 7622SOL     OW22911   4.590   4.181   0.639
 7622SOL    HW122912   4.546   4.244   0.575
 7622SOL    HW222913   4.617   4.098   0.590
 7623SOL     OW22914   4.743   3.773   0.742
 7623SOL    HW122915   4.678   3.774   0.665
 7623SOL    HW222916   4.718   3.700   0.805
 7624SOL     OW22917   5.170   4.885   0.860
 7624SOL    HW122918   5.094   4.820   0.862
 7624SOL    HW222919   5.203   4.895   0.766
 7625SOL     OW22920   5.192   4.332   0.972
 7625SOL    HW122921   5.130   4.253   0.971
 7625SOL    HW222922   5.253   4.326   1.050
 7626SOL     OW22923   5.553   4.529   0.391
 7626SOL    HW122924   5.613   4.469   0.442
 7626SOL    HW222925   5.546   4.498   0.296
 7627SOL     OW22926   4.198   5.149   0.153
 7627SOL    HW122927   4.138   5.100   0.216
 7627SOL    HW222928   4.159   5.146   0.060
 7628SOL     OW22929   5.397   4.989   0.652
 7628SOL    HW122930   5.496   4.987   0.661
 7628SOL    HW222931   5.364   5.083   0.666
 7629SOL     OW22932   5.114   4.277   0.067
 7629SOL    HW122933   5.054   4.275   0.147
 7629SOL    HW222934   5.178   4.199   0.071
 7630SOL     OW22935   4.238   3.989   0.312
 7630SOL    HW122936   4.250   3.922   0.239
 7630SOL    HW222937   4.215   4.078   0.273
 7631SOL     OW22938   5.476   4.965   1.561
 7631SOL    HW122939   5.566   4.923   1.548
 7631SOL    HW222940   5.488   5.058   1.595
 7632SOL     OW22941   4.778   5.074   1.336
 7632SOL    HW122942   4.696   5.044   1.386
 7632SOL    HW222943   4.859   5.034   1.378
 7633SOL     OW22944   5.337   5.354   1.657
 7633SOL    HW122945   5.322   5.389   1.564
 7633SOL    HW222946   5.423   5.302   1.659
 7634SOL     OW22947   4.861   4.943   1.105
 7634SOL    HW122948   4.801   4.978   1.177
 7634SOL    HW222949   4.827   4.974   1.016
 7635SOL     OW22950   5.348   4.820   1.079
 7635SOL    HW122951   5.343   4.886   1.155
 7635SOL    HW222952   5.273   4.837   1.016
 7636SOL     OW22953   4.647   3.818   1.391
 7636SOL    HW122954   4.669   3.796   1.296
 7636SOL    HW222955   4.726   3.862   1.434
 7637SOL     OW22956   4.703   4.839   1.721
 7637SOL    HW122957   4.609   4.858   1.748
 7637SOL    HW222958   4.705   4.756   1.665
 7638SOL     OW22959   4.437   4.781   0.376
 7638SOL    HW122960   4.419   4.765   0.472
 7638SOL    HW222961   4.517   4.728   0.348
 7639SOL     OW22962   4.146   4.539   1.254
 7639SOL    HW122963   4.219   4.552   1.321
 7639SOL    HW222964   4.107   4.447   1.265
 7640SOL     OW22965   4.986   4.100   1.280
 7640SOL    HW122966   5.023   4.180   1.329
 7640SOL    HW222967   4.891   4.118   1.255
 7641SOL     OW22968   3.799   5.296   1.353
 7641SOL    HW122969   3.763   5.366   1.291
 7641SOL    HW222970   3.898   5.294   1.347
 7642SOL     OW22971   4.090   4.844   0.484
 7642SOL    HW122972   4.068   4.921   0.424
 7642SOL    HW222973   4.087   4.759   0.432
 7643SOL     OW22974   4.272   4.267   0.861
 7643SOL    HW122975   4.287   4.326   0.781
 7643SOL    HW222976   4.341   4.287   0.931
 7644SOL     OW22977   4.968   5.069   0.406
 7644SOL    HW122978   5.026   5.145   0.436
 7644SOL    HW222979   4.873   5.086   0.433
 7645SOL     OW22980   5.011   5.186   1.148
 7645SOL    HW122981   5.070   5.192   1.228
 7645SOL    HW222982   4.957   5.102   1.151
 7646SOL     OW22983   5.312   4.350   0.481
 7646SOL    HW122984   5.254   4.394   0.550
 7646SOL    HW222985   5.368   4.420   0.437
 7647SOL     OW22986   4.072   5.254   1.310
 7647SOL    HW122987   4.056   5.209   1.222
 7647SOL    HW222988   4.170   5.267   1.322
 7648SOL     OW22989   4.140   4.470   1.600
 7648SOL    HW122990   4.206   4.516   1.541
 7648SOL    HW222991   4.173   4.379   1.623
 7649SOL     OW22992   5.332   4.509   1.684
 7649SOL    HW122993   5.241   4.550   1.682
 7649SOL    HW222994   5.389   4.550   1.613
 7650SOL     OW22995   4.721   3.858   1.750
 7650SOL    HW122996   4.779   3.938   1.734
 7650SOL    HW222997   4.770   3.775   1.723
 7651SOL     OW22998   4.216   3.760   1.750
 7651SOL    HW122999   4.172   3.702   1.682
 7651SOL    HW223000   4.159   3.840   1.769
 7652SOL     OW23001   4.307   4.595   1.034
 7652SOL    HW123002   4.343   4.689   1.031
 7652SOL    HW223003   4.248   4.585   1.114
 7653SOL     OW23004   5.076   4.581   1.025
 7653SOL    HW123005   4.986   4.574   0.982
 7653SOL    HW223006   5.124   4.494   1.016
 7654SOL     OW23007   4.919   4.251   0.272
 7654SOL    HW123008   4.933   4.171   0.330
 7654SOL    HW223009   4.880   4.325   0.327
 7655SOL     OW23010   4.021   3.921   1.246
 7655SOL    HW123011   3.985   3.957   1.332
 7655SOL    HW223012   4.005   3.822   1.243
 7656SOL     OW23013   3.776   5.034   1.275
 7656SOL    HW123014   3.808   4.972   1.347
 7656SOL    HW223015   3.779   5.128   1.308
 7657SOL     OW23016   4.447   4.354   1.054
 7657SOL    HW123017   4.525   4.335   0.995
 7657SOL    HW223018   4.413   4.446   1.036
 7658SOL     OW23019   5.460   4.685   1.856
 7658SOL    HW123020   5.417   4.616   1.797
 7658SOL    HW223021   5.400   4.704   1.934
 7659SOL     OW23022   4.029   3.789   0.629
 7659SOL    HW123023   4.005   3.884   0.649
 7659SOL    HW223024   4.041   3.739   0.715
 7660SOL     OW23025   5.351   4.101   0.374
 7660SOL    HW123026   5.376   4.031   0.442
 7660SOL    HW223027   5.329   4.186   0.422
 7661SOL     OW23028   4.747   4.479   0.958
 7661SOL    HW123029   4.743   4.501   1.056
 7661SOL    HW223030   4.720   4.384   0.944
 7662SOL     OW23031   4.705   5.287   1.718
 7662SOL    HW123032   4.688   5.334   1.631
 7662SOL    HW223033   4.753   5.201   1.700
 7663SOL     OW23034   5.579   5.228   1.604
 7663SOL    HW123035   5.597   5.254   1.509
 7663SOL    HW223036   5.661   5.239   1.658
 7664SOL     OW23037   4.077   4.643   1.804
 7664SOL    HW123038   4.157   4.664   1.861
 7664SOL    HW223039   4.102   4.577   1.733
 7665SOL     OW23040   5.210   4.018   0.154
 7665SOL    HW123041   5.171   3.926   0.168
 7665SOL    HW223042   5.268   4.041   0.231
 7666SOL     OW23043   5.018   4.545   0.033
 7666SOL    HW123044   5.064   4.457   0.023
 7666SOL    HW223045   5.043   4.605   6.957
 7667SOL     OW23046   4.793   5.061   0.855
 7667SOL    HW123047   4.797   4.983   0.792
 7667SOL    HW223048   4.852   5.134   0.822
 7668SOL     OW23049   4.035   4.530   0.943
 7668SOL    HW123050   4.132   4.556   0.940
 7668SOL    HW223051   4.028   4.436   0.976
 7669SOL     OW23052   4.051   4.251   1.011
 7669SOL    HW123053   4.013   4.159   1.001
 7669SOL    HW223054   4.132   4.260   0.953
 7670SOL     OW23055   4.858   4.097   1.692
 7670SOL    HW123056   4.805   4.154   1.755
 7670SOL    HW223057   4.950   4.134   1.683
 7671SOL     OW23058   4.885   3.927   1.475
 7671SOL    HW123059   4.871   3.989   1.552
 7671SOL    HW223060   4.928   3.977   1.400
 7672SOL     OW23061   3.817   5.507   0.943
 7672SOL    HW123062   3.780   5.426   0.898
 7672SOL    HW223063   3.911   5.524   0.911
 7673SOL     OW23064   4.217   5.300   0.904
 7673SOL    HW123065   4.287   5.366   0.932
 7673SOL    HW223066   4.257   5.232   0.843
 7674SOL     OW23067   4.698   4.518   1.224
 7674SOL    HW123068   4.759   4.494   1.300
 7674SOL    HW223069   4.609   4.476   1.239
 7675SOL     OW23070   3.761   4.276   1.117
 7675SOL    HW123071   3.843   4.263   1.062
 7675SOL    HW223072   3.786   4.278   1.214
 7676SOL     OW23073   3.916   4.247   1.730
 7676SOL    HW123074   3.969   4.193   1.665
 7676SOL    HW223075   3.877   4.327   1.684
 7677SOL     OW23076   5.104   4.659   1.655
 7677SOL    HW123077   5.127   4.756   1.656
 7677SOL    HW223078   5.101   4.627   1.560
 7678SOL     OW23079   4.542   4.293   0.370
 7678SOL    HW123080   4.550   4.214   0.309
 7678SOL    HW223081   4.465   4.350   0.342
 7679SOL     OW23082   5.367   4.327   1.181
 7679SOL    HW123083   5.350   4.267   1.260
 7679SOL    HW223084   5.458   4.309   1.145
 7680SOL     OW23085   3.964   5.271   1.726
 7680SOL    HW123086   3.942   5.345   1.789
 7680SOL    HW223087   3.970   5.185   1.776
 7681SOL     OW23088   4.432   4.171   1.253
 7681SOL    HW123089   4.374   4.093   1.229
 7681SOL    HW223090   4.428   4.239   1.179
 7682SOL     OW23091   4.643   5.405   1.472
 7682SOL    HW123092   4.618   5.359   1.387
 7682SOL    HW223093   4.643   5.504   1.457
 7683SOL     OW23094   4.179   4.223   0.188
 7683SOL    HW123095   4.243   4.295   0.214
 7683SOL    HW223096   4.086   4.260   0.185
 7684SOL     OW23097   3.866   4.861   1.475
 7684SOL    HW123098   3.868   4.817   1.565
 7684SOL    HW223099   3.886   4.794   1.404
 7685SOL     OW23100   5.039   4.768   1.219
 7685SOL    HW123101   5.067   4.700   1.151
 7685SOL    HW223102   4.972   4.830   1.179
 7686SOL     OW23103   5.025   4.570   0.306
 7686SOL    HW123104   4.944   4.542   0.357
 7686SOL    HW223105   5.013   4.549   0.209
 7687SOL     OW23106   5.505   5.454   1.157
 7687SOL    HW123107   5.566   5.488   1.086
 7687SOL    HW223108   5.473   5.362   1.133
 7688SOL     OW23109   4.965   5.457   1.105
 7688SOL    HW123110   5.051   5.486   1.062
 7688SOL    HW223111   4.971   5.360   1.129
 7689SOL     OW23112   3.810   4.990   1.010
 7689SOL    HW123113   3.794   5.004   1.108
 7689SOL    HW223114   3.738   4.931   0.972
 7690SOL     OW23115   4.405   5.397   1.736
 7690SOL    HW123116   4.343   5.476   1.731
 7690SOL    HW223117   4.478   5.409   1.669
 7691SOL     OW23118   4.663   3.802   0.113
 7691SOL    HW123119   4.733   3.856   0.067
 7691SOL    HW223120   4.706   3.742   0.180
 7692SOL     OW23121   5.452   3.885   0.528
 7692SOL    HW123122   5.522   3.876   0.457
 7692SOL    HW223123   5.424   3.794   0.559
 7693SOL     OW23124   5.114   5.286   0.491
 7693SOL    HW123125   5.179   5.316   0.422
 7693SOL    HW223126   5.060   5.364   0.523
 7694SOL     OW23127   3.869   5.511   1.846
 7694SOL    HW123128   3.812   5.443   1.891
 7694SOL    HW223129   3.919   5.564   1.914
 7695SOL     OW23130   5.006   4.648   0.670
 7695SOL    HW123131   5.081   4.582   0.684
 7695SOL    HW223132   5.041   4.726   0.618
 7696SOL     OW23133   4.528   5.002   1.426
 7696SOL    HW123134   4.498   5.046   1.511
 7696SOL    HW223135   4.458   5.017   1.356
 7697SOL     OW23136   4.398   5.329   0.191
 7697SOL    HW123137   4.403   5.378   0.104
 7697SOL    HW223138   4.340   5.248   0.180
 7698SOL     OW23139   5.341   5.453   1.387
 7698SOL    HW123140   5.399   5.453   1.306
 7698SOL    HW223141   5.326   5.546   1.419
 7699SOL     OW23142   5.566   3.893   0.963
 7699SOL    HW123143   5.600   3.802   0.941
 7699SOL    HW223144   5.475   3.905   0.923
 7700SOL     OW23145   3.979   4.041   0.716
 7700SOL    HW123146   3.890   4.076   0.688
 7700SOL    HW223147   3.982   4.032   0.816
 7701SOL     OW23148   4.943   5.323   0.040
 7701SOL    HW123149   4.937   5.228   0.071
 7701SOL    HW223150   4.858   5.349   6.995
 7702SOL     OW23151   4.547   4.733   1.378
 7702SOL    HW123152   4.598   4.718   1.293
 7702SOL    HW223153   4.544   4.832   1.398
 7703SOL     OW23154   4.647   4.637   0.293
 7703SOL    HW123155   4.702   4.666   0.215
 7703SOL    HW223156   4.696   4.565   0.344
 7704SOL     OW23157   5.212   5.379   0.041
 7704SOL    HW123158   5.114   5.357   0.040
 7704SOL    HW223159   5.244   5.393   6.948
 7705SOL     OW23160   4.089   5.027   1.487
 7705SOL    HW123161   4.080   5.107   1.428
 7705SOL    HW223162   4.010   4.968   1.476
 7706SOL     OW23163   5.337   5.008   1.284
 7706SOL    HW123164   5.400   4.989   1.359
 7706SOL    HW223165   5.271   5.078   1.313
 7707SOL     OW23166   4.785   4.830   0.714
 7707SOL    HW123167   4.709   4.780   0.755
 7707SOL    HW223168   4.853   4.765   0.681
 7708SOL     OW23169   4.746   3.963   0.966
 7708SOL    HW123170   4.742   3.919   0.876
 7708SOL    HW223171   4.744   3.893   1.038
 7709SOL     OW23172   4.337   5.202   0.485
 7709SOL    HW123173   4.376   5.150   0.408
 7709SOL    HW223174   4.275   5.272   0.449
 7710SOL     OW23175   5.455   4.118   1.380
 7710SOL    HW123176   5.528   4.186   1.381
 7710SOL    HW223177   5.481   4.042   1.319
 7711SOL     OW23178   4.002   5.044   0.309
 7711SOL    HW123179   3.919   5.030   0.256
 7711SOL    HW223180   3.982   5.097   0.391
 7712SOL     OW23181   3.838   4.758   1.728
 7712SOL    HW123182   3.757   4.731   1.778
 7712SOL    HW223183   3.919   4.713   1.767
 7713SOL     OW23184   4.407   3.918   1.500
 7713SOL    HW123185   4.494   3.894   1.456
 7713SOL    HW223186   4.425   3.952   1.592
 7714SOL     OW23187   3.830   4.045   0.014
 7714SOL    HW123188   3.767   3.992   6.957
 7714SOL    HW223189   3.859   4.127   6.963
 7715SOL     OW23190   5.147   4.580   1.395
 7715SOL    HW123191   5.092   4.644   1.341
 7715SOL    HW223192   5.241   4.582   1.361
 7716SOL     OW23193   3.773   3.897   0.327
 7716SOL    HW123194   3.760   3.989   0.290
 7716SOL    HW223195   3.849   3.853   0.279
 7717SOL     OW23196   4.910   5.069   0.128
 7717SOL    HW123197   4.812   5.053   0.111
 7717SOL    HW223198   4.928   5.058   0.225
 7718SOL     OW23199   4.347   4.554   1.433
 7718SOL    HW123200   4.405   4.635   1.419
 7718SOL    HW223201   4.405   4.473   1.443
 7719SOL     OW23202   5.210   5.513   0.988
 7719SOL    HW123203   5.233   5.576   0.914
 7719SOL    HW223204   5.293   5.476   1.027
 7720SOL     OW23205   4.446   4.282   1.702
 7720SOL    HW123206   4.490   4.349   1.762
 7720SOL    HW223207   4.465   4.190   1.736
 7721SOL     OW23208   5.198   4.920   1.634
 7721SOL    HW123209   5.183   4.933   1.732
 7721SOL    HW223210   5.293   4.939   1.613
 7722SOL     OW23211   4.095   5.462   1.567
 7722SOL    HW123212   4.011   5.514   1.552
 7722SOL    HW223213   4.073   5.374   1.609
 7723SOL     OW23214   5.390   4.602   1.256
 7723SOL    HW123215   5.385   4.511   1.215
 7723SOL    HW223216   5.377   4.671   1.185
 7724SOL     OW23217   4.945   4.041   0.457
 7724SOL    HW123218   5.026   3.989   0.428
 7724SOL    HW223219   4.967   4.093   0.539
 7725SOL     OW23220   4.312   4.459   0.666
 7725SOL    HW123221   4.352   4.550   0.659
 7725SOL    HW223222   4.241   4.448   0.596
 7726SOL     OW23223   5.475   4.089   1.652
 7726SOL    HW123224   5.465   4.105   1.554
 7726SOL    HW223225   5.401   4.029   1.684
 7727SOL     OW23226   5.476   4.656   1.509
 7727SOL    HW123227   5.465   4.753   1.531
 7727SOL    HW223228   5.455   4.641   1.413
 7728SOL     OW23229   4.626   5.107   0.052
 7728SOL    HW123230   4.565   5.082   0.128
 7728SOL    HW223231   4.630   5.206   0.044
 7729SOL     OW23232   4.389   5.509   0.942
 7729SOL    HW123233   4.365   5.604   0.920
 7729SOL    HW223234   4.487   5.496   0.931
 7730SOL     OW23235   4.593   4.694   0.857
 7730SOL    HW123236   4.644   4.616   0.893
 7730SOL    HW223237   4.551   4.745   0.932
 7731SOL     OW23238   4.805   4.707   0.081
 7731SOL    HW123239   4.802   4.764   6.999
 7731SOL    HW223240   4.884   4.646   0.076
 7732SOL     OW23241   5.570   5.281   0.846
 7732SOL    HW123242   5.493   5.267   0.784
 7732SOL    HW223243   5.571   5.208   0.915
 7733SOL     OW23244   3.955   5.023   1.857
 7733SOL    HW123245   3.889   4.955   1.822
 7733SOL    HW223246   3.941   5.036   1.955
 7734SOL     OW23247   3.807   4.958   0.665
 7734SOL    HW123248   3.823   4.907   0.750
 7734SOL    HW223249   3.854   4.913   0.590
 7735SOL     OW23250   4.406   5.133   1.633
 7735SOL    HW123251   4.326   5.083   1.665
 7735SOL    HW223252   4.405   5.226   1.670
 7736SOL     OW23253   5.529   3.906   1.233
 7736SOL    HW123254   5.543   3.810   1.258
 7736SOL    HW223255   5.541   3.918   1.135
 7737SOL     OW23256   4.155   4.153   0.528
 7737SOL    HW123257   4.185   4.082   0.465
 7737SOL    HW223258   4.100   4.112   0.601
 7738SOL     OW23259   5.415   5.208   1.096
 7738SOL    HW123260   5.336   5.189   1.038
 7738SOL    HW223261   5.425   5.136   1.164
 7739SOL     OW23262   4.059   4.280   1.289
 7739SOL    HW123263   4.115   4.223   1.349
 7739SOL    HW223264   4.074   4.254   1.194
 7740SOL     OW23265   4.551   5.304   0.680
 7740SOL    HW123266   4.539   5.363   0.600
 7740SOL    HW223267   4.475   5.239   0.686
 7741SOL     OW23268   5.154   3.956   1.117
 7741SOL    HW123269   5.178   3.866   1.154
 7741SOL    HW223270   5.100   4.006   1.184
 7742SOL     OW23271   4.734   3.740   1.137
 7742SOL    HW123272   4.670   3.676   1.094
 7742SOL    HW223273   4.825   3.700   1.139
 7743SOL     OW23274   4.508   5.042   0.308
 7743SOL    HW123275   4.473   4.950   0.328
 7743SOL    HW223276   4.584   5.063   0.368
 7744SOL     OW23277   4.347   5.283   1.289
 7744SOL    HW123278   4.345   5.370   1.339
 7744SOL    HW223279   4.438   5.270   1.249
 7745SOL     OW23280   5.077   3.778   0.185
 7745SOL    HW123281   5.117   3.719   0.115
 7745SOL    HW223282   4.990   3.737   0.216
 7746SOL     OW23283   5.009   4.184   0.678
 7746SOL    HW123284   4.960   4.271   0.682
 7746SOL    HW223285   5.011   4.144   0.770
 7747SOL     OW23286   5.309   3.927   0.883
 7747SOL    HW123287   5.252   3.948   0.963
 7747SOL    HW223288   5.313   4.007   0.824
 7748SOL     OW23289   3.811   4.778   0.362
 7748SOL    HW123290   3.899   4.754   0.320
 7748SOL    HW223291   3.756   4.695   0.373
 7749SOL     OW23292   4.612   5.387   0.353
 7749SOL    HW123293   4.537   5.358   0.294
 7749SOL    HW223294   4.584   5.466   0.408
 7750SOL     OW23295   3.945   4.344   1.990
 7750SOL    HW123296   3.854   4.343   2.030
 7750SOL    HW223297   3.939   4.321   1.892
 7751SOL     OW23298   3.947   4.007   2.856
 7751SOL    HW123299   3.980   3.972   2.944
 7751SOL    HW223300   3.854   3.974   2.840
 7752SOL     OW23301   3.725   4.110   2.496
 7752SOL    HW123302   3.641   4.140   2.541
 7752SOL    HW223303   3.707   4.027   2.444
 7753SOL     OW23304   4.293   5.021   3.048
 7753SOL    HW123305   4.203   5.018   3.004
 7753SOL    HW223306   4.310   5.114   3.081
 7754SOL     OW23307   5.289   5.237   2.570
 7754SOL    HW123308   5.246   5.213   2.657
 7754SOL    HW223309   5.218   5.244   2.499
 7755SOL     OW23310   4.857   4.427   2.557
 7755SOL    HW123311   4.909   4.511   2.541
 7755SOL    HW223312   4.806   4.435   2.643
 7756SOL     OW23313   5.494   4.323   2.085
 7756SOL    HW123314   5.470   4.319   1.988
 7756SOL    HW223315   5.456   4.244   2.132
 7757SOL     OW23316   4.467   4.865   2.903
 7757SOL    HW123317   4.400   4.900   2.967
 7757SOL    HW223318   4.512   4.941   2.856
 7758SOL     OW23319   4.599   4.489   3.684
 7758SOL    HW123320   4.586   4.558   3.755
 7758SOL    HW223321   4.622   4.534   3.597
 7759SOL     OW23322   4.408   4.723   2.511
 7759SOL    HW123323   4.479   4.712   2.580
 7759SOL    HW223324   4.333   4.779   2.547
 7760SOL     OW23325   4.435   4.877   3.680
 7760SOL    HW123326   4.488   4.956   3.713
 7760SOL    HW223327   4.350   4.909   3.638
 7761SOL     OW23328   4.050   5.147   2.928
 7761SOL    HW123329   3.974   5.102   2.881
 7761SOL    HW223330   4.103   5.200   2.861
 7762SOL     OW23331   5.182   5.225   3.220
 7762SOL    HW123332   5.239   5.307   3.227
 7762SOL    HW223333   5.111   5.228   3.291
 7763SOL     OW23334   4.178   4.120   3.342
 7763SOL    HW123335   4.258   4.061   3.347
 7763SOL    HW223336   4.095   4.066   3.359
 7764SOL     OW23337   5.335   4.171   2.607
 7764SOL    HW123338   5.259   4.189   2.544
 7764SOL    HW223339   5.341   4.244   2.674
 7765SOL     OW23340   3.946   5.438   2.333
 7765SOL    HW123341   3.964   5.517   2.393
 7765SOL    HW223342   4.021   5.428   2.268
 7766SOL     OW23343   4.861   5.064   3.560
 7766SOL    HW123344   4.908   5.062   3.648
 7766SOL    HW223345   4.805   4.982   3.550
 7767SOL     OW23346   3.957   5.167   2.398
 7767SOL    HW123347   3.941   5.266   2.397
 7767SOL    HW223348   3.897   5.124   2.465
 7768SOL     OW23349   3.993   4.814   2.762
 7768SOL    HW123350   3.989   4.720   2.795
 7768SOL    HW223351   3.931   4.871   2.816
 7769SOL     OW23352   4.323   5.521   3.288
 7769SOL    HW123353   4.240   5.497   3.338
 7769SOL    HW223354   4.354   5.611   3.316
 7770SOL     OW23355   4.306   4.711   2.003
 7770SOL    HW123356   4.353   4.758   1.928
 7770SOL    HW223357   4.346   4.739   2.090
 7771SOL     OW23358   5.261   3.918   3.312
 7771SOL    HW123359   5.316   3.989   3.268
 7771SOL    HW223360   5.279   3.919   3.411
 7772SOL     OW23361   3.838   4.385   2.426
 7772SOL    HW123362   3.809   4.290   2.442
 7772SOL    HW223363   3.832   4.437   2.511
 7773SOL     OW23364   5.570   5.480   2.195
 7773SOL    HW123365   5.640   5.449   2.259
 7773SOL    HW223366   5.586   5.575   2.171
 7774SOL     OW23367   3.753   5.315   1.985
 7774SOL    HW123368   3.737   5.218   2.004
 7774SOL    HW223369   3.732   5.368   2.067
 7775SOL     OW23370   5.415   4.645   2.509
 7775SOL    HW123371   5.500   4.594   2.492
 7775SOL    HW223372   5.392   4.698   2.428
 7776SOL     OW23373   5.376   4.829   2.294
 7776SOL    HW123374   5.465   4.825   2.248
 7776SOL    HW223375   5.379   4.896   2.368
 7777SOL     OW23376   3.848   4.469   3.447
 7777SOL    HW123377   3.945   4.494   3.447
 7777SOL    HW223378   3.792   4.551   3.449
 7778SOL     OW23379   4.336   5.115   2.596
 7778SOL    HW123380   4.290   5.027   2.608
 7778SOL    HW223381   4.323   5.146   2.501
 7779SOL     OW23382   5.013   4.959   3.284
 7779SOL    HW123383   5.039   4.888   3.218
 7779SOL    HW223384   5.072   4.955   3.364
 7780SOL     OW23385   4.541   3.733   2.369
 7780SOL    HW123386   4.587   3.819   2.347
 7780SOL    HW223387   4.443   3.749   2.378
 7781SOL     OW23388   3.915   4.686   3.138
 7781SOL    HW123389   4.004   4.642   3.125
 7781SOL    HW223390   3.845   4.638   3.084
 7782SOL     OW23391   5.256   4.724   2.066
 7782SOL    HW123392   5.182   4.664   2.096
 7782SOL    HW223393   5.303   4.762   2.146
 7783SOL     OW23394   4.905   5.535   3.484
 7783SOL    HW123395   4.913   5.603   3.412
 7783SOL    HW223396   4.926   5.444   3.447
 7784SOL     OW23397   4.051   3.979   3.695
 7784SOL    HW123398   4.102   4.063   3.714
 7784SOL    HW223399   3.955   3.992   3.720
 7785SOL     OW23400   5.189   5.144   2.809
 7785SOL    HW123401   5.122   5.163   2.881
 7785SOL    HW223402   5.180   5.049   2.780
 7786SOL     OW23403   5.374   5.473   2.438
 7786SOL    HW123404   5.357   5.444   2.344
 7786SOL    HW223405   5.353   5.398   2.500
 7787SOL     OW23406   4.319   4.443   2.135
 7787SOL    HW123407   4.324   4.528   2.083
 7787SOL    HW223408   4.249   4.452   2.206
 7788SOL     OW23409   5.003   4.080   2.797
 7788SOL    HW123410   4.909   4.047   2.804
 7788SOL    HW223411   5.061   4.029   2.859
 7789SOL     OW23412   5.307   5.397   2.170
 7789SOL    HW123413   5.403   5.424   2.166
 7789SOL    HW223414   5.274   5.379   2.077
 7790SOL     OW23415   4.513   4.337   3.311
 7790SOL    HW123416   4.487   4.314   3.405
 7790SOL    HW223417   4.476   4.269   3.248
 7791SOL     OW23418   5.116   4.197   3.542
 7791SOL    HW123419   5.117   4.245   3.629
 7791SOL    HW223420   5.179   4.120   3.546
 7792SOL     OW23421   4.677   4.609   3.445
 7792SOL    HW123422   4.734   4.536   3.407
 7792SOL    HW223423   4.623   4.650   3.372
 7793SOL     OW23424   4.718   4.136   3.090
 7793SOL    HW123425   4.628   4.151   3.130
 7793SOL    HW223426   4.709   4.077   3.010
 7794SOL     OW23427   4.774   4.423   2.287
 7794SOL    HW123428   4.796   4.418   2.384
 7794SOL    HW223429   4.688   4.375   2.270
 7795SOL     OW23430   3.813   4.552   2.642
 7795SOL    HW123431   3.898   4.539   2.692
 7795SOL    HW223432   3.764   4.631   2.679
 7796SOL     OW23433   3.852   5.595   3.450
 7796SOL    HW123434   3.857   5.568   3.546
 7796SOL    HW223435   3.767   5.562   3.410
 7797SOL     OW23436   4.620   4.077   2.059
 7797SOL    HW123437   4.660   4.144   1.997
 7797SOL    HW223438   4.630   3.985   2.019
 7798SOL     OW23439   5.424   4.296   3.687
 7798SOL    HW123440   5.389   4.375   3.637
 7798SOL    HW223441   5.457   4.228   3.623
 7799SOL     OW23442   5.104   4.867   2.396
 7799SOL    HW123443   5.188   4.851   2.345
 7799SOL    HW223444   5.047   4.934   2.348
 7800SOL     OW23445   4.271   3.897   2.763
 7800SOL    HW123446   4.276   3.926   2.858
 7800SOL    HW223447   4.274   3.978   2.704
 7801SOL     OW23448   4.719   5.167   2.326
 7801SOL    HW123449   4.687   5.247   2.276
 7801SOL    HW223450   4.704   5.179   2.424
 7802SOL     OW23451   4.080   5.538   2.732
 7802SOL    HW123452   4.124   5.448   2.739
 7802SOL    HW223453   4.147   5.610   2.751
 7803SOL     OW23454   5.522   4.781   2.734
 7803SOL    HW123455   5.471   4.757   2.651
 7803SOL    HW223456   5.459   4.787   2.811
 7804SOL     OW23457   4.950   5.260   3.376
 7804SOL    HW123458   4.938   5.186   3.442
 7804SOL    HW223459   4.883   5.251   3.303
 7805SOL     OW23460   4.045   4.683   2.116
 7805SOL    HW123461   4.133   4.703   2.073
 7805SOL    HW223462   4.009   4.598   2.079
 7806SOL     OW23463   5.207   4.474   2.585
 7806SOL    HW123464   5.200   4.428   2.674
 7806SOL    HW223465   5.288   4.533   2.583
 7807SOL     OW23466   4.192   4.989   3.593
 7807SOL    HW123467   4.166   4.995   3.497
 7807SOL    HW223468   4.110   4.986   3.650
 7808SOL     OW23469   4.846   5.500   2.088
 7808SOL    HW123470   4.767   5.462   2.137
 7808SOL    HW223471   4.875   5.436   2.018
 7809SOL     OW23472   3.928   4.009   3.360
 7809SOL    HW123473   3.847   4.067   3.356
 7809SOL    HW223474   3.903   3.919   3.395
 7810SOL     OW23475   5.349   5.106   1.950
 7810SOL    HW123476   5.310   5.197   1.934
 7810SOL    HW223477   5.279   5.036   1.931
 7811SOL     OW23478   4.189   5.459   2.181
 7811SOL    HW123479   4.230   5.521   2.247
 7811SOL    HW223480   4.259   5.422   2.120
 7812SOL     OW23481   5.125   3.828   2.298
 7812SOL    HW123482   5.114   3.803   2.202
 7812SOL    HW223483   5.223   3.837   2.319
 7813SOL     OW23484   3.982   5.515   3.088
 7813SOL    HW123485   4.033   5.443   3.135
 7813SOL    HW223486   3.964   5.488   2.994
 7814SOL     OW23487   4.660   5.426   2.759
 7814SOL    HW123488   4.743   5.379   2.789
 7814SOL    HW223489   4.618   5.374   2.684
 7815SOL     OW23490   4.119   4.413   2.336
 7815SOL    HW123491   4.139   4.316   2.350
 7815SOL    HW223492   4.022   4.429   2.354
 7816SOL     OW23493   5.259   3.955   3.594
 7816SOL    HW123494   5.266   3.973   3.692
 7816SOL    HW223495   5.184   3.890   3.577
 7817SOL     OW23496   4.364   3.841   1.964
 7817SOL    HW123497   4.433   3.772   1.987
 7817SOL    HW223498   4.309   3.809   1.887
 7818SOL     OW23499   4.483   4.013   3.617
 7818SOL    HW123500   4.569   3.961   3.619
 7818SOL    HW223501   4.428   3.989   3.697
 7819SOL     OW23502   4.598   5.238   3.055
 7819SOL    HW123503   4.579   5.203   2.963
 7819SOL    HW223504   4.671   5.185   3.097
 7820SOL     OW23505   5.063   4.313   3.297
 7820SOL    HW123506   5.093   4.278   3.386
 7820SOL    HW223507   5.099   4.406   3.285
 7821SOL     OW23508   4.544   5.113   2.803
 7821SOL    HW123509   4.634   5.102   2.761
 7821SOL    HW223510   4.474   5.119   2.732
 7822SOL     OW23511   4.650   4.232   2.760
 7822SOL    HW123512   4.625   4.223   2.664
 7822SOL    HW223513   4.682   4.144   2.795
 7823SOL     OW23514   4.271   3.788   2.356
 7823SOL    HW123515   4.189   3.786   2.414
 7823SOL    HW223516   4.267   3.869   2.297
 7824SOL     OW23517   5.150   4.923   1.905
 7824SOL    HW123518   5.183   4.845   1.958
 7824SOL    HW223519   5.061   4.952   1.941
 7825SOL     OW23520   4.015   3.772   2.048
 7825SOL    HW123521   4.068   3.844   2.002
 7825SOL    HW223522   4.077   3.707   2.091
 7826SOL     OW23523   4.670   3.974   2.318
 7826SOL    HW123524   4.639   4.016   2.233
 7826SOL    HW223525   4.769   3.988   2.328
 7827SOL     OW23526   4.803   4.406   3.317
 7827SOL    HW123527   4.728   4.340   3.320
 7827SOL    HW223528   4.890   4.358   3.312
 7828SOL     OW23529   4.944   5.293   2.656
 7828SOL    HW123530   4.958   5.363   2.586
 7828SOL    HW223531   5.015   5.301   2.726
 7829SOL     OW23532   4.192   4.876   2.590
 7829SOL    HW123533   4.126   4.855   2.662
 7829SOL    HW223534   4.150   4.863   2.500
 7830SOL     OW23535   4.987   5.516   2.472
 7830SOL    HW123536   5.039   5.578   2.413
 7830SOL    HW223537   4.914   5.566   2.518
 7831SOL     OW23538   4.745   4.260   1.891
 7831SOL    HW123539   4.700   4.346   1.868
 7831SOL    HW223540   4.814   4.277   1.961
 7832SOL     OW23541   3.810   4.281   3.254
 7832SOL    HW123542   3.904   4.275   3.221
 7832SOL    HW223543   3.802   4.352   3.323
 7833SOL     OW23544   4.284   3.947   3.034
 7833SOL    HW123545   4.336   3.876   3.080
 7833SOL    HW223546   4.189   3.945   3.063
 7834SOL     OW23547   4.590   4.182   2.498
 7834SOL    HW123548   4.542   4.244   2.436
 7834SOL    HW223549   4.618   4.100   2.449
 7835SOL     OW23550   4.742   3.776   2.607
 7835SOL    HW123551   4.681   3.776   2.528
 7835SOL    HW223552   4.717   3.701   2.669
 7836SOL     OW23553   5.169   4.885   2.720
 7836SOL    HW123554   5.093   4.819   2.724
 7836SOL    HW223555   5.198   4.896   2.625
 7837SOL     OW23556   5.192   4.331   2.832
 7837SOL    HW123557   5.129   4.253   2.832
 7837SOL    HW223558   5.253   4.326   2.911
 7838SOL     OW23559   5.566   4.533   2.242
 7838SOL    HW123560   5.624   4.485   2.308
 7838SOL    HW223561   5.537   4.469   2.171
 7839SOL     OW23562   4.211   5.145   2.017
 7839SOL    HW123563   4.131   5.118   2.070
 7839SOL    HW223564   4.209   5.099   1.928
 7840SOL     OW23565   5.399   4.991   2.505
 7840SOL    HW123566   5.498   4.988   2.517
 7840SOL    HW223567   5.365   5.083   2.526
 7841SOL     OW23568   5.114   4.298   1.933
 7841SOL    HW123569   5.051   4.276   2.007
 7841SOL    HW223570   5.207   4.272   1.958
 7842SOL     OW23571   4.252   3.988   2.172
 7842SOL    HW123572   4.300   3.936   2.101
 7842SOL    HW223573   4.223   4.077   2.134
 7843SOL     OW23574   5.476   4.965   3.423
 7843SOL    HW123575   5.566   4.922   3.410
 7843SOL    HW223576   5.488   5.058   3.457
 7844SOL     OW23577   4.778   5.074   3.198
 7844SOL    HW123578   4.697   5.044   3.248
 7844SOL    HW223579   4.859   5.034   3.240
 7845SOL     OW23580   5.337   5.354   3.519
 7845SOL    HW123581   5.322   5.389   3.427
 7845SOL    HW223582   5.423   5.302   3.521
 7846SOL     OW23583   4.861   4.943   2.967
 7846SOL    HW123584   4.801   4.977   3.039
 7846SOL    HW223585   4.827   4.973   2.878
 7847SOL     OW23586   5.348   4.821   2.941
 7847SOL    HW123587   5.344   4.886   3.017
 7847SOL    HW223588   5.272   4.837   2.879
 7848SOL     OW23589   4.637   3.848   3.244
 7848SOL    HW123590   4.659   3.801   3.159
 7848SOL    HW223591   4.720   3.880   3.288
 7849SOL     OW23592   4.703   4.838   3.583
 7849SOL    HW123593   4.609   4.858   3.610
 7849SOL    HW223594   4.706   4.756   3.527
 7850SOL     OW23595   4.437   4.783   2.235
 7850SOL    HW123596   4.419   4.765   2.332
 7850SOL    HW223597   4.516   4.729   2.205
 7851SOL     OW23598   4.146   4.539   3.116
 7851SOL    HW123599   4.219   4.552   3.183
 7851SOL    HW223600   4.108   4.447   3.126
 7852SOL     OW23601   4.986   4.102   3.140
 7852SOL    HW123602   5.023   4.180   3.191
 7852SOL    HW223603   4.890   4.119   3.118
 7853SOL     OW23604   3.798   5.296   3.215
 7853SOL    HW123605   3.763   5.366   3.153
 7853SOL    HW223606   3.898   5.294   3.210
 7854SOL     OW23607   4.066   4.842   2.349
 7854SOL    HW123608   4.072   4.924   2.292
 7854SOL    HW223609   4.064   4.761   2.291
 7855SOL     OW23610   4.272   4.267   2.724
 7855SOL    HW123611   4.286   4.327   2.645
 7855SOL    HW223612   4.341   4.287   2.793
 7856SOL     OW23613   4.970   5.079   2.254
 7856SOL    HW123614   5.031   5.151   2.285
 7856SOL    HW223615   4.877   5.098   2.284
 7857SOL     OW23616   5.012   5.186   3.009
 7857SOL    HW123617   5.070   5.191   3.090
 7857SOL    HW223618   4.957   5.102   3.013
 7858SOL     OW23619   5.301   4.345   2.344
 7858SOL    HW123620   5.250   4.392   2.416
 7858SOL    HW223621   5.348   4.412   2.287
 7859SOL     OW23622   4.072   5.254   3.172
 7859SOL    HW123623   4.056   5.209   3.084
 7859SOL    HW223624   4.170   5.267   3.184
 7860SOL     OW23625   4.139   4.469   3.462
 7860SOL    HW123626   4.206   4.515   3.403
 7860SOL    HW223627   4.172   4.378   3.484
 7861SOL     OW23628   5.332   4.509   3.546
 7861SOL    HW123629   5.241   4.550   3.544
 7861SOL    HW223630   5.389   4.550   3.475
 7862SOL     OW23631   4.717   3.876   3.629
 7862SOL    HW123632   4.776   3.953   3.605
 7862SOL    HW223633   4.744   3.796   3.575
 7863SOL     OW23634   4.228   3.805   3.596
 7863SOL    HW123635   4.199   3.748   3.519
 7863SOL    HW223636   4.156   3.870   3.618
 7864SOL     OW23637   4.307   4.596   2.896
 7864SOL    HW123638   4.344   4.689   2.894
 7864SOL    HW223639   4.248   4.585   2.976
 7865SOL     OW23640   5.076   4.581   2.886
 7865SOL    HW123641   4.985   4.572   2.846
 7865SOL    HW223642   5.125   4.494   2.878
 7866SOL     OW23643   4.921   4.251   2.126
 7866SOL    HW123644   4.935   4.168   2.181
 7866SOL    HW223645   4.877   4.321   2.182
 7867SOL     OW23646   4.023   3.921   3.107
 7867SOL    HW123647   3.987   3.960   3.192
 7867SOL    HW223648   4.005   3.822   3.107
 7868SOL     OW23649   3.776   5.034   3.137
 7868SOL    HW123650   3.808   4.973   3.209
 7868SOL    HW223651   3.779   5.128   3.170
 7869SOL     OW23652   4.448   4.355   2.916
 7869SOL    HW123653   4.525   4.334   2.856
 7869SOL    HW223654   4.414   4.446   2.896
 7870SOL     OW23655   5.460   4.685   3.718
 7870SOL    HW123656   5.417   4.616   3.659
 7870SOL    HW223657   5.400   4.704   3.796
 7871SOL     OW23658   4.030   3.786   2.489
 7871SOL    HW123659   4.006   3.881   2.508
 7871SOL    HW223660   4.043   3.737   2.576
 7872SOL     OW23661   5.351   4.105   2.224
 7872SOL    HW123662   5.377   4.031   2.286
 7872SOL    HW223663   5.322   4.185   2.277
 7873SOL     OW23664   4.748   4.480   2.821
 7873SOL    HW123665   4.743   4.501   2.918
 7873SOL    HW223666   4.721   4.385   2.806
 7874SOL     OW23667   4.705   5.287   3.580
 7874SOL    HW123668   4.688   5.334   3.493
 7874SOL    HW223669   4.753   5.201   3.562
 7875SOL     OW23670   5.579   5.227   3.466
 7875SOL    HW123671   5.597   5.254   3.371
 7875SOL    HW223672   5.661   5.239   3.520
 7876SOL     OW23673   4.077   4.642   3.666
 7876SOL    HW123674   4.157   4.664   3.722
 7876SOL    HW223675   4.102   4.576   3.595
 7877SOL     OW23676   5.251   3.993   1.992
 7877SOL    HW123677   5.182   3.925   2.017
 7877SOL    HW223678   5.288   4.035   2.075
 7878SOL     OW23679   5.012   4.550   1.888
 7878SOL    HW123680   5.053   4.459   1.897
 7878SOL    HW223681   5.044   4.592   1.803
 7879SOL     OW23682   4.794   5.062   2.717
 7879SOL    HW123683   4.797   4.983   2.654
 7879SOL    HW223684   4.853   5.134   2.682
 7880SOL     OW23685   4.035   4.530   2.805
 7880SOL    HW123686   4.132   4.556   2.801
 7880SOL    HW223687   4.027   4.436   2.837
 7881SOL     OW23688   4.051   4.252   2.873
 7881SOL    HW123689   4.012   4.160   2.863
 7881SOL    HW223690   4.132   4.261   2.815
 7882SOL     OW23691   4.859   4.102   3.560
 7882SOL    HW123692   4.808   4.161   3.622
 7882SOL    HW223693   4.952   4.138   3.548
 7883SOL     OW23694   4.873   3.936   3.343
 7883SOL    HW123695   4.867   4.002   3.417
 7883SOL    HW223696   4.929   3.973   3.269
 7884SOL     OW23697   3.724   5.039   2.057
 7884SOL    HW123698   3.635   5.059   2.017
 7884SOL    HW223699   3.726   4.946   2.092
 7885SOL     OW23700   3.817   5.507   2.805
 7885SOL    HW123701   3.781   5.426   2.760
 7885SOL    HW223702   3.911   5.524   2.773
 7886SOL     OW23703   4.218   5.300   2.767
 7886SOL    HW123704   4.287   5.366   2.794
 7886SOL    HW223705   4.258   5.232   2.705
 7887SOL     OW23706   4.698   4.519   3.087
 7887SOL    HW123707   4.759   4.494   3.163
 7887SOL    HW223708   4.610   4.473   3.099
 7888SOL     OW23709   3.761   4.278   2.979
 7888SOL    HW123710   3.843   4.263   2.923
 7888SOL    HW223711   3.787   4.278   3.076
 7889SOL     OW23712   3.914   4.247   3.593
 7889SOL    HW123713   3.966   4.191   3.528
 7889SOL    HW223714   3.878   4.327   3.545
 7890SOL     OW23715   5.104   4.659   3.517
 7890SOL    HW123716   5.127   4.757   3.518
 7890SOL    HW223717   5.101   4.627   3.422
 7891SOL     OW23718   4.541   4.296   2.223
 7891SOL    HW123719   4.551   4.216   2.163
 7891SOL    HW223720   4.463   4.351   2.193
 7892SOL     OW23721   5.366   4.328   3.043
 7892SOL    HW123722   5.348   4.267   3.119
 7892SOL    HW223723   5.458   4.310   3.007
 7893SOL     OW23724   3.964   5.271   3.588
 7893SOL    HW123725   3.942   5.345   3.651
 7893SOL    HW223726   3.970   5.185   3.638
 7894SOL     OW23727   4.430   4.173   3.115
 7894SOL    HW123728   4.374   4.094   3.091
 7894SOL    HW223729   4.428   4.240   3.041
 7895SOL     OW23730   4.643   5.405   3.334
 7895SOL    HW123731   4.618   5.359   3.249
 7895SOL    HW223732   4.644   5.504   3.319
 7896SOL     OW23733   4.183   4.219   2.047
 7896SOL    HW123734   4.248   4.291   2.072
 7896SOL    HW223735   4.092   4.259   2.034
 7897SOL     OW23736   3.866   4.861   3.337
 7897SOL    HW123737   3.868   4.817   3.426
 7897SOL    HW223738   3.886   4.794   3.266
 7898SOL     OW23739   5.040   4.768   3.081
 7898SOL    HW123740   5.067   4.700   3.013
 7898SOL    HW223741   4.973   4.830   3.040
 7899SOL     OW23742   5.039   4.581   2.161
 7899SOL    HW123743   4.964   4.553   2.220
 7899SOL    HW223744   5.014   4.568   2.065
 7900SOL     OW23745   5.504   5.454   3.019
 7900SOL    HW123746   5.565   5.488   2.947
 7900SOL    HW223747   5.473   5.362   2.994
 7901SOL     OW23748   4.965   5.457   2.967
 7901SOL    HW123749   5.051   5.486   2.925
 7901SOL    HW223750   4.971   5.360   2.991
 7902SOL     OW23751   3.810   4.989   2.872
 7902SOL    HW123752   3.794   5.004   2.970
 7902SOL    HW223753   3.738   4.930   2.836
 7903SOL     OW23754   4.405   5.397   3.598
 7903SOL    HW123755   4.342   5.475   3.593
 7903SOL    HW223756   4.478   5.409   3.531
 7904SOL     OW23757   5.443   3.873   2.360
 7904SOL    HW123758   5.519   3.863   2.296
 7904SOL    HW223759   5.426   3.786   2.406
 7905SOL     OW23760   5.119   5.294   2.349
 7905SOL    HW123761   5.182   5.326   2.279
 7905SOL    HW223762   5.064   5.371   2.382
 7906SOL     OW23763   3.869   5.511   3.708
 7906SOL    HW123764   3.812   5.443   3.753
 7906SOL    HW223765   3.919   5.564   3.776
 7907SOL     OW23766   5.006   4.652   2.528
 7907SOL    HW123767   5.080   4.588   2.544
 7907SOL    HW223768   5.039   4.729   2.473
 7908SOL     OW23769   4.528   5.003   3.288
 7908SOL    HW123770   4.499   5.046   3.373
 7908SOL    HW223771   4.459   5.017   3.218
 7909SOL     OW23772   4.392   5.346   2.016
 7909SOL    HW123773   4.409   5.364   1.919
 7909SOL    HW223774   4.334   5.265   2.025
 7910SOL     OW23775   5.341   5.453   3.249
 7910SOL    HW123776   5.398   5.453   3.167
 7910SOL    HW223777   5.327   5.546   3.281
 7911SOL     OW23778   5.569   3.893   2.819
 7911SOL    HW123779   5.602   3.801   2.797
 7911SOL    HW223780   5.476   3.904   2.785
 7912SOL     OW23781   3.980   4.038   2.577
 7912SOL    HW123782   3.891   4.075   2.550
 7912SOL    HW223783   3.983   4.030   2.677
 7913SOL     OW23784   4.932   5.325   1.895
 7913SOL    HW123785   4.923   5.231   1.928
 7913SOL    HW223786   4.865   5.342   1.823
 7914SOL     OW23787   4.547   4.733   3.241
 7914SOL    HW123788   4.599   4.716   3.157
 7914SOL    HW223789   4.545   4.832   3.259
 7915SOL     OW23790   4.644   4.634   2.148
 7915SOL    HW123791   4.705   4.670   2.078
 7915SOL    HW223792   4.690   4.563   2.201
 7916SOL     OW23793   5.212   5.354   1.904
 7916SOL    HW123794   5.114   5.343   1.893
 7916SOL    HW223795   5.256   5.359   1.814
 7917SOL     OW23796   4.089   5.027   3.349
 7917SOL    HW123797   4.080   5.107   3.290
 7917SOL    HW223798   4.010   4.968   3.338
 7918SOL     OW23799   5.337   5.008   3.146
 7918SOL    HW123800   5.400   4.989   3.222
 7918SOL    HW223801   5.271   5.078   3.175
 7919SOL     OW23802   4.785   4.830   2.577
 7919SOL    HW123803   4.709   4.780   2.617
 7919SOL    HW223804   4.854   4.766   2.544
 7920SOL     OW23805   4.747   3.961   2.831
 7920SOL    HW123806   4.743   3.918   2.741
 7920SOL    HW223807   4.744   3.891   2.902
 7921SOL     OW23808   4.329   5.210   2.342
 7921SOL    HW123809   4.380   5.156   2.275
 7921SOL    HW223810   4.255   5.258   2.295
 7922SOL     OW23811   5.456   4.115   3.240
 7922SOL    HW123812   5.528   4.185   3.240
 7922SOL    HW223813   5.483   4.040   3.180
 7923SOL     OW23814   3.977   5.072   2.150
 7923SOL    HW123815   3.881   5.065   2.123
 7923SOL    HW223816   3.983   5.110   2.242
 7924SOL     OW23817   3.839   4.758   3.590
 7924SOL    HW123818   3.757   4.730   3.641
 7924SOL    HW223819   3.919   4.713   3.628
 7925SOL     OW23820   4.404   3.929   3.358
 7925SOL    HW123821   4.491   3.911   3.313
 7925SOL    HW223822   4.420   3.956   3.453
 7926SOL     OW23823   3.806   4.052   1.891
 7926SOL    HW123824   3.714   4.029   1.860
 7926SOL    HW223825   3.838   4.134   1.843
 7927SOL     OW23826   5.148   4.581   3.257
 7927SOL    HW123827   5.092   4.645   3.203
 7927SOL    HW223828   5.242   4.582   3.223
 7928SOL     OW23829   3.787   3.879   2.164
 7928SOL    HW123830   3.771   3.963   2.113
 7928SOL    HW223831   3.876   3.841   2.138
 7929SOL     OW23832   4.904   5.061   1.983
 7929SOL    HW123833   4.809   5.031   1.976
 7929SOL    HW223834   4.932   5.063   2.079
 7930SOL     OW23835   4.347   4.554   3.296
 7930SOL    HW123836   4.405   4.635   3.281
 7930SOL    HW223837   4.404   4.473   3.305
 7931SOL     OW23838   5.209   5.512   2.850
 7931SOL    HW123839   5.230   5.574   2.774
 7931SOL    HW223840   5.294   5.478   2.889
 7932SOL     OW23841   4.443   4.286   3.564
 7932SOL    HW123842   4.490   4.351   3.624
 7932SOL    HW223843   4.463   4.193   3.593
 7933SOL     OW23844   5.198   4.921   3.496
 7933SOL    HW123845   5.183   4.933   3.594
 7933SOL    HW223846   5.294   4.939   3.475
 7934SOL     OW23847   4.095   5.462   3.429
 7934SOL    HW123848   4.011   5.514   3.414
 7934SOL    HW223849   4.073   5.374   3.471
 7935SOL     OW23850   5.390   4.602   3.118
 7935SOL    HW123851   5.385   4.511   3.077
 7935SOL    HW223852   5.377   4.671   3.047
 7936SOL     OW23853   4.944   4.041   2.322
 7936SOL    HW123854   5.007   3.964   2.312
 7936SOL    HW223855   4.970   4.096   2.401
 7937SOL     OW23856   4.310   4.461   2.530
 7937SOL    HW123857   4.352   4.551   2.520
 7937SOL    HW223858   4.241   4.448   2.460
 7938SOL     OW23859   5.482   4.088   3.513
 7938SOL    HW123860   5.471   4.103   3.415
 7938SOL    HW223861   5.407   4.031   3.547
 7939SOL     OW23862   5.476   4.656   3.371
 7939SOL    HW123863   5.465   4.753   3.393
 7939SOL    HW223864   5.455   4.641   3.275
 7940SOL     OW23865   4.590   5.088   1.905
 7940SOL    HW123866   4.549   5.112   1.993
 7940SOL    HW223867   4.605   5.171   1.852
 7941SOL     OW23868   4.389   5.509   2.804
 7941SOL    HW123869   4.365   5.604   2.783
 7941SOL    HW223870   4.487   5.496   2.793
 7942SOL     OW23871   4.593   4.694   2.718
 7942SOL    HW123872   4.644   4.616   2.755
 7942SOL    HW223873   4.551   4.744   2.794
 7943SOL     OW23874   4.802   4.714   1.946
 7943SOL    HW123875   4.774   4.767   1.866
 7943SOL    HW223876   4.879   4.655   1.922
 7944SOL     OW23877   5.570   5.280   2.709
 7944SOL    HW123878   5.493   5.268   2.646
 7944SOL    HW223879   5.566   5.211   2.781
 7945SOL     OW23880   3.955   5.023   3.719
 7945SOL    HW123881   3.889   4.956   3.684
 7945SOL    HW223882   3.940   5.036   3.817
 7946SOL     OW23883   3.811   4.954   2.525
 7946SOL    HW123884   3.816   4.908   2.614
 7946SOL    HW223885   3.879   4.914   2.464
 7947SOL     OW23886   4.406   5.133   3.495
 7947SOL    HW123887   4.326   5.083   3.527
 7947SOL    HW223888   4.405   5.226   3.532
 7948SOL     OW23889   5.531   3.908   3.089
 7948SOL    HW123890   5.511   3.813   3.111
 7948SOL    HW223891   5.547   3.917   2.991
 7949SOL     OW23892   4.154   4.152   2.388
 7949SOL    HW123893   4.188   4.082   2.326
 7949SOL    HW223894   4.100   4.109   2.461
 7950SOL     OW23895   5.417   5.207   2.956
 7950SOL    HW123896   5.336   5.189   2.900
 7950SOL    HW223897   5.426   5.136   3.026
 7951SOL     OW23898   4.058   4.279   3.151
 7951SOL    HW123899   4.117   4.224   3.211
 7951SOL    HW223900   4.075   4.254   3.056
 7952SOL     OW23901   4.552   5.304   2.540
 7952SOL    HW123902   4.539   5.365   2.462
 7952SOL    HW223903   4.476   5.240   2.547
 7953SOL     OW23904   5.156   3.954   2.983
 7953SOL    HW123905   5.189   3.870   3.027
 7953SOL    HW223906   5.100   4.005   3.048
 7954SOL     OW23907   4.735   3.738   3.003
 7954SOL    HW123908   4.669   3.671   2.969
 7954SOL    HW223909   4.827   3.698   3.003
 7955SOL     OW23910   4.498   5.056   2.183
 7955SOL    HW123911   4.471   4.960   2.191
 7955SOL    HW223912   4.583   5.070   2.234
 7956SOL     OW23913   4.347   5.283   3.152
 7956SOL    HW123914   4.345   5.370   3.201
 7956SOL    HW223915   4.438   5.270   3.111
 7957SOL     OW23916   5.078   3.774   2.031
 7957SOL    HW123917   5.121   3.706   1.972
 7957SOL    HW223918   4.985   3.745   2.054
 7958SOL     OW23919   5.015   4.188   2.543
 7958SOL    HW123920   4.962   4.272   2.546
 7958SOL    HW223921   5.013   4.144   2.634
 7959SOL     OW23922   5.311   3.927   2.748
 7959SOL    HW123923   5.252   3.945   2.827
 7959SOL    HW223924   5.311   4.008   2.688
 7960SOL     OW23925   3.767   4.788   2.170
 7960SOL    HW123926   3.865   4.788   2.150
 7960SOL    HW223927   3.737   4.695   2.192
 7961SOL     OW23928   4.608   5.386   2.202
 7961SOL    HW123929   4.533   5.365   2.140
 7961SOL    HW223930   4.582   5.464   2.260
 7962SOL     OW23931   3.947   4.343   3.852
 7962SOL    HW123932   3.855   4.342   3.892
 7962SOL    HW223933   3.940   4.321   3.754
 7963SOL     OW23934   3.946   4.006   4.719
 7963SOL    HW123935   3.979   3.972   4.807
 7963SOL    HW223936   3.853   3.974   4.702
 7964SOL     OW23937   3.725   4.111   4.358
 7964SOL    HW123938   3.641   4.140   4.403
 7964SOL    HW223939   3.708   4.028   4.305
 7965SOL     OW23940   4.293   5.021   4.909
 7965SOL    HW123941   4.202   5.018   4.866
 7965SOL    HW223942   4.310   5.114   4.943
 7966SOL     OW23943   5.289   5.237   4.431
 7966SOL    HW123944   5.246   5.213   4.519
 7966SOL    HW223945   5.218   5.244   4.361
 7967SOL     OW23946   4.857   4.427   4.419
 7967SOL    HW123947   4.909   4.511   4.402
 7967SOL    HW223948   4.807   4.436   4.505
 7968SOL     OW23949   5.492   4.324   3.947
 7968SOL    HW123950   5.469   4.320   3.850
 7968SOL    HW223951   5.457   4.243   3.993
 7969SOL     OW23952   4.468   4.865   4.765
 7969SOL    HW123953   4.400   4.900   4.829
 7969SOL    HW223954   4.512   4.941   4.718
 7970SOL     OW23955   4.598   4.488   5.545
 7970SOL    HW123956   4.586   4.556   5.617
 7970SOL    HW223957   4.622   4.534   5.459
 7971SOL     OW23958   4.408   4.723   4.373
 7971SOL    HW123959   4.479   4.712   4.442
 7971SOL    HW223960   4.333   4.779   4.409
 7972SOL     OW23961   4.435   4.877   5.542
 7972SOL    HW123962   4.488   4.956   5.575
 7972SOL    HW223963   4.350   4.909   5.500
 7973SOL     OW23964   4.051   5.147   4.790
 7973SOL    HW123965   3.974   5.103   4.743
 7973SOL    HW223966   4.103   5.200   4.723
 7974SOL     OW23967   5.182   5.226   5.082
 7974SOL    HW123968   5.239   5.307   5.089
 7974SOL    HW223969   5.111   5.228   5.153
 7975SOL     OW23970   4.174   4.117   5.202
 7975SOL    HW123971   4.255   4.060   5.211
 7975SOL    HW223972   4.093   4.063   5.221
 7976SOL     OW23973   5.335   4.170   4.469
 7976SOL    HW123974   5.261   4.190   4.404
 7976SOL    HW223975   5.343   4.245   4.534
 7977SOL     OW23976   3.946   5.438   4.195
 7977SOL    HW123977   3.964   5.517   4.255
 7977SOL    HW223978   4.021   5.428   4.130
 7978SOL     OW23979   4.861   5.064   5.422
 7978SOL    HW123980   4.908   5.062   5.510
 7978SOL    HW223981   4.805   4.982   5.412
 7979SOL     OW23982   3.957   5.167   4.260
 7979SOL    HW123983   3.941   5.266   4.259
 7979SOL    HW223984   3.897   5.124   4.327
 7980SOL     OW23985   3.993   4.814   4.625
 7980SOL    HW123986   3.989   4.720   4.658
 7980SOL    HW223987   3.931   4.871   4.678
 7981SOL     OW23988   4.323   5.521   5.150
 7981SOL    HW123989   4.240   5.497   5.200
 7981SOL    HW223990   4.354   5.611   5.178
 7982SOL     OW23991   4.306   4.711   3.865
 7982SOL    HW123992   4.353   4.758   3.790
 7982SOL    HW223993   4.346   4.739   3.952
 7983SOL     OW23994   5.321   3.849   5.193
 7983SOL    HW123995   5.340   3.929   5.137
 7983SOL    HW223996   5.306   3.877   5.288
 7984SOL     OW23997   3.838   4.385   4.288
 7984SOL    HW123998   3.809   4.290   4.305
 7984SOL    HW223999   3.832   4.437   4.373
 7985SOL     OW24000   5.570   5.480   4.057
 7985SOL    HW124001   5.640   5.449   4.121
 7985SOL    HW224002   5.586   5.575   4.033
 7986SOL     OW24003   3.753   5.315   3.847
 7986SOL    HW124004   3.737   5.218   3.866
 7986SOL    HW224005   3.732   5.368   3.929
 7987SOL     OW24006   5.415   4.645   4.371
 7987SOL    HW124007   5.499   4.594   4.354
 7987SOL    HW224008   5.391   4.699   4.290
 7988SOL     OW24009   5.376   4.829   4.156
 7988SOL    HW124010   5.465   4.826   4.110
 7988SOL    HW224011   5.379   4.896   4.230
 7989SOL     OW24012   3.848   4.468   5.309
 7989SOL    HW124013   3.944   4.495   5.310
 7989SOL    HW224014   3.791   4.551   5.311
 7990SOL     OW24015   4.336   5.115   4.458
 7990SOL    HW124016   4.290   5.027   4.470
 7990SOL    HW224017   4.323   5.146   4.363
 7991SOL     OW24018   5.012   4.959   5.146
 7991SOL    HW124019   5.040   4.888   5.080
 7991SOL    HW224020   5.072   4.955   5.226
 7992SOL     OW24021   4.539   3.729   4.227
 7992SOL    HW124022   4.587   3.815   4.206
 7992SOL    HW224023   4.441   3.748   4.239
 7993SOL     OW24024   3.915   4.686   5.000
 7993SOL    HW124025   4.004   4.642   4.986
 7993SOL    HW224026   3.845   4.638   4.947
 7994SOL     OW24027   5.256   4.724   3.928
 7994SOL    HW124028   5.183   4.663   3.957
 7994SOL    HW224029   5.303   4.762   4.008
 7995SOL     OW24030   4.905   5.535   5.346
 7995SOL    HW124031   4.913   5.604   5.274
 7995SOL    HW224032   4.926   5.444   5.309
 7996SOL     OW24033   4.065   3.973   5.555
 7996SOL    HW124034   4.114   4.059   5.571
 7996SOL    HW224035   3.968   3.986   5.575
 7997SOL     OW24036   5.189   5.144   4.671
 7997SOL    HW124037   5.122   5.163   4.743
 7997SOL    HW224038   5.180   5.049   4.643
 7998SOL     OW24039   5.374   5.473   4.300
 7998SOL    HW124040   5.357   5.444   4.206
 7998SOL    HW224041   5.353   5.398   4.362
 7999SOL     OW24042   4.319   4.443   3.997
 7999SOL    HW124043   4.324   4.528   3.945
 7999SOL    HW224044   4.249   4.452   4.068
 8000SOL     OW24045   5.001   4.083   4.657
 8000SOL    HW124046   4.908   4.049   4.664
 8000SOL    HW224047   5.061   4.030   4.719
 8001SOL     OW24048   5.307   5.397   4.032
 8001SOL    HW124049   5.403   5.424   4.028
 8001SOL    HW224050   5.274   5.379   3.939
 8002SOL     OW24051   4.514   4.337   5.173
 8002SOL    HW124052   4.489   4.313   5.267
 8002SOL    HW224053   4.476   4.268   5.111
 8003SOL     OW24054   5.115   4.194   5.403
 8003SOL    HW124055   5.115   4.243   5.490
 8003SOL    HW224056   5.176   4.115   5.410
 8004SOL     OW24057   4.677   4.609   5.307
 8004SOL    HW124058   4.735   4.537   5.269
 8004SOL    HW224059   4.623   4.651   5.234
 8005SOL     OW24060   4.718   4.130   4.953
 8005SOL    HW124061   4.628   4.152   4.991
 8005SOL    HW224062   4.706   4.081   4.867
 8006SOL     OW24063   4.774   4.422   4.149
 8006SOL    HW124064   4.795   4.418   4.246
 8006SOL    HW224065   4.688   4.374   4.131
 8007SOL     OW24066   3.813   4.552   4.504
 8007SOL    HW124067   3.898   4.539   4.554
 8007SOL    HW224068   3.763   4.631   4.541
 8008SOL     OW24069   3.852   5.595   5.312
 8008SOL    HW124070   3.857   5.568   5.408
 8008SOL    HW224071   3.767   5.562   5.272
 8009SOL     OW24072   4.622   4.073   3.916
 8009SOL    HW124073   4.657   4.145   3.857
 8009SOL    HW224074   4.649   3.984   3.880
 8010SOL     OW24075   5.425   4.297   5.550
 8010SOL    HW124076   5.390   4.376   5.500
 8010SOL    HW224077   5.455   4.227   5.485
 8011SOL     OW24078   5.104   4.867   4.258
 8011SOL    HW124079   5.188   4.851   4.207
 8011SOL    HW224080   5.047   4.934   4.210
 8012SOL     OW24081   4.271   3.897   4.625
 8012SOL    HW124082   4.275   3.927   4.720
 8012SOL    HW224083   4.274   3.977   4.564
 8013SOL     OW24084   4.719   5.167   4.188
 8013SOL    HW124085   4.687   5.247   4.138
 8013SOL    HW224086   4.703   5.180   4.286
 8014SOL     OW24087   4.080   5.538   4.594
 8014SOL    HW124088   4.124   5.448   4.601
 8014SOL    HW224089   4.147   5.610   4.613
 8015SOL     OW24090   5.522   4.781   4.596
 8015SOL    HW124091   5.471   4.757   4.513
 8015SOL    HW224092   5.459   4.786   4.673
 8016SOL     OW24093   4.950   5.260   5.238
 8016SOL    HW124094   4.938   5.186   5.304
 8016SOL    HW224095   4.883   5.252   5.165
 8017SOL     OW24096   4.046   4.683   3.978
 8017SOL    HW124097   4.134   4.703   3.935
 8017SOL    HW224098   4.009   4.598   3.940
 8018SOL     OW24099   5.207   4.474   4.447
 8018SOL    HW124100   5.201   4.429   4.536
 8018SOL    HW224101   5.288   4.533   4.445
 8019SOL     OW24102   4.192   4.989   5.455
 8019SOL    HW124103   4.166   4.995   5.359
 8019SOL    HW224104   4.110   4.986   5.512
 8020SOL     OW24105   4.846   5.500   3.951
 8020SOL    HW124106   4.766   5.462   3.999
 8020SOL    HW224107   4.875   5.436   3.880
 8021SOL     OW24108   3.926   3.999   5.227
 8021SOL    HW124109   3.844   4.056   5.223
 8021SOL    HW224110   3.905   3.912   5.272
 8022SOL     OW24111   5.349   5.106   3.812
 8022SOL    HW124112   5.310   5.197   3.797
 8022SOL    HW224113   5.279   5.037   3.793
 8023SOL     OW24114   4.189   5.458   4.043
 8023SOL    HW124115   4.230   5.521   4.109
 8023SOL    HW224116   4.260   5.422   3.982
 8024SOL     OW24117   5.126   3.828   4.163
 8024SOL    HW124118   5.114   3.805   4.066
 8024SOL    HW224119   5.223   3.840   4.182
 8025SOL     OW24120   3.982   5.515   4.950
 8025SOL    HW124121   4.033   5.443   4.997
 8025SOL    HW224122   3.964   5.488   4.856
 8026SOL     OW24123   4.660   5.426   4.621
 8026SOL    HW124124   4.743   5.379   4.651
 8026SOL    HW224125   4.618   5.374   4.546
 8027SOL     OW24126   4.119   4.413   4.199
 8027SOL    HW124127   4.140   4.316   4.213
 8027SOL    HW224128   4.022   4.429   4.216
 8028SOL     OW24129   5.252   3.947   5.452
 8028SOL    HW124130   5.263   3.968   5.549
 8028SOL    HW224131   5.180   3.879   5.441
 8029SOL     OW24132   4.350   3.826   3.835
 8029SOL    HW124133   4.443   3.789   3.830
 8029SOL    HW224134   4.304   3.813   3.747
 8030SOL     OW24135   4.487   4.000   5.481
 8030SOL    HW124136   4.572   3.947   5.475
 8030SOL    HW224137   4.436   3.972   5.562
 8031SOL     OW24138   4.598   5.238   4.917
 8031SOL    HW124139   4.579   5.203   4.825
 8031SOL    HW224140   4.671   5.185   4.959
 8032SOL     OW24141   5.064   4.313   5.159
 8032SOL    HW124142   5.094   4.278   5.248
 8032SOL    HW224143   5.099   4.405   5.146
 8033SOL     OW24144   4.544   5.113   4.665
 8033SOL    HW124145   4.634   5.102   4.623
 8033SOL    HW224146   4.474   5.119   4.593
 8034SOL     OW24147   4.651   4.231   4.622
 8034SOL    HW124148   4.625   4.224   4.526
 8034SOL    HW224149   4.683   4.143   4.655
 8035SOL     OW24150   4.271   3.793   4.225
 8035SOL    HW124151   4.189   3.792   4.281
 8035SOL    HW224152   4.269   3.873   4.165
 8036SOL     OW24153   5.150   4.923   3.767
 8036SOL    HW124154   5.183   4.845   3.820
 8036SOL    HW224155   5.061   4.952   3.803
 8037SOL     OW24156   4.012   3.781   3.927
 8037SOL    HW124157   4.060   3.835   3.857
 8037SOL    HW224158   4.075   3.712   3.964
 8038SOL     OW24159   4.670   3.971   4.180
 8038SOL    HW124160   4.636   4.014   4.096
 8038SOL    HW224161   4.768   3.988   4.189
 8039SOL     OW24162   4.803   4.407   5.179
 8039SOL    HW124163   4.729   4.341   5.185
 8039SOL    HW224164   4.891   4.358   5.175
 8040SOL     OW24165   4.944   5.294   4.518
 8040SOL    HW124166   4.958   5.363   4.448
 8040SOL    HW224167   5.015   5.301   4.588
 8041SOL     OW24168   4.192   4.875   4.452
 8041SOL    HW124169   4.126   4.855   4.523
 8041SOL    HW224170   4.150   4.863   4.362
 8042SOL     OW24171   4.987   5.516   4.334
 8042SOL    HW124172   5.039   5.578   4.275
 8042SOL    HW224173   4.914   5.566   4.380
 8043SOL     OW24174   4.744   4.263   3.756
 8043SOL    HW124175   4.699   4.348   3.731
 8043SOL    HW224176   4.814   4.280   3.825
 8044SOL     OW24177   3.810   4.281   5.115
 8044SOL    HW124178   3.905   4.277   5.083
 8044SOL    HW224179   3.802   4.352   5.185
 8045SOL     OW24180   4.282   3.948   4.896
 8045SOL    HW124181   4.332   3.873   4.940
 8045SOL    HW224182   4.187   3.946   4.925
 8046SOL     OW24183   4.590   4.182   4.361
 8046SOL    HW124184   4.542   4.243   4.298
 8046SOL    HW224185   4.617   4.099   4.311
 8047SOL     OW24186   4.744   3.777   4.470
 8047SOL    HW124187   4.682   3.780   4.392
 8047SOL    HW224188   4.718   3.701   4.530
 8048SOL     OW24189   5.169   4.885   4.582
 8048SOL    HW124190   5.093   4.820   4.586
 8048SOL    HW224191   5.199   4.896   4.487
 8049SOL     OW24192   5.192   4.332   4.694
 8049SOL    HW124193   5.130   4.253   4.694
 8049SOL    HW224194   5.253   4.326   4.773
 8050SOL     OW24195   5.566   4.534   4.104
 8050SOL    HW124196   5.624   4.485   4.169
 8050SOL    HW224197   5.536   4.470   4.033
 8051SOL     OW24198   4.211   5.145   3.879
 8051SOL    HW124199   4.131   5.118   3.932
 8051SOL    HW224200   4.209   5.099   3.790
 8052SOL     OW24201   5.399   4.991   4.368
 8052SOL    HW124202   5.498   4.988   4.379
 8052SOL    HW224203   5.365   5.083   4.388
 8053SOL     OW24204   5.114   4.299   3.795
 8053SOL    HW124205   5.052   4.276   3.870
 8053SOL    HW224206   5.208   4.273   3.821
 8054SOL     OW24207   4.255   3.989   4.038
 8054SOL    HW124208   4.292   3.929   3.967
 8054SOL    HW224209   4.227   4.076   3.997
 8055SOL     OW24210   5.476   4.965   5.285
 8055SOL    HW124211   5.566   4.923   5.272
 8055SOL    HW224212   5.488   5.058   5.319
 8056SOL     OW24213   4.778   5.074   5.060
 8056SOL    HW124214   4.696   5.044   5.110
 8056SOL    HW224215   4.859   5.034   5.102
 8057SOL     OW24216   5.337   5.353   5.381
 8057SOL    HW124217   5.322   5.389   5.288
 8057SOL    HW224218   5.423   5.302   5.383
 8058SOL     OW24219   4.861   4.943   4.829
 8058SOL    HW124220   4.801   4.977   4.901
 8058SOL    HW224221   4.827   4.974   4.740
 8059SOL     OW24222   5.348   4.821   4.803
 8059SOL    HW124223   5.344   4.886   4.879
 8059SOL    HW224224   5.272   4.838   4.741
 8060SOL     OW24225   4.647   3.818   5.116
 8060SOL    HW124226   4.669   3.796   5.021
 8060SOL    HW224227   4.727   3.862   5.158
 8061SOL     OW24228   4.703   4.839   5.445
 8061SOL    HW124229   4.609   4.858   5.472
 8061SOL    HW224230   4.705   4.756   5.389
 8062SOL     OW24231   4.437   4.783   4.097
 8062SOL    HW124232   4.419   4.765   4.194
 8062SOL    HW224233   4.516   4.729   4.067
 8063SOL     OW24234   4.146   4.539   4.978
 8063SOL    HW124235   4.219   4.552   5.045
 8063SOL    HW224236   4.107   4.447   4.989
 8064SOL     OW24237   4.987   4.100   5.004
 8064SOL    HW124238   5.023   4.179   5.053
 8064SOL    HW224239   4.891   4.118   4.979
 8065SOL     OW24240   3.798   5.296   5.077
 8065SOL    HW124241   3.763   5.367   5.016
 8065SOL    HW224242   3.898   5.294   5.072
 8066SOL     OW24243   4.066   4.842   4.211
 8066SOL    HW124244   4.072   4.924   4.154
 8066SOL    HW224245   4.064   4.761   4.152
 8067SOL     OW24246   4.272   4.267   4.586
 8067SOL    HW124247   4.286   4.326   4.507
 8067SOL    HW224248   4.341   4.287   4.655
 8068SOL     OW24249   4.970   5.078   4.116
 8068SOL    HW124250   5.031   5.151   4.147
 8068SOL    HW224251   4.877   5.098   4.147
 8069SOL     OW24252   5.012   5.186   4.871
 8069SOL    HW124253   5.070   5.192   4.952
 8069SOL    HW224254   4.957   5.102   4.876
 8070SOL     OW24255   5.301   4.344   4.208
 8070SOL    HW124256   5.251   4.394   4.279
 8070SOL    HW224257   5.348   4.410   4.148
 8071SOL     OW24258   4.072   5.254   5.034
 8071SOL    HW124259   4.056   5.209   4.946
 8071SOL    HW224260   4.170   5.267   5.046
 8072SOL     OW24261   4.140   4.470   5.324
 8072SOL    HW124262   4.206   4.516   5.265
 8072SOL    HW224263   4.173   4.379   5.347
 8073SOL     OW24264   5.332   4.509   5.408
 8073SOL    HW124265   5.241   4.550   5.406
 8073SOL    HW224266   5.389   4.550   5.337
 8074SOL     OW24267   4.721   3.858   5.474
 8074SOL    HW124268   4.779   3.938   5.458
 8074SOL    HW224269   4.770   3.775   5.447
 8075SOL     OW24270   4.216   3.760   5.474
 8075SOL    HW124271   4.172   3.702   5.406
 8075SOL    HW224272   4.159   3.840   5.493
 8076SOL     OW24273   4.308   4.595   4.758
 8076SOL    HW124274   4.344   4.689   4.755
 8076SOL    HW224275   4.248   4.585   4.838
 8077SOL     OW24276   5.076   4.581   4.748
 8077SOL    HW124277   4.985   4.573   4.707
 8077SOL    HW224278   5.125   4.494   4.739
 8078SOL     OW24279   4.922   4.250   3.989
 8078SOL    HW124280   4.935   4.168   4.044
 8078SOL    HW224281   4.878   4.321   4.044
 8079SOL     OW24282   4.021   3.921   4.971
 8079SOL    HW124283   3.985   3.957   5.056
 8079SOL    HW224284   4.005   3.822   4.967
 8080SOL     OW24285   3.776   5.034   4.999
 8080SOL    HW124286   3.808   4.973   5.072
 8080SOL    HW224287   3.779   5.128   5.032
 8081SOL     OW24288   4.448   4.355   4.779
 8081SOL    HW124289   4.525   4.335   4.718
 8081SOL    HW224290   4.413   4.447   4.760
 8082SOL     OW24291   5.460   4.685   5.580
 8082SOL    HW124292   5.417   4.616   5.521
 8082SOL    HW224293   5.401   4.704   5.658
 8083SOL     OW24294   4.030   3.787   4.354
 8083SOL    HW124295   4.005   3.882   4.372
 8083SOL    HW224296   4.041   3.738   4.441
 8084SOL     OW24297   5.350   4.104   4.088
 8084SOL    HW124298   5.377   4.031   4.151
 8084SOL    HW224299   5.323   4.185   4.141
 8085SOL     OW24300   4.748   4.479   4.682
 8085SOL    HW124301   4.743   4.501   4.779
 8085SOL    HW224302   4.721   4.384   4.667
 8086SOL     OW24303   4.705   5.287   5.441
 8086SOL    HW124304   4.688   5.334   5.355
 8086SOL    HW224305   4.753   5.201   5.424
 8087SOL     OW24306   5.579   5.227   5.327
 8087SOL    HW124307   5.598   5.254   5.233
 8087SOL    HW224308   5.661   5.239   5.382
 8088SOL     OW24309   4.077   4.642   5.529
 8088SOL    HW124310   4.157   4.664   5.585
 8088SOL    HW224311   4.102   4.577   5.458
 8089SOL     OW24312   5.249   3.993   3.858
 8089SOL    HW124313   5.178   3.927   3.884
 8089SOL    HW224314   5.287   4.035   3.941
 8090SOL     OW24315   5.013   4.550   3.750
 8090SOL    HW124316   5.054   4.459   3.759
 8090SOL    HW224317   5.044   4.593   3.665
 8091SOL     OW24318   4.794   5.062   4.579
 8091SOL    HW124319   4.798   4.984   4.516
 8091SOL    HW224320   4.853   5.135   4.545
 8092SOL     OW24321   4.035   4.530   4.667
 8092SOL    HW124322   4.132   4.556   4.662
 8092SOL    HW224323   4.027   4.436   4.699
 8093SOL     OW24324   4.051   4.251   4.735
 8093SOL    HW124325   4.012   4.160   4.725
 8093SOL    HW224326   4.132   4.260   4.677
 8094SOL     OW24327   4.858   4.097   5.416
 8094SOL    HW124328   4.805   4.154   5.479
 8094SOL    HW224329   4.950   4.134   5.407
 8095SOL     OW24330   4.886   3.927   5.200
 8095SOL    HW124331   4.871   3.989   5.277
 8095SOL    HW224332   4.928   3.977   5.124
 8096SOL     OW24333   3.724   5.039   3.919
 8096SOL    HW124334   3.635   5.059   3.879
 8096SOL    HW224335   3.726   4.946   3.954
 8097SOL     OW24336   3.817   5.507   4.667
 8097SOL    HW124337   3.781   5.426   4.622
 8097SOL    HW224338   3.911   5.524   4.635
 8098SOL     OW24339   4.218   5.300   4.629
 8098SOL    HW124340   4.287   5.366   4.656
 8098SOL    HW224341   4.258   5.232   4.567
 8099SOL     OW24342   4.698   4.517   4.948
 8099SOL    HW124343   4.759   4.494   5.024
 8099SOL    HW224344   4.609   4.476   4.963
 8100SOL     OW24345   3.761   4.276   4.841
 8100SOL    HW124346   3.843   4.263   4.786
 8100SOL    HW224347   3.786   4.278   4.938
 8101SOL     OW24348   3.916   4.247   5.454
 8101SOL    HW124349   3.969   4.193   5.389
 8101SOL    HW224350   3.877   4.327   5.408
 8102SOL     OW24351   5.104   4.659   5.379
 8102SOL    HW124352   5.127   4.756   5.380
 8102SOL    HW224353   5.101   4.627   5.284
 8103SOL     OW24354   4.541   4.295   4.084
 8103SOL    HW124355   4.549   4.215   4.023
 8103SOL    HW224356   4.464   4.351   4.055
 8104SOL     OW24357   5.366   4.327   4.905
 8104SOL    HW124358   5.350   4.268   4.984
 8104SOL    HW224359   5.458   4.309   4.868
 8105SOL     OW24360   3.964   5.271   5.450
 8105SOL    HW124361   3.942   5.345   5.513
 8105SOL    HW224362   3.970   5.185   5.500
 8106SOL     OW24363   4.432   4.171   4.977
 8106SOL    HW124364   4.374   4.094   4.953
 8106SOL    HW224365   4.428   4.240   4.904
 8107SOL     OW24366   4.644   5.405   5.195
 8107SOL    HW124367   4.618   5.359   5.110
 8107SOL    HW224368   4.644   5.504   5.181
 8108SOL     OW24369   4.185   4.218   3.909
 8108SOL    HW124370   4.249   4.291   3.934
 8108SOL    HW224371   4.094   4.258   3.896
 8109SOL     OW24372   3.866   4.861   5.199
 8109SOL    HW124373   3.868   4.817   5.289
 8109SOL    HW224374   3.886   4.794   5.128
 8110SOL     OW24375   5.040   4.768   4.943
 8110SOL    HW124376   5.067   4.700   4.875
 8110SOL    HW224377   4.972   4.830   4.903
 8111SOL     OW24378   5.040   4.580   4.023
 8111SOL    HW124379   4.963   4.554   4.082
 8111SOL    HW224380   5.014   4.568   3.927
 8112SOL     OW24381   5.504   5.454   4.880
 8112SOL    HW124382   5.565   5.488   4.809
 8112SOL    HW224383   5.473   5.362   4.856
 8113SOL     OW24384   4.965   5.457   4.829
 8113SOL    HW124385   5.051   5.486   4.786
 8113SOL    HW224386   4.971   5.360   4.853
 8114SOL     OW24387   3.810   4.989   4.734
 8114SOL    HW124388   3.795   5.004   4.832
 8114SOL    HW224389   3.737   4.930   4.698
 8115SOL     OW24390   4.405   5.397   5.460
 8115SOL    HW124391   4.342   5.475   5.455
 8115SOL    HW224392   4.478   5.409   5.393
 8116SOL     OW24393   5.442   3.873   4.223
 8116SOL    HW124394   5.518   3.864   4.158
 8116SOL    HW224395   5.427   3.786   4.268
 8117SOL     OW24396   5.119   5.294   4.211
 8117SOL    HW124397   5.182   5.326   4.141
 8117SOL    HW224398   5.064   5.371   4.244
 8118SOL     OW24399   3.869   5.511   5.570
 8118SOL    HW124400   3.812   5.443   5.615
 8118SOL    HW224401   3.919   5.564   5.638
 8119SOL     OW24402   5.006   4.652   4.390
 8119SOL    HW124403   5.081   4.588   4.406
 8119SOL    HW224404   5.039   4.729   4.335
 8120SOL     OW24405   4.528   5.002   5.150
 8120SOL    HW124406   4.498   5.046   5.236
 8120SOL    HW224407   4.459   5.018   5.080
 8121SOL     OW24408   4.393   5.345   3.878
 8121SOL    HW124409   4.409   5.364   3.781
 8121SOL    HW224410   4.334   5.265   3.887
 8122SOL     OW24411   5.341   5.453   5.111
 8122SOL    HW124412   5.398   5.453   5.029
 8122SOL    HW224413   5.327   5.546   5.143
 8123SOL     OW24414   5.566   3.893   4.688
 8123SOL    HW124415   5.600   3.802   4.665
 8123SOL    HW224416   5.475   3.905   4.648
 8124SOL     OW24417   3.979   4.039   4.440
 8124SOL    HW124418   3.891   4.076   4.412
 8124SOL    HW224419   3.982   4.031   4.539
 8125SOL     OW24420   4.932   5.325   3.757
 8125SOL    HW124421   4.923   5.231   3.790
 8125SOL    HW224422   4.866   5.342   3.685
 8126SOL     OW24423   4.547   4.734   5.102
 8126SOL    HW124424   4.598   4.718   5.017
 8126SOL    HW224425   4.544   4.832   5.122
 8127SOL     OW24426   4.644   4.635   4.011
 8127SOL    HW124427   4.705   4.670   3.940
 8127SOL    HW224428   4.691   4.563   4.063
 8128SOL     OW24429   5.212   5.354   3.766
 8128SOL    HW124430   5.114   5.343   3.755
 8128SOL    HW224431   5.256   5.359   3.676
 8129SOL     OW24432   4.090   5.027   5.211
 8129SOL    HW124433   4.080   5.107   5.152
 8129SOL    HW224434   4.010   4.968   5.200
 8130SOL     OW24435   5.337   5.008   5.008
 8130SOL    HW124436   5.400   4.989   5.084
 8130SOL    HW224437   5.272   5.078   5.037
 8131SOL     OW24438   4.785   4.830   4.439
 8131SOL    HW124439   4.709   4.780   4.479
 8131SOL    HW224440   4.854   4.766   4.405
 8132SOL     OW24441   4.747   3.963   4.691
 8132SOL    HW124442   4.744   3.919   4.602
 8132SOL    HW224443   4.744   3.894   4.763
 8133SOL     OW24444   4.329   5.210   4.204
 8133SOL    HW124445   4.380   5.156   4.137
 8133SOL    HW224446   4.255   5.259   4.157
 8134SOL     OW24447   5.455   4.118   5.104
 8134SOL    HW124448   5.528   4.186   5.105
 8134SOL    HW224449   5.481   4.043   5.043
 8135SOL     OW24450   3.977   5.072   4.012
 8135SOL    HW124451   3.881   5.065   3.985
 8135SOL    HW224452   3.983   5.110   4.104
 8136SOL     OW24453   3.838   4.758   5.452
 8136SOL    HW124454   3.757   4.730   5.502
 8136SOL    HW224455   3.919   4.713   5.491
 8137SOL     OW24456   4.407   3.918   5.224
 8137SOL    HW124457   4.494   3.894   5.180
 8137SOL    HW224458   4.425   3.952   5.316
 8138SOL     OW24459   3.796   4.059   3.756
 8138SOL    HW124460   3.704   4.037   3.722
 8138SOL    HW224461   3.832   4.138   3.706
 8139SOL     OW24462   5.147   4.580   5.119
 8139SOL    HW124463   5.092   4.644   5.065
 8139SOL    HW224464   5.241   4.582   5.086
 8140SOL     OW24465   3.785   3.887   4.027
 8140SOL    HW124466   3.769   3.970   3.974
 8140SOL    HW224467   3.873   3.848   4.001
 8141SOL     OW24468   4.904   5.061   3.845
 8141SOL    HW124469   4.809   5.031   3.838
 8141SOL    HW224470   4.932   5.063   3.941
 8142SOL     OW24471   4.347   4.554   5.157
 8142SOL    HW124472   4.405   4.635   5.143
 8142SOL    HW224473   4.405   4.473   5.167
 8143SOL     OW24474   5.209   5.512   4.712
 8143SOL    HW124475   5.230   5.574   4.636
 8143SOL    HW224476   5.294   5.478   4.751
 8144SOL     OW24477   4.446   4.282   5.427
 8144SOL    HW124478   4.490   4.349   5.486
 8144SOL    HW224479   4.465   4.190   5.460
 8145SOL     OW24480   5.198   4.920   5.358
 8145SOL    HW124481   5.182   4.933   5.456
 8145SOL    HW224482   5.293   4.939   5.337
 8146SOL     OW24483   4.095   5.462   5.291
 8146SOL    HW124484   4.011   5.514   5.276
 8146SOL    HW224485   4.073   5.374   5.333
 8147SOL     OW24486   5.390   4.602   4.980
 8147SOL    HW124487   5.385   4.511   4.938
 8147SOL    HW224488   5.377   4.671   4.909
 8148SOL     OW24489   4.942   4.040   4.184
 8148SOL    HW124490   5.007   3.964   4.175
 8148SOL    HW224491   4.968   4.096   4.263
 8149SOL     OW24492   4.311   4.460   4.393
 8149SOL    HW124493   4.352   4.551   4.382
 8149SOL    HW224494   4.241   4.447   4.322
 8150SOL     OW24495   5.475   4.089   5.376
 8150SOL    HW124496   5.465   4.105   5.278
 8150SOL    HW224497   5.401   4.029   5.408
 8151SOL     OW24498   5.476   4.656   5.234
 8151SOL    HW124499   5.465   4.753   5.255
 8151SOL    HW224500   5.455   4.641   5.137
 8152SOL     OW24501   4.590   5.088   3.767
 8152SOL    HW124502   4.549   5.112   3.855
 8152SOL    HW224503   4.606   5.171   3.714
 8153SOL     OW24504   4.389   5.509   4.666
 8153SOL    HW124505   4.365   5.604   4.645
 8153SOL    HW224506   4.487   5.496   4.655
 8154SOL     OW24507   4.593   4.694   4.580
 8154SOL    HW124508   4.644   4.617   4.617
 8154SOL    HW224509   4.551   4.745   4.656
 8155SOL     OW24510   4.802   4.714   3.808
 8155SOL    HW124511   4.774   4.767   3.728
 8155SOL    HW224512   4.879   4.655   3.784
 8156SOL     OW24513   5.570   5.280   4.571
 8156SOL    HW124514   5.493   5.268   4.508
 8156SOL    HW224515   5.565   5.211   4.643
 8157SOL     OW24516   3.955   5.023   5.581
 8157SOL    HW124517   3.889   4.956   5.546
 8157SOL    HW224518   3.941   5.036   5.679
 8158SOL     OW24519   3.811   4.954   4.387
 8158SOL    HW124520   3.816   4.908   4.476
 8158SOL    HW224521   3.879   4.914   4.326
 8159SOL     OW24522   4.406   5.133   5.357
 8159SOL    HW124523   4.326   5.083   5.389
 8159SOL    HW224524   4.405   5.226   5.394
 8160SOL     OW24525   5.529   3.907   4.958
 8160SOL    HW124526   5.544   3.811   4.982
 8160SOL    HW224527   5.542   3.918   4.859
 8161SOL     OW24528   4.155   4.153   4.251
 8161SOL    HW124529   4.188   4.083   4.187
 8161SOL    HW224530   4.100   4.109   4.322
 8162SOL     OW24531   5.417   5.206   4.818
 8162SOL    HW124532   5.336   5.189   4.762
 8162SOL    HW224533   5.426   5.136   4.888
 8163SOL     OW24534   4.059   4.280   5.013
 8163SOL    HW124535   4.115   4.223   5.073
 8163SOL    HW224536   4.074   4.254   4.918
 8164SOL     OW24537   4.553   5.304   4.402
 8164SOL    HW124538   4.539   5.365   4.325
 8164SOL    HW224539   4.476   5.240   4.408
 8165SOL     OW24540   5.154   3.955   4.841
 8165SOL    HW124541   5.178   3.866   4.880
 8165SOL    HW224542   5.100   4.006   4.908
 8166SOL     OW24543   4.734   3.740   4.862
 8166SOL    HW124544   4.670   3.677   4.819
 8166SOL    HW224545   4.825   3.700   4.863
 8167SOL     OW24546   4.498   5.056   4.045
 8167SOL    HW124547   4.470   4.960   4.053
 8167SOL    HW224548   4.583   5.070   4.096
 8168SOL     OW24549   4.347   5.283   5.014
 8168SOL    HW124550   4.345   5.370   5.063
 8168SOL    HW224551   4.438   5.270   4.973
 8169SOL     OW24552   5.076   3.775   3.897
 8169SOL    HW124553   5.123   3.707   3.842
 8169SOL    HW224554   4.983   3.744   3.916
 8170SOL     OW24555   5.013   4.188   4.404
 8170SOL    HW124556   4.961   4.273   4.406
 8170SOL    HW224557   5.012   4.146   4.495
 8171SOL     OW24558   5.310   3.927   4.608
 8171SOL    HW124559   5.252   3.946   4.687
 8171SOL    HW224560   5.312   4.006   4.547
 8172SOL     OW24561   3.767   4.788   4.032
 8172SOL    HW124562   3.865   4.788   4.012
 8172SOL    HW224563   3.737   4.695   4.054
 8173SOL     OW24564   4.608   5.386   4.064
 8173SOL    HW124565   4.533   5.365   4.001
 8173SOL    HW224566   4.582   5.464   4.122
 8174SOL     OW24567   3.945   4.344   5.714
 8174SOL    HW124568   3.854   4.343   5.754
 8174SOL    HW224569   3.939   4.321   5.616
 8175SOL     OW24570   3.944   4.012   6.582
 8175SOL    HW124571   3.980   3.973   6.667
 8175SOL    HW224572   3.853   3.975   6.565
 8176SOL     OW24573   3.724   4.110   6.221
 8176SOL    HW124574   3.640   4.141   6.265
 8176SOL    HW224575   3.706   4.027   6.169
 8177SOL     OW24576   4.283   5.005   6.756
 8177SOL    HW124577   4.195   5.026   6.713
 8177SOL    HW224578   4.312   5.083   6.811
 8178SOL     OW24579   5.288   5.237   6.294
 8178SOL    HW124580   5.244   5.214   6.380
 8178SOL    HW224581   5.219   5.245   6.222
 8179SOL     OW24582   4.856   4.427   6.281
 8179SOL    HW124583   4.908   4.511   6.266
 8179SOL    HW224584   4.805   4.434   6.366
 8180SOL     OW24585   5.495   4.323   5.808
 8180SOL    HW124586   5.471   4.319   5.712
 8180SOL    HW224587   5.456   4.244   5.856
 8181SOL     OW24588   4.482   4.868   6.629
 8181SOL    HW124589   4.407   4.894   6.690
 8181SOL    HW224590   4.514   4.948   6.579
 8182SOL     OW24591   4.408   4.723   6.235
 8182SOL    HW124592   4.479   4.712   6.305
 8182SOL    HW224593   4.333   4.779   6.271
 8183SOL     OW24594   4.056   5.136   6.649
 8183SOL    HW124595   3.971   5.103   6.607
 8183SOL    HW224596   4.103   5.198   6.586
 8184SOL     OW24597   5.335   4.171   6.330
 8184SOL    HW124598   5.259   4.188   6.267
 8184SOL    HW224599   5.337   4.243   6.400
 8185SOL     OW24600   3.946   5.438   6.057
 8185SOL    HW124601   3.964   5.517   6.116
 8185SOL    HW224602   4.021   5.428   5.992
 8186SOL     OW24603   3.957   5.167   6.122
 8186SOL    HW124604   3.941   5.266   6.122
 8186SOL    HW224605   3.897   5.124   6.190
 8187SOL     OW24606   3.991   4.815   6.487
 8187SOL    HW124607   3.987   4.721   6.522
 8187SOL    HW224608   3.932   4.874   6.542
 8188SOL     OW24609   4.338   5.529   6.988
 8188SOL    HW124610   4.249   5.501   0.023
 8188SOL    HW224611   4.360   5.621   0.023
 8189SOL     OW24612   4.306   4.711   5.727
 8189SOL    HW124613   4.353   4.758   5.652
 8189SOL    HW224614   4.346   4.739   5.814
 8190SOL     OW24615   3.838   4.385   6.150
 8190SOL    HW124616   3.808   4.291   6.167
 8190SOL    HW224617   3.832   4.437   6.235
 8191SOL     OW24618   5.570   5.479   5.918
 8191SOL    HW124619   5.639   5.449   5.984
 8191SOL    HW224620   5.586   5.575   5.895
 8192SOL     OW24621   3.753   5.315   5.709
 8192SOL    HW124622   3.737   5.218   5.728
 8192SOL    HW224623   3.732   5.368   5.791
 8193SOL     OW24624   5.415   4.644   6.231
 8193SOL    HW124625   5.499   4.594   6.215
 8193SOL    HW224626   5.391   4.698   6.150
 8194SOL     OW24627   5.377   4.829   6.018
 8194SOL    HW124628   5.466   4.826   5.972
 8194SOL    HW224629   5.379   4.896   6.092
 8195SOL     OW24630   4.336   5.114   6.320
 8195SOL    HW124631   4.289   5.027   6.333
 8195SOL    HW224632   4.322   5.145   6.226
 8196SOL     OW24633   4.541   3.733   6.094
 8196SOL    HW124634   4.587   3.819   6.072
 8196SOL    HW224635   4.443   3.749   6.102
 8197SOL     OW24636   3.916   4.702   6.847
 8197SOL    HW124637   3.999   4.648   6.831
 8197SOL    HW224638   3.836   4.648   6.821
 8198SOL     OW24639   5.256   4.724   5.790
 8198SOL    HW124640   5.182   4.664   5.820
 8198SOL    HW224641   5.303   4.762   5.870
 8199SOL     OW24642   5.176   5.147   6.531
 8199SOL    HW124643   5.118   5.161   6.612
 8199SOL    HW224644   5.173   5.051   6.504
 8200SOL     OW24645   5.373   5.474   6.161
 8200SOL    HW124646   5.355   5.443   6.068
 8200SOL    HW224647   5.354   5.399   6.225
 8201SOL     OW24648   4.319   4.443   5.859
 8201SOL    HW124649   4.324   4.528   5.807
 8201SOL    HW224650   4.249   4.452   5.930
 8202SOL     OW24651   4.999   4.080   6.517
 8202SOL    HW124652   4.905   4.047   6.525
 8202SOL    HW224653   5.057   4.030   6.581
 8203SOL     OW24654   5.307   5.396   5.894
 8203SOL    HW124655   5.403   5.424   5.891
 8203SOL    HW224656   5.274   5.379   5.801
 8204SOL     OW24657   4.518   4.333   0.046
 8204SOL    HW124658   4.455   4.376   0.112
 8204SOL    HW224659   4.465   4.278   6.982
 8205SOL     OW24660   4.730   4.118   6.794
 8205SOL    HW124661   4.670   4.171   6.853
 8205SOL    HW224662   4.676   4.071   6.724
 8206SOL     OW24663   4.774   4.423   6.011
 8206SOL    HW124664   4.796   4.418   6.108
 8206SOL    HW224665   4.688   4.375   5.994
 8207SOL     OW24666   3.813   4.551   6.367
 8207SOL    HW124667   3.899   4.539   6.417
 8207SOL    HW224668   3.764   4.630   6.402
 8208SOL     OW24669   3.882   5.576   0.148
 8208SOL    HW124670   3.843   5.502   0.203
 8208SOL    HW224671   3.826   5.591   0.067
 8209SOL     OW24672   4.620   4.077   5.783
 8209SOL    HW124673   4.660   4.144   5.721
 8209SOL    HW224674   4.630   3.985   5.743
 8210SOL     OW24675   5.103   4.867   6.119
 8210SOL    HW124676   5.188   4.851   6.069
 8210SOL    HW224677   5.047   4.934   6.071
 8211SOL     OW24678   4.271   3.897   6.485
 8211SOL    HW124679   4.277   3.928   6.580
 8211SOL    HW224680   4.275   3.976   6.423
 8212SOL     OW24681   4.719   5.167   6.050
 8212SOL    HW124682   4.687   5.247   5.999
 8212SOL    HW224683   4.702   5.180   6.147
 8213SOL     OW24684   4.079   5.539   6.454
 8213SOL    HW124685   4.122   5.448   6.464
 8213SOL    HW224686   4.147   5.609   6.474
 8214SOL     OW24687   5.525   4.780   6.453
 8214SOL    HW124688   5.474   4.756   6.370
 8214SOL    HW224689   5.462   4.781   6.531
 8215SOL     OW24690   4.046   4.683   5.840
 8215SOL    HW124691   4.134   4.703   5.797
 8215SOL    HW224692   4.009   4.598   5.803
 8216SOL     OW24693   5.206   4.473   6.306
 8216SOL    HW124694   5.199   4.427   6.395
 8216SOL    HW224695   5.287   4.532   6.306
 8217SOL     OW24696   4.846   5.500   5.812
 8217SOL    HW124697   4.767   5.462   5.861
 8217SOL    HW224698   4.875   5.436   5.742
 8218SOL     OW24699   5.349   5.106   5.674
 8218SOL    HW124700   5.310   5.197   5.658
 8218SOL    HW224701   5.279   5.036   5.655
 8219SOL     OW24702   4.189   5.459   5.905
 8219SOL    HW124703   4.230   5.521   5.971
 8219SOL    HW224704   4.260   5.423   5.844
 8220SOL     OW24705   5.125   3.828   6.022
 8220SOL    HW124706   5.114   3.803   5.926
 8220SOL    HW224707   5.223   3.837   6.043
 8221SOL     OW24708   3.992   5.522   6.819
 8221SOL    HW124709   4.041   5.463   6.883
 8221SOL    HW224710   3.951   5.467   6.747
 8222SOL     OW24711   4.660   5.424   6.481
 8222SOL    HW124712   4.745   5.379   6.508
 8222SOL    HW224713   4.618   5.373   6.407
 8223SOL     OW24714   4.119   4.412   6.061
 8223SOL    HW124715   4.139   4.315   6.074
 8223SOL    HW224716   4.022   4.429   6.078
 8224SOL     OW24717   4.364   3.841   5.688
 8224SOL    HW124718   4.433   3.772   5.710
 8224SOL    HW224719   4.309   3.809   5.611
 8225SOL     OW24720   4.593   5.242   6.762
 8225SOL    HW124721   4.575   5.208   6.670
 8225SOL    HW224722   4.633   5.169   6.817
 8226SOL     OW24723   4.543   5.113   6.520
 8226SOL    HW124724   4.633   5.102   6.478
 8226SOL    HW224725   4.473   5.118   6.449
 8227SOL     OW24726   4.651   4.232   6.484
 8227SOL    HW124727   4.624   4.224   6.388
 8227SOL    HW224728   4.688   4.145   6.516
 8228SOL     OW24729   4.271   3.788   6.080
 8228SOL    HW124730   4.189   3.786   6.138
 8228SOL    HW224731   4.268   3.869   6.021
 8229SOL     OW24732   5.149   4.923   5.629
 8229SOL    HW124733   5.183   4.845   5.682
 8229SOL    HW224734   5.061   4.952   5.665
 8230SOL     OW24735   4.015   3.772   5.772
 8230SOL    HW124736   4.067   3.844   5.726
 8230SOL    HW224737   4.077   3.707   5.815
 8231SOL     OW24738   4.670   3.974   6.042
 8231SOL    HW124739   4.639   4.017   5.957
 8231SOL    HW224740   4.769   3.988   6.052
 8232SOL     OW24741   4.942   5.295   6.382
 8232SOL    HW124742   4.957   5.365   6.312
 8232SOL    HW224743   5.021   5.292   6.444
 8233SOL     OW24744   4.192   4.875   6.315
 8233SOL    HW124745   4.125   4.856   6.386
 8233SOL    HW224746   4.150   4.862   6.225
 8234SOL     OW24747   4.986   5.516   6.196
 8234SOL    HW124748   5.039   5.578   6.138
 8234SOL    HW224749   4.913   5.566   6.242
 8235SOL     OW24750   4.745   4.260   5.615
 8235SOL    HW124751   4.700   4.346   5.592
 8235SOL    HW224752   4.814   4.277   5.685
 8236SOL     OW24753   4.287   3.945   6.756
 8236SOL    HW124754   4.332   3.862   6.787
 8236SOL    HW224755   4.191   3.945   6.787
 8237SOL     OW24756   4.589   4.183   6.222
 8237SOL    HW124757   4.542   4.244   6.158
 8237SOL    HW224758   4.617   4.100   6.175
 8238SOL     OW24759   4.742   3.772   6.327
 8238SOL    HW124760   4.680   3.773   6.249
 8238SOL    HW224761   4.717   3.698   6.389
 8239SOL     OW24762   5.164   4.884   6.442
 8239SOL    HW124763   5.095   4.812   6.444
 8239SOL    HW224764   5.196   4.898   6.348
 8240SOL     OW24765   5.190   4.329   6.550
 8240SOL    HW124766   5.128   4.251   6.556
 8240SOL    HW224767   5.253   4.327   6.628
 8241SOL     OW24768   5.567   4.533   5.965
 8241SOL    HW124769   5.624   4.486   6.031
 8241SOL    HW224770   5.537   4.469   5.894
 8242SOL     OW24771   4.211   5.145   5.741
 8242SOL    HW124772   4.131   5.118   5.795
 8242SOL    HW224773   4.209   5.099   5.652
 8243SOL     OW24774   5.398   4.991   6.229
 8243SOL    HW124775   5.497   4.987   6.242
 8243SOL    HW224776   5.365   5.083   6.250
 8244SOL     OW24777   5.114   4.298   5.657
 8244SOL    HW124778   5.051   4.276   5.731
 8244SOL    HW224779   5.207   4.272   5.683
 8245SOL     OW24780   4.252   3.988   5.896
 8245SOL    HW124781   4.300   3.936   5.825
 8245SOL    HW224782   4.223   4.076   5.858
 8246SOL     OW24783   5.482   4.903   0.170
 8246SOL    HW124784   5.580   4.890   0.153
 8246SOL    HW224785   5.456   4.996   0.145
 8247SOL     OW24786   4.843   4.962   6.694
 8247SOL    HW124787   4.759   4.920   6.730
 8247SOL    HW224788   4.829   4.986   6.598
 8248SOL     OW24789   5.343   4.808   6.650
 8248SOL    HW124790   5.344   4.879   6.721
 8248SOL    HW224791   5.268   4.825   6.586
 8249SOL     OW24792   4.437   4.783   5.959
 8249SOL    HW124793   4.419   4.765   6.056
 8249SOL    HW224794   4.516   4.729   5.929
 8250SOL     OW24795   4.148   4.538   6.846
 8250SOL    HW124796   4.206   4.563   6.924
 8250SOL    HW224797   4.113   4.445   6.860
 8251SOL     OW24798   4.993   4.112   6.856
 8251SOL    HW124799   5.021   4.185   6.917
 8251SOL    HW224800   4.899   4.126   6.826
 8252SOL     OW24801   3.814   5.285   6.859
 8252SOL    HW124802   3.752   5.360   6.881
 8252SOL    HW224803   3.889   5.284   6.924
 8253SOL     OW24804   4.066   4.842   6.073
 8253SOL    HW124805   4.072   4.924   6.016
 8253SOL    HW224806   4.064   4.761   6.014
 8254SOL     OW24807   4.271   4.269   6.449
 8254SOL    HW124808   4.284   4.328   6.369
 8254SOL    HW224809   4.342   4.288   6.517
 8255SOL     OW24810   4.970   5.079   5.978
 8255SOL    HW124811   5.031   5.151   6.009
 8255SOL    HW224812   4.877   5.098   6.008
 8256SOL     OW24813   5.005   5.174   6.747
 8256SOL    HW124814   5.042   5.163   6.840
 8256SOL    HW224815   4.944   5.098   6.726
 8257SOL     OW24816   5.301   4.345   6.067
 8257SOL    HW124817   5.251   4.392   6.140
 8257SOL    HW224818   5.348   4.413   6.011
 8258SOL     OW24819   4.091   5.220   6.905
 8258SOL    HW124820   4.059   5.183   6.818
 8258SOL    HW224821   4.186   5.251   6.895
 8259SOL     OW24822   4.308   4.594   6.623
 8259SOL    HW124823   4.342   4.688   6.616
 8259SOL    HW224824   4.248   4.586   6.702
 8260SOL     OW24825   5.071   4.580   6.595
 8260SOL    HW124826   4.981   4.565   6.556
 8260SOL    HW224827   5.124   4.495   6.592
 8261SOL     OW24828   4.921   4.250   5.850
 8261SOL    HW124829   4.935   4.168   5.905
 8261SOL    HW224830   4.878   4.321   5.906
 8262SOL     OW24831   4.027   3.925   6.834
 8262SOL    HW124832   3.985   3.956   6.920
 8262SOL    HW224833   4.014   3.826   6.825
 8263SOL     OW24834   3.751   5.025   6.868
 8263SOL    HW124835   3.804   4.977   6.939
 8263SOL    HW224836   3.777   5.121   6.866
 8264SOL     OW24837   4.448   4.351   6.641
 8264SOL    HW124838   4.526   4.330   6.582
 8264SOL    HW224839   4.417   4.444   6.624
 8265SOL     OW24840   4.030   3.786   6.213
 8265SOL    HW124841   4.006   3.881   6.231
 8265SOL    HW224842   4.041   3.737   6.299
 8266SOL     OW24843   5.351   4.105   5.948
 8266SOL    HW124844   5.377   4.031   6.010
 8266SOL    HW224845   5.322   4.185   6.000
 8267SOL     OW24846   4.746   4.481   6.550
 8267SOL    HW124847   4.741   4.501   6.648
 8267SOL    HW224848   4.721   4.385   6.535
 8268SOL     OW24849   5.251   3.993   5.716
 8268SOL    HW124850   5.182   3.925   5.741
 8268SOL    HW224851   5.288   4.035   5.799
 8269SOL     OW24852   5.012   4.549   5.612
 8269SOL    HW124853   5.053   4.459   5.621
 8269SOL    HW224854   5.044   4.592   5.527
 8270SOL     OW24855   4.796   5.061   6.439
 8270SOL    HW124856   4.799   4.983   6.376
 8270SOL    HW224857   4.854   5.135   6.404
 8271SOL     OW24858   4.037   4.529   6.529
 8271SOL    HW124859   4.133   4.556   6.522
 8271SOL    HW224860   4.031   4.434   6.559
 8272SOL     OW24861   4.055   4.253   6.604
 8272SOL    HW124862   4.015   4.162   6.590
 8272SOL    HW224863   4.135   4.263   6.545
 8273SOL     OW24864   4.864   3.964   0.053
 8273SOL    HW124865   4.931   3.979   0.125
 8273SOL    HW224866   4.899   4.001   6.967
 8274SOL     OW24867   3.725   5.039   5.780
 8274SOL    HW124868   3.635   5.059   5.740
 8274SOL    HW224869   3.726   4.946   5.816
 8275SOL     OW24870   3.815   5.513   6.528
 8275SOL    HW124871   3.780   5.430   6.484
 8275SOL    HW224872   3.911   5.526   6.501
 8276SOL     OW24873   4.217   5.302   6.491
 8276SOL    HW124874   4.288   5.367   6.519
 8276SOL    HW224875   4.258   5.234   6.430
 8277SOL     OW24876   4.705   4.520   6.823
 8277SOL    HW124877   4.783   4.496   6.880
 8277SOL    HW224878   4.623   4.475   6.858
 8278SOL     OW24879   3.775   4.280   6.713
 8278SOL    HW124880   3.830   4.246   6.636
 8278SOL    HW224881   3.835   4.316   6.784
 8279SOL     OW24882   4.541   4.296   5.947
 8279SOL    HW124883   4.551   4.217   5.887
 8279SOL    HW224884   4.463   4.351   5.917
 8280SOL     OW24885   5.372   4.334   6.752
 8280SOL    HW124886   5.356   4.275   6.832
 8280SOL    HW224887   5.466   4.323   6.721
 8281SOL     OW24888   4.396   4.187   6.850
 8281SOL    HW124889   4.361   4.099   6.819
 8281SOL    HW224890   4.412   4.247   6.771
 8282SOL     OW24891   4.667   5.386   6.997
 8282SOL    HW124892   4.635   5.375   6.903
 8282SOL    HW224893   4.648   5.479   0.028
 8283SOL     OW24894   4.183   4.219   5.771
 8283SOL    HW124895   4.247   4.291   5.796
 8283SOL    HW224896   4.092   4.259   5.758
 8284SOL     OW24897   3.881   4.866   0.059
 8284SOL    HW124898   3.936   4.825   0.131
 8284SOL    HW224899   3.890   4.812   6.975
 8285SOL     OW24900   5.009   4.730   6.814
 8285SOL    HW124901   5.047   4.679   6.737
 8285SOL    HW224902   4.983   4.821   6.783
 8286SOL     OW24903   5.039   4.581   5.885
 8286SOL    HW124904   4.964   4.553   5.944
 8286SOL    HW224905   5.014   4.568   5.789
 8287SOL     OW24906   5.480   5.482   6.725
 8287SOL    HW124907   5.555   5.505   6.662
 8287SOL    HW224908   5.458   5.385   6.716
 8288SOL     OW24909   4.972   5.450   6.700
 8288SOL    HW124910   5.056   5.478   6.653
 8288SOL    HW224911   4.976   5.351   6.718
 8289SOL     OW24912   3.805   4.988   6.600
 8289SOL    HW124913   3.785   4.996   6.697
 8289SOL    HW224914   3.738   4.927   6.557
 8290SOL     OW24915   5.443   3.874   6.085
 8290SOL    HW124916   5.519   3.864   6.020
 8290SOL    HW224917   5.425   3.787   6.130
 8291SOL     OW24918   5.119   5.294   6.074
 8291SOL    HW124919   5.182   5.326   6.003
 8291SOL    HW224920   5.064   5.371   6.106
 8292SOL     OW24921   5.006   4.653   6.253
 8292SOL    HW124922   5.080   4.588   6.268
 8292SOL    HW224923   5.039   4.729   6.197
 8293SOL     OW24924   4.393   5.345   5.740
 8293SOL    HW124925   4.409   5.364   5.643
 8293SOL    HW224926   4.334   5.265   5.749
 8294SOL     OW24927   5.566   3.898   6.556
 8294SOL    HW124928   5.600   3.807   6.533
 8294SOL    HW224929   5.474   3.909   6.517
 8295SOL     OW24930   3.979   4.038   6.301
 8295SOL    HW124931   3.890   4.075   6.273
 8295SOL    HW224932   3.982   4.031   6.401
 8296SOL     OW24933   4.932   5.325   5.619
 8296SOL    HW124934   4.923   5.231   5.652
 8296SOL    HW224935   4.865   5.342   5.547
 8297SOL     OW24936   4.501   4.750   6.952
 8297SOL    HW124937   4.560   4.707   6.884
 8297SOL    HW224938   4.545   4.832   6.988
 8298SOL     OW24939   4.644   4.634   5.873
 8298SOL    HW124940   4.705   4.670   5.802
 8298SOL    HW224941   4.691   4.563   5.925
 8299SOL     OW24942   5.212   5.354   5.628
 8299SOL    HW124943   5.114   5.343   5.617
 8299SOL    HW224944   5.256   5.359   5.538
 8300SOL     OW24945   5.339   5.003   6.835
 8300SOL    HW124946   5.430   5.004   6.877
 8300SOL    HW224947   5.270   4.981   6.903
 8301SOL     OW24948   4.785   4.830   6.301
 8301SOL    HW124949   4.708   4.779   6.340
 8301SOL    HW224950   4.854   4.766   6.267
 8302SOL     OW24951   4.743   3.961   6.540
 8302SOL    HW124952   4.742   3.912   6.453
 8302SOL    HW224953   4.746   3.895   6.616
 8303SOL     OW24954   4.329   5.210   6.066
 8303SOL    HW124955   4.380   5.156   5.999
 8303SOL    HW224956   4.254   5.258   6.020
 8304SOL     OW24957   5.419   4.147   6.946
 8304SOL    HW124958   5.486   4.154   0.020
 8304SOL    HW224959   5.426   4.057   6.904
 8305SOL     OW24960   3.977   5.072   5.874
 8305SOL    HW124961   3.881   5.065   5.847
 8305SOL    HW224962   3.982   5.110   5.967
 8306SOL     OW24963   4.397   3.914   0.081
 8306SOL    HW124964   4.487   3.888   0.047
 8306SOL    HW224965   4.405   3.994   0.140
 8307SOL     OW24966   3.806   4.052   5.615
 8307SOL    HW124967   3.714   4.029   5.584
 8307SOL    HW224968   3.838   4.134   5.567
 8308SOL     OW24969   3.787   3.879   5.888
 8308SOL    HW124970   3.771   3.963   5.837
 8308SOL    HW224971   3.875   3.841   5.862
 8309SOL     OW24972   4.904   5.061   5.706
 8309SOL    HW124973   4.809   5.031   5.700
 8309SOL    HW224974   4.932   5.063   5.802
 8310SOL     OW24975   5.215   5.508   6.579
 8310SOL    HW124976   5.229   5.570   6.501
 8310SOL    HW224977   5.304   5.489   6.621
 8311SOL     OW24978   5.217   5.017   0.283
 8311SOL    HW124979   5.125   5.012   0.322
 8311SOL    HW224980   5.249   4.925   0.261
 8312SOL     OW24981   4.110   5.451   0.089
 8312SOL    HW124982   4.030   5.505   0.117
 8312SOL    HW224983   4.103   5.359   0.128
 8313SOL     OW24984   5.424   4.602   6.829
 8313SOL    HW124985   5.390   4.512   6.801
 8313SOL    HW224986   5.388   4.672   6.766
 8314SOL     OW24987   4.943   4.041   6.045
 8314SOL    HW124988   5.007   3.964   6.036
 8314SOL    HW224989   4.970   4.096   6.125
 8315SOL     OW24990   4.309   4.461   6.255
 8315SOL    HW124991   4.352   4.551   6.244
 8315SOL    HW224992   4.240   4.448   6.184
 8316SOL     OW24993   5.494   4.628   0.094
 8316SOL    HW124994   5.482   4.724   0.121
 8316SOL    HW224995   5.468   4.618   6.998
 8317SOL     OW24996   4.590   5.088   5.629
 8317SOL    HW124997   4.549   5.112   5.717
 8317SOL    HW224998   4.606   5.171   5.576
 8318SOL     OW24999   4.391   5.510   6.533
 8318SOL    HW125000   4.366   5.603   6.507
 8318SOL    HW225001   4.489   5.496   6.519
 8319SOL     OW25002   4.593   4.694   6.443
 8319SOL    HW125003   4.642   4.615   6.480
 8319SOL    HW225004   4.553   4.747   6.517
 8320SOL     OW25005   4.802   4.713   5.670
 8320SOL    HW125006   4.774   4.767   5.590
 8320SOL    HW225007   4.879   4.655   5.646
 8321SOL     OW25008   5.573   5.281   6.432
 8321SOL    HW125009   5.494   5.268   6.373
 8321SOL    HW225010   5.569   5.219   6.510
 8322SOL     OW25011   3.811   4.953   6.249
 8322SOL    HW125012   3.814   4.906   6.338
 8322SOL    HW225013   3.880   4.913   6.188
 8323SOL     OW25014   5.534   3.900   6.835
 8323SOL    HW125015   5.510   3.803   6.836
 8323SOL    HW225016   5.550   3.928   6.740
 8324SOL     OW25017   4.154   4.152   6.113
 8324SOL    HW125018   4.188   4.082   6.050
 8324SOL    HW225019   4.100   4.109   6.184
 8325SOL     OW25020   5.402   5.227   6.676
 8325SOL    HW125021   5.325   5.206   6.616
 8325SOL    HW225022   5.413   5.152   6.742
 8326SOL     OW25023   4.040   4.274   6.878
 8326SOL    HW125024   4.112   4.222   6.925
 8326SOL    HW225025   4.050   4.262   6.779
 8327SOL     OW25026   4.553   5.303   6.263
 8327SOL    HW125027   4.540   5.366   6.186
 8327SOL    HW225028   4.475   5.240   6.268
 8328SOL     OW25029   5.158   3.960   6.702
 8328SOL    HW125030   5.191   3.878   6.748
 8328SOL    HW225031   5.104   4.014   6.766
 8329SOL     OW25032   4.741   3.742   6.712
 8329SOL    HW125033   4.678   3.676   6.672
 8329SOL    HW225034   4.831   3.700   6.722
 8330SOL     OW25035   4.498   5.056   5.907
 8330SOL    HW125036   4.470   4.960   5.915
 8330SOL    HW225037   4.583   5.070   5.958
 8331SOL     OW25038   4.348   5.289   6.865
 8331SOL    HW125039   4.345   5.384   6.895
 8331SOL    HW225040   4.435   5.271   6.819
 8332SOL     OW25041   5.078   3.774   5.755
 8332SOL    HW125042   5.121   3.706   5.696
 8332SOL    HW225043   4.985   3.745   5.778
 8333SOL     OW25044   5.015   4.188   6.266
 8333SOL    HW125045   4.963   4.273   6.269
 8333SOL    HW225046   5.012   4.144   6.356
 8334SOL     OW25047   5.311   3.929   6.470
 8334SOL    HW125048   5.250   3.948   6.548
 8334SOL    HW225049   5.312   4.008   6.409
 8335SOL     OW25050   3.767   4.788   5.894
 8335SOL    HW125051   3.865   4.788   5.875
 8335SOL    HW225052   3.737   4.695   5.915
 8336SOL     OW25053   4.608   5.386   5.926
 8336SOL    HW125054   4.533   5.365   5.863
 8336SOL    HW225055   4.582   5.464   5.984
 8337SOL     OW25056   3.945   6.223   0.136
 8337SOL    HW125057   3.849   6.209   0.161
 8337SOL    HW225058   3.957   6.204   0.038
 8338SOL     OW25059   3.946   5.869   0.994
 8338SOL    HW125060   3.979   5.834   1.082
 8338SOL    HW225061   3.853   5.836   0.978
 8339SOL     OW25062   3.724   5.974   0.637
 8339SOL    HW125063   3.643   6.008   0.684
 8339SOL    HW225064   3.703   5.887   0.592
 8340SOL     OW25065   4.293   6.872   1.174
 8340SOL    HW125066   4.217   6.878   1.109
 8340SOL    HW225067   4.265   6.915   1.260
 8341SOL     OW25068   5.263   0.055   0.687
 8341SOL    HW125069   5.244   0.053   0.785
 8341SOL    HW225070   5.183   0.088   0.638
 8342SOL     OW25071   4.855   6.286   0.696
 8342SOL    HW125072   4.908   6.369   0.681
 8342SOL    HW225073   4.804   6.293   0.782
 8343SOL     OW25074   5.504   6.171   0.206
 8343SOL    HW125075   5.438   6.208   0.141
 8343SOL    HW225076   5.460   6.103   0.264
 8344SOL     OW25077   4.486   6.746   1.025
 8344SOL    HW125078   4.419   6.784   1.088
 8344SOL    HW225079   4.487   6.800   0.941
 8345SOL     OW25080   4.600   6.351   1.822
 8345SOL    HW125081   4.584   6.417   1.895
 8345SOL    HW225082   4.624   6.399   1.738
 8346SOL     OW25083   4.408   6.582   0.650
 8346SOL    HW125084   4.479   6.571   0.719
 8346SOL    HW225085   4.334   6.637   0.686
 8347SOL     OW25086   4.415   6.734   1.815
 8347SOL    HW125087   4.453   6.825   1.833
 8347SOL    HW225088   4.335   6.742   1.755
 8348SOL     OW25089   4.060   0.006   1.058
 8348SOL    HW125090   3.981   6.961   1.018
 8348SOL    HW225091   4.107   0.059   0.988
 8349SOL     OW25092   4.174   5.980   1.479
 8349SOL    HW125093   4.256   5.922   1.486
 8349SOL    HW225094   4.093   5.925   1.497
 8350SOL     OW25095   5.336   6.035   0.747
 8350SOL    HW125096   5.263   6.055   0.683
 8350SOL    HW225097   5.344   6.109   0.814
 8351SOL     OW25098   3.983   6.675   0.903
 8351SOL    HW125099   3.981   6.581   0.936
 8351SOL    HW225100   3.923   6.731   0.959
 8352SOL     OW25101   4.314   6.548   0.140
 8352SOL    HW125102   4.378   6.563   0.064
 8352SOL    HW225103   4.350   6.591   0.223
 8353SOL     OW25104   5.320   5.711   1.469
 8353SOL    HW125105   5.340   5.791   1.412
 8353SOL    HW225106   5.306   5.740   1.564
 8354SOL     OW25107   3.838   6.241   0.562
 8354SOL    HW125108   3.808   6.147   0.582
 8354SOL    HW225109   3.833   6.296   0.646
 8355SOL     OW25110   5.415   6.494   0.651
 8355SOL    HW125111   5.503   6.447   0.640
 8355SOL    HW225112   5.397   6.549   0.570
 8356SOL     OW25113   5.384   6.672   0.445
 8356SOL    HW125114   5.447   6.696   0.371
 8356SOL    HW225115   5.394   6.737   0.520
 8357SOL     OW25116   3.850   6.331   1.585
 8357SOL    HW125117   3.948   6.353   1.586
 8357SOL    HW225118   3.797   6.415   1.594
 8358SOL     OW25119   5.038   6.817   1.431
 8358SOL    HW125120   5.062   6.747   1.364
 8358SOL    HW225121   5.097   6.808   1.511
 8359SOL     OW25122   4.543   5.599   0.514
 8359SOL    HW125123   4.588   5.684   0.491
 8359SOL    HW225124   4.444   5.614   0.522
 8360SOL     OW25125   3.916   6.550   1.275
 8360SOL    HW125126   4.003   6.504   1.261
 8360SOL    HW225127   3.844   6.502   1.226
 8361SOL     OW25128   5.227   6.592   0.210
 8361SOL    HW125129   5.156   6.528   0.240
 8361SOL    HW225130   5.303   6.591   0.275
 8362SOL     OW25131   4.065   5.835   1.831
 8362SOL    HW125132   4.114   5.921   1.848
 8362SOL    HW225133   3.968   5.848   1.851
 8363SOL     OW25134   5.182   6.989   0.947
 8363SOL    HW125135   5.114   0.016   1.015
 8363SOL    HW225136   5.165   6.895   0.918
 8364SOL     OW25137   4.324   6.301   0.267
 8364SOL    HW125138   4.329   6.390   0.223
 8364SOL    HW225139   4.259   6.305   0.343
 8365SOL     OW25140   5.001   5.943   0.932
 8365SOL    HW125141   4.907   5.910   0.940
 8365SOL    HW225142   5.061   5.892   0.994
 8366SOL     OW25143   4.514   6.197   1.450
 8366SOL    HW125144   4.489   6.174   1.544
 8366SOL    HW225145   4.476   6.129   1.387
 8367SOL     OW25146   5.115   6.056   1.680
 8367SOL    HW125147   5.116   6.105   1.767
 8367SOL    HW225148   5.176   5.977   1.686
 8368SOL     OW25149   4.680   6.473   1.584
 8368SOL    HW125150   4.738   6.401   1.548
 8368SOL    HW225151   4.624   6.511   1.510
 8369SOL     OW25152   4.718   5.992   1.229
 8369SOL    HW125153   4.628   6.014   1.267
 8369SOL    HW225154   4.706   5.942   1.143
 8370SOL     OW25155   4.775   6.288   0.428
 8370SOL    HW125156   4.798   6.285   0.525
 8370SOL    HW225157   4.689   6.240   0.412
 8371SOL     OW25158   3.812   6.412   0.777
 8371SOL    HW125159   3.898   6.400   0.828
 8371SOL    HW225160   3.761   6.489   0.816
 8372SOL     OW25161   4.610   5.927   0.208
 8372SOL    HW125162   4.657   5.989   0.145
 8372SOL    HW225163   4.628   5.832   0.182
 8373SOL     OW25164   5.425   6.158   1.825
 8373SOL    HW125165   5.389   6.237   1.775
 8373SOL    HW225166   5.455   6.088   1.761
 8374SOL     OW25167   5.116   6.723   0.559
 8374SOL    HW125168   5.206   6.714   0.517
 8374SOL    HW225169   5.077   6.812   0.536
 8375SOL     OW25170   4.271   5.760   0.900
 8375SOL    HW125171   4.275   5.789   0.996
 8375SOL    HW225172   4.274   5.840   0.841
 8376SOL     OW25173   5.524   6.639   0.877
 8376SOL    HW125174   5.472   6.626   0.793
 8376SOL    HW225175   5.460   6.646   0.954
 8377SOL     OW25176   4.051   6.536   0.248
 8377SOL    HW125177   4.137   6.552   0.198
 8377SOL    HW225178   4.014   6.446   0.222
 8378SOL     OW25179   5.208   6.330   0.723
 8378SOL    HW125180   5.203   6.289   0.815
 8378SOL    HW225181   5.287   6.390   0.717
 8379SOL     OW25182   3.926   5.861   1.503
 8379SOL    HW125183   3.844   5.918   1.499
 8379SOL    HW225184   3.905   5.774   1.548
 8380SOL     OW25185   5.371   0.027   0.079
 8380SOL    HW125186   5.348   0.123   0.095
 8380SOL    HW225187   5.287   6.973   0.080
 8381SOL     OW25188   4.122   6.273   0.470
 8381SOL    HW125189   4.140   6.176   0.488
 8381SOL    HW225190   4.025   6.292   0.488
 8382SOL     OW25191   5.252   5.809   1.728
 8382SOL    HW125192   5.263   5.830   1.825
 8382SOL    HW225193   5.180   5.740   1.716
 8383SOL     OW25194   4.487   5.863   1.757
 8383SOL    HW125195   4.572   5.809   1.751
 8383SOL    HW225196   4.436   5.834   1.838
 8384SOL     OW25197   5.063   6.174   1.436
 8384SOL    HW125198   5.093   6.139   1.524
 8384SOL    HW225199   5.100   6.266   1.422
 8385SOL     OW25200   4.651   6.092   0.899
 8385SOL    HW125201   4.625   6.085   0.803
 8385SOL    HW225202   4.683   6.003   0.932
 8386SOL     OW25203   4.273   5.658   0.503
 8386SOL    HW125204   4.190   5.654   0.558
 8386SOL    HW225205   4.269   5.736   0.441
 8387SOL     OW25206   5.141   6.795   0.038
 8387SOL    HW125207   5.190   6.725   0.090
 8387SOL    HW225208   5.061   6.754   6.995
 8388SOL     OW25209   4.673   5.836   0.462
 8388SOL    HW125210   4.639   5.875   0.376
 8388SOL    HW225211   4.772   5.851   0.469
 8389SOL     OW25212   4.804   6.269   1.457
 8389SOL    HW125213   4.729   6.203   1.462
 8389SOL    HW225214   4.891   6.220   1.452
 8390SOL     OW25215   4.992   0.147   0.741
 8390SOL    HW125216   4.962   0.232   0.696
 8390SOL    HW225217   5.005   0.164   0.838
 8391SOL     OW25218   4.190   6.716   0.736
 8391SOL    HW125219   4.119   6.706   0.806
 8391SOL    HW225220   4.149   6.714   0.646
 8392SOL     OW25221   4.789   6.177   0.030
 8392SOL    HW125222   4.692   6.189   0.049
 8392SOL    HW225223   4.837   6.155   0.115
 8393SOL     OW25224   3.810   6.144   1.391
 8393SOL    HW125225   3.905   6.139   1.359
 8393SOL    HW225226   3.802   6.215   1.460
 8394SOL     OW25227   4.282   5.810   1.172
 8394SOL    HW125228   4.332   5.734   1.214
 8394SOL    HW225229   4.187   5.808   1.202
 8395SOL     OW25230   4.590   6.042   0.639
 8395SOL    HW125231   4.546   6.106   0.575
 8395SOL    HW225232   4.617   5.960   0.590
 8396SOL     OW25233   4.743   5.635   0.742
 8396SOL    HW125234   4.678   5.636   0.665
 8396SOL    HW225235   4.718   5.562   0.805
 8397SOL     OW25236   5.164   6.732   0.862
 8397SOL    HW125237   5.087   6.668   0.862
 8397SOL    HW225238   5.195   6.747   0.768
 8398SOL     OW25239   5.192   6.192   0.971
 8398SOL    HW125240   5.130   6.113   0.971
 8398SOL    HW225241   5.253   6.187   1.050
 8399SOL     OW25242   5.561   6.394   0.385
 8399SOL    HW125243   5.617   6.336   0.444
 8399SOL    HW225244   5.546   6.349   0.297
 8400SOL     OW25245   5.404   6.831   0.654
 8400SOL    HW125246   5.501   6.845   0.670
 8400SOL    HW225247   5.355   6.918   0.670
 8401SOL     OW25248   5.114   6.140   0.068
 8401SOL    HW125249   5.053   6.138   0.147
 8401SOL    HW225250   5.177   6.062   0.072
 8402SOL     OW25251   4.238   5.851   0.312
 8402SOL    HW125252   4.251   5.784   0.239
 8402SOL    HW225253   4.215   5.939   0.273
 8403SOL     OW25254   5.478   6.813   1.567
 8403SOL    HW125255   5.562   6.763   1.588
 8403SOL    HW225256   5.494   6.911   1.578
 8404SOL     OW25257   4.800   6.894   1.327
 8404SOL    HW125258   4.720   6.879   1.385
 8404SOL    HW225259   4.883   6.877   1.379
 8405SOL     OW25260   4.860   6.760   1.101
 8405SOL    HW125261   4.827   6.811   1.181
 8405SOL    HW225262   4.805   6.787   1.021
 8406SOL     OW25263   5.347   6.681   1.083
 8406SOL    HW125264   5.335   6.737   1.164
 8406SOL    HW225265   5.271   6.697   1.020
 8407SOL     OW25266   4.647   5.680   1.391
 8407SOL    HW125267   4.669   5.658   1.296
 8407SOL    HW225268   4.727   5.724   1.434
 8408SOL     OW25269   4.691   6.696   1.738
 8408SOL    HW125270   4.594   6.710   1.756
 8408SOL    HW225271   4.704   6.622   1.672
 8409SOL     OW25272   4.431   6.632   0.373
 8409SOL    HW125273   4.417   6.622   0.471
 8409SOL    HW225274   4.514   6.582   0.346
 8410SOL     OW25275   4.145   6.400   1.254
 8410SOL    HW125276   4.218   6.414   1.322
 8410SOL    HW225277   4.106   6.309   1.265
 8411SOL     OW25278   4.986   5.962   1.280
 8411SOL    HW125279   5.023   6.041   1.329
 8411SOL    HW225280   4.891   5.980   1.255
 8412SOL     OW25281   4.074   6.700   0.489
 8412SOL    HW125282   4.118   6.778   0.443
 8412SOL    HW225283   4.079   6.620   0.430
 8413SOL     OW25284   4.272   6.129   0.861
 8413SOL    HW125285   4.287   6.188   0.782
 8413SOL    HW225286   4.341   6.149   0.931
 8414SOL     OW25287   5.309   6.211   0.482
 8414SOL    HW125288   5.254   6.254   0.553
 8414SOL    HW225289   5.363   6.281   0.435
 8415SOL     OW25290   4.140   6.330   1.601
 8415SOL    HW125291   4.206   6.375   1.541
 8415SOL    HW225292   4.173   6.238   1.624
 8416SOL     OW25293   5.331   6.370   1.684
 8416SOL    HW125294   5.240   6.410   1.682
 8416SOL    HW225295   5.388   6.411   1.613
 8417SOL     OW25296   4.721   5.720   1.750
 8417SOL    HW125297   4.779   5.799   1.734
 8417SOL    HW225298   4.770   5.637   1.723
 8418SOL     OW25299   4.216   5.622   1.750
 8418SOL    HW125300   4.172   5.564   1.682
 8418SOL    HW225301   4.159   5.702   1.768
 8419SOL     OW25302   4.306   6.453   1.035
 8419SOL    HW125303   4.334   6.548   1.026
 8419SOL    HW225304   4.246   6.443   1.114
 8420SOL     OW25305   5.081   6.440   1.026
 8420SOL    HW125306   4.990   6.438   0.985
 8420SOL    HW225307   5.125   6.351   1.014
 8421SOL     OW25308   4.918   6.113   0.271
 8421SOL    HW125309   4.933   6.033   0.329
 8421SOL    HW225310   4.878   6.186   0.326
 8422SOL     OW25311   4.021   5.783   1.246
 8422SOL    HW125312   3.985   5.819   1.332
 8422SOL    HW225313   4.005   5.684   1.243
 8423SOL     OW25314   3.784   6.898   1.282
 8423SOL    HW125315   3.818   6.842   1.358
 8423SOL    HW225316   3.783   6.994   1.310
 8424SOL     OW25317   4.448   6.215   1.055
 8424SOL    HW125318   4.525   6.196   0.994
 8424SOL    HW225319   4.413   6.307   1.037
 8425SOL     OW25320   5.459   6.547   1.853
 8425SOL    HW125321   5.415   6.477   1.797
 8425SOL    HW225322   5.403   6.563   1.935
 8426SOL     OW25323   4.029   5.651   0.629
 8426SOL    HW125324   4.005   5.746   0.649
 8426SOL    HW225325   4.041   5.601   0.715
 8427SOL     OW25326   5.352   5.963   0.374
 8427SOL    HW125327   5.376   5.892   0.441
 8427SOL    HW225328   5.328   6.047   0.422
 8428SOL     OW25329   4.748   6.339   0.958
 8428SOL    HW125330   4.744   6.362   1.056
 8428SOL    HW225331   4.721   6.244   0.945
 8429SOL     OW25332   5.579   0.065   1.600
 8429SOL    HW125333   5.615   0.141   1.547
 8429SOL    HW225334   5.634   0.053   1.683
 8430SOL     OW25335   4.079   6.508   1.801
 8430SOL    HW125336   4.154   6.518   1.866
 8430SOL    HW225337   4.103   6.440   1.732
 8431SOL     OW25338   5.209   5.880   0.154
 8431SOL    HW125339   5.170   5.789   0.168
 8431SOL    HW225340   5.268   5.904   0.231
 8432SOL     OW25341   5.017   6.411   0.031
 8432SOL    HW125342   5.060   6.321   0.023
 8432SOL    HW225343   5.048   6.469   6.955
 8433SOL     OW25344   4.034   6.391   0.942
 8433SOL    HW125345   4.130   6.417   0.936
 8433SOL    HW225346   4.026   6.297   0.975
 8434SOL     OW25347   4.051   6.113   1.011
 8434SOL    HW125348   4.013   6.022   1.001
 8434SOL    HW225349   4.132   6.122   0.953
 8435SOL     OW25350   4.858   5.959   1.692
 8435SOL    HW125351   4.805   6.016   1.755
 8435SOL    HW225352   4.950   5.996   1.683
 8436SOL     OW25353   4.885   5.789   1.475
 8436SOL    HW125354   4.871   5.852   1.552
 8436SOL    HW225355   4.928   5.839   1.400
 8437SOL     OW25356   4.698   6.378   1.225
 8437SOL    HW125357   4.759   6.354   1.301
 8437SOL    HW225358   4.610   6.333   1.238
 8438SOL     OW25359   3.761   6.138   1.117
 8438SOL    HW125360   3.843   6.125   1.062
 8438SOL    HW225361   3.786   6.141   1.214
 8439SOL     OW25362   3.916   6.109   1.730
 8439SOL    HW125363   3.968   6.054   1.665
 8439SOL    HW225364   3.877   6.189   1.684
 8440SOL     OW25365   5.104   6.523   1.655
 8440SOL    HW125366   5.134   6.618   1.654
 8440SOL    HW225367   5.101   6.488   1.561
 8441SOL     OW25368   4.543   6.155   0.371
 8441SOL    HW125369   4.550   6.076   0.310
 8441SOL    HW225370   4.465   6.212   0.343
 8442SOL     OW25371   5.366   6.188   1.181
 8442SOL    HW125372   5.351   6.128   1.260
 8442SOL    HW225373   5.458   6.171   1.145
 8443SOL     OW25374   4.432   6.033   1.253
 8443SOL    HW125375   4.374   5.955   1.229
 8443SOL    HW225376   4.429   6.101   1.180
 8444SOL     OW25377   4.179   6.084   0.188
 8444SOL    HW125378   4.243   6.156   0.214
 8444SOL    HW225379   4.086   6.122   0.185
 8445SOL     OW25380   3.891   6.728   1.477
 8445SOL    HW125381   3.880   6.679   1.563
 8445SOL    HW225382   3.902   6.662   1.403
 8446SOL     OW25383   5.053   6.623   1.224
 8446SOL    HW125384   5.083   6.556   1.156
 8446SOL    HW225385   4.980   6.679   1.185
 8447SOL     OW25386   5.026   6.433   0.304
 8447SOL    HW125387   4.946   6.405   0.357
 8447SOL    HW225388   5.010   6.414   0.207
 8448SOL     OW25389   3.807   6.858   1.014
 8448SOL    HW125390   3.793   6.868   1.112
 8448SOL    HW225391   3.737   6.798   0.976
 8449SOL     OW25392   4.663   5.663   0.113
 8449SOL    HW125393   4.733   5.718   0.067
 8449SOL    HW225394   4.706   5.603   0.180
 8450SOL     OW25395   5.452   5.747   0.528
 8450SOL    HW125396   5.522   5.738   0.458
 8450SOL    HW225397   5.424   5.656   0.559
 8451SOL     OW25398   5.005   6.506   0.671
 8451SOL    HW125399   5.080   6.441   0.686
 8451SOL    HW225400   5.040   6.585   0.620
 8452SOL     OW25401   4.540   6.844   1.419
 8452SOL    HW125402   4.513   6.886   1.506
 8452SOL    HW225403   4.468   6.860   1.352
 8453SOL     OW25404   5.566   5.755   0.963
 8453SOL    HW125405   5.600   5.664   0.941
 8453SOL    HW225406   5.475   5.767   0.923
 8454SOL     OW25407   3.979   5.903   0.716
 8454SOL    HW125408   3.890   5.938   0.688
 8454SOL    HW225409   3.982   5.894   0.816
 8455SOL     OW25410   4.550   6.582   1.370
 8455SOL    HW125411   4.608   6.559   1.292
 8455SOL    HW225412   4.554   6.680   1.387
 8456SOL     OW25413   4.649   6.500   0.290
 8456SOL    HW125414   4.709   6.537   0.219
 8456SOL    HW225415   4.697   6.429   0.341
 8457SOL     OW25416   4.117   6.892   1.498
 8457SOL    HW125417   4.082   6.983   1.478
 8457SOL    HW225418   4.041   6.827   1.502
 8458SOL     OW25419   5.328   6.845   1.313
 8458SOL    HW125420   5.404   6.833   1.378
 8458SOL    HW225421   5.260   6.907   1.353
 8459SOL     OW25422   4.784   6.697   0.729
 8459SOL    HW125423   4.705   6.646   0.763
 8459SOL    HW225424   4.850   6.634   0.688
 8460SOL     OW25425   4.747   5.824   0.966
 8460SOL    HW125426   4.742   5.781   0.876
 8460SOL    HW225427   4.744   5.754   1.038
 8461SOL     OW25428   5.455   5.980   1.380
 8461SOL    HW125429   5.528   6.048   1.381
 8461SOL    HW225430   5.481   5.905   1.319
 8462SOL     OW25431   3.833   6.609   1.716
 8462SOL    HW125432   3.753   6.587   1.773
 8462SOL    HW225433   3.916   6.575   1.760
 8463SOL     OW25434   4.407   5.780   1.500
 8463SOL    HW125435   4.494   5.756   1.456
 8463SOL    HW225436   4.425   5.814   1.592
 8464SOL     OW25437   3.827   5.911   0.014
 8464SOL    HW125438   3.767   5.855   6.957
 8464SOL    HW225439   3.861   5.988   6.961
 8465SOL     OW25440   5.150   6.438   1.398
 8465SOL    HW125441   5.096   6.502   1.344
 8465SOL    HW225442   5.245   6.438   1.366
 8466SOL     OW25443   3.773   5.759   0.328
 8466SOL    HW125444   3.760   5.851   0.290
 8466SOL    HW225445   3.849   5.715   0.279
 8467SOL     OW25446   4.346   6.413   1.434
 8467SOL    HW125447   4.405   6.492   1.415
 8467SOL    HW225448   4.403   6.331   1.444
 8468SOL     OW25449   4.447   6.144   1.703
 8468SOL    HW125450   4.491   6.210   1.763
 8468SOL    HW225451   4.465   6.051   1.736
 8469SOL     OW25452   5.209   6.778   1.646
 8469SOL    HW125453   5.196   6.797   1.743
 8469SOL    HW225454   5.305   6.793   1.622
 8470SOL     OW25455   5.391   6.461   1.254
 8470SOL    HW125456   5.385   6.370   1.213
 8470SOL    HW225457   5.378   6.531   1.183
 8471SOL     OW25458   4.945   5.903   0.456
 8471SOL    HW125459   5.026   5.851   0.428
 8471SOL    HW225460   4.967   5.955   0.539
 8472SOL     OW25461   4.311   6.321   0.667
 8472SOL    HW125462   4.351   6.412   0.660
 8472SOL    HW225463   4.241   6.311   0.596
 8473SOL     OW25464   5.475   5.951   1.652
 8473SOL    HW125465   5.465   5.967   1.554
 8473SOL    HW225466   5.401   5.891   1.684
 8474SOL     OW25467   5.468   6.519   1.507
 8474SOL    HW125468   5.461   6.618   1.525
 8474SOL    HW225469   5.453   6.502   1.410
 8475SOL     OW25470   4.591   6.550   0.858
 8475SOL    HW125471   4.645   6.473   0.893
 8475SOL    HW225472   4.559   6.605   0.935
 8476SOL     OW25473   4.813   6.585   0.085
 8476SOL    HW125474   4.760   6.591   0.001
 8476SOL    HW225475   4.891   6.524   0.070
 8477SOL     OW25476   3.936   6.908   1.812
 8477SOL    HW125477   3.878   6.828   1.823
 8477SOL    HW225478   3.950   6.952   1.901
 8478SOL     OW25479   3.816   6.821   0.674
 8478SOL    HW125480   3.835   6.760   0.751
 8478SOL    HW225481   3.875   6.796   0.597
 8479SOL     OW25482   4.429   6.970   1.632
 8479SOL    HW125483   4.331   6.962   1.653
 8479SOL    HW225484   4.450   0.066   1.611
 8480SOL     OW25485   5.528   5.768   1.233
 8480SOL    HW125486   5.543   5.673   1.258
 8480SOL    HW225487   5.541   5.780   1.135
 8481SOL     OW25488   4.155   6.015   0.528
 8481SOL    HW125489   4.185   5.943   0.465
 8481SOL    HW225490   4.100   5.974   0.601
 8482SOL     OW25491   5.369   0.044   1.138
 8482SOL    HW125492   5.322   0.028   1.051
 8482SOL    HW225493   5.364   6.961   1.194
 8483SOL     OW25494   4.059   6.142   1.289
 8483SOL    HW125495   4.115   6.085   1.349
 8483SOL    HW225496   4.074   6.116   1.194
 8484SOL     OW25497   5.155   5.817   1.117
 8484SOL    HW125498   5.177   5.727   1.154
 8484SOL    HW225499   5.100   5.868   1.184
 8485SOL     OW25500   4.734   5.602   1.137
 8485SOL    HW125501   4.670   5.538   1.094
 8485SOL    HW225502   4.825   5.562   1.139
 8486SOL     OW25503   4.530   6.878   0.289
 8486SOL    HW125504   4.489   6.790   0.313
 8486SOL    HW225505   4.542   6.933   0.372
 8487SOL     OW25506   5.077   5.640   0.185
 8487SOL    HW125507   5.118   5.581   0.115
 8487SOL    HW225508   4.991   5.600   0.215
 8488SOL     OW25509   5.009   6.046   0.678
 8488SOL    HW125510   4.959   6.133   0.682
 8488SOL    HW225511   5.011   6.006   0.770
 8489SOL     OW25512   5.309   5.789   0.883
 8489SOL    HW125513   5.252   5.810   0.963
 8489SOL    HW225514   5.313   5.869   0.823
 8490SOL     OW25515   3.801   6.644   0.318
 8490SOL    HW125516   3.900   6.627   0.319
 8490SOL    HW225517   3.753   6.560   0.344
 8491SOL     OW25518   3.946   6.206   1.989
 8491SOL    HW125519   3.854   6.205   2.030
 8491SOL    HW225520   3.939   6.182   1.892
 8492SOL     OW25521   3.947   5.869   2.857
 8492SOL    HW125522   3.979   5.834   2.945
 8492SOL    HW225523   3.853   5.836   2.840
 8493SOL     OW25524   3.725   5.972   2.496
 8493SOL    HW125525   3.641   6.002   2.541
 8493SOL    HW225526   3.706   5.888   2.444
 8494SOL     OW25527   4.293   6.872   3.036
 8494SOL    HW125528   4.217   6.877   2.971
 8494SOL    HW225529   4.265   6.915   3.122
 8495SOL     OW25530   5.266   0.055   2.552
 8495SOL    HW125531   5.244   0.050   2.649
 8495SOL    HW225532   5.186   0.090   2.501
 8496SOL     OW25533   4.855   6.287   2.557
 8496SOL    HW125534   4.908   6.370   2.541
 8496SOL    HW225535   4.805   6.295   2.643
 8497SOL     OW25536   5.495   6.183   2.084
 8497SOL    HW125537   5.470   6.179   1.987
 8497SOL    HW225538   5.455   6.104   2.131
 8498SOL     OW25539   4.488   6.748   2.887
 8498SOL    HW125540   4.420   6.785   2.950
 8498SOL    HW225541   4.486   6.801   2.802
 8499SOL     OW25542   4.600   6.351   3.684
 8499SOL    HW125543   4.584   6.417   3.757
 8499SOL    HW225544   4.624   6.399   3.600
 8500SOL     OW25545   4.410   6.583   2.510
 8500SOL    HW125546   4.480   6.572   2.580
 8500SOL    HW225547   4.335   6.638   2.546
 8501SOL     OW25548   4.415   6.734   3.677
 8501SOL    HW125549   4.452   6.825   3.695
 8501SOL    HW225550   4.335   6.742   3.617
 8502SOL     OW25551   4.060   0.006   2.921
 8502SOL    HW125552   3.981   6.961   2.880
 8502SOL    HW225553   4.108   0.059   2.850
 8503SOL     OW25554   4.174   5.980   3.341
 8503SOL    HW125555   4.256   5.922   3.348
 8503SOL    HW225556   4.093   5.925   3.359
 8504SOL     OW25557   5.335   6.032   2.606
 8504SOL    HW125558   5.259   6.051   2.544
 8504SOL    HW225559   5.344   6.107   2.671
 8505SOL     OW25560   3.983   6.676   2.765
 8505SOL    HW125561   3.982   6.581   2.797
 8505SOL    HW225562   3.923   6.731   2.821
 8506SOL     OW25563   4.303   6.565   2.005
 8506SOL    HW125564   4.348   6.616   1.931
 8506SOL    HW225565   4.344   6.591   2.092
 8507SOL     OW25566   5.320   5.711   3.331
 8507SOL    HW125567   5.340   5.791   3.274
 8507SOL    HW225568   5.306   5.740   3.426
 8508SOL     OW25569   3.839   6.245   2.427
 8508SOL    HW125570   3.809   6.151   2.444
 8508SOL    HW225571   3.832   6.298   2.511
 8509SOL     OW25572   5.413   6.502   2.506
 8509SOL    HW125573   5.501   6.458   2.492
 8509SOL    HW225574   5.391   6.558   2.426
 8510SOL     OW25575   5.376   6.692   2.288
 8510SOL    HW125576   5.465   6.686   2.243
 8510SOL    HW225577   5.384   6.750   2.369
 8511SOL     OW25578   3.850   6.331   3.447
 8511SOL    HW125579   3.948   6.353   3.448
 8511SOL    HW225580   3.796   6.415   3.456
 8512SOL     OW25581   5.038   6.817   3.293
 8512SOL    HW125582   5.062   6.747   3.226
 8512SOL    HW225583   5.097   6.808   3.373
 8513SOL     OW25584   4.541   5.595   2.370
 8513SOL    HW125585   4.587   5.681   2.348
 8513SOL    HW225586   4.443   5.611   2.378
 8514SOL     OW25587   3.916   6.550   3.137
 8514SOL    HW125588   4.003   6.504   3.123
 8514SOL    HW225589   3.844   6.502   3.087
 8515SOL     OW25590   5.260   6.587   2.064
 8515SOL    HW125591   5.186   6.526   2.093
 8515SOL    HW225592   5.307   6.623   2.144
 8516SOL     OW25593   4.065   5.835   3.694
 8516SOL    HW125594   4.114   5.921   3.710
 8516SOL    HW225595   3.968   5.848   3.713
 8517SOL     OW25596   5.182   6.988   2.809
 8517SOL    HW125597   5.113   0.014   2.877
 8517SOL    HW225598   5.166   6.894   2.778
 8518SOL     OW25599   4.319   6.303   2.136
 8518SOL    HW125600   4.323   6.388   2.084
 8518SOL    HW225601   4.250   6.311   2.208
 8519SOL     OW25602   5.001   5.945   2.795
 8519SOL    HW125603   4.908   5.910   2.802
 8519SOL    HW225604   5.060   5.892   2.857
 8520SOL     OW25605   4.514   6.197   3.312
 8520SOL    HW125606   4.489   6.174   3.406
 8520SOL    HW225607   4.477   6.129   3.249
 8521SOL     OW25608   5.115   6.056   3.542
 8521SOL    HW125609   5.116   6.105   3.629
 8521SOL    HW225610   5.176   5.977   3.548
 8522SOL     OW25611   4.680   6.473   3.446
 8522SOL    HW125612   4.738   6.400   3.410
 8522SOL    HW225613   4.624   6.511   3.372
 8523SOL     OW25614   4.718   5.992   3.091
 8523SOL    HW125615   4.628   6.013   3.129
 8523SOL    HW225616   4.707   5.943   3.004
 8524SOL     OW25617   4.774   6.285   2.286
 8524SOL    HW125618   4.796   6.281   2.384
 8524SOL    HW225619   4.688   6.237   2.269
 8525SOL     OW25620   3.811   6.413   2.641
 8525SOL    HW125621   3.896   6.402   2.692
 8525SOL    HW225622   3.760   6.491   2.679
 8526SOL     OW25623   4.620   5.938   2.059
 8526SOL    HW125624   4.660   6.005   1.997
 8526SOL    HW225625   4.629   5.847   2.019
 8527SOL     OW25626   5.425   6.158   3.687
 8527SOL    HW125627   5.389   6.237   3.637
 8527SOL    HW225628   5.455   6.088   3.623
 8528SOL     OW25629   5.111   6.722   2.408
 8528SOL    HW125630   5.191   6.715   2.349
 8528SOL    HW225631   5.059   6.803   2.384
 8529SOL     OW25632   4.271   5.760   2.762
 8529SOL    HW125633   4.275   5.789   2.858
 8529SOL    HW225634   4.274   5.839   2.702
 8530SOL     OW25635   5.522   6.639   2.739
 8530SOL    HW125636   5.471   6.629   2.654
 8530SOL    HW225637   5.459   6.646   2.816
 8531SOL     OW25638   4.046   6.546   2.120
 8531SOL    HW125639   4.134   6.562   2.076
 8531SOL    HW225640   4.007   6.460   2.085
 8532SOL     OW25641   5.208   6.332   2.585
 8532SOL    HW125642   5.204   6.290   2.675
 8532SOL    HW225643   5.288   6.393   2.581
 8533SOL     OW25644   3.926   5.861   3.365
 8533SOL    HW125645   3.844   5.918   3.361
 8533SOL    HW225646   3.905   5.774   3.410
 8534SOL     OW25647   5.364   6.969   1.947
 8534SOL    HW125648   5.331   0.062   1.965
 8534SOL    HW225649   5.286   6.908   1.933
 8535SOL     OW25650   5.125   5.690   2.298
 8535SOL    HW125651   5.113   5.665   2.202
 8535SOL    HW225652   5.223   5.699   2.319
 8536SOL     OW25653   4.120   6.274   2.336
 8536SOL    HW125654   4.139   6.177   2.350
 8536SOL    HW225655   4.023   6.291   2.355
 8537SOL     OW25656   5.252   5.809   3.590
 8537SOL    HW125657   5.263   5.830   3.687
 8537SOL    HW225658   5.180   5.741   3.578
 8538SOL     OW25659   4.365   5.703   1.964
 8538SOL    HW125660   4.433   5.634   1.986
 8538SOL    HW225661   4.309   5.672   1.887
 8539SOL     OW25662   4.487   5.863   3.619
 8539SOL    HW125663   4.572   5.809   3.613
 8539SOL    HW225664   4.436   5.834   3.700
 8540SOL     OW25665   5.063   6.174   3.298
 8540SOL    HW125666   5.093   6.139   3.386
 8540SOL    HW225667   5.099   6.266   3.284
 8541SOL     OW25668   4.651   6.092   2.760
 8541SOL    HW125669   4.625   6.085   2.664
 8541SOL    HW225670   4.683   6.003   2.792
 8542SOL     OW25671   4.271   5.650   2.356
 8542SOL    HW125672   4.189   5.648   2.414
 8542SOL    HW225673   4.267   5.731   2.297
 8543SOL     OW25674   5.143   6.788   1.921
 8543SOL    HW125675   5.196   6.718   1.968
 8543SOL    HW225676   5.049   6.755   1.907
 8544SOL     OW25677   4.015   5.634   2.048
 8544SOL    HW125678   4.067   5.706   2.002
 8544SOL    HW225679   4.077   5.569   2.091
 8545SOL     OW25680   4.670   5.837   2.318
 8545SOL    HW125681   4.639   5.878   2.233
 8545SOL    HW225682   4.769   5.850   2.328
 8546SOL     OW25683   4.804   6.269   3.318
 8546SOL    HW125684   4.728   6.203   3.323
 8546SOL    HW225685   4.890   6.220   3.313
 8547SOL     OW25686   4.994   0.147   2.602
 8547SOL    HW125687   4.961   0.231   2.558
 8547SOL    HW225688   5.005   0.163   2.700
 8548SOL     OW25689   4.190   6.714   2.597
 8548SOL    HW125690   4.119   6.705   2.667
 8548SOL    HW225691   4.148   6.711   2.506
 8549SOL     OW25692   4.745   6.122   1.892
 8549SOL    HW125693   4.700   6.208   1.868
 8549SOL    HW225694   4.814   6.138   1.962
 8550SOL     OW25695   3.810   6.144   3.253
 8550SOL    HW125696   3.905   6.139   3.221
 8550SOL    HW225697   3.802   6.215   3.322
 8551SOL     OW25698   4.282   5.810   3.034
 8551SOL    HW125699   4.332   5.734   3.076
 8551SOL    HW225700   4.187   5.808   3.064
 8552SOL     OW25701   4.589   6.044   2.499
 8552SOL    HW125702   4.542   6.106   2.437
 8552SOL    HW225703   4.617   5.962   2.449
 8553SOL     OW25704   4.741   5.639   2.608
 8553SOL    HW125705   4.680   5.639   2.528
 8553SOL    HW225706   4.716   5.563   2.668
 8554SOL     OW25707   5.164   6.733   2.720
 8554SOL    HW125708   5.088   6.669   2.722
 8554SOL    HW225709   5.195   6.746   2.626
 8555SOL     OW25710   5.192   6.192   2.832
 8555SOL    HW125711   5.130   6.114   2.832
 8555SOL    HW225712   5.253   6.186   2.911
 8556SOL     OW25713   5.566   6.391   2.242
 8556SOL    HW125714   5.624   6.344   2.309
 8556SOL    HW225715   5.538   6.326   2.171
 8557SOL     OW25716   5.404   6.831   2.510
 8557SOL    HW125717   5.502   6.842   2.527
 8557SOL    HW225718   5.357   6.917   2.530
 8558SOL     OW25719   5.114   6.160   1.933
 8558SOL    HW125720   5.051   6.138   2.007
 8558SOL    HW225721   5.207   6.134   1.959
 8559SOL     OW25722   4.252   5.850   2.172
 8559SOL    HW125723   4.300   5.798   2.101
 8559SOL    HW225724   4.223   5.938   2.134
 8560SOL     OW25725   5.478   6.813   3.429
 8560SOL    HW125726   5.562   6.763   3.450
 8560SOL    HW225727   5.494   6.911   3.440
 8561SOL     OW25728   4.800   6.894   3.188
 8561SOL    HW125729   4.720   6.879   3.247
 8561SOL    HW225730   4.883   6.877   3.241
 8562SOL     OW25731   4.861   6.762   2.962
 8562SOL    HW125732   4.828   6.811   3.043
 8562SOL    HW225733   4.803   6.785   2.884
 8563SOL     OW25734   5.346   6.681   2.944
 8563SOL    HW125735   5.335   6.737   3.026
 8563SOL    HW225736   5.270   6.698   2.882
 8564SOL     OW25737   4.647   5.680   3.254
 8564SOL    HW125738   4.668   5.657   3.159
 8564SOL    HW225739   4.727   5.724   3.296
 8565SOL     OW25740   4.691   6.696   3.600
 8565SOL    HW125741   4.594   6.710   3.618
 8565SOL    HW225742   4.704   6.622   3.534
 8566SOL     OW25743   4.433   6.638   2.231
 8566SOL    HW125744   4.419   6.629   2.329
 8566SOL    HW225745   4.514   6.587   2.203
 8567SOL     OW25746   4.145   6.401   3.117
 8567SOL    HW125747   4.218   6.414   3.184
 8567SOL    HW225748   4.106   6.309   3.127
 8568SOL     OW25749   4.986   5.962   3.142
 8568SOL    HW125750   5.023   6.041   3.191
 8568SOL    HW225751   4.891   5.979   3.117
 8569SOL     OW25752   4.065   6.704   2.353
 8569SOL    HW125753   4.107   6.783   2.309
 8569SOL    HW225754   4.059   6.628   2.288
 8570SOL     OW25755   4.272   6.130   2.724
 8570SOL    HW125756   4.286   6.189   2.645
 8570SOL    HW225757   4.342   6.149   2.793
 8571SOL     OW25758   5.301   6.207   2.344
 8571SOL    HW125759   5.252   6.254   2.417
 8571SOL    HW225760   5.352   6.275   2.290
 8572SOL     OW25761   4.140   6.330   3.463
 8572SOL    HW125762   4.206   6.375   3.403
 8572SOL    HW225763   4.173   6.238   3.486
 8573SOL     OW25764   5.331   6.370   3.546
 8573SOL    HW125765   5.240   6.410   3.544
 8573SOL    HW225766   5.388   6.411   3.475
 8574SOL     OW25767   4.721   5.720   3.612
 8574SOL    HW125768   4.779   5.799   3.596
 8574SOL    HW225769   4.770   5.637   3.585
 8575SOL     OW25770   4.216   5.622   3.612
 8575SOL    HW125771   4.172   5.564   3.544
 8575SOL    HW225772   4.159   5.702   3.631
 8576SOL     OW25773   4.307   6.452   2.898
 8576SOL    HW125774   4.333   6.548   2.887
 8576SOL    HW225775   4.246   6.443   2.976
 8577SOL     OW25776   5.081   6.440   2.888
 8577SOL    HW125777   4.989   6.437   2.848
 8577SOL    HW225778   5.125   6.351   2.876
 8578SOL     OW25779   4.921   6.113   2.126
 8578SOL    HW125780   4.934   6.030   2.181
 8578SOL    HW225781   4.877   6.183   2.182
 8579SOL     OW25782   4.021   5.782   3.109
 8579SOL    HW125783   3.985   5.819   3.195
 8579SOL    HW225784   4.005   5.684   3.105
 8580SOL     OW25785   3.784   6.898   3.144
 8580SOL    HW125786   3.818   6.841   3.220
 8580SOL    HW225787   3.783   6.994   3.172
 8581SOL     OW25788   4.450   6.215   2.918
 8581SOL    HW125789   4.526   6.196   2.856
 8581SOL    HW225790   4.413   6.307   2.899
 8582SOL     OW25791   5.459   6.547   3.715
 8582SOL    HW125792   5.415   6.477   3.659
 8582SOL    HW225793   5.403   6.563   3.797
 8583SOL     OW25794   4.030   5.647   2.490
 8583SOL    HW125795   4.006   5.742   2.508
 8583SOL    HW225796   4.042   5.598   2.577
 8584SOL     OW25797   5.351   5.967   2.224
 8584SOL    HW125798   5.377   5.894   2.287
 8584SOL    HW225799   5.322   6.047   2.276
 8585SOL     OW25800   4.748   6.340   2.820
 8585SOL    HW125801   4.744   6.362   2.917
 8585SOL    HW225802   4.721   6.244   2.806
 8586SOL     OW25803   5.579   0.065   3.463
 8586SOL    HW125804   5.616   0.141   3.409
 8586SOL    HW225805   5.635   0.053   3.545
 8587SOL     OW25806   4.079   6.508   3.663
 8587SOL    HW125807   4.154   6.518   3.728
 8587SOL    HW225808   4.103   6.440   3.594
 8588SOL     OW25809   5.251   5.855   1.992
 8588SOL    HW125810   5.182   5.787   2.017
 8588SOL    HW225811   5.288   5.897   2.075
 8589SOL     OW25812   5.012   6.410   1.885
 8589SOL    HW125813   5.053   6.319   1.896
 8589SOL    HW225814   5.043   6.451   1.799
 8590SOL     OW25815   4.033   6.392   2.804
 8590SOL    HW125816   4.130   6.417   2.795
 8590SOL    HW225817   4.026   6.298   2.837
 8591SOL     OW25818   4.051   6.113   2.874
 8591SOL    HW125819   4.013   6.022   2.863
 8591SOL    HW225820   4.132   6.123   2.815
 8592SOL     OW25821   4.858   5.959   3.554
 8592SOL    HW125822   4.805   6.016   3.617
 8592SOL    HW225823   4.950   5.996   3.545
 8593SOL     OW25824   4.886   5.789   3.338
 8593SOL    HW125825   4.871   5.852   3.414
 8593SOL    HW225826   4.928   5.839   3.262
 8594SOL     OW25827   3.747   6.895   2.044
 8594SOL    HW125828   3.658   6.923   2.006
 8594SOL    HW225829   3.737   6.806   2.089
 8595SOL     OW25830   4.698   6.378   3.086
 8595SOL    HW125831   4.759   6.354   3.163
 8595SOL    HW225832   4.610   6.332   3.098
 8596SOL     OW25833   3.761   6.138   2.979
 8596SOL    HW125834   3.843   6.125   2.924
 8596SOL    HW225835   3.786   6.140   3.076
 8597SOL     OW25836   3.916   6.109   3.592
 8597SOL    HW125837   3.968   6.054   3.526
 8597SOL    HW225838   3.877   6.188   3.546
 8598SOL     OW25839   5.104   6.523   3.517
 8598SOL    HW125840   5.134   6.618   3.516
 8598SOL    HW225841   5.101   6.488   3.423
 8599SOL     OW25842   4.542   6.158   2.222
 8599SOL    HW125843   4.551   6.078   2.163
 8599SOL    HW225844   4.463   6.212   2.194
 8600SOL     OW25845   5.366   6.188   3.043
 8600SOL    HW125846   5.350   6.128   3.122
 8600SOL    HW225847   5.458   6.171   3.006
 8601SOL     OW25848   4.432   6.033   3.115
 8601SOL    HW125849   4.374   5.955   3.091
 8601SOL    HW225850   4.429   6.101   3.042
 8602SOL     OW25851   4.182   6.081   2.046
 8602SOL    HW125852   4.247   6.152   2.073
 8602SOL    HW225853   4.092   6.121   2.033
 8603SOL     OW25854   3.891   6.728   3.339
 8603SOL    HW125855   3.880   6.680   3.426
 8603SOL    HW225856   3.902   6.662   3.265
 8604SOL     OW25857   5.053   6.623   3.085
 8604SOL    HW125858   5.083   6.555   3.018
 8604SOL    HW225859   4.980   6.680   3.047
 8605SOL     OW25860   5.041   6.447   2.158
 8605SOL    HW125861   4.968   6.416   2.220
 8605SOL    HW225862   5.013   6.430   2.064
 8606SOL     OW25863   3.807   6.858   2.876
 8606SOL    HW125864   3.792   6.868   2.974
 8606SOL    HW225865   3.736   6.799   2.837
 8607SOL     OW25866   5.443   5.736   2.361
 8607SOL    HW125867   5.519   5.726   2.296
 8607SOL    HW225868   5.426   5.648   2.406
 8608SOL     OW25869   5.007   6.509   2.532
 8608SOL    HW125870   5.081   6.443   2.548
 8608SOL    HW225871   5.041   6.586   2.479
 8609SOL     OW25872   4.540   6.844   3.281
 8609SOL    HW125873   4.513   6.886   3.368
 8609SOL    HW225874   4.468   6.860   3.213
 8610SOL     OW25875   5.566   5.755   2.826
 8610SOL    HW125876   5.600   5.664   2.803
 8610SOL    HW225877   5.475   5.767   2.786
 8611SOL     OW25878   3.979   5.899   2.577
 8611SOL    HW125879   3.891   5.937   2.550
 8611SOL    HW225880   3.983   5.892   2.677
 8612SOL     OW25881   4.973   0.211   1.872
 8612SOL    HW125882   4.976   0.144   1.946
 8612SOL    HW225883   4.881   0.213   1.833
 8613SOL     OW25884   4.550   6.582   3.233
 8613SOL    HW125885   4.607   6.558   3.154
 8613SOL    HW225886   4.554   6.680   3.249
 8614SOL     OW25887   4.645   6.495   2.142
 8614SOL    HW125888   4.711   6.536   2.079
 8614SOL    HW225889   4.690   6.425   2.198
 8615SOL     OW25890   4.117   6.892   3.361
 8615SOL    HW125891   4.082   6.983   3.339
 8615SOL    HW225892   4.041   6.827   3.364
 8616SOL     OW25893   5.328   6.845   3.175
 8616SOL    HW125894   5.404   6.833   3.240
 8616SOL    HW225895   5.260   6.906   3.215
 8617SOL     OW25896   4.787   6.695   2.589
 8617SOL    HW125897   4.706   6.646   2.622
 8617SOL    HW225898   4.853   6.630   2.552
 8618SOL     OW25899   4.747   5.825   2.829
 8618SOL    HW125900   4.743   5.781   2.739
 8618SOL    HW225901   4.744   5.755   2.901
 8619SOL     OW25902   5.456   5.980   3.243
 8619SOL    HW125903   5.528   6.049   3.243
 8619SOL    HW225904   5.481   5.905   3.182
 8620SOL     OW25905   3.833   6.609   3.578
 8620SOL    HW125906   3.753   6.587   3.635
 8620SOL    HW225907   3.916   6.575   3.622
 8621SOL     OW25908   4.407   5.780   3.362
 8621SOL    HW125909   4.494   5.756   3.318
 8621SOL    HW225910   4.425   5.814   3.454
 8622SOL     OW25911   3.806   5.914   1.891
 8622SOL    HW125912   3.714   5.890   1.860
 8622SOL    HW225913   3.837   5.995   1.842
 8623SOL     OW25914   5.150   6.438   3.260
 8623SOL    HW125915   5.096   6.502   3.206
 8623SOL    HW225916   5.245   6.438   3.228
 8624SOL     OW25917   3.787   5.741   2.164
 8624SOL    HW125918   3.771   5.826   2.114
 8624SOL    HW225919   3.875   5.703   2.138
 8625SOL     OW25920   4.346   6.413   3.296
 8625SOL    HW125921   4.405   6.492   3.277
 8625SOL    HW225922   4.403   6.331   3.306
 8626SOL     OW25923   4.446   6.144   3.565
 8626SOL    HW125924   4.491   6.210   3.625
 8626SOL    HW225925   4.465   6.051   3.598
 8627SOL     OW25926   5.209   6.778   3.508
 8627SOL    HW125927   5.196   6.797   3.605
 8627SOL    HW225928   5.305   6.793   3.484
 8628SOL     OW25929   5.391   6.461   3.116
 8628SOL    HW125930   5.385   6.370   3.075
 8628SOL    HW225931   5.378   6.531   3.045
 8629SOL     OW25932   4.943   5.903   2.321
 8629SOL    HW125933   5.007   5.826   2.311
 8629SOL    HW225934   4.970   5.958   2.400
 8630SOL     OW25935   4.310   6.323   2.531
 8630SOL    HW125936   4.351   6.413   2.521
 8630SOL    HW225937   4.241   6.310   2.460
 8631SOL     OW25938   5.475   5.951   3.514
 8631SOL    HW125939   5.465   5.967   3.416
 8631SOL    HW225940   5.401   5.891   3.546
 8632SOL     OW25941   5.469   6.519   3.369
 8632SOL    HW125942   5.461   6.618   3.386
 8632SOL    HW225943   5.453   6.501   3.272
 8633SOL     OW25944   4.592   6.551   2.720
 8633SOL    HW125945   4.645   6.474   2.754
 8633SOL    HW225946   4.560   6.606   2.797
 8634SOL     OW25947   4.816   6.587   1.953
 8634SOL    HW125948   4.776   6.634   1.874
 8634SOL    HW225949   4.883   6.520   1.921
 8635SOL     OW25950   3.936   6.908   3.674
 8635SOL    HW125951   3.878   6.827   3.685
 8635SOL    HW225952   3.949   6.952   3.763
 8636SOL     OW25953   3.816   6.820   2.536
 8636SOL    HW125954   3.836   6.758   2.612
 8636SOL    HW225955   3.879   6.801   2.461
 8637SOL     OW25956   4.429   6.970   3.494
 8637SOL    HW125957   4.331   6.962   3.515
 8637SOL    HW225958   4.450   0.066   3.472
 8638SOL     OW25959   5.529   5.768   3.096
 8638SOL    HW125960   5.543   5.673   3.120
 8638SOL    HW225961   5.542   5.780   2.997
 8639SOL     OW25962   4.154   6.014   2.388
 8639SOL    HW125963   4.188   5.943   2.326
 8639SOL    HW225964   4.100   5.970   2.461
 8640SOL     OW25965   5.368   0.044   3.000
 8640SOL    HW125966   5.322   0.027   2.914
 8640SOL    HW225967   5.364   6.961   3.057
 8641SOL     OW25968   4.059   6.142   3.151
 8641SOL    HW125969   4.116   6.085   3.210
 8641SOL    HW225970   4.074   6.116   3.056
 8642SOL     OW25971   5.154   5.817   2.979
 8642SOL    HW125972   5.177   5.727   3.016
 8642SOL    HW225973   5.100   5.868   3.046
 8643SOL     OW25974   4.734   5.602   3.000
 8643SOL    HW125975   4.670   5.539   2.956
 8643SOL    HW225976   4.825   5.562   3.001
 8644SOL     OW25977   4.481   6.908   2.130
 8644SOL    HW125978   4.460   6.812   2.149
 8644SOL    HW225979   4.519   6.951   2.212
 8645SOL     OW25980   5.078   5.636   2.032
 8645SOL    HW125981   5.121   5.568   1.972
 8645SOL    HW225982   4.985   5.607   2.054
 8646SOL     OW25983   5.014   6.050   2.542
 8646SOL    HW125984   4.962   6.134   2.544
 8646SOL    HW225985   5.013   6.007   2.633
 8647SOL     OW25986   5.310   5.789   2.746
 8647SOL    HW125987   5.252   5.809   2.825
 8647SOL    HW225988   5.312   5.869   2.685
 8648SOL     OW25989   3.760   6.646   2.173
 8648SOL    HW125990   3.858   6.652   2.151
 8648SOL    HW225991   3.737   6.552   2.195
 8649SOL     OW25992   3.946   6.206   3.851
 8649SOL    HW125993   3.854   6.205   3.892
 8649SOL    HW225994   3.939   6.182   3.754
 8650SOL     OW25995   3.947   5.869   4.719
 8650SOL    HW125996   3.979   5.834   4.807
 8650SOL    HW225997   3.853   5.836   4.702
 8651SOL     OW25998   3.725   5.972   4.358
 8651SOL    HW125999   3.641   6.002   4.403
 8651SOL    HW226000   3.706   5.888   4.306
 8652SOL     OW26001   4.293   6.872   4.898
 8652SOL    HW126002   4.217   6.877   4.833
 8652SOL    HW226003   4.265   6.915   4.984
 8653SOL     OW26004   5.266   0.055   4.414
 8653SOL    HW126005   5.244   0.050   4.511
 8653SOL    HW226006   5.186   0.090   4.364
 8654SOL     OW26007   4.855   6.287   4.419
 8654SOL    HW126008   4.908   6.370   4.403
 8654SOL    HW226009   4.805   6.295   4.505
 8655SOL     OW26010   5.495   6.183   3.946
 8655SOL    HW126011   5.470   6.179   3.849
 8655SOL    HW226012   5.455   6.104   3.993
 8656SOL     OW26013   4.488   6.748   4.749
 8656SOL    HW126014   4.420   6.785   4.812
 8656SOL    HW226015   4.486   6.801   4.664
 8657SOL     OW26016   4.600   6.351   5.546
 8657SOL    HW126017   4.584   6.417   5.619
 8657SOL    HW226018   4.624   6.399   5.462
 8658SOL     OW26019   4.410   6.583   4.372
 8658SOL    HW126020   4.480   6.572   4.443
 8658SOL    HW226021   4.335   6.638   4.408
 8659SOL     OW26022   4.415   6.734   5.539
 8659SOL    HW126023   4.453   6.825   5.557
 8659SOL    HW226024   4.336   6.742   5.479
 8660SOL     OW26025   4.060   0.006   4.783
 8660SOL    HW126026   3.981   6.961   4.742
 8660SOL    HW226027   4.108   0.059   4.712
 8661SOL     OW26028   4.174   5.980   5.203
 8661SOL    HW126029   4.256   5.922   5.210
 8661SOL    HW226030   4.093   5.925   5.221
 8662SOL     OW26031   5.335   6.032   4.468
 8662SOL    HW126032   5.259   6.051   4.406
 8662SOL    HW226033   5.344   6.107   4.533
 8663SOL     OW26034   3.983   6.676   4.627
 8663SOL    HW126035   3.982   6.581   4.659
 8663SOL    HW226036   3.923   6.731   4.683
 8664SOL     OW26037   4.303   6.565   3.867
 8664SOL    HW126038   4.348   6.616   3.793
 8664SOL    HW226039   4.344   6.591   3.954
 8665SOL     OW26040   5.320   5.711   5.193
 8665SOL    HW126041   5.340   5.791   5.136
 8665SOL    HW226042   5.306   5.740   5.288
 8666SOL     OW26043   3.839   6.245   4.289
 8666SOL    HW126044   3.809   6.151   4.306
 8666SOL    HW226045   3.832   6.298   4.373
 8667SOL     OW26046   5.413   6.502   4.368
 8667SOL    HW126047   5.501   6.458   4.354
 8667SOL    HW226048   5.391   6.558   4.288
 8668SOL     OW26049   5.376   6.692   4.150
 8668SOL    HW126050   5.465   6.686   4.105
 8668SOL    HW226051   5.384   6.750   4.231
 8669SOL     OW26052   3.850   6.331   5.309
 8669SOL    HW126053   3.948   6.353   5.310
 8669SOL    HW226054   3.797   6.415   5.318
 8670SOL     OW26055   5.038   6.817   5.155
 8670SOL    HW126056   5.062   6.747   5.088
 8670SOL    HW226057   5.097   6.808   5.235
 8671SOL     OW26058   4.541   5.595   4.232
 8671SOL    HW126059   4.587   5.681   4.210
 8671SOL    HW226060   4.443   5.611   4.240
 8672SOL     OW26061   3.916   6.550   4.999
 8672SOL    HW126062   4.003   6.504   4.985
 8672SOL    HW226063   3.844   6.502   4.949
 8673SOL     OW26064   5.260   6.587   3.926
 8673SOL    HW126065   5.186   6.527   3.955
 8673SOL    HW226066   5.307   6.623   4.006
 8674SOL     OW26067   4.065   5.835   5.555
 8674SOL    HW126068   4.114   5.921   5.572
 8674SOL    HW226069   3.968   5.848   5.575
 8675SOL     OW26070   5.182   6.988   4.671
 8675SOL    HW126071   5.113   0.014   4.739
 8675SOL    HW226072   5.166   6.894   4.640
 8676SOL     OW26073   4.319   6.303   3.998
 8676SOL    HW126074   4.323   6.388   3.946
 8676SOL    HW226075   4.250   6.311   4.070
 8677SOL     OW26076   5.001   5.945   4.657
 8677SOL    HW126077   4.908   5.910   4.664
 8677SOL    HW226078   5.060   5.892   4.719
 8678SOL     OW26079   4.514   6.197   5.174
 8678SOL    HW126080   4.489   6.174   5.268
 8678SOL    HW226081   4.477   6.129   5.111
 8679SOL     OW26082   5.115   6.056   5.404
 8679SOL    HW126083   5.116   6.105   5.491
 8679SOL    HW226084   5.176   5.977   5.410
 8680SOL     OW26085   4.680   6.473   5.308
 8680SOL    HW126086   4.738   6.400   5.272
 8680SOL    HW226087   4.624   6.511   5.234
 8681SOL     OW26088   4.718   5.992   4.953
 8681SOL    HW126089   4.628   6.013   4.991
 8681SOL    HW226090   4.707   5.943   4.866
 8682SOL     OW26091   4.774   6.285   4.148
 8682SOL    HW126092   4.796   6.281   4.246
 8682SOL    HW226093   4.688   6.237   4.131
 8683SOL     OW26094   3.811   6.413   4.503
 8683SOL    HW126095   3.896   6.402   4.554
 8683SOL    HW226096   3.760   6.491   4.541
 8684SOL     OW26097   4.620   5.938   3.920
 8684SOL    HW126098   4.660   6.006   3.859
 8684SOL    HW226099   4.629   5.847   3.881
 8685SOL     OW26100   5.425   6.158   5.549
 8685SOL    HW126101   5.389   6.237   5.499
 8685SOL    HW226102   5.455   6.088   5.485
 8686SOL     OW26103   5.111   6.722   4.270
 8686SOL    HW126104   5.191   6.715   4.211
 8686SOL    HW226105   5.059   6.803   4.246
 8687SOL     OW26106   4.271   5.759   4.624
 8687SOL    HW126107   4.275   5.789   4.720
 8687SOL    HW226108   4.274   5.839   4.564
 8688SOL     OW26109   5.522   6.639   4.601
 8688SOL    HW126110   5.471   6.629   4.516
 8688SOL    HW226111   5.459   6.646   4.678
 8689SOL     OW26112   4.046   6.546   3.982
 8689SOL    HW126113   4.134   6.562   3.938
 8689SOL    HW226114   4.007   6.460   3.947
 8690SOL     OW26115   5.208   6.332   4.447
 8690SOL    HW126116   5.204   6.290   4.537
 8690SOL    HW226117   5.288   6.393   4.443
 8691SOL     OW26118   3.926   5.861   5.227
 8691SOL    HW126119   3.844   5.918   5.223
 8691SOL    HW226120   3.905   5.775   5.272
 8692SOL     OW26121   5.364   6.969   3.809
 8692SOL    HW126122   5.331   0.062   3.827
 8692SOL    HW226123   5.286   6.908   3.795
 8693SOL     OW26124   5.125   5.690   4.160
 8693SOL    HW126125   5.113   5.665   4.064
 8693SOL    HW226126   5.223   5.699   4.180
 8694SOL     OW26127   4.120   6.274   4.198
 8694SOL    HW126128   4.139   6.177   4.212
 8694SOL    HW226129   4.023   6.291   4.217
 8695SOL     OW26130   5.252   5.809   5.452
 8695SOL    HW126131   5.263   5.830   5.549
 8695SOL    HW226132   5.180   5.741   5.441
 8696SOL     OW26133   4.365   5.703   3.826
 8696SOL    HW126134   4.433   5.634   3.848
 8696SOL    HW226135   4.309   5.671   3.749
 8697SOL     OW26136   4.487   5.863   5.481
 8697SOL    HW126137   4.572   5.809   5.475
 8697SOL    HW226138   4.436   5.834   5.562
 8698SOL     OW26139   5.063   6.174   5.160
 8698SOL    HW126140   5.093   6.139   5.248
 8698SOL    HW226141   5.099   6.266   5.146
 8699SOL     OW26142   4.651   6.092   4.622
 8699SOL    HW126143   4.625   6.085   4.526
 8699SOL    HW226144   4.683   6.003   4.654
 8700SOL     OW26145   4.271   5.650   4.218
 8700SOL    HW126146   4.189   5.648   4.276
 8700SOL    HW226147   4.268   5.731   4.159
 8701SOL     OW26148   5.143   6.788   3.783
 8701SOL    HW126149   5.196   6.718   3.830
 8701SOL    HW226150   5.049   6.755   3.769
 8702SOL     OW26151   4.014   5.634   3.910
 8702SOL    HW126152   4.067   5.706   3.864
 8702SOL    HW226153   4.077   5.569   3.953
 8703SOL     OW26154   4.670   5.837   4.180
 8703SOL    HW126155   4.638   5.878   4.095
 8703SOL    HW226156   4.769   5.850   4.189
 8704SOL     OW26157   4.804   6.269   5.180
 8704SOL    HW126158   4.728   6.203   5.185
 8704SOL    HW226159   4.890   6.220   5.175
 8705SOL     OW26160   4.994   0.148   4.464
 8705SOL    HW126161   4.961   0.231   4.420
 8705SOL    HW226162   5.004   0.163   4.562
 8706SOL     OW26163   4.190   6.714   4.459
 8706SOL    HW126164   4.119   6.705   4.529
 8706SOL    HW226165   4.148   6.711   4.368
 8707SOL     OW26166   4.745   6.122   3.754
 8707SOL    HW126167   4.700   6.208   3.730
 8707SOL    HW226168   4.814   6.139   3.824
 8708SOL     OW26169   3.810   6.144   5.115
 8708SOL    HW126170   3.905   6.139   5.083
 8708SOL    HW226171   3.802   6.215   5.184
 8709SOL     OW26172   4.282   5.810   4.896
 8709SOL    HW126173   4.332   5.734   4.938
 8709SOL    HW226174   4.187   5.808   4.925
 8710SOL     OW26175   4.589   6.044   4.361
 8710SOL    HW126176   4.542   6.106   4.299
 8710SOL    HW226177   4.617   5.962   4.311
 8711SOL     OW26178   4.741   5.639   4.470
 8711SOL    HW126179   4.681   5.639   4.390
 8711SOL    HW226180   4.716   5.563   4.530
 8712SOL     OW26181   5.164   6.733   4.582
 8712SOL    HW126182   5.088   6.669   4.584
 8712SOL    HW226183   5.195   6.746   4.488
 8713SOL     OW26184   5.192   6.192   4.694
 8713SOL    HW126185   5.130   6.114   4.694
 8713SOL    HW226186   5.253   6.186   4.773
 8714SOL     OW26187   5.566   6.391   4.104
 8714SOL    HW126188   5.624   6.344   4.171
 8714SOL    HW226189   5.538   6.326   4.033
 8715SOL     OW26190   5.404   6.831   4.372
 8715SOL    HW126191   5.502   6.842   4.389
 8715SOL    HW226192   5.357   6.917   4.392
 8716SOL     OW26193   5.114   6.160   3.795
 8716SOL    HW126194   5.051   6.138   3.869
 8716SOL    HW226195   5.207   6.134   3.821
 8717SOL     OW26196   4.252   5.850   4.034
 8717SOL    HW126197   4.300   5.798   3.963
 8717SOL    HW226198   4.223   5.938   3.996
 8718SOL     OW26199   5.478   6.813   5.291
 8718SOL    HW126200   5.562   6.763   5.312
 8718SOL    HW226201   5.494   6.911   5.302
 8719SOL     OW26202   4.800   6.894   5.051
 8719SOL    HW126203   4.720   6.879   5.109
 8719SOL    HW226204   4.883   6.877   5.103
 8720SOL     OW26205   4.861   6.762   4.824
 8720SOL    HW126206   4.828   6.811   4.905
 8720SOL    HW226207   4.803   6.785   4.746
 8721SOL     OW26208   5.347   6.681   4.806
 8721SOL    HW126209   5.335   6.737   4.888
 8721SOL    HW226210   5.270   6.698   4.744
 8722SOL     OW26211   4.647   5.680   5.116
 8722SOL    HW126212   4.669   5.658   5.021
 8722SOL    HW226213   4.727   5.724   5.158
 8723SOL     OW26214   4.691   6.696   5.462
 8723SOL    HW126215   4.594   6.710   5.479
 8723SOL    HW226216   4.704   6.622   5.396
 8724SOL     OW26217   4.433   6.638   4.093
 8724SOL    HW126218   4.419   6.629   4.191
 8724SOL    HW226219   4.514   6.587   4.065
 8725SOL     OW26220   4.145   6.401   4.979
 8725SOL    HW126221   4.218   6.414   5.046
 8725SOL    HW226222   4.106   6.309   4.989
 8726SOL     OW26223   4.986   5.962   5.004
 8726SOL    HW126224   5.023   6.041   5.053
 8726SOL    HW226225   4.891   5.979   4.979
 8727SOL     OW26226   4.065   6.704   4.215
 8727SOL    HW126227   4.107   6.783   4.170
 8727SOL    HW226228   4.059   6.628   4.150
 8728SOL     OW26229   4.272   6.130   4.586
 8728SOL    HW126230   4.286   6.189   4.507
 8728SOL    HW226231   4.342   6.149   4.655
 8729SOL     OW26232   5.301   6.207   4.206
 8729SOL    HW126233   5.252   6.254   4.279
 8729SOL    HW226234   5.352   6.274   4.152
 8730SOL     OW26235   4.140   6.330   5.325
 8730SOL    HW126236   4.206   6.375   5.265
 8730SOL    HW226237   4.173   6.238   5.348
 8731SOL     OW26238   5.332   6.370   5.408
 8731SOL    HW126239   5.240   6.410   5.406
 8731SOL    HW226240   5.388   6.411   5.337
 8732SOL     OW26241   4.721   5.720   5.474
 8732SOL    HW126242   4.779   5.800   5.458
 8732SOL    HW226243   4.770   5.637   5.447
 8733SOL     OW26244   4.216   5.622   5.474
 8733SOL    HW126245   4.172   5.564   5.406
 8733SOL    HW226246   4.159   5.702   5.493
 8734SOL     OW26247   4.307   6.452   4.760
 8734SOL    HW126248   4.333   6.548   4.749
 8734SOL    HW226249   4.246   6.443   4.838
 8735SOL     OW26250   5.081   6.440   4.750
 8735SOL    HW126251   4.989   6.437   4.710
 8735SOL    HW226252   5.125   6.351   4.738
 8736SOL     OW26253   4.921   6.113   3.988
 8736SOL    HW126254   4.934   6.030   4.043
 8736SOL    HW226255   4.877   6.183   4.044
 8737SOL     OW26256   4.021   5.782   4.971
 8737SOL    HW126257   3.985   5.819   5.057
 8737SOL    HW226258   4.005   5.684   4.967
 8738SOL     OW26259   3.784   6.898   5.006
 8738SOL    HW126260   3.818   6.841   5.082
 8738SOL    HW226261   3.783   6.994   5.034
 8739SOL     OW26262   4.450   6.215   4.780
 8739SOL    HW126263   4.526   6.196   4.718
 8739SOL    HW226264   4.413   6.307   4.761
 8740SOL     OW26265   5.459   6.547   5.577
 8740SOL    HW126266   5.415   6.477   5.521
 8740SOL    HW226267   5.403   6.563   5.659
 8741SOL     OW26268   4.030   5.647   4.352
 8741SOL    HW126269   4.006   5.742   4.370
 8741SOL    HW226270   4.041   5.598   4.439
 8742SOL     OW26271   5.350   5.967   4.086
 8742SOL    HW126272   5.377   5.894   4.149
 8742SOL    HW226273   5.322   6.047   4.138
 8743SOL     OW26274   4.748   6.340   4.682
 8743SOL    HW126275   4.744   6.362   4.779
 8743SOL    HW226276   4.721   6.244   4.668
 8744SOL     OW26277   5.579   0.065   5.324
 8744SOL    HW126278   5.615   0.141   5.271
 8744SOL    HW226279   5.634   0.054   5.407
 8745SOL     OW26280   4.079   6.507   5.526
 8745SOL    HW126281   4.154   6.518   5.590
 8745SOL    HW226282   4.103   6.440   5.456
 8746SOL     OW26283   5.251   5.855   3.854
 8746SOL    HW126284   5.182   5.787   3.879
 8746SOL    HW226285   5.288   5.897   3.937
 8747SOL     OW26286   5.012   6.410   3.747
 8747SOL    HW126287   5.053   6.319   3.758
 8747SOL    HW226288   5.043   6.451   3.661
 8748SOL     OW26289   4.033   6.392   4.666
 8748SOL    HW126290   4.130   6.417   4.657
 8748SOL    HW226291   4.026   6.298   4.699
 8749SOL     OW26292   4.051   6.113   4.736
 8749SOL    HW126293   4.013   6.022   4.725
 8749SOL    HW226294   4.132   6.123   4.677
 8750SOL     OW26295   4.858   5.959   5.416
 8750SOL    HW126296   4.805   6.015   5.479
 8750SOL    HW226297   4.950   5.996   5.407
 8751SOL     OW26298   4.886   5.789   5.200
 8751SOL    HW126299   4.871   5.851   5.276
 8751SOL    HW226300   4.928   5.839   5.124
 8752SOL     OW26301   3.747   6.895   3.906
 8752SOL    HW126302   3.658   6.923   3.868
 8752SOL    HW226303   3.737   6.806   3.952
 8753SOL     OW26304   4.699   6.378   4.948
 8753SOL    HW126305   4.759   6.354   5.025
 8753SOL    HW226306   4.610   6.333   4.960
 8754SOL     OW26307   3.761   6.138   4.841
 8754SOL    HW126308   3.843   6.125   4.786
 8754SOL    HW226309   3.786   6.140   4.938
 8755SOL     OW26310   3.916   6.109   5.454
 8755SOL    HW126311   3.968   6.055   5.388
 8755SOL    HW226312   3.877   6.188   5.408
 8756SOL     OW26313   5.104   6.523   5.379
 8756SOL    HW126314   5.134   6.618   5.378
 8756SOL    HW226315   5.101   6.488   5.285
 8757SOL     OW26316   4.542   6.158   4.084
 8757SOL    HW126317   4.551   6.078   4.025
 8757SOL    HW226318   4.463   6.212   4.056
 8758SOL     OW26319   5.366   6.188   4.905
 8758SOL    HW126320   5.350   6.128   4.984
 8758SOL    HW226321   5.458   6.171   4.868
 8759SOL     OW26322   4.432   6.033   4.977
 8759SOL    HW126323   4.374   5.955   4.953
 8759SOL    HW226324   4.429   6.101   4.904
 8760SOL     OW26325   4.182   6.081   3.909
 8760SOL    HW126326   4.247   6.152   3.935
 8760SOL    HW226327   4.092   6.121   3.895
 8761SOL     OW26328   3.891   6.728   5.201
 8761SOL    HW126329   3.880   6.679   5.288
 8761SOL    HW226330   3.902   6.662   5.127
 8762SOL     OW26331   5.054   6.623   4.947
 8762SOL    HW126332   5.083   6.555   4.880
 8762SOL    HW226333   4.980   6.680   4.909
 8763SOL     OW26334   5.041   6.447   4.020
 8763SOL    HW126335   4.968   6.416   4.082
 8763SOL    HW226336   5.013   6.430   3.926
 8764SOL     OW26337   3.807   6.858   4.738
 8764SOL    HW126338   3.792   6.868   4.836
 8764SOL    HW226339   3.736   6.799   4.699
 8765SOL     OW26340   5.443   5.736   4.223
 8765SOL    HW126341   5.519   5.726   4.158
 8765SOL    HW226342   5.426   5.648   4.268
 8766SOL     OW26343   5.007   6.509   4.393
 8766SOL    HW126344   5.081   6.443   4.410
 8766SOL    HW226345   5.041   6.586   4.341
 8767SOL     OW26346   4.540   6.844   5.143
 8767SOL    HW126347   4.513   6.886   5.230
 8767SOL    HW226348   4.468   6.860   5.075
 8768SOL     OW26349   5.566   5.755   4.688
 8768SOL    HW126350   5.600   5.664   4.665
 8768SOL    HW226351   5.475   5.767   4.648
 8769SOL     OW26352   3.979   5.899   4.439
 8769SOL    HW126353   3.891   5.937   4.412
 8769SOL    HW226354   3.983   5.892   4.539
 8770SOL     OW26355   4.973   0.211   3.734
 8770SOL    HW126356   4.976   0.144   3.808
 8770SOL    HW226357   4.881   0.212   3.695
 8771SOL     OW26358   4.550   6.582   5.095
 8771SOL    HW126359   4.607   6.559   5.016
 8771SOL    HW226360   4.554   6.680   5.111
 8772SOL     OW26361   4.645   6.495   4.004
 8772SOL    HW126362   4.711   6.536   3.941
 8772SOL    HW226363   4.690   6.425   4.060
 8773SOL     OW26364   4.117   6.892   5.223
 8773SOL    HW126365   4.082   6.983   5.201
 8773SOL    HW226366   4.041   6.827   5.226
 8774SOL     OW26367   5.328   6.845   5.037
 8774SOL    HW126368   5.404   6.833   5.102
 8774SOL    HW226369   5.260   6.906   5.077
 8775SOL     OW26370   4.787   6.695   4.451
 8775SOL    HW126371   4.706   6.646   4.484
 8775SOL    HW226372   4.853   6.630   4.414
 8776SOL     OW26373   4.747   5.825   4.691
 8776SOL    HW126374   4.743   5.781   4.601
 8776SOL    HW226375   4.744   5.755   4.763
 8777SOL     OW26376   5.455   5.980   5.105
 8777SOL    HW126377   5.528   6.049   5.105
 8777SOL    HW226378   5.481   5.905   5.044
 8778SOL     OW26379   3.833   6.609   5.440
 8778SOL    HW126380   3.753   6.587   5.497
 8778SOL    HW226381   3.916   6.575   5.484
 8779SOL     OW26382   4.407   5.780   5.224
 8779SOL    HW126383   4.494   5.756   5.180
 8779SOL    HW226384   4.425   5.814   5.316
 8780SOL     OW26385   3.806   5.914   3.753
 8780SOL    HW126386   3.714   5.890   3.722
 8780SOL    HW226387   3.837   5.995   3.704
 8781SOL     OW26388   5.150   6.438   5.122
 8781SOL    HW126389   5.096   6.502   5.068
 8781SOL    HW226390   5.245   6.438   5.090
 8782SOL     OW26391   3.787   5.741   4.026
 8782SOL    HW126392   3.771   5.826   3.976
 8782SOL    HW226393   3.875   5.703   4.000
 8783SOL     OW26394   4.346   6.413   5.158
 8783SOL    HW126395   4.405   6.492   5.139
 8783SOL    HW226396   4.403   6.331   5.168
 8784SOL     OW26397   4.446   6.144   5.427
 8784SOL    HW126398   4.491   6.211   5.487
 8784SOL    HW226399   4.465   6.051   5.460
 8785SOL     OW26400   5.209   6.778   5.370
 8785SOL    HW126401   5.196   6.797   5.467
 8785SOL    HW226402   5.305   6.793   5.346
 8786SOL     OW26403   5.391   6.461   4.978
 8786SOL    HW126404   5.385   6.370   4.937
 8786SOL    HW226405   5.378   6.531   4.907
 8787SOL     OW26406   4.943   5.903   4.183
 8787SOL    HW126407   5.007   5.826   4.174
 8787SOL    HW226408   4.970   5.958   4.262
 8788SOL     OW26409   4.310   6.323   4.393
 8788SOL    HW126410   4.351   6.413   4.383
 8788SOL    HW226411   4.241   6.310   4.322
 8789SOL     OW26412   5.475   5.951   5.376
 8789SOL    HW126413   5.465   5.967   5.278
 8789SOL    HW226414   5.401   5.891   5.408
 8790SOL     OW26415   5.469   6.519   5.231
 8790SOL    HW126416   5.461   6.618   5.248
 8790SOL    HW226417   5.453   6.501   5.134
 8791SOL     OW26418   4.592   6.551   4.582
 8791SOL    HW126419   4.645   6.474   4.616
 8791SOL    HW226420   4.560   6.606   4.659
 8792SOL     OW26421   4.817   6.587   3.815
 8792SOL    HW126422   4.776   6.634   3.736
 8792SOL    HW226423   4.883   6.520   3.783
 8793SOL     OW26424   3.936   6.908   5.536
 8793SOL    HW126425   3.878   6.827   5.547
 8793SOL    HW226426   3.948   6.952   5.625
 8794SOL     OW26427   3.816   6.820   4.398
 8794SOL    HW126428   3.836   6.758   4.474
 8794SOL    HW226429   3.879   6.801   4.322
 8795SOL     OW26430   4.429   6.970   5.356
 8795SOL    HW126431   4.331   6.962   5.376
 8795SOL    HW226432   4.450   0.066   5.334
 8796SOL     OW26433   5.529   5.769   4.958
 8796SOL    HW126434   5.544   5.673   4.982
 8796SOL    HW226435   5.542   5.780   4.859
 8797SOL     OW26436   4.154   6.014   4.251
 8797SOL    HW126437   4.188   5.943   4.188
 8797SOL    HW226438   4.100   5.970   4.323
 8798SOL     OW26439   5.369   0.044   4.862
 8798SOL    HW126440   5.321   0.027   4.776
 8798SOL    HW226441   5.364   6.961   4.919
 8799SOL     OW26442   4.059   6.142   5.013
 8799SOL    HW126443   4.116   6.085   5.072
 8799SOL    HW226444   4.074   6.116   4.918
 8800SOL     OW26445   5.154   5.817   4.841
 8800SOL    HW126446   5.177   5.727   4.879
 8800SOL    HW226447   5.100   5.868   4.908
 8801SOL     OW26448   4.734   5.602   4.862
 8801SOL    HW126449   4.670   5.539   4.818
 8801SOL    HW226450   4.825   5.562   4.863
 8802SOL     OW26451   4.481   6.908   3.992
 8802SOL    HW126452   4.460   6.812   4.011
 8802SOL    HW226453   4.519   6.951   4.074
 8803SOL     OW26454   5.078   5.636   3.894
 8803SOL    HW126455   5.121   5.568   3.833
 8803SOL    HW226456   4.985   5.607   3.916
 8804SOL     OW26457   5.014   6.050   4.404
 8804SOL    HW126458   4.962   6.134   4.406
 8804SOL    HW226459   5.013   6.007   4.495
 8805SOL     OW26460   5.310   5.789   4.608
 8805SOL    HW126461   5.252   5.809   4.687
 8805SOL    HW226462   5.312   5.869   4.547
 8806SOL     OW26463   3.760   6.646   4.035
 8806SOL    HW126464   3.858   6.652   4.013
 8806SOL    HW226465   3.737   6.552   4.057
 8807SOL     OW26466   3.945   6.206   5.713
 8807SOL    HW126467   3.854   6.205   5.754
 8807SOL    HW226468   3.939   6.182   5.616
 8808SOL     OW26469   3.944   5.874   6.582
 8808SOL    HW126470   3.980   5.835   6.667
 8808SOL    HW226471   3.853   5.837   6.565
 8809SOL     OW26472   3.724   5.972   6.221
 8809SOL    HW126473   3.640   6.003   6.265
 8809SOL    HW226474   3.706   5.888   6.169
 8810SOL     OW26475   4.285   6.879   6.770
 8810SOL    HW126476   4.218   6.893   6.697
 8810SOL    HW226477   4.237   6.876   6.858
 8811SOL     OW26478   5.265   0.056   6.274
 8811SOL    HW126479   5.242   0.049   6.372
 8811SOL    HW226480   5.186   0.091   6.224
 8812SOL     OW26481   4.855   6.286   6.281
 8812SOL    HW126482   4.907   6.370   6.266
 8812SOL    HW226483   4.804   6.294   6.367
 8813SOL     OW26484   5.495   6.183   5.808
 8813SOL    HW126485   5.471   6.179   5.711
 8813SOL    HW226486   5.455   6.105   5.856
 8814SOL     OW26487   4.479   6.740   6.615
 8814SOL    HW126488   4.415   6.783   6.680
 8814SOL    HW226489   4.490   6.800   6.536
 8815SOL     OW26490   4.410   6.583   6.234
 8815SOL    HW126491   4.480   6.573   6.304
 8815SOL    HW226492   4.334   6.638   6.270
 8816SOL     OW26493   4.060   0.013   6.641
 8816SOL    HW126494   3.981   6.964   6.603
 8816SOL    HW226495   4.105   0.065   6.568
 8817SOL     OW26496   5.335   6.033   6.329
 8817SOL    HW126497   5.259   6.050   6.267
 8817SOL    HW226498   5.337   6.106   6.398
 8818SOL     OW26499   3.985   6.677   6.493
 8818SOL    HW126500   3.981   6.582   6.525
 8818SOL    HW226501   3.924   6.733   6.548
 8819SOL     OW26502   4.303   6.565   5.729
 8819SOL    HW126503   4.348   6.616   5.655
 8819SOL    HW226504   4.344   6.591   5.816
 8820SOL     OW26505   3.839   6.245   6.151
 8820SOL    HW126506   3.808   6.151   6.168
 8820SOL    HW226507   3.832   6.298   6.235
 8821SOL     OW26508   5.414   6.503   6.228
 8821SOL    HW126509   5.500   6.456   6.211
 8821SOL    HW226510   5.390   6.559   6.148
 8822SOL     OW26511   5.376   6.692   6.012
 8822SOL    HW126512   5.465   6.686   5.966
 8822SOL    HW226513   5.384   6.751   6.092
 8823SOL     OW26514   4.541   5.595   6.094
 8823SOL    HW126515   4.587   5.681   6.072
 8823SOL    HW226516   4.443   5.611   6.102
 8824SOL     OW26517   3.916   6.556   6.837
 8824SOL    HW126518   3.998   6.501   6.825
 8824SOL    HW226519   3.836   6.502   6.812
 8825SOL     OW26520   5.260   6.587   5.787
 8825SOL    HW126521   5.186   6.526   5.816
 8825SOL    HW226522   5.307   6.623   5.868
 8826SOL     OW26523   5.179   6.994   6.529
 8826SOL    HW126524   5.118   0.020   6.604
 8826SOL    HW226525   5.162   6.899   6.504
 8827SOL     OW26526   4.319   6.303   5.860
 8827SOL    HW126527   4.324   6.388   5.808
 8827SOL    HW226528   4.250   6.311   5.932
 8828SOL     OW26529   4.999   5.942   6.518
 8828SOL    HW126530   4.905   5.909   6.525
 8828SOL    HW226531   5.058   5.892   6.581
 8829SOL     OW26532   4.520   6.187   0.049
 8829SOL    HW126533   4.459   6.235   0.112
 8829SOL    HW226534   4.466   6.135   6.983
 8830SOL     OW26535   4.728   5.978   6.797
 8830SOL    HW126536   4.663   6.034   6.849
 8830SOL    HW226537   4.680   5.932   6.722
 8831SOL     OW26538   4.774   6.285   6.011
 8831SOL    HW126539   4.796   6.281   6.108
 8831SOL    HW226540   4.688   6.237   5.993
 8832SOL     OW26541   3.812   6.411   6.367
 8832SOL    HW126542   3.898   6.401   6.417
 8832SOL    HW226543   3.761   6.489   6.401
 8833SOL     OW26544   4.620   5.938   5.782
 8833SOL    HW126545   4.660   6.006   5.721
 8833SOL    HW226546   4.630   5.847   5.743
 8834SOL     OW26547   5.111   6.722   6.133
 8834SOL    HW126548   5.191   6.715   6.073
 8834SOL    HW226549   5.059   6.804   6.109
 8835SOL     OW26550   4.271   5.759   6.485
 8835SOL    HW126551   4.277   5.790   6.579
 8835SOL    HW226552   4.275   5.838   6.423
 8836SOL     OW26553   5.529   6.639   6.452
 8836SOL    HW126554   5.477   6.626   6.367
 8836SOL    HW226555   5.466   6.639   6.530
 8837SOL     OW26556   4.046   6.546   5.844
 8837SOL    HW126557   4.134   6.562   5.800
 8837SOL    HW226558   4.007   6.460   5.809
 8838SOL     OW26559   5.208   6.332   6.307
 8838SOL    HW126560   5.202   6.288   6.397
 8838SOL    HW226561   5.287   6.393   6.305
 8839SOL     OW26562   5.364   6.969   5.671
 8839SOL    HW126563   5.331   0.062   5.689
 8839SOL    HW226564   5.286   6.908   5.657
 8840SOL     OW26565   5.125   5.690   6.022
 8840SOL    HW126566   5.114   5.664   5.926
 8840SOL    HW226567   5.223   5.699   6.043
 8841SOL     OW26568   4.120   6.273   6.060
 8841SOL    HW126569   4.139   6.177   6.074
 8841SOL    HW226570   4.023   6.291   6.078
 8842SOL     OW26571   4.365   5.703   5.688
 8842SOL    HW126572   4.433   5.634   5.710
 8842SOL    HW226573   4.309   5.671   5.611
 8843SOL     OW26574   4.651   6.092   6.485
 8843SOL    HW126575   4.624   6.086   6.389
 8843SOL    HW226576   4.688   6.004   6.515
 8844SOL     OW26577   4.271   5.650   6.080
 8844SOL    HW126578   4.189   5.648   6.138
 8844SOL    HW226579   4.268   5.731   6.021
 8845SOL     OW26580   5.143   6.788   5.645
 8845SOL    HW126581   5.196   6.717   5.692
 8845SOL    HW226582   5.049   6.755   5.632
 8846SOL     OW26583   4.015   5.634   5.772
 8846SOL    HW126584   4.067   5.706   5.726
 8846SOL    HW226585   4.077   5.569   5.815
 8847SOL     OW26586   4.670   5.836   6.042
 8847SOL    HW126587   4.639   5.878   5.957
 8847SOL    HW226588   4.769   5.850   6.052
 8848SOL     OW26589   4.995   0.148   6.321
 8848SOL    HW126590   4.958   0.233   6.284
 8848SOL    HW226591   5.000   0.155   6.421
 8849SOL     OW26592   4.189   6.713   6.321
 8849SOL    HW126593   4.119   6.706   6.392
 8849SOL    HW226594   4.146   6.711   6.231
 8850SOL     OW26595   4.745   6.122   5.616
 8850SOL    HW126596   4.700   6.208   5.592
 8850SOL    HW226597   4.814   6.138   5.686
 8851SOL     OW26598   4.287   5.807   6.756
 8851SOL    HW126599   4.332   5.724   6.787
 8851SOL    HW226600   4.191   5.806   6.787
 8852SOL     OW26601   4.588   6.044   6.223
 8852SOL    HW126602   4.542   6.106   6.159
 8852SOL    HW226603   4.617   5.962   6.174
 8853SOL     OW26604   4.742   5.635   6.327
 8853SOL    HW126605   4.680   5.635   6.249
 8853SOL    HW226606   4.717   5.561   6.390
 8854SOL     OW26607   5.160   6.735   6.443
 8854SOL    HW126608   5.086   6.667   6.446
 8854SOL    HW226609   5.189   6.749   6.349
 8855SOL     OW26610   5.190   6.190   6.551
 8855SOL    HW126611   5.128   6.111   6.556
 8855SOL    HW226612   5.253   6.187   6.628
 8856SOL     OW26613   5.567   6.391   5.966
 8856SOL    HW126614   5.625   6.343   6.033
 8856SOL    HW226615   5.538   6.326   5.895
 8857SOL     OW26616   5.405   6.834   6.231
 8857SOL    HW126617   5.503   6.845   6.250
 8857SOL    HW226618   5.357   6.918   6.253
 8858SOL     OW26619   5.114   6.160   5.657
 8858SOL    HW126620   5.051   6.138   5.731
 8858SOL    HW226621   5.207   6.134   5.683
 8859SOL     OW26622   4.252   5.850   5.896
 8859SOL    HW126623   4.300   5.798   5.825
 8859SOL    HW226624   4.223   5.938   5.858
 8860SOL     OW26625   5.466   6.787   0.184
 8860SOL    HW126626   5.558   6.762   0.213
 8860SOL    HW226627   5.466   6.882   0.151
 8861SOL     OW26628   4.790   6.901   6.929
 8861SOL    HW126629   4.699   6.880   6.964
 8861SOL    HW226630   4.856   6.898   0.004
 8862SOL     OW26631   4.856   6.761   6.702
 8862SOL    HW126632   4.826   6.819   6.778
 8862SOL    HW226633   4.818   6.797   6.617
 8863SOL     OW26634   5.346   6.663   6.647
 8863SOL    HW126635   5.344   6.725   6.725
 8863SOL    HW226636   5.269   6.682   6.586
 8864SOL     OW26637   4.432   6.638   5.955
 8864SOL    HW126638   4.419   6.629   6.053
 8864SOL    HW226639   4.514   6.587   5.927
 8865SOL     OW26640   4.148   6.399   6.847
 8865SOL    HW126641   4.208   6.423   6.924
 8865SOL    HW226642   4.113   6.306   6.860
 8866SOL     OW26643   4.992   5.974   6.856
 8866SOL    HW126644   5.020   6.048   6.917
 8866SOL    HW226645   4.898   5.988   6.827
 8867SOL     OW26646   4.063   6.704   6.077
 8867SOL    HW126647   4.107   6.782   6.034
 8867SOL    HW226648   4.058   6.628   6.012
 8868SOL     OW26649   4.271   6.132   6.449
 8868SOL    HW126650   4.284   6.191   6.369
 8868SOL    HW226651   4.342   6.150   6.516
 8869SOL     OW26652   5.301   6.208   6.067
 8869SOL    HW126653   5.252   6.253   6.142
 8869SOL    HW226654   5.351   6.276   6.014
 8870SOL     OW26655   4.310   6.453   6.623
 8870SOL    HW126656   4.339   6.548   6.609
 8870SOL    HW226657   4.248   6.447   6.701
 8871SOL     OW26658   5.076   6.437   6.604
 8871SOL    HW126659   4.985   6.431   6.565
 8871SOL    HW226660   5.123   6.349   6.593
 8872SOL     OW26661   4.921   6.113   5.850
 8872SOL    HW126662   4.934   6.030   5.905
 8872SOL    HW226663   4.877   6.183   5.906
 8873SOL     OW26664   4.027   5.786   6.834
 8873SOL    HW126665   3.987   5.817   6.921
 8873SOL    HW226666   4.014   5.688   6.825
 8874SOL     OW26667   3.771   6.900   6.877
 8874SOL    HW126668   3.816   6.836   6.941
 8874SOL    HW226669   3.799   6.993   6.898
 8875SOL     OW26670   4.449   6.212   6.642
 8875SOL    HW126671   4.527   6.192   6.582
 8875SOL    HW226672   4.417   6.304   6.624
 8876SOL     OW26673   4.030   5.648   6.213
 8876SOL    HW126674   4.005   5.743   6.231
 8876SOL    HW226675   4.041   5.598   6.299
 8877SOL     OW26676   5.351   5.967   5.947
 8877SOL    HW126677   5.376   5.894   6.010
 8877SOL    HW226678   5.322   6.047   6.000
 8878SOL     OW26679   4.747   6.340   6.550
 8878SOL    HW126680   4.745   6.361   6.648
 8878SOL    HW226681   4.721   6.245   6.535
 8879SOL     OW26682   5.251   5.855   5.716
 8879SOL    HW126683   5.182   5.787   5.741
 8879SOL    HW226684   5.288   5.897   5.799
 8880SOL     OW26685   5.011   6.410   5.609
 8880SOL    HW126686   5.053   6.319   5.620
 8880SOL    HW226687   5.043   6.451   5.523
 8881SOL     OW26688   4.035   6.391   6.529
 8881SOL    HW126689   4.131   6.417   6.517
 8881SOL    HW226690   4.030   6.296   6.559
 8882SOL     OW26691   4.055   6.115   6.604
 8882SOL    HW126692   4.015   6.025   6.590
 8882SOL    HW226693   4.136   6.125   6.545
 8883SOL     OW26694   4.864   5.827   0.054
 8883SOL    HW126695   4.932   5.841   0.126
 8883SOL    HW226696   4.898   5.863   6.967
 8884SOL     OW26697   3.747   6.895   5.768
 8884SOL    HW126698   3.658   6.923   5.730
 8884SOL    HW226699   3.737   6.806   5.813
 8885SOL     OW26700   4.713   6.375   6.826
 8885SOL    HW126701   4.785   6.335   6.882
 8885SOL    HW226702   4.623   6.345   6.859
 8886SOL     OW26703   3.775   6.141   6.714
 8886SOL    HW126704   3.828   6.108   6.636
 8886SOL    HW226705   3.837   6.176   6.784
 8887SOL     OW26706   4.542   6.158   5.947
 8887SOL    HW126707   4.551   6.078   5.887
 8887SOL    HW226708   4.463   6.212   5.918
 8888SOL     OW26709   5.372   6.194   6.753
 8888SOL    HW126710   5.356   6.136   6.833
 8888SOL    HW226711   5.466   6.184   6.722
 8889SOL     OW26712   4.396   6.049   6.850
 8889SOL    HW126713   4.361   5.961   6.818
 8889SOL    HW226714   4.411   6.109   6.771
 8890SOL     OW26715   4.182   6.081   5.771
 8890SOL    HW126716   4.247   6.152   5.797
 8890SOL    HW226717   4.092   6.121   5.757
 8891SOL     OW26718   3.900   6.724   0.043
 8891SOL    HW126719   3.879   6.673   0.126
 8891SOL    HW226720   3.903   6.660   6.965
 8892SOL     OW26721   5.039   6.600   6.820
 8892SOL    HW126722   5.074   6.540   6.748
 8892SOL    HW226723   4.971   6.662   6.780
 8893SOL     OW26724   5.041   6.447   5.882
 8893SOL    HW126725   4.969   6.417   5.944
 8893SOL    HW226726   5.013   6.430   5.788
 8894SOL     OW26727   3.806   6.859   6.605
 8894SOL    HW126728   3.787   6.868   6.703
 8894SOL    HW226729   3.737   6.800   6.563
 8895SOL     OW26730   5.443   5.736   6.085
 8895SOL    HW126731   5.519   5.726   6.020
 8895SOL    HW226732   5.425   5.649   6.130
 8896SOL     OW26733   5.006   6.508   6.255
 8896SOL    HW126734   5.080   6.443   6.271
 8896SOL    HW226735   5.041   6.586   6.203
 8897SOL     OW26736   4.537   6.841   0.017
 8897SOL    HW126737   4.534   6.855   0.116
 8897SOL    HW226738   4.452   6.874   6.976
 8898SOL     OW26739   5.566   5.760   6.556
 8898SOL    HW126740   5.600   5.669   6.534
 8898SOL    HW226741   5.474   5.771   6.517
 8899SOL     OW26742   3.979   5.900   6.301
 8899SOL    HW126743   3.890   5.937   6.273
 8899SOL    HW226744   3.982   5.893   6.401
 8900SOL     OW26745   4.972   0.210   5.595
 8900SOL    HW126746   4.977   0.144   5.670
 8900SOL    HW226747   4.880   0.211   5.557
 8901SOL     OW26748   4.514   6.583   6.940
 8901SOL    HW126749   4.569   6.560   6.860
 8901SOL    HW226750   4.532   6.677   6.967
 8902SOL     OW26751   4.645   6.495   5.866
 8902SOL    HW126752   4.711   6.536   5.803
 8902SOL    HW226753   4.690   6.425   5.922
 8903SOL     OW26754   4.122   6.886   6.996
 8903SOL    HW126755   4.104   6.962   0.059
 8903SOL    HW226756   4.053   6.816   0.008
 8904SOL     OW26757   5.343   6.829   6.855
 8904SOL    HW126758   5.424   6.848   6.910
 8904SOL    HW226759   5.263   6.819   6.915
 8905SOL     OW26760   4.786   6.694   6.310
 8905SOL    HW126761   4.707   6.645   6.346
 8905SOL    HW226762   4.853   6.628   6.275
 8906SOL     OW26763   4.744   5.823   6.542
 8906SOL    HW126764   4.742   5.775   6.454
 8906SOL    HW226765   4.746   5.757   6.617
 8907SOL     OW26766   5.419   6.009   6.948
 8907SOL    HW126767   5.492   6.014   0.016
 8907SOL    HW226768   5.421   5.920   6.903
 8908SOL     OW26769   4.396   5.776   0.081
 8908SOL    HW126770   4.486   5.751   0.045
 8908SOL    HW226771   4.406   5.855   0.141
 8909SOL     OW26772   3.806   5.914   5.615
 8909SOL    HW126773   3.714   5.890   5.584
 8909SOL    HW226774   3.837   5.995   5.566
 8910SOL     OW26775   3.787   5.741   5.888
 8910SOL    HW126776   3.771   5.826   5.837
 8910SOL    HW226777   3.875   5.703   5.862
 8911SOL     OW26778   5.194   6.857   0.319
 8911SOL    HW126779   5.142   6.774   0.335
 8911SOL    HW226780   5.275   6.835   0.264
 8912SOL     OW26781   5.421   6.461   6.828
 8912SOL    HW126782   5.388   6.370   6.801
 8912SOL    HW226783   5.388   6.529   6.762
 8913SOL     OW26784   4.943   5.903   6.045
 8913SOL    HW126785   5.007   5.826   6.036
 8913SOL    HW226786   4.970   5.958   6.124
 8914SOL     OW26787   4.308   6.324   6.255
 8914SOL    HW126788   4.351   6.414   6.245
 8914SOL    HW226789   4.240   6.311   6.184
 8915SOL     OW26790   5.509   6.507   0.082
 8915SOL    HW126791   5.474   6.596   0.112
 8915SOL    HW226792   5.474   6.487   6.990
 8916SOL     OW26793   4.592   6.550   6.444
 8916SOL    HW126794   4.645   6.473   6.479
 8916SOL    HW226795   4.557   6.605   6.520
 8917SOL     OW26796   4.816   6.587   5.677
 8917SOL    HW126797   4.776   6.634   5.598
 8917SOL    HW226798   4.883   6.520   5.644
 8918SOL     OW26799   3.819   6.823   6.260
 8918SOL    HW126800   3.829   6.759   6.336
 8918SOL    HW226801   3.880   6.797   6.186
 8919SOL     OW26802   5.535   5.761   6.835
 8919SOL    HW126803   5.511   5.664   6.836
 8919SOL    HW226804   5.551   5.790   6.740
 8920SOL     OW26805   4.154   6.014   6.113
 8920SOL    HW126806   4.188   5.944   6.050
 8920SOL    HW226807   4.100   5.970   6.184
 8921SOL     OW26808   5.372   0.052   6.715
 8921SOL    HW126809   5.325   0.044   6.626
 8921SOL    HW226810   5.366   6.965   6.763
 8922SOL     OW26811   4.041   6.136   6.878
 8922SOL    HW126812   4.112   6.085   6.925
 8922SOL    HW226813   4.051   6.124   6.779
 8923SOL     OW26814   5.158   5.822   6.702
 8923SOL    HW126815   5.190   5.739   6.748
 8923SOL    HW226816   5.104   5.876   6.767
 8924SOL     OW26817   4.741   5.604   6.712
 8924SOL    HW126818   4.678   5.538   6.672
 8924SOL    HW226819   4.831   5.562   6.722
 8925SOL     OW26820   4.481   6.908   5.853
 8925SOL    HW126821   4.460   6.812   5.873
 8925SOL    HW226822   4.519   6.951   5.935
 8926SOL     OW26823   5.078   5.636   5.755
 8926SOL    HW126824   5.121   5.568   5.696
 8926SOL    HW226825   4.985   5.607   5.778
 8927SOL     OW26826   5.015   6.049   6.266
 8927SOL    HW126827   4.962   6.134   6.268
 8927SOL    HW226828   5.012   6.006   6.356
 8928SOL     OW26829   5.311   5.791   6.471
 8928SOL    HW126830   5.250   5.810   6.548
 8928SOL    HW226831   5.312   5.870   6.409
 8929SOL     OW26832   3.760   6.646   5.897
 8929SOL    HW126833   3.858   6.652   5.875
 8929SOL    HW226834   3.737   6.552   5.919
 8930SOL     OW26835   5.806   0.643   0.137
 8930SOL    HW126836   5.712   0.622   0.163
 8930SOL    HW226837   5.818   0.624   0.039
 8931SOL     OW26838   5.808   0.303   0.996
 8931SOL    HW126839   5.849   0.265   1.080
 8931SOL    HW226840   5.725   0.252   0.973
 8932SOL     OW26841   5.591   0.390   0.630
 8932SOL    HW126842   5.506   0.416   0.675
 8932SOL    HW226843   5.574   0.314   0.568
 8933SOL     OW26844   6.155   1.297   1.186
 8933SOL    HW126845   6.065   1.294   1.142
 8933SOL    HW226846   6.172   1.390   1.219
 8934SOL     OW26847   0.066   1.547   0.762
 8934SOL    HW126848   0.101   1.454   0.774
 8934SOL    HW226849   0.030   1.556   0.669
 8935SOL     OW26850   6.693   0.719   0.689
 8935SOL    HW126851   6.760   0.793   0.678
 8935SOL    HW226852   6.658   0.720   0.782
 8936SOL     OW26853   6.330   1.140   1.043
 8936SOL    HW126854   6.262   1.176   1.107
 8936SOL    HW226855   6.374   1.217   0.995
 8937SOL     OW26856   6.459   0.766   1.823
 8937SOL    HW126857   6.442   0.833   1.895
 8937SOL    HW226858   6.482   0.814   1.738
 8938SOL     OW26859   6.269   0.997   0.650
 8938SOL    HW126860   6.340   0.988   0.719
 8938SOL    HW226861   6.195   1.055   0.686
 8939SOL     OW26862   6.293   1.150   1.815
 8939SOL    HW126863   6.342   1.230   1.847
 8939SOL    HW226864   6.207   1.179   1.772
 8940SOL     OW26865   5.912   1.423   1.066
 8940SOL    HW126866   5.836   1.378   1.019
 8940SOL    HW226867   5.965   1.476   0.999
 8941SOL     OW26868   6.030   0.399   1.484
 8941SOL    HW126869   6.115   0.347   1.490
 8941SOL    HW226870   5.952   0.335   1.489
 8942SOL     OW26871   5.805   1.723   0.471
 8942SOL    HW126872   5.823   1.802   0.529
 8942SOL    HW226873   5.890   1.696   0.425
 8943SOL     OW26874   6.717   1.346   1.705
 8943SOL    HW126875   6.812   1.314   1.707
 8943SOL    HW226876   6.656   1.267   1.706
 8944SOL     OW26877   5.800   1.448   0.532
 8944SOL    HW126878   5.789   1.547   0.542
 8944SOL    HW226879   5.749   1.401   0.605
 8945SOL     OW26880   5.854   1.091   0.900
 8945SOL    HW126881   5.850   0.996   0.932
 8945SOL    HW226882   5.792   1.147   0.954
 8946SOL     OW26883   6.183   1.798   1.425
 8946SOL    HW126884   6.101   1.773   1.476
 8946SOL    HW226885   6.214   1.889   1.454
 8947SOL     OW26886   6.173   0.968   0.146
 8947SOL    HW126887   6.229   0.991   0.067
 8947SOL    HW226888   6.209   1.013   0.227
 8948SOL     OW26889   5.702   0.654   0.562
 8948SOL    HW126890   5.673   0.561   0.582
 8948SOL    HW226891   5.696   0.709   0.646
 8949SOL     OW26892   5.598   1.584   0.146
 8949SOL    HW126893   5.529   1.514   0.126
 8949SOL    HW226894   5.576   1.628   0.233
 8950SOL     OW26895   5.708   0.749   1.582
 8950SOL    HW126896   5.803   0.777   1.585
 8950SOL    HW226897   5.649   0.830   1.583
 8951SOL     OW26898   6.197   1.389   0.737
 8951SOL    HW126899   6.151   1.301   0.750
 8951SOL    HW226900   6.188   1.418   0.641
 8952SOL     OW26901   6.840   1.222   1.432
 8952SOL    HW126902   6.877   1.152   1.371
 8952SOL    HW226903   6.902   1.236   1.509
 8953SOL     OW26904   6.409   0.028   0.520
 8953SOL    HW126905   6.449   0.118   0.502
 8953SOL    HW226906   6.309   0.036   0.523
 8954SOL     OW26907   5.776   0.961   1.278
 8954SOL    HW126908   5.865   0.919   1.263
 8954SOL    HW226909   5.707   0.917   1.220
 8955SOL     OW26910   6.780   1.814   1.616
 8955SOL    HW126911   6.766   1.882   1.545
 8955SOL    HW226912   6.779   1.722   1.576
 8956SOL     OW26913   5.906   0.270   1.790
 8956SOL    HW126914   5.968   0.337   1.831
 8956SOL    HW226915   5.819   0.272   1.840
 8957SOL     OW26916   6.184   0.716   0.267
 8957SOL    HW126917   6.189   0.806   0.224
 8957SOL    HW226918   6.118   0.719   0.342
 8958SOL     OW26919   6.850   0.371   0.889
 8958SOL    HW126920   6.754   0.355   0.913
 8958SOL    HW226921   6.909   0.331   0.960
 8959SOL     OW26922   6.387   0.614   1.455
 8959SOL    HW126923   6.357   0.589   1.547
 8959SOL    HW226924   6.347   0.551   1.389
 8960SOL     OW26925   6.943   0.467   1.676
 8960SOL    HW126926   6.905   0.546   1.723
 8960SOL    HW226927   0.043   0.469   1.682
 8961SOL     OW26928   6.543   0.886   1.583
 8961SOL    HW126929   6.599   0.812   1.545
 8961SOL    HW226930   6.490   0.928   1.510
 8962SOL     OW26931   6.592   0.411   1.231
 8962SOL    HW126932   6.505   0.430   1.276
 8962SOL    HW226933   6.575   0.367   1.143
 8963SOL     OW26934   6.637   0.701   0.425
 8963SOL    HW126935   6.657   0.705   0.523
 8963SOL    HW226936   6.550   0.656   0.410
 8964SOL     OW26937   5.675   0.824   0.779
 8964SOL    HW126938   5.761   0.813   0.830
 8964SOL    HW226939   5.625   0.903   0.814
 8965SOL     OW26940   5.714   1.872   1.588
 8965SOL    HW126941   5.719   1.844   1.684
 8965SOL    HW226942   5.630   1.838   1.547
 8966SOL     OW26943   6.469   0.363   0.211
 8966SOL    HW126944   6.465   0.430   0.137
 8966SOL    HW226945   6.473   0.271   0.173
 8967SOL     OW26946   6.927   1.136   0.527
 8967SOL    HW126947   6.987   1.107   0.453
 8967SOL    HW226948   6.876   1.217   0.499
 8968SOL     OW26949   6.091   0.191   0.911
 8968SOL    HW126950   6.130   0.222   0.998
 8968SOL    HW226951   6.115   0.256   0.839
 8969SOL     OW26952   6.571   1.441   0.474
 8969SOL    HW126953   6.537   1.519   0.423
 8969SOL    HW226954   6.548   1.452   0.571
 8970SOL     OW26955   5.942   1.814   0.870
 8970SOL    HW126956   5.986   1.724   0.876
 8970SOL    HW226957   6.009   1.885   0.889
 8971SOL     OW26958   6.797   1.558   1.504
 8971SOL    HW126959   6.802   1.482   1.569
 8971SOL    HW226960   6.751   1.527   1.421
 8972SOL     OW26961   5.900   0.960   0.228
 8972SOL    HW126962   5.993   0.973   0.194
 8972SOL    HW226963   5.871   0.866   0.209
 8973SOL     OW26964   6.053   1.263   1.730
 8973SOL    HW126965   6.027   1.270   1.634
 8973SOL    HW226966   5.971   1.263   1.787
 8974SOL     OW26967   6.682   1.764   0.235
 8974SOL    HW126968   6.616   1.710   0.287
 8974SOL    HW226969   6.710   1.712   0.154
 8975SOL     OW26970   5.778   0.273   1.512
 8975SOL    HW126971   5.719   0.352   1.497
 8975SOL    HW226972   5.800   0.265   1.609
 8976SOL     OW26973   0.232   1.383   0.044
 8976SOL    HW126974   0.163   1.431   0.097
 8976SOL    HW226975   0.210   1.286   0.040
 8977SOL     OW26976   6.067   1.700   0.376
 8977SOL    HW126977   6.097   1.784   0.421
 8977SOL    HW226978   6.128   1.678   0.300
 8978SOL     OW26979   5.845   1.792   1.226
 8978SOL    HW126980   5.896   1.719   1.272
 8978SOL    HW226981   5.826   1.764   1.132
 8979SOL     OW26982   6.524   1.701   0.896
 8979SOL    HW126983   6.610   1.653   0.916
 8979SOL    HW226984   6.476   1.652   0.824
 8980SOL     OW26985   5.983   0.686   0.470
 8980SOL    HW126986   6.003   0.589   0.487
 8980SOL    HW226987   5.887   0.704   0.488
 8981SOL     OW26988   6.217   0.123   0.109
 8981SOL    HW126989   6.316   0.108   0.118
 8981SOL    HW226990   6.194   0.137   0.013
 8982SOL     OW26991   6.349   0.276   1.767
 8982SOL    HW126992   6.435   0.226   1.762
 8982SOL    HW226993   6.292   0.236   1.839
 8983SOL     OW26994   6.460   1.518   1.192
 8983SOL    HW126995   6.440   1.482   1.100
 8983SOL    HW226996   6.532   1.463   1.234
 8984SOL     OW26997   6.402   1.390   0.942
 8984SOL    HW126998   6.492   1.377   0.901
 8984SOL    HW226999   6.332   1.395   0.870
 8985SOL     OW27000   6.508   0.512   0.898
 8985SOL    HW127001   6.484   0.507   0.801
 8985SOL    HW227002   6.537   0.422   0.929
 8986SOL     OW27003   6.142   0.066   0.496
 8986SOL    HW127004   6.060   0.055   0.553
 8986SOL    HW227005   6.128   0.141   0.432
 8987SOL     OW27006   5.904   0.071   0.196
 8987SOL    HW127007   5.952   0.158   0.207
 8987SOL    HW227008   5.934   0.007   0.267
 8988SOL     OW27009   6.540   0.261   0.457
 8988SOL    HW127010   6.503   0.300   0.373
 8988SOL    HW227011   6.639   0.274   0.460
 8989SOL     OW27012   6.656   0.669   1.460
 8989SOL    HW127013   6.562   0.637   1.462
 8989SOL    HW227014   6.718   0.590   1.464
 8990SOL     OW27015   6.781   1.575   0.802
 8990SOL    HW127016   6.798   1.638   0.726
 8990SOL    HW227017   6.866   1.556   0.850
 8991SOL     OW27018   6.057   1.152   0.732
 8991SOL    HW127019   5.986   1.131   0.799
 8991SOL    HW227020   6.019   1.144   0.640
 8992SOL     OW27021   6.839   1.794   0.604
 8992SOL    HW127022   6.865   1.856   0.529
 8992SOL    HW227023   6.769   1.838   0.660
 8993SOL     OW27024   6.677   0.580   0.023
 8993SOL    HW127025   6.578   0.595   0.034
 8993SOL    HW227026   6.717   0.562   0.113
 8994SOL     OW27027   5.677   0.552   1.397
 8994SOL    HW127028   5.770   0.553   1.361
 8994SOL    HW227029   5.667   0.626   1.464
 8995SOL     OW27030   6.157   0.244   1.176
 8995SOL    HW127031   6.210   0.171   1.219
 8995SOL    HW227032   6.062   0.238   1.205
 8996SOL     OW27033   6.450   0.458   0.638
 8996SOL    HW127034   6.409   0.525   0.576
 8996SOL    HW227035   6.477   0.377   0.587
 8997SOL     OW27036   6.526   0.032   0.776
 8997SOL    HW127037   6.474   0.020   0.691
 8997SOL    HW227038   6.611   6.980   0.770
 8998SOL     OW27039   6.059   1.424   0.150
 8998SOL    HW127040   5.999   1.374   0.213
 8998SOL    HW227041   6.020   1.422   0.058
 8999SOL     OW27042   6.097   0.262   0.306
 8999SOL    HW127043   6.151   0.209   0.241
 8999SOL    HW227044   6.078   0.352   0.267
 9000SOL     OW27045   6.628   1.348   1.332
 9000SOL    HW127046   6.545   1.321   1.381
 9000SOL    HW227047   6.707   1.304   1.374
 9001SOL     OW27048   6.727   1.226   1.101
 9001SOL    HW127049   6.668   1.256   1.176
 9001SOL    HW227050   6.686   1.252   1.014
 9002SOL     OW27051   6.475   0.148   1.385
 9002SOL    HW127052   6.491   0.113   1.293
 9002SOL    HW227053   6.563   0.169   1.428
 9003SOL     OW27054   6.566   1.113   1.728
 9003SOL    HW127055   6.471   1.135   1.753
 9003SOL    HW227056   6.566   1.033   1.667
 9004SOL     OW27057   6.298   1.057   0.375
 9004SOL    HW127058   6.280   1.041   0.472
 9004SOL    HW227059   6.377   1.003   0.347
 9005SOL     OW27060   6.009   0.817   1.254
 9005SOL    HW127061   6.082   0.828   1.321
 9005SOL    HW227062   5.970   0.725   1.263
 9006SOL     OW27063   6.857   0.363   1.283
 9006SOL    HW127064   6.914   0.442   1.308
 9006SOL    HW227065   6.766   0.395   1.259
 9007SOL     OW27066   5.661   1.572   1.353
 9007SOL    HW127067   5.625   1.642   1.291
 9007SOL    HW227068   5.760   1.570   1.347
 9008SOL     OW27069   5.952   1.120   0.484
 9008SOL    HW127070   5.931   1.197   0.424
 9008SOL    HW227071   5.949   1.035   0.432
 9009SOL     OW27072   6.139   0.547   0.861
 9009SOL    HW127073   6.153   0.606   0.782
 9009SOL    HW227074   6.210   0.566   0.930
 9010SOL     OW27075   6.825   1.365   0.417
 9010SOL    HW127076   6.877   1.444   0.449
 9010SOL    HW227077   6.727   1.382   0.432
 9011SOL     OW27078   6.851   1.477   1.140
 9011SOL    HW127079   6.930   1.472   1.202
 9011SOL    HW227080   6.809   1.387   1.131
 9012SOL     OW27081   5.934   1.530   1.310
 9012SOL    HW127082   5.918   1.485   1.222
 9012SOL    HW227083   6.032   1.543   1.322
 9013SOL     OW27084   6.004   0.744   1.601
 9013SOL    HW127085   6.067   0.793   1.541
 9013SOL    HW227086   6.041   0.654   1.622
 9014SOL     OW27087   6.582   0.131   1.750
 9014SOL    HW127088   6.624   0.194   1.685
 9014SOL    HW227089   6.596   0.037   1.720
 9015SOL     OW27090   6.049   0.039   1.758
 9015SOL    HW127091   5.984   6.966   1.738
 9015SOL    HW227092   6.000   0.125   1.768
 9016SOL     OW27093   6.170   0.873   1.033
 9016SOL    HW127094   6.205   0.967   1.029
 9016SOL    HW227095   6.109   0.863   1.112
 9017SOL     OW27096   6.951   0.845   1.036
 9017SOL    HW127097   6.860   0.836   0.994
 9017SOL    HW227098   6.986   0.754   1.059
 9018SOL     OW27099   6.770   0.520   0.269
 9018SOL    HW127100   6.793   0.443   0.328
 9018SOL    HW227101   6.731   0.593   0.325
 9019SOL     OW27102   5.897   0.209   1.247
 9019SOL    HW127103   5.832   0.218   1.324
 9019SOL    HW227104   5.885   0.119   1.205
 9020SOL     OW27105   5.637   1.310   1.276
 9020SOL    HW127106   5.669   1.249   1.348
 9020SOL    HW227107   5.640   1.404   1.308
 9021SOL     OW27108   6.315   0.638   1.057
 9021SOL    HW127109   6.388   0.616   0.992
 9021SOL    HW227110   6.277   0.727   1.034
 9022SOL     OW27111   5.905   0.060   0.627
 9022SOL    HW127112   5.883   0.153   0.655
 9022SOL    HW227113   5.856   6.995   0.685
 9023SOL     OW27114   0.189   0.408   0.369
 9023SOL    HW127115   0.246   0.346   0.423
 9023SOL    HW227116   0.174   0.493   0.419
 9024SOL     OW27117   6.610   0.757   0.959
 9024SOL    HW127118   6.605   0.777   1.057
 9024SOL    HW227119   6.583   0.662   0.943
 9025SOL     OW27120   6.555   1.566   1.706
 9025SOL    HW127121   6.542   1.610   1.618
 9025SOL    HW227122   6.607   1.482   1.695
 9026SOL     OW27123   5.939   0.917   1.805
 9026SOL    HW127124   6.018   0.940   1.860
 9026SOL    HW227125   5.965   0.851   1.734
 9027SOL     OW27126   6.886   0.839   0.033
 9027SOL    HW127127   6.943   0.757   0.022
 9027SOL    HW227128   6.904   0.903   6.957
 9028SOL     OW27129   6.650   1.334   0.857
 9028SOL    HW127130   6.654   1.258   0.792
 9028SOL    HW227131   6.701   1.411   0.821
 9029SOL     OW27132   5.897   0.809   0.943
 9029SOL    HW127133   5.993   0.836   0.936
 9029SOL    HW227134   5.891   0.714   0.975
 9030SOL     OW27135   5.921   0.539   1.012
 9030SOL    HW127136   5.878   0.450   1.000
 9030SOL    HW227137   6.002   0.545   0.954
 9031SOL     OW27138   6.689   0.384   1.679
 9031SOL    HW127139   6.645   0.438   1.751
 9031SOL    HW227140   6.788   0.400   1.681
 9032SOL     OW27141   6.719   0.218   1.476
 9032SOL    HW127142   6.711   0.286   1.549
 9032SOL    HW227143   6.768   0.258   1.398
 9033SOL     OW27144   5.680   1.783   0.944
 9033SOL    HW127145   5.642   1.703   0.898
 9033SOL    HW227146   5.773   1.800   0.911
 9034SOL     OW27147   6.079   1.576   0.905
 9034SOL    HW127148   6.149   1.642   0.932
 9034SOL    HW227149   6.119   1.508   0.843
 9035SOL     OW27150   6.564   0.792   1.225
 9035SOL    HW127151   6.622   0.767   1.302
 9035SOL    HW227152   6.474   0.750   1.236
 9036SOL     OW27153   5.621   0.549   1.120
 9036SOL    HW127154   5.699   0.533   1.060
 9036SOL    HW227155   5.653   0.551   1.215
 9037SOL     OW27156   5.771   0.530   1.729
 9037SOL    HW127157   5.849   0.496   1.677
 9037SOL    HW227158   5.730   0.608   1.682
 9038SOL     OW27159   6.401   0.577   0.377
 9038SOL    HW127160   6.413   0.496   0.318
 9038SOL    HW227161   6.322   0.629   0.346
 9039SOL     OW27162   5.825   1.547   1.726
 9039SOL    HW127163   5.804   1.621   1.789
 9039SOL    HW227164   5.832   1.461   1.776
 9040SOL     OW27165   6.298   0.462   1.256
 9040SOL    HW127166   6.242   0.383   1.232
 9040SOL    HW227167   6.297   0.528   1.182
 9041SOL     OW27168   6.499   1.687   1.467
 9041SOL    HW127169   6.481   1.637   1.382
 9041SOL    HW227170   6.495   1.785   1.449
 9042SOL     OW27171   6.040   0.499   0.182
 9042SOL    HW127172   6.106   0.570   0.209
 9042SOL    HW227173   5.948   0.537   0.184
 9043SOL     OW27174   5.727   1.138   1.475
 9043SOL    HW127175   5.729   1.093   1.565
 9043SOL    HW227176   5.747   1.070   1.404
 9044SOL     OW27177   6.895   1.045   1.223
 9044SOL    HW127178   6.919   0.971   1.160
 9044SOL    HW227179   6.832   1.108   1.177
 9045SOL     OW27180   6.886   0.864   0.311
 9045SOL    HW127181   6.809   0.822   0.359
 9045SOL    HW227182   6.876   0.847   0.212
 9046SOL     OW27183   6.846   1.748   1.117
 9046SOL    HW127184   6.924   1.765   1.058
 9046SOL    HW227185   6.835   1.649   1.130
 9047SOL     OW27186   5.671   1.266   1.010
 9047SOL    HW127187   5.655   1.280   1.108
 9047SOL    HW227188   5.600   1.207   0.972
 9048SOL     OW27189   6.266   1.674   1.739
 9048SOL    HW127190   6.205   1.752   1.729
 9048SOL    HW227191   6.342   1.682   1.674
 9049SOL     OW27192   6.498   0.106   0.129
 9049SOL    HW127193   6.570   0.087   0.062
 9049SOL    HW227194   6.491   0.030   0.193
 9050SOL     OW27195   6.974   1.580   0.493
 9050SOL    HW127196   0.061   1.613   0.455
 9050SOL    HW227197   6.920   1.657   0.524
 9051SOL     OW27198   5.731   1.787   1.846
 9051SOL    HW127199   5.674   1.719   1.891
 9051SOL    HW227200   5.780   1.841   1.915
 9052SOL     OW27201   6.871   0.917   0.664
 9052SOL    HW127202   6.957   0.867   0.677
 9052SOL    HW227203   6.888   1.000   0.612
 9053SOL     OW27204   6.383   1.276   1.426
 9053SOL    HW127205   6.353   1.322   1.510
 9053SOL    HW227206   6.314   1.291   1.354
 9054SOL     OW27207   6.251   1.609   0.196
 9054SOL    HW127208   6.307   1.632   0.116
 9054SOL    HW227209   6.194   1.530   0.175
 9055SOL     OW27210   5.844   0.313   0.715
 9055SOL    HW127211   5.754   0.347   0.688
 9055SOL    HW227212   5.851   0.312   0.814
 9056SOL     OW27213   6.743   1.625   0.005
 9056SOL    HW127214   6.827   1.591   0.048
 9056SOL    HW227215   6.732   1.582   6.915
 9057SOL     OW27216   6.412   1.009   1.379
 9057SOL    HW127217   6.458   0.996   1.291
 9057SOL    HW227218   6.404   1.107   1.399
 9058SOL     OW27219   6.504   0.908   0.290
 9058SOL    HW127220   6.556   0.937   0.210
 9058SOL    HW227221   6.556   0.841   0.342
 9059SOL     OW27222   5.951   1.303   1.487
 9059SOL    HW127223   5.942   1.383   1.428
 9059SOL    HW227224   5.870   1.244   1.475
 9060SOL     OW27225   6.641   1.107   0.712
 9060SOL    HW127226   6.567   1.055   0.754
 9060SOL    HW227227   6.708   1.044   0.672
 9061SOL     OW27228   6.598   0.254   0.955
 9061SOL    HW127229   6.569   0.208   0.870
 9061SOL    HW227230   6.593   0.189   1.031
 9062SOL     OW27231   6.198   1.478   0.485
 9062SOL    HW127232   6.238   1.427   0.409
 9062SOL    HW227233   6.135   1.547   0.448
 9063SOL     OW27234   5.864   1.319   0.309
 9063SOL    HW127235   5.780   1.308   0.255
 9063SOL    HW227236   5.844   1.373   0.391
 9064SOL     OW27237   5.701   1.034   1.728
 9064SOL    HW127238   5.619   1.007   1.779
 9064SOL    HW227239   5.781   0.989   1.767
 9065SOL     OW27240   6.254   0.239   1.510
 9065SOL    HW127241   6.334   0.211   1.456
 9065SOL    HW227242   6.284   0.270   1.600
 9066SOL     OW27243   5.697   0.340   0.034
 9066SOL    HW127244   5.643   0.281   6.975
 9066SOL    HW227245   5.738   0.414   6.980
 9067SOL     OW27246   5.656   0.167   0.306
 9067SOL    HW127247   5.644   0.251   0.252
 9067SOL    HW227248   5.737   0.118   0.272
 9068SOL     OW27249   6.211   0.829   1.434
 9068SOL    HW127250   6.267   0.910   1.419
 9068SOL    HW227251   6.271   0.749   1.445
 9069SOL     OW27252   6.310   0.557   1.705
 9069SOL    HW127253   6.352   0.627   1.763
 9069SOL    HW227254   6.326   0.467   1.743
 9070SOL     OW27255   0.002   1.263   1.650
 9070SOL    HW127256   7.000   1.198   1.726
 9070SOL    HW227257   0.080   1.243   1.591
 9071SOL     OW27258   5.958   1.738   1.567
 9071SOL    HW127259   5.873   1.790   1.552
 9071SOL    HW227260   5.936   1.650   1.609
 9072SOL     OW27261   6.817   0.307   0.446
 9072SOL    HW127262   6.887   0.256   0.396
 9072SOL    HW227263   6.859   0.358   0.521
 9073SOL     OW27264   6.173   0.736   0.666
 9073SOL    HW127265   6.214   0.827   0.657
 9073SOL    HW227266   6.103   0.724   0.596
 9074SOL     OW27267   6.448   1.383   0.030
 9074SOL    HW127268   6.411   1.348   0.116
 9074SOL    HW227269   6.460   1.482   0.037
 9075SOL     OW27270   6.251   1.785   0.943
 9075SOL    HW127271   6.227   1.880   0.921
 9075SOL    HW227272   6.350   1.772   0.933
 9076SOL     OW27273   6.453   0.970   0.857
 9076SOL    HW127274   6.506   0.893   0.893
 9076SOL    HW227275   6.412   1.020   0.933
 9077SOL     OW27276   6.658   0.979   0.078
 9077SOL    HW127277   6.692   1.072   0.066
 9077SOL    HW227278   6.733   0.914   0.066
 9078SOL     OW27279   5.817   1.299   1.857
 9078SOL    HW127280   5.750   1.232   1.822
 9078SOL    HW227281   5.802   1.312   1.955
 9079SOL     OW27282   5.668   1.234   0.665
 9079SOL    HW127283   5.687   1.183   0.749
 9079SOL    HW227284   5.716   1.190   0.588
 9080SOL     OW27285   6.262   1.411   1.628
 9080SOL    HW127286   6.185   1.360   1.665
 9080SOL    HW227287   6.265   1.501   1.670
 9081SOL     OW27288   6.017   0.426   0.525
 9081SOL    HW127289   6.048   0.355   0.463
 9081SOL    HW227290   5.962   0.385   0.598
 9082SOL     OW27291   5.920   0.558   1.288
 9082SOL    HW127292   5.977   0.501   1.346
 9082SOL    HW227293   5.937   0.536   1.192
 9083SOL     OW27294   6.411   1.581   0.680
 9083SOL    HW127295   6.401   1.637   0.599
 9083SOL    HW227296   6.335   1.516   0.686
 9084SOL     OW27297   6.974   0.218   1.080
 9084SOL    HW127298   0.006   0.134   1.124
 9084SOL    HW227299   6.930   0.277   1.147
 9085SOL     OW27300   6.560   0.057   1.135
 9085SOL    HW127301   6.505   6.995   1.080
 9085SOL    HW227302   6.613   0.004   1.201
 9086SOL     OW27303   6.367   1.319   0.307
 9086SOL    HW127304   6.333   1.227   0.328
 9086SOL    HW227305   6.447   1.338   0.363
 9087SOL     OW27306   6.209   1.559   1.289
 9087SOL    HW127307   6.207   1.646   1.339
 9087SOL    HW227308   6.300   1.547   1.249
 9088SOL     OW27309   5.672   1.053   0.363
 9088SOL    HW127310   5.760   1.030   0.320
 9088SOL    HW227311   5.618   0.970   0.373
 9089SOL     OW27312   6.463   1.659   0.361
 9089SOL    HW127313   6.386   1.634   0.302
 9089SOL    HW227314   6.439   1.742   0.412
 9090SOL     OW27315   5.806   0.619   1.990
 9090SOL    HW127316   5.717   0.619   2.034
 9090SOL    HW227317   5.795   0.599   1.892
 9091SOL     OW27318   5.807   0.303   2.859
 9091SOL    HW127319   5.848   0.265   2.942
 9091SOL    HW227320   5.725   0.252   2.835
 9092SOL     OW27321   5.595   0.395   2.490
 9092SOL    HW127322   5.506   0.412   2.532
 9092SOL    HW227323   5.586   0.322   2.422
 9093SOL     OW27324   6.155   1.297   3.048
 9093SOL    HW127325   6.065   1.294   3.005
 9093SOL    HW227326   6.172   1.390   3.081
 9094SOL     OW27327   0.069   1.546   2.622
 9094SOL    HW127328   0.103   1.452   2.631
 9094SOL    HW227329   0.040   1.561   2.528
 9095SOL     OW27330   6.692   0.720   2.549
 9095SOL    HW127331   6.759   0.793   2.538
 9095SOL    HW227332   6.658   0.720   2.643
 9096SOL     OW27333   6.330   1.140   2.904
 9096SOL    HW127334   6.262   1.176   2.969
 9096SOL    HW227335   6.374   1.217   2.857
 9097SOL     OW27336   6.459   0.766   3.685
 9097SOL    HW127337   6.442   0.833   3.757
 9097SOL    HW227338   6.483   0.814   3.600
 9098SOL     OW27339   6.270   1.000   2.510
 9098SOL    HW127340   6.341   0.988   2.580
 9098SOL    HW227341   6.195   1.055   2.547
 9099SOL     OW27342   6.293   1.150   3.676
 9099SOL    HW127343   6.342   1.230   3.709
 9099SOL    HW227344   6.207   1.179   3.634
 9100SOL     OW27345   5.912   1.423   2.928
 9100SOL    HW127346   5.836   1.378   2.881
 9100SOL    HW227347   5.965   1.476   2.861
 9101SOL     OW27348   6.029   0.399   3.346
 9101SOL    HW127349   6.115   0.347   3.352
 9101SOL    HW227350   5.952   0.335   3.351
 9102SOL     OW27351   5.808   1.714   2.333
 9102SOL    HW127352   5.826   1.793   2.393
 9102SOL    HW227353   5.883   1.704   2.268
 9103SOL     OW27354   6.717   1.346   3.566
 9103SOL    HW127355   6.812   1.314   3.569
 9103SOL    HW227356   6.656   1.267   3.568
 9104SOL     OW27357   5.820   1.443   2.398
 9104SOL    HW127358   5.803   1.542   2.397
 9104SOL    HW227359   5.759   1.400   2.465
 9105SOL     OW27360   5.856   1.091   2.763
 9105SOL    HW127361   5.851   0.996   2.795
 9105SOL    HW227362   5.793   1.147   2.816
 9106SOL     OW27363   6.183   1.798   3.286
 9106SOL    HW127364   6.101   1.773   3.338
 9106SOL    HW227365   6.214   1.889   3.316
 9107SOL     OW27366   6.168   0.987   2.003
 9107SOL    HW127367   6.214   1.034   1.928
 9107SOL    HW227368   6.208   1.015   2.090
 9108SOL     OW27369   5.700   0.661   2.426
 9108SOL    HW127370   5.673   0.566   2.443
 9108SOL    HW227371   5.695   0.713   2.511
 9109SOL     OW27372   5.615   1.591   1.985
 9109SOL    HW127373   5.599   1.494   2.004
 9109SOL    HW227374   5.594   1.644   2.067
 9110SOL     OW27375   5.708   0.749   3.444
 9110SOL    HW127376   5.804   0.777   3.447
 9110SOL    HW227377   5.649   0.830   3.445
 9111SOL     OW27378   6.198   1.391   2.595
 9111SOL    HW127379   6.152   1.303   2.608
 9111SOL    HW227380   6.185   1.422   2.501
 9112SOL     OW27381   6.840   1.222   3.293
 9112SOL    HW127382   6.878   1.151   3.233
 9112SOL    HW227383   6.902   1.236   3.370
 9113SOL     OW27384   6.411   0.027   2.379
 9113SOL    HW127385   6.449   0.117   2.361
 9113SOL    HW227386   6.311   0.033   2.382
 9114SOL     OW27387   5.776   0.962   3.139
 9114SOL    HW127388   5.865   0.919   3.124
 9114SOL    HW227389   5.707   0.915   3.083
 9115SOL     OW27390   6.780   1.814   3.479
 9115SOL    HW127391   6.766   1.882   3.407
 9115SOL    HW227392   6.779   1.722   3.438
 9116SOL     OW27393   5.905   0.270   3.652
 9116SOL    HW127394   5.968   0.336   3.693
 9116SOL    HW227395   5.818   0.272   3.702
 9117SOL     OW27396   6.179   0.719   2.134
 9117SOL    HW127397   6.184   0.805   2.084
 9117SOL    HW227398   6.110   0.726   2.206
 9118SOL     OW27399   6.850   0.371   2.751
 9118SOL    HW127400   6.754   0.355   2.774
 9118SOL    HW227401   6.909   0.331   2.822
 9119SOL     OW27402   6.387   0.614   3.318
 9119SOL    HW127403   6.357   0.590   3.410
 9119SOL    HW227404   6.347   0.552   3.251
 9120SOL     OW27405   6.943   0.467   3.538
 9120SOL    HW127406   6.905   0.545   3.586
 9120SOL    HW227407   0.043   0.469   3.544
 9121SOL     OW27408   6.543   0.885   3.445
 9121SOL    HW127409   6.599   0.812   3.407
 9121SOL    HW227410   6.490   0.928   3.372
 9122SOL     OW27411   6.592   0.411   3.093
 9122SOL    HW127412   6.505   0.430   3.138
 9122SOL    HW227413   6.575   0.366   3.005
 9123SOL     OW27414   6.634   0.701   2.285
 9123SOL    HW127415   6.653   0.702   2.384
 9123SOL    HW227416   6.548   0.653   2.268
 9124SOL     OW27417   5.674   0.828   2.642
 9124SOL    HW127418   5.760   0.815   2.692
 9124SOL    HW227419   5.625   0.907   2.679
 9125SOL     OW27420   5.714   1.872   3.450
 9125SOL    HW127421   5.719   1.844   3.546
 9125SOL    HW227422   5.629   1.838   3.409
 9126SOL     OW27423   6.475   0.353   2.061
 9126SOL    HW127424   6.523   0.413   1.996
 9126SOL    HW227425   6.452   0.267   2.015
 9127SOL     OW27426   6.927   1.133   2.378
 9127SOL    HW127427   6.997   1.115   2.309
 9127SOL    HW227428   6.876   1.215   2.354
 9128SOL     OW27429   6.089   0.190   2.774
 9128SOL    HW127430   6.129   0.222   2.860
 9128SOL    HW227431   6.114   0.253   2.700
 9129SOL     OW27432   6.571   1.449   2.333
 9129SOL    HW127433   6.540   1.526   2.278
 9129SOL    HW227434   6.546   1.463   2.429
 9130SOL     OW27435   5.942   1.814   2.732
 9130SOL    HW127436   5.986   1.724   2.739
 9130SOL    HW227437   6.009   1.885   2.751
 9131SOL     OW27438   6.797   1.558   3.366
 9131SOL    HW127439   6.802   1.482   3.431
 9131SOL    HW227440   6.750   1.527   3.283
 9132SOL     OW27441   5.907   0.959   2.116
 9132SOL    HW127442   5.995   0.980   2.073
 9132SOL    HW227443   5.871   0.874   2.079
 9133SOL     OW27444   6.053   1.263   3.592
 9133SOL    HW127445   6.027   1.270   3.496
 9133SOL    HW227446   5.971   1.263   3.649
 9134SOL     OW27447   6.712   1.771   2.105
 9134SOL    HW127448   6.629   1.742   2.153
 9134SOL    HW227449   6.725   1.714   2.024
 9135SOL     OW27450   5.778   0.273   3.374
 9135SOL    HW127451   5.719   0.351   3.359
 9135SOL    HW227452   5.800   0.265   3.471
 9136SOL     OW27453   6.050   1.735   2.180
 9136SOL    HW127454   6.092   1.797   2.246
 9136SOL    HW227455   6.120   1.698   2.119
 9137SOL     OW27456   5.845   1.792   3.088
 9137SOL    HW127457   5.896   1.719   3.135
 9137SOL    HW227458   5.826   1.764   2.994
 9138SOL     OW27459   6.524   1.701   2.758
 9138SOL    HW127460   6.610   1.654   2.780
 9138SOL    HW227461   6.477   1.651   2.685
 9139SOL     OW27462   5.981   0.687   2.337
 9139SOL    HW127463   6.002   0.590   2.350
 9139SOL    HW227464   5.885   0.703   2.355
 9140SOL     OW27465   6.229   0.111   1.964
 9140SOL    HW127466   6.269   0.036   2.017
 9140SOL    HW227467   6.167   0.073   1.895
 9141SOL     OW27468   6.349   0.276   3.630
 9141SOL    HW127469   6.436   0.227   3.625
 9141SOL    HW227470   6.292   0.236   3.701
 9142SOL     OW27471   6.460   1.518   3.053
 9142SOL    HW127472   6.440   1.482   2.962
 9142SOL    HW227473   6.532   1.463   3.096
 9143SOL     OW27474   6.402   1.390   2.804
 9143SOL    HW127475   6.492   1.377   2.763
 9143SOL    HW227476   6.333   1.395   2.732
 9144SOL     OW27477   6.508   0.512   2.759
 9144SOL    HW127478   6.484   0.508   2.662
 9144SOL    HW227479   6.537   0.422   2.790
 9145SOL     OW27480   6.143   0.066   2.357
 9145SOL    HW127481   6.061   0.055   2.413
 9145SOL    HW227482   6.129   0.142   2.293
 9146SOL     OW27483   6.988   1.123   1.882
 9146SOL    HW127484   0.025   1.074   1.961
 9146SOL    HW227485   6.922   1.191   1.912
 9147SOL     OW27486   5.897   0.048   2.048
 9147SOL    HW127487   5.937   0.140   2.045
 9147SOL    HW227488   5.949   6.991   2.111
 9148SOL     OW27489   6.539   0.264   2.316
 9148SOL    HW127490   6.503   0.299   2.230
 9148SOL    HW227491   6.638   0.275   2.318
 9149SOL     OW27492   6.656   0.669   3.321
 9149SOL    HW127493   6.562   0.637   3.324
 9149SOL    HW227494   6.718   0.591   3.327
 9150SOL     OW27495   6.782   1.574   2.663
 9150SOL    HW127496   6.800   1.639   2.590
 9150SOL    HW227497   6.867   1.555   2.712
 9151SOL     OW27498   6.054   1.152   2.590
 9151SOL    HW127499   5.988   1.131   2.662
 9151SOL    HW227500   6.012   1.139   2.500
 9152SOL     OW27501   6.839   1.792   2.469
 9152SOL    HW127502   6.877   1.854   2.399
 9152SOL    HW227503   6.769   1.840   2.521
 9153SOL     OW27504   6.608   0.539   1.890
 9153SOL    HW127505   6.562   0.626   1.873
 9153SOL    HW227506   6.672   0.550   1.966
 9154SOL     OW27507   5.677   0.552   3.259
 9154SOL    HW127508   5.770   0.553   3.222
 9154SOL    HW227509   5.667   0.626   3.325
 9155SOL     OW27510   6.158   0.245   3.038
 9155SOL    HW127511   6.210   0.170   3.079
 9155SOL    HW227512   6.062   0.239   3.068
 9156SOL     OW27513   6.449   0.460   2.499
 9156SOL    HW127514   6.402   0.525   2.439
 9156SOL    HW227515   6.477   0.380   2.446
 9157SOL     OW27516   6.527   0.032   2.636
 9157SOL    HW127517   6.475   0.020   2.552
 9157SOL    HW227518   6.611   6.977   2.632
 9158SOL     OW27519   6.073   1.422   2.020
 9158SOL    HW127520   5.991   1.393   2.071
 9158SOL    HW227521   6.074   1.375   1.931
 9159SOL     OW27522   6.110   0.263   2.165
 9159SOL    HW127523   6.166   0.213   2.099
 9159SOL    HW227524   6.085   0.352   2.128
 9160SOL     OW27525   6.628   1.348   3.193
 9160SOL    HW127526   6.545   1.321   3.243
 9160SOL    HW227527   6.707   1.304   3.236
 9161SOL     OW27528   6.727   1.226   2.963
 9161SOL    HW127529   6.669   1.256   3.038
 9161SOL    HW227530   6.686   1.252   2.875
 9162SOL     OW27531   6.475   0.149   3.247
 9162SOL    HW127532   6.491   0.113   3.155
 9162SOL    HW227533   6.563   0.169   3.290
 9163SOL     OW27534   6.565   1.113   3.590
 9163SOL    HW127535   6.471   1.135   3.615
 9163SOL    HW227536   6.566   1.033   3.529
 9164SOL     OW27537   6.298   1.058   2.235
 9164SOL    HW127538   6.281   1.041   2.332
 9164SOL    HW227539   6.377   1.005   2.205
 9165SOL     OW27540   6.009   0.817   3.116
 9165SOL    HW127541   6.082   0.828   3.183
 9165SOL    HW227542   5.970   0.725   3.125
 9166SOL     OW27543   6.857   0.363   3.146
 9166SOL    HW127544   6.914   0.442   3.170
 9166SOL    HW227545   6.766   0.395   3.121
 9167SOL     OW27546   5.660   1.572   3.215
 9167SOL    HW127547   5.625   1.642   3.153
 9167SOL    HW227548   5.760   1.570   3.209
 9168SOL     OW27549   5.928   1.118   2.349
 9168SOL    HW127550   5.934   1.200   2.292
 9168SOL    HW227551   5.926   1.037   2.291
 9169SOL     OW27552   6.139   0.547   2.724
 9169SOL    HW127553   6.153   0.606   2.644
 9169SOL    HW227554   6.210   0.566   2.792
 9170SOL     OW27555   6.824   1.370   2.280
 9170SOL    HW127556   6.878   1.447   2.314
 9170SOL    HW227557   6.727   1.388   2.297
 9171SOL     OW27558   6.851   1.477   3.002
 9171SOL    HW127559   6.930   1.472   3.064
 9171SOL    HW227560   6.810   1.386   2.994
 9172SOL     OW27561   5.934   1.530   3.172
 9172SOL    HW127562   5.918   1.485   3.084
 9172SOL    HW227563   6.032   1.543   3.184
 9173SOL     OW27564   6.004   0.744   3.463
 9173SOL    HW127565   6.067   0.793   3.403
 9173SOL    HW227566   6.041   0.653   3.484
 9174SOL     OW27567   6.582   0.131   3.612
 9174SOL    HW127568   6.624   0.193   3.546
 9174SOL    HW227569   6.596   0.036   3.583
 9175SOL     OW27570   6.049   0.039   3.620
 9175SOL    HW127571   5.984   6.966   3.599
 9175SOL    HW227572   6.000   0.125   3.630
 9176SOL     OW27573   6.170   0.873   2.895
 9176SOL    HW127574   6.205   0.967   2.893
 9176SOL    HW227575   6.109   0.863   2.974
 9177SOL     OW27576   6.951   0.845   2.894
 9177SOL    HW127577   6.858   0.835   2.857
 9177SOL    HW227578   6.986   0.755   2.920
 9178SOL     OW27579   6.769   0.538   2.112
 9178SOL    HW127580   6.790   0.452   2.158
 9178SOL    HW227581   6.730   0.602   2.177
 9179SOL     OW27582   5.897   0.209   3.110
 9179SOL    HW127583   5.833   0.218   3.186
 9179SOL    HW227584   5.885   0.119   3.067
 9180SOL     OW27585   5.638   1.310   3.137
 9180SOL    HW127586   5.670   1.249   3.210
 9180SOL    HW227587   5.641   1.404   3.170
 9181SOL     OW27588   6.316   0.638   2.919
 9181SOL    HW127589   6.389   0.616   2.854
 9181SOL    HW227590   6.277   0.728   2.895
 9182SOL     OW27591   5.908   0.060   2.492
 9182SOL    HW127592   5.884   0.153   2.518
 9182SOL    HW227593   5.863   6.995   2.553
 9183SOL     OW27594   0.196   0.442   2.208
 9183SOL    HW127595   0.214   0.351   2.247
 9183SOL    HW227596   0.180   0.507   2.283
 9184SOL     OW27597   6.610   0.757   2.821
 9184SOL    HW127598   6.604   0.777   2.919
 9184SOL    HW227599   6.583   0.662   2.805
 9185SOL     OW27600   6.555   1.566   3.568
 9185SOL    HW127601   6.542   1.610   3.480
 9185SOL    HW227602   6.607   1.482   3.557
 9186SOL     OW27603   5.939   0.918   3.666
 9186SOL    HW127604   6.018   0.940   3.722
 9186SOL    HW227605   5.965   0.852   3.596
 9187SOL     OW27606   6.883   0.818   1.891
 9187SOL    HW127607   6.942   0.747   1.929
 9187SOL    HW227608   6.924   0.852   1.806
 9188SOL     OW27609   6.650   1.333   2.718
 9188SOL    HW127610   6.655   1.258   2.653
 9188SOL    HW227611   6.702   1.411   2.682
 9189SOL     OW27612   5.897   0.809   2.804
 9189SOL    HW127613   5.993   0.835   2.798
 9189SOL    HW227614   5.890   0.715   2.836
 9190SOL     OW27615   5.921   0.539   2.874
 9190SOL    HW127616   5.878   0.450   2.862
 9190SOL    HW227617   6.002   0.546   2.816
 9191SOL     OW27618   6.689   0.385   3.540
 9191SOL    HW127619   6.645   0.438   3.613
 9191SOL    HW227620   6.788   0.401   3.543
 9192SOL     OW27621   6.718   0.218   3.338
 9192SOL    HW127622   6.711   0.286   3.411
 9192SOL    HW227623   6.768   0.257   3.260
 9193SOL     OW27624   5.586   1.315   2.057
 9193SOL    HW127625   5.497   1.335   2.017
 9193SOL    HW227626   5.587   1.221   2.092
 9194SOL     OW27627   5.679   1.783   2.806
 9194SOL    HW127628   5.643   1.702   2.760
 9194SOL    HW227629   5.773   1.800   2.773
 9195SOL     OW27630   6.079   1.576   2.767
 9195SOL    HW127631   6.149   1.642   2.794
 9195SOL    HW227632   6.120   1.508   2.705
 9196SOL     OW27633   6.563   0.792   3.086
 9196SOL    HW127634   6.622   0.767   3.163
 9196SOL    HW227635   6.474   0.750   3.097
 9197SOL     OW27636   5.621   0.550   2.982
 9197SOL    HW127637   5.699   0.531   2.922
 9197SOL    HW227638   5.652   0.551   3.077
 9198SOL     OW27639   5.771   0.530   3.591
 9198SOL    HW127640   5.849   0.496   3.539
 9198SOL    HW227641   5.730   0.608   3.544
 9199SOL     OW27642   6.403   0.575   2.220
 9199SOL    HW127643   6.411   0.494   2.162
 9199SOL    HW227644   6.324   0.629   2.191
 9200SOL     OW27645   5.825   1.547   3.588
 9200SOL    HW127646   5.804   1.621   3.651
 9200SOL    HW227647   5.832   1.461   3.638
 9201SOL     OW27648   6.299   0.462   3.119
 9201SOL    HW127649   6.242   0.383   3.094
 9201SOL    HW227650   6.297   0.529   3.044
 9202SOL     OW27651   6.499   1.687   3.329
 9202SOL    HW127652   6.481   1.637   3.244
 9202SOL    HW227653   6.495   1.785   3.311
 9203SOL     OW27654   6.046   0.495   2.040
 9203SOL    HW127655   6.110   0.567   2.068
 9203SOL    HW227656   5.954   0.535   2.030
 9204SOL     OW27657   5.727   1.137   3.337
 9204SOL    HW127658   5.729   1.093   3.427
 9204SOL    HW227659   5.747   1.070   3.266
 9205SOL     OW27660   6.895   1.045   3.084
 9205SOL    HW127661   6.920   0.971   3.021
 9205SOL    HW227662   6.832   1.108   3.039
 9206SOL     OW27663   6.888   0.871   2.170
 9206SOL    HW127664   6.821   0.833   2.234
 9206SOL    HW227665   6.858   0.853   2.076
 9207SOL     OW27666   6.845   1.748   2.978
 9207SOL    HW127667   6.924   1.766   2.919
 9207SOL    HW227668   6.835   1.649   2.991
 9208SOL     OW27669   5.672   1.265   2.872
 9208SOL    HW127670   5.656   1.280   2.970
 9208SOL    HW227671   5.599   1.207   2.836
 9209SOL     OW27672   6.266   1.673   3.601
 9209SOL    HW127673   6.206   1.752   3.591
 9209SOL    HW227674   6.342   1.682   3.536
 9210SOL     OW27675   6.979   1.585   2.351
 9210SOL    HW127676   0.064   1.626   2.319
 9210SOL    HW227677   6.918   1.657   2.383
 9211SOL     OW27678   5.731   1.787   3.708
 9211SOL    HW127679   5.674   1.719   3.753
 9211SOL    HW227680   5.780   1.841   3.777
 9212SOL     OW27681   6.870   0.918   2.522
 9212SOL    HW127682   6.956   0.872   2.544
 9212SOL    HW227683   6.888   0.999   2.467
 9213SOL     OW27684   6.383   1.276   3.287
 9213SOL    HW127685   6.354   1.322   3.372
 9213SOL    HW227686   6.314   1.291   3.216
 9214SOL     OW27687   6.254   1.623   2.017
 9214SOL    HW127688   6.271   1.640   1.920
 9214SOL    HW227689   6.197   1.541   2.027
 9215SOL     OW27690   5.846   0.313   2.578
 9215SOL    HW127691   5.756   0.349   2.550
 9215SOL    HW227692   5.852   0.311   2.677
 9216SOL     OW27693   6.749   1.608   1.899
 9216SOL    HW127694   6.771   1.511   1.901
 9216SOL    HW227695   6.687   1.626   1.822
 9217SOL     OW27696   6.412   1.009   3.241
 9217SOL    HW127697   6.459   0.996   3.154
 9217SOL    HW227698   6.405   1.107   3.261
 9218SOL     OW27699   6.504   0.910   2.147
 9218SOL    HW127700   6.568   0.947   2.080
 9218SOL    HW227701   6.550   0.839   2.201
 9219SOL     OW27702   5.951   1.302   3.348
 9219SOL    HW127703   5.942   1.383   3.290
 9219SOL    HW227704   5.871   1.244   3.337
 9220SOL     OW27705   6.643   1.106   2.573
 9220SOL    HW127706   6.568   1.055   2.615
 9220SOL    HW227707   6.710   1.042   2.537
 9221SOL     OW27708   6.598   0.253   2.816
 9221SOL    HW127709   6.569   0.208   2.732
 9221SOL    HW227710   6.593   0.189   2.892
 9222SOL     OW27711   6.191   1.486   2.341
 9222SOL    HW127712   6.243   1.432   2.275
 9222SOL    HW227713   6.116   1.533   2.295
 9223SOL     OW27714   5.838   1.347   2.150
 9223SOL    HW127715   5.742   1.341   2.123
 9223SOL    HW227716   5.844   1.386   2.242
 9224SOL     OW27717   5.700   1.034   3.590
 9224SOL    HW127718   5.619   1.007   3.640
 9224SOL    HW227719   5.781   0.989   3.629
 9225SOL     OW27720   6.254   0.239   3.372
 9225SOL    HW127721   6.334   0.211   3.318
 9225SOL    HW227722   6.284   0.270   3.462
 9226SOL     OW27723   5.661   0.333   1.896
 9226SOL    HW127724   5.565   0.311   1.879
 9226SOL    HW227725   5.687   0.414   1.842
 9227SOL     OW27726   5.658   0.178   2.179
 9227SOL    HW127727   5.661   0.248   2.108
 9227SOL    HW227728   5.710   0.098   2.149
 9228SOL     OW27729   6.211   0.829   3.296
 9228SOL    HW127730   6.267   0.910   3.281
 9228SOL    HW227731   6.270   0.749   3.307
 9229SOL     OW27732   6.310   0.557   3.567
 9229SOL    HW127733   6.352   0.626   3.626
 9229SOL    HW227734   6.326   0.466   3.605
 9230SOL     OW27735   0.001   1.263   3.512
 9230SOL    HW127736   7.000   1.198   3.588
 9230SOL    HW227737   0.080   1.243   3.453
 9231SOL     OW27738   5.958   1.738   3.429
 9231SOL    HW127739   5.873   1.790   3.415
 9231SOL    HW227740   5.936   1.650   3.471
 9232SOL     OW27741   6.818   0.308   2.302
 9232SOL    HW127742   6.891   0.256   2.257
 9232SOL    HW227743   6.858   0.362   2.376
 9233SOL     OW27744   6.174   0.737   2.529
 9233SOL    HW127745   6.214   0.828   2.518
 9233SOL    HW227746   6.104   0.723   2.459
 9234SOL     OW27747   6.428   1.367   1.894
 9234SOL    HW127748   6.410   1.389   1.990
 9234SOL    HW227749   6.460   1.450   1.847
 9235SOL     OW27750   6.251   1.785   2.803
 9235SOL    HW127751   6.227   1.880   2.783
 9235SOL    HW227752   6.350   1.773   2.795
 9236SOL     OW27753   6.454   0.970   2.718
 9236SOL    HW127754   6.506   0.893   2.754
 9236SOL    HW227755   6.412   1.020   2.795
 9237SOL     OW27756   6.671   0.989   1.950
 9237SOL    HW127757   6.636   1.043   1.873
 9237SOL    HW227758   6.744   0.928   1.917
 9238SOL     OW27759   5.817   1.299   3.719
 9238SOL    HW127760   5.750   1.232   3.685
 9238SOL    HW227761   5.803   1.313   3.817
 9239SOL     OW27762   5.673   1.230   2.525
 9239SOL    HW127763   5.678   1.184   2.614
 9239SOL    HW227764   5.741   1.190   2.464
 9240SOL     OW27765   6.262   1.411   3.489
 9240SOL    HW127766   6.185   1.360   3.527
 9240SOL    HW227767   6.266   1.501   3.532
 9241SOL     OW27768   6.016   0.426   2.386
 9241SOL    HW127769   6.051   0.355   2.325
 9241SOL    HW227770   5.963   0.384   2.459
 9242SOL     OW27771   5.921   0.559   3.150
 9242SOL    HW127772   5.977   0.500   3.208
 9242SOL    HW227773   5.937   0.536   3.054
 9243SOL     OW27774   6.412   1.580   2.541
 9243SOL    HW127775   6.396   1.642   2.464
 9243SOL    HW227776   6.336   1.516   2.549
 9244SOL     OW27777   6.974   0.218   2.941
 9244SOL    HW127778   0.005   0.134   2.985
 9244SOL    HW227779   6.930   0.276   3.010
 9245SOL     OW27780   6.560   0.057   2.997
 9245SOL    HW127781   6.505   6.995   2.941
 9245SOL    HW227782   6.613   0.005   3.063
 9246SOL     OW27783   6.360   1.332   2.182
 9246SOL    HW127784   6.332   1.236   2.189
 9246SOL    HW227785   6.445   1.346   2.233
 9247SOL     OW27786   6.209   1.559   3.151
 9247SOL    HW127787   6.206   1.646   3.201
 9247SOL    HW227788   6.300   1.547   3.111
 9248SOL     OW27789   5.629   1.064   2.170
 9248SOL    HW127790   5.727   1.064   2.150
 9248SOL    HW227791   5.599   0.971   2.192
 9249SOL     OW27792   6.466   1.665   2.204
 9249SOL    HW127793   6.393   1.643   2.139
 9249SOL    HW227794   6.438   1.742   2.262
 9250SOL     OW27795   5.806   0.620   3.852
 9250SOL    HW127796   5.717   0.619   3.896
 9250SOL    HW227797   5.795   0.599   3.754
 9251SOL     OW27798   5.807   0.303   4.721
 9251SOL    HW127799   5.848   0.265   4.804
 9251SOL    HW227800   5.725   0.252   4.697
 9252SOL     OW27801   5.595   0.395   4.351
 9252SOL    HW127802   5.507   0.412   4.394
 9252SOL    HW227803   5.586   0.322   4.284
 9253SOL     OW27804   6.155   1.297   4.910
 9253SOL    HW127805   6.064   1.294   4.867
 9253SOL    HW227806   6.172   1.390   4.943
 9254SOL     OW27807   0.069   1.546   4.484
 9254SOL    HW127808   0.103   1.452   4.493
 9254SOL    HW227809   0.040   1.561   4.390
 9255SOL     OW27810   6.692   0.720   4.411
 9255SOL    HW127811   6.759   0.793   4.400
 9255SOL    HW227812   6.658   0.720   4.505
 9256SOL     OW27813   6.330   1.140   4.766
 9256SOL    HW127814   6.262   1.176   4.831
 9256SOL    HW227815   6.374   1.217   4.719
 9257SOL     OW27816   6.459   0.766   5.547
 9257SOL    HW127817   6.441   0.833   5.619
 9257SOL    HW227818   6.482   0.814   5.462
 9258SOL     OW27819   6.270   1.000   4.372
 9258SOL    HW127820   6.341   0.988   4.442
 9258SOL    HW227821   6.195   1.055   4.409
 9259SOL     OW27822   6.293   1.150   5.538
 9259SOL    HW127823   6.342   1.230   5.571
 9259SOL    HW227824   6.207   1.179   5.496
 9260SOL     OW27825   5.912   1.423   4.790
 9260SOL    HW127826   5.836   1.378   4.744
 9260SOL    HW227827   5.965   1.476   4.723
 9261SOL     OW27828   6.030   0.399   5.208
 9261SOL    HW127829   6.115   0.347   5.214
 9261SOL    HW227830   5.952   0.335   5.213
 9262SOL     OW27831   5.808   1.714   4.195
 9262SOL    HW127832   5.826   1.793   4.255
 9262SOL    HW227833   5.883   1.704   4.130
 9263SOL     OW27834   6.717   1.346   5.428
 9263SOL    HW127835   6.812   1.314   5.432
 9263SOL    HW227836   6.656   1.267   5.429
 9264SOL     OW27837   5.820   1.443   4.260
 9264SOL    HW127838   5.803   1.542   4.259
 9264SOL    HW227839   5.759   1.400   4.327
 9265SOL     OW27840   5.856   1.091   4.625
 9265SOL    HW127841   5.851   0.996   4.657
 9265SOL    HW227842   5.793   1.147   4.678
 9266SOL     OW27843   6.183   1.798   5.148
 9266SOL    HW127844   6.101   1.773   5.200
 9266SOL    HW227845   6.214   1.889   5.178
 9267SOL     OW27846   6.168   0.987   3.865
 9267SOL    HW127847   6.214   1.034   3.790
 9267SOL    HW227848   6.208   1.015   3.952
 9268SOL     OW27849   5.700   0.661   4.288
 9268SOL    HW127850   5.673   0.566   4.305
 9268SOL    HW227851   5.695   0.713   4.373
 9269SOL     OW27852   5.615   1.590   3.847
 9269SOL    HW127853   5.599   1.494   3.866
 9269SOL    HW227854   5.594   1.644   3.929
 9270SOL     OW27855   5.708   0.749   5.306
 9270SOL    HW127856   5.804   0.777   5.309
 9270SOL    HW227857   5.649   0.830   5.308
 9271SOL     OW27858   6.198   1.391   4.457
 9271SOL    HW127859   6.152   1.303   4.470
 9271SOL    HW227860   6.186   1.422   4.363
 9272SOL     OW27861   6.840   1.222   5.155
 9272SOL    HW127862   6.878   1.151   5.095
 9272SOL    HW227863   6.902   1.236   5.232
 9273SOL     OW27864   6.411   0.027   4.241
 9273SOL    HW127865   6.449   0.117   4.223
 9273SOL    HW227866   6.311   0.033   4.244
 9274SOL     OW27867   5.776   0.962   5.001
 9274SOL    HW127868   5.865   0.919   4.986
 9274SOL    HW227869   5.707   0.915   4.946
 9275SOL     OW27870   6.781   1.814   5.340
 9275SOL    HW127871   6.766   1.882   5.269
 9275SOL    HW227872   6.780   1.722   5.299
 9276SOL     OW27873   5.906   0.270   5.515
 9276SOL    HW127874   5.968   0.337   5.555
 9276SOL    HW227875   5.818   0.272   5.564
 9277SOL     OW27876   6.179   0.719   3.996
 9277SOL    HW127877   6.184   0.805   3.946
 9277SOL    HW227878   6.110   0.726   4.068
 9278SOL     OW27879   6.850   0.371   4.613
 9278SOL    HW127880   6.754   0.355   4.636
 9278SOL    HW227881   6.909   0.331   4.684
 9279SOL     OW27882   6.387   0.614   5.180
 9279SOL    HW127883   6.357   0.590   5.271
 9279SOL    HW227884   6.347   0.552   5.113
 9280SOL     OW27885   6.943   0.467   5.400
 9280SOL    HW127886   6.905   0.545   5.448
 9280SOL    HW227887   0.043   0.469   5.406
 9281SOL     OW27888   6.543   0.885   5.307
 9281SOL    HW127889   6.599   0.812   5.269
 9281SOL    HW227890   6.490   0.928   5.234
 9282SOL     OW27891   6.592   0.411   4.955
 9282SOL    HW127892   6.505   0.430   5.000
 9282SOL    HW227893   6.575   0.366   4.867
 9283SOL     OW27894   6.634   0.701   4.147
 9283SOL    HW127895   6.653   0.702   4.246
 9283SOL    HW227896   6.548   0.653   4.130
 9284SOL     OW27897   5.674   0.828   4.504
 9284SOL    HW127898   5.760   0.815   4.554
 9284SOL    HW227899   5.625   0.907   4.541
 9285SOL     OW27900   5.714   1.871   5.312
 9285SOL    HW127901   5.719   1.844   5.408
 9285SOL    HW227902   5.629   1.838   5.272
 9286SOL     OW27903   6.475   0.353   3.923
 9286SOL    HW127904   6.523   0.413   3.858
 9286SOL    HW227905   6.452   0.267   3.878
 9287SOL     OW27906   6.927   1.133   4.240
 9287SOL    HW127907   6.997   1.116   4.171
 9287SOL    HW227908   6.875   1.215   4.215
 9288SOL     OW27909   6.089   0.190   4.636
 9288SOL    HW127910   6.129   0.223   4.722
 9288SOL    HW227911   6.114   0.253   4.562
 9289SOL     OW27912   6.571   1.449   4.195
 9289SOL    HW127913   6.540   1.526   4.141
 9289SOL    HW227914   6.546   1.463   4.291
 9290SOL     OW27915   5.942   1.814   4.594
 9290SOL    HW127916   5.986   1.724   4.601
 9290SOL    HW227917   6.009   1.885   4.613
 9291SOL     OW27918   6.797   1.558   5.228
 9291SOL    HW127919   6.802   1.482   5.293
 9291SOL    HW227920   6.750   1.526   5.145
 9292SOL     OW27921   5.907   0.959   3.978
 9292SOL    HW127922   5.995   0.979   3.935
 9292SOL    HW227923   5.871   0.874   3.941
 9293SOL     OW27924   6.053   1.262   5.454
 9293SOL    HW127925   6.027   1.270   5.358
 9293SOL    HW227926   5.971   1.263   5.511
 9294SOL     OW27927   6.712   1.771   3.966
 9294SOL    HW127928   6.629   1.742   4.015
 9294SOL    HW227929   6.725   1.714   3.886
 9295SOL     OW27930   5.778   0.273   5.236
 9295SOL    HW127931   5.718   0.352   5.221
 9295SOL    HW227932   5.800   0.265   5.333
 9296SOL     OW27933   6.049   1.735   4.042
 9296SOL    HW127934   6.092   1.797   4.108
 9296SOL    HW227935   6.120   1.698   3.982
 9297SOL     OW27936   5.845   1.792   4.950
 9297SOL    HW127937   5.895   1.720   4.997
 9297SOL    HW227938   5.826   1.764   4.856
 9298SOL     OW27939   6.524   1.701   4.620
 9298SOL    HW127940   6.609   1.654   4.643
 9298SOL    HW227941   6.477   1.651   4.547
 9299SOL     OW27942   5.981   0.687   4.199
 9299SOL    HW127943   6.002   0.590   4.212
 9299SOL    HW227944   5.884   0.703   4.217
 9300SOL     OW27945   6.229   0.111   3.826
 9300SOL    HW127946   6.269   0.036   3.879
 9300SOL    HW227947   6.167   0.073   3.757
 9301SOL     OW27948   6.349   0.276   5.492
 9301SOL    HW127949   6.436   0.226   5.487
 9301SOL    HW227950   6.292   0.236   5.563
 9302SOL     OW27951   6.460   1.518   4.915
 9302SOL    HW127952   6.440   1.482   4.824
 9302SOL    HW227953   6.532   1.463   4.958
 9303SOL     OW27954   6.402   1.390   4.666
 9303SOL    HW127955   6.492   1.377   4.625
 9303SOL    HW227956   6.333   1.395   4.594
 9304SOL     OW27957   6.508   0.512   4.621
 9304SOL    HW127958   6.484   0.508   4.524
 9304SOL    HW227959   6.537   0.422   4.652
 9305SOL     OW27960   6.143   0.066   4.219
 9305SOL    HW127961   6.061   0.055   4.275
 9305SOL    HW227962   6.129   0.142   4.155
 9306SOL     OW27963   6.989   1.123   3.743
 9306SOL    HW127964   0.025   1.074   3.823
 9306SOL    HW227965   6.922   1.191   3.774
 9307SOL     OW27966   5.897   0.048   3.910
 9307SOL    HW127967   5.938   0.139   3.907
 9307SOL    HW227968   5.949   6.990   3.973
 9308SOL     OW27969   6.539   0.264   4.178
 9308SOL    HW127970   6.503   0.299   4.092
 9308SOL    HW227971   6.638   0.275   4.180
 9309SOL     OW27972   6.656   0.669   5.183
 9309SOL    HW127973   6.561   0.637   5.186
 9309SOL    HW227974   6.718   0.590   5.189
 9310SOL     OW27975   6.782   1.574   4.525
 9310SOL    HW127976   6.800   1.639   4.452
 9310SOL    HW227977   6.867   1.555   4.574
 9311SOL     OW27978   6.054   1.152   4.452
 9311SOL    HW127979   5.988   1.131   4.524
 9311SOL    HW227980   6.012   1.139   4.362
 9312SOL     OW27981   6.839   1.792   4.331
 9312SOL    HW127982   6.877   1.854   4.262
 9312SOL    HW227983   6.769   1.839   4.383
 9313SOL     OW27984   6.608   0.539   3.752
 9313SOL    HW127985   6.562   0.626   3.735
 9313SOL    HW227986   6.672   0.550   3.828
 9314SOL     OW27987   5.677   0.552   5.121
 9314SOL    HW127988   5.770   0.553   5.084
 9314SOL    HW227989   5.667   0.626   5.187
 9315SOL     OW27990   6.158   0.245   4.900
 9315SOL    HW127991   6.210   0.170   4.941
 9315SOL    HW227992   6.062   0.239   4.930
 9316SOL     OW27993   6.449   0.460   4.361
 9316SOL    HW127994   6.402   0.525   4.301
 9316SOL    HW227995   6.477   0.380   4.308
 9317SOL     OW27996   6.527   0.032   4.498
 9317SOL    HW127997   6.475   0.020   4.414
 9317SOL    HW227998   6.610   6.977   4.494
 9318SOL     OW27999   6.073   1.422   3.882
 9318SOL    HW128000   5.991   1.393   3.933
 9318SOL    HW228001   6.074   1.375   3.794
 9319SOL     OW28002   6.110   0.263   4.027
 9319SOL    HW128003   6.166   0.213   3.961
 9319SOL    HW228004   6.085   0.352   3.990
 9320SOL     OW28005   6.628   1.348   5.055
 9320SOL    HW128006   6.545   1.321   5.105
 9320SOL    HW228007   6.707   1.304   5.098
 9321SOL     OW28008   6.727   1.225   4.825
 9321SOL    HW128009   6.669   1.256   4.900
 9321SOL    HW228010   6.686   1.252   4.738
 9322SOL     OW28011   6.475   0.149   5.109
 9322SOL    HW128012   6.491   0.113   5.017
 9322SOL    HW228013   6.563   0.169   5.152
 9323SOL     OW28014   6.566   1.113   5.452
 9323SOL    HW128015   6.471   1.135   5.477
 9323SOL    HW228016   6.566   1.033   5.391
 9324SOL     OW28017   6.298   1.058   4.097
 9324SOL    HW128018   6.281   1.042   4.194
 9324SOL    HW228019   6.377   1.005   4.067
 9325SOL     OW28020   6.009   0.817   4.978
 9325SOL    HW128021   6.082   0.828   5.045
 9325SOL    HW228022   5.970   0.725   4.987
 9326SOL     OW28023   6.857   0.363   5.008
 9326SOL    HW128024   6.914   0.442   5.032
 9326SOL    HW228025   6.766   0.395   4.983
 9327SOL     OW28026   5.660   1.572   5.077
 9327SOL    HW128027   5.625   1.643   5.016
 9327SOL    HW228028   5.760   1.570   5.072
 9328SOL     OW28029   5.928   1.118   4.211
 9328SOL    HW128030   5.934   1.200   4.154
 9328SOL    HW228031   5.926   1.037   4.153
 9329SOL     OW28032   6.139   0.547   4.586
 9329SOL    HW128033   6.153   0.606   4.506
 9329SOL    HW228034   6.210   0.566   4.654
 9330SOL     OW28035   6.824   1.370   4.142
 9330SOL    HW128036   6.878   1.447   4.176
 9330SOL    HW228037   6.727   1.388   4.159
 9331SOL     OW28038   6.851   1.477   4.864
 9331SOL    HW128039   6.930   1.473   4.925
 9331SOL    HW228040   6.810   1.386   4.856
 9332SOL     OW28041   5.934   1.530   5.034
 9332SOL    HW128042   5.918   1.485   4.946
 9332SOL    HW228043   6.032   1.544   5.047
 9333SOL     OW28044   6.004   0.744   5.325
 9333SOL    HW128045   6.067   0.793   5.265
 9333SOL    HW228046   6.041   0.653   5.346
 9334SOL     OW28047   6.582   0.131   5.474
 9334SOL    HW128048   6.624   0.193   5.408
 9334SOL    HW228049   6.596   0.036   5.445
 9335SOL     OW28050   6.049   0.039   5.482
 9335SOL    HW128051   5.984   6.966   5.462
 9335SOL    HW228052   6.000   0.125   5.492
 9336SOL     OW28053   6.170   0.873   4.757
 9336SOL    HW128054   6.205   0.967   4.755
 9336SOL    HW228055   6.109   0.863   4.836
 9337SOL     OW28056   6.951   0.845   4.756
 9337SOL    HW128057   6.858   0.835   4.719
 9337SOL    HW228058   6.986   0.755   4.782
 9338SOL     OW28059   6.769   0.538   3.974
 9338SOL    HW128060   6.790   0.452   4.020
 9338SOL    HW228061   6.730   0.602   4.039
 9339SOL     OW28062   5.897   0.209   4.972
 9339SOL    HW128063   5.833   0.218   5.048
 9339SOL    HW228064   5.885   0.119   4.929
 9340SOL     OW28065   5.639   1.310   4.999
 9340SOL    HW128066   5.670   1.249   5.072
 9340SOL    HW228067   5.641   1.404   5.032
 9341SOL     OW28068   6.316   0.638   4.781
 9341SOL    HW128069   6.389   0.616   4.716
 9341SOL    HW228070   6.277   0.728   4.757
 9342SOL     OW28071   5.908   0.060   4.354
 9342SOL    HW128072   5.884   0.153   4.380
 9342SOL    HW228073   5.863   6.995   4.415
 9343SOL     OW28074   0.197   0.442   4.070
 9343SOL    HW128075   0.213   0.351   4.108
 9343SOL    HW228076   0.180   0.507   4.145
 9344SOL     OW28077   6.610   0.757   4.683
 9344SOL    HW128078   6.604   0.777   4.781
 9344SOL    HW228079   6.583   0.662   4.667
 9345SOL     OW28080   6.555   1.566   5.430
 9345SOL    HW128081   6.542   1.610   5.342
 9345SOL    HW228082   6.607   1.482   5.419
 9346SOL     OW28083   5.939   0.918   5.528
 9346SOL    HW128084   6.018   0.941   5.584
 9346SOL    HW228085   5.965   0.852   5.458
 9347SOL     OW28086   6.884   0.818   3.753
 9347SOL    HW128087   6.942   0.747   3.792
 9347SOL    HW228088   6.924   0.851   3.667
 9348SOL     OW28089   6.650   1.333   4.580
 9348SOL    HW128090   6.655   1.258   4.515
 9348SOL    HW228091   6.702   1.411   4.544
 9349SOL     OW28092   5.897   0.809   4.666
 9349SOL    HW128093   5.994   0.835   4.660
 9349SOL    HW228094   5.890   0.715   4.698
 9350SOL     OW28095   5.921   0.539   4.736
 9350SOL    HW128096   5.878   0.450   4.724
 9350SOL    HW228097   6.002   0.546   4.678
 9351SOL     OW28098   6.689   0.385   5.402
 9351SOL    HW128099   6.645   0.438   5.475
 9351SOL    HW228100   6.788   0.400   5.405
 9352SOL     OW28101   6.719   0.218   5.200
 9352SOL    HW128102   6.711   0.286   5.273
 9352SOL    HW228103   6.768   0.257   5.122
 9353SOL     OW28104   5.586   1.315   3.919
 9353SOL    HW128105   5.497   1.335   3.879
 9353SOL    HW228106   5.587   1.221   3.954
 9354SOL     OW28107   5.679   1.783   4.667
 9354SOL    HW128108   5.643   1.702   4.622
 9354SOL    HW228109   5.773   1.800   4.635
 9355SOL     OW28110   6.079   1.576   4.629
 9355SOL    HW128111   6.149   1.642   4.656
 9355SOL    HW228112   6.120   1.508   4.567
 9356SOL     OW28113   6.564   0.792   4.948
 9356SOL    HW128114   6.622   0.767   5.025
 9356SOL    HW228115   6.474   0.750   4.959
 9357SOL     OW28116   5.621   0.550   4.844
 9357SOL    HW128117   5.699   0.531   4.784
 9357SOL    HW228118   5.652   0.551   4.939
 9358SOL     OW28119   5.771   0.530   5.453
 9358SOL    HW128120   5.849   0.496   5.401
 9358SOL    HW228121   5.730   0.608   5.406
 9359SOL     OW28122   6.403   0.575   4.082
 9359SOL    HW128123   6.411   0.494   4.024
 9359SOL    HW228124   6.324   0.629   4.053
 9360SOL     OW28125   5.825   1.547   5.450
 9360SOL    HW128126   5.804   1.621   5.513
 9360SOL    HW228127   5.832   1.461   5.500
 9361SOL     OW28128   6.299   0.462   4.981
 9361SOL    HW128129   6.242   0.383   4.956
 9361SOL    HW228130   6.297   0.529   4.906
 9362SOL     OW28131   6.499   1.687   5.191
 9362SOL    HW128132   6.481   1.637   5.106
 9362SOL    HW228133   6.495   1.785   5.173
 9363SOL     OW28134   6.046   0.495   3.902
 9363SOL    HW128135   6.110   0.567   3.930
 9363SOL    HW228136   5.954   0.535   3.892
 9364SOL     OW28137   5.727   1.137   5.199
 9364SOL    HW128138   5.729   1.093   5.289
 9364SOL    HW228139   5.747   1.070   5.128
 9365SOL     OW28140   6.895   1.045   4.946
 9365SOL    HW128141   6.920   0.971   4.882
 9365SOL    HW228142   6.832   1.108   4.901
 9366SOL     OW28143   6.888   0.871   4.032
 9366SOL    HW128144   6.821   0.833   4.096
 9366SOL    HW228145   6.858   0.853   3.938
 9367SOL     OW28146   6.845   1.748   4.840
 9367SOL    HW128147   6.924   1.766   4.781
 9367SOL    HW228148   6.835   1.649   4.853
 9368SOL     OW28149   5.672   1.265   4.734
 9368SOL    HW128150   5.657   1.280   4.832
 9368SOL    HW228151   5.599   1.207   4.698
 9369SOL     OW28152   6.266   1.673   5.463
 9369SOL    HW128153   6.206   1.752   5.453
 9369SOL    HW228154   6.342   1.682   5.398
 9370SOL     OW28155   6.979   1.585   4.212
 9370SOL    HW128156   0.064   1.626   4.181
 9370SOL    HW228157   6.918   1.657   4.245
 9371SOL     OW28158   5.731   1.787   5.570
 9371SOL    HW128159   5.674   1.719   5.615
 9371SOL    HW228160   5.780   1.840   5.638
 9372SOL     OW28161   6.870   0.918   4.384
 9372SOL    HW128162   6.956   0.872   4.406
 9372SOL    HW228163   6.888   0.999   4.329
 9373SOL     OW28164   6.383   1.276   5.150
 9373SOL    HW128165   6.354   1.322   5.234
 9373SOL    HW228166   6.314   1.291   5.078
 9374SOL     OW28167   6.253   1.623   3.879
 9374SOL    HW128168   6.271   1.640   3.782
 9374SOL    HW228169   6.197   1.541   3.889
 9375SOL     OW28170   5.846   0.313   4.440
 9375SOL    HW128171   5.756   0.349   4.412
 9375SOL    HW228172   5.852   0.311   4.539
 9376SOL     OW28173   6.748   1.608   3.761
 9376SOL    HW128174   6.772   1.511   3.763
 9376SOL    HW228175   6.687   1.626   3.684
 9377SOL     OW28176   6.412   1.009   5.103
 9377SOL    HW128177   6.459   0.996   5.016
 9377SOL    HW228178   6.404   1.107   5.123
 9378SOL     OW28179   6.504   0.910   4.008
 9378SOL    HW128180   6.568   0.947   3.942
 9378SOL    HW228181   6.550   0.839   4.063
 9379SOL     OW28182   5.951   1.302   5.210
 9379SOL    HW128183   5.942   1.383   5.152
 9379SOL    HW228184   5.871   1.244   5.199
 9380SOL     OW28185   6.643   1.106   4.435
 9380SOL    HW128186   6.568   1.055   4.477
 9380SOL    HW228187   6.711   1.042   4.399
 9381SOL     OW28188   6.598   0.253   4.678
 9381SOL    HW128189   6.569   0.208   4.594
 9381SOL    HW228190   6.594   0.189   4.754
 9382SOL     OW28191   6.191   1.486   4.203
 9382SOL    HW128192   6.243   1.432   4.137
 9382SOL    HW228193   6.116   1.532   4.157
 9383SOL     OW28194   5.838   1.347   4.012
 9383SOL    HW128195   5.742   1.341   3.985
 9383SOL    HW228196   5.844   1.386   4.104
 9384SOL     OW28197   5.700   1.033   5.451
 9384SOL    HW128198   5.619   1.006   5.502
 9384SOL    HW228199   5.780   0.989   5.491
 9385SOL     OW28200   6.254   0.239   5.234
 9385SOL    HW128201   6.334   0.211   5.180
 9385SOL    HW228202   6.284   0.270   5.324
 9386SOL     OW28203   5.661   0.333   3.758
 9386SOL    HW128204   5.565   0.311   3.741
 9386SOL    HW228205   5.686   0.414   3.704
 9387SOL     OW28206   5.659   0.178   4.041
 9387SOL    HW128207   5.661   0.248   3.970
 9387SOL    HW228208   5.710   0.098   4.011
 9388SOL     OW28209   6.211   0.829   5.158
 9388SOL    HW128210   6.267   0.910   5.143
 9388SOL    HW228211   6.270   0.749   5.169
 9389SOL     OW28212   6.310   0.557   5.429
 9389SOL    HW128213   6.352   0.626   5.488
 9389SOL    HW228214   6.326   0.466   5.467
 9390SOL     OW28215   0.001   1.263   5.374
 9390SOL    HW128216   7.000   1.198   5.450
 9390SOL    HW228217   0.080   1.243   5.315
 9391SOL     OW28218   5.958   1.738   5.291
 9391SOL    HW128219   5.873   1.790   5.277
 9391SOL    HW228220   5.936   1.650   5.333
 9392SOL     OW28221   6.818   0.308   4.164
 9392SOL    HW128222   6.891   0.256   4.119
 9392SOL    HW228223   6.858   0.362   4.238
 9393SOL     OW28224   6.174   0.737   4.391
 9393SOL    HW128225   6.214   0.828   4.380
 9393SOL    HW228226   6.104   0.723   4.321
 9394SOL     OW28227   6.428   1.367   3.756
 9394SOL    HW128228   6.410   1.388   3.852
 9394SOL    HW228229   6.460   1.450   3.709
 9395SOL     OW28230   6.251   1.785   4.665
 9395SOL    HW128231   6.227   1.880   4.645
 9395SOL    HW228232   6.350   1.773   4.657
 9396SOL     OW28233   6.454   0.970   4.580
 9396SOL    HW128234   6.506   0.893   4.616
 9396SOL    HW228235   6.412   1.020   4.657
 9397SOL     OW28236   6.671   0.989   3.812
 9397SOL    HW128237   6.636   1.043   3.735
 9397SOL    HW228238   6.744   0.929   3.779
 9398SOL     OW28239   5.817   1.299   5.581
 9398SOL    HW128240   5.750   1.233   5.547
 9398SOL    HW228241   5.804   1.313   5.679
 9399SOL     OW28242   5.673   1.230   4.387
 9399SOL    HW128243   5.677   1.184   4.476
 9399SOL    HW228244   5.742   1.190   4.326
 9400SOL     OW28245   6.262   1.411   5.351
 9400SOL    HW128246   6.185   1.359   5.389
 9400SOL    HW228247   6.265   1.501   5.394
 9401SOL     OW28248   6.016   0.426   4.248
 9401SOL    HW128249   6.051   0.355   4.187
 9401SOL    HW228250   5.963   0.384   4.321
 9402SOL     OW28251   5.921   0.558   5.012
 9402SOL    HW128252   5.977   0.500   5.070
 9402SOL    HW228253   5.937   0.536   4.916
 9403SOL     OW28254   6.412   1.580   4.403
 9403SOL    HW128255   6.395   1.642   4.326
 9403SOL    HW228256   6.336   1.516   4.412
 9404SOL     OW28257   6.974   0.218   4.803
 9404SOL    HW128258   0.005   0.134   4.847
 9404SOL    HW228259   6.929   0.276   4.872
 9405SOL     OW28260   6.560   0.057   4.859
 9405SOL    HW128261   6.505   6.995   4.803
 9405SOL    HW228262   6.613   0.005   4.925
 9406SOL     OW28263   6.360   1.332   4.044
 9406SOL    HW128264   6.332   1.236   4.051
 9406SOL    HW228265   6.445   1.346   4.095
 9407SOL     OW28266   6.209   1.559   5.013
 9407SOL    HW128267   6.206   1.646   5.063
 9407SOL    HW228268   6.300   1.547   4.973
 9408SOL     OW28269   5.629   1.064   4.032
 9408SOL    HW128270   5.727   1.064   4.012
 9408SOL    HW228271   5.599   0.971   4.054
 9409SOL     OW28272   6.466   1.665   4.066
 9409SOL    HW128273   6.393   1.643   4.001
 9409SOL    HW228274   6.438   1.742   4.124
 9410SOL     OW28275   5.806   0.619   5.714
 9410SOL    HW128276   5.717   0.619   5.758
 9410SOL    HW228277   5.795   0.598   5.616
 9411SOL     OW28278   5.803   0.307   6.586
 9411SOL    HW128279   5.844   0.265   6.666
 9411SOL    HW228280   5.722   0.255   6.558
 9412SOL     OW28281   5.596   0.395   6.213
 9412SOL    HW128282   5.507   0.415   6.255
 9412SOL    HW228283   5.585   0.322   6.146
 9413SOL     OW28284   6.143   1.280   6.755
 9413SOL    HW128285   6.056   1.305   6.713
 9413SOL    HW228286   6.175   1.355   6.813
 9414SOL     OW28287   0.070   1.546   6.346
 9414SOL    HW128288   0.104   1.452   6.354
 9414SOL    HW228289   0.040   1.562   6.252
 9415SOL     OW28290   6.693   0.719   6.275
 9415SOL    HW128291   6.759   0.793   6.264
 9415SOL    HW228292   6.657   0.720   6.368
 9416SOL     OW28293   6.338   1.141   6.625
 9416SOL    HW128294   6.266   1.168   6.688
 9416SOL    HW228295   6.375   1.222   6.580
 9417SOL     OW28296   6.269   0.999   6.235
 9417SOL    HW128297   6.340   0.988   6.304
 9417SOL    HW228298   6.195   1.055   6.271
 9418SOL     OW28299   5.918   1.411   6.648
 9418SOL    HW128300   5.833   1.379   6.606
 9418SOL    HW228301   5.965   1.473   6.586
 9419SOL     OW28302   5.808   1.714   6.057
 9419SOL    HW128303   5.826   1.793   6.117
 9419SOL    HW228304   5.883   1.705   5.992
 9420SOL     OW28305   5.819   1.443   6.122
 9420SOL    HW128306   5.803   1.542   6.122
 9420SOL    HW228307   5.760   1.400   6.190
 9421SOL     OW28308   5.852   1.091   6.485
 9421SOL    HW128309   5.849   0.998   6.521
 9421SOL    HW228310   5.794   1.150   6.542
 9422SOL     OW28311   6.176   1.827   6.957
 9422SOL    HW128312   6.099   1.785   0.007
 9422SOL    HW228313   6.208   1.907   0.008
 9423SOL     OW28314   6.168   0.987   5.727
 9423SOL    HW128315   6.215   1.034   5.652
 9423SOL    HW228316   6.208   1.015   5.814
 9424SOL     OW28317   5.701   0.662   6.150
 9424SOL    HW128318   5.673   0.567   6.167
 9424SOL    HW228319   5.695   0.714   6.235
 9425SOL     OW28320   5.615   1.590   5.709
 9425SOL    HW128321   5.599   1.494   5.728
 9425SOL    HW228322   5.594   1.644   5.791
 9426SOL     OW28323   6.200   1.390   6.319
 9426SOL    HW128324   6.153   1.303   6.333
 9426SOL    HW228325   6.186   1.421   6.225
 9427SOL     OW28326   6.822   1.191   0.023
 9427SOL    HW128327   6.871   1.144   6.950
 9427SOL    HW228328   6.887   1.237   0.083
 9428SOL     OW28329   6.411   0.026   6.100
 9428SOL    HW128330   6.449   0.117   6.083
 9428SOL    HW228331   6.311   0.033   6.104
 9429SOL     OW28332   5.778   0.977   6.847
 9429SOL    HW128333   5.861   0.924   6.830
 9429SOL    HW228334   5.698   0.923   6.821
 9430SOL     OW28335   6.179   0.719   5.858
 9430SOL    HW128336   6.184   0.805   5.808
 9430SOL    HW228337   6.110   0.726   5.930
 9431SOL     OW28338   6.853   0.370   6.479
 9431SOL    HW128339   6.756   0.355   6.498
 9431SOL    HW228340   6.908   0.332   6.554
 9432SOL     OW28341   6.402   0.588   0.048
 9432SOL    HW128342   6.349   0.646   0.109
 9432SOL    HW228343   6.342   0.546   6.981
 9433SOL     OW28344   6.579   0.365   6.806
 9433SOL    HW128345   6.523   0.436   6.850
 9433SOL    HW228346   6.535   0.336   6.721
 9434SOL     OW28347   6.635   0.701   6.010
 9434SOL    HW128348   6.653   0.702   6.108
 9434SOL    HW228349   6.548   0.653   5.993
 9435SOL     OW28350   5.675   0.828   6.366
 9435SOL    HW128351   5.761   0.816   6.416
 9435SOL    HW228352   5.626   0.907   6.402
 9436SOL     OW28353   5.742   1.853   0.151
 9436SOL    HW128354   5.703   1.776   0.202
 9436SOL    HW228355   5.690   1.866   0.066
 9437SOL     OW28356   6.475   0.353   5.785
 9437SOL    HW128357   6.523   0.413   5.720
 9437SOL    HW228358   6.452   0.267   5.739
 9438SOL     OW28359   6.927   1.132   6.102
 9438SOL    HW128360   6.997   1.116   6.033
 9438SOL    HW228361   6.875   1.214   6.078
 9439SOL     OW28362   6.092   0.198   6.499
 9439SOL    HW128363   6.136   0.242   6.578
 9439SOL    HW228364   6.110   0.251   6.417
 9440SOL     OW28365   6.571   1.449   6.056
 9440SOL    HW128366   6.541   1.526   6.001
 9440SOL    HW228367   6.545   1.463   6.152
 9441SOL     OW28368   5.941   1.814   6.453
 9441SOL    HW128369   5.983   1.723   6.463
 9441SOL    HW228370   6.009   1.884   6.476
 9442SOL     OW28371   5.908   0.959   5.840
 9442SOL    HW128372   5.995   0.979   5.797
 9442SOL    HW228373   5.871   0.874   5.803
 9443SOL     OW28374   6.712   1.772   5.828
 9443SOL    HW128375   6.629   1.742   5.876
 9443SOL    HW228376   6.726   1.714   5.747
 9444SOL     OW28377   6.049   1.736   5.903
 9444SOL    HW128378   6.091   1.797   5.970
 9444SOL    HW228379   6.120   1.698   5.844
 9445SOL     OW28380   5.851   1.800   6.821
 9445SOL    HW128381   5.906   1.748   6.887
 9445SOL    HW228382   5.815   1.738   6.752
 9446SOL     OW28383   6.521   1.703   6.479
 9446SOL    HW128384   6.602   1.656   6.512
 9446SOL    HW228385   6.479   1.650   6.406
 9447SOL     OW28386   5.981   0.686   6.060
 9447SOL    HW128387   6.001   0.589   6.074
 9447SOL    HW228388   5.885   0.703   6.079
 9448SOL     OW28389   6.229   0.111   5.688
 9448SOL    HW128390   6.269   0.036   5.741
 9448SOL    HW228391   6.167   0.073   5.619
 9449SOL     OW28392   6.459   1.519   6.770
 9449SOL    HW128393   6.442   1.482   6.679
 9449SOL    HW228394   6.477   1.443   6.834
 9450SOL     OW28395   6.404   1.390   6.525
 9450SOL    HW128396   6.494   1.377   6.483
 9450SOL    HW228397   6.334   1.395   6.454
 9451SOL     OW28398   6.510   0.511   6.484
 9451SOL    HW128399   6.484   0.509   6.387
 9451SOL    HW228400   6.543   0.420   6.511
 9452SOL     OW28401   6.143   0.067   6.082
 9452SOL    HW128402   6.061   0.055   6.139
 9452SOL    HW228403   6.128   0.142   6.017
 9453SOL     OW28404   6.989   1.123   5.605
 9453SOL    HW128405   0.025   1.074   5.685
 9453SOL    HW228406   6.922   1.191   5.636
 9454SOL     OW28407   5.897   0.048   5.772
 9454SOL    HW128408   5.937   0.139   5.769
 9454SOL    HW228409   5.950   6.990   5.834
 9455SOL     OW28410   6.539   0.264   6.040
 9455SOL    HW128411   6.503   0.299   5.954
 9455SOL    HW228412   6.638   0.275   6.042
 9456SOL     OW28413   6.784   1.570   6.381
 9456SOL    HW128414   6.795   1.639   6.310
 9456SOL    HW228415   6.871   1.557   6.428
 9457SOL     OW28416   6.054   1.151   6.314
 9457SOL    HW128417   5.987   1.132   6.386
 9457SOL    HW228418   6.012   1.138   6.225
 9458SOL     OW28419   6.838   1.791   6.192
 9458SOL    HW128420   6.875   1.853   6.123
 9458SOL    HW228421   6.767   1.838   6.245
 9459SOL     OW28422   6.608   0.539   5.614
 9459SOL    HW128423   6.562   0.626   5.597
 9459SOL    HW228424   6.672   0.550   5.690
 9460SOL     OW28425   6.163   0.220   6.776
 9460SOL    HW128426   6.183   0.127   6.745
 9460SOL    HW228427   6.066   0.228   6.799
 9461SOL     OW28428   6.449   0.461   6.223
 9461SOL    HW128429   6.402   0.525   6.163
 9461SOL    HW228430   6.477   0.381   6.170
 9462SOL     OW28431   6.531   0.040   6.350
 9462SOL    HW128432   6.477   0.024   6.268
 9462SOL    HW228433   6.605   6.973   6.356
 9463SOL     OW28434   6.073   1.422   5.744
 9463SOL    HW128435   5.991   1.394   5.795
 9463SOL    HW228436   6.074   1.375   5.656
 9464SOL     OW28437   6.110   0.262   5.889
 9464SOL    HW128438   6.166   0.213   5.823
 9464SOL    HW228439   6.085   0.352   5.852
 9465SOL     OW28440   0.225   1.576   0.247
 9465SOL    HW128441   0.237   1.635   0.167
 9465SOL    HW228442   0.301   1.512   0.252
 9466SOL     OW28443   6.721   1.221   6.690
 9466SOL    HW128444   6.642   1.208   6.750
 9466SOL    HW228445   6.689   1.251   6.600
 9467SOL     OW28446   6.298   1.058   5.959
 9467SOL    HW128447   6.281   1.042   6.056
 9467SOL    HW228448   6.377   1.005   5.929
 9468SOL     OW28449   6.011   0.815   6.846
 9468SOL    HW128450   6.066   0.842   6.926
 9468SOL    HW228451   5.975   0.723   6.861
 9469SOL     OW28452   6.839   0.396   6.845
 9469SOL    HW128453   6.844   0.482   6.896
 9469SOL    HW228454   6.745   0.379   6.816
 9470SOL     OW28455   5.678   1.560   6.858
 9470SOL    HW128456   5.619   1.634   6.891
 9470SOL    HW228457   5.761   1.557   6.915
 9471SOL     OW28458   5.928   1.118   6.073
 9471SOL    HW128459   5.933   1.200   6.016
 9471SOL    HW228460   5.926   1.037   6.014
 9472SOL     OW28461   6.138   0.546   6.447
 9472SOL    HW128462   6.150   0.605   6.367
 9472SOL    HW228463   6.208   0.568   6.515
 9473SOL     OW28464   6.824   1.370   6.005
 9473SOL    HW128465   6.879   1.447   6.038
 9473SOL    HW228466   6.727   1.388   6.021
 9474SOL     OW28467   6.822   1.475   6.757
 9474SOL    HW128468   6.917   1.465   6.786
 9474SOL    HW228469   6.784   1.385   6.736
 9475SOL     OW28470   5.951   1.493   6.903
 9475SOL    HW128471   5.922   1.456   6.815
 9475SOL    HW228472   6.045   1.528   6.896
 9476SOL     OW28473   6.171   0.872   6.623
 9476SOL    HW128474   6.205   0.965   6.617
 9476SOL    HW228475   6.111   0.863   6.702
 9477SOL     OW28476   6.950   0.840   6.608
 9477SOL    HW128477   6.858   0.826   6.572
 9477SOL    HW228478   6.987   0.752   6.639
 9478SOL     OW28479   6.769   0.538   5.836
 9478SOL    HW128480   6.790   0.452   5.882
 9478SOL    HW228481   6.730   0.602   5.901
 9479SOL     OW28482   5.898   0.210   6.834
 9479SOL    HW128483   5.839   0.211   6.915
 9479SOL    HW228484   5.895   0.119   6.792
 9480SOL     OW28485   5.612   1.301   6.869
 9480SOL    HW128486   5.666   1.253   6.938
 9480SOL    HW228487   5.640   1.397   6.866
 9481SOL     OW28488   6.311   0.631   6.642
 9481SOL    HW128489   6.388   0.612   6.581
 9481SOL    HW228490   6.277   0.724   6.624
 9482SOL     OW28491   5.909   0.059   6.219
 9482SOL    HW128492   5.884   0.153   6.244
 9482SOL    HW228493   5.852   6.995   6.270
 9483SOL     OW28494   0.197   0.443   5.932
 9483SOL    HW128495   0.213   0.351   5.970
 9483SOL    HW228496   0.180   0.507   6.007
 9484SOL     OW28497   6.611   0.756   6.549
 9484SOL    HW128498   6.603   0.775   6.647
 9484SOL    HW228499   6.584   0.661   6.532
 9485SOL     OW28500   6.883   0.818   5.615
 9485SOL    HW128501   6.942   0.746   5.654
 9485SOL    HW228502   6.924   0.851   5.530
 9486SOL     OW28503   6.654   1.331   6.443
 9486SOL    HW128504   6.657   1.257   6.377
 9486SOL    HW228505   6.703   1.411   6.406
 9487SOL     OW28506   5.899   0.808   6.528
 9487SOL    HW128507   5.995   0.836   6.522
 9487SOL    HW228508   5.893   0.714   6.560
 9488SOL     OW28509   5.926   0.539   6.607
 9488SOL    HW128510   5.880   0.452   6.592
 9488SOL    HW228511   6.005   0.546   6.546
 9489SOL     OW28512   6.795   0.233   0.069
 9489SOL    HW128513   6.745   0.271   0.147
 9489SOL    HW228514   6.767   0.280   6.985
 9490SOL     OW28515   5.586   1.315   5.780
 9490SOL    HW128516   5.497   1.335   5.740
 9490SOL    HW228517   5.587   1.222   5.816
 9491SOL     OW28518   5.676   1.789   6.526
 9491SOL    HW128519   5.642   1.706   6.483
 9491SOL    HW228520   5.772   1.802   6.501
 9492SOL     OW28521   6.078   1.577   6.490
 9492SOL    HW128522   6.148   1.643   6.518
 9492SOL    HW228523   6.119   1.508   6.430
 9493SOL     OW28524   6.566   0.793   6.816
 9493SOL    HW128525   6.634   0.789   6.889
 9493SOL    HW228526   6.478   0.759   6.850
 9494SOL     OW28527   5.636   0.557   6.711
 9494SOL    HW128528   5.684   0.509   6.639
 9494SOL    HW228529   5.701   0.588   6.781
 9495SOL     OW28530   6.403   0.576   5.944
 9495SOL    HW128531   6.411   0.495   5.886
 9495SOL    HW228532   6.324   0.629   5.915
 9496SOL     OW28533   6.266   0.467   6.851
 9496SOL    HW128534   6.232   0.378   6.822
 9496SOL    HW228535   6.275   0.527   6.771
 9497SOL     OW28536   6.451   1.662   0.014
 9497SOL    HW128537   6.464   1.643   6.917
 9497SOL    HW228538   6.522   1.727   0.044
 9498SOL     OW28539   6.046   0.495   5.765
 9498SOL    HW128540   6.110   0.567   5.792
 9498SOL    HW228541   5.954   0.534   5.754
 9499SOL     OW28542   5.742   1.142   0.059
 9499SOL    HW128543   5.798   1.101   0.131
 9499SOL    HW228544   5.752   1.087   6.975
 9500SOL     OW28545   6.888   1.021   6.807
 9500SOL    HW128546   6.918   0.960   6.734
 9500SOL    HW228547   6.834   1.096   6.768
 9501SOL     OW28548   6.888   0.870   5.894
 9501SOL    HW128549   6.821   0.833   5.958
 9501SOL    HW228550   6.858   0.853   5.800
 9502SOL     OW28551   6.841   1.742   6.691
 9502SOL    HW128552   6.928   1.754   6.643
 9502SOL    HW228553   6.830   1.646   6.717
 9503SOL     OW28554   5.667   1.264   6.599
 9503SOL    HW128555   5.648   1.273   6.697
 9503SOL    HW228556   5.600   1.203   6.557
 9504SOL     OW28557   6.979   1.585   6.075
 9504SOL    HW128558   0.064   1.626   6.043
 9504SOL    HW228559   6.917   1.657   6.108
 9505SOL     OW28560   6.870   0.917   6.247
 9505SOL    HW128561   6.957   0.871   6.266
 9505SOL    HW228562   6.888   0.999   6.192
 9506SOL     OW28563   6.253   1.623   5.741
 9506SOL    HW128564   6.270   1.640   5.644
 9506SOL    HW228565   6.197   1.541   5.751
 9507SOL     OW28566   5.845   0.313   6.303
 9507SOL    HW128567   5.756   0.349   6.274
 9507SOL    HW228568   5.850   0.313   6.402
 9508SOL     OW28569   6.749   1.608   5.623
 9508SOL    HW128570   6.770   1.511   5.627
 9508SOL    HW228571   6.687   1.626   5.546
 9509SOL     OW28572   6.366   1.025   6.951
 9509SOL    HW128573   6.427   0.989   6.880
 9509SOL    HW228574   6.410   1.103   6.997
 9510SOL     OW28575   6.504   0.909   5.871
 9510SOL    HW128576   6.568   0.947   5.804
 9510SOL    HW228577   6.550   0.839   5.925
 9511SOL     OW28578   6.642   1.106   6.297
 9511SOL    HW128579   6.567   1.055   6.339
 9511SOL    HW228580   6.709   1.042   6.260
 9512SOL     OW28581   6.598   0.250   6.528
 9512SOL    HW128582   6.564   0.203   6.446
 9512SOL    HW228583   6.603   0.185   6.604
 9513SOL     OW28584   6.191   1.486   6.065
 9513SOL    HW128585   6.242   1.432   5.998
 9513SOL    HW228586   6.115   1.532   6.020
 9514SOL     OW28587   5.838   1.348   5.874
 9514SOL    HW128588   5.742   1.341   5.847
 9514SOL    HW228589   5.844   1.386   5.966
 9515SOL     OW28590   5.661   0.333   5.620
 9515SOL    HW128591   5.565   0.311   5.604
 9515SOL    HW228592   5.686   0.413   5.566
 9516SOL     OW28593   5.659   0.178   5.904
 9516SOL    HW128594   5.661   0.248   5.833
 9516SOL    HW228595   5.711   0.098   5.873
 9517SOL     OW28596   5.968   1.727   0.086
 9517SOL    HW128597   5.890   1.780   0.118
 9517SOL    HW228598   5.971   1.640   0.134
 9518SOL     OW28599   6.818   0.307   6.026
 9518SOL    HW128600   6.891   0.257   5.981
 9518SOL    HW228601   6.857   0.362   6.101
 9519SOL     OW28602   6.174   0.737   6.253
 9519SOL    HW128603   6.214   0.827   6.243
 9519SOL    HW228604   6.103   0.723   6.182
 9520SOL     OW28605   6.428   1.367   5.618
 9520SOL    HW128606   6.410   1.387   5.714
 9520SOL    HW228607   6.460   1.450   5.572
 9521SOL     OW28608   6.252   1.784   6.527
 9521SOL    HW128609   6.228   1.879   6.506
 9521SOL    HW228610   6.351   1.772   6.518
 9522SOL     OW28611   6.455   0.969   6.442
 9522SOL    HW128612   6.506   0.892   6.480
 9522SOL    HW228613   6.414   1.022   6.516
 9523SOL     OW28614   6.671   0.989   5.674
 9523SOL    HW128615   6.636   1.044   5.597
 9523SOL    HW228616   6.744   0.929   5.641
 9524SOL     OW28617   5.673   1.228   6.249
 9524SOL    HW128618   5.677   1.183   6.338
 9524SOL    HW228619   5.743   1.189   6.189
 9525SOL     OW28620   6.017   0.426   6.111
 9525SOL    HW128621   6.051   0.355   6.049
 9525SOL    HW228622   5.962   0.383   6.183
 9526SOL     OW28623   5.899   0.552   6.880
 9526SOL    HW128624   5.967   0.497   6.928
 9526SOL    HW228625   5.913   0.543   6.781
 9527SOL     OW28626   6.414   1.577   6.263
 9527SOL    HW128627   6.395   1.640   6.188
 9527SOL    HW228628   6.337   1.515   6.275
 9528SOL     OW28629   6.977   0.228   6.682
 9528SOL    HW128630   0.010   0.149   6.734
 9528SOL    HW228631   6.929   0.291   6.743
 9529SOL     OW28632   6.578   0.051   6.705
 9529SOL    HW128633   6.496   6.998   6.684
 9529SOL    HW228634   6.614   0.023   6.794
 9530SOL     OW28635   6.361   1.332   5.905
 9530SOL    HW128636   6.332   1.236   5.913
 9530SOL    HW228637   6.445   1.346   5.957
 9531SOL     OW28638   6.205   1.570   6.861
 9531SOL    HW128639   6.203   1.665   6.892
 9531SOL    HW228640   6.295   1.550   6.822
 9532SOL     OW28641   5.628   1.064   5.893
 9532SOL    HW128642   5.727   1.064   5.875
 9532SOL    HW228643   5.599   0.971   5.915
 9533SOL     OW28644   6.467   1.666   5.927
 9533SOL    HW128645   6.393   1.643   5.863
 9533SOL    HW228646   6.438   1.742   5.985
 9534SOL     OW28647   5.806   2.499   0.136
 9534SOL    HW128648   5.710   2.483   0.161
 9534SOL    HW228649   5.818   2.480   0.039
 9535SOL     OW28650   5.808   2.145   0.994
 9535SOL    HW128651   5.841   2.110   1.082
 9535SOL    HW228652   5.715   2.112   0.978
 9536SOL     OW28653   5.587   2.250   0.637
 9536SOL    HW128654   5.505   2.284   0.684
 9536SOL    HW228655   5.566   2.164   0.591
 9537SOL     OW28656   6.155   3.159   1.186
 9537SOL    HW128657   6.065   3.155   1.142
 9537SOL    HW228658   6.172   3.252   1.219
 9538SOL     OW28659   0.066   3.409   0.761
 9538SOL    HW128660   0.101   3.316   0.774
 9538SOL    HW228661   0.030   3.419   0.669
 9539SOL     OW28662   6.693   2.581   0.689
 9539SOL    HW128663   6.760   2.655   0.678
 9539SOL    HW228664   6.656   2.583   0.782
 9540SOL     OW28665   6.330   3.002   1.043
 9540SOL    HW128666   6.262   3.037   1.107
 9540SOL    HW228667   6.374   3.079   0.995
 9541SOL     OW28668   6.461   2.627   1.823
 9541SOL    HW128669   6.442   2.694   1.895
 9541SOL    HW228670   6.483   2.675   1.738
 9542SOL     OW28671   6.268   2.858   0.650
 9542SOL    HW128672   6.340   2.849   0.720
 9542SOL    HW228673   6.195   2.916   0.686
 9543SOL     OW28674   6.293   3.012   1.814
 9543SOL    HW128675   6.343   3.092   1.847
 9543SOL    HW228676   6.207   3.041   1.772
 9544SOL     OW28677   5.912   3.285   1.066
 9544SOL    HW128678   5.836   3.240   1.019
 9544SOL    HW228679   5.965   3.338   0.999
 9545SOL     OW28680   6.037   2.255   1.479
 9545SOL    HW128681   6.117   2.196   1.486
 9545SOL    HW228682   5.955   2.201   1.497
 9546SOL     OW28683   5.805   3.585   0.471
 9546SOL    HW128684   5.823   3.664   0.529
 9546SOL    HW228685   5.890   3.558   0.425
 9547SOL     OW28686   6.717   3.207   1.704
 9547SOL    HW128687   6.812   3.176   1.707
 9547SOL    HW228688   6.656   3.129   1.706
 9548SOL     OW28689   5.800   3.310   0.532
 9548SOL    HW128690   5.789   3.409   0.542
 9548SOL    HW228691   5.749   3.263   0.605
 9549SOL     OW28692   5.854   2.952   0.900
 9549SOL    HW128693   5.849   2.858   0.933
 9549SOL    HW228694   5.792   3.009   0.953
 9550SOL     OW28695   6.183   3.660   1.425
 9550SOL    HW128696   6.101   3.635   1.476
 9550SOL    HW228697   6.214   3.751   1.454
 9551SOL     OW28698   6.173   2.830   0.145
 9551SOL    HW128699   6.230   2.853   0.067
 9551SOL    HW228700   6.209   2.875   0.227
 9552SOL     OW28701   5.701   2.515   0.562
 9552SOL    HW128702   5.671   2.422   0.582
 9552SOL    HW228703   5.696   2.571   0.645
 9553SOL     OW28704   5.598   3.446   0.146
 9553SOL    HW128705   5.529   3.376   0.126
 9553SOL    HW228706   5.576   3.490   0.233
 9554SOL     OW28707   5.709   2.606   1.585
 9554SOL    HW128708   5.806   2.633   1.586
 9554SOL    HW228709   5.652   2.688   1.586
 9555SOL     OW28710   6.197   3.251   0.737
 9555SOL    HW128711   6.151   3.163   0.750
 9555SOL    HW228712   6.188   3.280   0.641
 9556SOL     OW28713   6.840   3.084   1.431
 9556SOL    HW128714   6.878   3.013   1.371
 9556SOL    HW228715   6.902   3.098   1.509
 9557SOL     OW28716   6.404   1.876   0.519
 9557SOL    HW128717   6.449   1.961   0.492
 9557SOL    HW228718   6.305   1.890   0.525
 9558SOL     OW28719   5.776   2.824   1.277
 9558SOL    HW128720   5.865   2.780   1.262
 9558SOL    HW228721   5.707   2.777   1.222
 9559SOL     OW28722   6.780   3.676   1.616
 9559SOL    HW128723   6.766   3.744   1.545
 9559SOL    HW228724   6.779   3.584   1.575
 9560SOL     OW28725   5.927   2.111   1.833
 9560SOL    HW128726   5.975   2.198   1.847
 9560SOL    HW228727   5.829   2.124   1.852
 9561SOL     OW28728   6.185   2.579   0.268
 9561SOL    HW128729   6.191   2.669   0.224
 9561SOL    HW228730   6.119   2.583   0.344
 9562SOL     OW28731   6.870   2.185   0.895
 9562SOL    HW128732   6.772   2.173   0.910
 9562SOL    HW228733   6.920   2.149   0.973
 9563SOL     OW28734   6.384   2.474   1.451
 9563SOL    HW128735   6.355   2.451   1.544
 9563SOL    HW228736   6.344   2.409   1.387
 9564SOL     OW28737   6.942   2.322   1.675
 9564SOL    HW128738   6.919   2.407   1.722
 9564SOL    HW228739   0.042   2.314   1.667
 9565SOL     OW28740   6.543   2.747   1.583
 9565SOL    HW128741   6.598   2.673   1.545
 9565SOL    HW228742   6.490   2.789   1.509
 9566SOL     OW28743   6.583   2.273   1.232
 9566SOL    HW128744   6.491   2.292   1.267
 9566SOL    HW228745   6.577   2.224   1.145
 9567SOL     OW28746   6.636   2.564   0.426
 9567SOL    HW128747   6.656   2.567   0.524
 9567SOL    HW228748   6.549   2.517   0.411
 9568SOL     OW28749   5.676   2.686   0.778
 9568SOL    HW128750   5.761   2.675   0.829
 9568SOL    HW228751   5.626   2.764   0.813
 9569SOL     OW28752   5.714   3.734   1.588
 9569SOL    HW128753   5.719   3.706   1.684
 9569SOL    HW228754   5.629   3.700   1.547
 9570SOL     OW28755   6.465   2.212   0.213
 9570SOL    HW128756   6.475   2.279   0.140
 9570SOL    HW228757   6.491   2.121   0.178
 9571SOL     OW28758   6.926   2.997   0.526
 9571SOL    HW128759   6.987   2.969   0.452
 9571SOL    HW228760   6.876   3.079   0.499
 9572SOL     OW28761   6.133   2.036   0.901
 9572SOL    HW128762   6.137   2.066   0.996
 9572SOL    HW228763   6.136   2.115   0.840
 9573SOL     OW28764   6.571   3.303   0.474
 9573SOL    HW128765   6.537   3.381   0.423
 9573SOL    HW228766   6.548   3.314   0.571
 9574SOL     OW28767   5.942   3.676   0.870
 9574SOL    HW128768   5.986   3.586   0.876
 9574SOL    HW228769   6.009   3.747   0.889
 9575SOL     OW28770   6.797   3.419   1.504
 9575SOL    HW128771   6.802   3.344   1.569
 9575SOL    HW228772   6.750   3.389   1.421
 9576SOL     OW28773   5.901   2.822   0.229
 9576SOL    HW128774   5.994   2.836   0.195
 9576SOL    HW228775   5.872   2.729   0.210
 9577SOL     OW28776   6.053   3.125   1.730
 9577SOL    HW128777   6.027   3.132   1.634
 9577SOL    HW228778   5.971   3.125   1.787
 9578SOL     OW28779   6.682   3.626   0.235
 9578SOL    HW128780   6.616   3.572   0.287
 9578SOL    HW228781   6.710   3.574   0.154
 9579SOL     OW28782   5.788   2.137   1.503
 9579SOL    HW128783   5.706   2.194   1.498
 9579SOL    HW228784   5.766   2.050   1.547
 9580SOL     OW28785   0.233   3.245   0.044
 9580SOL    HW128786   0.164   3.294   0.097
 9580SOL    HW228787   0.209   3.147   0.040
 9581SOL     OW28788   6.067   3.562   0.376
 9581SOL    HW128789   6.097   3.646   0.421
 9581SOL    HW228790   6.128   3.540   0.300
 9582SOL     OW28791   5.845   3.654   1.226
 9582SOL    HW128792   5.896   3.581   1.273
 9582SOL    HW228793   5.826   3.626   1.132
 9583SOL     OW28794   6.524   3.563   0.896
 9583SOL    HW128795   6.610   3.515   0.917
 9583SOL    HW228796   6.476   3.514   0.824
 9584SOL     OW28797   5.983   2.549   0.469
 9584SOL    HW128798   6.003   2.453   0.488
 9584SOL    HW228799   5.887   2.567   0.488
 9585SOL     OW28800   6.349   2.139   1.759
 9585SOL    HW128801   6.431   2.082   1.752
 9585SOL    HW228802   6.295   2.109   1.837
 9586SOL     OW28803   6.460   3.380   1.191
 9586SOL    HW128804   6.440   3.344   1.100
 9586SOL    HW228805   6.532   3.325   1.234
 9587SOL     OW28806   6.402   3.252   0.942
 9587SOL    HW128807   6.492   3.239   0.901
 9587SOL    HW228808   6.332   3.257   0.870
 9588SOL     OW28809   6.512   2.368   0.901
 9588SOL    HW128810   6.487   2.362   0.804
 9588SOL    HW228811   6.544   2.279   0.932
 9589SOL     OW28812   6.135   1.933   0.503
 9589SOL    HW128813   6.051   1.930   0.558
 9589SOL    HW228814   6.131   2.011   0.441
 9590SOL     OW28815   6.531   2.111   0.461
 9590SOL    HW128816   6.495   2.151   0.377
 9590SOL    HW228817   6.630   2.124   0.464
 9591SOL     OW28818   6.655   2.529   1.460
 9591SOL    HW128819   6.561   2.496   1.460
 9591SOL    HW228820   6.719   2.452   1.461
 9592SOL     OW28821   6.780   3.436   0.802
 9592SOL    HW128822   6.798   3.500   0.727
 9592SOL    HW228823   6.866   3.418   0.851
 9593SOL     OW28824   6.057   3.014   0.732
 9593SOL    HW128825   5.986   2.993   0.799
 9593SOL    HW228826   6.019   3.006   0.640
 9594SOL     OW28827   6.839   3.656   0.604
 9594SOL    HW128828   6.865   3.718   0.529
 9594SOL    HW228829   6.769   3.700   0.660
 9595SOL     OW28830   6.683   2.453   0.026
 9595SOL    HW128831   6.584   2.458   0.029
 9595SOL    HW228832   6.719   2.431   0.117
 9596SOL     OW28833   5.673   2.419   1.391
 9596SOL    HW128834   5.767   2.415   1.359
 9596SOL    HW228835   5.664   2.490   1.461
 9597SOL     OW28836   6.145   2.087   1.173
 9597SOL    HW128837   6.194   2.009   1.213
 9597SOL    HW228838   6.049   2.085   1.202
 9598SOL     OW28839   6.450   2.316   0.640
 9598SOL    HW128840   6.410   2.383   0.578
 9598SOL    HW228841   6.476   2.234   0.589
 9599SOL     OW28842   6.606   1.908   0.740
 9599SOL    HW128843   6.540   1.910   0.664
 9599SOL    HW228844   6.581   1.836   0.804
 9600SOL     OW28845   6.059   3.285   0.150
 9600SOL    HW128846   5.999   3.236   0.213
 9600SOL    HW228847   6.020   3.285   0.058
 9601SOL     OW28848   6.101   2.127   0.312
 9601SOL    HW128849   6.111   2.059   0.240
 9601SOL    HW228850   6.077   2.216   0.272
 9602SOL     OW28851   6.628   3.210   1.332
 9602SOL    HW128852   6.545   3.183   1.381
 9602SOL    HW228853   6.707   3.166   1.374
 9603SOL     OW28854   6.727   3.088   1.101
 9603SOL    HW128855   6.668   3.118   1.176
 9603SOL    HW228856   6.686   3.114   1.014
 9604SOL     OW28857   6.505   1.958   1.387
 9604SOL    HW128858   6.526   1.934   1.293
 9604SOL    HW228859   6.585   1.999   1.430
 9605SOL     OW28860   6.566   2.974   1.728
 9605SOL    HW128861   6.471   2.997   1.752
 9605SOL    HW228862   6.566   2.895   1.667
 9606SOL     OW28863   6.298   2.919   0.375
 9606SOL    HW128864   6.280   2.903   0.472
 9606SOL    HW228865   6.377   2.865   0.347
 9607SOL     OW28866   6.008   2.677   1.254
 9607SOL    HW128867   6.081   2.690   1.321
 9607SOL    HW228868   5.969   2.586   1.264
 9608SOL     OW28869   6.851   2.235   1.293
 9608SOL    HW128870   6.907   2.315   1.312
 9608SOL    HW228871   6.759   2.264   1.266
 9609SOL     OW28872   5.661   3.434   1.353
 9609SOL    HW128873   5.625   3.504   1.291
 9609SOL    HW228874   5.760   3.432   1.347
 9610SOL     OW28875   5.952   2.982   0.484
 9610SOL    HW128876   5.931   3.059   0.424
 9610SOL    HW228877   5.949   2.897   0.432
 9611SOL     OW28878   6.134   2.406   0.862
 9611SOL    HW128879   6.149   2.464   0.782
 9611SOL    HW228880   6.204   2.426   0.931
 9612SOL     OW28881   6.825   3.227   0.417
 9612SOL    HW128882   6.877   3.306   0.449
 9612SOL    HW228883   6.727   3.244   0.432
 9613SOL     OW28884   6.851   3.339   1.140
 9613SOL    HW128885   6.930   3.334   1.201
 9613SOL    HW228886   6.809   3.248   1.131
 9614SOL     OW28887   5.934   3.392   1.310
 9614SOL    HW128888   5.918   3.347   1.222
 9614SOL    HW228889   6.032   3.405   1.322
 9615SOL     OW28890   6.001   2.609   1.600
 9615SOL    HW128891   6.068   2.654   1.541
 9615SOL    HW228892   6.032   2.516   1.621
 9616SOL     OW28893   6.577   1.986   1.753
 9616SOL    HW128894   6.630   2.070   1.734
 9616SOL    HW228895   6.632   1.906   1.730
 9617SOL     OW28896   6.078   1.900   1.750
 9617SOL    HW128897   6.034   1.841   1.682
 9617SOL    HW228898   6.020   1.979   1.768
 9618SOL     OW28899   6.170   2.733   1.034
 9618SOL    HW128900   6.204   2.827   1.029
 9618SOL    HW228901   6.109   2.724   1.113
 9619SOL     OW28902   6.951   2.711   1.032
 9619SOL    HW128903   6.859   2.700   0.994
 9619SOL    HW228904   6.988   2.621   1.057
 9620SOL     OW28905   6.769   2.384   0.270
 9620SOL    HW128906   6.785   2.304   0.328
 9620SOL    HW228907   6.731   2.458   0.326
 9621SOL     OW28908   5.883   2.059   1.246
 9621SOL    HW128909   5.847   2.095   1.332
 9621SOL    HW228910   5.868   1.960   1.243
 9622SOL     OW28911   5.637   3.172   1.275
 9622SOL    HW128912   5.669   3.111   1.348
 9622SOL    HW228913   5.641   3.266   1.308
 9623SOL     OW28914   6.311   2.494   1.056
 9623SOL    HW128915   6.387   2.473   0.994
 9623SOL    HW228916   6.275   2.585   1.036
 9624SOL     OW28917   5.891   1.927   0.630
 9624SOL    HW128918   5.867   2.022   0.649
 9624SOL    HW228919   5.903   1.877   0.715
 9625SOL     OW28920   0.183   2.282   0.376
 9625SOL    HW128921   0.263   2.239   0.416
 9625SOL    HW228922   0.163   2.367   0.425
 9626SOL     OW28923   6.608   2.617   0.959
 9626SOL    HW128924   6.603   2.638   1.057
 9626SOL    HW228925   6.583   2.521   0.944
 9627SOL     OW28926   6.555   3.428   1.706
 9627SOL    HW128927   6.542   3.472   1.618
 9627SOL    HW228928   6.607   3.344   1.695
 9628SOL     OW28929   5.938   2.779   1.806
 9628SOL    HW128930   6.019   2.802   1.860
 9628SOL    HW228931   5.964   2.714   1.734
 9629SOL     OW28932   6.887   2.704   0.033
 9629SOL    HW128933   6.922   2.614   0.009
 9629SOL    HW228934   6.905   2.768   6.958
 9630SOL     OW28935   6.650   3.195   0.857
 9630SOL    HW128936   6.654   3.120   0.791
 9630SOL    HW228937   6.701   3.273   0.821
 9631SOL     OW28938   5.897   2.668   0.943
 9631SOL    HW128939   5.993   2.694   0.938
 9631SOL    HW228940   5.890   2.573   0.976
 9632SOL     OW28941   5.914   2.389   1.012
 9632SOL    HW128942   5.875   2.298   1.001
 9632SOL    HW228943   5.994   2.398   0.954
 9633SOL     OW28944   6.695   2.224   1.689
 9633SOL    HW128945   6.647   2.286   1.752
 9633SOL    HW228946   6.790   2.252   1.681
 9634SOL     OW28947   6.743   2.057   1.474
 9634SOL    HW128948   6.722   2.116   1.552
 9634SOL    HW228949   6.787   2.112   1.403
 9635SOL     OW28950   5.680   3.645   0.944
 9635SOL    HW128951   5.642   3.565   0.898
 9635SOL    HW228952   5.773   3.662   0.911
 9636SOL     OW28953   6.079   3.438   0.905
 9636SOL    HW128954   6.149   3.504   0.932
 9636SOL    HW228955   6.119   3.370   0.843
 9637SOL     OW28956   6.563   2.654   1.225
 9637SOL    HW128957   6.623   2.629   1.301
 9637SOL    HW228958   6.473   2.612   1.239
 9638SOL     OW28959   5.623   2.414   1.117
 9638SOL    HW128960   5.705   2.401   1.061
 9638SOL    HW228961   5.648   2.416   1.214
 9639SOL     OW28962   5.779   2.385   1.730
 9639SOL    HW128963   5.829   2.330   1.663
 9639SOL    HW228964   5.739   2.465   1.685
 9640SOL     OW28965   6.402   2.435   0.375
 9640SOL    HW128966   6.410   2.354   0.317
 9640SOL    HW228967   6.324   2.490   0.345
 9641SOL     OW28968   5.825   3.409   1.726
 9641SOL    HW128969   5.804   3.483   1.789
 9641SOL    HW228970   5.832   3.323   1.776
 9642SOL     OW28971   6.297   2.311   1.254
 9642SOL    HW128972   6.238   2.233   1.232
 9642SOL    HW228973   6.292   2.378   1.180
 9643SOL     OW28974   6.499   3.548   1.467
 9643SOL    HW128975   6.480   3.499   1.382
 9643SOL    HW228976   6.495   3.647   1.449
 9644SOL     OW28977   6.042   2.362   0.187
 9644SOL    HW128978   6.106   2.434   0.213
 9644SOL    HW228979   5.949   2.398   0.185
 9645SOL     OW28980   5.727   2.999   1.475
 9645SOL    HW128981   5.729   2.955   1.565
 9645SOL    HW228982   5.747   2.932   1.404
 9646SOL     OW28983   6.895   2.907   1.222
 9646SOL    HW128984   6.920   2.834   1.159
 9646SOL    HW228985   6.831   2.970   1.177
 9647SOL     OW28986   6.890   2.723   0.311
 9647SOL    HW128987   6.810   2.686   0.358
 9647SOL    HW228988   6.879   2.710   0.212
 9648SOL     OW28989   6.846   3.610   1.117
 9648SOL    HW128990   6.924   3.627   1.058
 9648SOL    HW228991   6.835   3.511   1.129
 9649SOL     OW28992   5.672   3.128   1.010
 9649SOL    HW128993   5.655   3.142   1.108
 9649SOL    HW228994   5.600   3.069   0.972
 9650SOL     OW28995   6.266   3.535   1.739
 9650SOL    HW128996   6.205   3.614   1.729
 9650SOL    HW228997   6.342   3.544   1.674
 9651SOL     OW28998   6.530   1.963   0.117
 9651SOL    HW128999   6.605   1.991   0.056
 9651SOL    HW229000   6.565   1.896   0.183
 9652SOL     OW29001   6.974   3.442   0.493
 9652SOL    HW129002   0.061   3.475   0.455
 9652SOL    HW229003   6.920   3.519   0.524
 9653SOL     OW29004   5.731   3.649   1.846
 9653SOL    HW129005   5.674   3.581   1.891
 9653SOL    HW229006   5.780   3.703   1.914
 9654SOL     OW29007   6.871   2.778   0.663
 9654SOL    HW129008   6.957   2.731   0.679
 9654SOL    HW229009   6.887   2.862   0.611
 9655SOL     OW29010   6.383   3.138   1.426
 9655SOL    HW129011   6.353   3.184   1.510
 9655SOL    HW229012   6.314   3.153   1.354
 9656SOL     OW29013   6.251   3.471   0.196
 9656SOL    HW129014   6.307   3.494   0.116
 9656SOL    HW229015   6.194   3.391   0.175
 9657SOL     OW29016   5.842   2.179   0.716
 9657SOL    HW129017   5.752   2.214   0.688
 9657SOL    HW229018   5.844   2.170   0.816
 9658SOL     OW29019   6.743   3.487   0.005
 9658SOL    HW129020   6.827   3.453   0.048
 9658SOL    HW229021   6.732   3.444   6.915
 9659SOL     OW29022   6.412   2.871   1.379
 9659SOL    HW129023   6.459   2.858   1.292
 9659SOL    HW229024   6.404   2.968   1.399
 9660SOL     OW29025   6.503   2.770   0.290
 9660SOL    HW129026   6.556   2.799   0.210
 9660SOL    HW229027   6.556   2.702   0.342
 9661SOL     OW29028   5.951   3.164   1.487
 9661SOL    HW129029   5.942   3.245   1.428
 9661SOL    HW229030   5.871   3.106   1.475
 9662SOL     OW29031   6.641   2.969   0.712
 9662SOL    HW129032   6.567   2.917   0.754
 9662SOL    HW229033   6.708   2.906   0.672
 9663SOL     OW29034   6.606   2.101   0.965
 9663SOL    HW129035   6.599   2.056   0.876
 9663SOL    HW229036   6.605   2.031   1.037
 9664SOL     OW29037   6.197   3.340   0.484
 9664SOL    HW129038   6.238   3.289   0.408
 9664SOL    HW229039   6.135   3.409   0.449
 9665SOL     OW29040   5.864   3.181   0.309
 9665SOL    HW129041   5.780   3.170   0.255
 9665SOL    HW229042   5.844   3.235   0.391
 9666SOL     OW29043   5.701   2.896   1.728
 9666SOL    HW129044   5.619   2.869   1.779
 9666SOL    HW229045   5.781   2.851   1.767
 9667SOL     OW29046   6.268   2.058   1.500
 9667SOL    HW129047   6.353   2.033   1.455
 9667SOL    HW229048   6.287   2.091   1.593
 9668SOL     OW29049   5.690   2.185   0.015
 9668SOL    HW129050   5.629   2.130   6.959
 9668SOL    HW229051   5.721   2.265   6.962
 9669SOL     OW29052   5.635   2.036   0.328
 9669SOL    HW129053   5.623   2.128   0.291
 9669SOL    HW229054   5.708   1.989   0.278
 9670SOL     OW29055   6.210   2.691   1.434
 9670SOL    HW129056   6.267   2.772   1.419
 9670SOL    HW229057   6.269   2.610   1.444
 9671SOL     OW29058   6.311   2.419   1.701
 9671SOL    HW129059   6.353   2.485   1.764
 9671SOL    HW229060   6.327   2.327   1.735
 9672SOL     OW29061   0.002   3.125   1.650
 9672SOL    HW129062   7.000   3.060   1.726
 9672SOL    HW229063   0.080   3.105   1.591
 9673SOL     OW29064   5.958   3.600   1.567
 9673SOL    HW129065   5.873   3.652   1.553
 9673SOL    HW229066   5.936   3.512   1.609
 9674SOL     OW29067   6.803   2.172   0.443
 9674SOL    HW129068   6.876   2.116   0.404
 9674SOL    HW229069   6.839   2.225   0.520
 9675SOL     OW29070   6.173   2.597   0.667
 9675SOL    HW129071   6.214   2.688   0.659
 9675SOL    HW229072   6.103   2.586   0.596
 9676SOL     OW29073   6.448   3.245   0.030
 9676SOL    HW129074   6.411   3.210   0.117
 9676SOL    HW229075   6.460   3.344   0.036
 9677SOL     OW29076   6.251   3.647   0.943
 9677SOL    HW129077   6.227   3.742   0.921
 9677SOL    HW229078   6.350   3.634   0.933
 9678SOL     OW29079   6.454   2.832   0.857
 9678SOL    HW129080   6.506   2.754   0.893
 9678SOL    HW229081   6.412   2.882   0.933
 9679SOL     OW29082   6.658   2.842   0.080
 9679SOL    HW129083   6.691   2.935   0.066
 9679SOL    HW229084   6.734   2.777   0.067
 9680SOL     OW29085   5.816   3.161   1.857
 9680SOL    HW129086   5.751   3.094   1.822
 9680SOL    HW229087   5.801   3.175   1.954
 9681SOL     OW29088   5.668   3.096   0.665
 9681SOL    HW129089   5.686   3.045   0.749
 9681SOL    HW229090   5.716   3.052   0.589
 9682SOL     OW29091   6.262   3.273   1.628
 9682SOL    HW129092   6.185   3.221   1.665
 9682SOL    HW229093   6.265   3.363   1.670
 9683SOL     OW29094   6.017   2.291   0.528
 9683SOL    HW129095   6.047   2.219   0.465
 9683SOL    HW229096   5.962   2.250   0.601
 9684SOL     OW29097   5.921   2.418   1.289
 9684SOL    HW129098   5.978   2.360   1.348
 9684SOL    HW229099   5.936   2.392   1.194
 9685SOL     OW29100   6.411   3.442   0.680
 9685SOL    HW129101   6.401   3.499   0.599
 9685SOL    HW229102   6.335   3.378   0.686
 9686SOL     OW29103   6.993   2.082   1.117
 9686SOL    HW129104   0.014   1.992   1.155
 9686SOL    HW229105   6.940   2.135   1.183
 9687SOL     OW29106   6.599   1.877   1.137
 9687SOL    HW129107   6.539   1.810   1.093
 9687SOL    HW229108   6.692   1.840   1.143
 9688SOL     OW29109   6.367   3.180   0.307
 9688SOL    HW129110   6.333   3.089   0.328
 9688SOL    HW229111   6.447   3.200   0.363
 9689SOL     OW29112   6.209   3.421   1.289
 9689SOL    HW129113   6.207   3.508   1.339
 9689SOL    HW229114   6.300   3.409   1.249
 9690SOL     OW29115   5.672   2.915   0.363
 9690SOL    HW129116   5.760   2.893   0.321
 9690SOL    HW229117   5.618   2.832   0.373
 9691SOL     OW29118   6.463   3.521   0.361
 9691SOL    HW129119   6.386   3.496   0.302
 9691SOL    HW229120   6.439   3.604   0.412
 9692SOL     OW29121   5.808   2.480   1.990
 9692SOL    HW129122   5.716   2.481   2.030
 9692SOL    HW229123   5.801   2.458   1.892
 9693SOL     OW29124   5.809   2.144   2.857
 9693SOL    HW129125   5.841   2.110   2.945
 9693SOL    HW229126   5.715   2.112   2.840
 9694SOL     OW29127   5.587   2.248   2.496
 9694SOL    HW129128   5.503   2.278   2.541
 9694SOL    HW229129   5.568   2.164   2.444
 9695SOL     OW29130   6.146   3.141   3.036
 9695SOL    HW129131   6.056   3.140   2.994
 9695SOL    HW229132   6.170   3.235   3.061
 9696SOL     OW29133   0.069   3.407   2.622
 9696SOL    HW129134   0.103   3.313   2.631
 9696SOL    HW229135   0.040   3.424   2.528
 9697SOL     OW29136   6.691   2.582   2.550
 9697SOL    HW129137   6.759   2.655   2.538
 9697SOL    HW229138   6.656   2.583   2.643
 9698SOL     OW29139   6.333   2.998   2.903
 9698SOL    HW129140   6.261   3.032   2.964
 9698SOL    HW229141   6.374   3.075   2.854
 9699SOL     OW29142   6.461   2.627   3.685
 9699SOL    HW129143   6.442   2.694   3.757
 9699SOL    HW229144   6.483   2.675   3.600
 9700SOL     OW29145   6.269   2.860   2.511
 9700SOL    HW129146   6.341   2.850   2.580
 9700SOL    HW229147   6.195   2.916   2.547
 9701SOL     OW29148   6.291   3.010   3.677
 9701SOL    HW129149   6.335   3.093   3.711
 9701SOL    HW229150   6.203   3.033   3.635
 9702SOL     OW29151   5.911   3.273   2.910
 9702SOL    HW129152   5.831   3.234   2.864
 9702SOL    HW229153   5.962   3.330   2.845
 9703SOL     OW29154   6.037   2.255   3.341
 9703SOL    HW129155   6.118   2.196   3.348
 9703SOL    HW229156   5.955   2.201   3.359
 9704SOL     OW29157   5.808   3.576   2.334
 9704SOL    HW129158   5.825   3.655   2.392
 9704SOL    HW229159   5.883   3.566   2.268
 9705SOL     OW29160   6.723   3.200   3.572
 9705SOL    HW129161   6.817   3.169   3.555
 9705SOL    HW229162   6.661   3.121   3.571
 9706SOL     OW29163   5.820   3.306   2.399
 9706SOL    HW129164   5.803   3.404   2.397
 9706SOL    HW229165   5.758   3.262   2.465
 9707SOL     OW29166   5.857   2.951   2.763
 9707SOL    HW129167   5.852   2.857   2.795
 9707SOL    HW229168   5.793   3.008   2.815
 9708SOL     OW29169   6.169   2.849   2.003
 9708SOL    HW129170   6.215   2.896   1.928
 9708SOL    HW229171   6.208   2.877   2.090
 9709SOL     OW29172   5.700   2.522   2.426
 9709SOL    HW129173   5.671   2.428   2.442
 9709SOL    HW229174   5.694   2.575   2.511
 9710SOL     OW29175   5.615   3.452   1.985
 9710SOL    HW129176   5.599   3.356   2.004
 9710SOL    HW229177   5.594   3.506   2.066
 9711SOL     OW29178   5.710   2.606   3.447
 9711SOL    HW129179   5.806   2.633   3.448
 9711SOL    HW229180   5.653   2.688   3.450
 9712SOL     OW29181   6.198   3.252   2.593
 9712SOL    HW129182   6.151   3.165   2.606
 9712SOL    HW229183   6.184   3.283   2.499
 9713SOL     OW29184   6.838   3.080   3.292
 9713SOL    HW129185   6.875   3.012   3.230
 9713SOL    HW229186   6.901   3.093   3.369
 9714SOL     OW29187   6.402   1.873   2.373
 9714SOL    HW129188   6.447   1.958   2.349
 9714SOL    HW229189   6.303   1.888   2.380
 9715SOL     OW29190   5.777   2.820   3.139
 9715SOL    HW129191   5.866   2.777   3.123
 9715SOL    HW229192   5.708   2.776   3.082
 9716SOL     OW29193   6.747   3.668   3.477
 9716SOL    HW129194   6.755   3.743   3.411
 9716SOL    HW229195   6.767   3.581   3.432
 9717SOL     OW29196   5.927   2.111   3.695
 9717SOL    HW129197   5.975   2.198   3.709
 9717SOL    HW229198   5.829   2.124   3.714
 9718SOL     OW29199   6.181   2.582   2.135
 9718SOL    HW129200   6.185   2.667   2.083
 9718SOL    HW229201   6.111   2.590   2.206
 9719SOL     OW29202   6.872   2.183   2.754
 9719SOL    HW129203   6.773   2.173   2.769
 9719SOL    HW229204   6.921   2.147   2.833
 9720SOL     OW29205   6.384   2.474   3.313
 9720SOL    HW129206   6.355   2.451   3.406
 9720SOL    HW229207   6.344   2.408   3.249
 9721SOL     OW29208   6.942   2.322   3.537
 9721SOL    HW129209   6.919   2.406   3.585
 9721SOL    HW229210   0.042   2.314   3.528
 9722SOL     OW29211   6.544   2.747   3.445
 9722SOL    HW129212   6.599   2.672   3.408
 9722SOL    HW229213   6.490   2.789   3.372
 9723SOL     OW29214   6.583   2.273   3.094
 9723SOL    HW129215   6.491   2.291   3.128
 9723SOL    HW229216   6.577   2.224   3.007
 9724SOL     OW29217   6.634   2.563   2.285
 9724SOL    HW129218   6.652   2.565   2.384
 9724SOL    HW229219   6.548   2.514   2.268
 9725SOL     OW29220   5.675   2.689   2.642
 9725SOL    HW129221   5.760   2.677   2.692
 9725SOL    HW229222   5.625   2.768   2.678
 9726SOL     OW29223   6.481   2.214   2.058
 9726SOL    HW129224   6.523   2.281   1.996
 9726SOL    HW229225   6.483   2.124   2.015
 9727SOL     OW29226   6.927   2.995   2.378
 9727SOL    HW129227   6.997   2.977   2.309
 9727SOL    HW229228   6.875   3.076   2.354
 9728SOL     OW29229   6.134   2.036   2.763
 9728SOL    HW129230   6.138   2.066   2.858
 9728SOL    HW229231   6.136   2.116   2.703
 9729SOL     OW29232   6.571   3.311   2.333
 9729SOL    HW129233   6.540   3.388   2.278
 9729SOL    HW229234   6.546   3.326   2.429
 9730SOL     OW29235   5.947   3.676   2.725
 9730SOL    HW129236   5.991   3.587   2.735
 9730SOL    HW229237   6.012   3.749   2.749
 9731SOL     OW29238   6.778   3.419   3.366
 9731SOL    HW129239   6.801   3.343   3.427
 9731SOL    HW229240   6.752   3.383   3.276
 9732SOL     OW29241   5.908   2.821   2.116
 9732SOL    HW129242   5.996   2.842   2.073
 9732SOL    HW229243   5.871   2.736   2.078
 9733SOL     OW29244   6.049   3.120   3.593
 9733SOL    HW129245   6.020   3.132   3.498
 9733SOL    HW229246   5.968   3.113   3.652
 9734SOL     OW29247   6.712   3.633   2.105
 9734SOL    HW129248   6.629   3.604   2.153
 9734SOL    HW229249   6.725   3.576   2.023
 9735SOL     OW29250   5.788   2.137   3.365
 9735SOL    HW129251   5.706   2.194   3.360
 9735SOL    HW229252   5.767   2.050   3.409
 9736SOL     OW29253   6.050   3.597   2.180
 9736SOL    HW129254   6.092   3.659   2.246
 9736SOL    HW229255   6.120   3.560   2.120
 9737SOL     OW29256   5.846   3.652   3.045
 9737SOL    HW129257   5.891   3.569   3.078
 9737SOL    HW229258   5.805   3.634   2.956
 9738SOL     OW29259   6.522   3.564   2.756
 9738SOL    HW129260   6.607   3.516   2.782
 9738SOL    HW229261   6.477   3.513   2.683
 9739SOL     OW29262   5.982   2.550   2.337
 9739SOL    HW129263   6.002   2.453   2.350
 9739SOL    HW229264   5.885   2.567   2.354
 9740SOL     OW29265   6.228   1.979   1.963
 9740SOL    HW129266   6.294   1.907   1.986
 9740SOL    HW229267   6.170   1.948   1.887
 9741SOL     OW29268   6.349   2.139   3.621
 9741SOL    HW129269   6.431   2.082   3.613
 9741SOL    HW229270   6.295   2.109   3.699
 9742SOL     OW29271   6.462   3.364   3.030
 9742SOL    HW129272   6.448   3.320   2.941
 9742SOL    HW229273   6.536   3.318   3.079
 9743SOL     OW29274   6.402   3.240   2.793
 9743SOL    HW129275   6.492   3.231   2.751
 9743SOL    HW229276   6.333   3.249   2.721
 9744SOL     OW29277   6.511   2.368   2.762
 9744SOL    HW129278   6.487   2.362   2.665
 9744SOL    HW229279   6.543   2.279   2.794
 9745SOL     OW29280   6.133   1.926   2.356
 9745SOL    HW129281   6.051   1.924   2.413
 9745SOL    HW229282   6.129   2.007   2.296
 9746SOL     OW29283   6.988   2.985   1.881
 9746SOL    HW129284   0.025   2.936   1.961
 9746SOL    HW229285   6.922   3.053   1.912
 9747SOL     OW29286   5.876   1.911   2.048
 9747SOL    HW129287   5.928   1.982   2.000
 9747SOL    HW229288   5.939   1.846   2.091
 9748SOL     OW29289   6.530   2.112   2.316
 9748SOL    HW129290   6.495   2.153   2.232
 9748SOL    HW229291   6.629   2.124   2.320
 9749SOL     OW29292   6.655   2.529   3.322
 9749SOL    HW129293   6.561   2.495   3.322
 9749SOL    HW229294   6.719   2.452   3.323
 9750SOL     OW29295   6.783   3.436   2.662
 9750SOL    HW129296   6.799   3.503   2.589
 9750SOL    HW229297   6.869   3.417   2.709
 9751SOL     OW29298   6.055   3.014   2.590
 9751SOL    HW129299   5.988   2.993   2.662
 9751SOL    HW229300   6.012   3.001   2.500
 9752SOL     OW29301   6.839   3.654   2.469
 9752SOL    HW129302   6.877   3.716   2.400
 9752SOL    HW229303   6.768   3.701   2.521
 9753SOL     OW29304   6.609   2.400   1.888
 9753SOL    HW129305   6.563   2.486   1.870
 9753SOL    HW229306   6.674   2.412   1.964
 9754SOL     OW29307   5.673   2.419   3.253
 9754SOL    HW129308   5.767   2.415   3.221
 9754SOL    HW229309   5.664   2.490   3.323
 9755SOL     OW29310   6.145   2.087   3.035
 9755SOL    HW129311   6.194   2.010   3.076
 9755SOL    HW229312   6.049   2.085   3.064
 9756SOL     OW29313   6.450   2.316   2.500
 9756SOL    HW129314   6.405   2.383   2.440
 9756SOL    HW229315   6.476   2.236   2.447
 9757SOL     OW29316   6.606   1.910   2.603
 9757SOL    HW129317   6.541   1.913   2.528
 9757SOL    HW229318   6.581   1.837   2.667
 9758SOL     OW29319   6.072   3.283   2.020
 9758SOL    HW129320   5.991   3.255   2.071
 9758SOL    HW229321   6.074   3.237   1.931
 9759SOL     OW29322   6.115   2.126   2.171
 9759SOL    HW129323   6.162   2.074   2.100
 9759SOL    HW229324   6.086   2.214   2.134
 9760SOL     OW29325   6.630   3.209   3.190
 9760SOL    HW129326   6.546   3.184   3.236
 9760SOL    HW229327   6.708   3.164   3.233
 9761SOL     OW29328   6.728   3.087   2.961
 9761SOL    HW129329   6.669   3.118   3.036
 9761SOL    HW229330   6.687   3.113   2.873
 9762SOL     OW29331   6.505   1.958   3.249
 9762SOL    HW129332   6.526   1.934   3.155
 9762SOL    HW229333   6.585   1.999   3.292
 9763SOL     OW29334   6.562   2.974   3.590
 9763SOL    HW129335   6.467   2.994   3.615
 9763SOL    HW229336   6.565   2.895   3.529
 9764SOL     OW29337   6.298   2.920   2.235
 9764SOL    HW129338   6.281   2.903   2.332
 9764SOL    HW229339   6.377   2.867   2.205
 9765SOL     OW29340   6.009   2.676   3.115
 9765SOL    HW129341   6.081   2.690   3.183
 9765SOL    HW229342   5.970   2.585   3.126
 9766SOL     OW29343   6.851   2.235   3.155
 9766SOL    HW129344   6.908   2.315   3.174
 9766SOL    HW229345   6.759   2.265   3.128
 9767SOL     OW29346   5.672   3.404   3.191
 9767SOL    HW129347   5.638   3.486   3.146
 9767SOL    HW229348   5.772   3.402   3.187
 9768SOL     OW29349   5.928   2.980   2.349
 9768SOL    HW129350   5.933   3.062   2.292
 9768SOL    HW229351   5.926   2.899   2.290
 9769SOL     OW29352   6.134   2.405   2.725
 9769SOL    HW129353   6.148   2.464   2.645
 9769SOL    HW229354   6.204   2.426   2.794
 9770SOL     OW29355   6.824   3.232   2.281
 9770SOL    HW129356   6.879   3.309   2.314
 9770SOL    HW229357   6.727   3.250   2.297
 9771SOL     OW29358   6.853   3.337   3.004
 9771SOL    HW129359   6.933   3.326   3.063
 9771SOL    HW229360   6.809   3.249   2.991
 9772SOL     OW29361   5.937   3.373   3.151
 9772SOL    HW129362   5.917   3.330   3.063
 9772SOL    HW229363   6.037   3.379   3.163
 9773SOL     OW29364   6.001   2.608   3.462
 9773SOL    HW129365   6.068   2.654   3.403
 9773SOL    HW229366   6.032   2.516   3.483
 9774SOL     OW29367   6.577   1.986   3.615
 9774SOL    HW129368   6.630   2.070   3.596
 9774SOL    HW229369   6.632   1.906   3.592
 9775SOL     OW29370   6.078   1.900   3.612
 9775SOL    HW129371   6.034   1.841   3.544
 9775SOL    HW229372   6.020   1.979   3.630
 9776SOL     OW29373   6.170   2.733   2.896
 9776SOL    HW129374   6.206   2.826   2.892
 9776SOL    HW229375   6.109   2.723   2.975
 9777SOL     OW29376   6.951   2.710   2.893
 9777SOL    HW129377   6.858   2.699   2.857
 9777SOL    HW229378   6.987   2.621   2.919
 9778SOL     OW29379   6.767   2.397   2.113
 9778SOL    HW129380   6.784   2.312   2.163
 9778SOL    HW229381   6.729   2.465   2.176
 9779SOL     OW29382   5.883   2.059   3.109
 9779SOL    HW129383   5.847   2.095   3.194
 9779SOL    HW229384   5.868   1.960   3.105
 9780SOL     OW29385   5.623   3.148   3.138
 9780SOL    HW129386   5.664   3.092   3.210
 9780SOL    HW229387   5.637   3.244   3.158
 9781SOL     OW29388   6.311   2.494   2.918
 9781SOL    HW129389   6.387   2.473   2.856
 9781SOL    HW229390   6.275   2.585   2.898
 9782SOL     OW29391   5.892   1.923   2.490
 9782SOL    HW129392   5.868   2.018   2.508
 9782SOL    HW229393   5.903   1.875   2.576
 9783SOL     OW29394   0.209   2.312   2.200
 9783SOL    HW129395   0.170   2.220   2.203
 9783SOL    HW229396   0.189   2.359   2.285
 9784SOL     OW29397   6.609   2.617   2.821
 9784SOL    HW129398   6.603   2.638   2.919
 9784SOL    HW229399   6.583   2.521   2.806
 9785SOL     OW29400   6.561   3.416   3.597
 9785SOL    HW129401   6.568   3.480   3.521
 9785SOL    HW229402   6.614   3.334   3.576
 9786SOL     OW29403   5.938   2.778   3.668
 9786SOL    HW129404   6.019   2.801   3.723
 9786SOL    HW229405   5.964   2.714   3.596
 9787SOL     OW29406   6.886   2.679   1.892
 9787SOL    HW129407   6.948   2.610   1.929
 9787SOL    HW229408   6.922   2.713   1.805
 9788SOL     OW29409   6.653   3.195   2.716
 9788SOL    HW129410   6.658   3.120   2.651
 9788SOL    HW229411   6.704   3.273   2.680
 9789SOL     OW29412   5.897   2.668   2.805
 9789SOL    HW129413   5.993   2.694   2.799
 9789SOL    HW229414   5.889   2.574   2.837
 9790SOL     OW29415   5.913   2.389   2.874
 9790SOL    HW129416   5.875   2.298   2.863
 9790SOL    HW229417   5.994   2.398   2.816
 9791SOL     OW29418   6.695   2.224   3.551
 9791SOL    HW129419   6.647   2.286   3.614
 9791SOL    HW229420   6.790   2.252   3.543
 9792SOL     OW29421   6.743   2.057   3.336
 9792SOL    HW129422   6.722   2.116   3.414
 9792SOL    HW229423   6.787   2.112   3.265
 9793SOL     OW29424   5.586   3.177   2.057
 9793SOL    HW129425   5.497   3.197   2.017
 9793SOL    HW229426   5.587   3.084   2.092
 9794SOL     OW29427   5.687   3.642   2.797
 9794SOL    HW129428   5.651   3.560   2.752
 9794SOL    HW229429   5.779   3.661   2.761
 9795SOL     OW29430   6.081   3.439   2.764
 9795SOL    HW129431   6.151   3.503   2.795
 9795SOL    HW229432   6.122   3.371   2.703
 9796SOL     OW29433   6.563   2.654   3.087
 9796SOL    HW129434   6.623   2.629   3.163
 9796SOL    HW229435   6.474   2.611   3.100
 9797SOL     OW29436   5.623   2.414   2.979
 9797SOL    HW129437   5.705   2.401   2.924
 9797SOL    HW229438   5.648   2.416   3.076
 9798SOL     OW29439   5.778   2.385   3.592
 9798SOL    HW129440   5.828   2.329   3.525
 9798SOL    HW229441   5.739   2.465   3.546
 9799SOL     OW29442   6.403   2.434   2.221
 9799SOL    HW129443   6.411   2.355   2.162
 9799SOL    HW229444   6.325   2.490   2.193
 9800SOL     OW29445   5.817   3.390   3.629
 9800SOL    HW129446   5.785   3.454   3.699
 9800SOL    HW229447   5.823   3.298   3.670
 9801SOL     OW29448   6.297   2.311   3.116
 9801SOL    HW129449   6.238   2.233   3.094
 9801SOL    HW229450   6.292   2.379   3.042
 9802SOL     OW29451   6.045   2.357   2.048
 9802SOL    HW129452   6.109   2.430   2.073
 9802SOL    HW229453   5.954   2.396   2.034
 9803SOL     OW29454   5.731   2.993   3.339
 9803SOL    HW129455   5.732   2.949   3.429
 9803SOL    HW229456   5.752   2.925   3.269
 9804SOL     OW29457   6.894   2.907   3.083
 9804SOL    HW129458   6.920   2.834   3.020
 9804SOL    HW229459   6.831   2.970   3.037
 9805SOL     OW29460   6.888   2.733   2.170
 9805SOL    HW129461   6.820   2.696   2.233
 9805SOL    HW229462   6.861   2.713   2.076
 9806SOL     OW29463   6.848   3.609   2.982
 9806SOL    HW129464   6.924   3.627   2.919
 9806SOL    HW229465   6.837   3.510   2.992
 9807SOL     OW29466   5.669   3.121   2.870
 9807SOL    HW129467   5.650   3.131   2.968
 9807SOL    HW229468   5.598   3.065   2.828
 9808SOL     OW29469   6.979   3.447   2.351
 9808SOL    HW129470   0.064   3.488   2.319
 9808SOL    HW229471   6.917   3.519   2.383
 9809SOL     OW29472   5.699   3.682   3.742
 9809SOL    HW129473   5.662   3.595   3.774
 9809SOL    HW229474   5.767   3.715   3.807
 9810SOL     OW29475   6.869   2.779   2.521
 9810SOL    HW129476   6.956   2.734   2.544
 9810SOL    HW229477   6.888   2.860   2.466
 9811SOL     OW29478   6.385   3.134   3.277
 9811SOL    HW129479   6.351   3.173   3.363
 9811SOL    HW229480   6.320   3.151   3.204
 9812SOL     OW29481   6.254   3.485   2.017
 9812SOL    HW129482   6.271   3.502   1.920
 9812SOL    HW229483   6.197   3.403   2.027
 9813SOL     OW29484   5.841   2.176   2.577
 9813SOL    HW129485   5.753   2.213   2.549
 9813SOL    HW229486   5.845   2.168   2.677
 9814SOL     OW29487   6.749   3.470   1.899
 9814SOL    HW129488   6.772   3.373   1.901
 9814SOL    HW229489   6.687   3.488   1.822
 9815SOL     OW29490   6.413   2.867   3.239
 9815SOL    HW129491   6.460   2.852   3.153
 9815SOL    HW229492   6.406   2.965   3.256
 9816SOL     OW29493   6.504   2.772   2.147
 9816SOL    HW129494   6.568   2.809   2.080
 9816SOL    HW229495   6.550   2.701   2.201
 9817SOL     OW29496   5.949   3.163   3.349
 9817SOL    HW129497   5.939   3.240   3.286
 9817SOL    HW229498   5.869   3.103   3.341
 9818SOL     OW29499   6.643   2.968   2.572
 9818SOL    HW129500   6.568   2.917   2.615
 9818SOL    HW229501   6.710   2.904   2.536
 9819SOL     OW29502   6.606   2.101   2.828
 9819SOL    HW129503   6.600   2.057   2.739
 9819SOL    HW229504   6.605   2.032   2.900
 9820SOL     OW29505   6.191   3.349   2.341
 9820SOL    HW129506   6.243   3.295   2.274
 9820SOL    HW229507   6.115   3.395   2.294
 9821SOL     OW29508   5.838   3.209   2.151
 9821SOL    HW129509   5.742   3.203   2.123
 9821SOL    HW229510   5.844   3.248   2.243
 9822SOL     OW29511   5.699   2.891   3.591
 9822SOL    HW129512   5.618   2.865   3.642
 9822SOL    HW229513   5.780   2.847   3.631
 9823SOL     OW29514   6.268   2.058   3.362
 9823SOL    HW129515   6.354   2.033   3.317
 9823SOL    HW229516   6.287   2.091   3.455
 9824SOL     OW29517   5.667   2.190   1.891
 9824SOL    HW129518   5.576   2.166   1.859
 9824SOL    HW229519   5.699   2.272   1.843
 9825SOL     OW29520   5.649   2.017   2.164
 9825SOL    HW129521   5.632   2.102   2.113
 9825SOL    HW229522   5.737   1.979   2.137
 9826SOL     OW29523   6.210   2.690   3.296
 9826SOL    HW129524   6.267   2.771   3.281
 9826SOL    HW229525   6.269   2.610   3.306
 9827SOL     OW29526   6.311   2.419   3.563
 9827SOL    HW129527   6.353   2.485   3.626
 9827SOL    HW229528   6.326   2.326   3.597
 9828SOL     OW29529   6.994   3.124   3.509
 9828SOL    HW129530   6.999   3.063   3.588
 9828SOL    HW229531   0.077   3.114   3.454
 9829SOL     OW29532   6.807   2.174   2.300
 9829SOL    HW129533   6.881   2.120   2.261
 9829SOL    HW229534   6.842   2.229   2.376
 9830SOL     OW29535   6.172   2.598   2.531
 9830SOL    HW129536   6.214   2.688   2.520
 9830SOL    HW229537   6.103   2.585   2.460
 9831SOL     OW29538   6.428   3.229   1.894
 9831SOL    HW129539   6.410   3.251   1.990
 9831SOL    HW229540   6.460   3.312   1.847
 9832SOL     OW29541   6.252   3.647   2.812
 9832SOL    HW129542   6.228   3.741   2.787
 9832SOL    HW229543   6.351   3.634   2.798
 9833SOL     OW29544   6.455   2.831   2.718
 9833SOL    HW129545   6.506   2.753   2.753
 9833SOL    HW229546   6.413   2.881   2.794
 9834SOL     OW29547   6.671   2.851   1.950
 9834SOL    HW129548   6.637   2.905   1.873
 9834SOL    HW229549   6.744   2.790   1.918
 9835SOL     OW29550   5.817   3.135   3.729
 9835SOL    HW129551   5.749   3.076   3.685
 9835SOL    HW229552   5.794   3.146   3.826
 9836SOL     OW29553   5.674   3.091   2.524
 9836SOL    HW129554   5.677   3.045   2.613
 9836SOL    HW229555   5.742   3.051   2.463
 9837SOL     OW29556   6.260   3.253   3.481
 9837SOL    HW129557   6.181   3.207   3.521
 9837SOL    HW229558   6.287   3.330   3.539
 9838SOL     OW29559   6.017   2.290   2.389
 9838SOL    HW129560   6.050   2.220   2.326
 9838SOL    HW229561   5.962   2.247   2.460
 9839SOL     OW29562   5.921   2.418   3.151
 9839SOL    HW129563   5.978   2.360   3.210
 9839SOL    HW229564   5.936   2.392   3.056
 9840SOL     OW29565   6.412   3.442   2.540
 9840SOL    HW129566   6.397   3.505   2.464
 9840SOL    HW229567   6.335   3.379   2.547
 9841SOL     OW29568   6.992   2.082   2.978
 9841SOL    HW129569   0.015   1.993   3.018
 9841SOL    HW229570   6.939   2.135   3.045
 9842SOL     OW29571   6.599   1.877   2.999
 9842SOL    HW129572   6.539   1.810   2.955
 9842SOL    HW229573   6.692   1.841   3.004
 9843SOL     OW29574   6.360   3.194   2.182
 9843SOL    HW129575   6.332   3.098   2.189
 9843SOL    HW229576   6.445   3.208   2.233
 9844SOL     OW29577   6.210   3.395   3.110
 9844SOL    HW129578   6.202   3.487   3.149
 9844SOL    HW229579   6.303   3.382   3.076
 9845SOL     OW29580   6.909   1.943   2.003
 9845SOL    HW129581   6.948   1.891   1.927
 9845SOL    HW229582   6.831   1.892   2.041
 9846SOL     OW29583   5.629   2.926   2.170
 9846SOL    HW129584   5.727   2.926   2.151
 9846SOL    HW229585   5.599   2.833   2.192
 9847SOL     OW29586   6.466   3.527   2.204
 9847SOL    HW129587   6.393   3.505   2.139
 9847SOL    HW229588   6.438   3.604   2.261
 9848SOL     OW29589   5.808   2.481   3.852
 9848SOL    HW129590   5.716   2.481   3.892
 9848SOL    HW229591   5.801   2.459   3.754
 9849SOL     OW29592   5.809   2.144   4.719
 9849SOL    HW129593   5.841   2.110   4.807
 9849SOL    HW229594   5.716   2.112   4.702
 9850SOL     OW29595   5.587   2.248   4.358
 9850SOL    HW129596   5.503   2.278   4.403
 9850SOL    HW229597   5.568   2.165   4.306
 9851SOL     OW29598   6.155   3.159   4.910
 9851SOL    HW129599   6.064   3.156   4.867
 9851SOL    HW229600   6.173   3.252   4.943
 9852SOL     OW29601   0.069   3.408   4.484
 9852SOL    HW129602   0.103   3.314   4.494
 9852SOL    HW229603   0.040   3.423   4.390
 9853SOL     OW29604   6.691   2.582   4.412
 9853SOL    HW129605   6.759   2.654   4.400
 9853SOL    HW229606   6.656   2.583   4.505
 9854SOL     OW29607   6.330   3.002   4.766
 9854SOL    HW129608   6.261   3.037   4.830
 9854SOL    HW229609   6.374   3.079   4.719
 9855SOL     OW29610   6.461   2.627   5.547
 9855SOL    HW129611   6.442   2.694   5.619
 9855SOL    HW229612   6.483   2.675   5.462
 9856SOL     OW29613   6.269   2.861   4.373
 9856SOL    HW129614   6.341   2.850   4.442
 9856SOL    HW229615   6.195   2.917   4.409
 9857SOL     OW29616   6.293   3.012   5.538
 9857SOL    HW129617   6.343   3.092   5.571
 9857SOL    HW229618   6.207   3.041   5.496
 9858SOL     OW29619   5.913   3.285   4.790
 9858SOL    HW129620   5.836   3.240   4.743
 9858SOL    HW229621   5.965   3.338   4.723
 9859SOL     OW29622   6.037   2.255   5.202
 9859SOL    HW129623   6.118   2.196   5.210
 9859SOL    HW229624   5.955   2.201   5.221
 9860SOL     OW29625   5.806   3.576   4.196
 9860SOL    HW129626   5.824   3.655   4.255
 9860SOL    HW229627   5.882   3.565   4.132
 9861SOL     OW29628   6.717   3.207   5.428
 9861SOL    HW129629   6.812   3.176   5.431
 9861SOL    HW229630   6.656   3.128   5.430
 9862SOL     OW29631   5.820   3.307   4.264
 9862SOL    HW129632   5.803   3.405   4.262
 9862SOL    HW229633   5.759   3.263   4.330
 9863SOL     OW29634   5.855   2.952   4.625
 9863SOL    HW129635   5.851   2.858   4.658
 9863SOL    HW229636   5.793   3.009   4.678
 9864SOL     OW29637   6.183   3.660   5.148
 9864SOL    HW129638   6.101   3.635   5.200
 9864SOL    HW229639   6.214   3.751   5.178
 9865SOL     OW29640   6.168   2.847   3.867
 9865SOL    HW129641   6.214   2.895   3.792
 9865SOL    HW229642   6.208   2.876   3.954
 9866SOL     OW29643   5.700   2.523   4.288
 9866SOL    HW129644   5.671   2.428   4.304
 9866SOL    HW229645   5.694   2.575   4.373
 9867SOL     OW29646   5.623   3.448   3.853
 9867SOL    HW129647   5.604   3.352   3.870
 9867SOL    HW229648   5.598   3.502   3.934
 9868SOL     OW29649   5.709   2.606   5.309
 9868SOL    HW129650   5.806   2.633   5.310
 9868SOL    HW229651   5.652   2.688   5.311
 9869SOL     OW29652   6.198   3.253   4.457
 9869SOL    HW129653   6.152   3.165   4.470
 9869SOL    HW229654   6.185   3.283   4.363
 9870SOL     OW29655   6.841   3.084   5.155
 9870SOL    HW129656   6.878   3.013   5.095
 9870SOL    HW229657   6.902   3.098   5.232
 9871SOL     OW29658   6.402   1.873   4.235
 9871SOL    HW129659   6.447   1.958   4.211
 9871SOL    HW229660   6.303   1.888   4.242
 9872SOL     OW29661   5.777   2.824   5.000
 9872SOL    HW129662   5.865   2.780   4.986
 9872SOL    HW229663   5.707   2.775   4.948
 9873SOL     OW29664   6.780   3.676   5.340
 9873SOL    HW129665   6.766   3.744   5.269
 9873SOL    HW229666   6.780   3.585   5.299
 9874SOL     OW29667   5.927   2.112   5.555
 9874SOL    HW129668   5.975   2.198   5.572
 9874SOL    HW229669   5.830   2.124   5.575
 9875SOL     OW29670   6.180   2.581   3.997
 9875SOL    HW129671   6.185   2.667   3.946
 9875SOL    HW229672   6.111   2.589   4.069
 9876SOL     OW29673   6.872   2.183   4.616
 9876SOL    HW129674   6.773   2.173   4.631
 9876SOL    HW229675   6.921   2.147   4.695
 9877SOL     OW29676   6.384   2.474   5.174
 9877SOL    HW129677   6.356   2.451   5.268
 9877SOL    HW229678   6.344   2.408   5.111
 9878SOL     OW29679   6.942   2.322   5.399
 9878SOL    HW129680   6.919   2.406   5.447
 9878SOL    HW229681   0.042   2.314   5.390
 9879SOL     OW29682   6.543   2.747   5.307
 9879SOL    HW129683   6.598   2.673   5.269
 9879SOL    HW229684   6.490   2.789   5.234
 9880SOL     OW29685   6.583   2.273   4.956
 9880SOL    HW129686   6.491   2.291   4.991
 9880SOL    HW229687   6.577   2.224   4.869
 9881SOL     OW29688   6.633   2.563   4.147
 9881SOL    HW129689   6.652   2.565   4.245
 9881SOL    HW229690   6.548   2.515   4.130
 9882SOL     OW29691   5.675   2.690   4.504
 9882SOL    HW129692   5.760   2.677   4.554
 9882SOL    HW229693   5.626   2.769   4.540
 9883SOL     OW29694   5.714   3.733   5.312
 9883SOL    HW129695   5.719   3.706   5.408
 9883SOL    HW229696   5.629   3.700   5.272
 9884SOL     OW29697   6.481   2.214   3.920
 9884SOL    HW129698   6.523   2.281   3.858
 9884SOL    HW229699   6.483   2.123   3.877
 9885SOL     OW29700   6.926   2.995   4.241
 9885SOL    HW129701   6.997   2.978   4.172
 9885SOL    HW229702   6.875   3.077   4.216
 9886SOL     OW29703   6.134   2.036   4.625
 9886SOL    HW129704   6.137   2.066   4.720
 9886SOL    HW229705   6.136   2.116   4.565
 9887SOL     OW29706   6.570   3.310   4.196
 9887SOL    HW129707   6.540   3.389   4.142
 9887SOL    HW229708   6.546   3.324   4.292
 9888SOL     OW29709   5.942   3.676   4.595
 9888SOL    HW129710   5.986   3.586   4.601
 9888SOL    HW229711   6.009   3.748   4.613
 9889SOL     OW29712   6.797   3.420   5.228
 9889SOL    HW129713   6.803   3.344   5.293
 9889SOL    HW229714   6.750   3.389   5.145
 9890SOL     OW29715   5.907   2.821   3.979
 9890SOL    HW129716   5.995   2.842   3.936
 9890SOL    HW229717   5.870   2.736   3.940
 9891SOL     OW29718   6.053   3.125   5.454
 9891SOL    HW129719   6.027   3.132   5.358
 9891SOL    HW229720   5.971   3.124   5.511
 9892SOL     OW29721   6.711   3.637   3.970
 9892SOL    HW129722   6.628   3.606   4.017
 9892SOL    HW229723   6.729   3.577   3.892
 9893SOL     OW29724   5.788   2.138   5.227
 9893SOL    HW129725   5.706   2.194   5.223
 9893SOL    HW229726   5.767   2.050   5.272
 9894SOL     OW29727   6.050   3.594   4.050
 9894SOL    HW129728   6.091   3.659   4.114
 9894SOL    HW229729   6.121   3.558   3.989
 9895SOL     OW29730   5.844   3.654   4.950
 9895SOL    HW129731   5.895   3.582   4.997
 9895SOL    HW229732   5.826   3.626   4.856
 9896SOL     OW29733   6.524   3.563   4.620
 9896SOL    HW129734   6.609   3.517   4.643
 9896SOL    HW229735   6.477   3.513   4.548
 9897SOL     OW29736   5.982   2.550   4.199
 9897SOL    HW129737   6.001   2.453   4.212
 9897SOL    HW229738   5.884   2.567   4.216
 9898SOL     OW29739   6.228   1.979   3.825
 9898SOL    HW129740   6.293   1.907   3.848
 9898SOL    HW229741   6.171   1.948   3.749
 9899SOL     OW29742   6.349   2.139   5.483
 9899SOL    HW129743   6.431   2.082   5.475
 9899SOL    HW229744   6.295   2.108   5.561
 9900SOL     OW29745   6.460   3.380   4.915
 9900SOL    HW129746   6.440   3.344   4.824
 9900SOL    HW229747   6.532   3.325   4.958
 9901SOL     OW29748   6.402   3.252   4.666
 9901SOL    HW129749   6.492   3.239   4.625
 9901SOL    HW229750   6.333   3.257   4.594
 9902SOL     OW29751   6.511   2.369   4.624
 9902SOL    HW129752   6.487   2.362   4.527
 9902SOL    HW229753   6.543   2.279   4.656
 9903SOL     OW29754   6.133   1.926   4.218
 9903SOL    HW129755   6.051   1.924   4.275
 9903SOL    HW229756   6.129   2.007   4.158
 9904SOL     OW29757   6.990   2.988   3.744
 9904SOL    HW129758   0.026   2.938   3.822
 9904SOL    HW229759   6.919   3.052   3.775
 9905SOL     OW29760   5.876   1.911   3.910
 9905SOL    HW129761   5.928   1.982   3.863
 9905SOL    HW229762   5.939   1.846   3.953
 9906SOL     OW29763   6.530   2.112   4.178
 9906SOL    HW129764   6.495   2.153   4.093
 9906SOL    HW229765   6.629   2.124   4.183
 9907SOL     OW29766   6.655   2.530   5.184
 9907SOL    HW129767   6.561   2.496   5.184
 9907SOL    HW229768   6.719   2.452   5.186
 9908SOL     OW29769   6.782   3.435   4.525
 9908SOL    HW129770   6.800   3.502   4.452
 9908SOL    HW229771   6.866   3.417   4.575
 9909SOL     OW29772   6.055   3.014   4.452
 9909SOL    HW129773   5.988   2.993   4.523
 9909SOL    HW229774   6.012   3.001   4.362
 9910SOL     OW29775   6.839   3.654   4.331
 9910SOL    HW129776   6.877   3.716   4.262
 9910SOL    HW229777   6.769   3.701   4.383
 9911SOL     OW29778   6.609   2.400   3.750
 9911SOL    HW129779   6.563   2.486   3.732
 9911SOL    HW229780   6.674   2.411   3.826
 9912SOL     OW29781   5.672   2.419   5.114
 9912SOL    HW129782   5.767   2.415   5.083
 9912SOL    HW229783   5.664   2.490   5.185
 9913SOL     OW29784   6.145   2.087   4.897
 9913SOL    HW129785   6.194   2.010   4.938
 9913SOL    HW229786   6.049   2.085   4.926
 9914SOL     OW29787   6.450   2.316   4.362
 9914SOL    HW129788   6.405   2.383   4.302
 9914SOL    HW229789   6.476   2.236   4.309
 9915SOL     OW29790   6.606   1.910   4.465
 9915SOL    HW129791   6.541   1.913   4.390
 9915SOL    HW229792   6.581   1.837   4.529
 9916SOL     OW29793   6.069   3.282   3.880
 9916SOL    HW129794   5.989   3.254   3.934
 9916SOL    HW229795   6.065   3.240   3.789
 9917SOL     OW29796   6.115   2.126   4.033
 9917SOL    HW129797   6.162   2.074   3.962
 9917SOL    HW229798   6.086   2.214   3.996
 9918SOL     OW29799   6.628   3.209   5.055
 9918SOL    HW129800   6.545   3.183   5.105
 9918SOL    HW229801   6.707   3.166   5.098
 9919SOL     OW29802   6.727   3.087   4.825
 9919SOL    HW129803   6.669   3.119   4.900
 9919SOL    HW229804   6.686   3.114   4.738
 9920SOL     OW29805   6.505   1.958   5.111
 9920SOL    HW129806   6.526   1.934   5.017
 9920SOL    HW229807   6.585   1.999   5.155
 9921SOL     OW29808   6.566   2.974   5.452
 9921SOL    HW129809   6.471   2.997   5.477
 9921SOL    HW229810   6.566   2.894   5.391
 9922SOL     OW29811   6.299   2.922   4.097
 9922SOL    HW129812   6.281   2.904   4.194
 9922SOL    HW229813   6.377   2.867   4.067
 9923SOL     OW29814   6.008   2.677   4.978
 9923SOL    HW129815   6.081   2.690   5.045
 9923SOL    HW229816   5.969   2.585   4.988
 9924SOL     OW29817   6.851   2.235   5.017
 9924SOL    HW129818   6.908   2.315   5.036
 9924SOL    HW229819   6.759   2.265   4.990
 9925SOL     OW29820   5.660   3.434   5.077
 9925SOL    HW129821   5.625   3.505   5.016
 9925SOL    HW229822   5.760   3.432   5.072
 9926SOL     OW29823   5.928   2.981   4.210
 9926SOL    HW129824   5.931   3.062   4.153
 9926SOL    HW229825   5.926   2.899   4.153
 9927SOL     OW29826   6.134   2.405   4.586
 9927SOL    HW129827   6.148   2.464   4.507
 9927SOL    HW229828   6.204   2.425   4.655
 9928SOL     OW29829   6.823   3.232   4.144
 9928SOL    HW129830   6.877   3.310   4.177
 9928SOL    HW229831   6.726   3.250   4.161
 9929SOL     OW29832   6.851   3.339   4.864
 9929SOL    HW129833   6.930   3.335   4.925
 9929SOL    HW229834   6.810   3.248   4.856
 9930SOL     OW29835   5.934   3.392   5.034
 9930SOL    HW129836   5.918   3.347   4.946
 9930SOL    HW229837   6.032   3.405   5.047
 9931SOL     OW29838   6.001   2.609   5.324
 9931SOL    HW129839   6.068   2.654   5.265
 9931SOL    HW229840   6.033   2.516   5.346
 9932SOL     OW29841   6.577   1.986   5.477
 9932SOL    HW129842   6.630   2.070   5.458
 9932SOL    HW229843   6.633   1.906   5.454
 9933SOL     OW29844   6.078   1.900   5.473
 9933SOL    HW129845   6.034   1.841   5.406
 9933SOL    HW229846   6.020   1.979   5.492
 9934SOL     OW29847   6.170   2.734   4.758
 9934SOL    HW129848   6.205   2.827   4.755
 9934SOL    HW229849   6.109   2.724   4.837
 9935SOL     OW29850   6.951   2.710   4.754
 9935SOL    HW129851   6.858   2.699   4.719
 9935SOL    HW229852   6.987   2.621   4.781
 9936SOL     OW29853   6.767   2.397   3.975
 9936SOL    HW129854   6.784   2.312   4.025
 9936SOL    HW229855   6.728   2.465   4.038
 9937SOL     OW29856   5.883   2.059   4.971
 9937SOL    HW129857   5.847   2.095   5.056
 9937SOL    HW229858   5.868   1.960   4.967
 9938SOL     OW29859   5.639   3.172   4.999
 9938SOL    HW129860   5.670   3.111   5.071
 9938SOL    HW229861   5.641   3.266   5.032
 9939SOL     OW29862   6.311   2.494   4.780
 9939SOL    HW129863   6.387   2.473   4.718
 9939SOL    HW229864   6.275   2.585   4.760
 9940SOL     OW29865   5.893   1.923   4.352
 9940SOL    HW129866   5.868   2.019   4.370
 9940SOL    HW229867   5.904   1.875   4.438
 9941SOL     OW29868   0.209   2.312   4.061
 9941SOL    HW129869   0.170   2.220   4.065
 9941SOL    HW229870   0.190   2.359   4.147
 9942SOL     OW29871   6.608   2.617   4.683
 9942SOL    HW129872   6.603   2.638   4.781
 9942SOL    HW229873   6.583   2.522   4.668
 9943SOL     OW29874   6.555   3.428   5.430
 9943SOL    HW129875   6.542   3.472   5.342
 9943SOL    HW229876   6.607   3.344   5.419
 9944SOL     OW29877   5.939   2.780   5.529
 9944SOL    HW129878   6.019   2.802   5.585
 9944SOL    HW229879   5.964   2.715   5.458
 9945SOL     OW29880   6.887   2.680   3.754
 9945SOL    HW129881   6.948   2.610   3.792
 9945SOL    HW229882   6.924   2.712   3.667
 9946SOL     OW29883   6.649   3.195   4.579
 9946SOL    HW129884   6.655   3.120   4.514
 9946SOL    HW229885   6.702   3.273   4.544
 9947SOL     OW29886   5.897   2.668   4.667
 9947SOL    HW129887   5.994   2.694   4.662
 9947SOL    HW229888   5.889   2.574   4.699
 9948SOL     OW29889   5.913   2.389   4.736
 9948SOL    HW129890   5.875   2.298   4.725
 9948SOL    HW229891   5.994   2.398   4.677
 9949SOL     OW29892   6.695   2.224   5.413
 9949SOL    HW129893   6.648   2.286   5.476
 9949SOL    HW229894   6.790   2.252   5.405
 9950SOL     OW29895   6.743   2.057   5.198
 9950SOL    HW129896   6.722   2.116   5.276
 9950SOL    HW229897   6.787   2.112   5.127
 9951SOL     OW29898   5.587   3.175   3.921
 9951SOL    HW129899   5.498   3.194   3.880
 9951SOL    HW229900   5.589   3.082   3.957
 9952SOL     OW29901   5.679   3.645   4.667
 9952SOL    HW129902   5.643   3.564   4.622
 9952SOL    HW229903   5.772   3.662   4.635
 9953SOL     OW29904   6.079   3.438   4.629
 9953SOL    HW129905   6.149   3.504   4.656
 9953SOL    HW229906   6.120   3.370   4.567
 9954SOL     OW29907   6.563   2.654   4.949
 9954SOL    HW129908   6.624   2.629   5.025
 9954SOL    HW229909   6.473   2.612   4.963
 9955SOL     OW29910   5.623   2.415   4.841
 9955SOL    HW129911   5.705   2.401   4.786
 9955SOL    HW229912   5.648   2.416   4.938
 9956SOL     OW29913   5.778   2.385   5.454
 9956SOL    HW129914   5.828   2.330   5.388
 9956SOL    HW229915   5.739   2.465   5.408
 9957SOL     OW29916   6.403   2.434   4.083
 9957SOL    HW129917   6.411   2.355   4.024
 9957SOL    HW229918   6.325   2.490   4.055
 9958SOL     OW29919   5.825   3.409   5.450
 9958SOL    HW129920   5.804   3.483   5.513
 9958SOL    HW229921   5.832   3.323   5.500
 9959SOL     OW29922   6.297   2.311   4.978
 9959SOL    HW129923   6.238   2.233   4.956
 9959SOL    HW229924   6.292   2.378   4.904
 9960SOL     OW29925   6.499   3.549   5.191
 9960SOL    HW129926   6.481   3.499   5.106
 9960SOL    HW229927   6.496   3.647   5.173
 9961SOL     OW29928   6.045   2.357   3.909
 9961SOL    HW129929   6.109   2.430   3.935
 9961SOL    HW229930   5.954   2.396   3.896
 9962SOL     OW29931   5.727   2.999   5.199
 9962SOL    HW129932   5.729   2.955   5.288
 9962SOL    HW229933   5.748   2.932   5.128
 9963SOL     OW29934   6.895   2.907   4.946
 9963SOL    HW129935   6.920   2.834   4.882
 9963SOL    HW229936   6.831   2.970   4.901
 9964SOL     OW29937   6.887   2.734   4.032
 9964SOL    HW129938   6.820   2.695   4.095
 9964SOL    HW229939   6.861   2.713   3.938
 9965SOL     OW29940   6.845   3.610   4.840
 9965SOL    HW129941   6.924   3.628   4.781
 9965SOL    HW229942   6.835   3.511   4.853
 9966SOL     OW29943   5.672   3.127   4.734
 9966SOL    HW129944   5.657   3.142   4.832
 9966SOL    HW229945   5.599   3.068   4.698
 9967SOL     OW29946   6.266   3.535   5.463
 9967SOL    HW129947   6.206   3.614   5.453
 9967SOL    HW229948   6.342   3.544   5.398
 9968SOL     OW29949   6.978   3.447   4.211
 9968SOL    HW129950   0.064   3.488   4.181
 9968SOL    HW229951   6.917   3.520   4.245
 9969SOL     OW29952   5.731   3.649   5.570
 9969SOL    HW129953   5.674   3.581   5.615
 9969SOL    HW229954   5.780   3.702   5.638
 9970SOL     OW29955   6.869   2.779   4.383
 9970SOL    HW129956   6.956   2.735   4.407
 9970SOL    HW229957   6.887   2.860   4.328
 9971SOL     OW29958   6.383   3.138   5.150
 9971SOL    HW129959   6.354   3.184   5.234
 9971SOL    HW229960   6.314   3.153   5.079
 9972SOL     OW29961   6.251   3.481   3.895
 9972SOL    HW129962   6.284   3.495   3.802
 9972SOL    HW229963   6.193   3.400   3.899
 9973SOL     OW29964   5.841   2.176   4.439
 9973SOL    HW129965   5.753   2.213   4.412
 9973SOL    HW229966   5.845   2.168   4.539
 9974SOL     OW29967   6.761   3.468   3.772
 9974SOL    HW129968   6.798   3.375   3.769
 9974SOL    HW229969   6.692   3.480   3.701
 9975SOL     OW29970   6.412   2.871   5.103
 9975SOL    HW129971   6.460   2.858   5.016
 9975SOL    HW229972   6.404   2.968   5.123
 9976SOL     OW29973   6.505   2.772   4.008
 9976SOL    HW129974   6.569   2.810   3.942
 9976SOL    HW229975   6.550   2.702   4.063
 9977SOL     OW29976   5.951   3.164   5.210
 9977SOL    HW129977   5.941   3.245   5.152
 9977SOL    HW229978   5.871   3.106   5.199
 9978SOL     OW29979   6.643   2.968   4.435
 9978SOL    HW129980   6.568   2.917   4.477
 9978SOL    HW229981   6.711   2.904   4.399
 9979SOL     OW29982   6.606   2.101   4.690
 9979SOL    HW129983   6.600   2.057   4.601
 9979SOL    HW229984   6.605   2.032   4.762
 9980SOL     OW29985   6.192   3.348   4.203
 9980SOL    HW129986   6.241   3.294   4.134
 9980SOL    HW229987   6.117   3.397   4.159
 9981SOL     OW29988   5.839   3.207   4.019
 9981SOL    HW129989   5.744   3.204   3.989
 9981SOL    HW229990   5.845   3.247   4.110
 9982SOL     OW29991   5.700   2.895   5.451
 9982SOL    HW129992   5.619   2.868   5.502
 9982SOL    HW229993   5.780   2.851   5.491
 9983SOL     OW29994   6.268   2.058   5.224
 9983SOL    HW129995   6.354   2.033   5.179
 9983SOL    HW229996   6.287   2.091   5.317
 9984SOL     OW29997   5.667   2.190   3.753
 9984SOL    HW129998   5.576   2.166   3.721
 9984SOL    HW229999   5.699   2.272   3.705
 9985SOL     OW30000   5.649   2.017   4.027
 9985SOL    HW130001   5.632   2.102   3.975
 9985SOL    HW230002   5.737   1.979   3.999
 9986SOL     OW30003   6.210   2.691   5.158
 9986SOL    HW130004   6.267   2.772   5.144
 9986SOL    HW230005   6.269   2.610   5.168
 9987SOL     OW30006   6.311   2.419   5.425
 9987SOL    HW130007   6.353   2.485   5.488
 9987SOL    HW230008   6.326   2.326   5.459
 9988SOL     OW30009   0.001   3.125   5.374
 9988SOL    HW130010   7.000   3.060   5.450
 9988SOL    HW230011   0.080   3.105   5.315
 9989SOL     OW30012   5.958   3.600   5.291
 9989SOL    HW130013   5.873   3.652   5.277
 9989SOL    HW230014   5.936   3.512   5.333
 9990SOL     OW30015   6.807   2.174   4.162
 9990SOL    HW130016   6.881   2.120   4.123
 9990SOL    HW230017   6.843   2.228   4.238
 9991SOL     OW30018   6.172   2.598   4.393
 9991SOL    HW130019   6.214   2.688   4.382
 9991SOL    HW230020   6.103   2.585   4.322
 9992SOL     OW30021   6.407   3.239   3.757
 9992SOL    HW130022   6.407   3.243   3.857
 9992SOL    HW230023   6.471   3.307   3.721
 9993SOL     OW30024   6.251   3.647   4.665
 9993SOL    HW130025   6.227   3.742   4.645
 9993SOL    HW230026   6.350   3.635   4.657
 9994SOL     OW30027   6.454   2.832   4.580
 9994SOL    HW130028   6.506   2.754   4.616
 9994SOL    HW230029   6.412   2.882   4.656
 9995SOL     OW30030   6.672   2.852   3.811
 9995SOL    HW130031   6.636   2.904   3.734
 9995SOL    HW230032   6.744   2.790   3.780
 9996SOL     OW30033   5.817   3.161   5.581
 9996SOL    HW130034   5.750   3.094   5.547
 9996SOL    HW230035   5.803   3.175   5.679
 9997SOL     OW30036   5.673   3.092   4.388
 9997SOL    HW130037   5.677   3.046   4.476
 9997SOL    HW230038   5.741   3.052   4.327
 9998SOL     OW30039   6.262   3.273   5.351
 9998SOL    HW130040   6.185   3.221   5.389
 9998SOL    HW230041   6.265   3.363   5.394
 9999SOL     OW30042   6.016   2.290   4.250
 9999SOL    HW130043   6.050   2.220   4.188
 9999SOL    HW230044   5.962   2.247   4.323
10000SOL     OW30045   5.921   2.418   5.013
10000SOL    HW130046   5.978   2.360   5.072
10000SOL    HW230047   5.936   2.392   4.918
10001SOL     OW30048   6.412   3.442   4.404
10001SOL    HW130049   6.395   3.505   4.328
10001SOL    HW230050   6.336   3.378   4.412
10002SOL     OW30051   6.992   2.082   4.840
10002SOL    HW130052   0.016   1.993   4.880
10002SOL    HW230053   6.939   2.135   4.907
10003SOL     OW30054   6.599   1.877   4.861
10003SOL    HW130055   6.539   1.810   4.817
10003SOL    HW230056   6.692   1.841   4.866
10004SOL     OW30057   6.365   3.193   4.040
10004SOL    HW130058   6.335   3.098   4.051
10004SOL    HW230059   6.446   3.208   4.097
10005SOL     OW30060   6.209   3.421   5.013
10005SOL    HW130061   6.206   3.508   5.063
10005SOL    HW230062   6.300   3.409   4.973
10006SOL     OW30063   6.909   1.943   3.865
10006SOL    HW130064   6.949   1.891   3.789
10006SOL    HW230065   6.831   1.893   3.903
10007SOL     OW30066   5.630   2.925   4.032
10007SOL    HW130067   5.728   2.924   4.013
10007SOL    HW230068   5.599   2.832   4.054
10008SOL     OW30069   6.467   3.529   4.069
10008SOL    HW130070   6.390   3.503   4.011
10008SOL    HW230071   6.441   3.605   4.128
10009SOL     OW30072   5.808   2.481   5.714
10009SOL    HW130073   5.716   2.481   5.754
10009SOL    HW230074   5.801   2.458   5.616
10010SOL     OW30075   5.806   2.150   6.582
10010SOL    HW130076   5.842   2.111   6.667
10010SOL    HW230077   5.715   2.113   6.565
10011SOL     OW30078   5.586   2.248   6.221
10011SOL    HW130079   5.502   2.279   6.265
10011SOL    HW230080   5.568   2.164   6.169
10012SOL     OW30081   6.143   3.142   6.755
10012SOL    HW130082   6.056   3.167   6.713
10012SOL    HW230083   6.175   3.217   6.813
10013SOL     OW30084   0.070   3.407   6.347
10013SOL    HW130085   0.104   3.314   6.354
10013SOL    HW230086   0.040   3.425   6.253
10014SOL     OW30087   6.692   2.581   6.275
10014SOL    HW130088   6.759   2.655   6.264
10014SOL    HW230089   6.655   2.583   6.368
10015SOL     OW30090   6.338   3.003   6.625
10015SOL    HW130091   6.266   3.030   6.688
10015SOL    HW230092   6.375   3.084   6.580
10016SOL     OW30093   6.269   2.860   6.235
10016SOL    HW130094   6.340   2.850   6.305
10016SOL    HW230095   6.195   2.917   6.271
10017SOL     OW30096   5.918   3.273   6.648
10017SOL    HW130097   5.833   3.241   6.606
10017SOL    HW230098   5.965   3.335   6.586
10018SOL     OW30099   5.808   3.576   6.057
10018SOL    HW130100   5.826   3.655   6.117
10018SOL    HW230101   5.883   3.567   5.992
10019SOL     OW30102   5.819   3.305   6.122
10019SOL    HW130103   5.803   3.404   6.122
10019SOL    HW230104   5.760   3.262   6.190
10020SOL     OW30105   5.852   2.953   6.485
10020SOL    HW130106   5.849   2.860   6.522
10020SOL    HW230107   5.794   3.012   6.541
10021SOL     OW30108   6.176   3.689   6.958
10021SOL    HW130109   6.099   3.647   0.007
10021SOL    HW230110   6.208   3.769   0.008
10022SOL     OW30111   6.169   2.848   5.727
10022SOL    HW130112   6.215   2.896   5.652
10022SOL    HW230113   6.208   2.877   5.814
10023SOL     OW30114   0.242   2.054   0.084
10023SOL    HW130115   0.173   2.125   0.073
10023SOL    HW230116   0.201   1.973   0.125
10024SOL     OW30117   5.700   2.523   6.150
10024SOL    HW130118   5.670   2.429   6.167
10024SOL    HW230119   5.694   2.576   6.235
10025SOL     OW30120   5.615   3.452   5.709
10025SOL    HW130121   5.599   3.356   5.728
10025SOL    HW230122   5.594   3.506   5.791
10026SOL     OW30123   6.199   3.252   6.319
10026SOL    HW130124   6.153   3.165   6.333
10026SOL    HW230125   6.186   3.283   6.225
10027SOL     OW30126   6.822   3.053   0.024
10027SOL    HW130127   6.871   3.007   6.950
10027SOL    HW230128   6.887   3.100   0.083
10028SOL     OW30129   6.402   1.872   6.096
10028SOL    HW130130   6.447   1.958   6.073
10028SOL    HW230131   6.303   1.887   6.104
10029SOL     OW30132   5.778   2.839   6.847
10029SOL    HW130133   5.861   2.786   6.829
10029SOL    HW230134   5.697   2.786   6.821
10030SOL     OW30135   6.180   2.582   5.859
10030SOL    HW130136   6.185   2.667   5.808
10030SOL    HW230137   6.111   2.590   5.931
10031SOL     OW30138   6.871   2.186   6.478
10031SOL    HW130139   6.773   2.172   6.490
10031SOL    HW230140   6.920   2.150   6.557
10032SOL     OW30141   6.405   2.444   0.047
10032SOL    HW130142   6.352   2.505   0.106
10032SOL    HW230143   6.344   2.402   6.980
10033SOL     OW30144   6.568   2.235   6.802
10033SOL    HW130145   6.492   2.290   6.837
10033SOL    HW230146   6.540   2.188   6.719
10034SOL     OW30147   6.634   2.563   6.010
10034SOL    HW130148   6.652   2.564   6.108
10034SOL    HW230149   6.548   2.515   5.992
10035SOL     OW30150   5.675   2.689   6.366
10035SOL    HW130151   5.761   2.678   6.417
10035SOL    HW230152   5.626   2.768   6.402
10036SOL     OW30153   5.742   3.715   0.151
10036SOL    HW130154   5.703   3.638   0.202
10036SOL    HW230155   5.690   3.728   0.066
10037SOL     OW30156   6.481   2.214   5.782
10037SOL    HW130157   6.523   2.281   5.720
10037SOL    HW230158   6.482   2.124   5.739
10038SOL     OW30159   6.927   2.994   6.102
10038SOL    HW130160   6.996   2.977   6.033
10038SOL    HW230161   6.875   3.076   6.078
10039SOL     OW30162   6.135   2.036   6.487
10039SOL    HW130163   6.141   2.064   6.583
10039SOL    HW230164   6.136   2.117   6.428
10040SOL     OW30165   6.571   3.311   6.056
10040SOL    HW130166   6.541   3.388   6.001
10040SOL    HW230167   6.544   3.326   6.152
10041SOL     OW30168   5.941   3.676   6.453
10041SOL    HW130169   5.983   3.585   6.463
10041SOL    HW230170   6.009   3.746   6.475
10042SOL     OW30171   5.908   2.821   5.840
10042SOL    HW130172   5.996   2.841   5.797
10042SOL    HW230173   5.871   2.736   5.803
10043SOL     OW30174   6.712   3.633   5.828
10043SOL    HW130175   6.629   3.604   5.876
10043SOL    HW230176   6.726   3.576   5.747
10044SOL     OW30177   6.049   3.598   5.903
10044SOL    HW130178   6.091   3.659   5.970
10044SOL    HW230179   6.120   3.560   5.844
10045SOL     OW30180   5.851   3.662   6.821
10045SOL    HW130181   5.906   3.610   6.887
10045SOL    HW230182   5.815   3.600   6.752
10046SOL     OW30183   6.521   3.565   6.479
10046SOL    HW130184   6.603   3.518   6.512
10046SOL    HW230185   6.479   3.512   6.406
10047SOL     OW30186   5.982   2.550   6.060
10047SOL    HW130187   6.001   2.453   6.074
10047SOL    HW230188   5.885   2.567   6.078
10048SOL     OW30189   6.228   1.979   5.686
10048SOL    HW130190   6.292   1.907   5.711
10048SOL    HW230191   6.171   1.948   5.610
10049SOL     OW30192   6.459   3.381   6.770
10049SOL    HW130193   6.442   3.344   6.678
10049SOL    HW230194   6.477   3.305   6.833
10050SOL     OW30195   6.404   3.252   6.525
10050SOL    HW130196   6.494   3.239   6.483
10050SOL    HW230197   6.334   3.257   6.454
10051SOL     OW30198   6.513   2.368   6.486
10051SOL    HW130199   6.487   2.362   6.389
10051SOL    HW230200   6.548   2.279   6.516
10052SOL     OW30201   6.133   1.926   6.080
10052SOL    HW130202   6.052   1.923   6.138
10052SOL    HW230203   6.129   2.007   6.021
10053SOL     OW30204   6.989   2.985   5.605
10053SOL    HW130205   0.025   2.936   5.685
10053SOL    HW230206   6.922   3.053   5.636
10054SOL     OW30207   5.876   1.911   5.771
10054SOL    HW130208   5.929   1.982   5.726
10054SOL    HW230209   5.938   1.846   5.815
10055SOL     OW30210   6.530   2.112   6.040
10055SOL    HW130211   6.495   2.154   5.956
10055SOL    HW230212   6.629   2.124   6.045
10056SOL     OW30213   6.784   3.432   6.381
10056SOL    HW130214   6.794   3.501   6.310
10056SOL    HW230215   6.871   3.419   6.428
10057SOL     OW30216   6.054   3.013   6.314
10057SOL    HW130217   5.987   2.994   6.386
10057SOL    HW230218   6.012   3.000   6.225
10058SOL     OW30219   6.838   3.653   6.192
10058SOL    HW130220   6.875   3.715   6.123
10058SOL    HW230221   6.767   3.700   6.245
10059SOL     OW30222   6.610   2.400   5.612
10059SOL    HW130223   6.563   2.486   5.594
10059SOL    HW230224   6.674   2.412   5.688
10060SOL     OW30225   6.149   2.080   6.760
10060SOL    HW130226   6.192   1.997   6.795
10060SOL    HW230227   6.053   2.082   6.787
10061SOL     OW30228   6.450   2.318   6.224
10061SOL    HW130229   6.405   2.383   6.164
10061SOL    HW230230   6.475   2.236   6.171
10062SOL     OW30231   6.608   1.909   6.323
10062SOL    HW130232   6.541   1.910   6.249
10062SOL    HW230233   6.582   1.838   6.389
10063SOL     OW30234   6.073   3.283   5.744
10063SOL    HW130235   5.991   3.256   5.795
10063SOL    HW230236   6.074   3.237   5.656
10064SOL     OW30237   6.115   2.126   5.895
10064SOL    HW130238   6.162   2.074   5.824
10064SOL    HW230239   6.086   2.214   5.858
10065SOL     OW30240   0.225   3.438   0.247
10065SOL    HW130241   0.236   3.499   0.168
10065SOL    HW230242   0.302   3.375   0.251
10066SOL     OW30243   6.721   3.083   6.690
10066SOL    HW130244   6.642   3.071   6.750
10066SOL    HW230245   6.690   3.113   6.600
10067SOL     OW30246   6.298   2.921   5.959
10067SOL    HW130247   6.281   2.903   6.056
10067SOL    HW230248   6.377   2.867   5.929
10068SOL     OW30249   6.011   2.676   6.846
10068SOL    HW130250   6.064   2.704   6.925
10068SOL    HW230251   5.974   2.584   6.861
10069SOL     OW30252   6.827   2.271   6.865
10069SOL    HW130253   6.809   2.353   6.918
10069SOL    HW230254   6.745   2.243   6.816
10070SOL     OW30255   5.678   3.422   6.858
10070SOL    HW130256   5.619   3.496   6.890
10070SOL    HW230257   5.760   3.419   6.915
10071SOL     OW30258   5.928   2.980   6.073
10071SOL    HW130259   5.933   3.063   6.017
10071SOL    HW230260   5.926   2.899   6.014
10072SOL     OW30261   6.133   2.407   6.448
10072SOL    HW130262   6.147   2.465   6.368
10072SOL    HW230263   6.204   2.427   6.516
10073SOL     OW30264   6.824   3.232   6.005
10073SOL    HW130265   6.879   3.309   6.038
10073SOL    HW230266   6.727   3.250   6.021
10074SOL     OW30267   6.822   3.337   6.757
10074SOL    HW130268   6.917   3.327   6.786
10074SOL    HW230269   6.784   3.247   6.736
10075SOL     OW30270   5.952   3.355   6.904
10075SOL    HW130271   5.922   3.318   6.815
10075SOL    HW230272   6.045   3.390   6.896
10076SOL     OW30273   6.171   2.733   6.623
10076SOL    HW130274   6.205   2.827   6.616
10076SOL    HW230275   6.111   2.725   6.702
10077SOL     OW30276   6.951   2.707   6.607
10077SOL    HW130277   6.859   2.691   6.571
10077SOL    HW230278   6.990   2.619   6.637
10078SOL     OW30279   6.767   2.397   5.837
10078SOL    HW130280   6.783   2.312   5.886
10078SOL    HW230281   6.729   2.465   5.900
10079SOL     OW30282   5.888   2.064   6.834
10079SOL    HW130283   5.849   2.094   6.921
10079SOL    HW230284   5.875   1.965   6.824
10080SOL     OW30285   5.613   3.163   6.869
10080SOL    HW130286   5.666   3.115   6.938
10080SOL    HW230287   5.640   3.259   6.866
10081SOL     OW30288   6.310   2.491   6.641
10081SOL    HW130289   6.387   2.471   6.581
10081SOL    HW230290   6.276   2.584   6.623
10082SOL     OW30291   5.892   1.924   6.213
10082SOL    HW130292   5.868   2.019   6.232
10082SOL    HW230293   5.903   1.875   6.299
10083SOL     OW30294   0.210   2.312   5.923
10083SOL    HW130295   0.171   2.220   5.926
10083SOL    HW230296   0.189   2.359   6.009
10084SOL     OW30297   6.610   2.616   6.549
10084SOL    HW130298   6.602   2.636   6.646
10084SOL    HW230299   6.584   2.521   6.532
10085SOL     OW30300   6.886   2.679   5.617
10085SOL    HW130301   6.948   2.609   5.653
10085SOL    HW230302   6.923   2.713   5.530
10086SOL     OW30303   6.655   3.193   6.443
10086SOL    HW130304   6.657   3.119   6.377
10086SOL    HW230305   6.703   3.273   6.406
10087SOL     OW30306   5.899   2.667   6.529
10087SOL    HW130307   5.995   2.694   6.523
10087SOL    HW230308   5.893   2.572   6.560
10088SOL     OW30309   5.918   2.390   6.604
10088SOL    HW130310   5.877   2.300   6.590
10088SOL    HW230311   5.998   2.400   6.544
10089SOL     OW30312   6.768   2.079   0.053
10089SOL    HW130313   6.768   2.130   0.139
10089SOL    HW230314   6.773   2.143   6.976
10090SOL     OW30315   5.586   3.177   5.780
10090SOL    HW130316   5.497   3.197   5.740
10090SOL    HW230317   5.587   3.084   5.816
10091SOL     OW30318   5.676   3.651   6.526
10091SOL    HW130319   5.641   3.568   6.483
10091SOL    HW230320   5.772   3.664   6.501
10092SOL     OW30321   6.078   3.439   6.490
10092SOL    HW130322   6.148   3.505   6.518
10092SOL    HW230323   6.119   3.370   6.430
10093SOL     OW30324   6.566   2.655   6.816
10093SOL    HW130325   6.632   2.650   6.891
10093SOL    HW230326   6.477   2.621   6.847
10094SOL     OW30327   5.636   2.419   6.712
10094SOL    HW130328   5.692   2.384   6.637
10094SOL    HW230329   5.696   2.453   6.784
10095SOL     OW30330   6.403   2.435   5.945
10095SOL    HW130331   6.411   2.355   5.886
10095SOL    HW230332   6.325   2.490   5.917
10096SOL     OW30333   6.269   2.322   6.847
10096SOL    HW130334   6.228   2.235   6.819
10096SOL    HW230335   6.275   2.383   6.768
10097SOL     OW30336   6.451   3.524   0.015
10097SOL    HW130337   6.464   3.505   6.917
10097SOL    HW230338   6.521   3.589   0.045
10098SOL     OW30339   6.045   2.358   5.771
10098SOL    HW130340   6.109   2.430   5.797
10098SOL    HW230341   5.954   2.397   5.758
10099SOL     OW30342   5.742   3.004   0.059
10099SOL    HW130343   5.798   2.964   0.131
10099SOL    HW230344   5.752   2.949   6.976
10100SOL     OW30345   6.887   2.884   6.807
10100SOL    HW130346   6.918   2.824   6.733
10100SOL    HW230347   6.833   2.958   6.769
10101SOL     OW30348   6.888   2.733   5.894
10101SOL    HW130349   6.819   2.695   5.957
10101SOL    HW230350   6.862   2.713   5.800
10102SOL     OW30351   6.841   3.604   6.691
10102SOL    HW130352   6.928   3.616   6.643
10102SOL    HW230353   6.830   3.508   6.716
10103SOL     OW30354   5.667   3.126   6.600
10103SOL    HW130355   5.648   3.135   6.697
10103SOL    HW230356   5.600   3.065   6.557
10104SOL     OW30357   6.979   3.447   6.075
10104SOL    HW130358   0.064   3.488   6.043
10104SOL    HW230359   6.917   3.519   6.108
10105SOL     OW30360   6.870   2.779   6.246
10105SOL    HW130361   6.957   2.733   6.266
10105SOL    HW230362   6.887   2.861   6.192
10106SOL     OW30363   6.253   3.485   5.741
10106SOL    HW130364   6.270   3.502   5.644
10106SOL    HW230365   6.197   3.403   5.751
10107SOL     OW30366   5.841   2.177   6.301
10107SOL    HW130367   5.752   2.213   6.273
10107SOL    HW230368   5.844   2.169   6.401
10108SOL     OW30369   6.749   3.470   5.623
10108SOL    HW130370   6.771   3.373   5.626
10108SOL    HW230371   6.687   3.488   5.546
10109SOL     OW30372   6.366   2.887   6.951
10109SOL    HW130373   6.428   2.852   6.880
10109SOL    HW230374   6.409   2.966   6.996
10110SOL     OW30375   6.504   2.772   5.871
10110SOL    HW130376   6.568   2.809   5.804
10110SOL    HW230377   6.550   2.701   5.925
10111SOL     OW30378   6.642   2.968   6.297
10111SOL    HW130379   6.567   2.917   6.339
10111SOL    HW230380   6.709   2.904   6.259
10112SOL     OW30381   6.606   2.099   6.542
10112SOL    HW130382   6.600   2.052   6.454
10112SOL    HW230383   6.609   2.030   6.615
10113SOL     OW30384   6.191   3.348   6.065
10113SOL    HW130385   6.242   3.294   5.998
10113SOL    HW230386   6.115   3.394   6.020
10114SOL     OW30387   5.838   3.210   5.874
10114SOL    HW130388   5.742   3.203   5.847
10114SOL    HW230389   5.844   3.248   5.966
10115SOL     OW30390   6.263   2.047   0.086
10115SOL    HW130391   6.354   2.011   0.065
10115SOL    HW230392   6.271   2.126   0.146
10116SOL     OW30393   5.668   2.190   5.615
10116SOL    HW130394   5.575   2.166   5.585
10116SOL    HW230395   5.699   2.271   5.567
10117SOL     OW30396   5.649   2.017   5.889
10117SOL    HW130397   5.633   2.102   5.838
10117SOL    HW230398   5.737   1.978   5.862
10118SOL     OW30399   5.968   3.589   0.086
10118SOL    HW130400   5.889   3.642   0.118
10118SOL    HW230401   5.971   3.502   0.134
10119SOL     OW30402   6.807   2.174   6.024
10119SOL    HW130403   6.881   2.120   5.984
10119SOL    HW230404   6.842   2.229   6.100
10120SOL     OW30405   6.172   2.598   6.254
10120SOL    HW130406   6.214   2.688   6.244
10120SOL    HW230407   6.103   2.585   6.183
10121SOL     OW30408   6.428   3.229   5.618
10121SOL    HW130409   6.410   3.250   5.714
10121SOL    HW230410   6.460   3.312   5.572
10122SOL     OW30411   6.252   3.646   6.527
10122SOL    HW130412   6.228   3.741   6.506
10122SOL    HW230413   6.351   3.634   6.518
10123SOL     OW30414   6.455   2.831   6.442
10123SOL    HW130415   6.505   2.754   6.480
10123SOL    HW230416   6.414   2.884   6.517
10124SOL     OW30417   6.671   2.851   5.674
10124SOL    HW130418   6.637   2.905   5.597
10124SOL    HW230419   6.744   2.790   5.642
10125SOL     OW30420   5.673   3.090   6.249
10125SOL    HW130421   5.676   3.045   6.338
10125SOL    HW230422   5.743   3.051   6.189
10126SOL     OW30423   6.017   2.290   6.113
10126SOL    HW130424   6.050   2.219   6.050
10126SOL    HW230425   5.962   2.247   6.184
10127SOL     OW30426   5.902   2.412   6.878
10127SOL    HW130427   5.971   2.359   6.926
10127SOL    HW230428   5.912   2.400   6.780
10128SOL     OW30429   6.414   3.439   6.263
10128SOL    HW130430   6.395   3.503   6.188
10128SOL    HW230431   6.336   3.377   6.274
10129SOL     OW30432   6.989   2.090   6.706
10129SOL    HW130433   0.002   1.997   6.741
10129SOL    HW230434   6.931   2.142   6.768
10130SOL     OW30435   6.608   1.888   6.715
10130SOL    HW130436   6.537   1.821   6.697
10130SOL    HW230437   6.697   1.842   6.720
10131SOL     OW30438   6.360   3.194   5.905
10131SOL    HW130439   6.332   3.098   5.913
10131SOL    HW230440   6.445   3.208   5.957
10132SOL     OW30441   6.205   3.432   6.861
10132SOL    HW130442   6.203   3.527   6.893
10132SOL    HW230443   6.295   3.413   6.822
10133SOL     OW30444   6.909   1.943   5.727
10133SOL    HW130445   6.949   1.891   5.651
10133SOL    HW230446   6.831   1.893   5.765
10134SOL     OW30447   5.628   2.926   5.893
10134SOL    HW130448   5.727   2.926   5.875
10134SOL    HW230449   5.599   2.833   5.915
10135SOL     OW30450   6.467   3.528   5.927
10135SOL    HW130451   6.393   3.505   5.863
10135SOL    HW230452   6.438   3.604   5.985
10136SOL     OW30453   5.806   4.361   0.136
10136SOL    HW130454   5.710   4.345   0.161
10136SOL    HW230455   5.818   4.342   0.039
10137SOL     OW30456   5.808   4.007   0.994
10137SOL    HW130457   5.841   3.972   1.082
10137SOL    HW230458   5.715   3.974   0.978
10138SOL     OW30459   5.587   4.112   0.637
10138SOL    HW130460   5.505   4.146   0.684
10138SOL    HW230461   5.566   4.026   0.591
10139SOL     OW30462   6.155   5.021   1.186
10139SOL    HW130463   6.065   5.017   1.142
10139SOL    HW230464   6.172   5.114   1.219
10140SOL     OW30465   0.066   5.271   0.762
10140SOL    HW130466   0.101   5.178   0.774
10140SOL    HW230467   0.030   5.281   0.669
10141SOL     OW30468   6.693   4.443   0.689
10141SOL    HW130469   6.760   4.517   0.678
10141SOL    HW230470   6.656   4.445   0.782
10142SOL     OW30471   6.330   4.864   1.042
10142SOL    HW130472   6.262   4.899   1.107
10142SOL    HW230473   6.374   4.941   0.995
10143SOL     OW30474   6.461   4.489   1.823
10143SOL    HW130475   6.442   4.556   1.895
10143SOL    HW230476   6.483   4.537   1.738
10144SOL     OW30477   6.268   4.720   0.650
10144SOL    HW130478   6.340   4.711   0.720
10144SOL    HW230479   6.195   4.778   0.686
10145SOL     OW30480   6.293   4.874   1.814
10145SOL    HW130481   6.343   4.954   1.847
10145SOL    HW230482   6.207   4.903   1.772
10146SOL     OW30483   5.912   5.147   1.066
10146SOL    HW130484   5.836   5.102   1.019
10146SOL    HW230485   5.965   5.200   0.999
10147SOL     OW30486   6.037   4.117   1.479
10147SOL    HW130487   6.117   4.058   1.486
10147SOL    HW230488   5.955   4.063   1.497
10148SOL     OW30489   5.805   5.448   0.471
10148SOL    HW130490   5.823   5.527   0.529
10148SOL    HW230491   5.890   5.420   0.425
10149SOL     OW30492   6.717   5.069   1.704
10149SOL    HW130493   6.812   5.038   1.707
10149SOL    HW230494   6.656   4.991   1.706
10150SOL     OW30495   5.800   5.172   0.532
10150SOL    HW130496   5.789   5.271   0.542
10150SOL    HW230497   5.749   5.125   0.605
10151SOL     OW30498   5.854   4.814   0.900
10151SOL    HW130499   5.849   4.720   0.933
10151SOL    HW230500   5.792   4.871   0.953
10152SOL     OW30501   6.183   5.523   1.425
10152SOL    HW130502   6.101   5.497   1.476
10152SOL    HW230503   6.214   5.613   1.454
10153SOL     OW30504   6.173   4.692   0.146
10153SOL    HW130505   6.230   4.715   0.067
10153SOL    HW230506   6.209   4.737   0.227
10154SOL     OW30507   5.701   4.377   0.562
10154SOL    HW130508   5.671   4.284   0.582
10154SOL    HW230509   5.696   4.433   0.645
10155SOL     OW30510   5.598   5.308   0.146
10155SOL    HW130511   5.529   5.238   0.125
10155SOL    HW230512   5.576   5.352   0.233
10156SOL     OW30513   5.709   4.468   1.585
10156SOL    HW130514   5.806   4.495   1.586
10156SOL    HW230515   5.652   4.550   1.587
10157SOL     OW30516   6.197   5.113   0.737
10157SOL    HW130517   6.151   5.025   0.750
10157SOL    HW230518   6.188   5.142   0.641
10158SOL     OW30519   6.840   4.946   1.431
10158SOL    HW130520   6.878   4.875   1.371
10158SOL    HW230521   6.902   4.960   1.509
10159SOL     OW30522   6.404   3.738   0.519
10159SOL    HW130523   6.449   3.823   0.492
10159SOL    HW230524   6.305   3.752   0.525
10160SOL     OW30525   5.776   4.686   1.277
10160SOL    HW130526   5.865   4.642   1.262
10160SOL    HW230527   5.707   4.639   1.222
10161SOL     OW30528   6.780   5.538   1.616
10161SOL    HW130529   6.765   5.606   1.545
10161SOL    HW230530   6.780   5.446   1.575
10162SOL     OW30531   5.927   3.973   1.832
10162SOL    HW130532   5.975   4.060   1.847
10162SOL    HW230533   5.830   3.986   1.852
10163SOL     OW30534   6.185   4.441   0.268
10163SOL    HW130535   6.191   4.531   0.224
10163SOL    HW230536   6.119   4.445   0.344
10164SOL     OW30537   6.870   4.047   0.895
10164SOL    HW130538   6.772   4.035   0.910
10164SOL    HW230539   6.920   4.011   0.973
10165SOL     OW30540   6.384   4.336   1.451
10165SOL    HW130541   6.356   4.313   1.544
10165SOL    HW230542   6.344   4.270   1.387
10166SOL     OW30543   6.942   4.184   1.675
10166SOL    HW130544   6.919   4.268   1.723
10166SOL    HW230545   0.042   4.176   1.667
10167SOL     OW30546   6.543   4.609   1.583
10167SOL    HW130547   6.598   4.535   1.545
10167SOL    HW230548   6.490   4.651   1.510
10168SOL     OW30549   6.583   4.135   1.232
10168SOL    HW130550   6.492   4.154   1.267
10168SOL    HW230551   6.577   4.086   1.145
10169SOL     OW30552   6.636   4.426   0.426
10169SOL    HW130553   6.656   4.429   0.524
10169SOL    HW230554   6.549   4.379   0.411
10170SOL     OW30555   5.676   4.548   0.778
10170SOL    HW130556   5.761   4.537   0.829
10170SOL    HW230557   5.626   4.626   0.813
10171SOL     OW30558   5.714   5.596   1.588
10171SOL    HW130559   5.719   5.568   1.684
10171SOL    HW230560   5.630   5.561   1.547
10172SOL     OW30561   6.465   4.073   0.213
10172SOL    HW130562   6.475   4.141   0.140
10172SOL    HW230563   6.491   3.983   0.178
10173SOL     OW30564   6.926   4.859   0.526
10173SOL    HW130565   6.988   4.831   0.452
10173SOL    HW230566   6.876   4.941   0.499
10174SOL     OW30567   6.133   3.898   0.901
10174SOL    HW130568   6.137   3.928   0.996
10174SOL    HW230569   6.136   3.978   0.840
10175SOL     OW30570   6.571   5.164   0.474
10175SOL    HW130571   6.537   5.243   0.423
10175SOL    HW230572   6.549   5.176   0.571
10176SOL     OW30573   5.942   5.538   0.870
10176SOL    HW130574   5.986   5.448   0.876
10176SOL    HW230575   6.009   5.609   0.889
10177SOL     OW30576   6.797   5.282   1.504
10177SOL    HW130577   6.803   5.206   1.569
10177SOL    HW230578   6.750   5.250   1.421
10178SOL     OW30579   5.901   4.684   0.229
10178SOL    HW130580   5.994   4.698   0.195
10178SOL    HW230581   5.872   4.591   0.210
10179SOL     OW30582   6.053   4.987   1.730
10179SOL    HW130583   6.027   4.994   1.634
10179SOL    HW230584   5.971   4.987   1.787
10180SOL     OW30585   6.682   5.487   0.235
10180SOL    HW130586   6.616   5.434   0.287
10180SOL    HW230587   6.710   5.436   0.154
10181SOL     OW30588   5.788   3.999   1.503
10181SOL    HW130589   5.706   4.056   1.499
10181SOL    HW230590   5.767   3.912   1.547
10182SOL     OW30591   0.233   5.107   0.044
10182SOL    HW130592   0.162   5.156   0.095
10182SOL    HW230593   0.210   5.009   0.040
10183SOL     OW30594   6.067   5.424   0.376
10183SOL    HW130595   6.097   5.508   0.421
10183SOL    HW230596   6.128   5.402   0.300
10184SOL     OW30597   5.845   5.516   1.226
10184SOL    HW130598   5.896   5.444   1.273
10184SOL    HW230599   5.826   5.488   1.132
10185SOL     OW30600   6.524   5.425   0.896
10185SOL    HW130601   6.610   5.377   0.917
10185SOL    HW230602   6.476   5.376   0.823
10186SOL     OW30603   5.983   4.411   0.469
10186SOL    HW130604   6.003   4.315   0.488
10186SOL    HW230605   5.887   4.429   0.488
10187SOL     OW30606   6.349   4.001   1.759
10187SOL    HW130607   6.431   3.944   1.752
10187SOL    HW230608   6.295   3.971   1.837
10188SOL     OW30609   6.460   5.242   1.191
10188SOL    HW130610   6.440   5.206   1.100
10188SOL    HW230611   6.532   5.187   1.234
10189SOL     OW30612   6.402   5.114   0.942
10189SOL    HW130613   6.492   5.101   0.901
10189SOL    HW230614   6.332   5.119   0.870
10190SOL     OW30615   6.512   4.230   0.901
10190SOL    HW130616   6.487   4.224   0.804
10190SOL    HW230617   6.544   4.141   0.933
10191SOL     OW30618   6.135   3.795   0.503
10191SOL    HW130619   6.051   3.792   0.558
10191SOL    HW230620   6.131   3.873   0.441
10192SOL     OW30621   6.531   3.973   0.461
10192SOL    HW130622   6.495   4.013   0.377
10192SOL    HW230623   6.631   3.986   0.464
10193SOL     OW30624   6.655   4.392   1.460
10193SOL    HW130625   6.561   4.358   1.460
10193SOL    HW230626   6.719   4.314   1.462
10194SOL     OW30627   6.780   5.298   0.802
10194SOL    HW130628   6.798   5.362   0.727
10194SOL    HW230629   6.866   5.280   0.851
10195SOL     OW30630   6.057   4.876   0.732
10195SOL    HW130631   5.986   4.855   0.799
10195SOL    HW230632   6.019   4.868   0.640
10196SOL     OW30633   6.839   5.518   0.604
10196SOL    HW130634   6.865   5.580   0.530
10196SOL    HW230635   6.769   5.562   0.660
10197SOL     OW30636   6.683   4.315   0.026
10197SOL    HW130637   6.584   4.320   0.029
10197SOL    HW230638   6.719   4.293   0.117
10198SOL     OW30639   5.672   4.281   1.391
10198SOL    HW130640   5.767   4.277   1.359
10198SOL    HW230641   5.664   4.352   1.461
10199SOL     OW30642   6.145   3.949   1.173
10199SOL    HW130643   6.194   3.871   1.213
10199SOL    HW230644   6.049   3.947   1.202
10200SOL     OW30645   6.450   4.178   0.640
10200SOL    HW130646   6.410   4.245   0.578
10200SOL    HW230647   6.476   4.096   0.589
10201SOL     OW30648   6.606   3.770   0.740
10201SOL    HW130649   6.540   3.772   0.664
10201SOL    HW230650   6.581   3.698   0.804
10202SOL     OW30651   6.059   5.147   0.150
10202SOL    HW130652   5.999   5.098   0.213
10202SOL    HW230653   6.020   5.147   0.058
10203SOL     OW30654   6.101   3.989   0.312
10203SOL    HW130655   6.111   3.921   0.240
10203SOL    HW230656   6.077   4.078   0.272
10204SOL     OW30657   6.628   5.072   1.332
10204SOL    HW130658   6.545   5.045   1.381
10204SOL    HW230659   6.707   5.028   1.374
10205SOL     OW30660   6.727   4.950   1.101
10205SOL    HW130661   6.668   4.980   1.176
10205SOL    HW230662   6.686   4.976   1.014
10206SOL     OW30663   6.505   3.820   1.387
10206SOL    HW130664   6.526   3.796   1.293
10206SOL    HW230665   6.585   3.861   1.430
10207SOL     OW30666   6.566   4.836   1.727
10207SOL    HW130667   6.471   4.859   1.753
10207SOL    HW230668   6.566   4.757   1.667
10208SOL     OW30669   6.298   4.781   0.375
10208SOL    HW130670   6.280   4.765   0.472
10208SOL    HW230671   6.377   4.727   0.347
10209SOL     OW30672   6.008   4.539   1.254
10209SOL    HW130673   6.081   4.552   1.321
10209SOL    HW230674   5.969   4.448   1.264
10210SOL     OW30675   6.851   4.097   1.293
10210SOL    HW130676   6.907   4.177   1.312
10210SOL    HW230677   6.759   4.127   1.266
10211SOL     OW30678   5.661   5.296   1.353
10211SOL    HW130679   5.625   5.366   1.291
10211SOL    HW230680   5.760   5.294   1.347
10212SOL     OW30681   5.952   4.844   0.484
10212SOL    HW130682   5.931   4.921   0.424
10212SOL    HW230683   5.949   4.759   0.432
10213SOL     OW30684   6.134   4.268   0.862
10213SOL    HW130685   6.149   4.326   0.782
10213SOL    HW230686   6.204   4.288   0.931
10214SOL     OW30687   6.825   5.089   0.417
10214SOL    HW130688   6.877   5.168   0.449
10214SOL    HW230689   6.727   5.106   0.432
10215SOL     OW30690   6.851   5.201   1.140
10215SOL    HW130691   6.930   5.196   1.201
10215SOL    HW230692   6.810   5.110   1.131
10216SOL     OW30693   5.934   5.254   1.310
10216SOL    HW130694   5.918   5.209   1.222
10216SOL    HW230695   6.032   5.267   1.323
10217SOL     OW30696   6.001   4.471   1.600
10217SOL    HW130697   6.068   4.516   1.541
10217SOL    HW230698   6.032   4.378   1.621
10218SOL     OW30699   6.577   3.848   1.753
10218SOL    HW130700   6.630   3.932   1.734
10218SOL    HW230701   6.633   3.768   1.730
10219SOL     OW30702   6.078   3.762   1.750
10219SOL    HW130703   6.034   3.703   1.682
10219SOL    HW230704   6.020   3.841   1.768
10220SOL     OW30705   6.170   4.595   1.034
10220SOL    HW130706   6.204   4.689   1.029
10220SOL    HW230707   6.109   4.586   1.113
10221SOL     OW30708   6.951   4.573   1.032
10221SOL    HW130709   6.859   4.561   0.994
10221SOL    HW230710   6.988   4.483   1.057
10222SOL     OW30711   6.769   4.246   0.270
10222SOL    HW130712   6.785   4.166   0.328
10222SOL    HW230713   6.731   4.320   0.326
10223SOL     OW30714   5.883   3.921   1.246
10223SOL    HW130715   5.847   3.957   1.332
10223SOL    HW230716   5.868   3.822   1.243
10224SOL     OW30717   5.637   5.034   1.275
10224SOL    HW130718   5.669   4.972   1.347
10224SOL    HW230719   5.641   5.128   1.308
10225SOL     OW30720   6.311   4.356   1.056
10225SOL    HW130721   6.387   4.335   0.994
10225SOL    HW230722   6.275   4.447   1.036
10226SOL     OW30723   5.891   3.789   0.630
10226SOL    HW130724   5.867   3.884   0.649
10226SOL    HW230725   5.903   3.739   0.715
10227SOL     OW30726   0.183   4.144   0.376
10227SOL    HW130727   0.264   4.101   0.416
10227SOL    HW230728   0.163   4.229   0.425
10228SOL     OW30729   6.608   4.479   0.959
10228SOL    HW130730   6.603   4.500   1.057
10228SOL    HW230731   6.583   4.383   0.944
10229SOL     OW30732   6.555   5.290   1.706
10229SOL    HW130733   6.542   5.334   1.617
10229SOL    HW230734   6.607   5.206   1.695
10230SOL     OW30735   5.939   4.642   1.805
10230SOL    HW130736   6.019   4.664   1.860
10230SOL    HW230737   5.964   4.577   1.734
10231SOL     OW30738   6.887   4.566   0.033
10231SOL    HW130739   6.922   4.476   0.009
10231SOL    HW230740   6.905   4.630   6.958
10232SOL     OW30741   6.649   5.057   0.857
10232SOL    HW130742   6.654   4.982   0.791
10232SOL    HW230743   6.701   5.135   0.821
10233SOL     OW30744   5.897   4.530   0.943
10233SOL    HW130745   5.993   4.556   0.938
10233SOL    HW230746   5.890   4.435   0.976
10234SOL     OW30747   5.914   4.251   1.012
10234SOL    HW130748   5.875   4.160   1.001
10234SOL    HW230749   5.994   4.260   0.954
10235SOL     OW30750   6.695   4.086   1.689
10235SOL    HW130751   6.647   4.148   1.752
10235SOL    HW230752   6.790   4.114   1.681
10236SOL     OW30753   6.743   3.919   1.474
10236SOL    HW130754   6.722   3.978   1.552
10236SOL    HW230755   6.787   3.974   1.402
10237SOL     OW30756   5.680   5.508   0.943
10237SOL    HW130757   5.642   5.427   0.898
10237SOL    HW230758   5.773   5.524   0.911
10238SOL     OW30759   6.079   5.300   0.905
10238SOL    HW130760   6.149   5.366   0.932
10238SOL    HW230761   6.119   5.232   0.843
10239SOL     OW30762   6.563   4.516   1.225
10239SOL    HW130763   6.623   4.491   1.301
10239SOL    HW230764   6.473   4.474   1.239
10240SOL     OW30765   5.623   4.276   1.117
10240SOL    HW130766   5.705   4.263   1.062
10240SOL    HW230767   5.648   4.278   1.214
10241SOL     OW30768   5.778   4.247   1.730
10241SOL    HW130769   5.829   4.192   1.663
10241SOL    HW230770   5.739   4.327   1.684
10242SOL     OW30771   6.402   4.297   0.375
10242SOL    HW130772   6.410   4.216   0.317
10242SOL    HW230773   6.324   4.352   0.345
10243SOL     OW30774   5.825   5.271   1.726
10243SOL    HW130775   5.804   5.345   1.790
10243SOL    HW230776   5.832   5.185   1.776
10244SOL     OW30777   6.297   4.173   1.254
10244SOL    HW130778   6.238   4.095   1.232
10244SOL    HW230779   6.292   4.240   1.180
10245SOL     OW30780   6.499   5.411   1.467
10245SOL    HW130781   6.480   5.361   1.382
10245SOL    HW230782   6.495   5.509   1.449
10246SOL     OW30783   6.042   4.224   0.187
10246SOL    HW130784   6.106   4.296   0.213
10246SOL    HW230785   5.949   4.260   0.185
10247SOL     OW30786   5.727   4.861   1.475
10247SOL    HW130787   5.729   4.817   1.565
10247SOL    HW230788   5.747   4.794   1.404
10248SOL     OW30789   6.895   4.769   1.222
10248SOL    HW130790   6.920   4.696   1.159
10248SOL    HW230791   6.831   4.832   1.177
10249SOL     OW30792   6.890   4.585   0.311
10249SOL    HW130793   6.810   4.548   0.358
10249SOL    HW230794   6.879   4.572   0.212
10250SOL     OW30795   6.845   5.472   1.117
10250SOL    HW130796   6.924   5.490   1.058
10250SOL    HW230797   6.835   5.373   1.129
10251SOL     OW30798   5.671   4.990   1.010
10251SOL    HW130799   5.655   5.004   1.108
10251SOL    HW230800   5.600   4.931   0.972
10252SOL     OW30801   6.266   5.397   1.739
10252SOL    HW130802   6.206   5.476   1.729
10252SOL    HW230803   6.342   5.406   1.674
10253SOL     OW30804   6.530   3.825   0.117
10253SOL    HW130805   6.605   3.853   0.056
10253SOL    HW230806   6.565   3.758   0.183
10254SOL     OW30807   6.974   5.304   0.493
10254SOL    HW130808   0.061   5.337   0.455
10254SOL    HW230809   6.920   5.381   0.524
10255SOL     OW30810   5.731   5.512   1.846
10255SOL    HW130811   5.674   5.443   1.891
10255SOL    HW230812   5.780   5.565   1.915
10256SOL     OW30813   6.870   4.640   0.663
10256SOL    HW130814   6.957   4.593   0.679
10256SOL    HW230815   6.887   4.724   0.611
10257SOL     OW30816   6.383   5.000   1.425
10257SOL    HW130817   6.353   5.046   1.510
10257SOL    HW230818   6.314   5.015   1.354
10258SOL     OW30819   6.251   5.333   0.196
10258SOL    HW130820   6.307   5.356   0.116
10258SOL    HW230821   6.194   5.253   0.175
10259SOL     OW30822   5.842   4.041   0.716
10259SOL    HW130823   5.752   4.076   0.688
10259SOL    HW230824   5.844   4.032   0.816
10260SOL     OW30825   6.743   5.348   0.005
10260SOL    HW130826   6.827   5.315   0.048
10260SOL    HW230827   6.732   5.306   6.915
10261SOL     OW30828   6.412   4.733   1.379
10261SOL    HW130829   6.459   4.720   1.292
10261SOL    HW230830   6.404   4.830   1.399
10262SOL     OW30831   6.503   4.632   0.290
10262SOL    HW130832   6.556   4.661   0.210
10262SOL    HW230833   6.556   4.565   0.342
10263SOL     OW30834   5.951   5.026   1.487
10263SOL    HW130835   5.942   5.107   1.428
10263SOL    HW230836   5.871   4.968   1.475
10264SOL     OW30837   6.641   4.831   0.712
10264SOL    HW130838   6.567   4.779   0.754
10264SOL    HW230839   6.708   4.768   0.672
10265SOL     OW30840   6.606   3.963   0.965
10265SOL    HW130841   6.599   3.918   0.876
10265SOL    HW230842   6.605   3.893   1.037
10266SOL     OW30843   6.197   5.202   0.484
10266SOL    HW130844   6.238   5.151   0.408
10266SOL    HW230845   6.135   5.271   0.448
10267SOL     OW30846   5.864   5.043   0.308
10267SOL    HW130847   5.780   5.032   0.255
10267SOL    HW230848   5.844   5.097   0.391
10268SOL     OW30849   5.700   4.758   1.728
10268SOL    HW130850   5.619   4.731   1.779
10268SOL    HW230851   5.781   4.713   1.767
10269SOL     OW30852   6.268   3.920   1.500
10269SOL    HW130853   6.354   3.895   1.455
10269SOL    HW230854   6.287   3.953   1.593
10270SOL     OW30855   5.691   4.047   0.015
10270SOL    HW130856   5.629   3.992   6.959
10270SOL    HW230857   5.721   4.127   6.962
10271SOL     OW30858   5.635   3.898   0.328
10271SOL    HW130859   5.623   3.990   0.291
10271SOL    HW230860   5.708   3.851   0.278
10272SOL     OW30861   6.210   4.553   1.434
10272SOL    HW130862   6.267   4.634   1.419
10272SOL    HW230863   6.269   4.472   1.444
10273SOL     OW30864   6.311   4.281   1.701
10273SOL    HW130865   6.353   4.347   1.764
10273SOL    HW230866   6.326   4.189   1.735
10274SOL     OW30867   0.001   4.987   1.650
10274SOL    HW130868   7.000   4.922   1.726
10274SOL    HW230869   0.080   4.967   1.591
10275SOL     OW30870   5.958   5.462   1.567
10275SOL    HW130871   5.873   5.514   1.553
10275SOL    HW230872   5.936   5.374   1.609
10276SOL     OW30873   6.803   4.033   0.443
10276SOL    HW130874   6.876   3.977   0.404
10276SOL    HW230875   6.839   4.087   0.520
10277SOL     OW30876   6.173   4.459   0.667
10277SOL    HW130877   6.214   4.550   0.659
10277SOL    HW230878   6.103   4.448   0.596
10278SOL     OW30879   6.448   5.107   0.030
10278SOL    HW130880   6.411   5.072   0.117
10278SOL    HW230881   6.460   5.206   0.036
10279SOL     OW30882   6.251   5.509   0.943
10279SOL    HW130883   6.227   5.604   0.921
10279SOL    HW230884   6.349   5.496   0.933
10280SOL     OW30885   6.454   4.694   0.857
10280SOL    HW130886   6.506   4.616   0.893
10280SOL    HW230887   6.412   4.744   0.933
10281SOL     OW30888   6.658   4.703   0.080
10281SOL    HW130889   6.691   4.797   0.066
10281SOL    HW230890   6.734   4.639   0.067
10282SOL     OW30891   5.816   5.023   1.857
10282SOL    HW130892   5.751   4.956   1.822
10282SOL    HW230893   5.802   5.036   1.955
10283SOL     OW30894   5.668   4.958   0.665
10283SOL    HW130895   5.686   4.907   0.749
10283SOL    HW230896   5.716   4.914   0.589
10284SOL     OW30897   6.262   5.135   1.627
10284SOL    HW130898   6.185   5.083   1.665
10284SOL    HW230899   6.265   5.225   1.670
10285SOL     OW30900   6.017   4.153   0.528
10285SOL    HW130901   6.047   4.081   0.465
10285SOL    HW230902   5.962   4.112   0.601
10286SOL     OW30903   5.921   4.280   1.289
10286SOL    HW130904   5.978   4.222   1.348
10286SOL    HW230905   5.936   4.254   1.194
10287SOL     OW30906   6.411   5.304   0.680
10287SOL    HW130907   6.401   5.361   0.599
10287SOL    HW230908   6.335   5.240   0.686
10288SOL     OW30909   6.993   3.944   1.116
10288SOL    HW130910   0.014   3.855   1.155
10288SOL    HW230911   6.940   3.997   1.183
10289SOL     OW30912   6.599   3.739   1.137
10289SOL    HW130913   6.539   3.672   1.093
10289SOL    HW230914   6.692   3.702   1.142
10290SOL     OW30915   6.367   5.042   0.307
10290SOL    HW130916   6.333   4.951   0.328
10290SOL    HW230917   6.447   5.062   0.363
10291SOL     OW30918   6.209   5.283   1.289
10291SOL    HW130919   6.206   5.370   1.339
10291SOL    HW230920   6.300   5.271   1.249
10292SOL     OW30921   5.672   4.778   0.363
10292SOL    HW130922   5.760   4.755   0.321
10292SOL    HW230923   5.618   4.694   0.373
10293SOL     OW30924   6.463   5.383   0.361
10293SOL    HW130925   6.386   5.358   0.302
10293SOL    HW230926   6.439   5.466   0.412
10294SOL     OW30927   5.808   4.343   1.990
10294SOL    HW130928   5.716   4.343   2.030
10294SOL    HW230929   5.801   4.320   1.892
10295SOL     OW30930   5.809   4.008   2.855
10295SOL    HW130931   5.842   3.973   2.943
10295SOL    HW230932   5.717   3.974   2.838
10296SOL     OW30933   5.586   4.111   2.495
10296SOL    HW130934   5.503   4.140   2.542
10296SOL    HW230935   5.568   4.027   2.444
10297SOL     OW30936   6.155   5.021   3.048
10297SOL    HW130937   6.065   5.018   3.005
10297SOL    HW230938   6.173   5.114   3.081
10298SOL     OW30939   0.069   5.270   2.622
10298SOL    HW130940   0.103   5.176   2.632
10298SOL    HW230941   0.040   5.285   2.528
10299SOL     OW30942   6.691   4.443   2.549
10299SOL    HW130943   6.759   4.517   2.538
10299SOL    HW230944   6.656   4.445   2.643
10300SOL     OW30945   6.329   4.864   2.904
10300SOL    HW130946   6.262   4.900   2.968
10300SOL    HW230947   6.374   4.941   2.857
10301SOL     OW30948   6.462   4.489   3.686
10301SOL    HW130949   6.443   4.557   3.757
10301SOL    HW230950   6.483   4.536   3.600
10302SOL     OW30951   6.269   4.723   2.511
10302SOL    HW130952   6.341   4.712   2.580
10302SOL    HW230953   6.195   4.779   2.547
10303SOL     OW30954   6.293   4.874   3.677
10303SOL    HW130955   6.343   4.954   3.709
10303SOL    HW230956   6.207   4.903   3.634
10304SOL     OW30957   5.912   5.147   2.928
10304SOL    HW130958   5.836   5.102   2.881
10304SOL    HW230959   5.965   5.200   2.861
10305SOL     OW30960   6.042   4.129   3.340
10305SOL    HW130961   6.122   4.071   3.347
10305SOL    HW230962   5.959   4.075   3.357
10306SOL     OW30963   5.808   5.438   2.333
10306SOL    HW130964   5.826   5.517   2.393
10306SOL    HW230965   5.883   5.428   2.268
10307SOL     OW30966   6.717   5.069   3.566
10307SOL    HW130967   6.812   5.038   3.569
10307SOL    HW230968   6.656   4.990   3.568
10308SOL     OW30969   5.820   5.167   2.398
10308SOL    HW130970   5.803   5.266   2.397
10308SOL    HW230971   5.759   5.124   2.465
10309SOL     OW30972   5.856   4.814   2.763
10309SOL    HW130973   5.851   4.720   2.796
10309SOL    HW230974   5.793   4.871   2.816
10310SOL     OW30975   6.183   5.523   3.286
10310SOL    HW130976   6.101   5.497   3.338
10310SOL    HW230977   6.214   5.613   3.316
10311SOL     OW30978   6.168   4.711   2.003
10311SOL    HW130979   6.215   4.758   1.928
10311SOL    HW230980   6.208   4.739   2.090
10312SOL     OW30981   5.700   4.384   2.426
10312SOL    HW130982   5.670   4.290   2.442
10312SOL    HW230983   5.694   4.437   2.511
10313SOL     OW30984   5.615   5.315   1.985
10313SOL    HW130985   5.599   5.218   2.004
10313SOL    HW230986   5.594   5.368   2.067
10314SOL     OW30987   5.709   4.470   3.445
10314SOL    HW130988   5.805   4.496   3.447
10314SOL    HW230989   5.652   4.552   3.447
10315SOL     OW30990   6.198   5.115   2.595
10315SOL    HW130991   6.152   5.027   2.608
10315SOL    HW230992   6.185   5.146   2.501
10316SOL     OW30993   6.841   4.946   3.293
10316SOL    HW130994   6.878   4.875   3.233
10316SOL    HW230995   6.902   4.960   3.370
10317SOL     OW30996   6.402   3.734   2.373
10317SOL    HW130997   6.447   3.820   2.349
10317SOL    HW230998   6.303   3.749   2.380
10318SOL     OW30999   5.776   4.686   3.138
10318SOL    HW131000   5.865   4.642   3.124
10318SOL    HW231001   5.707   4.638   3.085
10319SOL     OW31002   6.780   5.538   3.479
10319SOL    HW131003   6.766   5.606   3.407
10319SOL    HW231004   6.779   5.447   3.438
10320SOL     OW31005   5.908   3.993   3.678
10320SOL    HW131006   5.958   4.076   3.703
10320SOL    HW231007   5.815   3.998   3.713
10321SOL     OW31008   6.180   4.444   2.135
10321SOL    HW131009   6.185   4.529   2.083
10321SOL    HW231010   6.111   4.452   2.207
10322SOL     OW31011   6.872   4.045   2.754
10322SOL    HW131012   6.773   4.036   2.769
10322SOL    HW231013   6.921   4.010   2.833
10323SOL     OW31014   6.384   4.336   3.314
10323SOL    HW131015   6.355   4.313   3.406
10323SOL    HW231016   6.344   4.271   3.249
10324SOL     OW31017   6.942   4.183   3.537
10324SOL    HW131018   6.917   4.269   3.583
10324SOL    HW231019   0.041   4.177   3.528
10325SOL     OW31020   6.543   4.609   3.445
10325SOL    HW131021   6.598   4.534   3.408
10325SOL    HW231022   6.490   4.651   3.372
10326SOL     OW31023   6.587   4.143   3.092
10326SOL    HW131024   6.497   4.154   3.134
10326SOL    HW231025   6.579   4.089   3.008
10327SOL     OW31026   6.634   4.425   2.285
10327SOL    HW131027   6.652   4.427   2.383
10327SOL    HW231028   6.548   4.376   2.268
10328SOL     OW31029   5.675   4.552   2.641
10328SOL    HW131030   5.760   4.539   2.692
10328SOL    HW231031   5.626   4.631   2.678
10329SOL     OW31032   5.714   5.596   3.450
10329SOL    HW131033   5.719   5.568   3.546
10329SOL    HW231034   5.629   5.561   3.409
10330SOL     OW31035   6.481   4.076   2.058
10330SOL    HW131036   6.523   4.143   1.996
10330SOL    HW231037   6.484   3.985   2.015
10331SOL     OW31038   6.927   4.857   2.378
10331SOL    HW131039   6.997   4.840   2.309
10331SOL    HW231040   6.875   4.939   2.353
10332SOL     OW31041   6.134   3.897   2.762
10332SOL    HW131042   6.138   3.928   2.857
10332SOL    HW231043   6.136   3.976   2.701
10333SOL     OW31044   6.571   5.173   2.333
10333SOL    HW131045   6.540   5.250   2.279
10333SOL    HW231046   6.547   5.187   2.429
10334SOL     OW31047   5.942   5.538   2.732
10334SOL    HW131048   5.986   5.448   2.739
10334SOL    HW231049   6.009   5.609   2.751
10335SOL     OW31050   6.797   5.282   3.366
10335SOL    HW131051   6.803   5.206   3.431
10335SOL    HW231052   6.750   5.250   3.283
10336SOL     OW31053   5.908   4.683   2.116
10336SOL    HW131054   5.995   4.704   2.073
10336SOL    HW231055   5.871   4.598   2.078
10337SOL     OW31056   6.053   4.987   3.592
10337SOL    HW131057   6.027   4.994   3.496
10337SOL    HW231058   5.971   4.987   3.649
10338SOL     OW31059   6.712   5.495   2.104
10338SOL    HW131060   6.629   5.466   2.153
10338SOL    HW231061   6.725   5.438   2.023
10339SOL     OW31062   5.793   4.024   3.368
10339SOL    HW131063   5.711   4.077   3.346
10339SOL    HW231064   5.773   3.964   3.445
10340SOL     OW31065   6.049   5.459   2.180
10340SOL    HW131066   6.092   5.521   2.246
10340SOL    HW231067   6.120   5.422   2.120
10341SOL     OW31068   5.844   5.516   3.088
10341SOL    HW131069   5.896   5.444   3.135
10341SOL    HW231070   5.826   5.488   2.994
10342SOL     OW31071   6.524   5.425   2.758
10342SOL    HW131072   6.609   5.378   2.781
10342SOL    HW231073   6.477   5.375   2.686
10343SOL     OW31074   5.981   4.412   2.337
10343SOL    HW131075   6.001   4.315   2.350
10343SOL    HW231076   5.884   4.429   2.354
10344SOL     OW31077   6.228   3.841   1.963
10344SOL    HW131078   6.293   3.769   1.986
10344SOL    HW231079   6.170   3.810   1.887
10345SOL     OW31080   6.352   4.003   3.624
10345SOL    HW131081   6.431   3.944   3.615
10345SOL    HW231082   6.297   3.975   3.703
10346SOL     OW31083   6.460   5.242   3.053
10346SOL    HW131084   6.440   5.206   2.962
10346SOL    HW231085   6.532   5.187   3.096
10347SOL     OW31086   6.402   5.114   2.804
10347SOL    HW131087   6.492   5.101   2.763
10347SOL    HW231088   6.333   5.119   2.732
10348SOL     OW31089   6.512   4.231   2.761
10348SOL    HW131090   6.487   4.224   2.664
10348SOL    HW231091   6.543   4.142   2.794
10349SOL     OW31092   6.133   3.789   2.356
10349SOL    HW131093   6.051   3.786   2.413
10349SOL    HW231094   6.130   3.869   2.296
10350SOL     OW31095   6.988   4.847   1.881
10350SOL    HW131096   0.025   4.798   1.961
10350SOL    HW231097   6.922   4.915   1.912
10351SOL     OW31098   5.876   3.773   2.048
10351SOL    HW131099   5.928   3.844   2.001
10351SOL    HW231100   5.939   3.708   2.091
10352SOL     OW31101   6.530   3.973   2.315
10352SOL    HW131102   6.495   4.015   2.231
10352SOL    HW231103   6.629   3.986   2.320
10353SOL     OW31104   6.655   4.391   3.322
10353SOL    HW131105   6.560   4.358   3.322
10353SOL    HW231106   6.717   4.313   3.319
10354SOL     OW31107   6.782   5.298   2.663
10354SOL    HW131108   6.800   5.363   2.590
10354SOL    HW231109   6.867   5.279   2.712
10355SOL     OW31110   6.054   4.876   2.590
10355SOL    HW131111   5.988   4.855   2.662
10355SOL    HW231112   6.012   4.863   2.500
10356SOL     OW31113   6.839   5.516   2.469
10356SOL    HW131114   6.877   5.578   2.400
10356SOL    HW231115   6.769   5.563   2.521
10357SOL     OW31116   6.609   4.262   1.888
10357SOL    HW131117   6.563   4.348   1.870
10357SOL    HW231118   6.674   4.274   1.964
10358SOL     OW31119   5.673   4.280   3.254
10358SOL    HW131120   5.767   4.276   3.221
10358SOL    HW231121   5.664   4.351   3.322
10359SOL     OW31122   6.146   3.954   3.032
10359SOL    HW131123   6.201   3.888   3.083
10359SOL    HW231124   6.051   3.948   3.061
10360SOL     OW31125   6.450   4.178   2.500
10360SOL    HW131126   6.405   4.245   2.441
10360SOL    HW231127   6.476   4.097   2.446
10361SOL     OW31128   6.608   3.772   2.602
10361SOL    HW131129   6.542   3.775   2.527
10361SOL    HW231130   6.581   3.699   2.666
10362SOL     OW31131   6.073   5.146   2.020
10362SOL    HW131132   5.991   5.117   2.071
10362SOL    HW231133   6.075   5.098   1.931
10363SOL     OW31134   6.115   3.988   2.171
10363SOL    HW131135   6.162   3.936   2.100
10363SOL    HW231136   6.086   4.076   2.134
10364SOL     OW31137   6.628   5.072   3.193
10364SOL    HW131138   6.545   5.045   3.242
10364SOL    HW231139   6.707   5.028   3.236
10365SOL     OW31140   6.727   4.950   2.963
10365SOL    HW131141   6.669   4.981   3.038
10365SOL    HW231142   6.686   4.976   2.875
10366SOL     OW31143   6.494   3.878   3.228
10366SOL    HW131144   6.520   3.827   3.145
10366SOL    HW231145   6.576   3.894   3.283
10367SOL     OW31146   6.565   4.836   3.589
10367SOL    HW131147   6.471   4.859   3.614
10367SOL    HW231148   6.566   4.757   3.529
10368SOL     OW31149   6.298   4.782   2.235
10368SOL    HW131150   6.281   4.765   2.332
10368SOL    HW231151   6.377   4.729   2.205
10369SOL     OW31152   6.009   4.539   3.116
10369SOL    HW131153   6.081   4.552   3.183
10369SOL    HW231154   5.969   4.448   3.126
10370SOL     OW31155   6.851   4.096   3.157
10370SOL    HW131156   6.908   4.176   3.175
10370SOL    HW231157   6.760   4.126   3.128
10371SOL     OW31158   5.661   5.296   3.215
10371SOL    HW131159   5.625   5.366   3.153
10371SOL    HW231160   5.760   5.294   3.210
10372SOL     OW31161   5.928   4.842   2.349
10372SOL    HW131162   5.934   4.924   2.292
10372SOL    HW231163   5.926   4.761   2.291
10373SOL     OW31164   6.134   4.267   2.724
10373SOL    HW131165   6.148   4.327   2.644
10373SOL    HW231166   6.204   4.287   2.793
10374SOL     OW31167   6.824   5.094   2.280
10374SOL    HW131168   6.878   5.171   2.314
10374SOL    HW231169   6.727   5.112   2.297
10375SOL     OW31170   6.851   5.201   3.002
10375SOL    HW131171   6.930   5.196   3.063
10375SOL    HW231172   6.810   5.110   2.993
10376SOL     OW31173   5.934   5.254   3.172
10376SOL    HW131174   5.918   5.209   3.084
10376SOL    HW231175   6.032   5.267   3.185
10377SOL     OW31176   6.001   4.470   3.462
10377SOL    HW131177   6.068   4.515   3.403
10377SOL    HW231178   6.032   4.376   3.480
10378SOL     OW31179   6.577   3.847   3.617
10378SOL    HW131180   6.627   3.932   3.599
10378SOL    HW231181   6.631   3.769   3.585
10379SOL     OW31182   6.082   3.794   3.661
10379SOL    HW131183   6.073   3.736   3.580
10379SOL    HW231184   6.013   3.867   3.656
10380SOL     OW31185   6.169   4.597   2.896
10380SOL    HW131186   6.205   4.690   2.893
10380SOL    HW231187   6.109   4.586   2.975
10381SOL     OW31188   6.950   4.572   2.892
10381SOL    HW131189   6.857   4.560   2.857
10381SOL    HW231190   6.987   4.483   2.919
10382SOL     OW31191   6.767   4.259   2.113
10382SOL    HW131192   6.784   4.174   2.163
10382SOL    HW231193   6.729   4.327   2.176
10383SOL     OW31194   5.885   3.919   3.104
10383SOL    HW131195   5.845   3.950   3.190
10383SOL    HW231196   5.866   3.822   3.092
10384SOL     OW31197   5.638   5.034   3.137
10384SOL    HW131198   5.670   4.973   3.209
10384SOL    HW231199   5.641   5.128   3.170
10385SOL     OW31200   6.311   4.357   2.915
10385SOL    HW131201   6.387   4.336   2.854
10385SOL    HW231202   6.276   4.448   2.895
10386SOL     OW31203   5.892   3.787   2.487
10386SOL    HW131204   5.867   3.882   2.506
10386SOL    HW231205   5.906   3.738   2.573
10387SOL     OW31206   0.209   4.174   2.199
10387SOL    HW131207   0.170   4.082   2.203
10387SOL    HW231208   0.190   4.222   2.285
10388SOL     OW31209   6.609   4.480   2.822
10388SOL    HW131210   6.603   4.501   2.919
10388SOL    HW231211   6.584   4.384   2.806
10389SOL     OW31212   6.555   5.290   3.568
10389SOL    HW131213   6.542   5.334   3.480
10389SOL    HW231214   6.607   5.206   3.557
10390SOL     OW31215   5.939   4.641   3.667
10390SOL    HW131216   6.019   4.664   3.722
10390SOL    HW231217   5.964   4.576   3.596
10391SOL     OW31218   6.886   4.541   1.892
10391SOL    HW131219   6.948   4.472   1.929
10391SOL    HW231220   6.923   4.575   1.805
10392SOL     OW31221   6.649   5.057   2.717
10392SOL    HW131222   6.655   4.982   2.652
10392SOL    HW231223   6.702   5.135   2.682
10393SOL     OW31224   5.897   4.530   2.805
10393SOL    HW131225   5.994   4.556   2.800
10393SOL    HW231226   5.889   4.436   2.837
10394SOL     OW31227   5.913   4.252   2.873
10394SOL    HW131228   5.875   4.160   2.862
10394SOL    HW231229   5.995   4.261   2.815
10395SOL     OW31230   6.695   4.084   3.552
10395SOL    HW131231   6.647   4.146   3.614
10395SOL    HW231232   6.790   4.113   3.544
10396SOL     OW31233   6.749   3.916   3.340
10396SOL    HW131234   6.726   3.975   3.417
10396SOL    HW231235   6.791   3.970   3.267
10397SOL     OW31236   5.586   5.039   2.057
10397SOL    HW131237   5.497   5.059   2.017
10397SOL    HW231238   5.587   4.946   2.092
10398SOL     OW31239   5.679   5.507   2.805
10398SOL    HW131240   5.642   5.426   2.760
10398SOL    HW231241   5.773   5.524   2.773
10399SOL     OW31242   6.079   5.300   2.767
10399SOL    HW131243   6.149   5.366   2.794
10399SOL    HW231244   6.120   5.232   2.705
10400SOL     OW31245   6.562   4.517   3.087
10400SOL    HW131246   6.623   4.492   3.163
10400SOL    HW231247   6.474   4.471   3.099
10401SOL     OW31248   5.623   4.278   2.980
10401SOL    HW131249   5.704   4.262   2.923
10401SOL    HW231250   5.649   4.278   3.076
10402SOL     OW31251   5.774   4.251   3.593
10402SOL    HW131252   5.826   4.195   3.529
10402SOL    HW231253   5.737   4.330   3.546
10403SOL     OW31254   6.403   4.296   2.221
10403SOL    HW131255   6.411   4.216   2.161
10403SOL    HW231256   6.325   4.352   2.193
10404SOL     OW31257   5.825   5.271   3.588
10404SOL    HW131258   5.804   5.345   3.652
10404SOL    HW231259   5.832   5.185   3.638
10405SOL     OW31260   6.296   4.178   3.115
10405SOL    HW131261   6.237   4.100   3.094
10405SOL    HW231262   6.292   4.244   3.040
10406SOL     OW31263   6.499   5.411   3.329
10406SOL    HW131264   6.481   5.361   3.244
10406SOL    HW231265   6.495   5.509   3.311
10407SOL     OW31266   6.045   4.219   2.047
10407SOL    HW131267   6.109   4.292   2.073
10407SOL    HW231268   5.954   4.258   2.034
10408SOL     OW31269   5.727   4.861   3.337
10408SOL    HW131270   5.730   4.817   3.426
10408SOL    HW231271   5.748   4.794   3.266
10409SOL     OW31272   6.895   4.769   3.084
10409SOL    HW131273   6.920   4.697   3.020
10409SOL    HW231274   6.831   4.832   3.039
10410SOL     OW31275   6.888   4.595   2.170
10410SOL    HW131276   6.820   4.558   2.234
10410SOL    HW231277   6.861   4.575   2.076
10411SOL     OW31278   6.845   5.472   2.978
10411SOL    HW131279   6.924   5.490   2.919
10411SOL    HW231280   6.835   5.373   2.991
10412SOL     OW31281   5.672   4.989   2.872
10412SOL    HW131282   5.656   5.004   2.970
10412SOL    HW231283   5.600   4.930   2.836
10413SOL     OW31284   6.266   5.398   3.601
10413SOL    HW131285   6.206   5.476   3.591
10413SOL    HW231286   6.342   5.406   3.537
10414SOL     OW31287   6.979   5.309   2.351
10414SOL    HW131288   0.064   5.350   2.319
10414SOL    HW231289   6.917   5.381   2.383
10415SOL     OW31290   5.731   5.512   3.708
10415SOL    HW131291   5.674   5.443   3.753
10415SOL    HW231292   5.780   5.565   3.777
10416SOL     OW31293   6.869   4.641   2.521
10416SOL    HW131294   6.956   4.597   2.545
10416SOL    HW231295   6.887   4.723   2.466
10417SOL     OW31296   6.383   5.000   3.287
10417SOL    HW131297   6.354   5.046   3.371
10417SOL    HW231298   6.314   5.014   3.216
10418SOL     OW31299   6.253   5.347   2.017
10418SOL    HW131300   6.271   5.364   1.920
10418SOL    HW231301   6.197   5.265   2.027
10419SOL     OW31302   5.841   4.038   2.577
10419SOL    HW131303   5.752   4.075   2.549
10419SOL    HW231304   5.845   4.031   2.676
10420SOL     OW31305   6.748   5.332   1.899
10420SOL    HW131306   6.772   5.235   1.901
10420SOL    HW231307   6.687   5.350   1.822
10421SOL     OW31308   6.411   4.732   3.242
10421SOL    HW131309   6.459   4.718   3.155
10421SOL    HW231310   6.405   4.830   3.261
10422SOL     OW31311   6.504   4.634   2.146
10422SOL    HW131312   6.568   4.671   2.080
10422SOL    HW231313   6.550   4.564   2.201
10423SOL     OW31314   5.951   5.027   3.349
10423SOL    HW131315   5.942   5.107   3.290
10423SOL    HW231316   5.871   4.968   3.337
10424SOL     OW31317   6.643   4.830   2.573
10424SOL    HW131318   6.568   4.779   2.615
10424SOL    HW231319   6.710   4.766   2.537
10425SOL     OW31320   6.606   3.963   2.828
10425SOL    HW131321   6.601   3.918   2.739
10425SOL    HW231322   6.605   3.894   2.900
10426SOL     OW31323   6.191   5.210   2.341
10426SOL    HW131324   6.243   5.156   2.275
10426SOL    HW231325   6.116   5.257   2.295
10427SOL     OW31326   5.838   5.071   2.150
10427SOL    HW131327   5.742   5.065   2.123
10427SOL    HW231328   5.844   5.110   2.242
10428SOL     OW31329   5.701   4.759   3.590
10428SOL    HW131330   5.619   4.731   3.640
10428SOL    HW231331   5.781   4.713   3.629
10429SOL     OW31332   6.261   3.962   3.362
10429SOL    HW131333   6.341   3.932   3.309
10429SOL    HW231334   6.288   3.978   3.457
10430SOL     OW31335   5.668   4.052   1.891
10430SOL    HW131336   5.575   4.028   1.860
10430SOL    HW231337   5.699   4.134   1.842
10431SOL     OW31338   5.649   3.879   2.165
10431SOL    HW131339   5.632   3.964   2.114
10431SOL    HW231340   5.737   3.841   2.137
10432SOL     OW31341   6.210   4.552   3.296
10432SOL    HW131342   6.268   4.633   3.282
10432SOL    HW231343   6.268   4.472   3.306
10433SOL     OW31344   6.311   4.282   3.565
10433SOL    HW131345   6.353   4.348   3.627
10433SOL    HW231346   6.327   4.189   3.598
10434SOL     OW31347   0.001   4.987   3.512
10434SOL    HW131348   7.000   4.922   3.588
10434SOL    HW231349   0.080   4.967   3.453
10435SOL     OW31350   5.958   5.462   3.429
10435SOL    HW131351   5.873   5.514   3.415
10435SOL    HW231352   5.936   5.374   3.471
10436SOL     OW31353   6.807   4.036   2.300
10436SOL    HW131354   6.882   3.982   2.261
10436SOL    HW231355   6.842   4.090   2.376
10437SOL     OW31356   6.173   4.460   2.530
10437SOL    HW131357   6.214   4.550   2.520
10437SOL    HW231358   6.103   4.447   2.460
10438SOL     OW31359   6.428   5.091   1.894
10438SOL    HW131360   6.410   5.112   1.990
10438SOL    HW231361   6.460   5.174   1.847
10439SOL     OW31362   6.251   5.509   2.803
10439SOL    HW131363   6.227   5.604   2.783
10439SOL    HW231364   6.350   5.497   2.795
10440SOL     OW31365   6.454   4.694   2.719
10440SOL    HW131366   6.506   4.616   2.754
10440SOL    HW231367   6.412   4.744   2.795
10441SOL     OW31368   6.671   4.713   1.950
10441SOL    HW131369   6.637   4.767   1.873
10441SOL    HW231370   6.744   4.652   1.918
10442SOL     OW31371   5.816   5.023   3.718
10442SOL    HW131372   5.751   4.955   3.684
10442SOL    HW231373   5.802   5.036   3.816
10443SOL     OW31374   5.673   4.954   2.525
10443SOL    HW131375   5.677   4.908   2.614
10443SOL    HW231376   5.741   4.914   2.464
10444SOL     OW31377   6.262   5.135   3.489
10444SOL    HW131378   6.185   5.083   3.527
10444SOL    HW231379   6.266   5.225   3.532
10445SOL     OW31380   6.017   4.152   2.388
10445SOL    HW131381   6.050   4.081   2.326
10445SOL    HW231382   5.962   4.110   2.460
10446SOL     OW31383   5.920   4.281   3.150
10446SOL    HW131384   5.978   4.227   3.210
10446SOL    HW231385   5.936   4.255   3.055
10447SOL     OW31386   6.412   5.304   2.541
10447SOL    HW131387   6.395   5.366   2.464
10447SOL    HW231388   6.336   5.240   2.550
10448SOL     OW31389   6.992   3.944   2.979
10448SOL    HW131390   0.016   3.856   3.018
10448SOL    HW231391   6.939   3.997   3.045
10449SOL     OW31392   6.600   3.741   3.002
10449SOL    HW131393   6.539   3.672   2.965
10449SOL    HW231394   6.693   3.704   3.008
10450SOL     OW31395   6.360   5.056   2.182
10450SOL    HW131396   6.332   4.960   2.189
10450SOL    HW231397   6.445   5.070   2.233
10451SOL     OW31398   6.209   5.284   3.151
10451SOL    HW131399   6.206   5.370   3.201
10451SOL    HW231400   6.300   5.271   3.111
10452SOL     OW31401   6.909   3.805   2.003
10452SOL    HW131402   6.948   3.753   1.927
10452SOL    HW231403   6.831   3.755   2.041
10453SOL     OW31404   5.629   4.788   2.170
10453SOL    HW131405   5.727   4.788   2.151
10453SOL    HW231406   5.599   4.695   2.192
10454SOL     OW31407   6.466   5.389   2.204
10454SOL    HW131408   6.393   5.367   2.139
10454SOL    HW231409   6.438   5.466   2.262
10455SOL     OW31410   5.808   4.344   3.852
10455SOL    HW131411   5.717   4.343   3.893
10455SOL    HW231412   5.800   4.323   3.754
10456SOL     OW31413   5.808   4.006   4.719
10456SOL    HW131414   5.841   3.972   4.807
10456SOL    HW231415   5.715   3.974   4.702
10457SOL     OW31416   5.587   4.110   4.358
10457SOL    HW131417   5.503   4.140   4.403
10457SOL    HW231418   5.569   4.028   4.305
10458SOL     OW31419   6.155   5.021   4.910
10458SOL    HW131420   6.064   5.018   4.867
10458SOL    HW231421   6.173   5.114   4.943
10459SOL     OW31422   0.069   5.270   4.484
10459SOL    HW131423   0.103   5.176   4.493
10459SOL    HW231424   0.040   5.285   4.390
10460SOL     OW31425   6.691   4.444   4.412
10460SOL    HW131426   6.759   4.517   4.400
10460SOL    HW231427   6.656   4.446   4.505
10461SOL     OW31428   6.330   4.864   4.766
10461SOL    HW131429   6.262   4.900   4.830
10461SOL    HW231430   6.374   4.941   4.719
10462SOL     OW31431   6.461   4.489   5.547
10462SOL    HW131432   6.442   4.556   5.619
10462SOL    HW231433   6.483   4.537   5.462
10463SOL     OW31434   6.269   4.722   4.373
10463SOL    HW131435   6.341   4.712   4.442
10463SOL    HW231436   6.195   4.779   4.409
10464SOL     OW31437   6.293   4.874   5.538
10464SOL    HW131438   6.343   4.954   5.571
10464SOL    HW231439   6.207   4.903   5.496
10465SOL     OW31440   5.913   5.147   4.790
10465SOL    HW131441   5.836   5.102   4.743
10465SOL    HW231442   5.965   5.200   4.723
10466SOL     OW31443   6.037   4.117   5.202
10466SOL    HW131444   6.118   4.058   5.210
10466SOL    HW231445   5.955   4.063   5.221
10467SOL     OW31446   5.808   5.438   4.195
10467SOL    HW131447   5.826   5.517   4.255
10467SOL    HW231448   5.883   5.428   4.130
10468SOL     OW31449   6.717   5.069   5.428
10468SOL    HW131450   6.812   5.038   5.431
10468SOL    HW231451   6.656   4.990   5.430
10469SOL     OW31452   5.819   5.167   4.260
10469SOL    HW131453   5.803   5.266   4.259
10469SOL    HW231454   5.759   5.124   4.327
10470SOL     OW31455   5.855   4.814   4.625
10470SOL    HW131456   5.851   4.720   4.658
10470SOL    HW231457   5.793   4.871   4.678
10471SOL     OW31458   6.183   5.522   5.148
10471SOL    HW131459   6.101   5.497   5.200
10471SOL    HW231460   6.214   5.613   5.178
10472SOL     OW31461   6.168   4.711   3.865
10472SOL    HW131462   6.215   4.758   3.790
10472SOL    HW231463   6.208   4.739   3.952
10473SOL     OW31464   5.700   4.385   4.288
10473SOL    HW131465   5.671   4.290   4.304
10473SOL    HW231466   5.694   4.437   4.373
10474SOL     OW31467   5.615   5.315   3.847
10474SOL    HW131468   5.599   5.218   3.866
10474SOL    HW231469   5.594   5.368   3.929
10475SOL     OW31470   5.709   4.469   5.309
10475SOL    HW131471   5.806   4.495   5.310
10475SOL    HW231472   5.652   4.550   5.311
10476SOL     OW31473   6.198   5.115   4.457
10476SOL    HW131474   6.152   5.027   4.470
10476SOL    HW231475   6.185   5.146   4.363
10477SOL     OW31476   6.840   4.946   5.155
10477SOL    HW131477   6.878   4.875   5.095
10477SOL    HW231478   6.902   4.960   5.233
10478SOL     OW31479   6.402   3.735   4.236
10478SOL    HW131480   6.447   3.821   4.211
10478SOL    HW231481   6.303   3.750   4.243
10479SOL     OW31482   5.776   4.686   5.000
10479SOL    HW131483   5.865   4.642   4.986
10479SOL    HW231484   5.707   4.638   4.947
10480SOL     OW31485   6.780   5.538   5.341
10480SOL    HW131486   6.766   5.606   5.269
10480SOL    HW231487   6.779   5.447   5.300
10481SOL     OW31488   5.927   3.974   5.556
10481SOL    HW131489   5.975   4.060   5.571
10481SOL    HW231490   5.830   3.986   5.575
10482SOL     OW31491   6.180   4.443   3.996
10482SOL    HW131492   6.185   4.529   3.945
10482SOL    HW231493   6.111   4.452   4.068
10483SOL     OW31494   6.872   4.045   4.616
10483SOL    HW131495   6.773   4.036   4.631
10483SOL    HW231496   6.921   4.009   4.695
10484SOL     OW31497   6.384   4.336   5.175
10484SOL    HW131498   6.356   4.313   5.268
10484SOL    HW231499   6.344   4.270   5.111
10485SOL     OW31500   6.942   4.183   5.399
10485SOL    HW131501   6.919   4.269   5.446
10485SOL    HW231502   0.042   4.176   5.390
10486SOL     OW31503   6.543   4.609   5.307
10486SOL    HW131504   6.598   4.535   5.269
10486SOL    HW231505   6.490   4.651   5.234
10487SOL     OW31506   6.583   4.135   4.956
10487SOL    HW131507   6.491   4.153   4.991
10487SOL    HW231508   6.577   4.086   4.869
10488SOL     OW31509   6.634   4.425   4.147
10488SOL    HW131510   6.652   4.427   4.246
10488SOL    HW231511   6.548   4.377   4.130
10489SOL     OW31512   5.675   4.551   4.504
10489SOL    HW131513   5.760   4.539   4.554
10489SOL    HW231514   5.625   4.630   4.540
10490SOL     OW31515   5.714   5.596   5.312
10490SOL    HW131516   5.719   5.568   5.408
10490SOL    HW231517   5.629   5.562   5.272
10491SOL     OW31518   6.481   4.079   3.922
10491SOL    HW131519   6.524   4.143   3.859
10491SOL    HW231520   6.471   3.990   3.878
10492SOL     OW31521   6.927   4.857   4.240
10492SOL    HW131522   6.997   4.839   4.171
10492SOL    HW231523   6.875   4.939   4.216
10493SOL     OW31524   6.134   3.898   4.625
10493SOL    HW131525   6.137   3.928   4.720
10493SOL    HW231526   6.136   3.977   4.565
10494SOL     OW31527   6.571   5.173   4.195
10494SOL    HW131528   6.540   5.250   4.140
10494SOL    HW231529   6.546   5.187   4.291
10495SOL     OW31530   5.942   5.538   4.594
10495SOL    HW131531   5.986   5.448   4.601
10495SOL    HW231532   6.009   5.609   4.613
10496SOL     OW31533   6.797   5.282   5.228
10496SOL    HW131534   6.802   5.206   5.293
10496SOL    HW231535   6.751   5.251   5.145
10497SOL     OW31536   5.908   4.683   3.978
10497SOL    HW131537   5.996   4.703   3.935
10497SOL    HW231538   5.871   4.598   3.940
10498SOL     OW31539   6.053   4.987   5.454
10498SOL    HW131540   6.027   4.994   5.358
10498SOL    HW231541   5.971   4.987   5.511
10499SOL     OW31542   6.712   5.495   3.967
10499SOL    HW131543   6.629   5.466   4.015
10499SOL    HW231544   6.725   5.438   3.886
10500SOL     OW31545   5.788   4.000   5.227
10500SOL    HW131546   5.706   4.056   5.223
10500SOL    HW231547   5.767   3.913   5.272
10501SOL     OW31548   6.050   5.459   4.042
10501SOL    HW131549   6.092   5.521   4.108
10501SOL    HW231550   6.120   5.422   3.982
10502SOL     OW31551   5.844   5.516   4.950
10502SOL    HW131552   5.895   5.444   4.997
10502SOL    HW231553   5.826   5.488   4.856
10503SOL     OW31554   6.524   5.425   4.620
10503SOL    HW131555   6.610   5.378   4.642
10503SOL    HW231556   6.477   5.375   4.548
10504SOL     OW31557   5.981   4.413   4.199
10504SOL    HW131558   6.001   4.316   4.213
10504SOL    HW231559   5.884   4.430   4.215
10505SOL     OW31560   6.254   3.849   3.850
10505SOL    HW131561   6.317   3.773   3.862
10505SOL    HW231562   6.187   3.826   3.780
10506SOL     OW31563   6.349   4.001   5.483
10506SOL    HW131564   6.431   3.944   5.475
10506SOL    HW231565   6.295   3.970   5.561
10507SOL     OW31566   6.460   5.242   4.915
10507SOL    HW131567   6.440   5.206   4.824
10507SOL    HW231568   6.532   5.187   4.958
10508SOL     OW31569   6.402   5.114   4.666
10508SOL    HW131570   6.492   5.101   4.625
10508SOL    HW231571   6.333   5.119   4.593
10509SOL     OW31572   6.511   4.230   4.623
10509SOL    HW131573   6.487   4.224   4.527
10509SOL    HW231574   6.543   4.141   4.655
10510SOL     OW31575   6.132   3.789   4.220
10510SOL    HW131576   6.050   3.786   4.277
10510SOL    HW231577   6.129   3.870   4.162
10511SOL     OW31578   6.989   4.847   3.743
10511SOL    HW131579   0.025   4.797   3.823
10511SOL    HW231580   6.922   4.915   3.774
10512SOL     OW31581   5.881   3.776   3.924
10512SOL    HW131582   5.936   3.840   3.870
10512SOL    HW231583   5.942   3.706   3.964
10513SOL     OW31584   6.530   3.973   4.178
10513SOL    HW131585   6.496   4.015   4.094
10513SOL    HW231586   6.630   3.985   4.183
10514SOL     OW31587   6.655   4.392   5.184
10514SOL    HW131588   6.561   4.358   5.184
10514SOL    HW231589   6.719   4.314   5.185
10515SOL     OW31590   6.782   5.298   4.525
10515SOL    HW131591   6.800   5.363   4.452
10515SOL    HW231592   6.867   5.279   4.574
10516SOL     OW31593   6.054   4.876   4.452
10516SOL    HW131594   5.988   4.855   4.524
10516SOL    HW231595   6.012   4.863   4.362
10517SOL     OW31596   6.839   5.516   4.331
10517SOL    HW131597   6.877   5.578   4.262
10517SOL    HW231598   6.769   5.564   4.383
10518SOL     OW31599   6.610   4.262   3.750
10518SOL    HW131600   6.564   4.348   3.731
10518SOL    HW231601   6.674   4.274   3.826
10519SOL     OW31602   5.672   4.281   5.115
10519SOL    HW131603   5.767   4.277   5.083
10519SOL    HW231604   5.664   4.352   5.185
10520SOL     OW31605   6.145   3.949   4.897
10520SOL    HW131606   6.194   3.872   4.939
10520SOL    HW231607   6.049   3.947   4.926
10521SOL     OW31608   6.450   4.178   4.362
10521SOL    HW131609   6.405   4.245   4.302
10521SOL    HW231610   6.476   4.098   4.309
10522SOL     OW31611   6.607   3.772   4.465
10522SOL    HW131612   6.541   3.775   4.390
10522SOL    HW231613   6.581   3.699   4.529
10523SOL     OW31614   6.072   5.146   3.882
10523SOL    HW131615   5.991   5.117   3.933
10523SOL    HW231616   6.075   5.098   3.793
10524SOL     OW31617   6.115   3.992   4.040
10524SOL    HW131618   6.173   3.942   3.975
10524SOL    HW231619   6.084   4.077   3.998
10525SOL     OW31620   6.628   5.071   5.055
10525SOL    HW131621   6.545   5.045   5.105
10525SOL    HW231622   6.707   5.028   5.098
10526SOL     OW31623   6.727   4.949   4.825
10526SOL    HW131624   6.669   4.981   4.900
10526SOL    HW231625   6.686   4.976   4.737
10527SOL     OW31626   6.505   3.820   5.111
10527SOL    HW131627   6.526   3.796   5.017
10527SOL    HW231628   6.585   3.861   5.155
10528SOL     OW31629   6.566   4.836   5.452
10528SOL    HW131630   6.472   4.859   5.477
10528SOL    HW231631   6.566   4.756   5.391
10529SOL     OW31632   6.298   4.782   4.097
10529SOL    HW131633   6.281   4.765   4.194
10529SOL    HW231634   6.377   4.729   4.067
10530SOL     OW31635   6.008   4.539   4.978
10530SOL    HW131636   6.081   4.552   5.045
10530SOL    HW231637   5.969   4.448   4.989
10531SOL     OW31638   6.851   4.097   5.017
10531SOL    HW131639   6.908   4.177   5.036
10531SOL    HW231640   6.759   4.127   4.990
10532SOL     OW31641   5.660   5.296   5.077
10532SOL    HW131642   5.625   5.367   5.016
10532SOL    HW231643   5.760   5.294   5.072
10533SOL     OW31644   5.928   4.842   4.211
10533SOL    HW131645   5.934   4.924   4.154
10533SOL    HW231646   5.926   4.761   4.152
10534SOL     OW31647   6.134   4.267   4.587
10534SOL    HW131648   6.148   4.326   4.507
10534SOL    HW231649   6.204   4.288   4.656
10535SOL     OW31650   6.824   5.094   4.142
10535SOL    HW131651   6.878   5.171   4.176
10535SOL    HW231652   6.727   5.112   4.159
10536SOL     OW31653   6.851   5.201   4.864
10536SOL    HW131654   6.930   5.196   4.925
10536SOL    HW231655   6.810   5.110   4.856
10537SOL     OW31656   5.934   5.254   5.034
10537SOL    HW131657   5.918   5.209   4.946
10537SOL    HW231658   6.032   5.267   5.047
10538SOL     OW31659   6.001   4.470   5.324
10538SOL    HW131660   6.068   4.516   5.265
10538SOL    HW231661   6.033   4.378   5.346
10539SOL     OW31662   6.577   3.848   5.477
10539SOL    HW131663   6.630   3.932   5.458
10539SOL    HW231664   6.633   3.768   5.454
10540SOL     OW31665   6.078   3.762   5.473
10540SOL    HW131666   6.034   3.703   5.406
10540SOL    HW231667   6.020   3.841   5.492
10541SOL     OW31668   6.170   4.595   4.759
10541SOL    HW131669   6.205   4.689   4.755
10541SOL    HW231670   6.109   4.586   4.837
10542SOL     OW31671   6.951   4.572   4.754
10542SOL    HW131672   6.858   4.561   4.719
10542SOL    HW231673   6.987   4.483   4.781
10543SOL     OW31674   6.767   4.259   3.975
10543SOL    HW131675   6.783   4.174   4.024
10543SOL    HW231676   6.729   4.327   4.038
10544SOL     OW31677   5.883   3.921   4.971
10544SOL    HW131678   5.847   3.957   5.057
10544SOL    HW231679   5.868   3.822   4.967
10545SOL     OW31680   5.638   5.034   4.999
10545SOL    HW131681   5.670   4.973   5.072
10545SOL    HW231682   5.641   5.128   5.032
10546SOL     OW31683   6.311   4.356   4.780
10546SOL    HW131684   6.387   4.335   4.718
10546SOL    HW231685   6.275   4.447   4.760
10547SOL     OW31686   5.892   3.785   4.353
10547SOL    HW131687   5.867   3.880   4.370
10547SOL    HW231688   5.903   3.736   4.439
10548SOL     OW31689   0.210   4.174   4.062
10548SOL    HW131690   0.170   4.082   4.065
10548SOL    HW231691   0.190   4.222   4.147
10549SOL     OW31692   6.608   4.479   4.683
10549SOL    HW131693   6.603   4.500   4.781
10549SOL    HW231694   6.583   4.383   4.668
10550SOL     OW31695   6.555   5.290   5.430
10550SOL    HW131696   6.542   5.334   5.342
10550SOL    HW231697   6.607   5.206   5.419
10551SOL     OW31698   5.939   4.642   5.529
10551SOL    HW131699   6.019   4.664   5.584
10551SOL    HW231700   5.964   4.577   5.458
10552SOL     OW31701   6.886   4.541   3.754
10552SOL    HW131702   6.947   4.471   3.791
10552SOL    HW231703   6.922   4.575   3.667
10553SOL     OW31704   6.650   5.057   4.580
10553SOL    HW131705   6.655   4.982   4.515
10553SOL    HW231706   6.702   5.135   4.545
10554SOL     OW31707   5.897   4.530   4.667
10554SOL    HW131708   5.994   4.556   4.661
10554SOL    HW231709   5.889   4.436   4.699
10555SOL     OW31710   5.913   4.251   4.736
10555SOL    HW131711   5.874   4.160   4.725
10555SOL    HW231712   5.994   4.260   4.678
10556SOL     OW31713   6.695   4.086   5.413
10556SOL    HW131714   6.647   4.148   5.476
10556SOL    HW231715   6.790   4.114   5.405
10557SOL     OW31716   6.743   3.919   5.198
10557SOL    HW131717   6.722   3.978   5.276
10557SOL    HW231718   6.787   3.974   5.127
10558SOL     OW31719   5.586   5.039   3.919
10558SOL    HW131720   5.497   5.059   3.879
10558SOL    HW231721   5.587   4.946   3.954
10559SOL     OW31722   5.679   5.507   4.667
10559SOL    HW131723   5.643   5.426   4.622
10559SOL    HW231724   5.773   5.524   4.635
10560SOL     OW31725   6.079   5.300   4.629
10560SOL    HW131726   6.149   5.366   4.656
10560SOL    HW231727   6.120   5.232   4.567
10561SOL     OW31728   6.563   4.516   4.949
10561SOL    HW131729   6.623   4.491   5.025
10561SOL    HW231730   6.473   4.474   4.963
10562SOL     OW31731   5.623   4.276   4.841
10562SOL    HW131732   5.705   4.263   4.786
10562SOL    HW231733   5.648   4.278   4.938
10563SOL     OW31734   5.778   4.247   5.454
10563SOL    HW131735   5.829   4.192   5.388
10563SOL    HW231736   5.739   4.327   5.408
10564SOL     OW31737   6.403   4.297   4.085
10564SOL    HW131738   6.413   4.218   4.025
10564SOL    HW231739   6.325   4.352   4.055
10565SOL     OW31740   5.825   5.271   5.450
10565SOL    HW131741   5.804   5.345   5.513
10565SOL    HW231742   5.832   5.185   5.500
10566SOL     OW31743   6.297   4.173   4.978
10566SOL    HW131744   6.238   4.095   4.956
10566SOL    HW231745   6.292   4.241   4.904
10567SOL     OW31746   6.499   5.411   5.191
10567SOL    HW131747   6.481   5.361   5.106
10567SOL    HW231748   6.496   5.509   5.173
10568SOL     OW31749   6.044   4.219   3.909
10568SOL    HW131750   6.109   4.291   3.934
10568SOL    HW231751   5.954   4.259   3.896
10569SOL     OW31752   5.727   4.861   5.199
10569SOL    HW131753   5.729   4.817   5.289
10569SOL    HW231754   5.748   4.794   5.128
10570SOL     OW31755   6.894   4.769   4.946
10570SOL    HW131756   6.920   4.696   4.882
10570SOL    HW231757   6.831   4.832   4.901
10571SOL     OW31758   6.888   4.595   4.032
10571SOL    HW131759   6.820   4.558   4.095
10571SOL    HW231760   6.861   4.575   3.938
10572SOL     OW31761   6.845   5.472   4.840
10572SOL    HW131762   6.924   5.490   4.781
10572SOL    HW231763   6.835   5.373   4.853
10573SOL     OW31764   5.672   4.989   4.734
10573SOL    HW131765   5.657   5.004   4.832
10573SOL    HW231766   5.599   4.931   4.698
10574SOL     OW31767   6.266   5.397   5.463
10574SOL    HW131768   6.206   5.476   5.453
10574SOL    HW231769   6.342   5.406   5.398
10575SOL     OW31770   6.979   5.309   4.213
10575SOL    HW131771   0.064   5.350   4.181
10575SOL    HW231772   6.917   5.381   4.245
10576SOL     OW31773   5.731   5.511   5.570
10576SOL    HW131774   5.674   5.443   5.615
10576SOL    HW231775   5.780   5.564   5.639
10577SOL     OW31776   6.869   4.641   4.383
10577SOL    HW131777   6.956   4.596   4.406
10577SOL    HW231778   6.888   4.722   4.328
10578SOL     OW31779   6.383   5.000   5.150
10578SOL    HW131780   6.354   5.046   5.234
10578SOL    HW231781   6.314   5.015   5.078
10579SOL     OW31782   6.253   5.347   3.879
10579SOL    HW131783   6.271   5.364   3.782
10579SOL    HW231784   6.197   5.265   3.889
10580SOL     OW31785   5.841   4.037   4.440
10580SOL    HW131786   5.753   4.075   4.412
10580SOL    HW231787   5.844   4.030   4.539
10581SOL     OW31788   6.749   5.332   3.761
10581SOL    HW131789   6.772   5.235   3.763
10581SOL    HW231790   6.687   5.350   3.684
10582SOL     OW31791   6.412   4.733   5.103
10582SOL    HW131792   6.459   4.720   5.016
10582SOL    HW231793   6.404   4.830   5.123
10583SOL     OW31794   6.504   4.634   4.009
10583SOL    HW131795   6.568   4.671   3.942
10583SOL    HW231796   6.550   4.564   4.063
10584SOL     OW31797   5.951   5.026   5.210
10584SOL    HW131798   5.942   5.107   5.152
10584SOL    HW231799   5.871   4.968   5.199
10585SOL     OW31800   6.643   4.830   4.435
10585SOL    HW131801   6.568   4.779   4.477
10585SOL    HW231802   6.710   4.766   4.399
10586SOL     OW31803   6.606   3.963   4.690
10586SOL    HW131804   6.601   3.919   4.601
10586SOL    HW231805   6.605   3.894   4.762
10587SOL     OW31806   6.191   5.210   4.203
10587SOL    HW131807   6.243   5.156   4.137
10587SOL    HW231808   6.116   5.257   4.157
10588SOL     OW31809   5.838   5.071   4.012
10588SOL    HW131810   5.742   5.065   3.985
10588SOL    HW231811   5.844   5.110   4.104
10589SOL     OW31812   5.700   4.757   5.451
10589SOL    HW131813   5.619   4.730   5.502
10589SOL    HW231814   5.781   4.713   5.491
10590SOL     OW31815   6.268   3.920   5.224
10590SOL    HW131816   6.354   3.895   5.179
10590SOL    HW231817   6.287   3.953   5.317
10591SOL     OW31818   5.658   4.060   3.762
10591SOL    HW131819   5.573   4.025   3.722
10591SOL    HW231820   5.687   4.141   3.711
10592SOL     OW31821   5.648   3.881   4.028
10592SOL    HW131822   5.630   3.961   3.971
10592SOL    HW231823   5.738   3.844   4.006
10593SOL     OW31824   6.210   4.553   5.158
10593SOL    HW131825   6.267   4.634   5.143
10593SOL    HW231826   6.269   4.472   5.168
10594SOL     OW31827   6.311   4.281   5.425
10594SOL    HW131828   6.353   4.347   5.488
10594SOL    HW231829   6.326   4.189   5.459
10595SOL     OW31830   0.002   4.987   5.374
10595SOL    HW131831   7.000   4.922   5.450
10595SOL    HW231832   0.080   4.967   5.315
10596SOL     OW31833   5.957   5.462   5.291
10596SOL    HW131834   5.873   5.514   5.277
10596SOL    HW231835   5.936   5.374   5.333
10597SOL     OW31836   6.807   4.035   4.163
10597SOL    HW131837   6.882   3.982   4.123
10597SOL    HW231838   6.843   4.091   4.238
10598SOL     OW31839   6.172   4.460   4.393
10598SOL    HW131840   6.214   4.550   4.382
10598SOL    HW231841   6.103   4.447   4.322
10599SOL     OW31842   6.428   5.092   3.756
10599SOL    HW131843   6.410   5.113   3.852
10599SOL    HW231844   6.460   5.174   3.709
10600SOL     OW31845   6.251   5.509   4.665
10600SOL    HW131846   6.227   5.604   4.645
10600SOL    HW231847   6.350   5.497   4.657
10601SOL     OW31848   6.454   4.694   4.581
10601SOL    HW131849   6.505   4.616   4.616
10601SOL    HW231850   6.412   4.744   4.657
10602SOL     OW31851   6.671   4.713   3.812
10602SOL    HW131852   6.637   4.767   3.735
10602SOL    HW231853   6.744   4.652   3.780
10603SOL     OW31854   5.817   5.023   5.581
10603SOL    HW131855   5.750   4.957   5.547
10603SOL    HW231856   5.803   5.037   5.679
10604SOL     OW31857   5.673   4.954   4.387
10604SOL    HW131858   5.678   4.908   4.476
10604SOL    HW231859   5.741   4.914   4.326
10605SOL     OW31860   6.262   5.135   5.352
10605SOL    HW131861   6.185   5.083   5.389
10605SOL    HW231862   6.265   5.225   5.394
10606SOL     OW31863   6.016   4.153   4.253
10606SOL    HW131864   6.051   4.084   4.189
10606SOL    HW231865   5.962   4.109   4.324
10607SOL     OW31866   5.921   4.280   5.013
10607SOL    HW131867   5.978   4.222   5.072
10607SOL    HW231868   5.936   4.254   4.918
10608SOL     OW31869   6.412   5.304   4.403
10608SOL    HW131870   6.396   5.366   4.326
10608SOL    HW231871   6.336   5.240   4.411
10609SOL     OW31872   6.992   3.944   4.840
10609SOL    HW131873   0.016   3.855   4.880
10609SOL    HW231874   6.939   3.997   4.907
10610SOL     OW31875   6.599   3.739   4.861
10610SOL    HW131876   6.539   3.672   4.817
10610SOL    HW231877   6.692   3.703   4.866
10611SOL     OW31878   6.360   5.056   4.044
10611SOL    HW131879   6.332   4.960   4.051
10611SOL    HW231880   6.445   5.070   4.095
10612SOL     OW31881   6.209   5.283   5.013
10612SOL    HW131882   6.206   5.370   5.063
10612SOL    HW231883   6.300   5.271   4.973
10613SOL     OW31884   6.909   3.806   3.865
10613SOL    HW131885   6.951   3.752   3.792
10613SOL    HW231886   6.831   3.757   3.902
10614SOL     OW31887   5.629   4.788   4.032
10614SOL    HW131888   5.727   4.788   4.013
10614SOL    HW231889   5.599   4.695   4.054
10615SOL     OW31890   6.466   5.389   4.066
10615SOL    HW131891   6.393   5.367   4.001
10615SOL    HW231892   6.438   5.466   4.124
10616SOL     OW31893   5.808   4.343   5.714
10616SOL    HW131894   5.716   4.343   5.754
10616SOL    HW231895   5.801   4.320   5.616
10617SOL     OW31896   5.806   4.012   6.582
10617SOL    HW131897   5.842   3.973   6.667
10617SOL    HW231898   5.715   3.975   6.565
10618SOL     OW31899   5.586   4.110   6.221
10618SOL    HW131900   5.502   4.141   6.265
10618SOL    HW231901   5.568   4.026   6.169
10619SOL     OW31902   6.143   5.004   6.755
10619SOL    HW131903   6.056   5.029   6.713
10619SOL    HW231904   6.175   5.079   6.813
10620SOL     OW31905   0.069   5.269   6.347
10620SOL    HW131906   0.104   5.176   6.354
10620SOL    HW231907   0.040   5.287   6.253
10621SOL     OW31908   6.692   4.443   6.275
10621SOL    HW131909   6.759   4.517   6.264
10621SOL    HW231910   6.655   4.445   6.368
10622SOL     OW31911   6.338   4.865   6.625
10622SOL    HW131912   6.266   4.892   6.688
10622SOL    HW231913   6.375   4.946   6.580
10623SOL     OW31914   6.269   4.722   6.235
10623SOL    HW131915   6.340   4.712   6.305
10623SOL    HW231916   6.195   4.779   6.271
10624SOL     OW31917   5.918   5.135   6.648
10624SOL    HW131918   5.833   5.103   6.606
10624SOL    HW231919   5.965   5.197   6.586
10625SOL     OW31920   5.808   5.438   6.057
10625SOL    HW131921   5.826   5.516   6.117
10625SOL    HW231922   5.883   5.428   5.992
10626SOL     OW31923   5.819   5.167   6.122
10626SOL    HW131924   5.803   5.266   6.122
10626SOL    HW231925   5.759   5.124   6.190
10627SOL     OW31926   5.852   4.815   6.485
10627SOL    HW131927   5.849   4.722   6.522
10627SOL    HW231928   5.794   4.874   6.541
10628SOL     OW31929   6.175   5.551   6.958
10628SOL    HW131930   6.099   5.509   0.007
10628SOL    HW231931   6.208   5.631   0.008
10629SOL     OW31932   6.169   4.710   5.727
10629SOL    HW131933   6.215   4.758   5.652
10629SOL    HW231934   6.208   4.739   5.814
10630SOL     OW31935   0.242   3.916   0.084
10630SOL    HW131936   0.173   3.987   0.073
10630SOL    HW231937   0.200   3.835   0.126
10631SOL     OW31938   5.700   4.385   6.150
10631SOL    HW131939   5.670   4.291   6.167
10631SOL    HW231940   5.694   4.437   6.235
10632SOL     OW31941   5.615   5.315   5.709
10632SOL    HW131942   5.599   5.218   5.728
10632SOL    HW231943   5.594   5.368   5.791
10633SOL     OW31944   6.199   5.114   6.319
10633SOL    HW131945   6.152   5.027   6.333
10633SOL    HW231946   6.185   5.145   6.225
10634SOL     OW31947   6.822   4.915   0.024
10634SOL    HW131948   6.871   4.869   6.950
10634SOL    HW231949   6.887   4.962   0.083
10635SOL     OW31950   6.402   3.734   6.097
10635SOL    HW131951   6.447   3.820   6.073
10635SOL    HW231952   6.303   3.749   6.104
10636SOL     OW31953   5.778   4.701   6.847
10636SOL    HW131954   5.861   4.648   6.829
10636SOL    HW231955   5.697   4.648   6.821
10637SOL     OW31956   6.180   4.444   5.859
10637SOL    HW131957   6.185   4.529   5.807
10637SOL    HW231958   6.111   4.452   5.931
10638SOL     OW31959   6.871   4.048   6.478
10638SOL    HW131960   6.773   4.034   6.490
10638SOL    HW231961   6.920   4.012   6.557
10639SOL     OW31962   6.405   4.306   0.047
10639SOL    HW131963   6.352   4.367   0.106
10639SOL    HW231964   6.344   4.264   6.980
10640SOL     OW31965   6.568   4.097   6.802
10640SOL    HW131966   6.492   4.152   6.837
10640SOL    HW231967   6.540   4.050   6.719
10641SOL     OW31968   6.634   4.425   6.010
10641SOL    HW131969   6.652   4.426   6.108
10641SOL    HW231970   6.548   4.377   5.992
10642SOL     OW31971   5.675   4.551   6.366
10642SOL    HW131972   5.761   4.540   6.417
10642SOL    HW231973   5.626   4.630   6.402
10643SOL     OW31974   5.741   5.577   0.150
10643SOL    HW131975   5.704   5.500   0.202
10643SOL    HW231976   5.690   5.588   0.065
10644SOL     OW31977   6.481   4.076   5.782
10644SOL    HW131978   6.523   4.143   5.720
10644SOL    HW231979   6.483   3.986   5.739
10645SOL     OW31980   6.927   4.856   6.102
10645SOL    HW131981   6.996   4.839   6.033
10645SOL    HW231982   6.875   4.938   6.078
10646SOL     OW31983   6.135   3.898   6.487
10646SOL    HW131984   6.140   3.926   6.582
10646SOL    HW231985   6.136   3.979   6.428
10647SOL     OW31986   6.571   5.173   6.056
10647SOL    HW131987   6.541   5.250   6.001
10647SOL    HW231988   6.544   5.188   6.152
10648SOL     OW31989   5.941   5.538   6.454
10648SOL    HW131990   5.983   5.448   6.464
10648SOL    HW231991   6.009   5.608   6.475
10649SOL     OW31992   5.908   4.683   5.840
10649SOL    HW131993   5.996   4.703   5.797
10649SOL    HW231994   5.871   4.598   5.802
10650SOL     OW31995   6.712   5.495   5.828
10650SOL    HW131996   6.629   5.466   5.876
10650SOL    HW231997   6.726   5.438   5.747
10651SOL     OW31998   6.049   5.459   5.904
10651SOL    HW131999   6.091   5.521   5.970
10651SOL    HW232000   6.120   5.422   5.844
10652SOL     OW32001   5.851   5.524   6.821
10652SOL    HW132002   5.906   5.472   6.886
10652SOL    HW232003   5.815   5.463   6.751
10653SOL     OW32004   6.521   5.427   6.479
10653SOL    HW132005   6.603   5.380   6.511
10653SOL    HW232006   6.479   5.374   6.406
10654SOL     OW32007   5.982   4.412   6.060
10654SOL    HW132008   6.001   4.315   6.074
10654SOL    HW232009   5.885   4.429   6.078
10655SOL     OW32010   6.228   3.841   5.686
10655SOL    HW132011   6.293   3.769   5.711
10655SOL    HW232012   6.171   3.810   5.611
10656SOL     OW32013   6.459   5.243   6.770
10656SOL    HW132014   6.442   5.206   6.678
10656SOL    HW232015   6.477   5.167   6.833
10657SOL     OW32016   6.404   5.114   6.525
10657SOL    HW132017   6.494   5.101   6.483
10657SOL    HW232018   6.334   5.119   6.454
10658SOL     OW32019   6.513   4.230   6.486
10658SOL    HW132020   6.487   4.224   6.389
10658SOL    HW232021   6.548   4.141   6.516
10659SOL     OW32022   6.133   3.788   6.080
10659SOL    HW132023   6.051   3.785   6.138
10659SOL    HW232024   6.129   3.869   6.021
10660SOL     OW32025   6.988   4.847   5.606
10660SOL    HW132026   0.025   4.798   5.685
10660SOL    HW232027   6.922   4.915   5.636
10661SOL     OW32028   5.876   3.773   5.771
10661SOL    HW132029   5.929   3.844   5.725
10661SOL    HW232030   5.938   3.708   5.815
10662SOL     OW32031   6.530   3.974   6.040
10662SOL    HW132032   6.495   4.016   5.956
10662SOL    HW232033   6.629   3.986   6.044
10663SOL     OW32034   6.784   5.294   6.381
10663SOL    HW132035   6.794   5.363   6.310
10663SOL    HW232036   6.872   5.281   6.427
10664SOL     OW32037   6.054   4.875   6.314
10664SOL    HW132038   5.987   4.856   6.386
10664SOL    HW232039   6.012   4.862   6.225
10665SOL     OW32040   6.838   5.516   6.192
10665SOL    HW132041   6.875   5.577   6.123
10665SOL    HW232042   6.767   5.563   6.245
10666SOL     OW32043   6.609   4.262   5.612
10666SOL    HW132044   6.563   4.348   5.594
10666SOL    HW232045   6.674   4.274   5.688
10667SOL     OW32046   6.149   3.942   6.760
10667SOL    HW132047   6.192   3.859   6.795
10667SOL    HW232048   6.053   3.944   6.787
10668SOL     OW32049   6.450   4.179   6.224
10668SOL    HW132050   6.405   4.245   6.164
10668SOL    HW232051   6.475   4.098   6.171
10669SOL     OW32052   6.608   3.771   6.323
10669SOL    HW132053   6.541   3.773   6.249
10669SOL    HW232054   6.582   3.700   6.389
10670SOL     OW32055   6.073   5.145   5.744
10670SOL    HW132056   5.991   5.118   5.795
10670SOL    HW232057   6.074   5.099   5.656
10671SOL     OW32058   6.115   3.988   5.895
10671SOL    HW132059   6.162   3.936   5.824
10671SOL    HW232060   6.086   4.076   5.858
10672SOL     OW32061   0.225   5.300   0.247
10672SOL    HW132062   0.236   5.360   0.168
10672SOL    HW232063   0.302   5.236   0.251
10673SOL     OW32064   6.721   4.945   6.690
10673SOL    HW132065   6.642   4.933   6.750
10673SOL    HW232066   6.690   4.975   6.600
10674SOL     OW32067   6.298   4.783   5.959
10674SOL    HW132068   6.281   4.765   6.056
10674SOL    HW232069   6.377   4.729   5.929
10675SOL     OW32070   6.010   4.538   6.846
10675SOL    HW132071   6.064   4.566   6.925
10675SOL    HW232072   5.974   4.446   6.861
10676SOL     OW32073   6.827   4.133   6.865
10676SOL    HW132074   6.809   4.215   6.918
10676SOL    HW232075   6.745   4.105   6.816
10677SOL     OW32076   5.678   5.284   6.858
10677SOL    HW132077   5.619   5.359   6.889
10677SOL    HW232078   5.760   5.281   6.915
10678SOL     OW32079   5.928   4.842   6.073
10678SOL    HW132080   5.933   4.925   6.017
10678SOL    HW232081   5.926   4.761   6.014
10679SOL     OW32082   6.133   4.269   6.448
10679SOL    HW132083   6.147   4.327   6.368
10679SOL    HW232084   6.204   4.289   6.516
10680SOL     OW32085   6.824   5.094   6.005
10680SOL    HW132086   6.879   5.171   6.038
10680SOL    HW232087   6.727   5.112   6.021
10681SOL     OW32088   6.822   5.199   6.757
10681SOL    HW132089   6.917   5.189   6.786
10681SOL    HW232090   6.784   5.109   6.736
10682SOL     OW32091   5.951   5.217   6.903
10682SOL    HW132092   5.922   5.180   6.815
10682SOL    HW232093   6.045   5.252   6.896
10683SOL     OW32094   6.171   4.595   6.623
10683SOL    HW132095   6.205   4.689   6.616
10683SOL    HW232096   6.111   4.587   6.702
10684SOL     OW32097   6.951   4.569   6.607
10684SOL    HW132098   6.859   4.553   6.571
10684SOL    HW232099   6.990   4.481   6.637
10685SOL     OW32100   6.767   4.259   5.837
10685SOL    HW132101   6.783   4.174   5.886
10685SOL    HW232102   6.729   4.327   5.900
10686SOL     OW32103   5.888   3.926   6.834
10686SOL    HW132104   5.849   3.956   6.921
10686SOL    HW232105   5.875   3.827   6.824
10687SOL     OW32106   5.613   5.025   6.869
10687SOL    HW132107   5.666   4.977   6.938
10687SOL    HW232108   5.639   5.121   6.866
10688SOL     OW32109   6.310   4.353   6.641
10688SOL    HW132110   6.387   4.333   6.581
10688SOL    HW232111   6.276   4.446   6.623
10689SOL     OW32112   5.892   3.786   6.213
10689SOL    HW132113   5.868   3.881   6.232
10689SOL    HW232114   5.903   3.737   6.299
10690SOL     OW32115   0.210   4.174   5.924
10690SOL    HW132116   0.171   4.082   5.926
10690SOL    HW232117   0.189   4.221   6.009
10691SOL     OW32118   6.610   4.478   6.549
10691SOL    HW132119   6.602   4.498   6.646
10691SOL    HW232120   6.584   4.383   6.532
10692SOL     OW32121   6.886   4.541   5.617
10692SOL    HW132122   6.948   4.471   5.653
10692SOL    HW232123   6.922   4.575   5.530
10693SOL     OW32124   6.655   5.056   6.444
10693SOL    HW132125   6.657   4.981   6.377
10693SOL    HW232126   6.703   5.135   6.406
10694SOL     OW32127   5.899   4.529   6.529
10694SOL    HW132128   5.995   4.556   6.522
10694SOL    HW232129   5.893   4.434   6.560
10695SOL     OW32130   5.918   4.252   6.604
10695SOL    HW132131   5.877   4.162   6.590
10695SOL    HW232132   5.998   4.262   6.544
10696SOL     OW32133   6.768   3.941   0.053
10696SOL    HW132134   6.768   3.993   0.139
10696SOL    HW232135   6.773   4.005   6.976
10697SOL     OW32136   5.586   5.039   5.780
10697SOL    HW132137   5.497   5.059   5.740
10697SOL    HW232138   5.587   4.946   5.816
10698SOL     OW32139   5.676   5.514   6.526
10698SOL    HW132140   5.641   5.430   6.483
10698SOL    HW232141   5.772   5.526   6.501
10699SOL     OW32142   6.078   5.301   6.490
10699SOL    HW132143   6.148   5.367   6.518
10699SOL    HW232144   6.119   5.232   6.430
10700SOL     OW32145   6.566   4.517   6.816
10700SOL    HW132146   6.632   4.513   6.891
10700SOL    HW232147   6.477   4.483   6.847
10701SOL     OW32148   5.636   4.281   6.712
10701SOL    HW132149   5.692   4.246   6.637
10701SOL    HW232150   5.696   4.315   6.784
10702SOL     OW32151   6.403   4.297   5.945
10702SOL    HW132152   6.411   4.217   5.886
10702SOL    HW232153   6.325   4.352   5.917
10703SOL     OW32154   6.269   4.184   6.847
10703SOL    HW132155   6.228   4.097   6.819
10703SOL    HW232156   6.275   4.245   6.768
10704SOL     OW32157   6.451   5.386   0.014
10704SOL    HW132158   6.463   5.367   6.917
10704SOL    HW232159   6.522   5.451   0.044
10705SOL     OW32160   6.045   4.220   5.771
10705SOL    HW132161   6.109   4.292   5.797
10705SOL    HW232162   5.954   4.258   5.758
10706SOL     OW32163   5.742   4.866   0.059
10706SOL    HW132164   5.798   4.826   0.131
10706SOL    HW232165   5.752   4.811   6.976
10707SOL     OW32166   6.887   4.746   6.807
10707SOL    HW132167   6.918   4.686   6.733
10707SOL    HW232168   6.833   4.820   6.769
10708SOL     OW32169   6.888   4.595   5.894
10708SOL    HW132170   6.819   4.557   5.957
10708SOL    HW232171   6.862   4.575   5.800
10709SOL     OW32172   6.842   5.466   6.692
10709SOL    HW132173   6.928   5.478   6.643
10709SOL    HW232174   6.830   5.370   6.716
10710SOL     OW32175   5.667   4.988   6.599
10710SOL    HW132176   5.648   4.997   6.697
10710SOL    HW232177   5.600   4.927   6.557
10711SOL     OW32178   6.979   5.309   6.075
10711SOL    HW132179   0.064   5.350   6.043
10711SOL    HW232180   6.917   5.381   6.108
10712SOL     OW32181   6.870   4.641   6.246
10712SOL    HW132182   6.957   4.595   6.266
10712SOL    HW232183   6.887   4.723   6.192
10713SOL     OW32184   6.254   5.347   5.741
10713SOL    HW132185   6.270   5.364   5.644
10713SOL    HW232186   6.197   5.265   5.751
10714SOL     OW32187   5.841   4.039   6.301
10714SOL    HW132188   5.752   4.075   6.273
10714SOL    HW232189   5.844   4.031   6.401
10715SOL     OW32190   6.749   5.332   5.623
10715SOL    HW132191   6.770   5.234   5.626
10715SOL    HW232192   6.688   5.350   5.546
10716SOL     OW32193   6.366   4.749   6.951
10716SOL    HW132194   6.427   4.714   6.880
10716SOL    HW232195   6.409   4.828   6.995
10717SOL     OW32196   6.504   4.634   5.871
10717SOL    HW132197   6.568   4.671   5.804
10717SOL    HW232198   6.550   4.563   5.925
10718SOL     OW32199   6.642   4.830   6.297
10718SOL    HW132200   6.567   4.779   6.339
10718SOL    HW232201   6.709   4.766   6.259
10719SOL     OW32202   6.606   3.961   6.542
10719SOL    HW132203   6.600   3.914   6.454
10719SOL    HW232204   6.609   3.892   6.615
10720SOL     OW32205   6.191   5.210   6.065
10720SOL    HW132206   6.242   5.156   5.998
10720SOL    HW232207   6.115   5.256   6.020
10721SOL     OW32208   5.838   5.071   5.874
10721SOL    HW132209   5.742   5.065   5.847
10721SOL    HW232210   5.844   5.110   5.966
10722SOL     OW32211   6.263   3.909   0.086
10722SOL    HW132212   6.354   3.873   0.065
10722SOL    HW232213   6.271   3.988   0.146
10723SOL     OW32214   5.668   4.052   5.615
10723SOL    HW132215   5.575   4.028   5.585
10723SOL    HW232216   5.699   4.133   5.567
10724SOL     OW32217   5.649   3.879   5.889
10724SOL    HW132218   5.633   3.964   5.838
10724SOL    HW232219   5.737   3.840   5.862
10725SOL     OW32220   5.967   5.451   0.086
10725SOL    HW132221   5.889   5.504   0.118
10725SOL    HW232222   5.971   5.364   0.134
10726SOL     OW32223   6.807   4.036   6.024
10726SOL    HW132224   6.881   3.982   5.984
10726SOL    HW232225   6.842   4.091   6.100
10727SOL     OW32226   6.172   4.460   6.254
10727SOL    HW132227   6.214   4.550   6.244
10727SOL    HW232228   6.103   4.447   6.183
10728SOL     OW32229   6.428   5.091   5.618
10728SOL    HW132230   6.410   5.112   5.714
10728SOL    HW232231   6.460   5.174   5.571
10729SOL     OW32232   6.252   5.508   6.527
10729SOL    HW132233   6.228   5.603   6.506
10729SOL    HW232234   6.351   5.496   6.518
10730SOL     OW32235   6.455   4.693   6.442
10730SOL    HW132236   6.505   4.616   6.480
10730SOL    HW232237   6.414   4.746   6.517
10731SOL     OW32238   6.671   4.713   5.674
10731SOL    HW132239   6.637   4.767   5.597
10731SOL    HW232240   6.744   4.652   5.642
10732SOL     OW32241   5.673   4.952   6.249
10732SOL    HW132242   5.676   4.907   6.338
10732SOL    HW232243   5.742   4.913   6.189
10733SOL     OW32244   6.017   4.152   6.113
10733SOL    HW132245   6.050   4.082   6.050
10733SOL    HW232246   5.962   4.109   6.184
10734SOL     OW32247   5.902   4.274   6.878
10734SOL    HW132248   5.971   4.221   6.926
10734SOL    HW232249   5.912   4.262   6.780
10735SOL     OW32250   6.414   5.301   6.263
10735SOL    HW132251   6.395   5.365   6.188
10735SOL    HW232252   6.336   5.239   6.274
10736SOL     OW32253   6.989   3.952   6.706
10736SOL    HW132254   0.002   3.860   6.741
10736SOL    HW232255   6.931   4.004   6.768
10737SOL     OW32256   6.608   3.750   6.715
10737SOL    HW132257   6.537   3.682   6.696
10737SOL    HW232258   6.697   3.704   6.720
10738SOL     OW32259   6.360   5.056   5.905
10738SOL    HW132260   6.332   4.960   5.913
10738SOL    HW232261   6.445   5.070   5.957
10739SOL     OW32262   6.205   5.294   6.861
10739SOL    HW132263   6.203   5.389   6.893
10739SOL    HW232264   6.295   5.275   6.822
10740SOL     OW32265   6.909   3.805   5.728
10740SOL    HW132266   6.949   3.753   5.651
10740SOL    HW232267   6.831   3.755   5.765
10741SOL     OW32268   5.628   4.788   5.893
10741SOL    HW132269   5.727   4.788   5.875
10741SOL    HW232270   5.599   4.695   5.915
10742SOL     OW32271   6.467   5.390   5.927
10742SOL    HW132272   6.393   5.367   5.863
10742SOL    HW232273   6.438   5.466   5.985
10743SOL     OW32274   5.807   6.224   0.136
10743SOL    HW132275   5.712   6.209   0.162
10743SOL    HW232276   5.819   6.204   0.039
10744SOL     OW32277   5.808   5.869   0.995
10744SOL    HW132278   5.841   5.834   1.082
10744SOL    HW232279   5.715   5.836   0.978
10745SOL     OW32280   5.587   5.974   0.637
10745SOL    HW132281   5.505   6.008   0.684
10745SOL    HW232282   5.566   5.888   0.591
10746SOL     OW32283   6.155   6.872   1.174
10746SOL    HW132284   6.079   6.876   1.108
10746SOL    HW232285   6.127   6.917   1.259
10747SOL     OW32286   0.069   0.133   0.683
10747SOL    HW132287   0.006   0.091   0.748
10747SOL    HW232288   0.115   0.062   0.630
10748SOL     OW32289   6.694   6.306   0.689
10748SOL    HW132290   6.759   6.381   0.678
10748SOL    HW232291   6.658   6.307   0.783
10749SOL     OW32292   6.350   6.746   1.026
10749SOL    HW132293   6.282   6.784   1.088
10749SOL    HW232294   6.351   6.800   0.941
10750SOL     OW32295   6.461   6.352   1.823
10750SOL    HW132296   6.453   6.417   1.898
10750SOL    HW232297   6.486   6.400   1.739
10751SOL     OW32298   6.270   6.582   0.649
10751SOL    HW132299   6.341   6.572   0.719
10751SOL    HW232300   6.195   6.638   0.687
10752SOL     OW32301   6.277   6.734   1.815
10752SOL    HW132302   6.317   6.823   1.836
10752SOL    HW232303   6.198   6.745   1.755
10753SOL     OW32304   5.922   0.006   1.058
10753SOL    HW132305   5.843   6.961   1.018
10753SOL    HW232306   5.969   0.059   0.988
10754SOL     OW32307   6.037   5.979   1.478
10754SOL    HW132308   6.118   5.921   1.486
10754SOL    HW232309   5.955   5.925   1.497
10755SOL     OW32310   5.846   6.675   0.903
10755SOL    HW132311   5.843   6.581   0.936
10755SOL    HW232312   5.785   6.731   0.959
10756SOL     OW32313   6.174   6.548   0.140
10756SOL    HW132314   6.236   6.563   0.063
10756SOL    HW232315   6.212   6.591   0.222
10757SOL     OW32316   5.700   6.241   0.562
10757SOL    HW132317   5.670   6.147   0.582
10757SOL    HW232318   5.695   6.296   0.646
10758SOL     OW32319   5.712   6.331   1.585
10758SOL    HW132320   5.809   6.353   1.586
10758SOL    HW232321   5.658   6.415   1.594
10759SOL     OW32322   6.858   6.792   1.445
10759SOL    HW132323   6.902   6.723   1.388
10759SOL    HW232324   6.921   6.819   1.519
10760SOL     OW32325   6.404   5.600   0.519
10760SOL    HW132326   6.449   5.685   0.492
10760SOL    HW232327   6.306   5.614   0.525
10761SOL     OW32328   5.778   6.550   1.275
10761SOL    HW132329   5.865   6.504   1.260
10761SOL    HW232330   5.705   6.502   1.226
10762SOL     OW32331   5.927   5.836   1.832
10762SOL    HW132332   5.975   5.922   1.849
10762SOL    HW232333   5.830   5.848   1.852
10763SOL     OW32334   6.185   6.301   0.270
10763SOL    HW132335   6.190   6.390   0.224
10763SOL    HW232336   6.119   6.306   0.345
10764SOL     OW32337   6.870   5.908   0.895
10764SOL    HW132338   6.772   5.897   0.910
10764SOL    HW232339   6.920   5.873   0.973
10765SOL     OW32340   6.384   6.197   1.451
10765SOL    HW132341   6.356   6.174   1.544
10765SOL    HW232342   6.344   6.131   1.387
10766SOL     OW32343   6.942   6.047   1.675
10766SOL    HW132344   6.918   6.133   1.721
10766SOL    HW232345   0.041   6.039   1.669
10767SOL     OW32346   6.545   6.472   1.584
10767SOL    HW132347   6.603   6.399   1.548
10767SOL    HW232348   6.491   6.511   1.510
10768SOL     OW32349   6.583   5.997   1.232
10768SOL    HW132350   6.492   6.015   1.267
10768SOL    HW232351   6.576   5.948   1.145
10769SOL     OW32352   6.636   6.288   0.426
10769SOL    HW132353   6.656   6.292   0.524
10769SOL    HW232354   6.549   6.240   0.412
10770SOL     OW32355   5.674   6.412   0.778
10770SOL    HW132356   5.760   6.400   0.829
10770SOL    HW232357   5.623   6.489   0.816
10771SOL     OW32358   6.465   5.935   0.213
10771SOL    HW132359   6.475   6.003   0.140
10771SOL    HW232360   6.491   5.845   0.178
10772SOL     OW32361   6.933   6.721   0.520
10772SOL    HW132362   6.996   6.695   0.447
10772SOL    HW232363   6.881   6.802   0.492
10773SOL     OW32364   6.133   5.760   0.901
10773SOL    HW132365   6.137   5.790   0.996
10773SOL    HW232366   6.136   5.840   0.841
10774SOL     OW32367   5.913   6.535   0.248
10774SOL    HW132368   5.999   6.551   0.198
10774SOL    HW232369   5.876   6.446   0.222
10775SOL     OW32370   5.788   5.861   1.503
10775SOL    HW132371   5.706   5.917   1.499
10775SOL    HW232372   5.767   5.774   1.547
10776SOL     OW32373   5.983   6.273   0.470
10776SOL    HW132374   6.002   6.176   0.488
10776SOL    HW232375   5.887   6.292   0.488
10777SOL     OW32376   6.349   5.863   1.759
10777SOL    HW132377   6.431   5.806   1.751
10777SOL    HW232378   6.295   5.833   1.837
10778SOL     OW32379   6.512   6.091   0.901
10778SOL    HW132380   6.487   6.086   0.804
10778SOL    HW232381   6.544   6.002   0.932
10779SOL     OW32382   6.135   5.657   0.503
10779SOL    HW132383   6.051   5.654   0.558
10779SOL    HW232384   6.131   5.735   0.441
10780SOL     OW32385   6.531   5.835   0.461
10780SOL    HW132386   6.495   5.875   0.377
10780SOL    HW232387   6.631   5.848   0.464
10781SOL     OW32388   6.656   6.254   1.459
10781SOL    HW132389   6.562   6.220   1.460
10781SOL    HW232390   6.719   6.177   1.464
10782SOL     OW32391   6.817   0.098   0.790
10782SOL    HW132392   6.787   0.170   0.728
10782SOL    HW232393   6.834   0.136   0.881
10783SOL     OW32394   6.052   6.716   0.737
10783SOL    HW132395   5.981   6.707   0.806
10783SOL    HW232396   6.011   6.714   0.646
10784SOL     OW32397   6.684   6.180   0.026
10784SOL    HW132398   6.584   6.183   0.029
10784SOL    HW232399   6.719   6.157   0.117
10785SOL     OW32400   5.672   6.144   1.390
10785SOL    HW132401   5.767   6.139   1.359
10785SOL    HW232402   5.664   6.215   1.460
10786SOL     OW32403   6.145   5.811   1.173
10786SOL    HW132404   6.194   5.733   1.213
10786SOL    HW232405   6.049   5.809   1.202
10787SOL     OW32406   6.450   6.040   0.640
10787SOL    HW132407   6.410   6.107   0.578
10787SOL    HW232408   6.476   5.958   0.590
10788SOL     OW32409   6.606   5.632   0.740
10788SOL    HW132410   6.540   5.634   0.664
10788SOL    HW232411   6.581   5.560   0.804
10789SOL     OW32412   6.101   5.851   0.312
10789SOL    HW132413   6.112   5.783   0.240
10789SOL    HW232414   6.077   5.939   0.272
10790SOL     OW32415   6.648   6.893   1.323
10790SOL    HW132416   6.565   6.879   1.376
10790SOL    HW232417   6.727   6.864   1.378
10791SOL     OW32418   6.730   6.772   1.096
10791SOL    HW132419   6.692   6.814   1.179
10791SOL    HW232420   6.667   6.785   1.020
10792SOL     OW32421   6.505   5.682   1.387
10792SOL    HW132422   6.526   5.658   1.293
10792SOL    HW232423   6.585   5.723   1.430
10793SOL     OW32424   6.552   6.698   1.737
10793SOL    HW132425   6.454   6.709   1.755
10793SOL    HW232426   6.566   6.624   1.671
10794SOL     OW32427   6.292   6.634   0.373
10794SOL    HW132428   6.277   6.624   0.471
10794SOL    HW232429   6.373   6.581   0.347
10795SOL     OW32430   6.007   6.401   1.254
10795SOL    HW132431   6.080   6.413   1.322
10795SOL    HW232432   5.968   6.309   1.265
10796SOL     OW32433   6.851   5.959   1.293
10796SOL    HW132434   6.907   6.039   1.313
10796SOL    HW232435   6.759   5.989   1.266
10797SOL     OW32436   5.936   6.700   0.489
10797SOL    HW132437   5.979   6.778   0.442
10797SOL    HW232438   5.941   6.619   0.430
10798SOL     OW32439   6.134   6.130   0.862
10798SOL    HW132440   6.149   6.189   0.783
10798SOL    HW232441   6.204   6.149   0.931
10799SOL     OW32442   6.823   6.952   0.411
10799SOL    HW132443   6.869   0.037   0.435
10799SOL    HW232444   6.728   6.954   0.442
10800SOL     OW32445   6.001   6.330   1.601
10800SOL    HW132446   6.068   6.375   1.541
10800SOL    HW232447   6.033   6.238   1.623
10801SOL     OW32448   6.577   5.711   1.753
10801SOL    HW132449   6.630   5.794   1.734
10801SOL    HW232450   6.633   5.630   1.730
10802SOL     OW32451   6.078   5.624   1.750
10802SOL    HW132452   6.034   5.565   1.682
10802SOL    HW232453   6.020   5.703   1.768
10803SOL     OW32454   6.168   6.453   1.035
10803SOL    HW132455   6.195   6.549   1.025
10803SOL    HW232456   6.107   6.444   1.114
10804SOL     OW32457   6.954   6.432   1.031
10804SOL    HW132458   6.861   6.424   0.995
10804SOL    HW232459   6.989   6.342   1.056
10805SOL     OW32460   6.769   6.109   0.270
10805SOL    HW132461   6.785   6.028   0.327
10805SOL    HW232462   6.730   6.182   0.326
10806SOL     OW32463   5.883   5.783   1.246
10806SOL    HW132464   5.847   5.819   1.332
10806SOL    HW232465   5.868   5.684   1.243
10807SOL     OW32466   5.646   6.898   1.282
10807SOL    HW132467   5.680   6.842   1.358
10807SOL    HW232468   5.645   6.994   1.310
10808SOL     OW32469   6.312   6.216   1.056
10808SOL    HW132470   6.387   6.196   0.994
10808SOL    HW232471   6.275   6.307   1.036
10809SOL     OW32472   5.891   5.651   0.630
10809SOL    HW132473   5.867   5.746   0.650
10809SOL    HW232474   5.903   5.601   0.715
10810SOL     OW32475   0.182   6.006   0.377
10810SOL    HW132476   0.264   5.963   0.415
10810SOL    HW232477   0.163   6.091   0.425
10811SOL     OW32478   6.609   6.340   0.959
10811SOL    HW132479   6.604   6.361   1.057
10811SOL    HW232480   6.584   6.244   0.945
10812SOL     OW32481   5.940   6.508   1.802
10812SOL    HW132482   6.016   6.518   1.866
10812SOL    HW232483   5.965   6.440   1.732
10813SOL     OW32484   6.893   6.427   0.037
10813SOL    HW132485   6.918   6.334   0.011
10813SOL    HW232486   6.907   6.489   6.959
10814SOL     OW32487   5.896   6.391   0.942
10814SOL    HW132488   5.992   6.417   0.935
10814SOL    HW232489   5.888   6.297   0.975
10815SOL     OW32490   5.913   6.113   1.012
10815SOL    HW132491   5.875   6.022   1.001
10815SOL    HW232492   5.994   6.123   0.953
10816SOL     OW32493   6.695   5.948   1.689
10816SOL    HW132494   6.647   6.009   1.752
10816SOL    HW232495   6.790   5.976   1.681
10817SOL     OW32496   6.743   5.782   1.474
10817SOL    HW132497   6.722   5.840   1.552
10817SOL    HW232498   6.787   5.836   1.403
10818SOL     OW32499   6.563   6.377   1.225
10818SOL    HW132500   6.623   6.352   1.300
10818SOL    HW232501   6.474   6.332   1.237
10819SOL     OW32502   5.623   6.138   1.117
10819SOL    HW132503   5.705   6.125   1.062
10819SOL    HW232504   5.648   6.141   1.214
10820SOL     OW32505   5.778   6.109   1.730
10820SOL    HW132506   5.828   6.053   1.664
10820SOL    HW232507   5.739   6.188   1.684
10821SOL     OW32508   6.403   6.159   0.375
10821SOL    HW132509   6.410   6.077   0.318
10821SOL    HW232510   6.324   6.213   0.345
10822SOL     OW32511   6.296   6.034   1.255
10822SOL    HW132512   6.238   5.956   1.232
10822SOL    HW232513   6.292   6.102   1.181
10823SOL     OW32514   6.042   6.085   0.187
10823SOL    HW132515   6.106   6.157   0.214
10823SOL    HW232516   5.949   6.122   0.185
10824SOL     OW32517   5.753   6.728   1.477
10824SOL    HW132518   5.742   6.679   1.564
10824SOL    HW232519   5.764   6.662   1.403
10825SOL     OW32520   6.915   6.624   1.224
10825SOL    HW132521   6.935   6.549   1.161
10825SOL    HW232522   6.845   6.683   1.185
10826SOL     OW32523   6.893   6.455   0.311
10826SOL    HW132524   6.815   6.415   0.359
10826SOL    HW232525   6.885   6.436   0.213
10827SOL     OW32526   5.669   6.858   1.014
10827SOL    HW132527   5.654   6.868   1.112
10827SOL    HW232528   5.598   6.798   0.976
10828SOL     OW32529   6.530   5.686   0.117
10828SOL    HW132530   6.605   5.715   0.057
10828SOL    HW232531   6.565   5.620   0.183
10829SOL     OW32532   6.870   6.505   0.662
10829SOL    HW132533   6.956   6.457   0.678
10829SOL    HW232534   6.888   6.588   0.608
10830SOL     OW32535   6.396   6.843   1.417
10830SOL    HW132536   6.371   6.885   1.505
10830SOL    HW232537   6.321   6.858   1.352
10831SOL     OW32538   5.842   5.903   0.716
10831SOL    HW132539   5.752   5.938   0.688
10831SOL    HW232540   5.844   5.894   0.816
10832SOL     OW32541   6.414   6.581   1.372
10832SOL    HW132542   6.470   6.560   1.292
10832SOL    HW232543   6.415   6.679   1.388
10833SOL     OW32544   6.502   6.492   0.290
10833SOL    HW132545   6.555   6.518   0.209
10833SOL    HW232546   6.554   6.426   0.344
10834SOL     OW32547   5.979   6.892   1.499
10834SOL    HW132548   5.944   6.983   1.477
10834SOL    HW232549   5.903   6.827   1.502
10835SOL     OW32550   6.638   6.700   0.720
10835SOL    HW132551   6.563   6.646   0.758
10835SOL    HW232552   6.708   6.638   0.684
10836SOL     OW32553   6.606   5.824   0.965
10836SOL    HW132554   6.599   5.780   0.876
10836SOL    HW232555   6.605   5.755   1.037
10837SOL     OW32556   5.695   6.609   1.716
10837SOL    HW132557   5.615   6.587   1.773
10837SOL    HW232558   5.778   6.575   1.760
10838SOL     OW32559   6.268   5.782   1.500
10838SOL    HW132560   6.354   5.757   1.455
10838SOL    HW232561   6.287   5.815   1.593
10839SOL     OW32562   5.687   5.914   0.016
10839SOL    HW132563   5.629   5.855   6.960
10839SOL    HW232564   5.724   5.988   6.960
10840SOL     OW32565   5.636   5.760   0.329
10840SOL    HW132566   5.623   5.852   0.291
10840SOL    HW232567   5.708   5.713   0.278
10841SOL     OW32568   6.209   6.412   1.434
10841SOL    HW132569   6.268   6.491   1.415
10841SOL    HW232570   6.266   6.330   1.445
10842SOL     OW32571   6.310   6.144   1.702
10842SOL    HW132572   6.352   6.211   1.763
10842SOL    HW232573   6.326   6.052   1.736
10843SOL     OW32574   0.028   6.858   1.650
10843SOL    HW132575   6.998   6.797   1.723
10843SOL    HW232576   0.105   6.817   1.601
10844SOL     OW32577   6.803   5.896   0.443
10844SOL    HW132578   6.876   5.840   0.404
10844SOL    HW232579   6.839   5.949   0.519
10845SOL     OW32580   6.172   6.322   0.667
10845SOL    HW132581   6.213   6.412   0.659
10845SOL    HW232582   6.102   6.311   0.597
10846SOL     OW32583   6.453   6.550   0.858
10846SOL    HW132584   6.507   6.473   0.891
10846SOL    HW232585   6.422   6.605   0.935
10847SOL     OW32586   6.659   6.558   0.077
10847SOL    HW132587   6.685   6.653   0.059
10847SOL    HW232588   6.739   6.499   0.069
10848SOL     OW32589   5.798   6.908   1.812
10848SOL    HW132590   5.740   6.827   1.822
10848SOL    HW232591   5.810   6.952   1.901
10849SOL     OW32592   5.679   6.822   0.674
10849SOL    HW132593   5.696   6.760   0.751
10849SOL    HW232594   5.736   6.796   0.597
10850SOL     OW32595   6.288   6.970   1.631
10850SOL    HW132596   6.191   6.963   1.652
10850SOL    HW232597   6.312   0.065   1.612
10851SOL     OW32598   6.017   6.015   0.527
10851SOL    HW132599   6.047   5.943   0.465
10851SOL    HW232600   5.962   5.974   0.601
10852SOL     OW32601   5.921   6.142   1.289
10852SOL    HW132602   5.978   6.084   1.348
10852SOL    HW232603   5.936   6.116   1.194
10853SOL     OW32604   6.993   5.806   1.117
10853SOL    HW132605   0.014   5.717   1.155
10853SOL    HW232606   6.940   5.860   1.183
10854SOL     OW32607   6.599   5.601   1.137
10854SOL    HW132608   6.539   5.534   1.093
10854SOL    HW232609   6.692   5.564   1.142
10855SOL     OW32610   6.389   6.880   0.290
10855SOL    HW132611   6.349   6.791   0.313
10855SOL    HW232612   6.399   6.935   0.372
10856SOL     OW32613   5.664   6.644   0.318
10856SOL    HW132614   5.762   6.627   0.318
10856SOL    HW232615   5.615   6.561   0.343
10857SOL     OW32616   5.808   6.206   1.989
10857SOL    HW132617   5.716   6.205   2.030
10857SOL    HW232618   5.801   6.182   1.892
10858SOL     OW32619   5.809   5.869   2.857
10858SOL    HW132620   5.841   5.834   2.945
10858SOL    HW232621   5.715   5.836   2.840
10859SOL     OW32622   5.587   5.972   2.496
10859SOL    HW132623   5.503   6.002   2.541
10859SOL    HW232624   5.568   5.888   2.444
10860SOL     OW32625   6.155   6.872   3.036
10860SOL    HW132626   6.079   6.875   2.970
10860SOL    HW232627   6.127   6.917   3.121
10861SOL     OW32628   0.070   0.133   2.543
10861SOL    HW132629   0.005   0.091   2.607
10861SOL    HW232630   0.117   0.061   2.491
10862SOL     OW32631   6.692   6.306   2.550
10862SOL    HW132632   6.758   6.381   2.538
10862SOL    HW232633   6.657   6.308   2.643
10863SOL     OW32634   6.351   6.748   2.888
10863SOL    HW132635   6.283   6.785   2.951
10863SOL    HW232636   6.351   6.800   2.803
10864SOL     OW32637   6.461   6.352   3.685
10864SOL    HW132638   6.453   6.417   3.760
10864SOL    HW232639   6.486   6.400   3.600
10865SOL     OW32640   6.271   6.583   2.510
10865SOL    HW132641   6.342   6.572   2.580
10865SOL    HW232642   6.196   6.638   2.547
10866SOL     OW32643   6.277   6.734   3.677
10866SOL    HW132644   6.317   6.823   3.697
10866SOL    HW232645   6.198   6.745   3.617
10867SOL     OW32646   5.922   0.007   2.921
10867SOL    HW132647   5.843   6.961   2.880
10867SOL    HW232648   5.970   0.060   2.851
10868SOL     OW32649   6.037   5.979   3.341
10868SOL    HW132650   6.118   5.921   3.348
10868SOL    HW232651   5.955   5.925   3.359
10869SOL     OW32652   5.846   6.676   2.765
10869SOL    HW132653   5.844   6.581   2.797
10869SOL    HW232654   5.784   6.731   2.821
10870SOL     OW32655   6.165   6.566   2.005
10870SOL    HW132656   6.210   6.615   1.931
10870SOL    HW232657   6.205   6.592   2.093
10871SOL     OW32658   5.701   6.245   2.427
10871SOL    HW132659   5.671   6.151   2.444
10871SOL    HW232660   5.694   6.298   2.511
10872SOL     OW32661   5.712   6.331   3.447
10872SOL    HW132662   5.809   6.354   3.448
10872SOL    HW232663   5.658   6.415   3.455
10873SOL     OW32664   6.858   6.792   3.308
10873SOL    HW132665   6.901   6.723   3.250
10873SOL    HW232666   6.921   6.819   3.381
10874SOL     OW32667   6.402   5.596   2.373
10874SOL    HW132668   6.447   5.682   2.349
10874SOL    HW232669   6.303   5.612   2.380
10875SOL     OW32670   5.777   6.551   3.137
10875SOL    HW132671   5.865   6.504   3.123
10875SOL    HW232672   5.705   6.502   3.087
10876SOL     OW32673   5.927   5.836   3.694
10876SOL    HW132674   5.975   5.921   3.710
10876SOL    HW232675   5.830   5.848   3.714
10877SOL     OW32676   6.181   6.303   2.136
10877SOL    HW132677   6.186   6.388   2.084
10877SOL    HW232678   6.112   6.312   2.208
10878SOL     OW32679   6.872   5.907   2.754
10878SOL    HW132680   6.773   5.897   2.769
10878SOL    HW232681   6.921   5.871   2.834
10879SOL     OW32682   6.384   6.197   3.313
10879SOL    HW132683   6.356   6.174   3.406
10879SOL    HW232684   6.344   6.131   3.249
10880SOL     OW32685   6.942   6.047   3.537
10880SOL    HW132686   6.918   6.133   3.583
10880SOL    HW232687   0.041   6.039   3.530
10881SOL     OW32688   6.546   6.472   3.446
10881SOL    HW132689   6.603   6.399   3.410
10881SOL    HW232690   6.491   6.511   3.372
10882SOL     OW32691   6.583   5.998   3.094
10882SOL    HW132692   6.491   6.015   3.129
10882SOL    HW232693   6.577   5.949   3.007
10883SOL     OW32694   6.634   6.286   2.285
10883SOL    HW132695   6.653   6.289   2.384
10883SOL    HW232696   6.549   6.238   2.269
10884SOL     OW32697   5.673   6.413   2.641
10884SOL    HW132698   5.758   6.402   2.692
10884SOL    HW232699   5.622   6.491   2.679
10885SOL     OW32700   6.481   5.938   2.057
10885SOL    HW132701   6.523   6.005   1.997
10885SOL    HW232702   6.485   5.847   2.015
10886SOL     OW32703   6.935   6.719   2.377
10886SOL    HW132704   6.999   6.697   2.303
10886SOL    HW232705   6.880   6.799   2.351
10887SOL     OW32706   6.134   5.760   2.763
10887SOL    HW132707   6.137   5.790   2.858
10887SOL    HW232708   6.136   5.840   2.703
10888SOL     OW32709   5.908   6.546   2.120
10888SOL    HW132710   5.996   6.562   2.076
10888SOL    HW232711   5.869   6.460   2.085
10889SOL     OW32712   5.788   5.861   3.365
10889SOL    HW132713   5.706   5.918   3.361
10889SOL    HW232714   5.767   5.774   3.409
10890SOL     OW32715   5.982   6.274   2.336
10890SOL    HW132716   6.001   6.177   2.350
10890SOL    HW232717   5.885   6.291   2.355
10891SOL     OW32718   6.227   5.703   1.963
10891SOL    HW132719   6.293   5.631   1.986
10891SOL    HW232720   6.170   5.672   1.887
10892SOL     OW32721   6.349   5.863   3.620
10892SOL    HW132722   6.431   5.806   3.613
10892SOL    HW232723   6.295   5.833   3.699
10893SOL     OW32724   6.512   6.092   2.762
10893SOL    HW132725   6.487   6.086   2.665
10893SOL    HW232726   6.544   6.002   2.793
10894SOL     OW32727   6.133   5.650   2.356
10894SOL    HW132728   6.051   5.648   2.414
10894SOL    HW232729   6.129   5.730   2.296
10895SOL     OW32730   6.982   6.708   1.879
10895SOL    HW132731   0.022   6.662   1.958
10895SOL    HW232732   6.934   6.791   1.909
10896SOL     OW32733   5.876   5.635   2.048
10896SOL    HW132734   5.929   5.706   2.001
10896SOL    HW232735   5.939   5.569   2.091
10897SOL     OW32736   6.530   5.836   2.316
10897SOL    HW132737   6.495   5.877   2.232
10897SOL    HW232738   6.629   5.848   2.321
10898SOL     OW32739   6.656   6.254   3.321
10898SOL    HW132740   6.562   6.220   3.322
10898SOL    HW232741   6.719   6.177   3.325
10899SOL     OW32742   6.820   0.098   2.651
10899SOL    HW132743   6.785   0.169   2.590
10899SOL    HW232744   6.836   0.138   2.742
10900SOL     OW32745   6.052   6.715   2.597
10900SOL    HW132746   5.981   6.706   2.667
10900SOL    HW232747   6.010   6.712   2.506
10901SOL     OW32748   6.609   6.123   1.888
10901SOL    HW132749   6.564   6.210   1.869
10901SOL    HW232750   6.674   6.135   1.963
10902SOL     OW32751   5.672   6.144   3.253
10902SOL    HW132752   5.767   6.139   3.221
10902SOL    HW232753   5.664   6.215   3.322
10903SOL     OW32754   6.145   5.811   3.035
10903SOL    HW132755   6.194   5.733   3.076
10903SOL    HW232756   6.049   5.809   3.064
10904SOL     OW32757   6.449   6.040   2.500
10904SOL    HW132758   6.406   6.107   2.440
10904SOL    HW232759   6.475   5.960   2.447
10905SOL     OW32760   6.607   5.634   2.603
10905SOL    HW132761   6.541   5.637   2.528
10905SOL    HW232762   6.581   5.561   2.667
10906SOL     OW32763   6.115   5.850   2.171
10906SOL    HW132764   6.162   5.798   2.100
10906SOL    HW232765   6.086   5.938   2.134
10907SOL     OW32766   6.648   6.893   3.185
10907SOL    HW132767   6.565   6.879   3.238
10907SOL    HW232768   6.727   6.864   3.239
10908SOL     OW32769   6.731   6.773   2.958
10908SOL    HW132770   6.692   6.814   3.040
10908SOL    HW232771   6.666   6.783   2.882
10909SOL     OW32772   6.505   5.682   3.249
10909SOL    HW132773   6.526   5.658   3.155
10909SOL    HW232774   6.585   5.723   3.293
10910SOL     OW32775   6.552   6.698   3.599
10910SOL    HW132776   6.454   6.709   3.617
10910SOL    HW232777   6.566   6.624   3.533
10911SOL     OW32778   6.293   6.639   2.232
10911SOL    HW132779   6.279   6.630   2.330
10911SOL    HW232780   6.374   6.587   2.205
10912SOL     OW32781   6.007   6.401   3.117
10912SOL    HW132782   6.080   6.413   3.184
10912SOL    HW232783   5.968   6.309   3.127
10913SOL     OW32784   6.851   5.959   3.155
10913SOL    HW132785   6.908   6.039   3.174
10913SOL    HW232786   6.759   5.989   3.128
10914SOL     OW32787   5.926   6.704   2.353
10914SOL    HW132788   5.969   6.782   2.308
10914SOL    HW232789   5.920   6.628   2.288
10915SOL     OW32790   6.134   6.130   2.725
10915SOL    HW132791   6.148   6.189   2.645
10915SOL    HW232792   6.204   6.149   2.793
10916SOL     OW32793   6.818   6.952   2.279
10916SOL    HW132794   6.862   0.034   2.316
10916SOL    HW232795   6.721   6.952   2.305
10917SOL     OW32796   6.001   6.330   3.463
10917SOL    HW132797   6.068   6.375   3.403
10917SOL    HW232798   6.033   6.238   3.485
10918SOL     OW32799   6.577   5.710   3.615
10918SOL    HW132800   6.630   5.794   3.597
10918SOL    HW232801   6.633   5.630   3.592
10919SOL     OW32802   6.078   5.624   3.612
10919SOL    HW132803   6.034   5.565   3.544
10919SOL    HW232804   6.020   5.703   3.630
10920SOL     OW32805   6.169   6.452   2.898
10920SOL    HW132806   6.195   6.548   2.886
10920SOL    HW232807   6.107   6.444   2.976
10921SOL     OW32808   6.954   6.432   2.893
10921SOL    HW132809   6.861   6.424   2.857
10921SOL    HW232810   6.988   6.342   2.918
10922SOL     OW32811   6.767   6.119   2.113
10922SOL    HW132812   6.783   6.034   2.164
10922SOL    HW232813   6.730   6.188   2.176
10923SOL     OW32814   5.883   5.783   3.109
10923SOL    HW132815   5.847   5.819   3.195
10923SOL    HW232816   5.868   5.684   3.105
10924SOL     OW32817   5.646   6.898   3.144
10924SOL    HW132818   5.680   6.841   3.220
10924SOL    HW232819   5.645   6.994   3.172
10925SOL     OW32820   6.313   6.216   2.919
10925SOL    HW132821   6.388   6.196   2.856
10925SOL    HW232822   6.276   6.307   2.899
10926SOL     OW32823   5.892   5.647   2.490
10926SOL    HW132824   5.868   5.742   2.508
10926SOL    HW232825   5.904   5.598   2.576
10927SOL     OW32826   0.210   6.035   2.200
10927SOL    HW132827   0.170   5.943   2.204
10927SOL    HW232828   0.190   6.083   2.285
10928SOL     OW32829   6.609   6.340   2.821
10928SOL    HW132830   6.604   6.361   2.919
10928SOL    HW232831   6.584   6.244   2.806
10929SOL     OW32832   5.940   6.508   3.664
10929SOL    HW132833   6.016   6.518   3.728
10929SOL    HW232834   5.965   6.440   3.594
10930SOL     OW32835   6.887   6.402   1.892
10930SOL    HW132836   6.952   6.336   1.928
10930SOL    HW232837   6.927   6.450   1.814
10931SOL     OW32838   5.895   6.392   2.804
10931SOL    HW132839   5.992   6.416   2.794
10931SOL    HW232840   5.888   6.298   2.837
10932SOL     OW32841   5.913   6.113   2.874
10932SOL    HW132842   5.875   6.022   2.863
10932SOL    HW232843   5.994   6.123   2.816
10933SOL     OW32844   6.695   5.948   3.551
10933SOL    HW132845   6.647   6.009   3.615
10933SOL    HW232846   6.790   5.976   3.543
10934SOL     OW32847   6.743   5.782   3.336
10934SOL    HW132848   6.722   5.840   3.414
10934SOL    HW232849   6.787   5.836   3.265
10935SOL     OW32850   5.609   6.895   2.044
10935SOL    HW132851   5.520   6.923   2.006
10935SOL    HW232852   5.599   6.806   2.090
10936SOL     OW32853   6.563   6.377   3.087
10936SOL    HW132854   6.623   6.352   3.162
10936SOL    HW232855   6.475   6.331   3.098
10937SOL     OW32856   5.623   6.138   2.979
10937SOL    HW132857   5.705   6.125   2.924
10937SOL    HW232858   5.648   6.140   3.076
10938SOL     OW32859   5.778   6.109   3.592
10938SOL    HW132860   5.829   6.053   3.526
10938SOL    HW232861   5.739   6.188   3.546
10939SOL     OW32862   6.403   6.157   2.222
10939SOL    HW132863   6.412   6.078   2.162
10939SOL    HW232864   6.325   6.213   2.194
10940SOL     OW32865   6.296   6.034   3.117
10940SOL    HW132866   6.238   5.956   3.094
10940SOL    HW232867   6.293   6.102   3.043
10941SOL     OW32868   6.045   6.081   2.046
10941SOL    HW132869   6.109   6.152   2.073
10941SOL    HW232870   5.954   6.120   2.033
10942SOL     OW32871   5.753   6.728   3.339
10942SOL    HW132872   5.742   6.680   3.426
10942SOL    HW232873   5.764   6.662   3.265
10943SOL     OW32874   6.915   6.624   3.086
10943SOL    HW132875   6.935   6.549   3.023
10943SOL    HW232876   6.845   6.684   3.047
10944SOL     OW32877   6.888   6.455   2.170
10944SOL    HW132878   6.819   6.419   2.233
10944SOL    HW232879   6.861   6.436   2.076
10945SOL     OW32880   5.669   6.858   2.876
10945SOL    HW132881   5.654   6.868   2.974
10945SOL    HW232882   5.598   6.798   2.837
10946SOL     OW32883   6.870   6.505   2.521
10946SOL    HW132884   6.955   6.458   2.542
10946SOL    HW232885   6.889   6.587   2.466
10947SOL     OW32886   6.396   6.843   3.279
10947SOL    HW132887   6.371   6.885   3.367
10947SOL    HW232888   6.322   6.857   3.214
10948SOL     OW32889   5.841   5.899   2.577
10948SOL    HW132890   5.753   5.937   2.550
10948SOL    HW232891   5.845   5.892   2.677
10949SOL     OW32892   6.831   0.206   1.901
10949SOL    HW132893   6.842   0.122   1.953
10949SOL    HW232894   6.743   0.205   1.854
10950SOL     OW32895   6.414   6.581   3.234
10950SOL    HW132896   6.470   6.559   3.154
10950SOL    HW232897   6.415   6.679   3.250
10951SOL     OW32898   6.502   6.493   2.147
10951SOL    HW132899   6.565   6.530   2.080
10951SOL    HW232900   6.549   6.424   2.203
10952SOL     OW32901   5.979   6.892   3.362
10952SOL    HW132902   5.944   6.983   3.339
10952SOL    HW232903   5.903   6.827   3.365
10953SOL     OW32904   6.640   6.699   2.583
10953SOL    HW132905   6.564   6.646   2.620
10953SOL    HW232906   6.710   6.637   2.547
10954SOL     OW32907   6.606   5.825   2.828
10954SOL    HW132908   6.601   5.780   2.739
10954SOL    HW232909   6.605   5.756   2.900
10955SOL     OW32910   5.695   6.610   3.579
10955SOL    HW132911   5.615   6.588   3.635
10955SOL    HW232912   5.778   6.575   3.622
10956SOL     OW32913   6.268   5.782   3.362
10956SOL    HW132914   6.354   5.757   3.317
10956SOL    HW232915   6.287   5.815   3.455
10957SOL     OW32916   5.667   5.914   1.891
10957SOL    HW132917   5.576   5.890   1.860
10957SOL    HW232918   5.699   5.995   1.843
10958SOL     OW32919   5.649   5.741   2.165
10958SOL    HW132920   5.633   5.826   2.114
10958SOL    HW232921   5.737   5.703   2.138
10959SOL     OW32922   6.209   6.412   3.296
10959SOL    HW132923   6.268   6.491   3.277
10959SOL    HW232924   6.266   6.330   3.307
10960SOL     OW32925   6.310   6.144   3.564
10960SOL    HW132926   6.352   6.211   3.625
10960SOL    HW232927   6.326   6.052   3.598
10961SOL     OW32928   0.029   6.858   3.512
10961SOL    HW132929   6.998   6.797   3.585
10961SOL    HW232930   0.105   6.816   3.463
10962SOL     OW32931   6.807   5.898   2.301
10962SOL    HW132932   6.882   5.844   2.261
10962SOL    HW232933   6.842   5.953   2.376
10963SOL     OW32934   6.171   6.323   2.531
10963SOL    HW132935   6.214   6.413   2.521
10963SOL    HW232936   6.102   6.310   2.460
10964SOL     OW32937   6.453   6.551   2.720
10964SOL    HW132938   6.507   6.473   2.753
10964SOL    HW232939   6.422   6.605   2.798
10965SOL     OW32940   6.665   6.568   1.949
10965SOL    HW132941   6.635   6.629   1.876
10965SOL    HW232942   6.744   6.515   1.918
10966SOL     OW32943   5.797   6.908   3.674
10966SOL    HW132944   5.740   6.827   3.684
10966SOL    HW232945   5.809   6.952   3.763
10967SOL     OW32946   5.678   6.820   2.536
10967SOL    HW132947   5.698   6.758   2.612
10967SOL    HW232948   5.741   6.800   2.460
10968SOL     OW32949   6.288   6.970   3.492
10968SOL    HW132950   6.191   6.962   3.513
10968SOL    HW232951   6.311   0.065   3.474
10969SOL     OW32952   6.016   6.013   2.388
10969SOL    HW132953   6.050   5.943   2.326
10969SOL    HW232954   5.962   5.970   2.461
10970SOL     OW32955   5.921   6.142   3.151
10970SOL    HW132956   5.978   6.084   3.210
10970SOL    HW232957   5.936   6.116   3.056
10971SOL     OW32958   6.992   5.806   2.978
10971SOL    HW132959   0.015   5.717   3.018
10971SOL    HW232960   6.939   5.859   3.045
10972SOL     OW32961   6.599   5.601   2.999
10972SOL    HW132962   6.539   5.534   2.955
10972SOL    HW232963   6.692   5.565   3.004
10973SOL     OW32964   6.339   6.908   2.128
10973SOL    HW132965   6.319   6.812   2.148
10973SOL    HW232966   6.379   6.951   2.209
10974SOL     OW32967   6.909   5.667   2.003
10974SOL    HW132968   6.948   5.615   1.927
10974SOL    HW232969   6.831   5.617   2.041
10975SOL     OW32970   5.622   6.646   2.173
10975SOL    HW132971   5.720   6.652   2.151
10975SOL    HW232972   5.599   6.552   2.195
10976SOL     OW32973   5.808   6.205   3.851
10976SOL    HW132974   5.716   6.205   3.892
10976SOL    HW232975   5.801   6.182   3.754
10977SOL     OW32976   5.809   5.869   4.719
10977SOL    HW132977   5.841   5.834   4.807
10977SOL    HW232978   5.715   5.836   4.702
10978SOL     OW32979   5.587   5.972   4.358
10978SOL    HW132980   5.503   6.002   4.403
10978SOL    HW232981   5.568   5.888   4.306
10979SOL     OW32982   6.155   6.873   4.898
10979SOL    HW132983   6.080   6.876   4.832
10979SOL    HW232984   6.126   6.917   4.983
10980SOL     OW32985   0.070   0.133   4.405
10980SOL    HW132986   0.005   0.091   4.469
10980SOL    HW232987   0.117   0.062   4.353
10981SOL     OW32988   6.692   6.306   4.412
10981SOL    HW132989   6.758   6.381   4.400
10981SOL    HW232990   6.657   6.308   4.505
10982SOL     OW32991   6.351   6.748   4.750
10982SOL    HW132992   6.283   6.785   4.813
10982SOL    HW232993   6.351   6.800   4.665
10983SOL     OW32994   6.461   6.352   5.547
10983SOL    HW132995   6.453   6.417   5.621
10983SOL    HW232996   6.486   6.400   5.462
10984SOL     OW32997   6.271   6.583   4.372
10984SOL    HW132998   6.342   6.572   4.442
10984SOL    HW232999   6.196   6.638   4.409
10985SOL     OW33000   6.277   6.734   5.539
10985SOL    HW133001   6.317   6.823   5.559
10985SOL    HW233002   6.198   6.745   5.479
10986SOL     OW33003   5.922   0.007   4.783
10986SOL    HW133004   5.843   6.961   4.742
10986SOL    HW233005   5.970   0.060   4.712
10987SOL     OW33006   6.037   5.979   5.203
10987SOL    HW133007   6.118   5.921   5.210
10987SOL    HW233008   5.955   5.925   5.221
10988SOL     OW33009   5.846   6.676   4.627
10988SOL    HW133010   5.844   6.581   4.659
10988SOL    HW233011   5.784   6.731   4.683
10989SOL     OW33012   6.165   6.566   3.867
10989SOL    HW133013   6.210   6.615   3.793
10989SOL    HW233014   6.205   6.592   3.955
10990SOL     OW33015   5.701   6.245   4.289
10990SOL    HW133016   5.671   6.151   4.306
10990SOL    HW233017   5.694   6.298   4.373
10991SOL     OW33018   5.712   6.331   5.309
10991SOL    HW133019   5.809   6.354   5.310
10991SOL    HW233020   5.658   6.415   5.317
10992SOL     OW33021   6.858   6.792   5.170
10992SOL    HW133022   6.901   6.723   5.112
10992SOL    HW233023   6.921   6.819   5.243
10993SOL     OW33024   6.402   5.596   4.235
10993SOL    HW133025   6.447   5.682   4.211
10993SOL    HW233026   6.303   5.612   4.242
10994SOL     OW33027   5.777   6.551   4.999
10994SOL    HW133028   5.865   6.504   4.985
10994SOL    HW233029   5.705   6.502   4.949
10995SOL     OW33030   5.927   5.836   5.556
10995SOL    HW133031   5.975   5.922   5.572
10995SOL    HW233032   5.830   5.848   5.575
10996SOL     OW33033   6.181   6.303   3.998
10996SOL    HW133034   6.186   6.388   3.946
10996SOL    HW233035   6.112   6.312   4.070
10997SOL     OW33036   6.872   5.907   4.616
10997SOL    HW133037   6.773   5.897   4.631
10997SOL    HW233038   6.921   5.871   4.696
10998SOL     OW33039   6.384   6.197   5.175
10998SOL    HW133040   6.356   6.174   5.268
10998SOL    HW233041   6.344   6.131   5.111
10999SOL     OW33042   6.942   6.047   5.399
10999SOL    HW133043   6.918   6.133   5.444
10999SOL    HW233044   0.041   6.039   5.392
11000SOL     OW33045   6.546   6.472   5.308
11000SOL    HW133046   6.603   6.398   5.272
11000SOL    HW233047   6.491   6.511   5.234
11001SOL     OW33048   6.583   5.997   4.956
11001SOL    HW133049   6.491   6.015   4.991
11001SOL    HW233050   6.577   5.949   4.869
11002SOL     OW33051   6.634   6.286   4.148
11002SOL    HW133052   6.653   6.289   4.246
11002SOL    HW233053   6.549   6.238   4.131
11003SOL     OW33054   5.673   6.413   4.503
11003SOL    HW133055   5.758   6.402   4.554
11003SOL    HW233056   5.622   6.490   4.541
11004SOL     OW33057   6.481   5.938   3.919
11004SOL    HW133058   6.523   6.005   3.859
11004SOL    HW233059   6.486   5.847   3.877
11005SOL     OW33060   6.935   6.719   4.239
11005SOL    HW133061   6.999   6.697   4.165
11005SOL    HW233062   6.880   6.799   4.213
11006SOL     OW33063   6.134   5.760   4.625
11006SOL    HW133064   6.137   5.790   4.720
11006SOL    HW233065   6.136   5.840   4.565
11007SOL     OW33066   5.908   6.546   3.982
11007SOL    HW133067   5.996   6.562   3.938
11007SOL    HW233068   5.869   6.460   3.947
11008SOL     OW33069   5.788   5.862   5.227
11008SOL    HW133070   5.706   5.918   5.223
11008SOL    HW233071   5.767   5.775   5.272
11009SOL     OW33072   5.982   6.274   4.198
11009SOL    HW133073   6.001   6.177   4.212
11009SOL    HW233074   5.885   6.291   4.217
11010SOL     OW33075   6.227   5.703   3.825
11010SOL    HW133076   6.294   5.632   3.848
11010SOL    HW233077   6.170   5.672   3.749
11011SOL     OW33078   6.349   5.863   5.483
11011SOL    HW133079   6.431   5.806   5.475
11011SOL    HW233080   6.295   5.833   5.561
11012SOL     OW33081   6.512   6.092   4.624
11012SOL    HW133082   6.487   6.086   4.527
11012SOL    HW233083   6.544   6.002   4.655
11013SOL     OW33084   6.133   5.650   4.218
11013SOL    HW133085   6.051   5.648   4.275
11013SOL    HW233086   6.129   5.730   4.158
11014SOL     OW33087   6.982   6.708   3.741
11014SOL    HW133088   0.021   6.662   3.820
11014SOL    HW233089   6.934   6.791   3.771
11015SOL     OW33090   5.876   5.635   3.910
11015SOL    HW133091   5.929   5.706   3.863
11015SOL    HW233092   5.939   5.569   3.953
11016SOL     OW33093   6.530   5.836   4.178
11016SOL    HW133094   6.495   5.877   4.094
11016SOL    HW233095   6.629   5.848   4.182
11017SOL     OW33096   6.656   6.254   5.183
11017SOL    HW133097   6.562   6.220   5.184
11017SOL    HW233098   6.719   6.177   5.187
11018SOL     OW33099   6.820   0.098   4.513
11018SOL    HW133100   6.784   0.169   4.452
11018SOL    HW233101   6.836   0.138   4.604
11019SOL     OW33102   6.052   6.715   4.459
11019SOL    HW133103   5.981   6.706   4.529
11019SOL    HW233104   6.010   6.712   4.368
11020SOL     OW33105   6.609   6.123   3.750
11020SOL    HW133106   6.564   6.210   3.731
11020SOL    HW233107   6.674   6.135   3.825
11021SOL     OW33108   5.672   6.144   5.115
11021SOL    HW133109   5.767   6.139   5.083
11021SOL    HW233110   5.664   6.215   5.184
11022SOL     OW33111   6.145   5.811   4.897
11022SOL    HW133112   6.194   5.734   4.938
11022SOL    HW233113   6.049   5.809   4.926
11023SOL     OW33114   6.449   6.040   4.362
11023SOL    HW133115   6.406   6.107   4.302
11023SOL    HW233116   6.475   5.960   4.309
11024SOL     OW33117   6.607   5.634   4.465
11024SOL    HW133118   6.541   5.637   4.390
11024SOL    HW233119   6.581   5.561   4.529
11025SOL     OW33120   6.115   5.850   4.033
11025SOL    HW133121   6.162   5.798   3.962
11025SOL    HW233122   6.086   5.938   3.996
11026SOL     OW33123   6.648   6.893   5.047
11026SOL    HW133124   6.565   6.879   5.100
11026SOL    HW233125   6.727   6.864   5.102
11027SOL     OW33126   6.731   6.773   4.820
11027SOL    HW133127   6.692   6.814   4.902
11027SOL    HW233128   6.666   6.783   4.744
11028SOL     OW33129   6.505   5.682   5.111
11028SOL    HW133130   6.526   5.658   5.017
11028SOL    HW233131   6.585   5.723   5.155
11029SOL     OW33132   6.552   6.698   5.462
11029SOL    HW133133   6.454   6.709   5.479
11029SOL    HW233134   6.566   6.624   5.396
11030SOL     OW33135   6.293   6.639   4.094
11030SOL    HW133136   6.279   6.630   4.192
11030SOL    HW233137   6.374   6.587   4.067
11031SOL     OW33138   6.007   6.401   4.979
11031SOL    HW133139   6.080   6.413   5.046
11031SOL    HW233140   5.968   6.309   4.989
11032SOL     OW33141   6.851   5.959   5.017
11032SOL    HW133142   6.908   6.039   5.036
11032SOL    HW233143   6.759   5.989   4.990
11033SOL     OW33144   5.926   6.704   4.215
11033SOL    HW133145   5.969   6.782   4.170
11033SOL    HW233146   5.920   6.628   4.150
11034SOL     OW33147   6.134   6.130   4.587
11034SOL    HW133148   6.148   6.189   4.507
11034SOL    HW233149   6.204   6.149   4.655
11035SOL     OW33150   6.818   6.952   4.141
11035SOL    HW133151   6.862   0.034   4.179
11035SOL    HW233152   6.721   6.952   4.167
11036SOL     OW33153   6.001   6.330   5.325
11036SOL    HW133154   6.068   6.375   5.265
11036SOL    HW233155   6.033   6.238   5.347
11037SOL     OW33156   6.577   5.710   5.477
11037SOL    HW133157   6.630   5.794   5.458
11037SOL    HW233158   6.633   5.630   5.453
11038SOL     OW33159   6.078   5.624   5.473
11038SOL    HW133160   6.034   5.565   5.406
11038SOL    HW233161   6.020   5.703   5.492
11039SOL     OW33162   6.169   6.452   4.760
11039SOL    HW133163   6.195   6.548   4.748
11039SOL    HW233164   6.107   6.444   4.838
11040SOL     OW33165   6.954   6.432   4.755
11040SOL    HW133166   6.861   6.424   4.719
11040SOL    HW233167   6.988   6.342   4.780
11041SOL     OW33168   6.767   6.119   3.975
11041SOL    HW133169   6.783   6.034   4.026
11041SOL    HW233170   6.730   6.188   4.038
11042SOL     OW33171   5.883   5.783   4.971
11042SOL    HW133172   5.847   5.819   5.057
11042SOL    HW233173   5.868   5.684   4.967
11043SOL     OW33174   5.646   6.898   5.006
11043SOL    HW133175   5.680   6.841   5.082
11043SOL    HW233176   5.645   6.994   5.034
11044SOL     OW33177   6.313   6.216   4.781
11044SOL    HW133178   6.388   6.197   4.718
11044SOL    HW233179   6.276   6.307   4.761
11045SOL     OW33180   5.892   5.647   4.352
11045SOL    HW133181   5.868   5.742   4.370
11045SOL    HW233182   5.903   5.598   4.438
11046SOL     OW33183   0.210   6.035   4.062
11046SOL    HW133184   0.170   5.943   4.066
11046SOL    HW233185   0.190   6.083   4.148
11047SOL     OW33186   6.609   6.340   4.683
11047SOL    HW133187   6.604   6.361   4.781
11047SOL    HW233188   6.584   6.244   4.668
11048SOL     OW33189   5.940   6.508   5.526
11048SOL    HW133190   6.016   6.518   5.590
11048SOL    HW233191   5.965   6.440   5.456
11049SOL     OW33192   6.887   6.402   3.754
11049SOL    HW133193   6.952   6.335   3.790
11049SOL    HW233194   6.927   6.450   3.676
11050SOL     OW33195   5.895   6.392   4.666
11050SOL    HW133196   5.992   6.416   4.656
11050SOL    HW233197   5.888   6.298   4.700
11051SOL     OW33198   5.913   6.113   4.736
11051SOL    HW133199   5.875   6.022   4.725
11051SOL    HW233200   5.994   6.123   4.678
11052SOL     OW33201   6.695   5.948   5.413
11052SOL    HW133202   6.647   6.009   5.476
11052SOL    HW233203   6.790   5.976   5.405
11053SOL     OW33204   6.743   5.782   5.199
11053SOL    HW133205   6.722   5.840   5.276
11053SOL    HW233206   6.787   5.836   5.127
11054SOL     OW33207   5.609   6.895   3.906
11054SOL    HW133208   5.520   6.923   3.868
11054SOL    HW233209   5.599   6.806   3.952
11055SOL     OW33210   6.563   6.377   4.949
11055SOL    HW133211   6.623   6.352   5.025
11055SOL    HW233212   6.475   6.331   4.960
11056SOL     OW33213   5.623   6.138   4.841
11056SOL    HW133214   5.705   6.125   4.786
11056SOL    HW233215   5.648   6.140   4.938
11057SOL     OW33216   5.778   6.109   5.454
11057SOL    HW133217   5.828   6.053   5.388
11057SOL    HW233218   5.739   6.188   5.408
11058SOL     OW33219   6.403   6.157   4.084
11058SOL    HW133220   6.412   6.078   4.024
11058SOL    HW233221   6.325   6.213   4.056
11059SOL     OW33222   6.297   6.034   4.979
11059SOL    HW133223   6.238   5.956   4.956
11059SOL    HW233224   6.293   6.102   4.905
11060SOL     OW33225   6.045   6.081   3.909
11060SOL    HW133226   6.109   6.152   3.935
11060SOL    HW233227   5.954   6.120   3.895
11061SOL     OW33228   5.753   6.728   5.201
11061SOL    HW133229   5.742   6.679   5.288
11061SOL    HW233230   5.764   6.662   5.127
11062SOL     OW33231   6.915   6.624   4.949
11062SOL    HW133232   6.935   6.549   4.885
11062SOL    HW233233   6.845   6.684   4.909
11063SOL     OW33234   6.888   6.455   4.032
11063SOL    HW133235   6.819   6.419   4.094
11063SOL    HW233236   6.861   6.436   3.938
11064SOL     OW33237   5.669   6.858   4.738
11064SOL    HW133238   5.654   6.868   4.836
11064SOL    HW233239   5.598   6.799   4.699
11065SOL     OW33240   6.870   6.505   4.383
11065SOL    HW133241   6.955   6.458   4.404
11065SOL    HW233242   6.889   6.587   4.328
11066SOL     OW33243   6.396   6.843   5.141
11066SOL    HW133244   6.371   6.885   5.229
11066SOL    HW233245   6.322   6.858   5.075
11067SOL     OW33246   5.841   5.899   4.439
11067SOL    HW133247   5.753   5.937   4.412
11067SOL    HW233248   5.845   5.892   4.539
11068SOL     OW33249   6.831   0.207   3.762
11068SOL    HW133250   6.843   0.122   3.815
11068SOL    HW233251   6.742   0.205   3.716
11069SOL     OW33252   6.414   6.581   5.096
11069SOL    HW133253   6.470   6.560   5.016
11069SOL    HW233254   6.415   6.679   5.112
11070SOL     OW33255   6.502   6.493   4.010
11070SOL    HW133256   6.565   6.530   3.942
11070SOL    HW233257   6.549   6.424   4.065
11071SOL     OW33258   5.979   6.892   5.223
11071SOL    HW133259   5.944   6.983   5.201
11071SOL    HW233260   5.903   6.827   5.227
11072SOL     OW33261   6.640   6.699   4.446
11072SOL    HW133262   6.564   6.646   4.482
11072SOL    HW233263   6.710   6.637   4.409
11073SOL     OW33264   6.606   5.825   4.690
11073SOL    HW133265   6.601   5.781   4.601
11073SOL    HW233266   6.605   5.756   4.762
11074SOL     OW33267   5.695   6.610   5.441
11074SOL    HW133268   5.615   6.588   5.497
11074SOL    HW233269   5.778   6.575   5.484
11075SOL     OW33270   6.268   5.782   5.224
11075SOL    HW133271   6.354   5.757   5.179
11075SOL    HW233272   6.287   5.815   5.317
11076SOL     OW33273   5.667   5.914   3.753
11076SOL    HW133274   5.576   5.890   3.722
11076SOL    HW233275   5.699   5.995   3.705
11077SOL     OW33276   5.649   5.741   4.026
11077SOL    HW133277   5.632   5.826   3.976
11077SOL    HW233278   5.737   5.703   3.999
11078SOL     OW33279   6.210   6.412   5.158
11078SOL    HW133280   6.268   6.491   5.139
11078SOL    HW233281   6.266   6.330   5.169
11079SOL     OW33282   6.310   6.144   5.426
11079SOL    HW133283   6.352   6.211   5.487
11079SOL    HW233284   6.326   6.052   5.460
11080SOL     OW33285   0.029   6.858   5.374
11080SOL    HW133286   6.999   6.796   5.447
11080SOL    HW233287   0.105   6.816   5.324
11081SOL     OW33288   6.807   5.897   4.163
11081SOL    HW133289   6.881   5.844   4.123
11081SOL    HW233290   6.842   5.953   4.238
11082SOL     OW33291   6.171   6.323   4.394
11082SOL    HW133292   6.214   6.413   4.383
11082SOL    HW233293   6.102   6.310   4.322
11083SOL     OW33294   6.453   6.551   4.582
11083SOL    HW133295   6.507   6.473   4.615
11083SOL    HW233296   6.422   6.605   4.660
11084SOL     OW33297   6.665   6.568   3.811
11084SOL    HW133298   6.635   6.629   3.738
11084SOL    HW233299   6.744   6.515   3.780
11085SOL     OW33300   5.798   6.908   5.536
11085SOL    HW133301   5.741   6.827   5.546
11085SOL    HW233302   5.810   6.951   5.625
11086SOL     OW33303   5.678   6.820   4.398
11086SOL    HW133304   5.698   6.759   4.474
11086SOL    HW233305   5.741   6.800   4.322
11087SOL     OW33306   6.288   6.970   5.354
11087SOL    HW133307   6.191   6.962   5.375
11087SOL    HW233308   6.311   0.065   5.335
11088SOL     OW33309   6.016   6.013   4.250
11088SOL    HW133310   6.050   5.943   4.188
11088SOL    HW233311   5.962   5.970   4.323
11089SOL     OW33312   5.921   6.142   5.013
11089SOL    HW133313   5.978   6.084   5.072
11089SOL    HW233314   5.936   6.116   4.918
11090SOL     OW33315   6.992   5.806   4.841
11090SOL    HW133316   0.015   5.717   4.880
11090SOL    HW233317   6.939   5.859   4.907
11091SOL     OW33318   6.599   5.601   4.861
11091SOL    HW133319   6.539   5.534   4.817
11091SOL    HW233320   6.692   5.565   4.866
11092SOL     OW33321   6.339   6.908   3.990
11092SOL    HW133322   6.319   6.812   4.010
11092SOL    HW233323   6.379   6.951   4.071
11093SOL     OW33324   6.909   5.667   3.865
11093SOL    HW133325   6.948   5.615   3.789
11093SOL    HW233326   6.831   5.616   3.903
11094SOL     OW33327   5.622   6.646   4.035
11094SOL    HW133328   5.720   6.652   4.013
11094SOL    HW233329   5.599   6.552   4.057
11095SOL     OW33330   5.807   6.205   5.713
11095SOL    HW133331   5.716   6.204   5.754
11095SOL    HW233332   5.801   6.182   5.616
11096SOL     OW33333   5.806   5.875   6.582
11096SOL    HW133334   5.842   5.836   6.667
11096SOL    HW233335   5.714   5.838   6.565
11097SOL     OW33336   5.586   5.972   6.221
11097SOL    HW133337   5.502   6.003   6.265
11097SOL    HW233338   5.568   5.888   6.169
11098SOL     OW33339   6.147   6.880   6.770
11098SOL    HW133340   6.081   6.893   6.697
11098SOL    HW233341   6.100   6.876   6.858
11099SOL     OW33342   0.072   0.132   6.266
11099SOL    HW133343   6.997   0.101   6.324
11099SOL    HW233344   0.115   0.054   6.221
11100SOL     OW33345   6.693   6.306   6.275
11100SOL    HW133346   6.758   6.381   6.263
11100SOL    HW233347   6.657   6.307   6.368
11101SOL     OW33348   6.343   6.743   6.613
11101SOL    HW133349   6.280   6.782   6.680
11101SOL    HW233350   6.348   6.802   6.533
11102SOL     OW33351   6.272   6.584   6.234
11102SOL    HW133352   6.342   6.572   6.304
11102SOL    HW233353   6.196   6.638   6.271
11103SOL     OW33354   5.922   0.013   6.641
11103SOL    HW133355   5.843   6.963   6.604
11103SOL    HW233356   5.966   0.064   6.567
11104SOL     OW33357   5.847   6.677   6.493
11104SOL    HW133358   5.844   6.582   6.525
11104SOL    HW233359   5.786   6.733   6.548
11105SOL     OW33360   6.165   6.565   5.729
11105SOL    HW133361   6.210   6.615   5.655
11105SOL    HW233362   6.205   6.592   5.816
11106SOL     OW33363   0.241   5.778   0.083
11106SOL    HW133364   0.172   5.849   0.073
11106SOL    HW233365   0.200   5.697   0.126
11107SOL     OW33366   5.701   6.245   6.151
11107SOL    HW133367   5.670   6.151   6.168
11107SOL    HW233368   5.694   6.298   6.235
11108SOL     OW33369   6.844   6.779   0.026
11108SOL    HW133370   6.888   6.723   6.956
11108SOL    HW233371   6.914   6.825   0.081
11109SOL     OW33372   6.402   5.596   6.097
11109SOL    HW133373   6.447   5.682   6.073
11109SOL    HW233374   6.303   5.611   6.104
11110SOL     OW33375   5.778   6.556   6.836
11110SOL    HW133376   5.860   6.500   6.824
11110SOL    HW233377   5.697   6.502   6.812
11111SOL     OW33378   6.181   6.303   5.860
11111SOL    HW133379   6.186   6.388   5.808
11111SOL    HW233380   6.112   6.312   5.932
11112SOL     OW33381   6.871   5.910   6.478
11112SOL    HW133382   6.773   5.896   6.490
11112SOL    HW233383   6.920   5.874   6.557
11113SOL     OW33384   6.405   6.167   0.047
11113SOL    HW133385   6.352   6.228   0.107
11113SOL    HW233386   6.344   6.125   6.980
11114SOL     OW33387   6.567   5.960   6.802
11114SOL    HW133388   6.491   6.014   6.836
11114SOL    HW233389   6.541   5.913   6.718
11115SOL     OW33390   6.635   6.286   6.010
11115SOL    HW133391   6.653   6.288   6.109
11115SOL    HW233392   6.549   6.238   5.993
11116SOL     OW33393   5.674   6.411   6.366
11116SOL    HW133394   5.760   6.401   6.417
11116SOL    HW233395   5.623   6.489   6.401
11117SOL     OW33396   6.481   5.938   5.782
11117SOL    HW133397   6.523   6.005   5.720
11117SOL    HW233398   6.484   5.848   5.739
11118SOL     OW33399   6.934   6.718   6.101
11118SOL    HW133400   6.998   6.697   6.027
11118SOL    HW233401   6.880   6.799   6.076
11119SOL     OW33402   6.134   5.760   6.486
11119SOL    HW133403   6.141   5.788   6.582
11119SOL    HW233404   6.136   5.841   6.428
11120SOL     OW33405   5.908   6.546   5.844
11120SOL    HW133406   5.997   6.562   5.800
11120SOL    HW233407   5.869   6.461   5.809
11121SOL     OW33408   5.982   6.273   6.060
11121SOL    HW133409   6.001   6.176   6.074
11121SOL    HW233410   5.885   6.291   6.079
11122SOL     OW33411   6.227   5.703   5.687
11122SOL    HW133412   6.293   5.631   5.710
11122SOL    HW233413   6.170   5.672   5.611
11123SOL     OW33414   6.513   6.091   6.486
11123SOL    HW133415   6.487   6.086   6.389
11123SOL    HW233416   6.548   6.002   6.515
11124SOL     OW33417   6.133   5.650   6.080
11124SOL    HW133418   6.051   5.647   6.138
11124SOL    HW233419   6.129   5.730   6.021
11125SOL     OW33420   6.981   6.708   5.603
11125SOL    HW133421   0.022   6.662   5.683
11125SOL    HW233422   6.934   6.791   5.633
11126SOL     OW33423   5.876   5.635   5.772
11126SOL    HW133424   5.929   5.706   5.725
11126SOL    HW233425   5.938   5.570   5.815
11127SOL     OW33426   6.530   5.836   6.040
11127SOL    HW133427   6.495   5.877   5.956
11127SOL    HW233428   6.629   5.848   6.045
11128SOL     OW33429   6.829   0.099   6.376
11128SOL    HW133430   6.778   0.160   6.316
11128SOL    HW233431   6.832   0.136   6.468
11129SOL     OW33432   6.051   6.714   6.321
11129SOL    HW133433   5.981   6.706   6.392
11129SOL    HW233434   6.008   6.711   6.231
11130SOL     OW33435   6.609   6.123   5.612
11130SOL    HW133436   6.564   6.210   5.593
11130SOL    HW233437   6.674   6.136   5.687
11131SOL     OW33438   6.149   5.804   6.760
11131SOL    HW133439   6.192   5.721   6.795
11131SOL    HW233440   6.053   5.806   6.787
11132SOL     OW33441   6.449   6.041   6.224
11132SOL    HW133442   6.405   6.108   6.164
11132SOL    HW233443   6.475   5.960   6.172
11133SOL     OW33444   6.608   5.633   6.324
11133SOL    HW133445   6.541   5.635   6.249
11133SOL    HW233446   6.582   5.562   6.389
11134SOL     OW33447   6.115   5.850   5.895
11134SOL    HW133448   6.162   5.798   5.824
11134SOL    HW233449   6.086   5.938   5.858
11135SOL     OW33450   6.642   6.927   6.934
11135SOL    HW133451   6.557   6.888   6.969
11135SOL    HW233452   6.720   6.881   6.975
11136SOL     OW33453   6.724   6.772   6.703
11136SOL    HW133454   6.690   6.834   6.774
11136SOL    HW233455   6.676   6.790   6.617
11137SOL     OW33456   6.293   6.639   5.956
11137SOL    HW133457   6.278   6.630   6.054
11137SOL    HW233458   6.374   6.587   5.929
11138SOL     OW33459   6.010   6.399   6.847
11138SOL    HW133460   6.069   6.424   6.924
11138SOL    HW233461   5.975   6.307   6.861
11139SOL     OW33462   6.827   5.993   6.865
11139SOL    HW133463   6.811   6.077   6.916
11139SOL    HW233464   6.743   5.966   6.818
11140SOL     OW33465   5.925   6.704   6.077
11140SOL    HW133466   5.968   6.782   6.033
11140SOL    HW233467   5.920   6.628   6.013
11141SOL     OW33468   6.133   6.131   6.449
11141SOL    HW133469   6.146   6.190   6.369
11141SOL    HW233470   6.205   6.151   6.516
11142SOL     OW33471   6.818   6.952   6.004
11142SOL    HW133472   6.862   0.034   6.040
11142SOL    HW233473   6.721   6.953   6.028
11143SOL     OW33474   6.171   6.453   6.623
11143SOL    HW133475   6.202   6.547   6.611
11143SOL    HW233476   6.111   6.447   6.702
11144SOL     OW33477   6.957   6.431   6.611
11144SOL    HW133478   6.866   6.420   6.573
11144SOL    HW233479   6.993   6.341   6.638
11145SOL     OW33480   6.767   6.119   5.837
11145SOL    HW133481   6.782   6.034   5.887
11145SOL    HW233482   6.730   6.188   5.900
11146SOL     OW33483   5.888   5.788   6.834
11146SOL    HW133484   5.853   5.816   6.923
11146SOL    HW233485   5.875   5.689   6.823
11147SOL     OW33486   5.634   6.900   6.877
11147SOL    HW133487   5.678   6.836   6.941
11147SOL    HW233488   5.661   6.993   6.899
11148SOL     OW33489   6.311   6.213   6.642
11148SOL    HW133490   6.388   6.194   6.581
11148SOL    HW233491   6.277   6.306   6.624
11149SOL     OW33492   5.892   5.648   6.213
11149SOL    HW133493   5.868   5.743   6.232
11149SOL    HW233494   5.903   5.598   6.299
11150SOL     OW33495   0.210   6.035   5.924
11150SOL    HW133496   0.170   5.943   5.927
11150SOL    HW233497   0.190   6.083   6.009
11151SOL     OW33498   6.610   6.339   6.549
11151SOL    HW133499   6.603   6.359   6.647
11151SOL    HW233500   6.584   6.243   6.533
11152SOL     OW33501   6.887   6.403   5.617
11152SOL    HW133502   6.952   6.335   5.651
11152SOL    HW233503   6.927   6.450   5.538
11153SOL     OW33504   5.897   6.391   6.529
11153SOL    HW133505   5.993   6.417   6.518
11153SOL    HW233506   5.892   6.296   6.559
11154SOL     OW33507   5.918   6.115   6.604
11154SOL    HW133508   5.877   6.025   6.590
11154SOL    HW233509   5.998   6.125   6.545
11155SOL     OW33510   6.767   5.803   0.054
11155SOL    HW133511   6.768   5.854   0.140
11155SOL    HW233512   6.774   5.866   6.977
11156SOL     OW33513   5.609   6.895   5.768
11156SOL    HW133514   5.520   6.923   5.730
11156SOL    HW233515   5.599   6.806   5.813
11157SOL     OW33516   6.563   6.378   6.818
11157SOL    HW133517   6.630   6.370   6.891
11157SOL    HW233518   6.476   6.338   6.847
11158SOL     OW33519   5.637   6.142   6.713
11158SOL    HW133520   5.690   6.107   6.636
11158SOL    HW233521   5.699   6.175   6.784
11159SOL     OW33522   6.404   6.158   5.946
11159SOL    HW133523   6.412   6.078   5.886
11159SOL    HW233524   6.325   6.213   5.918
11160SOL     OW33525   6.268   6.046   6.848
11160SOL    HW133526   6.227   5.959   6.820
11160SOL    HW233527   6.274   6.107   6.769
11161SOL     OW33528   6.045   6.081   5.771
11161SOL    HW133529   6.109   6.153   5.797
11161SOL    HW233530   5.954   6.120   5.757
11162SOL     OW33531   5.763   6.724   0.042
11162SOL    HW133532   5.741   6.673   0.126
11162SOL    HW233533   5.765   6.660   6.965
11163SOL     OW33534   6.892   6.596   6.817
11163SOL    HW133535   6.928   6.539   6.743
11163SOL    HW233536   6.827   6.663   6.779
11164SOL     OW33537   6.888   6.454   5.894
11164SOL    HW133538   6.818   6.418   5.955
11164SOL    HW233539   6.862   6.437   5.799
11165SOL     OW33540   5.668   6.859   6.605
11165SOL    HW133541   5.650   6.868   6.703
11165SOL    HW233542   5.599   6.800   6.563
11166SOL     OW33543   6.870   6.505   6.247
11166SOL    HW133544   6.956   6.456   6.262
11166SOL    HW233545   6.889   6.587   6.192
11167SOL     OW33546   6.399   6.839   0.021
11167SOL    HW133547   6.393   6.853   0.119
11167SOL    HW233548   6.312   6.863   6.978
11168SOL     OW33549   5.841   5.900   6.301
11168SOL    HW133550   5.752   5.937   6.273
11168SOL    HW233551   5.844   5.893   6.401
11169SOL     OW33552   6.831   0.207   5.625
11169SOL    HW133553   6.842   0.122   5.676
11169SOL    HW233554   6.743   0.205   5.577
11170SOL     OW33555   6.365   6.582   6.936
11170SOL    HW133556   6.438   6.546   6.877
11170SOL    HW233557   6.392   6.673   6.970
11171SOL     OW33558   6.502   6.493   5.872
11171SOL    HW133559   6.565   6.530   5.804
11171SOL    HW233560   6.549   6.424   5.927
11172SOL     OW33561   5.985   6.887   6.997
11172SOL    HW133562   5.965   6.962   0.059
11172SOL    HW233563   5.916   6.815   0.008
11173SOL     OW33564   6.641   6.700   6.310
11173SOL    HW133565   6.565   6.646   6.346
11173SOL    HW233566   6.709   6.638   6.270
11174SOL     OW33567   6.605   5.823   6.543
11174SOL    HW133568   6.600   5.777   6.454
11174SOL    HW233569   6.609   5.754   6.616
11175SOL     OW33570   6.262   5.772   0.086
11175SOL    HW133571   6.353   5.735   0.064
11175SOL    HW233572   6.272   5.850   0.147
11176SOL     OW33573   5.668   5.914   5.615
11176SOL    HW133574   5.576   5.890   5.584
11176SOL    HW233575   5.699   5.995   5.566
11177SOL     OW33576   5.649   5.741   5.889
11177SOL    HW133577   5.633   5.826   5.838
11177SOL    HW233578   5.737   5.702   5.862
11178SOL     OW33579   6.807   5.897   6.024
11178SOL    HW133580   6.881   5.844   5.985
11178SOL    HW233581   6.842   5.953   6.100
11179SOL     OW33582   6.171   6.323   6.255
11179SOL    HW133583   6.213   6.413   6.245
11179SOL    HW233584   6.102   6.310   6.184
11180SOL     OW33585   6.454   6.550   6.444
11180SOL    HW133586   6.507   6.473   6.479
11180SOL    HW233587   6.420   6.605   6.521
11181SOL     OW33588   6.665   6.568   5.674
11181SOL    HW133589   6.635   6.629   5.600
11181SOL    HW233590   6.744   6.515   5.642
11182SOL     OW33591   5.681   6.823   6.260
11182SOL    HW133592   5.690   6.759   6.336
11182SOL    HW233593   5.743   6.796   6.186
11183SOL     OW33594   6.017   6.013   6.113
11183SOL    HW133595   6.050   5.943   6.050
11183SOL    HW233596   5.962   5.970   6.184
11184SOL     OW33597   5.902   6.136   6.878
11184SOL    HW133598   5.972   6.083   6.926
11184SOL    HW233599   5.913   6.124   6.779
11185SOL     OW33600   6.990   5.814   6.706
11185SOL    HW133601   0.002   5.721   6.741
11185SOL    HW233602   6.931   5.866   6.768
11186SOL     OW33603   6.608   5.612   6.715
11186SOL    HW133604   6.537   5.544   6.696
11186SOL    HW233605   6.697   5.566   6.720
11187SOL     OW33606   6.339   6.907   5.851
11187SOL    HW133607   6.319   6.811   5.871
11187SOL    HW233608   6.378   6.951   5.932
11188SOL     OW33609   6.909   5.667   5.728
11188SOL    HW133610   6.948   5.615   5.651
11188SOL    HW233611   6.831   5.616   5.765
11189SOL     OW33612   5.622   6.646   5.897
11189SOL    HW133613   5.720   6.652   5.875
11189SOL    HW233614   5.599   6.552   5.919
   7.00000   7.00000   7.00000
