GENERAL CONTROL PROTEIN GCN4 in water
 2655
   16ASN      N    1   0.415   1.538   2.044
   16ASN     H1    2   0.402   1.634   2.015
   16ASN     H2    3   0.338   1.481   2.011
   16ASN     H3    4   0.415   1.535   2.145
   16ASN     CA    5   0.543   1.486   1.993
   16ASN     HA    6   0.623   1.547   2.035
   16ASN     CB    7   0.567   1.342   2.039
   16ASN    HB1    8   0.631   1.288   1.969
   16ASN    HB2    9   0.475   1.286   2.047
   16ASN     CG   10   0.639   1.353   2.172
   16ASN    OD1   11   0.752   1.398   2.179
   16ASN    ND2   12   0.572   1.332   2.283
   16ASN   HD21   13   0.478   1.296   2.283
   16ASN   HD22   14   0.629   1.322   2.366
   16ASN      C   15   0.553   1.509   1.844
   16ASN      O   16   0.646   1.579   1.804
   17TYR      N   17   0.456   1.462   1.765
   17TYR      H   18   0.385   1.403   1.807
   17TYR     CA   19   0.447   1.476   1.619
   17TYR     HA   20   0.357   1.424   1.586
   17TYR     CB   21   0.427   1.626   1.586
   17TYR    HB1   22   0.496   1.683   1.647
   17TYR    HB2   23   0.327   1.655   1.618
   17TYR     CG   24   0.441   1.680   1.445
   17TYR    CD1   25   0.379   1.619   1.334
   17TYR    HD1   26   0.324   1.526   1.345
   17TYR    CE1   27   0.386   1.681   1.208
   17TYR    HE1   28   0.338   1.635   1.123
   17TYR     CZ   29   0.458   1.801   1.191
   17TYR     OH   30   0.468   1.859   1.069
   17TYR     HH   31   0.536   1.927   1.065
   17TYR    CE2   32   0.519   1.862   1.301
   17TYR    HE2   33   0.571   1.956   1.289
   17TYR    CD2   34   0.507   1.803   1.428
   17TYR    HD2   35   0.545   1.856   1.513
   17TYR      C   36   0.564   1.405   1.550
   17TYR      O   37   0.653   1.354   1.618
   18HIS      N   38   0.571   1.404   1.417
   18HIS      H   39   0.495   1.442   1.361
   18HIS     CA   40   0.697   1.370   1.351
   18HIS     HA   41   0.719   1.265   1.373
   18HIS     CB   42   0.692   1.388   1.199
   18HIS    HB1   43   0.593   1.364   1.160
   18HIS    HB2   44   0.764   1.317   1.159
   18HIS     CG   45   0.738   1.523   1.148
   18HIS    ND1   46   0.663   1.617   1.079
   18HIS    CE1   47   0.745   1.721   1.056
   18HIS    HE1   48   0.719   1.809   0.998
   18HIS    NE2   49   0.866   1.697   1.107
   18HIS    HE2   50   0.948   1.753   1.092
   18HIS    CD2   51   0.865   1.569   1.156
   18HIS    HD2   52   0.950   1.514   1.193
   18HIS      C   53   0.812   1.452   1.409
   18HIS      O   54   0.923   1.401   1.405
   19LEU      N   55   0.787   1.573   1.461
   19LEU      H   56   0.693   1.608   1.452
   19LEU     CA   57   0.885   1.658   1.530
   19LEU     HA   58   0.952   1.699   1.456
   19LEU     CB   59   0.815   1.773   1.604
   19LEU    HB1   60   0.836   1.765   1.711
   19LEU    HB2   61   0.708   1.760   1.596
   19LEU     CG   62   0.857   1.914   1.559
   19LEU     HG   63   0.957   1.930   1.596
   19LEU    CD1   64   0.862   1.938   1.408
   19LEU   HD11   65   0.866   2.045   1.388
   19LEU   HD12   66   0.952   1.894   1.368
   19LEU   HD13   67   0.776   1.893   1.359
   19LEU    CD2   68   0.765   2.018   1.624
   19LEU   HD21   69   0.809   2.117   1.614
   19LEU   HD22   70   0.667   2.018   1.576
   19LEU   HD23   71   0.753   1.995   1.730
   19LEU      C   72   0.970   1.579   1.629
   19LEU      O   73   1.088   1.607   1.640
   20GLU      N   74   0.915   1.479   1.696
   20GLU      H   75   0.815   1.463   1.685
   20GLU     CA   76   0.990   1.390   1.786
   20GLU     HA   77   1.042   1.453   1.858
   20GLU     CB   78   0.886   1.304   1.862
   20GLU    HB1   79   0.797   1.367   1.871
   20GLU    HB2   80   0.920   1.286   1.963
   20GLU     CG   81   0.842   1.171   1.797
   20GLU    HG1   82   0.824   1.186   1.690
   20GLU    HG2   83   0.748   1.141   1.841
   20GLU     CD   84   0.942   1.057   1.816
   20GLU    OE1   85   0.982   1.033   1.933
   20GLU    OE2   86   0.970   0.984   1.718
   20GLU      C   87   1.095   1.306   1.712
   20GLU      O   88   1.211   1.293   1.751
   21ASN      N   89   1.055   1.254   1.596
   21ASN      H   90   0.961   1.273   1.566
   21ASN     CA   91   1.143   1.182   1.506
   21ASN     HA   92   1.199   1.109   1.564
   21ASN     CB   93   1.056   1.110   1.402
   21ASN    HB1   94   1.043   1.171   1.313
   21ASN    HB2   95   0.957   1.089   1.444
   21ASN     CG   96   1.117   0.977   1.364
   21ASN    OD1   97   1.198   0.966   1.272
   21ASN    ND2   98   1.085   0.873   1.436
   21ASN   HD21   99   1.028   0.886   1.519
   21ASN   HD22  100   1.121   0.783   1.411
   21ASN      C  101   1.242   1.281   1.442
   21ASN      O  102   1.358   1.250   1.425
   22GLU      N  103   1.196   1.403   1.413
   22GLU      H  104   1.097   1.419   1.432
   22GLU     CA  105   1.272   1.516   1.359
   22GLU     HA  106   1.322   1.485   1.268
   22GLU     CB  107   1.179   1.633   1.329
   22GLU    HB1  108   1.186   1.708   1.408
   22GLU    HB2  109   1.077   1.597   1.330
   22GLU     CG  110   1.201   1.703   1.194
   22GLU    HG1  111   1.286   1.768   1.203
   22GLU    HG2  112   1.114   1.767   1.173
   22GLU     CD  113   1.224   1.607   1.077
   22GLU    OE1  114   1.129   1.541   1.032
   22GLU    OE2  115   1.340   1.602   1.029
   22GLU      C  116   1.382   1.557   1.455
   22GLU      O  117   1.495   1.572   1.413
   23VAL      N  118   1.355   1.565   1.584
   23VAL      H  119   1.258   1.551   1.614
   23VAL     CA  120   1.457   1.588   1.686
   23VAL     HA  121   1.502   1.685   1.669
   23VAL     CB  122   1.392   1.585   1.824
   23VAL     HB  123   1.323   1.502   1.832
   23VAL    CG1  124   1.492   1.576   1.939
   23VAL   HG11  125   1.436   1.573   2.032
   23VAL   HG12  126   1.549   1.483   1.933
   23VAL   HG13  127   1.560   1.661   1.935
   23VAL    CG2  128   1.317   1.717   1.842
   23VAL   HG21  129   1.268   1.713   1.938
   23VAL   HG22  130   1.386   1.800   1.835
   23VAL   HG23  131   1.241   1.730   1.766
   23VAL      C  132   1.567   1.484   1.673
   23VAL      O  133   1.682   1.523   1.661
   24ALA      N  134   1.533   1.356   1.665
   24ALA      H  135   1.437   1.329   1.679
   24ALA     CA  136   1.634   1.253   1.642
   24ALA     HA  137   1.708   1.259   1.722
   24ALA     CB  138   1.566   1.117   1.649
   24ALA    HB1  139   1.642   1.040   1.647
   24ALA    HB2  140   1.510   1.108   1.741
   24ALA    HB3  141   1.500   1.103   1.564
   24ALA      C  142   1.706   1.270   1.507
   24ALA      O  143   1.828   1.258   1.502
   25ARG      N  144   1.634   1.298   1.398
   25ARG      H  145   1.534   1.308   1.412
   25ARG     CA  146   1.689   1.317   1.262
   25ARG     HA  147   1.743   1.228   1.231
   25ARG     CB  148   1.573   1.344   1.165
   25ARG    HB1  149   1.612   1.377   1.069
   25ARG    HB2  150   1.514   1.427   1.204
   25ARG     CG  151   1.483   1.223   1.141
   25ARG    HG1  152   1.476   1.160   1.230
   25ARG    HG2  153   1.526   1.163   1.061
   25ARG     CD  154   1.342   1.269   1.101
   25ARG    HD1  155   1.350   1.348   1.027
   25ARG    HD2  156   1.290   1.308   1.187
   25ARG     NE  157   1.262   1.160   1.049
   25ARG     HE  158   1.290   1.065   1.072
   25ARG     CZ  159   1.195   1.177   0.938
   25ARG    NH1  160   1.075   1.225   0.941
   25ARG   HH11  161   1.042   1.267   1.025
   25ARG   HH12  162   1.025   1.240   0.854
   25ARG    NH2  163   1.250   1.154   0.824
   25ARG   HH21  164   1.347   1.129   0.817
   25ARG   HH22  165   1.194   1.167   0.740
   25ARG      C  166   1.787   1.434   1.257
   25ARG      O  167   1.893   1.424   1.197
   26LEU      N  168   1.751   1.544   1.322
   26LEU      H  169   1.661   1.542   1.368
   26LEU     CA  170   1.827   1.668   1.329
   26LEU     HA  171   1.866   1.691   1.230
   26LEU     CB  172   1.730   1.780   1.373
   26LEU    HB1  173   1.784   1.872   1.389
   26LEU    HB2  174   1.686   1.751   1.469
   26LEU     CG  175   1.615   1.805   1.273
   26LEU     HG  176   1.574   1.712   1.235
   26LEU    CD1  177   1.503   1.886   1.339
   26LEU   HD11  178   1.425   1.907   1.267
   26LEU   HD12  179   1.458   1.828   1.419
   26LEU   HD13  180   1.541   1.980   1.380
   26LEU    CD2  181   1.660   1.884   1.151
   26LEU   HD21  182   1.583   1.878   1.075
   26LEU   HD22  183   1.673   1.988   1.176
   26LEU   HD23  184   1.751   1.840   1.110
   26LEU      C  185   1.947   1.649   1.422
   26LEU      O  186   2.059   1.671   1.379
   27LYS      N  187   1.926   1.596   1.543
   27LYS      H  188   1.829   1.576   1.569
   27LYS     CA  189   2.028   1.565   1.645
   27LYS     HA  190   2.089   1.654   1.660
   27LYS     CB  191   1.957   1.535   1.778
   27LYS    HB1  192   1.919   1.433   1.774
   27LYS    HB2  193   1.872   1.602   1.789
   27LYS     CG  194   2.043   1.558   1.903
   27LYS    HG1  195   2.005   1.646   1.955
   27LYS    HG2  196   2.147   1.579   1.877
   27LYS     CD  197   2.037   1.439   2.000
   27LYS    HD1  198   1.935   1.400   2.003
   27LYS    HD2  199   2.064   1.473   2.100
   27LYS     CE  200   2.134   1.330   1.956
   27LYS    HE1  201   2.236   1.369   1.966
   27LYS    HE2  202   2.117   1.306   1.851
   27LYS     NZ  203   2.115   1.210   2.039
   27LYS    HZ1  204   2.180   1.135   2.017
   27LYS    HZ2  205   2.124   1.232   2.137
   27LYS    HZ3  206   2.021   1.171   2.029
   27LYS      C  207   2.126   1.453   1.604
   27LYS      O  208   2.210   1.411   1.684
   28LYS      N  209   2.111   1.396   1.484
   28LYS      H  210   2.031   1.426   1.430
   28LYS     CA  211   2.202   1.297   1.424
   28LYS     HA  212   2.262   1.251   1.503
   28LYS     CB  213   2.120   1.189   1.350
   28LYS    HB1  214   2.158   1.176   1.248
   28LYS    HB2  215   2.016   1.219   1.341
   28LYS     CG  216   2.131   1.055   1.423
   28LYS    HG1  217   2.237   1.033   1.438
   28LYS    HG2  218   2.087   0.978   1.359
   28LYS     CD  219   2.058   1.058   1.558
   28LYS    HD1  220   1.952   1.057   1.540
   28LYS    HD2  221   2.082   1.149   1.612
   28LYS     CE  222   2.096   0.939   1.646
   28LYS    HE1  223   2.060   0.957   1.747
   28LYS    HE2  224   2.205   0.931   1.648
   28LYS     NZ  225   2.037   0.815   1.593
   28LYS    HZ1  226   2.070   0.735   1.647
   28LYS    HZ2  227   1.936   0.819   1.595
   28LYS    HZ3  228   2.070   0.801   1.499
   28LYS      C  229   2.305   1.355   1.327
   28LYS      O  230   2.410   1.294   1.305
   29LEU      N  231   2.268   1.467   1.266
   29LEU      H  232   2.178   1.505   1.291
   29LEU     CA  233   2.348   1.546   1.172
   29LEU     HA  234   2.428   1.484   1.131
   29LEU     CB  235   2.251   1.588   1.058
   29LEU    HB1  236   2.148   1.580   1.094
   29LEU    HB2  237   2.262   1.518   0.975
   29LEU     CG  238   2.270   1.731   1.005
   29LEU     HG  239   2.279   1.798   1.089
   29LEU    CD1  240   2.393   1.745   0.916
   29LEU   HD11  241   2.412   1.850   0.896
   29LEU   HD12  242   2.480   1.704   0.966
   29LEU   HD13  243   2.379   1.692   0.822
   29LEU    CD2  244   2.147   1.783   0.930
   29LEU   HD21  245   2.162   1.888   0.907
   29LEU   HD22  246   2.130   1.724   0.840
   29LEU   HD23  247   2.059   1.774   0.995
   29LEU      C  248   2.416   1.663   1.246
   29LEU      O  249   2.524   1.707   1.208
   30VAL      N  250   2.346   1.720   1.345
   30VAL      H  251   2.259   1.677   1.373
   30VAL     CA  252   2.387   1.839   1.419
   30VAL     HA  253   2.495   1.849   1.410
   30VAL     CB  254   2.322   1.966   1.361
   30VAL     HB  255   2.327   2.041   1.438
   30VAL    CG1  256   2.399   2.021   1.240
   30VAL   HG11  257   2.351   2.112   1.203
   30VAL   HG12  258   2.502   2.043   1.269
   30VAL   HG13  259   2.404   1.948   1.160
   30VAL    CG2  260   2.174   1.954   1.324
   30VAL   HG21  261   2.137   2.051   1.291
   30VAL   HG22  262   2.157   1.880   1.247
   30VAL   HG23  263   2.118   1.925   1.413
   30VAL      C  264   2.355   1.828   1.569
   30VAL      O  265   2.239   1.818   1.609
   31GLY      N  266   2.459   1.839   1.653
   31GLY      H  267   2.550   1.843   1.612
   31GLY     CA  268   2.447   1.832   1.799
   31GLY    HA1  269   2.347   1.862   1.829
   31GLY    HA2  270   2.518   1.900   1.843
   31GLY      C  271   2.474   1.693   1.858
   31GLY      O  272   2.398   1.648   1.944
   32GLU      N  273   2.583   1.629   1.817
   32GLU      H  274   2.639   1.674   1.746
   32GLU     CA  275   2.620   1.491   1.853
   32GLU     HA  276   2.528   1.433   1.857
   32GLU     CB  277   2.709   1.432   1.741
   32GLU    HB1  278   2.762   1.347   1.784
   32GLU    HB2  279   2.784   1.505   1.711
   32GLU     CG  280   2.633   1.381   1.618
   32GLU    HG1  281   2.541   1.330   1.649
   32GLU    HG2  282   2.695   1.306   1.568
   32GLU     CD  283   2.598   1.490   1.516
   32GLU    OE1  284   2.682   1.517   1.428
   32GLU    OE2  285   2.488   1.549   1.531
   32GLU      C  286   2.682   1.476   1.992
   32GLU    OC1  287   2.802   1.505   2.010
   32GLU    OC2  288   2.609   1.435   2.085
   33SOL     OW  289   0.240   0.663   0.109
   33SOL    HW1  290   0.171   0.617   0.156
   33SOL    HW2  291   0.253   0.613   0.028
   34SOL     OW  292   0.203   0.271   1.002
   34SOL    HW1  293   0.240   0.247   1.087
   34SOL    HW2  294   0.108   0.258   1.012
   35SOL     OW  295   0.008   0.389   0.659
   35SOL    HW1  296   2.924   0.430   0.683
   35SOL    HW2  297   2.983   0.316   0.603
   36SOL     OW  298   1.548   1.500   0.703
   36SOL    HW1  299   1.505   1.541   0.778
   36SOL    HW2  300   1.484   1.504   0.633
   37SOL     OW  301   1.130   0.692   0.703
   37SOL    HW1  302   1.178   0.773   0.686
   37SOL    HW2  303   1.079   0.710   0.782
   38SOL     OW  304   1.769   0.591   0.232
   38SOL    HW1  305   1.742   0.583   0.141
   38SOL    HW2  306   1.729   0.516   0.276
   39SOL     OW  307   0.740   1.122   1.014
   39SOL    HW1  308   0.674   1.160   1.070
   39SOL    HW2  309   0.779   1.196   0.968
   40SOL     OW  310   0.857   0.772   1.830
   40SOL    HW1  311   0.850   0.818   1.913
   40SOL    HW2  312   0.899   0.834   1.771
   41SOL     OW  313   0.684   1.002   0.648
   41SOL    HW1  314   0.749   0.991   0.717
   41SOL    HW2  315   0.614   1.054   0.689
   42SOL     OW  316   0.352   1.387   1.055
   42SOL    HW1  317   0.265   1.359   1.028
   42SOL    HW2  318   0.379   1.451   0.988
   43SOL     OW  319   0.452   0.404   1.491
   43SOL    HW1  320   0.526   0.343   1.495
   43SOL    HW2  321   0.375   0.348   1.505
   44SOL     OW  322   1.610   0.457   0.736
   44SOL    HW1  323   1.535   0.477   0.680
   44SOL    HW2  324   1.624   0.536   0.787
   45SOL     OW  325   0.218   1.717   0.477
   45SOL    HW1  326   0.237   1.800   0.521
   45SOL    HW2  327   0.292   1.705   0.417
   46SOL     OW  328   0.250   1.450   0.527
   46SOL    HW1  329   0.214   1.539   0.526
   46SOL    HW2  330   0.194   1.401   0.587
   47SOL     OW  331   0.257   1.081   0.893
   47SOL    HW1  332   0.252   0.995   0.936
   47SOL    HW2  333   0.196   1.136   0.942
   48SOL     OW  334   0.587   0.976   0.152
   48SOL    HW1  335   0.596   1.050   0.092
   48SOL    HW2  336   0.629   1.005   0.233
   49SOL     OW  337   1.552   0.146   1.458
   49SOL    HW1  338   1.587   0.224   1.414
   49SOL    HW2  339   1.625   0.113   1.511
   50SOL     OW  340   0.123   0.628   0.570
   50SOL    HW1  341   0.085   0.550   0.612
   50SOL    HW2  342   0.119   0.695   0.638
   51SOL     OW  343   1.847   1.757   0.333
   51SOL    HW1  344   1.903   1.724   0.403
   51SOL    HW2  345   1.871   1.849   0.324
   52SOL     OW  346   0.026   1.601   0.120
   52SOL    HW1  347   0.024   1.506   0.128
   52SOL    HW2  348   2.985   1.633   0.200
   53SOL     OW  349   1.692   0.920   0.642
   53SOL    HW1  350   1.773   0.876   0.615
   53SOL    HW2  351   1.666   0.972   0.567
   54SOL     OW  352   1.646   1.107   0.433
   54SOL    HW1  353   1.731   1.112   0.391
   54SOL    HW2  354   1.652   1.168   0.507
   55SOL     OW  355   0.133   0.746   1.586
   55SOL    HW1  356   0.228   0.755   1.586
   55SOL    HW2  357   0.101   0.836   1.597
   56SOL     OW  358   0.604   1.381   0.730
   56SOL    HW1  359   0.557   1.298   0.739
   56SOL    HW2  360   0.589   1.408   0.640
   57SOL     OW  361   0.819   0.013   0.518
   57SOL    HW1  362   0.852   0.102   0.501
   57SOL    HW2  363   0.725   0.018   0.501
   58SOL     OW  364   0.186   0.954   1.285
   58SOL    HW1  365   0.269   0.915   1.257
   58SOL    HW2  366   0.123   0.925   1.219
   59SOL     OW  367   1.507   1.006   0.212
   59SOL    HW1  368   1.441   0.949   0.252
   59SOL    HW2  369   1.559   1.037   0.287
   60SOL     OW  370   0.335   0.253   1.797
   60SOL    HW1  371   0.385   0.330   1.824
   60SOL    HW2  372   0.251   0.262   1.842
   61SOL     OW  373   1.665   1.736   0.577
   61SOL    HW1  374   1.636   1.699   0.494
   61SOL    HW2  375   1.629   1.676   0.643
   62SOL     OW  376   0.592   0.718   0.268
   62SOL    HW1  377   0.599   0.802   0.222
   62SOL    HW2  378   0.529   0.736   0.339
   63SOL     OW  379   1.287   0.345   0.932
   63SOL    HW1  380   1.194   0.321   0.938
   63SOL    HW2  381   1.330   0.293   0.999
   64SOL     OW  382   1.583   1.672   0.309
   64SOL    HW1  383   1.673   1.703   0.303
   64SOL    HW2  384   1.559   1.649   0.219
   65SOL     OW  385   0.781   0.630   1.455
   65SOL    HW1  386   0.761   0.599   1.544
   65SOL    HW2  387   0.751   0.559   1.398
   66SOL     OW  388   1.398   0.482   1.675
   66SOL    HW1  389   1.397   0.521   1.763
   66SOL    HW2  390   1.450   0.402   1.686
   67SOL     OW  391   1.001   0.423   1.224
   67SOL    HW1  392   0.931   0.444   1.286
   67SOL    HW2  393   0.957   0.375   1.154
   68SOL     OW  394   1.050   0.705   0.425
   68SOL    HW1  395   1.066   0.693   0.518
   68SOL    HW2  396   0.969   0.657   0.408
   69SOL     OW  397   0.103   0.814   0.763
   69SOL    HW1  398   0.180   0.814   0.820
   69SOL    HW2  399   0.042   0.873   0.806
   70SOL     OW  400   0.147   1.854   1.574
   70SOL    HW1  401   0.137   1.818   1.662
   70SOL    HW2  402   0.065   1.832   1.529
   71SOL     OW  403   0.929   0.339   0.220
   71SOL    HW1  404   0.937   0.399   0.146
   71SOL    HW2  405   0.878   0.265   0.186
   72SOL     OW  406   1.728   0.582   1.822
   72SOL    HW1  407   1.679   0.655   1.785
   72SOL    HW2  408   1.720   0.513   1.756
   73SOL     OW  409   1.367   1.133   0.531
   73SOL    HW1  410   1.454   1.132   0.490
   73SOL    HW2  411   1.320   1.203   0.486
   74SOL     OW  412   0.513   0.199   0.915
   74SOL    HW1  413   0.536   0.212   1.007
   74SOL    HW2  414   0.548   0.276   0.870
   75SOL     OW  415   1.004   1.443   0.470
   75SOL    HW1  416   0.965   1.518   0.424
   75SOL    HW2  417   1.000   1.467   0.562
   76SOL     OW  418   0.344   1.796   0.832
   76SOL    HW1  419   0.386   1.710   0.840
   76SOL    HW2  420   0.396   1.853   0.889
   77SOL     OW  421   1.774   1.066   0.876
   77SOL    HW1  422   1.748   1.051   0.785
   77SOL    HW2  423   1.693   1.055   0.926
   78SOL     OW  424   0.318   0.947   0.235
   78SOL    HW1  425   0.409   0.955   0.207
   78SOL    HW2  426   0.292   0.859   0.205
   79SOL     OW  427   1.478   0.742   0.727
   79SOL    HW1  428   1.468   0.699   0.812
   79SOL    HW2  429   1.556   0.796   0.738
   80SOL     OW  430   0.448   1.164   1.744
   80SOL    HW1  431   0.424   1.176   1.652
   80SOL    HW2  432   0.371   1.192   1.793
   81SOL     OW  433   1.112   1.777   0.222
   81SOL    HW1  434   1.054   1.729   0.282
   81SOL    HW2  435   1.143   1.710   0.161
   82SOL     OW  436   0.202   0.297   1.494
   82SOL    HW1  437   0.118   0.344   1.492
   82SOL    HW2  438   0.185   0.220   1.548
   83SOL     OW  439   1.626   1.360   0.085
   83SOL    HW1  440   1.600   1.452   0.077
   83SOL    HW2  441   1.544   1.311   0.080
   84SOL     OW  442   0.466   1.722   0.334
   84SOL    HW1  443   0.499   1.791   0.391
   84SOL    HW2  444   0.533   1.712   0.267
   85SOL     OW  445   1.410   0.109   0.437
   85SOL    HW1  446   1.393   0.084   0.347
   85SOL    HW2  447   1.504   0.126   0.440
   86SOL     OW  448   0.996   1.692   0.856
   86SOL    HW1  449   1.040   1.627   0.911
   86SOL    HW2  450   0.934   1.642   0.804
   87SOL     OW  451   0.394   0.689   0.473
   87SOL    HW1  452   0.423   0.600   0.493
   87SOL    HW2  453   0.301   0.690   0.497
   88SOL     OW  454   1.541   0.253   1.736
   88SOL    HW1  455   1.539   0.258   1.832
   88SOL    HW2  456   1.488   0.176   1.714
   89SOL     OW  457   0.608   0.110   0.105
   89SOL    HW1  458   0.703   0.108   0.117
   89SOL    HW2  459   0.595   0.151   0.019
   90SOL     OW  460   0.764   0.266   1.748
   90SOL    HW1  461   0.843   0.214   1.763
   90SOL    HW2  462   0.729   0.283   1.836
   91SOL     OW  463   1.355   0.592   1.426
   91SOL    HW1  464   1.370   0.558   1.515
   91SOL    HW2  465   1.381   0.684   1.431
   92SOL     OW  466   0.824   1.353   0.893
   92SOL    HW1  467   0.872   1.436   0.891
   92SOL    HW2  468   0.748   1.368   0.837
   93SOL     OW  469   0.931   0.512   0.902
   93SOL    HW1  470   0.908   0.504   0.809
   93SOL    HW2  471   0.960   0.424   0.926
   94SOL     OW  472   0.541   0.045   0.498
   94SOL    HW1  473   0.455   0.038   0.539
   94SOL    HW2  474   0.534   0.122   0.440
   95SOL     OW  475   1.409   1.208   0.049
   95SOL    HW1  476   1.428   1.133   0.105
   95SOL    HW2  477   1.322   1.237   0.076
   96SOL     OW  478   0.297   0.082   0.200
   96SOL    HW1  479   0.382   0.126   0.200
   96SOL    HW2  480   0.318   2.989   0.190
   97SOL     OW  481   0.949   0.252   0.474
   97SOL    HW1  482   0.926   0.289   0.389
   97SOL    HW2  483   1.044   0.264   0.481
   98SOL     OW  484   1.266   1.550   0.768
   98SOL    HW1  485   1.264   1.640   0.735
   98SOL    HW2  486   1.274   1.559   0.863
   99SOL     OW  487   0.467   1.145   0.737
   99SOL    HW1  488   0.396   1.129   0.798
   99SOL    HW2  489   0.427   1.133   0.650
  100SOL     OW  490   1.270   1.796   0.598
  100SOL    HW1  491   1.316   1.860   0.543
  100SOL    HW2  492   1.207   1.848   0.647
  101SOL     OW  493   1.048   0.497   0.032
  101SOL    HW1  494   1.005   0.582   0.026
  101SOL    HW2  495   1.115   0.508   0.099
  102SOL     OW  496   0.081   0.567   1.388
  102SOL    HW1  497   0.171   0.561   1.356
  102SOL    HW2  498   0.086   0.632   1.459
  103SOL     OW  499   0.582   0.208   1.181
  103SOL    HW1  500   0.618   0.174   1.263
  103SOL    HW2  501   0.488   0.217   1.199
  104SOL     OW  502   0.877   0.472   0.638
  104SOL    HW1  503   0.820   0.518   0.576
  104SOL    HW2  504   0.885   0.383   0.604
  105SOL     OW  505   0.997   0.058   0.765
  105SOL    HW1  506   0.961   0.067   0.677
  105SOL    HW2  507   0.973   2.969   0.791
  106SOL     OW  508   1.468   0.604   0.980
  106SOL    HW1  509   1.416   0.524   0.983
  106SOL    HW2  510   1.527   0.597   1.056
  107SOL     OW  511   1.844   0.815   0.384
  107SOL    HW1  512   1.902   0.760   0.437
  107SOL    HW2  513   1.819   0.760   0.310
  108SOL     OW  514   0.490   1.408   0.151
  108SOL    HW1  515   0.427   1.375   0.215
  108SOL    HW2  516   0.439   1.417   0.070
  109SOL     OW  517   1.670   1.260   0.652
  109SOL    HW1  518   1.764   1.274   0.663
  109SOL    HW2  519   1.631   1.345   0.673
  110SOL     OW  520   1.415   0.574   0.097
  110SOL    HW1  521   1.344   0.568   0.162
  110SOL    HW2  522   1.457   0.488   0.101
  111SOL     OW  523   0.526   0.261   0.324
  111SOL    HW1  524   0.570   0.214   0.253
  111SOL    HW2  525   0.499   0.344   0.285
  112SOL     OW  526   0.898   0.111   1.383
  112SOL    HW1  527   0.939   0.093   1.299
  112SOL    HW2  528   0.961   0.165   1.430
  113SOL     OW  529   0.704   1.064   0.379
  113SOL    HW1  530   0.689   1.049   0.472
  113SOL    HW2  531   0.785   1.016   0.360
  114SOL     OW  532   0.421   0.813   1.246
  114SOL    HW1  533   0.488   0.823   1.313
  114SOL    HW2  534   0.383   0.727   1.263
  115SOL     OW  535   1.272   0.388   1.263
  115SOL    HW1  536   1.299   0.462   1.318
  115SOL    HW2  537   1.178   0.400   1.250
  116SOL     OW  538   0.074   1.570   1.320
  116SOL    HW1  539   2.988   1.609   1.333
  116SOL    HW2  540   0.135   1.634   1.357
  117SOL     OW  541   0.359   1.111   0.488
  117SOL    HW1  542   0.344   1.186   0.429
  117SOL    HW2  543   0.352   1.034   0.431
  118SOL     OW  544   0.550   0.539   0.860
  118SOL    HW1  545   0.568   0.595   0.784
  118SOL    HW2  546   0.615   0.565   0.925
  119SOL     OW  547   1.247   1.346   0.397
  119SOL    HW1  548   1.302   1.419   0.425
  119SOL    HW2  549   1.160   1.369   0.428
  120SOL     OW  550   1.584   0.624   0.480
  120SOL    HW1  551   1.535   0.680   0.540
  120SOL    HW2  552   1.629   0.686   0.422
  121SOL     OW  553   0.414   0.737   1.600
  121SOL    HW1  554   0.469   0.788   1.541
  121SOL    HW2  555   0.464   0.658   1.618
  122SOL     OW  556   1.598   0.777   1.683
  122SOL    HW1  557   1.508   0.808   1.680
  122SOL    HW2  558   1.637   0.808   1.601
  123SOL     OW  559   1.008   0.113   1.761
  123SOL    HW1  560   1.051   0.195   1.739
  123SOL    HW2  561   1.023   0.056   1.686
  124SOL     OW  562   0.504   0.049   1.750
  124SOL    HW1  563   0.471   2.990   1.683
  124SOL    HW2  564   0.437   0.117   1.757
  125SOL     OW  565   0.586   0.866   1.028
  125SOL    HW1  566   0.611   0.958   1.019
  125SOL    HW2  567   0.527   0.864   1.104
  126SOL     OW  568   1.369   0.867   1.023
  126SOL    HW1  569   1.282   0.858   0.983
  126SOL    HW2  570   1.402   0.778   1.030
  127SOL     OW  571   1.205   0.530   0.270
  127SOL    HW1  572   1.214   0.450   0.322
  127SOL    HW2  573   1.161   0.592   0.328
  128SOL     OW  574   0.326   0.207   1.250
  128SOL    HW1  575   0.292   0.253   1.326
  128SOL    HW2  576   0.274   0.126   1.246
  129SOL     OW  577   0.040   1.298   1.286
  129SOL    HW1  578   0.090   1.268   1.363
  129SOL    HW2  579   0.042   1.394   1.294
  130SOL     OW  580   0.722   0.625   1.055
  130SOL    HW1  581   0.798   0.613   0.999
  130SOL    HW2  582   0.695   0.716   1.040
  131SOL     OW  583   1.741   0.944   1.861
  131SOL    HW1  584   1.687   0.887   1.806
  131SOL    HW2  585   1.685   0.968   1.934
  132SOL     OW  586   0.309   0.073   0.642
  132SOL    HW1  587   0.304   0.158   0.686
  132SOL    HW2  588   0.282   0.010   0.710
  133SOL     OW  589   1.617   0.375   0.366
  133SOL    HW1  590   1.647   0.310   0.430
  133SOL    HW2  591   1.592   0.451   0.418
  134SOL     OW  592   1.025   0.757   0.972
  134SOL    HW1  593   1.038   0.761   1.067
  134SOL    HW2  594   0.998   0.667   0.956
  135SOL     OW  595   0.345   0.901   1.812
  135SOL    HW1  596   0.424   0.945   1.845
  135SOL    HW2  597   0.378   0.842   1.744
  136SOL     OW  598   1.497   0.305   0.125
  136SOL    HW1  599   1.460   0.217   0.140
  136SOL    HW2  600   1.555   0.319   0.200
  137SOL     OW  601   1.292   0.822   0.033
  137SOL    HW1  602   1.335   0.737   0.048
  137SOL    HW2  603   1.322   0.850   2.947
  138SOL     OW  604   0.310   0.805   0.948
  138SOL    HW1  605   0.403   0.825   0.940
  138SOL    HW2  606   0.308   0.717   0.986
  139SOL     OW  607   0.333   0.515   1.017
  139SOL    HW1  608   0.293   0.431   0.993
  139SOL    HW2  609   0.407   0.524   0.957
  140SOL     OW  610   1.142   0.378   1.706
  140SOL    HW1  611   1.095   0.434   1.767
  140SOL    HW2  612   1.226   0.423   1.692
  141SOL     OW  613   1.097   0.252   1.476
  141SOL    HW1  614   1.117   0.307   1.552
  141SOL    HW2  615   1.182   0.237   1.435
  142SOL     OW  616   0.010   1.314   0.169
  142SOL    HW1  617   2.918   1.330   0.149
  142SOL    HW2  618   0.009   1.242   0.232
  143SOL     OW  619   0.096   1.820   0.964
  143SOL    HW1  620   0.039   1.755   0.923
  143SOL    HW2  621   0.180   1.811   0.918
  144SOL     OW  622   0.476   1.568   0.882
  144SOL    HW1  623   0.540   1.590   0.950
  144SOL    HW2  624   0.521   1.503   0.827
  145SOL     OW  625   0.042   0.557   1.108
  145SOL    HW1  626   0.132   0.541   1.082
  145SOL    HW2  627   0.042   0.544   1.203
  146SOL     OW  628   0.190   0.519   1.720
  146SOL    HW1  629   0.266   0.493   1.667
  146SOL    HW2  630   0.160   0.600   1.680
  147SOL     OW  631   1.354   0.905   1.658
  147SOL    HW1  632   1.338   0.996   1.680
  147SOL    HW2  633   1.360   0.903   1.562
  148SOL     OW  634   0.819   0.578   0.349
  148SOL    HW1  635   0.822   0.498   0.296
  148SOL    HW2  636   0.738   0.622   0.323
  149SOL     OW  637   1.646   0.606   1.192
  149SOL    HW1  638   1.626   0.541   1.259
  149SOL    HW2  639   1.730   0.578   1.156
  150SOL     OW  640   0.192   1.551   1.796
  150SOL    HW1  641   0.131   1.578   1.865
  150SOL    HW2  642   0.162   1.464   1.771
  151SOL     OW  643   0.700   0.455   1.264
  151SOL    HW1  644   0.652   0.379   1.230
  151SOL    HW2  645   0.699   0.518   1.191
  152SOL     OW  646   0.452   0.495   0.200
  152SOL    HW1  647   0.511   0.567   0.223
  152SOL    HW2  648   0.367   0.537   0.186
  153SOL     OW  649   0.194   1.152   1.474
  153SOL    HW1  650   0.161   1.104   1.550
  153SOL    HW2  651   0.190   1.089   1.402
  154SOL     OW  652   1.309   0.849   0.312
  154SOL    HW1  653   1.232   0.821   0.361
  154SOL    HW2  654   1.283   0.839   0.220
  155SOL     OW  655   0.086   1.242   1.027
  155SOL    HW1  656   0.070   1.256   1.121
  155SOL    HW2  657   0.007   1.275   0.984
  156SOL     OW  658   0.875   0.080   0.147
  156SOL    HW1  659   0.939   0.066   0.077
  156SOL    HW2  660   0.906   0.025   0.219
  157SOL     OW  661   1.713   0.142   0.505
  157SOL    HW1  662   1.783   0.143   0.440
  157SOL    HW2  663   1.730   0.062   0.556
  158SOL     OW  664   1.390   1.567   0.475
  158SOL    HW1  665   1.451   1.608   0.414
  158SOL    HW2  666   1.344   1.641   0.516
  159SOL     OW  667   0.106   1.830   1.855
  159SOL    HW1  668   0.076   1.750   1.898
  159SOL    HW2  669   0.175   1.863   1.913
  160SOL     OW  670   1.273   0.911   0.651
  160SOL    HW1  671   1.350   0.856   0.666
  160SOL    HW2  672   1.307   0.987   0.604
  161SOL     OW  673   0.671   1.610   0.161
  161SOL    HW1  674   0.671   1.629   0.067
  161SOL    HW2  675   0.617   1.531   0.169
  162SOL     OW  676   1.849   0.154   0.967
  162SOL    HW1  677   1.853   0.072   0.919
  162SOL    HW2  678   1.768   0.195   0.938
  163SOL     OW  679   0.266   0.332   0.741
  163SOL    HW1  680   0.176   0.361   0.728
  163SOL    HW2  681   0.269   0.302   0.832
  164SOL     OW  682   1.207   1.601   0.034
  164SOL    HW1  683   1.199   1.511   0.066
  164SOL    HW2  684   1.157   1.602   2.952
  165SOL     OW  685   0.921   0.927   0.304
  165SOL    HW1  686   0.987   0.967   0.246
  165SOL    HW2  687   0.970   0.864   0.356
  166SOL     OW  688   1.487   1.600   0.049
  166SOL    HW1  689   1.391   1.608   0.054
  166SOL    HW2  690   1.510   1.644   2.967
  167SOL     OW  691   1.028   1.089   0.667
  167SOL    HW1  692   0.964   1.044   0.722
  167SOL    HW2  693   1.086   1.019   0.637
  168SOL     OW  694   1.021   0.244   0.963
  168SOL    HW1  695   1.012   0.192   0.884
  168SOL    HW2  696   1.023   0.180   1.034
  169SOL     OW  697   0.602   1.491   0.481
  169SOL    HW1  698   0.641   1.442   0.409
  169SOL    HW2  699   0.535   1.544   0.440
  170SOL     OW  700   1.719   0.388   1.377
  170SOL    HW1  701   1.793   0.448   1.375
  170SOL    HW2  702   1.745   0.316   1.319
  171SOL     OW  703   0.268   1.331   0.292
  171SOL    HW1  704   0.179   1.336   0.257
  171SOL    HW2  705   0.263   1.378   0.376
  172SOL     OW  706   0.122   1.001   1.696
  172SOL    HW1  707   0.049   0.980   1.754
  172SOL    HW2  708   0.200   0.974   1.745
  173SOL     OW  709   0.662   0.210   1.492
  173SOL    HW1  710   0.744   0.180   1.453
  173SOL    HW2  711   0.684   0.227   1.583
  174SOL     OW  712   0.068   0.309   0.053
  174SOL    HW1  713   2.977   0.329   0.031
  174SOL    HW2  714   0.115   0.390   0.033
  175SOL     OW  715   1.427   0.869   1.395
  175SOL    HW1  716   1.358   0.903   1.338
  175SOL    HW2  717   1.507   0.876   1.342
  176SOL     OW  718   0.036   0.179   0.289
  176SOL    HW1  719   0.038   0.234   0.211
  176SOL    HW2  720   0.127   0.150   0.300
  177SOL     OW  721   1.183   1.346   0.126
  177SOL    HW1  722   1.088   1.336   0.115
  177SOL    HW2  723   1.197   1.338   0.220
  178SOL     OW  724   0.616   0.839   1.432
  178SOL    HW1  725   0.672   0.916   1.440
  178SOL    HW2  726   0.676   0.764   1.437
  179SOL     OW  727   1.528   1.740   0.871
  179SOL    HW1  728   1.532   1.835   0.876
  179SOL    HW2  729   1.475   1.714   0.946
  180SOL     OW  730   0.712   0.566   1.710
  180SOL    HW1  731   0.755   0.634   1.761
  180SOL    HW2  732   0.756   0.485   1.736
  181SOL     OW  733   1.660   0.876   1.245
  181SOL    HW1  734   1.654   0.784   1.220
  181SOL    HW2  735   1.669   0.923   1.162
  182SOL     OW  736   1.226   0.318   0.455
  182SOL    HW1  737   1.287   0.243   0.454
  182SOL    HW2  738   1.250   0.368   0.533
  183SOL     OW  739   0.592   0.739   0.666
  183SOL    HW1  740   0.630   0.826   0.655
  183SOL    HW2  741   0.522   0.734   0.602
  184SOL     OW  742   1.764   0.363   1.644
  184SOL    HW1  743   1.742   0.377   1.552
  184SOL    HW2  744   1.686   0.322   1.681
  185SOL     OW  745   1.774   0.887   1.488
  185SOL    HW1  746   1.766   0.979   1.515
  185SOL    HW2  747   1.734   0.884   1.401
  186SOL     OW  748   0.908   1.382   0.061
  186SOL    HW1  749   0.840   1.381   0.129
  186SOL    HW2  750   0.863   1.415   2.983
  187SOL     OW  751   0.873   0.956   0.847
  187SOL    HW1  752   0.920   0.887   0.893
  187SOL    HW2  753   0.829   1.005   0.917
  188SOL     OW  754   1.098   1.015   0.103
  188SOL    HW1  755   1.067   1.059   0.024
  188SOL    HW2  756   1.166   0.955   0.072
  189SOL     OW  757   1.860   1.580   0.856
  189SOL    HW1  758   1.780   1.571   0.803
  189SOL    HW2  759   1.872   1.494   0.897
  190SOL     OW  760   0.242   1.281   1.872
  190SOL    HW1  761   0.173   1.273   1.806
  190SOL    HW2  762   0.196   1.284   1.955
  191SOL     OW  763   0.131   1.249   0.662
  191SOL    HW1  764   0.081   1.186   0.714
  191SOL    HW2  765   0.179   1.196   0.599
  192SOL     OW  766   1.802   0.176   1.236
  192SOL    HW1  767   1.842   0.096   1.269
  192SOL    HW2  768   1.824   0.177   1.143
  193SOL     OW  769   0.463   0.431   0.548
  193SOL    HW1  770   0.453   0.369   0.477
  193SOL    HW2  771   0.405   0.399   0.617
  194SOL     OW  772   0.333   0.555   1.291
  194SOL    HW1  773   0.390   0.502   1.346
  194SOL    HW2  774   0.352   0.526   1.202
  195SOL     OW  775   0.821   1.572   0.683
  195SOL    HW1  776   0.816   1.627   0.605
  195SOL    HW2  777   0.741   1.520   0.681
  196SOL     OW  778   1.429   0.216   1.130
  196SOL    HW1  779   1.442   0.141   1.189
  196SOL    HW2  780   1.379   0.279   1.183
  197SOL     OW  781   1.013   0.025   1.145
  197SOL    HW1  782   0.930   0.000   1.106
  197SOL    HW2  783   1.071   2.950   1.129
  198SOL     OW  784   0.769   1.328   0.311
  198SOL    HW1  785   0.737   1.240   0.331
  198SOL    HW2  786   0.850   1.336   0.361
  199SOL     OW  787   1.360   0.057   0.169
  199SOL    HW1  788   1.415   2.981   0.153
  199SOL    HW2  789   1.271   0.027   0.149
  200SOL     OW  790   1.298   0.460   0.681
  200SOL    HW1  791   1.241   0.537   0.688
  200SOL    HW2  792   1.294   0.420   0.767
  201SOL     OW  793   1.605   0.231   0.889
  201SOL    HW1  794   1.526   0.231   0.942
  201SOL    HW2  795   1.595   0.307   0.831
  202SOL     OW  796   0.074   1.092   0.339
  202SOL    HW1  797   0.151   1.047   0.305
  202SOL    HW2  798   0.005   1.025   0.340
  203SOL     OW  799   0.884   1.654   0.343
  203SOL    HW1  800   0.812   1.632   0.284
  203SOL    HW2  801   0.851   1.726   0.396
  204SOL     OW  802   0.243   0.642   1.978
  204SOL    HW1  803   0.172   0.606   2.030
  204SOL    HW2  804   0.226   0.611   1.889
  205SOL     OW  805   0.237   0.250   2.850
  205SOL    HW1  806   0.252   0.229   2.943
  205SOL    HW2  807   0.143   0.240   2.839
  206SOL     OW  808   0.007   0.390   2.525
  206SOL    HW1  809   2.921   0.426   2.546
  206SOL    HW2  810   2.989   0.316   2.466
  207SOL     OW  811   1.559   1.508   2.569
  207SOL    HW1  812   1.512   1.490   2.650
  207SOL    HW2  813   1.491   1.516   2.502
  208SOL     OW  814   1.134   0.696   2.564
  208SOL    HW1  815   1.183   0.777   2.549
  208SOL    HW2  816   1.085   0.713   2.644
  209SOL     OW  817   1.775   0.601   2.089
  209SOL    HW1  818   1.751   0.596   1.997
  209SOL    HW2  819   1.730   0.527   2.130
  210SOL     OW  820   0.747   1.144   2.897
  210SOL    HW1  821   0.685   1.191   2.952
  210SOL    HW2  822   0.801   1.213   2.858
  211SOL     OW  823   0.683   1.010   2.511
  211SOL    HW1  824   0.749   0.993   2.579
  211SOL    HW2  825   0.613   1.055   2.557
  212SOL     OW  826   0.332   1.450   2.932
  212SOL    HW1  827   0.278   1.386   2.886
  212SOL    HW2  828   0.385   1.491   2.863
  213SOL     OW  829   1.615   0.458   2.595
  213SOL    HW1  830   1.541   0.478   2.538
  213SOL    HW2  831   1.608   0.520   2.667
  214SOL     OW  832   0.229   1.711   2.348
  214SOL    HW1  833   0.244   1.791   2.398
  214SOL    HW2  834   0.240   1.737   2.256
  215SOL     OW  835   0.264   1.447   2.402
  215SOL    HW1  836   0.227   1.535   2.395
  215SOL    HW2  837   0.199   1.397   2.450
  216SOL     OW  838   0.244   1.085   2.752
  216SOL    HW1  839   0.260   1.002   2.796
  216SOL    HW2  840   0.195   1.137   2.815
  217SOL     OW  841   0.577   0.984   1.996
  217SOL    HW1  842   0.626   1.028   1.927
  217SOL    HW2  843   0.623   1.008   2.077
  218SOL     OW  844   0.128   0.624   2.434
  218SOL    HW1  845   0.088   0.548   2.476
  218SOL    HW2  846   0.123   0.693   2.501
  219SOL     OW  847   1.847   1.766   2.204
  219SOL    HW1  848   1.917   1.732   2.259
  219SOL    HW2  849   1.876   1.854   2.179
  220SOL     OW  850   0.056   1.605   2.017
  220SOL    HW1  851   0.018   1.518   2.006
  220SOL    HW2  852   2.992   1.654   2.069
  221SOL     OW  853   1.688   0.916   2.500
  221SOL    HW1  854   1.773   0.879   2.479
  221SOL    HW2  855   1.665   0.968   2.422
  222SOL     OW  856   1.647   1.106   2.292
  222SOL    HW1  857   1.726   1.127   2.243
  222SOL    HW2  858   1.649   1.166   2.367
  223SOL     OW  859   0.608   1.383   2.576
  223SOL    HW1  860   0.575   1.296   2.599
  223SOL    HW2  861   0.539   1.421   2.522
  224SOL     OW  862   0.821   0.014   2.379
  224SOL    HW1  863   0.855   0.099   2.352
  224SOL    HW2  864   0.727   0.018   2.359
  225SOL     OW  865   1.542   0.980   2.060
  225SOL    HW1  866   1.464   0.929   2.084
  225SOL    HW2  867   1.569   1.023   2.141
  226SOL     OW  868   1.430   1.421   2.797
  226SOL    HW1  869   1.419   1.422   2.893
  226SOL    HW2  870   1.436   1.328   2.775
  227SOL     OW  871   1.659   1.742   2.456
  227SOL    HW1  872   1.641   1.718   2.366
  227SOL    HW2  873   1.635   1.665   2.507
  228SOL     OW  874   0.598   0.721   2.126
  228SOL    HW1  875   0.605   0.802   2.076
  228SOL    HW2  876   0.533   0.741   2.194
  229SOL     OW  877   1.295   0.338   2.811
  229SOL    HW1  878   1.201   0.326   2.800
  229SOL    HW2  879   1.314   0.302   2.897
  230SOL     OW  880   1.596   1.679   2.198
  230SOL    HW1  881   1.687   1.711   2.192
  230SOL    HW2  882   1.580   1.638   2.113
  231SOL     OW  883   1.054   0.696   2.289
  231SOL    HW1  884   1.068   0.690   2.383
  231SOL    HW2  885   0.969   0.655   2.274
  232SOL     OW  886   0.106   0.816   2.623
  232SOL    HW1  887   0.183   0.815   2.679
  232SOL    HW2  888   0.045   0.874   2.667
  233SOL     OW  889   0.872   0.354   2.041
  233SOL    HW1  890   0.926   0.419   1.996
  233SOL    HW2  891   0.923   0.273   2.036
  234SOL     OW  892   1.383   1.137   2.410
  234SOL    HW1  893   1.456   1.123   2.349
  234SOL    HW2  894   1.329   1.203   2.367
  235SOL     OW  895   0.562   0.202   2.843
  235SOL    HW1  896   0.503   0.274   2.865
  235SOL    HW2  897   0.584   0.216   2.751
  236SOL     OW  898   1.030   1.456   2.356
  236SOL    HW1  899   0.980   1.509   2.294
  236SOL    HW2  900   0.993   1.478   2.441
  237SOL     OW  901   0.354   1.803   2.714
  237SOL    HW1  902   0.400   1.720   2.728
  237SOL    HW2  903   0.414   1.870   2.745
  238SOL     OW  904   1.807   1.054   2.718
  238SOL    HW1  905   1.746   1.039   2.646
  238SOL    HW2  906   1.751   1.059   2.796
  239SOL     OW  907   0.314   0.947   2.107
  239SOL    HW1  908   0.398   0.972   2.068
  239SOL    HW2  909   0.293   0.863   2.066
  240SOL     OW  910   1.477   0.743   2.585
  240SOL    HW1  911   1.475   0.694   2.668
  240SOL    HW2  912   1.557   0.796   2.591
  241SOL     OW  913   1.108   1.782   2.107
  241SOL    HW1  914   1.045   1.740   2.166
  241SOL    HW2  915   1.112   1.723   2.031
  242SOL     OW  916   0.503   1.767   2.172
  242SOL    HW1  917   0.510   1.801   2.261
  242SOL    HW2  918   0.564   1.821   2.121
  243SOL     OW  919   1.410   0.113   2.296
  243SOL    HW1  920   1.394   0.079   2.208
  243SOL    HW2  921   1.504   0.126   2.301
  244SOL     OW  922   0.266   1.797   0.096
  244SOL    HW1  923   0.300   1.730   0.156
  244SOL    HW2  924   0.197   1.753   0.048
  245SOL     OW  925   0.944   1.692   2.756
  245SOL    HW1  926   1.026   1.642   2.755
  245SOL    HW2  927   0.889   1.647   2.691
  246SOL     OW  928   0.394   0.693   2.339
  246SOL    HW1  929   0.426   0.604   2.353
  246SOL    HW2  930   0.301   0.689   2.360
  247SOL     OW  931   0.626   0.113   1.977
  247SOL    HW1  932   0.719   0.093   1.965
  247SOL    HW2  933   0.588   0.101   1.891
  248SOL     OW  934   0.801   1.397   2.788
  248SOL    HW1  935   0.891   1.391   2.757
  248SOL    HW2  936   0.748   1.389   2.709
  249SOL     OW  937   0.920   0.520   2.758
  249SOL    HW1  938   0.901   0.500   2.666
  249SOL    HW2  939   0.951   0.437   2.794
  250SOL     OW  940   0.546   0.061   2.370
  250SOL    HW1  941   0.458   0.044   2.403
  250SOL    HW2  942   0.533   0.129   2.303
  251SOL     OW  943   1.439   1.230   1.950
  251SOL    HW1  944   1.444   1.139   1.978
  251SOL    HW2  945   1.345   1.245   1.935
  252SOL     OW  946   0.287   0.033   2.056
  252SOL    HW1  947   0.338   0.108   2.023
  252SOL    HW2  948   0.353   2.971   2.086
  253SOL     OW  949   0.939   0.256   2.321
  253SOL    HW1  950   0.912   0.302   2.242
  253SOL    HW2  951   1.034   0.267   2.323
  254SOL     OW  952   1.216   1.589   2.676
  254SOL    HW1  953   1.241   1.643   2.601
  254SOL    HW2  954   1.299   1.564   2.717
  255SOL     OW  955   0.462   1.151   2.600
  255SOL    HW1  956   0.391   1.132   2.661
  255SOL    HW2  957   0.425   1.133   2.514
  256SOL     OW  958   1.269   1.794   2.469
  256SOL    HW1  959   1.318   1.857   2.415
  256SOL    HW2  960   1.204   1.848   2.515
  257SOL     OW  961   1.023   0.548   1.888
  257SOL    HW1  962   0.982   0.632   1.866
  257SOL    HW2  963   1.088   0.570   1.955
  258SOL     OW  964   0.869   0.466   2.497
  258SOL    HW1  965   0.826   0.516   2.428
  258SOL    HW2  966   0.888   0.381   2.457
  259SOL     OW  967   0.997   0.050   2.622
  259SOL    HW1  968   0.964   0.059   2.533
  259SOL    HW2  969   0.973   2.961   2.649
  260SOL     OW  970   1.439   1.158   2.709
  260SOL    HW1  971   1.362   1.102   2.703
  260SOL    HW2  972   1.466   1.172   2.619
  261SOL     OW  973   1.487   0.584   2.818
  261SOL    HW1  974   1.422   0.514   2.821
  261SOL    HW2  975   1.504   0.605   2.910
  262SOL     OW  976   1.848   0.811   2.246
  262SOL    HW1  977   1.902   0.758   2.305
  262SOL    HW2  978   1.818   0.749   2.179
  263SOL     OW  979   1.671   1.264   2.508
  263SOL    HW1  980   1.765   1.269   2.522
  263SOL    HW2  981   1.638   1.351   2.529
  264SOL     OW  982   1.396   0.562   1.934
  264SOL    HW1  983   1.328   0.553   2.001
  264SOL    HW2  984   1.475   0.527   1.975
  265SOL     OW  985   0.524   0.262   2.183
  265SOL    HW1  986   0.566   0.211   2.113
  265SOL    HW2  987   0.504   0.346   2.142
  266SOL     OW  988   1.650   1.108   2.930
  266SOL    HW1  989   1.648   1.173   2.999
  266SOL    HW2  990   1.564   1.114   2.888
  267SOL     OW  991   0.692   1.036   2.235
  267SOL    HW1  992   0.691   1.034   2.330
  267SOL    HW2  993   0.775   0.996   2.211
  268SOL     OW  994   0.353   1.115   2.346
  268SOL    HW1  995   0.313   1.160   2.272
  268SOL    HW2  996   0.368   1.026   2.314
  269SOL     OW  997   0.542   0.547   2.731
  269SOL    HW1  998   0.563   0.596   2.652
  269SOL    HW2  999   0.615   0.564   2.790
  270SOL     OW 1000   1.259   1.341   2.287
  270SOL    HW1 1001   1.311   1.420   2.302
  270SOL    HW2 1002   1.170   1.367   2.310
  271SOL     OW 1003   1.583   0.628   2.339
  271SOL    HW1 1004   1.534   0.677   2.405
  271SOL    HW2 1005   1.619   0.694   2.280
  272SOL     OW 1006   0.577   0.875   2.880
  272SOL    HW1 1007   0.618   0.957   2.855
  272SOL    HW2 1008   0.558   0.886   2.973
  273SOL     OW 1009   1.209   0.532   2.130
  273SOL    HW1 1010   1.213   0.453   2.183
  273SOL    HW2 1011   1.166   0.596   2.186
  274SOL     OW 1012   0.729   0.640   2.916
  274SOL    HW1 1013   0.799   0.615   2.855
  274SOL    HW2 1014   0.698   0.724   2.883
  275SOL     OW 1015   0.307   0.071   2.504
  275SOL    HW1 1016   0.302   0.156   2.548
  275SOL    HW2 1017   0.280   0.008   2.572
  276SOL     OW 1018   1.611   0.378   2.230
  276SOL    HW1 1019   1.649   0.315   2.292
  276SOL    HW2 1020   1.592   0.455   2.283
  277SOL     OW 1021   1.019   0.763   2.818
  277SOL    HW1 1022   1.022   0.769   2.913
  277SOL    HW2 1023   0.993   0.672   2.801
  278SOL     OW 1024   1.529   0.273   1.997
  278SOL    HW1 1025   1.465   0.208   2.025
  278SOL    HW2 1026   1.563   0.309   2.079
  279SOL     OW 1027   1.301   0.820   1.913
  279SOL    HW1 1028   1.341   0.733   1.904
  279SOL    HW2 1029   1.299   0.855   1.824
  280SOL     OW 1030   1.047   1.352   2.695
  280SOL    HW1 1031   1.059   1.269   2.649
  280SOL    HW2 1032   1.125   1.403   2.674
  281SOL     OW 1033   0.311   0.810   2.810
  281SOL    HW1 1034   0.405   0.829   2.811
  281SOL    HW2 1035   0.304   0.721   2.844
  282SOL     OW 1036   0.316   0.522   2.875
  282SOL    HW1 1037   0.287   0.433   2.853
  282SOL    HW2 1038   0.396   0.534   2.823
  283SOL     OW 1039   0.004   1.321   2.041
  283SOL    HW1 1040   2.918   1.365   2.047
  283SOL    HW2 1041   2.993   1.240   2.090
  284SOL     OW 1042   0.093   1.824   2.811
  284SOL    HW1 1043   0.056   1.744   2.774
  284SOL    HW2 1044   0.184   1.823   2.782
  285SOL     OW 1045   0.506   1.576   2.759
  285SOL    HW1 1046   0.569   1.642   2.787
  285SOL    HW2 1047   0.560   1.506   2.720
  286SOL     OW 1048   0.972   0.747   0.087
  286SOL    HW1 1049   1.026   0.755   0.166
  286SOL    HW2 1050   0.885   0.776   0.114
  287SOL     OW 1051   0.815   0.567   2.220
  287SOL    HW1 1052   0.815   0.495   2.157
  287SOL    HW2 1053   0.743   0.624   2.191
  288SOL     OW 1054   0.695   0.433   0.086
  288SOL    HW1 1055   0.602   0.439   0.106
  288SOL    HW2 1056   0.713   0.509   0.031
  289SOL     OW 1057   0.465   0.493   2.049
  289SOL    HW1 1058   0.528   0.563   2.068
  289SOL    HW2 1059   0.382   0.539   2.036
  290SOL     OW 1060   1.309   0.860   2.177
  290SOL    HW1 1061   1.231   0.827   2.222
  290SOL    HW2 1062   1.290   0.850   2.084
  291SOL     OW 1063   1.740   1.771   2.972
  291SOL    HW1 1064   1.813   1.789   2.913
  291SOL    HW2 1065   1.768   1.696   0.024
  292SOL     OW 1066   0.071   1.246   2.904
  292SOL    HW1 1067   0.046   1.276   2.991
  292SOL    HW2 1068   0.004   1.283   2.846
  293SOL     OW 1069   1.720   0.146   2.364
  293SOL    HW1 1070   1.780   0.141   2.290
  293SOL    HW2 1071   1.735   0.064   2.412
  294SOL     OW 1072   1.392   1.572   2.352
  294SOL    HW1 1073   1.457   1.608   2.291
  294SOL    HW2 1074   1.339   1.647   2.378
  295SOL     OW 1075   1.277   0.924   2.533
  295SOL    HW1 1076   1.350   0.863   2.540
  295SOL    HW2 1077   1.311   0.997   2.481
  296SOL     OW 1078   1.853   0.162   2.813
  296SOL    HW1 1079   1.852   0.075   2.773
  296SOL    HW2 1080   1.767   0.199   2.792
  297SOL     OW 1081   0.270   0.333   2.597
  297SOL    HW1 1082   0.179   0.364   2.589
  297SOL    HW2 1083   0.276   0.302   2.687
  298SOL     OW 1084   0.908   0.904   2.148
  298SOL    HW1 1085   0.949   0.954   2.077
  298SOL    HW2 1086   0.978   0.848   2.182
  299SOL     OW 1087   1.053   1.106   2.577
  299SOL    HW1 1088   0.980   1.052   2.608
  299SOL    HW2 1089   1.113   1.043   2.536
  300SOL     OW 1090   1.023   0.250   2.807
  300SOL    HW1 1091   1.015   0.182   2.740
  300SOL    HW2 1092   1.045   0.203   2.887
  301SOL     OW 1093   0.249   1.347   2.159
  301SOL    HW1 1094   0.157   1.337   2.134
  301SOL    HW2 1095   0.246   1.381   2.249
  302SOL     OW 1096   0.101   0.325   1.910
  302SOL    HW1 1097   0.017   0.296   1.873
  302SOL    HW2 1098   0.115   0.411   1.872
  303SOL     OW 1099   0.010   0.215   2.140
  303SOL    HW1 1100   0.061   0.262   2.073
  303SOL    HW2 1101   0.064   0.139   2.163
  304SOL     OW 1102   1.174   1.352   2.033
  304SOL    HW1 1103   1.115   1.277   2.023
  304SOL    HW2 1104   1.214   1.340   2.120
  305SOL     OW 1105   1.506   1.780   2.832
  305SOL    HW1 1106   1.516   1.834   2.754
  305SOL    HW2 1107   1.589   1.789   2.878
  306SOL     OW 1108   1.713   0.846   0.059
  306SOL    HW1 1109   1.635   0.820   0.108
  306SOL    HW2 1110   1.699   0.939   0.038
  307SOL     OW 1111   1.222   0.318   2.318
  307SOL    HW1 1112   1.283   0.244   2.318
  307SOL    HW2 1113   1.246   0.368   2.396
  308SOL     OW 1114   0.591   0.741   2.531
  308SOL    HW1 1115   0.632   0.825   2.512
  308SOL    HW2 1116   0.522   0.733   2.465
  309SOL     OW 1117   0.662   1.794   2.820
  309SOL    HW1 1118   0.640   1.883   2.792
  309SOL    HW2 1119   0.757   1.787   2.807
  310SOL     OW 1120   0.860   0.964   2.716
  310SOL    HW1 1121   0.913   0.893   2.753
  310SOL    HW2 1122   0.832   1.015   2.792
  311SOL     OW 1123   1.855   1.556   2.712
  311SOL    HW1 1124   1.778   1.544   2.657
  311SOL    HW2 1125   1.861   1.474   2.762
  312SOL     OW 1126   0.132   1.246   2.522
  312SOL    HW1 1127   0.084   1.186   2.579
  312SOL    HW2 1128   0.186   1.189   2.467
  313SOL     OW 1129   1.811   0.185   0.083
  313SOL    HW1 1130   1.833   0.098   0.117
  313SOL    HW2 1131   1.828   0.179   2.989
  314SOL     OW 1132   0.460   0.436   2.404
  314SOL    HW1 1133   0.456   0.370   2.335
  314SOL    HW2 1134   0.412   0.398   2.477
  315SOL     OW 1135   0.818   1.583   2.539
  315SOL    HW1 1136   0.819   1.618   2.450
  315SOL    HW2 1137   0.750   1.516   2.538
  316SOL     OW 1138   1.348   0.047   2.029
  316SOL    HW1 1139   1.414   2.983   2.003
  316SOL    HW2 1140   1.266   2.996   2.032
  317SOL     OW 1141   1.298   0.457   2.547
  317SOL    HW1 1142   1.244   0.535   2.553
  317SOL    HW2 1143   1.293   0.418   2.635
  318SOL     OW 1144   1.598   0.235   2.749
  318SOL    HW1 1145   1.508   0.234   2.781
  318SOL    HW2 1146   1.602   0.309   2.689
  319SOL     OW 1147   0.071   1.077   2.164
  319SOL    HW1 1148   0.154   1.030   2.158
  319SOL    HW2 1149   0.011   1.014   2.203
  320SOL     OW 1150   0.892   1.651   2.218
  320SOL    HW1 1151   0.820   1.604   2.176
  320SOL    HW2 1152   0.850   1.728   2.258
  321SOL     OW 1153   0.240   2.518   0.100
  321SOL    HW1 1154   0.171   2.474   0.150
  321SOL    HW2 1155   0.250   2.465   0.021
  322SOL     OW 1156   0.212   2.134   0.989
  322SOL    HW1 1157   0.241   2.111   1.077
  322SOL    HW2 1158   0.129   2.088   0.977
  323SOL     OW 1159   0.015   2.248   0.646
  323SOL    HW1 1160   2.929   2.285   0.666
  323SOL    HW2 1161   2.997   2.164   0.604
  324SOL     OW 1162   1.134   2.570   0.701
  324SOL    HW1 1163   1.180   2.653   0.693
  324SOL    HW2 1164   1.082   2.578   0.780
  325SOL     OW 1165   1.762   2.452   0.227
  325SOL    HW1 1166   1.745   2.433   0.135
  325SOL    HW2 1167   1.727   2.377   0.274
  326SOL     OW 1168   0.759   0.014   1.032
  326SOL    HW1 1169   0.680   0.049   1.072
  326SOL    HW2 1170   0.778   0.073   0.959
  327SOL     OW 1171   0.862   2.636   1.821
  327SOL    HW1 1172   0.845   2.698   1.892
  327SOL    HW2 1173   0.890   2.690   1.748
  328SOL     OW 1174   0.649   2.853   0.713
  328SOL    HW1 1175   0.744   2.856   0.723
  328SOL    HW2 1176   0.627   2.926   0.656
  329SOL     OW 1177   0.473   2.265   1.475
  329SOL    HW1 1178   0.538   2.213   1.522
  329SOL    HW2 1179   0.389   2.224   1.497
  330SOL     OW 1180   1.611   2.310   0.738
  330SOL    HW1 1181   1.535   2.333   0.685
  330SOL    HW2 1182   1.629   2.389   0.790
  331SOL     OW 1183   0.213   0.321   0.458
  331SOL    HW1 1184   0.214   0.388   0.527
  331SOL    HW2 1185   0.207   0.238   0.506
  332SOL     OW 1186   0.229   2.941   0.876
  332SOL    HW1 1187   0.259   2.861   0.919
  332SOL    HW2 1188   0.208   0.001   0.948
  333SOL     OW 1189   0.617   2.832   0.150
  333SOL    HW1 1190   0.599   2.925   0.133
  333SOL    HW2 1191   0.687   2.834   0.215
  334SOL     OW 1192   0.116   2.496   0.563
  334SOL    HW1 1193   0.095   2.411   0.600
  334SOL    HW2 1194   0.114   2.556   0.638
  335SOL     OW 1195   1.704   2.806   0.623
  335SOL    HW1 1196   1.780   2.750   0.636
  335SOL    HW2 1197   1.696   2.814   0.528
  336SOL     OW 1198   0.130   2.610   1.587
  336SOL    HW1 1199   0.225   2.625   1.590
  336SOL    HW2 1200   0.092   2.695   1.610
  337SOL     OW 1201   0.663   0.244   0.684
  337SOL    HW1 1202   0.598   0.179   0.710
  337SOL    HW2 1203   0.615   0.304   0.627
  338SOL     OW 1204   1.307   0.047   1.451
  338SOL    HW1 1205   1.321   2.991   1.375
  338SOL    HW2 1206   1.390   0.094   1.462
  339SOL     OW 1207   0.814   1.862   0.506
  339SOL    HW1 1208   0.853   1.948   0.491
  339SOL    HW2 1209   0.720   1.879   0.515
  340SOL     OW 1210   0.188   2.835   1.257
  340SOL    HW1 1211   0.272   2.790   1.249
  340SOL    HW2 1212   0.123   2.770   1.230
  341SOL     OW 1213   1.522   2.842   0.208
  341SOL    HW1 1214   1.454   2.797   0.257
  341SOL    HW2 1215   1.592   2.857   0.271
  342SOL     OW 1216   0.337   2.123   1.824
  342SOL    HW1 1217   0.376   2.209   1.841
  342SOL    HW2 1218   0.245   2.133   1.848
  343SOL     OW 1219   0.592   2.582   0.272
  343SOL    HW1 1220   0.593   2.662   0.220
  343SOL    HW2 1221   0.525   2.597   0.338
  344SOL     OW 1222   1.273   2.218   0.926
  344SOL    HW1 1223   1.185   2.181   0.935
  344SOL    HW2 1224   1.326   2.169   0.989
  345SOL     OW 1225   0.791   2.478   1.454
  345SOL    HW1 1226   0.766   2.454   1.543
  345SOL    HW2 1227   0.752   2.410   1.399
  346SOL     OW 1228   1.392   2.335   1.677
  346SOL    HW1 1229   1.397   2.378   1.762
  346SOL    HW2 1230   1.454   2.263   1.683
  347SOL     OW 1231   0.960   2.758   1.594
  347SOL    HW1 1232   1.013   2.689   1.554
  347SOL    HW2 1233   0.907   2.792   1.522
  348SOL     OW 1234   0.992   2.278   1.236
  348SOL    HW1 1235   0.906   2.297   1.274
  348SOL    HW2 1236   0.972   2.236   1.152
  349SOL     OW 1237   1.051   2.568   0.423
  349SOL    HW1 1238   1.064   2.560   0.517
  349SOL    HW2 1239   0.969   2.521   0.406
  350SOL     OW 1240   0.103   2.668   0.769
  350SOL    HW1 1241   0.179   2.676   0.826
  350SOL    HW2 1242   0.048   2.743   0.792
  351SOL     OW 1243   0.930   2.192   0.223
  351SOL    HW1 1244   0.938   2.254   0.150
  351SOL    HW2 1245   0.896   2.112   0.182
  352SOL     OW 1246   1.709   2.437   1.828
  352SOL    HW1 1247   1.670   2.510   1.778
  352SOL    HW2 1248   1.733   2.373   1.761
  353SOL     OW 1249   0.562   2.075   0.914
  353SOL    HW1 1250   0.485   2.106   0.962
  353SOL    HW2 1251   0.572   2.138   0.842
  354SOL     OW 1252   1.796   2.905   0.867
  354SOL    HW1 1253   1.743   2.889   0.789
  354SOL    HW2 1254   1.733   2.913   0.938
  355SOL     OW 1255   1.485   2.602   0.727
  355SOL    HW1 1256   1.464   2.552   0.806
  355SOL    HW2 1257   1.557   2.659   0.754
  356SOL     OW 1258   0.234   2.158   1.514
  356SOL    HW1 1259   0.158   2.205   1.479
  356SOL    HW2 1260   0.198   2.075   1.546
  357SOL     OW 1261   1.404   1.974   0.430
  357SOL    HW1 1262   1.395   1.950   0.337
  357SOL    HW2 1263   1.499   1.976   0.445
  358SOL     OW 1264   0.390   2.555   0.473
  358SOL    HW1 1265   0.412   2.462   0.485
  358SOL    HW2 1266   0.296   2.560   0.493
  359SOL     OW 1267   1.537   2.100   1.727
  359SOL    HW1 1268   1.539   2.111   1.822
  359SOL    HW2 1269   1.479   2.024   1.713
  360SOL     OW 1270   0.628   1.982   0.119
  360SOL    HW1 1271   0.722   1.964   0.117
  360SOL    HW2 1272   0.592   1.934   0.045
  361SOL     OW 1273   1.337   2.452   1.434
  361SOL    HW1 1274   1.370   2.416   1.517
  361SOL    HW2 1275   1.379   2.538   1.427
  362SOL     OW 1276   0.927   2.370   0.902
  362SOL    HW1 1277   0.903   2.363   0.810
  362SOL    HW2 1278   0.959   2.283   0.925
  363SOL     OW 1279   0.549   1.924   0.503
  363SOL    HW1 1280   0.467   1.925   0.552
  363SOL    HW2 1281   0.544   2.001   0.446
  364SOL     OW 1282   0.944   2.106   0.475
  364SOL    HW1 1283   0.922   2.141   0.389
  364SOL    HW2 1284   1.039   2.117   0.482
  365SOL     OW 1285   1.079   2.548   1.458
  365SOL    HW1 1286   1.012   2.480   1.467
  365SOL    HW2 1287   1.161   2.499   1.454
  366SOL     OW 1288   1.053   2.355   0.028
  366SOL    HW1 1289   1.006   2.438   0.024
  366SOL    HW2 1290   1.114   2.367   0.102
  367SOL     OW 1291   0.095   2.405   1.413
  367SOL    HW1 1292   0.172   2.420   1.357
  367SOL    HW2 1293   0.090   2.483   1.468
  368SOL     OW 1294   0.869   2.324   0.639
  368SOL    HW1 1295   0.820   2.376   0.576
  368SOL    HW2 1296   0.891   2.243   0.592
  369SOL     OW 1297   1.012   1.933   0.750
  369SOL    HW1 1298   0.955   1.925   0.673
  369SOL    HW2 1299   1.009   1.846   0.790
  370SOL     OW 1300   1.426   2.990   0.873
  370SOL    HW1 1301   1.361   2.934   0.830
  370SOL    HW2 1302   1.447   0.056   0.808
  371SOL     OW 1303   1.467   2.466   0.978
  371SOL    HW1 1304   1.418   2.384   0.982
  371SOL    HW2 1305   1.527   2.462   1.052
  372SOL     OW 1306   1.827   2.663   0.390
  372SOL    HW1 1307   1.891   2.617   0.445
  372SOL    HW2 1308   1.813   2.604   0.316
  373SOL     OW 1309   1.414   2.435   0.099
  373SOL    HW1 1310   1.343   2.428   0.162
  373SOL    HW2 1311   1.458   2.350   0.103
  374SOL     OW 1312   0.518   2.125   0.324
  374SOL    HW1 1313   0.558   2.075   0.253
  374SOL    HW2 1314   0.497   2.210   0.285
  375SOL     OW 1315   1.781   0.079   1.587
  375SOL    HW1 1316   1.867   0.039   1.580
  375SOL    HW2 1317   1.794   0.157   1.641
  376SOL     OW 1318   1.622   2.955   1.072
  376SOL    HW1 1319   1.634   0.039   1.115
  376SOL    HW2 1320   1.547   2.968   1.014
  377SOL     OW 1321   0.416   2.682   1.252
  377SOL    HW1 1322   0.485   2.688   1.318
  377SOL    HW2 1323   0.381   2.593   1.262
  378SOL     OW 1324   1.263   2.244   1.273
  378SOL    HW1 1325   1.296   2.319   1.323
  378SOL    HW2 1326   1.172   2.266   1.254
  379SOL     OW 1327   0.555   2.395   0.861
  379SOL    HW1 1328   0.569   2.449   0.783
  379SOL    HW2 1329   0.621   2.427   0.923
  380SOL     OW 1330   1.579   2.485   0.478
  380SOL    HW1 1331   1.538   2.540   0.544
  380SOL    HW2 1332   1.636   2.544   0.429
  381SOL     OW 1333   0.413   2.600   1.604
  381SOL    HW1 1334   0.471   2.647   1.544
  381SOL    HW2 1335   0.459   2.517   1.621
  382SOL     OW 1336   1.598   2.637   1.681
  382SOL    HW1 1337   1.511   2.678   1.674
  382SOL    HW2 1338   1.650   2.680   1.614
  383SOL     OW 1339   1.040   1.997   1.821
  383SOL    HW1 1340   1.067   2.071   1.766
  383SOL    HW2 1341   1.061   1.920   1.769
  384SOL     OW 1342   0.477   1.908   1.763
  384SOL    HW1 1343   0.429   1.853   1.701
  384SOL    HW2 1344   0.422   1.985   1.774
  385SOL     OW 1345   0.596   2.728   1.040
  385SOL    HW1 1346   0.595   2.818   1.007
  385SOL    HW2 1347   0.528   2.727   1.108
  386SOL     OW 1348   1.347   2.712   1.033
  386SOL    HW1 1349   1.279   2.706   0.967
  386SOL    HW2 1350   1.393   2.628   1.029
  387SOL     OW 1351   1.203   2.394   0.270
  387SOL    HW1 1352   1.210   2.310   0.316
  387SOL    HW2 1353   1.157   2.451   0.331
  388SOL     OW 1354   0.296   2.073   1.240
  388SOL    HW1 1355   0.279   2.099   1.331
  388SOL    HW2 1356   0.290   1.978   1.241
  389SOL     OW 1357   0.054   0.170   1.265
  389SOL    HW1 1358   0.081   0.136   1.350
  389SOL    HW2 1359   0.006   0.251   1.285
  390SOL     OW 1360   0.730   2.492   1.064
  390SOL    HW1 1361   0.799   2.477   0.999
  390SOL    HW2 1362   0.697   2.579   1.045
  391SOL     OW 1363   1.735   2.821   1.844
  391SOL    HW1 1364   1.690   2.757   1.789
  391SOL    HW2 1365   1.678   2.832   1.920
  392SOL     OW 1366   0.301   1.938   0.612
  392SOL    HW1 1367   0.283   2.026   0.645
  392SOL    HW2 1368   0.309   1.884   0.691
  393SOL     OW 1369   1.622   2.236   0.367
  393SOL    HW1 1370   1.644   2.169   0.432
  393SOL    HW2 1371   1.593   2.311   0.419
  394SOL     OW 1372   1.028   2.616   0.965
  394SOL    HW1 1373   1.027   2.631   1.059
  394SOL    HW2 1374   1.002   2.524   0.955
  395SOL     OW 1375   0.356   2.786   1.799
  395SOL    HW1 1376   0.419   2.783   1.871
  395SOL    HW2 1377   0.382   2.714   1.742
  396SOL     OW 1378   1.500   2.170   0.126
  396SOL    HW1 1379   1.463   2.083   0.137
  396SOL    HW2 1380   1.556   2.182   0.203
  397SOL     OW 1381   1.295   2.682   0.038
  397SOL    HW1 1382   1.336   2.597   0.050
  397SOL    HW2 1383   1.325   2.712   2.952
  398SOL     OW 1384   0.314   2.678   0.951
  398SOL    HW1 1385   0.407   2.683   0.930
  398SOL    HW2 1386   0.301   2.591   0.989
  399SOL     OW 1387   0.339   2.376   1.018
  399SOL    HW1 1388   0.294   2.296   0.992
  399SOL    HW2 1389   0.411   2.384   0.955
  400SOL     OW 1390   1.130   2.244   1.682
  400SOL    HW1 1391   1.089   2.300   1.747
  400SOL    HW2 1392   1.220   2.276   1.675
  401SOL     OW 1393   1.169   2.064   1.474
  401SOL    HW1 1394   1.149   2.128   1.542
  401SOL    HW2 1395   1.202   2.116   1.401
  402SOL     OW 1396   0.981   2.667   1.231
  402SOL    HW1 1397   1.037   2.639   1.303
  402SOL    HW2 1398   0.899   2.619   1.243
  403SOL     OW 1399   0.051   2.450   1.126
  403SOL    HW1 1400   0.110   2.395   1.075
  403SOL    HW2 1401   0.017   2.392   1.194
  404SOL     OW 1402   0.194   2.383   1.723
  404SOL    HW1 1403   0.254   2.346   1.658
  404SOL    HW2 1404   0.161   2.463   1.682
  405SOL     OW 1405   1.379   2.805   1.661
  405SOL    HW1 1406   1.394   2.900   1.655
  405SOL    HW2 1407   1.372   2.777   1.570
  406SOL     OW 1408   0.820   2.439   0.350
  406SOL    HW1 1409   0.819   2.361   0.294
  406SOL    HW2 1410   0.740   2.486   0.327
  407SOL     OW 1411   1.643   2.465   1.188
  407SOL    HW1 1412   1.633   2.405   1.262
  407SOL    HW2 1413   1.729   2.446   1.152
  408SOL     OW 1414   0.705   2.308   1.260
  408SOL    HW1 1415   0.624   2.260   1.244
  408SOL    HW2 1416   0.707   2.375   1.191
  409SOL     OW 1417   0.442   2.358   0.207
  409SOL    HW1 1418   0.512   2.422   0.224
  409SOL    HW2 1419   0.366   2.411   0.185
  410SOL     OW 1420   0.157   0.010   1.468
  410SOL    HW1 1421   0.145   2.958   1.548
  410SOL    HW2 1422   0.171   2.945   1.399
  411SOL     OW 1423   1.347   2.909   1.219
  411SOL    HW1 1424   1.364   2.845   1.150
  411SOL    HW2 1425   1.277   2.964   1.184
  412SOL     OW 1426   1.299   2.722   0.316
  412SOL    HW1 1427   1.228   2.675   0.359
  412SOL    HW2 1428   1.289   2.700   0.223
  413SOL     OW 1429   0.899   1.936   0.121
  413SOL    HW1 1430   0.959   1.917   0.049
  413SOL    HW2 1431   0.940   1.896   0.197
  414SOL     OW 1432   1.713   2.005   0.513
  414SOL    HW1 1433   1.792   1.996   0.459
  414SOL    HW2 1434   1.700   1.918   0.551
  415SOL     OW 1435   1.295   2.797   0.685
  415SOL    HW1 1436   1.363   2.730   0.682
  415SOL    HW2 1437   1.303   2.843   0.602
  416SOL     OW 1438   1.851   2.024   0.954
  416SOL    HW1 1439   1.866   1.942   0.906
  416SOL    HW2 1440   1.762   2.049   0.930
  417SOL     OW 1441   0.267   2.182   0.724
  417SOL    HW1 1442   0.183   2.217   0.694
  417SOL    HW2 1443   0.253   2.166   0.818
  418SOL     OW 1444   0.815   2.857   1.376
  418SOL    HW1 1445   0.868   2.833   1.301
  418SOL    HW2 1446   0.832   2.950   1.390
  419SOL     OW 1447   0.899   2.794   0.282
  419SOL    HW1 1448   0.981   2.822   0.241
  419SOL    HW2 1449   0.926   2.747   0.361
  420SOL     OW 1450   1.019   2.104   0.964
  420SOL    HW1 1451   1.010   2.061   0.879
  420SOL    HW2 1452   1.021   2.033   1.028
  421SOL     OW 1453   1.726   2.260   1.374
  421SOL    HW1 1454   1.794   2.327   1.383
  421SOL    HW2 1455   1.766   2.192   1.321
  422SOL     OW 1456   0.119   2.866   1.693
  422SOL    HW1 1457   0.050   2.848   1.757
  422SOL    HW2 1458   0.200   2.851   1.741
  423SOL     OW 1459   0.050   2.163   0.056
  423SOL    HW1 1460   2.966   2.203   0.033
  423SOL    HW2 1461   0.116   2.224   0.024
  424SOL     OW 1462   1.434   2.718   1.403
  424SOL    HW1 1463   1.391   2.777   1.341
  424SOL    HW2 1464   1.526   2.718   1.378
  425SOL     OW 1465   0.061   2.064   0.321
  425SOL    HW1 1466   0.049   2.097   0.232
  425SOL    HW2 1467   0.121   1.990   0.311
  426SOL     OW 1468   1.138   0.210   0.090
  426SOL    HW1 1469   1.072   0.259   0.138
  426SOL    HW2 1470   1.217   0.217   0.144
  427SOL     OW 1471   0.614   2.688   1.437
  427SOL    HW1 1472   0.669   2.764   1.421
  427SOL    HW2 1473   0.675   2.615   1.444
  428SOL     OW 1474   0.722   2.423   1.710
  428SOL    HW1 1475   0.748   2.502   1.757
  428SOL    HW2 1476   0.770   2.353   1.754
  429SOL     OW 1477   1.675   2.746   1.253
  429SOL    HW1 1478   1.667   2.658   1.215
  429SOL    HW2 1479   1.657   2.805   1.181
  430SOL     OW 1480   1.220   2.182   0.460
  430SOL    HW1 1481   1.284   2.111   0.448
  430SOL    HW2 1482   1.252   2.231   0.536
  431SOL     OW 1483   0.590   2.587   0.668
  431SOL    HW1 1484   0.612   2.680   0.678
  431SOL    HW2 1485   0.524   2.586   0.599
  432SOL     OW 1486   1.758   2.231   1.647
  432SOL    HW1 1487   1.742   2.241   1.553
  432SOL    HW2 1488   1.690   2.170   1.676
  433SOL     OW 1489   1.733   2.797   1.514
  433SOL    HW1 1490   1.747   2.890   1.531
  433SOL    HW2 1491   1.727   2.790   1.419
  434SOL     OW 1492   0.891   2.831   0.863
  434SOL    HW1 1493   0.929   2.750   0.897
  434SOL    HW2 1494   0.827   2.858   0.928
  435SOL     OW 1495   1.111   2.885   0.086
  435SOL    HW1 1496   1.063   2.887   0.004
  435SOL    HW2 1497   1.173   2.813   0.077
  436SOL     OW 1498   1.884   2.087   1.236
  436SOL    HW1 1499   1.886   1.997   1.266
  436SOL    HW2 1500   1.870   2.080   1.141
  437SOL     OW 1501   0.432   2.296   0.530
  437SOL    HW1 1502   0.460   2.225   0.471
  437SOL    HW2 1503   0.384   2.251   0.599
  438SOL     OW 1504   0.338   2.424   1.288
  438SOL    HW1 1505   0.392   2.363   1.338
  438SOL    HW2 1506   0.343   2.393   1.198
  439SOL     OW 1507   1.429   2.106   1.111
  439SOL    HW1 1508   1.470   2.035   1.160
  439SOL    HW2 1509   1.377   2.154   1.175
  440SOL     OW 1510   1.354   1.916   0.162
  440SOL    HW1 1511   1.381   1.862   0.088
  440SOL    HW2 1512   1.269   1.880   0.188
  441SOL     OW 1513   1.301   2.329   0.681
  441SOL    HW1 1514   1.244   2.405   0.687
  441SOL    HW2 1515   1.293   2.285   0.766
  442SOL     OW 1516   1.593   2.073   0.883
  442SOL    HW1 1517   1.525   2.094   0.947
  442SOL    HW2 1518   1.592   2.146   0.821
  443SOL     OW 1519   2.997   2.880   0.284
  443SOL    HW1 1520   0.078   2.918   0.250
  443SOL    HW2 1521   0.019   2.852   0.373
  444SOL     OW 1522   0.236   2.497   1.975
  444SOL    HW1 1523   0.166   2.457   2.026
  444SOL    HW2 1524   0.221   2.468   1.885
  445SOL     OW 1525   0.234   2.125   2.837
  445SOL    HW1 1526   0.272   2.099   2.921
  445SOL    HW2 1527   0.147   2.085   2.836
  446SOL     OW 1528   0.014   2.248   2.506
  446SOL    HW1 1529   2.930   2.286   2.531
  446SOL    HW2 1530   2.993   2.162   2.470
  447SOL     OW 1531   1.137   2.569   2.563
  447SOL    HW1 1532   1.183   2.653   2.556
  447SOL    HW2 1533   1.085   2.578   2.643
  448SOL     OW 1534   1.760   2.466   2.091
  448SOL    HW1 1535   1.744   2.457   1.997
  448SOL    HW2 1536   1.732   2.382   2.127
  449SOL     OW 1537   0.775   0.011   2.871
  449SOL    HW1 1538   0.685   0.032   2.895
  449SOL    HW2 1539   0.805   0.087   2.822
  450SOL     OW 1540   0.647   2.848   2.572
  450SOL    HW1 1541   0.740   2.847   2.593
  450SOL    HW2 1542   0.635   2.928   2.521
  451SOL     OW 1543   1.617   2.310   2.595
  451SOL    HW1 1544   1.542   2.334   2.540
  451SOL    HW2 1545   1.615   2.374   2.667
  452SOL     OW 1546   0.206   0.316   2.321
  452SOL    HW1 1547   0.224   0.385   2.385
  452SOL    HW2 1548   0.211   0.234   2.371
  453SOL     OW 1549   0.232   2.944   2.743
  453SOL    HW1 1550   0.259   2.858   2.776
  453SOL    HW2 1551   0.216   2.996   2.822
  454SOL     OW 1552   0.605   2.822   1.994
  454SOL    HW1 1553   0.592   2.907   1.952
  454SOL    HW2 1554   0.671   2.838   2.062
  455SOL     OW 1555   0.122   2.495   2.423
  455SOL    HW1 1556   0.097   2.411   2.463
  455SOL    HW2 1557   0.121   2.557   2.496
  456SOL     OW 1558   1.703   2.804   2.484
  456SOL    HW1 1559   1.781   2.751   2.501
  456SOL    HW2 1560   1.699   2.811   2.389
  457SOL     OW 1561   0.617   0.237   2.577
  457SOL    HW1 1562   0.595   0.159   2.526
  457SOL    HW2 1563   0.620   0.308   2.513
  458SOL     OW 1564   0.807   1.864   2.361
  458SOL    HW1 1565   0.852   1.947   2.346
  458SOL    HW2 1566   0.717   1.889   2.381
  459SOL     OW 1567   0.218   2.805   0.105
  459SOL    HW1 1568   0.273   2.727   0.100
  459SOL    HW2 1569   0.129   2.772   0.093
  460SOL     OW 1570   1.537   2.844   2.048
  460SOL    HW1 1571   1.470   2.788   2.088
  460SOL    HW2 1572   1.598   2.863   2.119
  461SOL     OW 1573   0.597   2.577   2.128
  461SOL    HW1 1574   0.599   2.657   2.076
  461SOL    HW2 1575   0.532   2.595   2.197
  462SOL     OW 1576   1.300   2.202   2.811
  462SOL    HW1 1577   1.207   2.183   2.801
  462SOL    HW2 1578   1.322   2.171   2.899
  463SOL     OW 1579   1.053   2.562   2.288
  463SOL    HW1 1580   1.066   2.558   2.383
  463SOL    HW2 1581   0.970   2.517   2.274
  464SOL     OW 1582   0.108   2.671   2.623
  464SOL    HW1 1583   0.183   2.674   2.683
  464SOL    HW2 1584   0.043   2.729   2.663
  465SOL     OW 1585   0.889   2.201   2.048
  465SOL    HW1 1586   0.932   2.270   1.998
  465SOL    HW2 1587   0.924   2.120   2.011
  466SOL     OW 1588   0.550   2.046   2.769
  466SOL    HW1 1589   0.514   2.082   2.850
  466SOL    HW2 1590   0.561   2.122   2.712
  467SOL     OW 1591   1.797   2.908   2.728
  467SOL    HW1 1592   1.740   2.889   2.654
  467SOL    HW2 1593   1.738   2.911   2.804
  468SOL     OW 1594   1.484   2.605   2.585
  468SOL    HW1 1595   1.469   2.550   2.662
  468SOL    HW2 1596   1.561   2.658   2.608
  469SOL     OW 1597   1.407   1.973   2.309
  469SOL    HW1 1598   1.393   1.954   2.216
  469SOL    HW2 1599   1.502   1.979   2.318
  470SOL     OW 1600   0.397   2.555   2.333
  470SOL    HW1 1601   0.412   2.462   2.349
  470SOL    HW2 1602   0.305   2.569   2.354
  471SOL     OW 1603   0.620   1.945   1.992
  471SOL    HW1 1604   0.711   1.966   1.970
  471SOL    HW2 1605   0.577   1.932   1.908
  472SOL     OW 1606   0.923   2.381   2.756
  472SOL    HW1 1607   0.902   2.358   2.665
  472SOL    HW2 1608   0.959   2.301   2.794
  473SOL     OW 1609   0.547   1.935   2.380
  473SOL    HW1 1610   0.464   1.936   2.428
  473SOL    HW2 1611   0.543   2.012   2.323
  474SOL     OW 1612   0.295   1.904   2.048
  474SOL    HW1 1613   0.333   1.980   2.004
  474SOL    HW2 1614   0.368   1.865   2.096
  475SOL     OW 1615   0.938   2.106   2.321
  475SOL    HW1 1616   0.912   2.147   2.239
  475SOL    HW2 1617   1.032   2.120   2.327
  476SOL     OW 1618   1.021   2.405   1.885
  476SOL    HW1 1619   0.979   2.490   1.866
  476SOL    HW2 1620   1.087   2.425   1.951
  477SOL     OW 1621   0.868   2.317   2.498
  477SOL    HW1 1622   0.821   2.374   2.438
  477SOL    HW2 1623   0.888   2.239   2.447
  478SOL     OW 1624   1.013   1.911   2.612
  478SOL    HW1 1625   0.956   1.904   2.535
  478SOL    HW2 1626   0.993   1.833   2.664
  479SOL     OW 1627   1.421   2.993   2.737
  479SOL    HW1 1628   1.354   2.938   2.695
  479SOL    HW2 1629   1.448   0.054   2.668
  480SOL     OW 1630   1.484   2.448   2.817
  480SOL    HW1 1631   1.421   2.376   2.822
  480SOL    HW2 1632   1.505   2.468   2.908
  481SOL     OW 1633   1.834   2.665   2.253
  481SOL    HW1 1634   1.895   2.618   2.309
  481SOL    HW2 1635   1.813   2.604   2.183
  482SOL     OW 1636   1.394   2.435   1.934
  482SOL    HW1 1637   1.335   2.412   2.006
  482SOL    HW2 1638   1.480   2.401   1.962
  483SOL     OW 1639   0.524   2.122   2.183
  483SOL    HW1 1640   0.565   2.071   2.114
  483SOL    HW2 1641   0.505   2.207   2.142
  484SOL     OW 1642   1.624   2.966   2.933
  484SOL    HW1 1643   1.628   0.044   2.988
  484SOL    HW2 1644   1.549   2.980   2.876
  485SOL     OW 1645   0.551   2.392   2.725
  485SOL    HW1 1646   0.566   2.448   2.649
  485SOL    HW2 1647   0.613   2.423   2.791
  486SOL     OW 1648   1.576   2.484   2.337
  486SOL    HW1 1649   1.538   2.540   2.404
  486SOL    HW2 1650   1.633   2.541   2.286
  487SOL     OW 1651   0.576   2.728   2.886
  487SOL    HW1 1652   0.611   2.807   2.845
  487SOL    HW2 1653   0.569   2.750   2.979
  488SOL     OW 1654   1.203   2.390   2.129
  488SOL    HW1 1655   1.214   2.313   2.184
  488SOL    HW2 1656   1.160   2.454   2.187
  489SOL     OW 1657   0.330   2.061   0.076
  489SOL    HW1 1658   0.323   2.101   0.163
  489SOL    HW2 1659   0.309   1.969   0.091
  490SOL     OW 1660   0.726   2.498   2.912
  490SOL    HW1 1661   0.797   2.480   2.849
  490SOL    HW2 1662   0.693   2.584   2.886
  491SOL     OW 1663   0.298   1.932   2.484
  491SOL    HW1 1664   0.280   2.022   2.509
  491SOL    HW2 1665   0.306   1.885   2.567
  492SOL     OW 1666   1.615   2.235   2.229
  492SOL    HW1 1667   1.645   2.171   2.295
  492SOL    HW2 1668   1.592   2.313   2.280
  493SOL     OW 1669   1.025   2.619   2.822
  493SOL    HW1 1670   1.026   2.624   2.918
  493SOL    HW2 1671   0.996   2.531   2.802
  494SOL     OW 1672   1.526   2.135   1.992
  494SOL    HW1 1673   1.459   2.075   2.024
  494SOL    HW2 1674   1.565   2.172   2.071
  495SOL     OW 1675   1.290   2.685   1.894
  495SOL    HW1 1676   1.333   2.600   1.899
  495SOL    HW2 1677   1.324   2.724   1.813
  496SOL     OW 1678   0.312   2.675   2.808
  496SOL    HW1 1679   0.406   2.691   2.814
  496SOL    HW2 1680   0.301   2.586   2.841
  497SOL     OW 1681   0.318   2.387   2.867
  497SOL    HW1 1682   0.287   2.298   2.852
  497SOL    HW2 1683   0.399   2.393   2.816
  498SOL     OW 1684   0.979   2.610   0.089
  498SOL    HW1 1685   1.024   2.603   0.173
  498SOL    HW2 1686   0.891   2.639   0.111
  499SOL     OW 1687   0.818   2.430   2.218
  499SOL    HW1 1688   0.815   2.355   2.158
  499SOL    HW2 1689   0.744   2.484   2.192
  500SOL     OW 1690   0.705   2.309   0.100
  500SOL    HW1 1691   0.616   2.275   0.094
  500SOL    HW2 1692   0.708   2.381   0.036
  501SOL     OW 1693   0.464   2.353   2.046
  501SOL    HW1 1694   0.526   2.421   2.070
  501SOL    HW2 1695   0.380   2.399   2.037
  502SOL     OW 1696   1.304   2.725   2.170
  502SOL    HW1 1697   1.233   2.684   2.218
  502SOL    HW2 1698   1.287   2.704   2.078
  503SOL     OW 1699   1.716   2.007   2.371
  503SOL    HW1 1700   1.789   1.993   2.311
  503SOL    HW2 1701   1.705   1.923   2.416
  504SOL     OW 1702   1.296   2.799   2.545
  504SOL    HW1 1703   1.363   2.731   2.546
  504SOL    HW2 1704   1.306   2.842   2.460
  505SOL     OW 1705   1.840   2.042   2.821
  505SOL    HW1 1706   1.870   1.954   2.798
  505SOL    HW2 1707   1.750   2.046   2.789
  506SOL     OW 1708   0.269   2.182   2.576
  506SOL    HW1 1709   0.183   2.218   2.555
  506SOL    HW2 1710   0.266   2.167   2.670
  507SOL     OW 1711   0.903   2.759   2.107
  507SOL    HW1 1712   0.978   2.810   2.078
  507SOL    HW2 1713   0.933   2.713   2.185
  508SOL     OW 1714   1.038   2.110   2.801
  508SOL    HW1 1715   1.027   2.050   2.728
  508SOL    HW2 1716   1.003   2.062   2.877
  509SOL     OW 1717   0.089   2.177   1.920
  509SOL    HW1 1718   0.013   2.142   1.873
  509SOL    HW2 1719   0.094   2.268   1.891
  510SOL     OW 1720   0.062   2.062   2.174
  510SOL    HW1 1721   0.068   2.109   2.091
  510SOL    HW2 1722   0.131   1.996   2.169
  511SOL     OW 1723   1.119   0.232   2.012
  511SOL    HW1 1724   1.109   0.158   1.951
  511SOL    HW2 1725   1.207   0.223   2.047
  512SOL     OW 1726   1.731   2.712   0.050
  512SOL    HW1 1727   1.661   2.670   0.100
  512SOL    HW2 1728   1.699   2.801   0.033
  513SOL     OW 1729   1.218   2.181   2.321
  513SOL    HW1 1730   1.282   2.111   2.314
  513SOL    HW2 1731   1.245   2.231   2.398
  514SOL     OW 1732   0.594   2.583   2.528
  514SOL    HW1 1733   0.615   2.675   2.541
  514SOL    HW2 1734   0.526   2.583   2.460
  515SOL     OW 1735   0.885   2.823   2.713
  515SOL    HW1 1736   0.930   2.749   2.755
  515SOL    HW2 1737   0.847   2.872   2.785
  516SOL     OW 1738   1.107   2.879   1.954
  516SOL    HW1 1739   1.064   2.905   1.873
  516SOL    HW2 1740   1.162   2.804   1.929
  517SOL     OW 1741   1.821   2.048   0.096
  517SOL    HW1 1742   1.789   1.958   0.097
  517SOL    HW2 1743   1.831   2.069   0.004
  518SOL     OW 1744   0.426   2.295   2.382
  518SOL    HW1 1745   0.458   2.221   2.330
  518SOL    HW2 1746   0.381   2.254   2.456
  519SOL     OW 1747   1.342   1.935   2.051
  519SOL    HW1 1748   1.369   1.876   1.980
  519SOL    HW2 1749   1.254   1.905   2.074
  520SOL     OW 1750   1.296   2.320   2.548
  520SOL    HW1 1751   1.243   2.400   2.557
  520SOL    HW2 1752   1.295   2.281   2.635
  521SOL     OW 1753   1.581   2.073   2.737
  521SOL    HW1 1754   1.497   2.095   2.778
  521SOL    HW2 1755   1.597   2.145   2.676
  522SOL     OW 1756   0.016   2.932   2.156
  522SOL    HW1 1757   0.110   2.926   2.138
  522SOL    HW2 1758   0.004   2.876   2.233
  523SOL     OW 1759   2.093   0.636   0.122
  523SOL    HW1 1760   1.998   0.630   0.136
  523SOL    HW2 1761   2.106   0.607   0.032
  524SOL     OW 1762   2.075   0.290   1.011
  524SOL    HW1 1763   2.110   0.249   1.090
  524SOL    HW2 1764   1.994   0.243   0.994
  525SOL     OW 1765   1.865   0.382   0.642
  525SOL    HW1 1766   1.782   0.408   0.683
  525SOL    HW2 1767   1.841   0.306   0.588
  526SOL     OW 1768   2.606   1.142   1.044
  526SOL    HW1 1769   2.553   1.179   1.115
  526SOL    HW2 1770   2.642   1.219   0.999
  527SOL     OW 1771   2.722   0.774   1.816
  527SOL    HW1 1772   2.720   0.844   1.882
  527SOL    HW2 1773   2.748   0.818   1.735
  528SOL     OW 1774   2.546   1.004   0.649
  528SOL    HW1 1775   2.608   0.991   0.720
  528SOL    HW2 1776   2.477   1.058   0.687
  529SOL     OW 1777   2.547   1.149   1.821
  529SOL    HW1 1778   2.588   1.222   1.869
  529SOL    HW2 1779   2.492   1.192   1.756
  530SOL     OW 1780   2.315   0.401   1.484
  530SOL    HW1 1781   2.390   0.341   1.490
  530SOL    HW2 1782   2.240   0.347   1.507
  531SOL     OW 1783   2.085   1.716   0.475
  531SOL    HW1 1784   2.107   1.791   0.531
  531SOL    HW2 1785   2.161   1.706   0.418
  532SOL     OW 1786   0.025   1.318   1.722
  532SOL    HW1 1787   2.961   1.377   1.762
  532SOL    HW2 1788   2.972   1.248   1.684
  533SOL     OW 1789   2.079   1.443   0.531
  533SOL    HW1 1790   2.073   1.538   0.539
  533SOL    HW2 1791   2.027   1.410   0.604
  534SOL     OW 1792   2.107   1.078   0.876
  534SOL    HW1 1793   2.123   0.994   0.920
  534SOL    HW2 1794   2.064   1.131   0.942
  535SOL     OW 1795   2.452   0.979   0.148
  535SOL    HW1 1796   2.477   1.050   0.090
  535SOL    HW2 1797   2.486   1.004   0.234
  536SOL     OW 1798   1.980   0.645   0.563
  536SOL    HW1 1799   1.937   0.563   0.588
  536SOL    HW2 1800   1.973   0.700   0.641
  537SOL     OW 1801   1.875   1.589   0.119
  537SOL    HW1 1802   1.888   1.499   0.148
  537SOL    HW2 1803   1.877   1.640   0.200
  538SOL     OW 1804   2.481   1.379   0.726
  538SOL    HW1 1805   2.428   1.301   0.738
  538SOL    HW2 1806   2.458   1.411   0.638
  539SOL     OW 1807   2.682   0.017   0.523
  539SOL    HW1 1808   2.711   0.105   0.502
  539SOL    HW2 1809   2.589   0.016   0.503
  540SOL     OW 1810   2.188   0.260   1.796
  540SOL    HW1 1811   2.243   0.328   1.834
  540SOL    HW2 1812   2.103   0.270   1.840
  541SOL     OW 1813   2.452   0.721   0.267
  541SOL    HW1 1814   2.457   0.804   0.221
  541SOL    HW2 1815   2.389   0.737   0.338
  542SOL     OW 1816   2.652   0.627   1.452
  542SOL    HW1 1817   2.628   0.599   1.540
  542SOL    HW2 1818   2.616   0.561   1.394
  543SOL     OW 1819   2.823   0.880   1.574
  543SOL    HW1 1820   2.861   0.800   1.537
  543SOL    HW2 1821   2.779   0.922   1.499
  544SOL     OW 1822   2.845   0.370   1.261
  544SOL    HW1 1823   2.770   0.423   1.287
  544SOL    HW2 1824   2.848   0.377   1.165
  545SOL     OW 1825   2.893   0.717   0.406
  545SOL    HW1 1826   2.932   0.700   0.492
  545SOL    HW2 1827   2.816   0.659   0.403
  546SOL     OW 1828   1.952   0.817   0.777
  546SOL    HW1 1829   2.035   0.809   0.825
  546SOL    HW2 1830   1.914   0.899   0.807
  547SOL     OW 1831   1.954   1.913   1.622
  547SOL    HW1 1832   2.029   1.871   1.663
  547SOL    HW2 1833   1.927   1.853   1.552
  548SOL     OW 1834   2.778   0.344   0.220
  548SOL    HW1 1835   2.757   0.394   0.141
  548SOL    HW2 1836   2.773   0.253   0.192
  549SOL     OW 1837   2.377   0.201   0.912
  549SOL    HW1 1838   2.397   0.216   1.004
  549SOL    HW2 1839   2.405   0.282   0.868
  550SOL     OW 1840   2.851   1.437   0.465
  550SOL    HW1 1841   2.826   1.518   0.422
  550SOL    HW2 1842   2.860   1.461   0.558
  551SOL     OW 1843   2.179   0.952   0.245
  551SOL    HW1 1844   2.262   0.969   0.201
  551SOL    HW2 1845   2.152   0.866   0.213
  552SOL     OW 1846   2.063   0.294   1.504
  552SOL    HW1 1847   1.972   0.322   1.492
  552SOL    HW2 1848   2.056   0.212   1.553
  553SOL     OW 1849   2.328   1.721   0.333
  553SOL    HW1 1850   2.362   1.791   0.389
  553SOL    HW2 1851   2.395   1.709   0.266
  554SOL     OW 1852   2.823   1.693   0.896
  554SOL    HW1 1853   2.839   1.623   0.959
  554SOL    HW2 1854   2.768   1.653   0.830
  555SOL     OW 1855   2.258   0.688   0.475
  555SOL    HW1 1856   2.288   0.600   0.496
  555SOL    HW2 1857   2.165   0.688   0.495
  556SOL     OW 1858   2.478   0.109   0.105
  556SOL    HW1 1859   2.573   0.114   0.117
  556SOL    HW2 1860   2.463   0.154   0.022
  557SOL     OW 1861   2.631   0.278   1.753
  557SOL    HW1 1862   2.703   0.216   1.763
  557SOL    HW2 1863   2.583   0.272   1.836
  558SOL     OW 1864   2.794   1.519   1.161
  558SOL    HW1 1865   2.725   1.484   1.105
  558SOL    HW2 1866   2.760   1.511   1.250
  559SOL     OW 1867   2.658   1.391   0.938
  559SOL    HW1 1868   2.745   1.387   0.897
  559SOL    HW2 1869   2.597   1.397   0.865
  560SOL     OW 1870   2.784   0.503   0.906
  560SOL    HW1 1871   2.758   0.494   0.815
  560SOL    HW2 1872   2.824   0.419   0.928
  561SOL     OW 1873   2.403   0.047   0.498
  561SOL    HW1 1874   2.316   0.037   0.539
  561SOL    HW2 1875   2.395   0.125   0.443
  562SOL     OW 1876   0.322   1.150   0.043
  562SOL    HW1 1877   0.309   1.096   0.122
  562SOL    HW2 1878   0.259   1.221   0.053
  563SOL     OW 1879   2.157   0.092   0.185
  563SOL    HW1 1880   2.242   0.131   0.204
  563SOL    HW2 1881   2.172   2.997   0.190
  564SOL     OW 1882   2.830   0.246   0.466
  564SOL    HW1 1883   2.790   0.298   0.397
  564SOL    HW2 1884   2.906   0.205   0.424
  565SOL     OW 1885   0.092   1.568   0.789
  565SOL    HW1 1886   0.114   1.626   0.717
  565SOL    HW2 1887   0.174   1.556   0.837
  566SOL     OW 1888   2.327   1.147   0.732
  566SOL    HW1 1889   2.257   1.128   0.793
  566SOL    HW2 1890   2.288   1.133   0.645
  567SOL     OW 1891   2.896   0.508   0.024
  567SOL    HW1 1892   2.845   0.589   0.015
  567SOL    HW2 1893   2.942   0.517   0.107
  568SOL     OW 1894   1.936   0.552   1.402
  568SOL    HW1 1895   2.028   0.546   1.375
  568SOL    HW2 1896   1.917   0.645   1.405
  569SOL     OW 1897   2.428   0.214   1.183
  569SOL    HW1 1898   2.466   0.172   1.261
  569SOL    HW2 1899   2.335   0.220   1.202
  570SOL     OW 1900   2.744   0.469   0.636
  570SOL    HW1 1901   2.678   0.520   0.589
  570SOL    HW2 1902   2.732   0.380   0.604
  571SOL     OW 1903   2.860   0.060   0.759
  571SOL    HW1 1904   2.821   0.063   0.672
  571SOL    HW2 1905   2.835   2.974   0.794
  572SOL     OW 1906   2.354   1.401   0.149
  572SOL    HW1 1907   2.289   1.372   0.214
  572SOL    HW2 1908   2.304   1.409   0.068
  573SOL     OW 1909   2.390   0.259   0.321
  573SOL    HW1 1910   2.436   0.214   0.250
  573SOL    HW2 1911   2.362   0.342   0.283
  574SOL     OW 1912   2.777   0.115   1.400
  574SOL    HW1 1913   2.803   0.100   1.309
  574SOL    HW2 1914   2.835   0.184   1.430
  575SOL     OW 1915   2.831   1.103   1.729
  575SOL    HW1 1916   2.737   1.122   1.732
  575SOL    HW2 1917   2.839   1.033   1.664
  576SOL     OW 1918   2.562   1.063   0.380
  576SOL    HW1 1919   2.548   1.048   0.473
  576SOL    HW2 1920   2.647   1.022   0.361
  577SOL     OW 1921   2.278   0.813   1.257
  577SOL    HW1 1922   2.350   0.822   1.320
  577SOL    HW2 1923   2.248   0.723   1.267
  578SOL     OW 1924   2.210   1.110   0.487
  578SOL    HW1 1925   2.212   1.186   0.428
  578SOL    HW2 1926   2.208   1.034   0.429
  579SOL     OW 1927   2.416   0.543   0.864
  579SOL    HW1 1928   2.432   0.596   0.787
  579SOL    HW2 1929   2.484   0.569   0.926
  580SOL     OW 1930   2.302   0.710   1.593
  580SOL    HW1 1931   2.364   0.763   1.543
  580SOL    HW2 1932   2.354   0.635   1.623
  581SOL     OW 1933   2.865   0.120   1.760
  581SOL    HW1 1934   2.903   0.193   1.712
  581SOL    HW2 1935   2.899   0.042   1.716
  582SOL     OW 1936   2.366   0.056   1.749
  582SOL    HW1 1937   2.330   2.982   1.699
  582SOL    HW2 1938   2.295   0.120   1.752
  583SOL     OW 1939   2.441   0.874   1.032
  583SOL    HW1 1940   2.477   0.963   1.027
  583SOL    HW2 1941   2.386   0.875   1.110
  584SOL     OW 1942   0.063   0.530   0.267
  584SOL    HW1 1943   0.088   0.450   0.311
  584SOL    HW2 1944   0.034   0.589   0.337
  585SOL     OW 1945   2.160   0.194   1.254
  585SOL    HW1 1946   2.132   0.237   1.335
  585SOL    HW2 1947   2.140   0.102   1.267
  586SOL     OW 1948   2.590   0.635   1.061
  586SOL    HW1 1949   2.666   0.619   1.005
  586SOL    HW2 1950   2.562   0.723   1.038
  587SOL     OW 1951   2.168   0.064   0.642
  587SOL    HW1 1952   2.171   0.155   0.672
  587SOL    HW2 1953   2.152   0.013   0.722
  588SOL     OW 1954   2.863   0.769   0.974
  588SOL    HW1 1955   2.898   0.775   1.063
  588SOL    HW2 1956   2.873   0.677   0.951
  589SOL     OW 1957   2.904   1.347   0.834
  589SOL    HW1 1958   2.916   1.272   0.776
  589SOL    HW2 1959   2.973   1.408   0.807
  590SOL     OW 1960   2.175   0.808   0.943
  590SOL    HW1 1961   2.268   0.831   0.942
  590SOL    HW2 1962   2.172   0.720   0.981
  591SOL     OW 1963   2.197   0.529   1.019
  591SOL    HW1 1964   2.160   0.442   1.002
  591SOL    HW2 1965   2.271   0.535   0.958
  592SOL     OW 1966   2.964   0.365   1.665
  592SOL    HW1 1967   2.903   0.427   1.706
  592SOL    HW2 1968   0.049   0.408   1.670
  593SOL     OW 1969   1.875   1.317   0.182
  593SOL    HW1 1970   1.783   1.332   0.157
  593SOL    HW2 1971   1.874   1.233   0.228
  594SOL     OW 1972   2.860   0.793   1.260
  594SOL    HW1 1973   2.912   0.724   1.301
  594SOL    HW2 1974   2.773   0.754   1.247
  595SOL     OW 1975   1.897   0.539   1.118
  595SOL    HW1 1976   1.969   0.525   1.056
  595SOL    HW2 1977   1.940   0.537   1.204
  596SOL     OW 1978   2.041   0.546   1.707
  596SOL    HW1 1979   2.110   0.492   1.667
  596SOL    HW2 1980   1.960   0.516   1.665
  597SOL     OW 1981   2.672   0.573   0.352
  597SOL    HW1 1982   2.678   0.493   0.299
  597SOL    HW2 1983   2.591   0.614   0.323
  598SOL     OW 1984   2.558   0.460   1.263
  598SOL    HW1 1985   2.513   0.382   1.231
  598SOL    HW2 1986   2.559   0.519   1.188
  599SOL     OW 1987   2.855   1.708   1.451
  599SOL    HW1 1988   2.797   1.633   1.441
  599SOL    HW2 1989   2.800   1.784   1.433
  600SOL     OW 1990   2.317   0.494   0.199
  600SOL    HW1 1991   2.370   0.570   0.224
  600SOL    HW2 1992   2.230   0.530   0.182
  601SOL     OW 1993   1.957   1.225   1.037
  601SOL    HW1 1994   1.940   1.302   1.090
  601SOL    HW2 1995   1.876   1.212   0.987
  602SOL     OW 1996   2.765   0.085   0.144
  602SOL    HW1 1997   2.795   0.033   0.069
  602SOL    HW2 1998   2.811   0.048   0.219
  603SOL     OW 1999   2.527   1.612   0.161
  603SOL    HW1 2000   2.535   1.630   0.067
  603SOL    HW2 2001   2.476   1.531   0.165
  604SOL     OW 2002   2.137   0.349   0.754
  604SOL    HW1 2003   2.047   0.366   0.727
  604SOL    HW2 2004   2.130   0.316   0.844
  605SOL     OW 2005   2.686   1.022   1.377
  605SOL    HW1 2006   2.736   1.005   1.297
  605SOL    HW2 2007   2.681   1.118   1.382
  606SOL     OW 2008   2.791   0.948   0.307
  606SOL    HW1 2009   2.841   0.961   0.227
  606SOL    HW2 2010   2.827   0.868   0.345
  607SOL     OW 2011   2.920   1.079   0.722
  607SOL    HW1 2012   2.842   1.044   0.765
  607SOL    HW2 2013   2.926   1.030   0.640
  608SOL     OW 2014   2.880   0.239   0.971
  608SOL    HW1 2015   2.877   0.189   0.889
  608SOL    HW2 2016   2.869   0.173   1.039
  609SOL     OW 2017   2.456   1.488   0.476
  609SOL    HW1 2018   2.502   1.441   0.407
  609SOL    HW2 2019   2.399   1.549   0.429
  610SOL     OW 2020   2.134   1.330   0.297
  610SOL    HW1 2021   2.050   1.336   0.252
  610SOL    HW2 2022   2.119   1.376   0.380
  611SOL     OW 2023   2.528   0.212   1.491
  611SOL    HW1 2024   2.610   0.181   1.453
  611SOL    HW2 2025   2.548   0.226   1.583
  612SOL     OW 2026   1.914   0.201   0.333
  612SOL    HW1 2027   1.877   0.230   0.249
  612SOL    HW2 2028   1.998   0.163   0.310
  613SOL     OW 2029   2.485   0.838   1.432
  613SOL    HW1 2030   2.539   0.915   1.416
  613SOL    HW2 2031   2.547   0.766   1.436
  614SOL     OW 2032   2.573   0.564   1.704
  614SOL    HW1 2033   2.613   0.628   1.762
  614SOL    HW2 2034   2.606   0.479   1.734
  615SOL     OW 2035   2.457   0.738   0.666
  615SOL    HW1 2036   2.493   0.827   0.657
  615SOL    HW2 2037   2.387   0.733   0.601
  616SOL     OW 2038   2.766   1.377   0.063
  616SOL    HW1 2039   2.698   1.383   0.131
  616SOL    HW2 2040   2.726   1.418   2.986
  617SOL     OW 2041   2.716   0.965   0.858
  617SOL    HW1 2042   2.764   0.893   0.899
  617SOL    HW2 2043   2.686   1.019   0.932
  618SOL     OW 2044   2.952   1.011   0.077
  618SOL    HW1 2045   2.934   1.063   3.000
  618SOL    HW2 2046   0.016   0.946   0.049
  619SOL     OW 2047   1.949   1.233   0.671
  619SOL    HW1 2048   1.971   1.181   0.748
  619SOL    HW2 2049   2.012   1.205   0.605
  620SOL     OW 2050   2.343   0.432   0.554
  620SOL    HW1 2051   2.325   0.376   0.479
  620SOL    HW2 2052   2.274   0.411   0.617
  621SOL     OW 2053   2.183   0.552   1.295
  621SOL    HW1 2054   2.245   0.503   1.348
  621SOL    HW2 2055   2.206   0.532   1.205
  622SOL     OW 2056   2.683   1.581   0.682
  622SOL    HW1 2057   2.670   1.615   0.593
  622SOL    HW2 2058   2.610   1.521   0.695
  623SOL     OW 2059   2.851   0.016   1.147
  623SOL    HW1 2060   2.824   2.941   1.094
  623SOL    HW2 2061   2.944   0.000   1.166
  624SOL     OW 2062   2.632   1.330   0.312
  624SOL    HW1 2063   2.603   1.242   0.336
  624SOL    HW2 2064   2.710   1.345   0.365
  625SOL     OW 2065   1.902   1.073   0.306
  625SOL    HW1 2066   1.996   1.067   0.288
  625SOL    HW2 2067   1.876   0.984   0.328
  626SOL     OW 2068   2.742   1.654   0.340
  626SOL    HW1 2069   2.668   1.636   0.282
  626SOL    HW2 2070   2.714   1.728   0.394
  627SOL     OW 2071   2.090   0.638   1.981
  627SOL    HW1 2072   2.003   0.625   2.020
  627SOL    HW2 2073   2.081   0.610   1.891
  628SOL     OW 2074   2.090   0.277   2.882
  628SOL    HW1 2075   2.106   0.236   2.967
  628SOL    HW2 2076   2.005   0.242   2.855
  629SOL     OW 2077   1.866   0.383   2.501
  629SOL    HW1 2078   1.786   0.414   2.543
  629SOL    HW2 2079   1.838   0.305   2.452
  630SOL     OW 2080   2.607   1.147   2.897
  630SOL    HW1 2081   2.551   1.195   2.958
  630SOL    HW2 2082   2.657   1.216   2.852
  631SOL     OW 2083   2.544   1.005   2.513
  631SOL    HW1 2084   2.607   0.991   2.584
  631SOL    HW2 2085   2.476   1.059   2.553
  632SOL     OW 2086   2.202   1.431   2.930
  632SOL    HW1 2087   2.124   1.399   2.885
  632SOL    HW2 2088   2.248   1.484   2.864
  633SOL     OW 2089   2.084   1.708   2.335
  633SOL    HW1 2090   2.100   1.784   2.389
  633SOL    HW2 2091   2.159   1.704   2.275
  634SOL     OW 2092   2.086   1.425   2.368
  634SOL    HW1 2093   2.083   1.521   2.373
  634SOL    HW2 2094   2.029   1.395   2.439
  635SOL     OW 2095   2.119   1.093   2.757
  635SOL    HW1 2096   2.110   1.005   2.794
  635SOL    HW2 2097   2.059   1.147   2.809
  636SOL     OW 2098   2.449   0.972   2.003
  636SOL    HW1 2099   2.486   1.025   1.933
  636SOL    HW2 2100   2.490   1.006   2.083
  637SOL     OW 2101   1.981   0.646   2.426
  637SOL    HW1 2102   1.935   0.565   2.449
  637SOL    HW2 2103   1.973   0.702   2.503
  638SOL     OW 2104   2.470   1.384   2.589
  638SOL    HW1 2105   2.422   1.302   2.600
  638SOL    HW2 2106   2.458   1.407   2.497
  639SOL     OW 2107   2.684   0.016   2.384
  639SOL    HW1 2108   2.713   0.103   2.356
  639SOL    HW2 2109   2.590   0.015   2.363
  640SOL     OW 2110   2.459   0.718   2.126
  640SOL    HW1 2111   2.469   0.801   2.078
  640SOL    HW2 2112   2.400   0.739   2.198
  641SOL     OW 2113   2.888   0.710   2.282
  641SOL    HW1 2114   2.922   0.690   2.369
  641SOL    HW2 2115   2.813   0.651   2.271
  642SOL     OW 2116   1.954   0.822   2.633
  642SOL    HW1 2117   2.031   0.813   2.689
  642SOL    HW2 2118   1.906   0.896   2.670
  643SOL     OW 2119   2.740   0.345   2.048
  643SOL    HW1 2120   2.790   0.408   1.996
  643SOL    HW2 2121   2.789   0.263   2.042
  644SOL     OW 2122   2.422   0.206   2.840
  644SOL    HW1 2123   2.356   0.269   2.866
  644SOL    HW2 2124   2.443   0.229   2.749
  645SOL     OW 2125   2.912   1.457   2.353
  645SOL    HW1 2126   2.853   1.501   2.292
  645SOL    HW2 2127   2.868   1.461   2.437
  646SOL     OW 2128   2.217   1.806   2.719
  646SOL    HW1 2129   2.260   1.721   2.731
  646SOL    HW2 2130   2.284   1.870   2.742
  647SOL     OW 2131   2.192   0.942   2.079
  647SOL    HW1 2132   2.284   0.939   2.051
  647SOL    HW2 2133   2.163   0.851   2.074
  648SOL     OW 2134   2.323   1.719   2.198
  648SOL    HW1 2135   2.376   1.784   2.245
  648SOL    HW2 2136   2.377   1.696   2.122
  649SOL     OW 2137   2.128   1.800   0.103
  649SOL    HW1 2138   2.169   1.733   0.157
  649SOL    HW2 2139   2.078   1.752   0.038
  650SOL     OW 2140   2.792   1.699   2.755
  650SOL    HW1 2141   2.853   1.638   2.794
  650SOL    HW2 2142   2.754   1.652   2.681
  651SOL     OW 2143   2.255   0.691   2.338
  651SOL    HW1 2144   2.287   0.602   2.354
  651SOL    HW2 2145   2.162   0.689   2.360
  652SOL     OW 2146   2.492   0.124   1.971
  652SOL    HW1 2147   2.579   0.086   1.967
  652SOL    HW2 2148   2.451   0.102   1.888
  653SOL     OW 2149   2.662   1.399   2.792
  653SOL    HW1 2150   2.748   1.393   2.752
  653SOL    HW2 2151   2.601   1.399   2.718
  654SOL     OW 2152   2.782   0.523   2.755
  654SOL    HW1 2153   2.757   0.497   2.667
  654SOL    HW2 2154   2.813   0.441   2.796
  655SOL     OW 2155   2.407   0.062   2.368
  655SOL    HW1 2156   2.319   0.044   2.403
  655SOL    HW2 2157   2.393   0.131   2.304
  656SOL     OW 2158   2.148   0.034   2.061
  656SOL    HW1 2159   2.197   0.109   2.027
  656SOL    HW2 2160   2.216   2.970   2.084
  657SOL     OW 2161   2.810   0.253   2.318
  657SOL    HW1 2162   2.761   0.300   2.250
  657SOL    HW2 2163   2.890   0.225   2.275
  658SOL     OW 2164   0.082   1.576   2.665
  658SOL    HW1 2165   0.103   1.617   2.581
  658SOL    HW2 2166   0.168   1.558   2.704
  659SOL     OW 2167   2.324   1.146   2.594
  659SOL    HW1 2168   2.261   1.132   2.665
  659SOL    HW2 2169   2.275   1.128   2.514
  660SOL     OW 2170   2.883   0.548   1.882
  660SOL    HW1 2171   2.839   0.630   1.861
  660SOL    HW2 2172   2.937   0.568   1.958
  661SOL     OW 2173   2.741   0.466   2.494
  661SOL    HW1 2174   2.679   0.518   2.443
  661SOL    HW2 2175   2.741   0.380   2.452
  662SOL     OW 2176   2.857   0.056   2.614
  662SOL    HW1 2177   2.819   0.054   2.526
  662SOL    HW2 2178   2.835   2.971   2.651
  663SOL     OW 2179   2.393   0.265   2.181
  663SOL    HW1 2180   2.432   0.214   2.110
  663SOL    HW2 2181   2.367   0.347   2.140
  664SOL     OW 2182   2.553   1.034   2.240
  664SOL    HW1 2183   2.554   1.036   2.336
  664SOL    HW2 2184   2.640   1.005   2.216
  665SOL     OW 2185   2.199   1.113   2.340
  665SOL    HW1 2186   2.264   1.181   2.323
  665SOL    HW2 2187   2.238   1.033   2.304
  666SOL     OW 2188   2.409   0.544   2.729
  666SOL    HW1 2189   2.430   0.595   2.650
  666SOL    HW2 2190   2.479   0.565   2.791
  667SOL     OW 2191   2.438   0.875   2.880
  667SOL    HW1 2192   2.480   0.956   2.853
  667SOL    HW2 2193   2.422   0.885   2.974
  668SOL     OW 2194   0.051   0.532   2.132
  668SOL    HW1 2195   0.084   0.456   2.180
  668SOL    HW2 2196   0.022   0.593   2.199
  669SOL     OW 2197   2.595   0.645   2.916
  669SOL    HW1 2198   2.663   0.622   2.852
  669SOL    HW2 2199   2.560   0.728   2.883
  670SOL     OW 2200   2.170   0.068   2.507
  670SOL    HW1 2201   2.165   0.157   2.543
  670SOL    HW2 2202   2.152   0.011   2.582
  671SOL     OW 2203   2.875   0.778   2.830
  671SOL    HW1 2204   2.878   0.770   2.926
  671SOL    HW2 2205   2.867   0.688   2.799
  672SOL     OW 2206   2.908   1.345   2.697
  672SOL    HW1 2207   2.915   1.270   2.638
  672SOL    HW2 2208   2.973   1.407   2.664
  673SOL     OW 2209   2.170   0.811   2.809
  673SOL    HW1 2210   2.264   0.831   2.812
  673SOL    HW2 2211   2.165   0.719   2.836
  674SOL     OW 2212   2.179   0.538   2.870
  674SOL    HW1 2213   2.147   0.448   2.870
  674SOL    HW2 2214   2.258   0.535   2.816
  675SOL     OW 2215   1.951   1.795   2.794
  675SOL    HW1 2216   1.922   1.711   2.758
  675SOL    HW2 2217   2.043   1.801   2.769
  676SOL     OW 2218   2.365   1.577   2.764
  676SOL    HW1 2219   2.435   1.639   2.786
  676SOL    HW2 2220   2.407   1.513   2.707
  677SOL     OW 2221   2.839   0.752   0.105
  677SOL    HW1 2222   2.883   0.738   0.189
  677SOL    HW2 2223   2.750   0.776   0.127
  678SOL     OW 2224   2.670   0.562   2.217
  678SOL    HW1 2225   2.671   0.488   2.156
  678SOL    HW2 2226   2.597   0.616   2.186
  679SOL     OW 2227   2.556   0.434   0.078
  679SOL    HW1 2228   2.465   0.442   0.108
  679SOL    HW2 2229   2.570   0.512   0.024
  680SOL     OW 2230   2.325   0.493   2.045
  680SOL    HW1 2231   2.385   0.565   2.066
  680SOL    HW2 2232   2.239   0.535   2.040
  681SOL     OW 2233   1.942   1.268   2.887
  681SOL    HW1 2234   1.930   1.282   2.981
  681SOL    HW2 2235   1.867   1.215   2.860
  682SOL     OW 2236   2.130   0.328   2.612
  682SOL    HW1 2237   2.043   0.362   2.593
  682SOL    HW2 2238   2.128   0.310   2.706
  683SOL     OW 2239   2.787   0.924   2.153
  683SOL    HW1 2240   2.838   0.929   2.073
  683SOL    HW2 2241   2.819   0.845   2.197
  684SOL     OW 2242   2.917   1.080   2.585
  684SOL    HW1 2243   2.840   1.041   2.625
  684SOL    HW2 2244   2.927   1.032   2.502
  685SOL     OW 2245   2.882   0.238   2.816
  685SOL    HW1 2246   2.876   0.187   2.735
  685SOL    HW2 2247   2.875   0.172   2.886
  686SOL     OW 2248   2.459   1.467   2.328
  686SOL    HW1 2249   2.518   1.449   2.255
  686SOL    HW2 2250   2.403   1.538   2.296
  687SOL     OW 2251   1.945   0.340   1.897
  687SOL    HW1 2252   1.854   0.312   1.885
  687SOL    HW2 2253   1.949   0.425   1.853
  688SOL     OW 2254   1.894   0.207   2.155
  688SOL    HW1 2255   1.926   0.269   2.089
  688SOL    HW2 2256   1.959   0.137   2.156
  689SOL     OW 2257   2.459   0.738   2.527
  689SOL    HW1 2258   2.493   0.826   2.515
  689SOL    HW2 2259   2.386   0.732   2.465
  690SOL     OW 2260   2.528   1.797   2.824
  690SOL    HW1 2261   2.507   1.884   2.791
  690SOL    HW2 2262   2.620   1.784   2.803
  691SOL     OW 2263   2.714   0.964   2.721
  691SOL    HW1 2264   2.767   0.894   2.759
  691SOL    HW2 2265   2.687   1.018   2.795
  692SOL     OW 2266   2.942   0.952   1.929
  692SOL    HW1 2267   2.909   1.028   1.881
  692SOL    HW2 2268   0.028   0.981   1.961
  693SOL     OW 2269   1.946   1.235   2.529
  693SOL    HW1 2270   1.945   1.180   2.607
  693SOL    HW2 2271   2.016   1.198   2.474
  694SOL     OW 2272   2.333   0.433   2.410
  694SOL    HW1 2273   2.318   0.375   2.335
  694SOL    HW2 2274   2.269   0.404   2.475
  695SOL     OW 2275   2.686   1.578   2.534
  695SOL    HW1 2276   2.697   1.610   2.444
  695SOL    HW2 2277   2.607   1.526   2.532
  696SOL     OW 2278   1.915   1.064   2.167
  696SOL    HW1 2279   2.001   1.038   2.200
  696SOL    HW2 2280   1.861   0.986   2.178
  697SOL     OW 2281   2.722   1.630   2.266
  697SOL    HW1 2282   2.705   1.599   2.177
  697SOL    HW2 2283   2.701   1.724   2.263
  698SOL     OW 2284   2.089   2.502   0.111
  698SOL    HW1 2285   2.000   2.474   0.132
  698SOL    HW2 2286   2.108   2.463   0.026
  699SOL     OW 2287   2.082   2.149   1.002
  699SOL    HW1 2288   2.114   2.097   1.075
  699SOL    HW2 2289   1.998   2.110   0.979
  700SOL     OW 2290   1.866   2.247   0.641
  700SOL    HW1 2291   1.780   2.267   0.678
  700SOL    HW2 2292   1.851   2.170   0.586
  701SOL     OW 2293   2.588   2.999   1.021
  701SOL    HW1 2294   2.521   0.052   1.064
  701SOL    HW2 2295   2.640   0.062   0.971
  702SOL     OW 2296   2.726   2.634   1.822
  702SOL    HW1 2297   2.725   2.695   1.896
  702SOL    HW2 2298   2.755   2.687   1.748
  703SOL     OW 2299   2.513   2.848   0.710
  703SOL    HW1 2300   2.608   2.855   0.722
  703SOL    HW2 2301   2.488   2.926   0.661
  704SOL     OW 2302   2.310   2.282   1.488
  704SOL    HW1 2303   2.388   2.228   1.503
  704SOL    HW2 2304   2.237   2.225   1.512
  705SOL     OW 2305   2.113   0.312   0.477
  705SOL    HW1 2306   2.057   0.386   0.496
  705SOL    HW2 2307   2.056   0.235   0.485
  706SOL     OW 2308   2.108   2.947   0.884
  706SOL    HW1 2309   2.129   2.859   0.915
  706SOL    HW2 2310   2.058   2.986   0.956
  707SOL     OW 2311   2.481   2.832   0.149
  707SOL    HW1 2312   2.463   2.925   0.137
  707SOL    HW2 2313   2.554   2.829   0.211
  708SOL     OW 2314   1.976   2.511   0.561
  708SOL    HW1 2315   1.950   2.421   0.583
  708SOL    HW2 2316   1.969   2.559   0.644
  709SOL     OW 2317   1.986   2.605   1.585
  709SOL    HW1 2318   2.080   2.620   1.597
  709SOL    HW2 2319   1.945   2.689   1.608
  710SOL     OW 2320   2.528   0.252   0.677
  710SOL    HW1 2321   2.470   0.183   0.712
  710SOL    HW2 2322   2.470   0.310   0.629
  711SOL     OW 2323   2.675   1.864   0.500
  711SOL    HW1 2324   2.712   1.952   0.492
  711SOL    HW2 2325   2.581   1.879   0.513
  712SOL     OW 2326   2.055   2.843   1.257
  712SOL    HW1 2327   2.137   2.795   1.250
  712SOL    HW2 2328   1.988   2.780   1.232
  713SOL     OW 2329   2.198   2.105   1.842
  713SOL    HW1 2330   2.236   2.190   1.820
  713SOL    HW2 2331   2.105   2.124   1.857
  714SOL     OW 2332   2.452   2.580   0.271
  714SOL    HW1 2333   2.458   2.661   0.221
  714SOL    HW2 2334   2.387   2.599   0.339
  715SOL     OW 2335   2.655   2.492   1.455
  715SOL    HW1 2336   2.630   2.463   1.543
  715SOL    HW2 2337   2.623   2.424   1.397
  716SOL     OW 2338   2.825   2.744   1.582
  716SOL    HW1 2339   2.849   2.659   1.545
  716SOL    HW2 2340   2.773   2.786   1.514
  717SOL     OW 2341   2.855   2.250   1.252
  717SOL    HW1 2342   2.770   2.282   1.283
  717SOL    HW2 2343   2.838   2.220   1.163
  718SOL     OW 2344   2.887   2.582   0.409
  718SOL    HW1 2345   2.930   2.562   0.492
  718SOL    HW2 2346   2.814   2.520   0.404
  719SOL     OW 2347   1.946   2.682   0.777
  719SOL    HW1 2348   2.030   2.672   0.822
  719SOL    HW2 2349   1.911   2.765   0.811
  720SOL     OW 2350   2.787   2.192   0.218
  720SOL    HW1 2351   2.776   2.259   0.150
  720SOL    HW2 2352   2.762   2.110   0.175
  721SOL     OW 2353   2.375   2.110   0.888
  721SOL    HW1 2354   2.441   2.077   0.948
  721SOL    HW2 2355   2.409   2.194   0.859
  722SOL     OW 2356   2.060   2.167   1.544
  722SOL    HW1 2357   1.979   2.193   1.501
  722SOL    HW2 2358   2.042   2.081   1.582
  723SOL     OW 2359   2.251   2.555   0.474
  723SOL    HW1 2360   2.273   2.463   0.486
  723SOL    HW2 2361   2.158   2.560   0.493
  724SOL     OW 2362   2.486   1.981   0.114
  724SOL    HW1 2363   2.581   1.968   0.117
  724SOL    HW2 2364   2.458   1.932   0.037
  725SOL     OW 2365   2.640   2.151   1.771
  725SOL    HW1 2366   2.706   2.082   1.777
  725SOL    HW2 2367   2.572   2.125   1.832
  726SOL     OW 2368   2.791   2.364   0.902
  726SOL    HW1 2369   2.763   2.353   0.811
  726SOL    HW2 2370   2.823   2.277   0.927
  727SOL     OW 2371   2.409   1.922   0.502
  727SOL    HW1 2372   2.334   1.925   0.560
  727SOL    HW2 2373   2.400   2.000   0.448
  728SOL     OW 2374   2.813   2.102   0.466
  728SOL    HW1 2375   2.781   2.149   0.389
  728SOL    HW2 2376   2.900   2.070   0.440
  729SOL     OW 2377   2.888   2.377   0.036
  729SOL    HW1 2378   2.844   2.461   0.020
  729SOL    HW2 2379   2.943   2.393   0.112
  730SOL     OW 2380   1.938   2.425   1.389
  730SOL    HW1 2381   2.030   2.418   1.363
  730SOL    HW2 2382   1.936   2.492   1.457
  731SOL     OW 2383   2.743   2.320   0.635
  731SOL    HW1 2384   2.685   2.378   0.584
  731SOL    HW2 2385   2.745   2.238   0.584
  732SOL     OW 2386   2.856   1.927   0.755
  732SOL    HW1 2387   2.808   1.902   0.676
  732SOL    HW2 2388   2.853   1.849   0.811
  733SOL     OW 2389   2.375   2.121   0.321
  733SOL    HW1 2390   2.421   2.074   0.251
  733SOL    HW2 2391   2.360   2.209   0.285
  734SOL     OW 2392   2.745   1.957   1.394
  734SOL    HW1 2393   2.761   1.930   1.303
  734SOL    HW2 2394   2.829   1.993   1.423
  735SOL     OW 2395   2.275   2.681   1.254
  735SOL    HW1 2396   2.345   2.687   1.318
  735SOL    HW2 2397   2.240   2.592   1.265
  736SOL     OW 2398   2.423   2.392   0.859
  736SOL    HW1 2399   2.433   2.449   0.783
  736SOL    HW2 2400   2.484   2.427   0.924
  737SOL     OW 2401   2.273   2.604   1.603
  737SOL    HW1 2402   2.339   2.645   1.546
  737SOL    HW2 2403   2.304   2.515   1.615
  738SOL     OW 2404   2.857   1.986   1.768
  738SOL    HW1 2405   2.897   2.044   1.703
  738SOL    HW2 2406   2.911   1.907   1.766
  739SOL     OW 2407   2.450   2.730   1.035
  739SOL    HW1 2408   2.469   2.822   1.017
  739SOL    HW2 2409   2.389   2.732   1.109
  740SOL     OW 2410   0.061   2.399   0.267
  740SOL    HW1 2411   0.072   2.316   0.314
  740SOL    HW2 2412   0.035   2.461   0.335
  741SOL     OW 2413   2.586   2.491   1.055
  741SOL    HW1 2414   2.667   2.482   1.005
  741SOL    HW2 2415   2.558   2.582   1.040
  742SOL     OW 2416   2.171   1.922   0.636
  742SOL    HW1 2417   2.153   2.014   0.654
  742SOL    HW2 2418   2.178   1.882   0.723
  743SOL     OW 2419   2.856   2.621   0.983
  743SOL    HW1 2420   2.914   2.614   1.059
  743SOL    HW2 2421   2.859   2.534   0.943
  744SOL     OW 2422   2.227   2.791   1.799
  744SOL    HW1 2423   2.287   2.775   1.872
  744SOL    HW2 2424   2.244   2.718   1.739
  745SOL     OW 2425   2.174   2.674   0.945
  745SOL    HW1 2426   2.267   2.691   0.933
  745SOL    HW2 2427   2.170   2.585   0.981
  746SOL     OW 2428   2.198   2.389   1.010
  746SOL    HW1 2429   2.161   2.301   0.998
  746SOL    HW2 2430   2.274   2.391   0.952
  747SOL     OW 2431   2.963   2.240   1.671
  747SOL    HW1 2432   2.906   2.301   1.719
  747SOL    HW2 2433   0.049   2.282   1.672
  748SOL     OW 2434   2.972   2.082   1.454
  748SOL    HW1 2435   2.959   2.144   1.525
  748SOL    HW2 2436   2.958   2.133   1.375
  749SOL     OW 2437   2.858   2.667   1.269
  749SOL    HW1 2438   2.911   2.595   1.304
  749SOL    HW2 2439   2.776   2.625   1.241
  750SOL     OW 2440   1.897   2.409   1.114
  750SOL    HW1 2441   1.978   2.389   1.067
  750SOL    HW2 2442   1.922   2.410   1.206
  751SOL     OW 2443   2.055   2.380   1.728
  751SOL    HW1 2444   2.079   2.317   1.660
  751SOL    HW2 2445   2.012   2.451   1.681
  752SOL     OW 2446   2.669   2.427   0.358
  752SOL    HW1 2447   2.671   2.357   0.293
  752SOL    HW2 2448   2.594   2.481   0.332
  753SOL     OW 2449   2.572   2.321   1.264
  753SOL    HW1 2450   2.509   2.251   1.249
  753SOL    HW2 2451   2.563   2.379   1.188
  754SOL     OW 2452   2.307   2.356   0.205
  754SOL    HW1 2453   2.371   2.425   0.224
  754SOL    HW2 2454   2.226   2.403   0.184
  755SOL     OW 2455   2.025   2.999   1.476
  755SOL    HW1 2456   2.026   2.942   1.553
  755SOL    HW2 2457   2.037   2.940   1.402
  756SOL     OW 2458   2.762   1.933   0.125
  756SOL    HW1 2459   2.819   1.900   0.055
  756SOL    HW2 2460   2.795   1.892   0.205
  757SOL     OW 2461   2.122   2.175   0.715
  757SOL    HW1 2462   2.035   2.213   0.700
  757SOL    HW2 2463   2.131   2.174   0.810
  758SOL     OW 2464   2.674   2.866   1.378
  758SOL    HW1 2465   2.732   2.837   1.307
  758SOL    HW2 2466   2.700   2.957   1.394
  759SOL     OW 2467   2.739   2.789   0.285
  759SOL    HW1 2468   2.821   2.837   0.275
  759SOL    HW2 2469   2.757   2.723   0.351
  760SOL     OW 2470   2.876   2.102   0.970
  760SOL    HW1 2471   2.873   2.055   0.887
  760SOL    HW2 2472   2.868   2.033   1.036
  761SOL     OW 2473   1.974   2.868   1.708
  761SOL    HW1 2474   1.899   2.857   1.766
  761SOL    HW2 2475   2.050   2.847   1.763
  762SOL     OW 2476   2.554   2.118   1.513
  762SOL    HW1 2477   2.617   2.062   1.467
  762SOL    HW2 2478   2.592   2.130   1.600
  763SOL     OW 2479   1.934   2.018   0.341
  763SOL    HW1 2480   1.899   2.058   0.262
  763SOL    HW2 2481   2.027   2.004   0.322
  764SOL     OW 2482   2.474   2.693   1.435
  764SOL    HW1 2483   2.531   2.768   1.419
  764SOL    HW2 2484   2.534   2.619   1.444
  765SOL     OW 2485   2.580   2.424   1.704
  765SOL    HW1 2486   2.616   2.489   1.764
  765SOL    HW2 2487   2.609   2.340   1.739
  766SOL     OW 2488   2.453   2.584   0.666
  766SOL    HW1 2489   2.477   2.676   0.678
  766SOL    HW2 2490   2.386   2.586   0.598
  767SOL     OW 2491   2.755   2.838   0.865
  767SOL    HW1 2492   2.783   2.754   0.899
  767SOL    HW2 2493   2.680   2.862   0.920
  768SOL     OW 2494   2.292   2.295   0.530
  768SOL    HW1 2495   2.321   2.225   0.471
  768SOL    HW2 2496   2.245   2.250   0.599
  769SOL     OW 2497   2.188   2.421   1.289
  769SOL    HW1 2498   2.242   2.369   1.349
  769SOL    HW2 2499   2.212   2.390   1.202
  770SOL     OW 2500   2.859   1.883   1.144
  770SOL    HW1 2501   2.798   1.813   1.122
  770SOL    HW2 2502   2.945   1.848   1.119
  771SOL     OW 2503   1.868   2.915   0.301
  771SOL    HW1 2504   1.952   2.916   0.255
  771SOL    HW2 2505   1.860   2.826   0.335
  772SOL     OW 2506   2.097   2.475   1.983
  772SOL    HW1 2507   2.007   2.483   2.016
  772SOL    HW2 2508   2.086   2.450   1.891
  773SOL     OW 2509   2.090   2.145   2.846
  773SOL    HW1 2510   2.116   2.117   2.934
  773SOL    HW2 2511   2.000   2.112   2.836
  774SOL     OW 2512   1.869   2.247   2.497
  774SOL    HW1 2513   1.786   2.271   2.538
  774SOL    HW2 2514   1.850   2.166   2.450
  775SOL     OW 2515   2.639   0.017   2.876
  775SOL    HW1 2516   2.550   0.026   2.909
  775SOL    HW2 2517   2.651   0.092   2.819
  776SOL     OW 2518   2.509   2.844   2.568
  776SOL    HW1 2519   2.602   2.845   2.593
  776SOL    HW2 2520   2.495   2.929   2.526
  777SOL     OW 2521   2.099   0.307   2.326
  777SOL    HW1 2522   2.049   0.379   2.365
  777SOL    HW2 2523   2.062   0.229   2.366
  778SOL     OW 2524   2.112   2.950   2.750
  778SOL    HW1 2525   2.130   2.860   2.777
  778SOL    HW2 2526   2.056   2.985   2.818
  779SOL     OW 2527   2.461   2.823   2.000
  779SOL    HW1 2528   2.460   2.904   1.949
  779SOL    HW2 2529   2.535   2.834   2.060
  780SOL     OW 2530   1.977   2.511   2.424
  780SOL    HW1 2531   1.950   2.421   2.446
  780SOL    HW2 2532   1.970   2.559   2.507
  781SOL     OW 2533   2.494   0.245   2.571
  781SOL    HW1 2534   2.463   0.163   2.532
  781SOL    HW2 2535   2.467   0.312   2.508
  782SOL     OW 2536   2.676   1.882   2.375
  782SOL    HW1 2537   2.710   1.970   2.358
  782SOL    HW2 2538   2.581   1.894   2.383
  783SOL     OW 2539   2.061   2.806   0.117
  783SOL    HW1 2540   2.126   2.736   0.110
  783SOL    HW2 2541   1.979   2.765   0.090
  784SOL     OW 2542   2.458   2.579   2.132
  784SOL    HW1 2543   2.459   2.657   2.076
  784SOL    HW2 2544   2.391   2.597   2.198
  785SOL     OW 2545   2.894   2.579   2.272
  785SOL    HW1 2546   2.923   2.569   2.363
  785SOL    HW2 2547   2.815   2.524   2.267
  786SOL     OW 2548   1.946   2.684   2.638
  786SOL    HW1 2549   2.028   2.671   2.686
  786SOL    HW2 2550   1.909   2.764   2.676
  787SOL     OW 2551   2.748   2.203   2.057
  787SOL    HW1 2552   2.785   2.267   1.996
  787SOL    HW2 2553   2.762   2.119   2.013
  788SOL     OW 2554   2.411   2.047   2.767
  788SOL    HW1 2555   2.378   2.085   2.848
  788SOL    HW2 2556   2.421   2.121   2.708
  789SOL     OW 2557   2.252   2.555   2.335
  789SOL    HW1 2558   2.274   2.463   2.347
  789SOL    HW2 2559   2.158   2.560   2.355
  790SOL     OW 2560   2.786   2.378   2.756
  790SOL    HW1 2561   2.761   2.355   2.666
  790SOL    HW2 2562   2.815   2.295   2.795
  791SOL     OW 2563   2.409   1.927   2.365
  791SOL    HW1 2564   2.325   1.924   2.412
  791SOL    HW2 2565   2.403   2.007   2.312
  792SOL     OW 2566   2.159   1.925   2.063
  792SOL    HW1 2567   2.182   1.960   1.977
  792SOL    HW2 2568   2.207   1.843   2.069
  793SOL     OW 2569   2.809   2.113   2.313
  793SOL    HW1 2570   2.772   2.155   2.235
  793SOL    HW2 2571   2.895   2.081   2.283
  794SOL     OW 2572   2.886   2.413   1.882
  794SOL    HW1 2573   2.837   2.492   1.858
  794SOL    HW2 2574   2.931   2.437   1.963
  795SOL     OW 2575   2.741   2.319   2.494
  795SOL    HW1 2576   2.681   2.378   2.448
  795SOL    HW2 2577   2.745   2.241   2.439
  796SOL     OW 2578   2.854   1.924   2.606
  796SOL    HW1 2579   2.803   1.898   2.529
  796SOL    HW2 2580   2.849   1.848   2.665
  797SOL     OW 2581   2.398   2.128   2.183
  797SOL    HW1 2582   2.389   2.067   2.109
  797SOL    HW2 2583   2.377   2.214   2.146
  798SOL     OW 2584   2.415   2.392   2.724
  798SOL    HW1 2585   2.429   2.448   2.648
  798SOL    HW2 2586   2.477   2.423   2.790
  799SOL     OW 2587   2.434   2.730   2.887
  799SOL    HW1 2588   2.477   2.806   2.848
  799SOL    HW2 2589   2.432   2.750   2.981
  800SOL     OW 2590   0.052   2.392   2.137
  800SOL    HW1 2591   0.083   2.320   2.192
  800SOL    HW2 2592   0.010   2.452   2.198
  801SOL     OW 2593   2.157   2.070   0.095
  801SOL    HW1 2594   2.202   2.098   0.175
  801SOL    HW2 2595   2.152   1.975   0.102
  802SOL     OW 2596   2.590   2.499   2.911
  802SOL    HW1 2597   2.663   2.481   2.851
  802SOL    HW2 2598   2.559   2.586   2.886
  803SOL     OW 2599   2.162   1.926   2.484
  803SOL    HW1 2600   2.144   2.017   2.508
  803SOL    HW2 2601   2.169   1.880   2.567
  804SOL     OW 2602   2.875   2.633   2.824
  804SOL    HW1 2603   2.893   2.632   2.918
  804SOL    HW2 2604   2.867   2.540   2.801
  805SOL     OW 2605   2.171   2.674   2.807
  805SOL    HW1 2606   2.264   2.694   2.815
  805SOL    HW2 2607   2.164   2.582   2.834
  806SOL     OW 2608   2.181   2.400   2.865
  806SOL    HW1 2609   2.146   2.311   2.859
  806SOL    HW2 2610   2.263   2.397   2.815
  807SOL     OW 2611   2.875   2.642   0.097
  807SOL    HW1 2612   2.920   2.635   0.181
  807SOL    HW2 2613   2.789   2.678   0.118
  808SOL     OW 2614   2.675   2.429   2.218
  808SOL    HW1 2615   2.671   2.352   2.161
  808SOL    HW2 2616   2.599   2.482   2.191
  809SOL     OW 2617   2.568   2.309   0.099
  809SOL    HW1 2618   2.477   2.279   0.094
  809SOL    HW2 2619   2.573   2.380   0.035
  810SOL     OW 2620   2.333   2.352   2.050
  810SOL    HW1 2621   2.385   2.429   2.074
  810SOL    HW2 2622   2.245   2.387   2.035
  811SOL     OW 2623   0.163   2.700   2.158
  811SOL    HW1 2624   0.111   2.643   2.215
  811SOL    HW2 2625   0.203   2.640   2.095
  812SOL     OW 2626   2.126   2.179   2.576
  812SOL    HW1 2627   2.040   2.215   2.553
  812SOL    HW2 2628   2.123   2.172   2.672
  813SOL     OW 2629   2.755   2.767   2.107
  813SOL    HW1 2630   2.833   2.820   2.090
  813SOL    HW2 2631   2.782   2.706   2.176
  814SOL     OW 2632   2.876   2.104   2.812
  814SOL    HW1 2633   2.871   2.054   2.731
  814SOL    HW2 2634   2.899   2.039   2.879
  815SOL     OW 2635   1.934   2.199   1.897
  815SOL    HW1 2636   1.854   2.173   1.851
  815SOL    HW2 2637   1.968   2.273   1.848
  816SOL     OW 2638   1.931   2.025   2.173
  816SOL    HW1 2639   1.917   2.102   2.118
  816SOL    HW2 2640   2.017   1.992   2.148
  817SOL     OW 2641   2.457   2.580   2.525
  817SOL    HW1 2642   2.479   2.673   2.538
  817SOL    HW2 2643   2.386   2.581   2.460
  818SOL     OW 2644   2.744   2.832   2.711
  818SOL    HW1 2645   2.788   2.755   2.749
  818SOL    HW2 2646   2.709   2.880   2.786
  819SOL     OW 2647   2.952   2.839   1.900
  819SOL    HW1 2648   2.916   2.927   1.912
  819SOL    HW2 2649   0.009   2.826   1.976
  820SOL     OW 2650   2.293   2.295   2.388
  820SOL    HW1 2651   2.321   2.223   2.331
  820SOL    HW2 2652   2.244   2.253   2.458
  821SOL     OW 2653   1.886   2.920   2.178
  821SOL    HW1 2654   1.970   2.928   2.131
  821SOL    HW2 2655   1.879   2.827   2.198
   3.00000   3.00000   3.00000
