Cyclohexane box
 5400
    1CHX    CAA    1   2.165   3.954   0.968
    1CHX    CAB    2   2.147   3.850   1.081
    1CHX    CAD    3   2.271   3.763   1.111
    1CHX    CAF    4   2.403   3.836   1.080
    1CHX    CAE    5   2.409   3.887   0.935
    1CHX    CAC    6   2.272   3.913   0.867
    2CHX    CAA    7   0.523   4.166   0.696
    2CHX    CAB    8   0.512   4.141   0.847
    2CHX    CAD    9   0.372   4.179   0.897
    2CHX    CAF   10   0.264   4.099   0.823
    2CHX    CAE   11   0.276   4.120   0.671
    2CHX    CAC   12   0.416   4.085   0.621
    3CHX    CAA   13   1.450   3.997   3.213
    3CHX    CAB   14   1.337   3.897   3.235
    3CHX    CAD   15   1.342   3.784   3.130
    3CHX    CAF   16   1.478   3.714   3.133
    3CHX    CAE   17   1.592   3.814   3.112
    3CHX    CAC   18   1.586   3.926   3.217
    4CHX    CAA   19   1.585   3.870   4.895
    4CHX    CAB   20   1.696   3.846   4.998
    4CHX    CAD   21   1.665   3.921   0.128
    4CHX    CAF   22   1.529   3.876   0.184
    4CHX    CAE   23   1.417   3.899   0.080
    4CHX    CAC   24   1.448   3.826   4.950
    5CHX    CAA   25   1.208   1.232   0.155
    5CHX    CAB   26   1.203   1.080   0.131
    5CHX    CAD   27   1.271   0.999   0.242
    5CHX    CAF   28   1.211   1.032   0.380
    5CHX    CAE   29   1.170   1.179   0.401
    5CHX    CAC   30   1.236   1.275   0.301
    6CHX    CAA   31   0.688   1.794   0.994
    6CHX    CAB   32   0.839   1.788   0.970
    6CHX    CAD   33   0.901   1.927   0.990
    6CHX    CAF   34   0.869   1.982   1.130
    6CHX    CAE   35   0.717   1.987   1.153
    6CHX    CAC   36   0.656   1.848   1.134
    7CHX    CAA   37   0.078   1.935   3.144
    7CHX    CAB   38   0.064   1.872   3.283
    7CHX    CAD   39   4.953   1.767   3.284
    7CHX    CAF   40   4.982   1.659   3.179
    7CHX    CAE   41   4.996   1.720   3.039
    7CHX    CAC   42   0.105   1.828   3.037
    8CHX    CAA   43   4.199   2.684   3.361
    8CHX    CAB   44   4.162   2.552   3.431
    8CHX    CAD   45   4.096   2.455   3.332
    8CHX    CAF   46   4.189   2.430   3.212
    8CHX    CAE   47   4.226   2.562   3.142
    8CHX    CAC   48   4.291   2.659   3.241
    9CHX    CAA   49   3.936   0.939   3.371
    9CHX    CAB   50   3.910   1.023   3.245
    9CHX    CAD   51   3.796   1.123   3.270
    9CHX    CAF   52   3.831   1.215   3.388
    9CHX    CAE   53   3.858   1.132   3.515
    9CHX    CAC   54   3.970   1.030   3.489
   10CHX    CAA   55   2.508   2.746   4.059
   10CHX    CAB   56   2.378   2.669   4.032
   10CHX    CAD   57   2.299   2.648   4.162
   10CHX    CAF   58   2.268   2.782   4.229
   10CHX    CAE   59   2.397   2.861   4.256
   10CHX    CAC   60   2.477   2.881   4.126
   11CHX    CAA   61   3.160   1.581   4.145
   11CHX    CAB   62   3.227   1.480   4.052
   11CHX    CAD   63   3.270   1.355   4.128
   11CHX    CAF   64   3.150   1.291   4.199
   11CHX    CAE   65   3.085   1.392   4.295
   11CHX    CAC   66   3.041   1.517   4.218
   12CHX    CAA   67   2.844   4.781   0.505
   12CHX    CAB   68   2.747   4.896   0.539
   12CHX    CAD   69   2.814   0.032   0.517
   12CHX    CAF   70   2.864   0.046   0.373
   12CHX    CAE   71   2.961   4.932   0.338
   12CHX    CAC   72   2.895   4.795   0.361
   13CHX    CAA   73   1.846   1.148   0.926
   13CHX    CAB   74   1.867   1.027   0.834
   13CHX    CAD   75   1.920   0.907   0.914
   13CHX    CAF   76   1.823   0.873   1.028
   13CHX    CAE   77   1.805   0.993   1.122
   13CHX    CAC   78   1.754   1.115   1.044
   14CHX    CAA   79   3.480   1.084   3.495
   14CHX    CAB   80   3.376   1.063   3.384
   14CHX    CAD   81   3.426   0.959   3.283
   14CHX    CAF   82   3.455   0.826   3.354
   14CHX    CAE   83   3.559   0.846   3.466
   14CHX    CAC   84   3.510   0.951   3.567
   15CHX    CAA   85   3.527   2.581   0.266
   15CHX    CAB   86   3.635   2.596   0.374
   15CHX    CAD   87   3.764   2.526   0.332
   15CHX    CAF   88   3.815   2.581   0.198
   15CHX    CAE   89   3.707   2.566   0.090
   15CHX    CAC   90   3.577   2.636   0.131
   16CHX    CAA   91   1.531   1.952   0.321
   16CHX    CAB   92   1.426   1.907   0.423
   16CHX    CAD   93   1.398   1.757   0.410
   16CHX    CAF   94   1.526   1.675   0.425
   16CHX    CAE   95   1.631   1.720   0.323
   16CHX    CAC   96   1.660   1.870   0.336
   17CHX    CAA   97   0.320   2.954   2.080
   17CHX    CAB   98   0.369   2.881   1.954
   17CHX    CAD   99   0.499   2.804   1.983
   17CHX    CAF  100   0.481   2.706   2.099
   17CHX    CAE  101   0.430   2.779   2.225
   17CHX    CAC  102   0.300   2.854   2.195
   18CHX    CAA  103   2.483   2.635   0.475
   18CHX    CAB  104   2.376   2.636   0.586
   18CHX    CAD  105   2.348   2.779   0.635
   18CHX    CAF  106   2.301   2.865   0.517
   18CHX    CAE  107   2.405   2.866   0.405
   18CHX    CAC  108   2.438   2.724   0.358
   19CHX    CAA  109   3.256   3.916   2.665
   19CHX    CAB  110   3.302   3.902   2.519
   19CHX    CAD  111   3.430   3.983   2.495
   19CHX    CAF  112   3.542   3.938   2.590
   19CHX    CAE  113   3.497   3.950   2.736
   19CHX    CAC  114   3.368   3.870   2.759
   20CHX    CAA  115   2.139   3.916   4.135
   20CHX    CAB  116   2.197   3.810   4.229
   20CHX    CAD  117   2.113   3.800   4.357
   20CHX    CAF  118   1.966   3.770   4.325
   20CHX    CAE  119   1.909   3.879   4.233
   20CHX    CAC  120   1.991   3.887   4.104
   21CHX    CAA  121   4.842   1.007   1.113
   21CHX    CAB  122   4.803   1.005   0.965
   21CHX    CAD  123   4.734   1.135   0.925
   21CHX    CAF  124   4.825   1.255   0.954
   21CHX    CAE  125   4.866   1.258   1.102
   21CHX    CAC  126   4.934   1.126   1.142
   22CHX    CAA  127   3.441   1.126   1.579
   22CHX    CAB  128   3.493   1.263   1.623
   22CHX    CAD  129   3.436   1.379   1.538
   22CHX    CAF  130   3.376   1.339   1.402
   22CHX    CAE  131   3.455   1.224   1.338
   22CHX    CAC  132   3.467   1.100   1.429
   23CHX    CAA  133   4.820   2.973   3.706
   23CHX    CAB  134   4.913   3.048   3.802
   23CHX    CAD  135   0.002   2.950   3.880
   23CHX    CAF  136   0.083   2.862   3.784
   23CHX    CAE  137   4.991   2.788   3.684
   23CHX    CAC  138   4.902   2.887   3.608
   24CHX    CAA  139   1.603   1.730   3.755
   24CHX    CAB  140   1.676   1.623   3.836
   24CHX    CAD  141   1.828   1.637   3.822
   24CHX    CAF  142   1.873   1.777   3.866
   24CHX    CAE  143   1.803   1.884   3.782
   24CHX    CAC  144   1.651   1.871   3.794
   25CHX    CAA  145   0.991   3.562   1.697
   25CHX    CAB  146   1.048   3.457   1.793
   25CHX    CAD  147   1.152   3.369   1.722
   25CHX    CAF  148   1.265   3.456   1.664
   25CHX    CAE  149   1.208   3.561   1.567
   25CHX    CAC  150   1.104   3.649   1.637
   26CHX    CAA  151   0.375   1.273   2.297
   26CHX    CAB  152   0.356   1.142   2.218
   26CHX    CAD  153   0.268   1.044   2.297
   26CHX    CAF  154   0.132   1.106   2.330
   26CHX    CAE  155   0.150   1.237   2.407
   26CHX    CAC  156   0.239   1.336   2.330
   27CHX    CAA  157   2.524   2.073   2.664
   27CHX    CAB  158   2.484   1.953   2.751
   27CHX    CAD  159   2.356   1.984   2.830
   27CHX    CAF  160   2.243   2.024   2.735
   27CHX    CAE  161   2.283   2.145   2.650
   27CHX    CAC  162   2.410   2.114   2.570
   28CHX    CAA  163   0.371   2.614   0.953
   28CHX    CAB  164   0.446   2.481   0.975
   28CHX    CAD  165   0.557   2.499   1.079
   28CHX    CAF  166   0.500   2.554   1.211
   28CHX    CAE  167   0.424   2.685   1.189
   28CHX    CAC  168   0.313   2.666   1.084
   29CHX    CAA  169   2.063   2.753   0.220
   29CHX    CAB  170   2.076   2.636   0.320
   29CHX    CAD  171   2.060   2.502   0.248
   29CHX    CAF  172   2.162   2.489   0.134
   29CHX    CAE  173   2.147   2.605   0.034
   29CHX    CAC  174   2.164   2.740   0.106
   30CHX    CAA  175   2.608   4.201   1.003
   30CHX    CAB  176   2.534   4.297   0.909
   30CHX    CAD  177   2.382   4.281   0.925
   30CHX    CAF  178   2.339   4.302   1.071
   30CHX    CAE  179   2.412   4.204   1.163
   30CHX    CAC  180   2.564   4.220   1.149
   31CHX    CAA  181   4.329   2.149   4.906
   31CHX    CAB  182   4.228   2.257   4.947
   31CHX    CAD  183   4.196   2.348   4.827
   31CHX    CAF  184   4.142   2.264   4.710
   31CHX    CAE  185   4.241   2.154   4.670
   31CHX    CAC  186   4.274   2.065   4.790
   32CHX    CAA  187   0.690   3.450   0.605
   32CHX    CAB  188   0.560   3.368   0.601
   32CHX    CAD  189   0.554   3.273   0.721
   32CHX    CAF  190   0.565   3.351   0.853
   32CHX    CAE  191   0.694   3.433   0.858
   32CHX    CAC  192   0.703   3.527   0.737
   33CHX    CAA  193   0.777   1.865   3.821
   33CHX    CAB  194   0.759   1.956   3.944
   33CHX    CAD  195   0.675   1.888   4.052
   33CHX    CAF  196   0.736   1.752   4.091
   33CHX    CAE  197   0.752   1.662   3.968
   33CHX    CAC  198   0.839   1.730   3.861
   34CHX    CAA  199   4.677   4.568   2.705
   34CHX    CAB  200   4.693   4.715   2.745
   34CHX    CAD  201   4.839   4.759   2.736
   34CHX    CAF  202   4.895   4.734   2.595
   34CHX    CAE  203   4.880   4.587   2.556
   34CHX    CAC  204   4.734   4.543   2.564
   35CHX    CAA  205   2.981   3.042   1.689
   35CHX    CAB  206   2.889   2.950   1.607
   35CHX    CAD  207   2.751   3.012   1.588
   35CHX    CAF  208   2.762   3.150   1.521
   35CHX    CAE  209   2.853   3.243   1.604
   35CHX    CAC  210   2.992   3.180   1.623
   36CHX    CAA  211   4.539   4.842   1.511
   36CHX    CAB  212   4.489   4.970   1.444
   36CHX    CAD  213   4.556   4.991   1.307
   36CHX    CAF  214   4.538   4.869   1.216
   36CHX    CAE  215   4.590   4.742   1.285
   36CHX    CAC  216   4.519   4.720   1.419
   37CHX    CAA  217   4.028   4.736   3.858
   37CHX    CAB  218   4.101   4.779   3.986
   37CHX    CAD  219   4.037   4.907   4.044
   37CHX    CAF  220   3.888   4.883   4.074
   37CHX    CAE  221   3.815   4.840   3.946
   37CHX    CAC  222   3.878   4.714   3.885
   38CHX    CAA  223   0.632   1.285   4.127
   38CHX    CAB  224   0.748   1.288   4.027
   38CHX    CAD  225   0.828   1.157   4.030
   38CHX    CAF  226   0.737   1.036   4.004
   38CHX    CAE  227   0.623   1.033   4.106
   38CHX    CAC  228   0.541   1.163   4.103
   39CHX    CAA  229   3.601   3.560   3.937
   39CHX    CAB  230   3.529   3.543   4.071
   39CHX    CAD  231   3.598   3.624   4.182
   39CHX    CAF  232   3.604   3.772   4.143
   39CHX    CAE  233   3.675   3.790   4.009
   39CHX    CAC  234   3.606   3.708   3.899
   40CHX    CAA  235   2.480   0.201   3.981
   40CHX    CAB  236   2.564   0.262   4.094
   40CHX    CAD  237   2.664   0.159   4.149
   40CHX    CAF  238   2.755   0.107   4.036
   40CHX    CAE  239   2.672   0.047   3.922
   40CHX    CAC  240   2.570   0.149   3.868
   41CHX    CAA  241   3.308   1.180   4.879
   41CHX    CAB  242   3.328   1.231   0.022
   41CHX    CAD  243   3.197   1.226   0.101
   41CHX    CAF  244   3.140   1.084   0.103
   41CHX    CAE  245   3.120   1.032   4.960
   41CHX    CAC  246   3.250   1.037   4.880
   42CHX    CAA  247   4.353   3.630   0.839
   42CHX    CAB  248   4.404   3.761   0.779
   42CHX    CAD  249   4.507   3.735   0.669
   42CHX    CAF  250   4.450   3.644   0.559
   42CHX    CAE  251   4.397   3.513   0.619
   42CHX    CAC  252   4.293   3.541   0.729
   43CHX    CAA  253   2.824   4.251   1.401
   43CHX    CAB  254   2.882   4.356   1.306
   43CHX    CAD  255   3.030   4.381   1.338
   43CHX    CAF  256   3.111   4.250   1.331
   43CHX    CAE  257   3.052   4.147   1.428
   43CHX    CAC  258   2.904   4.121   1.396
   44CHX    CAA  259   1.678   0.916   4.461
   44CHX    CAB  260   1.707   1.066   4.472
   44CHX    CAD  261   1.855   1.097   4.443
   44CHX    CAF  262   1.894   1.046   4.304
   44CHX    CAE  263   1.865   0.896   4.291
   44CHX    CAC  264   1.718   0.865   4.322
   45CHX    CAA  265   2.281   2.840   1.947
   45CHX    CAB  266   2.276   2.849   2.100
   45CHX    CAD  267   2.223   2.985   2.146
   45CHX    CAF  268   2.086   3.016   2.083
   45CHX    CAE  269   2.093   3.008   1.930
   45CHX    CAC  270   2.143   2.870   1.886
   46CHX    CAA  271   0.903   4.273   0.845
   46CHX    CAB  272   1.016   4.227   0.938
   46CHX    CAD  273   1.126   4.154   0.861
   46CHX    CAF  274   1.181   4.244   0.749
   46CHX    CAE  275   1.068   4.288   0.654
   46CHX    CAC  276   0.958   4.361   0.732
   47CHX    CAA  277   1.875   4.813   4.160
   47CHX    CAB  278   1.819   4.945   4.106
   47CHX    CAD  279   1.707   4.997   4.197
   47CHX    CAF  280   1.760   0.017   4.340
   47CHX    CAE  281   1.817   4.886   4.395
   47CHX    CAC  282   1.926   4.830   4.304
   48CHX    CAA  283   0.772   1.397   1.816
   48CHX    CAB  284   0.740   1.546   1.793
   48CHX    CAD  285   0.595   1.578   1.835
   48CHX    CAF  286   0.572   1.539   1.981
   48CHX    CAE  287   0.605   1.391   2.005
   48CHX    CAC  288   0.749   1.359   1.962
   49CHX    CAA  289   0.947   4.375   3.338
   49CHX    CAB  290   1.096   4.342   3.319
   49CHX    CAD  291   1.114   4.212   3.240
   49CHX    CAF  292   1.043   4.220   3.105
   49CHX    CAE  293   0.894   4.251   3.123
   49CHX    CAC  294   0.876   4.382   3.202
   50CHX    CAA  295   3.867   1.687   4.497
   50CHX    CAB  296   3.936   1.754   4.377
   50CHX    CAD  297   3.910   1.906   4.378
   50CHX    CAF  298   3.956   1.969   4.510
   50CHX    CAE  299   3.889   1.900   4.630
   50CHX    CAC  300   3.915   1.749   4.629
   51CHX    CAA  301   3.976   1.285   4.424
   51CHX    CAB  302   4.073   1.167   4.442
   51CHX    CAD  303   4.191   1.206   4.533
   51CHX    CAF  304   4.141   1.257   4.668
   51CHX    CAE  305   4.043   1.374   4.650
   51CHX    CAC  306   3.925   1.334   4.561
   52CHX    CAA  307   3.164   2.268   4.855
   52CHX    CAB  308   3.316   2.248   4.861
   52CHX    CAD  309   3.378   2.338   4.969
   52CHX    CAF  310   3.314   2.308   0.106
   52CHX    CAE  311   3.162   2.326   0.101
   52CHX    CAC  312   3.100   2.238   4.992
   53CHX    CAA  313   4.395   0.177   3.833
   53CHX    CAB  314   4.383   0.034   3.889
   53CHX    CAD  315   4.382   4.932   3.774
   53CHX    CAF  316   4.509   4.945   3.688
   53CHX    CAE  317   4.520   0.088   3.632
   53CHX    CAC  318   4.521   0.191   3.746
   54CHX    CAA  319   4.955   3.306   0.329
   54CHX    CAB  320   4.904   3.379   0.455
   54CHX    CAD  321   4.755   3.413   0.441
   54CHX    CAF  322   4.672   3.287   0.414
   54CHX    CAE  323   4.724   3.214   0.289
   54CHX    CAC  324   4.873   3.180   0.302
   55CHX    CAA  325   4.072   0.444   2.217
   55CHX    CAB  326   3.974   0.488   2.108
   55CHX    CAD  327   3.903   0.620   2.141
   55CHX    CAF  328   3.976   0.712   2.241
   55CHX    CAE  329   4.129   0.697   2.232
   55CHX    CAC  330   4.177   0.552   2.250
   56CHX    CAA  331   3.441   0.306   4.304
   56CHX    CAB  332   3.449   0.354   4.158
   56CHX    CAD  333   3.580   0.305   4.094
   56CHX    CAF  334   3.589   0.152   4.100
   56CHX    CAE  335   3.579   0.103   4.245
   56CHX    CAC  336   3.451   0.153   4.312
   57CHX    CAA  337   3.058   2.631   3.298
   57CHX    CAB  338   3.086   2.658   3.149
   57CHX    CAD  339   3.210   2.746   3.133
   57CHX    CAF  340   3.332   2.684   3.202
   57CHX    CAE  341   3.303   2.656   3.350
   57CHX    CAC  342   3.179   2.566   3.365
   58CHX    CAA  343   1.557   1.670   4.187
   58CHX    CAB  344   1.706   1.709   4.200
   58CHX    CAD  345   1.728   1.850   4.255
   58CHX    CAF  346   1.650   1.955   4.175
   58CHX    CAE  347   1.510   1.912   4.127
   58CHX    CAC  348   1.458   1.787   4.199
   59CHX    CAA  349   4.548   2.463   4.669
   59CHX    CAB  350   4.601   2.322   4.698
   59CHX    CAD  351   4.592   2.233   4.573
   59CHX    CAF  352   4.666   2.296   4.454
   59CHX    CAE  353   4.614   2.438   4.426
   59CHX    CAC  354   4.625   2.526   4.552
   60CHX    CAA  355   4.373   2.515   0.188
   60CHX    CAB  356   4.431   2.603   0.300
   60CHX    CAD  357   4.572   2.650   0.264
   60CHX    CAF  358   4.572   2.726   0.131
   60CHX    CAE  359   4.514   2.639   0.019
   60CHX    CAC  360   4.372   2.591   0.055
   61CHX    CAA  361   4.166   4.435   2.227
   61CHX    CAB  362   4.296   4.353   2.236
   61CHX    CAD  363   4.405   4.433   2.309
   61CHX    CAF  364   4.357   4.474   2.449
   61CHX    CAE  365   4.226   4.553   2.442
   61CHX    CAC  366   4.117   4.474   2.367
   62CHX    CAA  367   4.843   4.394   0.605
   62CHX    CAB  368   4.879   4.355   0.461
   62CHX    CAD  369   5.000   4.436   0.412
   62CHX    CAF  370   0.120   4.415   0.505
   62CHX    CAE  371   0.085   4.452   0.650
   62CHX    CAC  372   4.963   4.372   0.699
   63CHX    CAA  373   0.104   3.956   4.464
   63CHX    CAB  374   0.182   3.875   4.568
   63CHX    CAD  375   0.309   3.815   4.506
   63CHX    CAF  376   0.398   3.927   4.448
   63CHX    CAE  377   0.320   4.007   4.343
   63CHX    CAC  378   0.193   4.066   4.403
   64CHX    CAA  379   4.372   1.600   1.973
   64CHX    CAB  380   4.274   1.717   1.962
   64CHX    CAD  381   4.136   1.679   2.017
   64CHX    CAF  382   4.146   1.627   2.161
   64CHX    CAE  383   4.242   1.507   2.168
   64CHX    CAC  384   4.380   1.547   2.117
   65CHX    CAA  385   0.058   3.832   2.453
   65CHX    CAB  386   0.118   3.970   2.483
   65CHX    CAD  387   0.271   3.959   2.500
   65CHX    CAF  388   0.336   3.898   2.375
   65CHX    CAE  389   0.275   3.761   2.343
   65CHX    CAC  390   0.122   3.772   2.327
   66CHX    CAA  391   4.242   1.037   0.886
   66CHX    CAB  392   4.194   1.004   1.028
   66CHX    CAD  393   4.139   1.130   1.097
   66CHX    CAF  394   4.026   1.192   1.014
   66CHX    CAE  395   4.072   1.222   0.871
   66CHX    CAC  396   4.127   1.096   0.803
   67CHX    CAA  397   3.226   4.702   4.383
   67CHX    CAB  398   3.302   4.820   4.446
   67CHX    CAD  399   3.265   4.836   4.594
   67CHX    CAF  400   3.290   4.706   4.671
   67CHX    CAE  401   3.213   4.589   4.608
   67CHX    CAC  402   3.252   4.573   4.461
   68CHX    CAA  403   2.137   1.098   3.499
   68CHX    CAB  404   2.229   1.220   3.480
   68CHX    CAD  405   2.257   1.290   3.614
   68CHX    CAF  406   2.316   1.192   3.717
   68CHX    CAE  407   2.223   1.071   3.735
   68CHX    CAC  408   2.197   1.000   3.601
   69CHX    CAA  409   4.055   3.902   0.937
   69CHX    CAB  410   4.046   3.871   0.787
   69CHX    CAD  411   3.901   3.860   0.740
   69CHX    CAF  412   3.824   3.989   0.773
   69CHX    CAE  413   3.830   4.019   0.923
   69CHX    CAC  414   3.976   4.029   0.970
   70CHX    CAA  415   0.574   2.122   4.731
   70CHX    CAB  416   0.482   2.229   4.672
   70CHX    CAD  417   0.535   2.279   4.536
   70CHX    CAF  418   0.553   2.162   4.438
   70CHX    CAE  419   0.648   2.057   4.497
   70CHX    CAC  420   0.595   2.006   4.632
   71CHX    CAA  421   3.568   4.500   2.293
   71CHX    CAB  422   3.540   4.643   2.246
   71CHX    CAD  423   3.663   4.702   2.176
   71CHX    CAF  424   3.709   4.613   2.059
   71CHX    CAE  425   3.734   4.469   2.106
   71CHX    CAC  426   3.609   4.412   2.175
   72CHX    CAA  427   1.122   3.014   3.707
   72CHX    CAB  428   1.114   3.015   3.554
   72CHX    CAD  429   1.174   2.886   3.495
   72CHX    CAF  430   1.102   2.764   3.553
   72CHX    CAE  431   1.110   2.763   3.706
   72CHX    CAC  432   1.050   2.892   3.764
   73CHX    CAA  433   1.639   0.030   0.947
   73CHX    CAB  434   1.721   4.974   0.831
   73CHX    CAD  435   1.655   0.007   0.696
   73CHX    CAF  436   1.636   0.158   0.681
   73CHX    CAE  437   1.554   0.215   0.797
   73CHX    CAC  438   1.620   0.182   0.932
   74CHX    CAA  439   3.575   1.743   0.556
   74CHX    CAB  440   3.482   1.646   0.632
   74CHX    CAD  441   3.338   1.659   0.580
   74CHX    CAF  442   3.332   1.630   0.430
   74CHX    CAE  443   3.424   1.726   0.353
   74CHX    CAC  444   3.569   1.716   0.405
   75CHX    CAA  445   0.433   0.328   3.577
   75CHX    CAB  446   0.282   0.324   3.548
   75CHX    CAD  447   0.223   0.186   3.578
   75CHX    CAF  448   0.251   0.146   3.724
   75CHX    CAE  449   0.402   0.149   3.752
   75CHX    CAC  450   0.460   0.288   3.723
   76CHX    CAA  451   2.155   1.437   2.123
   76CHX    CAB  452   2.139   1.571   2.049
   76CHX    CAD  453   2.019   1.569   1.954
   76CHX    CAF  454   1.890   1.531   2.029
   76CHX    CAE  455   1.906   1.396   2.098
   76CHX    CAC  456   2.025   1.400   2.196
   77CHX    CAA  457   2.238   1.070   1.784
   77CHX    CAB  458   2.331   1.060   1.663
   77CHX    CAD  459   2.284   1.153   1.551
   77CHX    CAF  460   2.276   1.298   1.600
   77CHX    CAE  461   2.181   1.308   1.720
   77CHX    CAC  462   2.228   1.215   1.833
   78CHX    CAA  463   3.523   1.614   2.783
   78CHX    CAB  464   3.381   1.643   2.832
   78CHX    CAD  465   3.368   1.790   2.875
   78CHX    CAF  466   3.405   1.883   2.759
   78CHX    CAE  467   3.548   1.854   2.710
   78CHX    CAC  468   3.561   1.707   2.667
   79CHX    CAA  469   1.016   0.250   3.322
   79CHX    CAB  470   1.092   0.341   3.420
   79CHX    CAD  471   1.230   0.283   3.458
   79CHX    CAF  472   1.247   0.131   3.438
   79CHX    CAE  473   1.115   0.057   3.466
   79CHX    CAC  474   1.000   0.107   3.377
   80CHX    CAA  475   3.905   3.161   0.392
   80CHX    CAB  476   4.040   3.143   0.462
   80CHX    CAD  477   4.110   3.277   0.485
   80CHX    CAF  478   4.019   3.372   0.564
   80CHX    CAE  479   3.883   3.390   0.497
   80CHX    CAC  480   3.815   3.253   0.476
   81CHX    CAA  481   1.050   3.406   3.929
   81CHX    CAB  482   1.178   3.342   3.874
   81CHX    CAD  483   1.203   3.388   3.730
   81CHX    CAF  484   1.213   3.541   3.723
   81CHX    CAE  485   1.088   3.608   3.782
   81CHX    CAC  486   1.062   3.559   3.925
   82CHX    CAA  487   2.992   2.603   0.610
   82CHX    CAB  488   3.073   2.587   0.480
   82CHX    CAD  489   3.185   2.692   0.473
   82CHX    CAF  490   3.276   2.684   0.595
   82CHX    CAE  491   3.195   2.703   0.724
   82CHX    CAC  492   3.084   2.598   0.733
   83CHX    CAA  493   3.738   0.750   3.842
   83CHX    CAB  494   3.830   0.780   3.723
   83CHX    CAD  495   3.978   0.772   3.765
   83CHX    CAF  496   4.009   0.634   3.825
   83CHX    CAE  497   3.917   0.605   3.944
   83CHX    CAC  498   3.770   0.612   3.902
   84CHX    CAA  499   0.904   0.291   0.709
   84CHX    CAB  500   0.999   0.225   0.810
   84CHX    CAD  501   0.921   0.147   0.916
   84CHX    CAF  502   0.827   0.044   0.852
   84CHX    CAE  503   0.733   0.110   0.750
   84CHX    CAC  504   0.813   0.186   0.643
   85CHX    CAA  505   4.450   4.467   4.587
   85CHX    CAB  506   4.400   4.612   4.589
   85CHX    CAD  507   4.435   4.680   4.723
   85CHX    CAF  508   4.587   4.674   4.748
   85CHX    CAE  509   4.638   4.529   4.745
   85CHX    CAC  510   4.601   4.461   4.612
   86CHX    CAA  511   1.126   1.487   2.615
   86CHX    CAB  512   1.062   1.622   2.649
   86CHX    CAD  513   1.142   1.736   2.583
   86CHX    CAF  514   1.149   1.717   2.431
   86CHX    CAE  515   1.208   1.580   2.395
   86CHX    CAC  516   1.130   1.467   2.464
   87CHX    CAA  517   1.782   0.869   2.617
   87CHX    CAB  518   1.723   0.766   2.521
   87CHX    CAD  519   1.831   0.665   2.477
   87CHX    CAF  520   1.894   0.597   2.600
   87CHX    CAE  521   1.951   0.701   2.698
   87CHX    CAC  522   1.844   0.802   2.740
   88CHX    CAA  523   0.274   1.594   4.300
   88CHX    CAB  524   0.385   1.693   4.261
   88CHX    CAD  525   0.487   1.708   4.374
   88CHX    CAF  526   0.547   1.571   4.412
   88CHX    CAE  527   0.436   1.473   4.452
   88CHX    CAC  528   0.334   1.457   4.339
   89CHX    CAA  529   4.717   3.850   1.248
   89CHX    CAB  530   4.730   3.822   1.097
   89CHX    CAD  531   4.644   3.920   1.016
   89CHX    CAF  532   4.684   4.065   1.047
   89CHX    CAE  533   4.671   4.094   1.198
   89CHX    CAC  534   4.756   3.995   1.280
   90CHX    CAA  535   4.963   1.826   0.970
   90CHX    CAB  536   4.850   1.729   0.933
   90CHX    CAD  537   4.838   1.616   1.035
   90CHX    CAF  538   4.817   1.672   1.177
   90CHX    CAE  539   4.930   1.770   1.214
   90CHX    CAC  540   4.942   1.883   1.111
   91CHX    CAA  541   0.038   3.833   3.071
   91CHX    CAB  542   0.142   3.931   3.015
   91CHX    CAD  543   0.121   3.951   2.864
   91CHX    CAF  544   4.979   4.005   2.837
   91CHX    CAE  545   4.873   3.911   2.895
   91CHX    CAC  546   4.896   3.886   3.045
   92CHX    CAA  547   0.983   2.791   4.638
   92CHX    CAB  548   0.944   2.796   4.787
   92CHX    CAD  549   1.030   2.698   4.869
   92CHX    CAF  550   1.180   2.728   4.850
   92CHX    CAE  551   1.218   2.723   4.701
   92CHX    CAC  552   1.132   2.820   4.619
   93CHX    CAA  553   4.567   1.262   1.924
   93CHX    CAB  554   4.667   1.364   1.981
   93CHX    CAD  555   4.698   1.335   2.129
   93CHX    CAF  556   4.751   1.192   2.146
   93CHX    CAE  557   4.652   1.090   2.088
   93CHX    CAC  558   4.621   1.119   1.941
   94CHX    CAA  559   1.373   4.182   4.478
   94CHX    CAB  560   1.454   4.140   4.353
   94CHX    CAD  561   1.511   3.997   4.355
   94CHX    CAF  562   1.420   3.901   4.433
   94CHX    CAE  563   1.395   3.948   4.578
   94CHX    CAC  564   1.410   4.100   4.602
   95CHX    CAA  565   4.567   4.442   3.122
   95CHX    CAB  566   4.658   4.471   3.243
   95CHX    CAD  567   4.712   4.340   3.301
   95CHX    CAF  568   4.791   4.262   3.195
   95CHX    CAE  569   4.704   4.235   3.071
   95CHX    CAC  570   4.644   4.365   3.015
   96CHX    CAA  571   3.375   1.365   2.081
   96CHX    CAB  572   3.375   1.442   1.949
   96CHX    CAD  573   3.382   1.593   1.974
   96CHX    CAF  574   3.506   1.628   2.057
   96CHX    CAE  575   3.509   1.550   2.189
   96CHX    CAC  576   3.501   1.399   2.163
   97CHX    CAA  577   0.551   0.290   2.541
   97CHX    CAB  578   0.534   0.149   2.483
   97CHX    CAD  579   0.655   0.061   2.520
   97CHX    CAF  580   0.673   0.056   2.672
   97CHX    CAE  581   0.690   0.198   2.729
   97CHX    CAC  582   0.569   0.286   2.693
   98CHX    CAA  583   2.331   1.102   2.323
   98CHX    CAB  584   2.484   1.111   2.334
   98CHX    CAD  585   2.550   0.985   2.275
   98CHX    CAF  586   2.507   0.964   2.130
   98CHX    CAE  587   2.354   0.956   2.119
   98CHX    CAC  588   2.288   1.082   2.177
   99CHX    CAA  589   1.454   0.570   0.706
   99CHX    CAB  590   1.311   0.608   0.668
   99CHX    CAD  591   1.311   0.721   0.564
   99CHX    CAF  592   1.390   0.680   0.439
   99CHX    CAE  593   1.534   0.641   0.476
   99CHX    CAC  594   1.533   0.528   0.580
  100CHX    CAA  595   0.956   3.863   2.581
  100CHX    CAB  596   0.830   3.797   2.524
  100CHX    CAD  597   0.725   3.903   2.486
  100CHX    CAF  598   0.783   4.005   2.386
  100CHX    CAE  599   0.910   4.070   2.443
  100CHX    CAC  600   1.014   3.963   2.480
  101CHX    CAA  601   0.738   4.410   2.338
  101CHX    CAB  602   0.876   4.441   2.278
  101CHX    CAD  603   0.885   4.589   2.239
  101CHX    CAF  604   0.858   4.679   2.361
  101CHX    CAE  605   0.722   4.648   2.424
  101CHX    CAC  606   0.711   4.499   2.460
  102CHX    CAA  607   1.069   4.499   3.749
  102CHX    CAB  608   1.117   4.559   3.616
  102CHX    CAD  609   1.214   4.675   3.639
  102CHX    CAF  610   1.333   4.630   3.725
  102CHX    CAE  611   1.285   4.571   3.859
  102CHX    CAC  612   1.189   4.454   3.834
  103CHX    CAA  613   0.426   0.809   3.862
  103CHX    CAB  614   0.314   0.913   3.877
  103CHX    CAD  615   0.226   0.917   3.751
  103CHX    CAF  616   0.167   0.778   3.723
  103CHX    CAE  617   0.277   0.672   3.710
  103CHX    CAC  618   0.367   0.670   3.835
  104CHX    CAA  619   2.040   3.326   2.840
  104CHX    CAB  620   2.108   3.457   2.882
  104CHX    CAD  621   2.261   3.442   2.882
  104CHX    CAF  622   2.311   3.395   2.744
  104CHX    CAE  623   2.243   3.263   2.704
  104CHX    CAC  624   2.090   3.279   2.703
  105CHX    CAA  625   0.503   4.931   0.094
  105CHX    CAB  626   0.361   4.975   0.058
  105CHX    CAD  627   0.333   4.946   4.909
  105CHX    CAF  628   0.352   4.797   4.878
  105CHX    CAE  629   0.493   4.752   4.917
  105CHX    CAC  630   0.523   4.782   0.064
  106CHX    CAA  631   2.576   2.385   3.907
  106CHX    CAB  632   2.691   2.301   3.849
  106CHX    CAD  633   2.653   2.153   3.849
  106CHX    CAF  634   2.526   2.130   3.766
  106CHX    CAE  635   2.411   2.214   3.823
  106CHX    CAC  636   2.447   2.363   3.827
  107CHX    CAA  637   1.820   3.570   2.665
  107CHX    CAB  638   1.795   3.670   2.779
  107CHX    CAD  639   1.660   3.741   2.757
  107CHX    CAF  640   1.547   3.638   2.751
  107CHX    CAE  641   1.571   3.535   2.641
  107CHX    CAC  642   1.707   3.466   2.658
  108CHX    CAA  643   4.752   3.610   3.768
  108CHX    CAB  644   4.668   3.565   3.888
  108CHX    CAD  645   4.559   3.669   3.921
  108CHX    CAF  646   4.470   3.694   3.798
  108CHX    CAE  647   4.556   3.742   3.680
  108CHX    CAC  648   4.664   3.639   3.646
  109CHX    CAA  649   1.331   1.461   3.838
  109CHX    CAB  650   1.187   1.509   3.864
  109CHX    CAD  651   1.085   1.421   3.790
  109CHX    CAF  652   1.103   1.273   3.826
  109CHX    CAE  653   1.247   1.226   3.799
  109CHX    CAC  654   1.347   1.313   3.877
  110CHX    CAA  655   1.066   4.000   4.304
  110CHX    CAB  656   0.996   4.083   4.195
  110CHX    CAD  657   1.076   4.079   4.064
  110CHX    CAF  658   1.095   3.934   4.018
  110CHX    CAE  659   1.165   3.851   4.127
  110CHX    CAC  660   1.086   3.855   4.258
  111CHX    CAA  661   1.094   2.382   3.198
  111CHX    CAB  662   1.084   2.523   3.260
  111CHX    CAD  663   1.106   2.631   3.154
  111CHX    CAF  664   1.004   2.616   3.040
  111CHX    CAE  665   1.014   2.477   2.977
  111CHX    CAC  666   0.994   2.367   3.083
  112CHX    CAA  667   4.086   4.731   1.712
  112CHX    CAB  668   4.199   4.642   1.659
  112CHX    CAD  669   4.325   4.658   1.745
  112CHX    CAF  670   4.295   4.626   1.892
  112CHX    CAE  671   4.179   4.711   1.945
  112CHX    CAC  672   4.054   4.695   1.858
  113CHX    CAA  673   2.330   2.091   4.613
  113CHX    CAB  674   2.269   2.213   4.541
  113CHX    CAD  675   2.151   2.271   4.621
  113CHX    CAF  676   2.196   2.307   4.763
  113CHX    CAE  677   2.252   2.183   4.834
  113CHX    CAC  678   2.371   2.127   4.756
  114CHX    CAA  679   4.207   0.693   4.587
  114CHX    CAB  680   4.184   0.842   4.617
  114CHX    CAD  681   4.235   0.880   4.757
  114CHX    CAF  682   4.383   0.842   4.772
  114CHX    CAE  683   4.404   0.693   4.744
  114CHX    CAC  684   4.355   0.656   4.603
  115CHX    CAA  685   2.242   2.074   0.769
  115CHX    CAB  686   2.379   2.097   0.835
  115CHX    CAD  687   2.478   2.152   0.732
  115CHX    CAF  688   2.425   2.284   0.674
  115CHX    CAE  689   2.288   2.265   0.607
  115CHX    CAC  690   2.188   2.204   0.707
  116CHX    CAA  691   3.864   4.735   2.532
  116CHX    CAB  692   3.789   4.615   2.590
  116CHX    CAD  693   3.727   4.652   2.726
  116CHX    CAF  694   3.634   4.773   2.713
  116CHX    CAE  695   3.709   4.894   2.655
  116CHX    CAC  696   3.771   4.857   2.519
  117CHX    CAA  697   3.714   4.827   0.253
  117CHX    CAB  698   3.745   4.892   0.390
  117CHX    CAD  699   3.790   0.037   0.373
  117CHX    CAF  700   3.683   0.117   0.296
  117CHX    CAE  701   3.653   0.053   0.160
  117CHX    CAC  702   3.608   4.907   0.178
  118CHX    CAA  703   2.741   4.002   2.845
  118CHX    CAB  704   2.600   4.064   2.843
  118CHX    CAD  705   2.530   4.043   2.978
  118CHX    CAF  706   2.613   4.100   3.093
  118CHX    CAE  707   2.754   4.039   3.093
  118CHX    CAC  708   2.825   4.062   2.958
  119CHX    CAA  709   2.591   3.997   3.491
  119CHX    CAB  710   2.607   3.867   3.572
  119CHX    CAD  711   2.719   3.781   3.511
  119CHX    CAF  712   2.851   3.858   3.508
  119CHX    CAE  713   2.836   3.992   3.433
  119CHX    CAC  714   2.722   4.076   3.490
  120CHX    CAA  715   3.411   3.796   1.144
  120CHX    CAB  716   3.475   3.923   1.086
  120CHX    CAD  717   3.410   4.049   1.145
  120CHX    CAF  718   3.422   4.048   1.298
  120CHX    CAE  719   3.358   3.921   1.357
  120CHX    CAC  720   3.421   3.795   1.297
  121CHX    CAA  721   4.093   1.363   0.032
  121CHX    CAB  722   4.062   1.378   0.181
  121CHX    CAD  723   4.189   1.413   0.260
  121CHX    CAF  724   4.252   1.542   0.207
  121CHX    CAE  725   4.283   1.529   0.058
  121CHX    CAC  726   4.158   1.492   4.978
  122CHX    CAA  727   3.974   3.278   4.058
  122CHX    CAB  728   3.972   3.131   4.100
  122CHX    CAD  729   3.988   3.117   4.252
  122CHX    CAF  730   3.878   3.196   4.326
  122CHX    CAE  731   3.880   3.344   4.283
  122CHX    CAC  732   3.864   3.357   4.131
  123CHX    CAA  733   4.224   3.645   3.176
  123CHX    CAB  734   4.303   3.520   3.220
  123CHX    CAD  735   4.387   3.550   3.345
  123CHX    CAF  736   4.298   3.604   3.458
  123CHX    CAE  737   4.223   3.730   3.413
  123CHX    CAC  738   4.137   3.699   3.290
  124CHX    CAA  739   3.221   2.804   4.069
  124CHX    CAB  740   3.274   2.868   3.940
  124CHX    CAD  741   3.209   3.005   3.916
  124CHX    CAF  742   3.232   3.098   4.036
  124CHX    CAE  743   3.178   3.033   4.164
  124CHX    CAC  744   3.245   2.897   4.189
  125CHX    CAA  745   3.387   4.356   4.859
  125CHX    CAB  746   3.505   4.453   4.841
  125CHX    CAD  747   3.511   4.553   4.957
  125CHX    CAF  748   3.522   4.479   0.091
  125CHX    CAE  749   3.403   4.383   0.108
  125CHX    CAC  750   3.397   4.282   4.993
  126CHX    CAA  751   1.931   2.664   3.915
  126CHX    CAB  752   1.940   2.688   4.066
  126CHX    CAD  753   1.866   2.817   4.105
  126CHX    CAF  754   1.719   2.809   4.063
  126CHX    CAE  755   1.708   2.786   3.911
  126CHX    CAC  756   1.785   2.660   3.870
  127CHX    CAA  757   2.358   0.569   4.780
  127CHX    CAB  758   2.300   0.553   4.921
  127CHX    CAD  759   2.406   0.584   0.027
  127CHX    CAF  760   2.463   0.725   0.008
  127CHX    CAE  761   2.521   0.743   4.866
  127CHX    CAC  762   2.414   0.711   4.761
  128CHX    CAA  763   0.074   1.782   4.740
  128CHX    CAB  764   4.986   1.907   4.747
  128CHX    CAD  765   0.073   2.034   4.743
  128CHX    CAF  766   0.159   2.036   4.616
  128CHX    CAE  767   0.246   1.909   4.606
  128CHX    CAC  768   0.159   1.783   4.613
  129CHX    CAA  769   1.026   4.904   4.915
  129CHX    CAB  770   0.873   4.891   4.919
  129CHX    CAD  771   0.821   4.832   4.787
  129CHX    CAF  772   0.886   4.697   4.757
  129CHX    CAE  773   1.039   4.709   4.755
  129CHX    CAC  774   1.091   4.768   4.887
  130CHX    CAA  775   0.189   0.692   3.098
  130CHX    CAB  776   0.145   0.558   3.037
  130CHX    CAD  777   0.167   0.442   3.135
  130CHX    CAF  778   0.092   0.469   3.267
  130CHX    CAE  779   0.137   0.602   3.329
  130CHX    CAC  780   0.115   0.718   3.230
  131CHX    CAA  781   2.973   0.174   1.958
  131CHX    CAB  782   3.119   0.129   1.973
  131CHX    CAD  783   3.163   0.049   1.850
  131CHX    CAF  784   3.150   0.135   1.724
  131CHX    CAE  785   3.006   0.186   1.707
  131CHX    CAC  786   2.958   0.261   1.832
  132CHX    CAA  787   2.643   2.571   4.647
  132CHX    CAB  788   2.539   2.644   4.734
  132CHX    CAD  789   2.429   2.706   4.647
  132CHX    CAF  790   2.361   2.599   4.560
  132CHX    CAE  791   2.465   2.527   4.473
  132CHX    CAC  792   2.574   2.464   4.560
  133CHX    CAA  793   3.035   2.759   3.670
  133CHX    CAB  794   3.003   2.612   3.701
  133CHX    CAD  795   2.967   2.595   3.849
  133CHX    CAF  796   2.849   2.685   3.888
  133CHX    CAE  797   2.880   2.832   3.857
  133CHX    CAC  798   2.918   2.851   3.710
  134CHX    CAA  799   3.296   3.976   3.351
  134CHX    CAB  800   3.417   4.000   3.260
  134CHX    CAD  801   3.375   4.014   3.113
  134CHX    CAF  802   3.270   4.125   3.096
  134CHX    CAE  803   3.149   4.100   3.188
  134CHX    CAC  804   3.193   4.089   3.335
  135CHX    CAA  805   0.983   4.353   0.150
  135CHX    CAB  806   0.936   4.473   0.067
  135CHX    CAD  807   0.784   4.492   0.080
  135CHX    CAF  808   0.745   4.509   0.227
  135CHX    CAE  809   0.788   4.386   0.309
  135CHX    CAC  810   0.939   4.364   0.297
  136CHX    CAA  811   4.138   2.250   1.709
  136CHX    CAB  812   4.237   2.161   1.633
  136CHX    CAD  813   4.371   2.154   1.709
  136CHX    CAF  814   4.348   2.100   1.851
  136CHX    CAE  815   4.250   2.191   1.927
  136CHX    CAC  816   4.116   2.201   1.853
  137CHX    CAA  817   4.001   4.622   3.328
  137CHX    CAB  818   3.980   4.649   3.478
  137CHX    CAD  819   3.839   4.608   3.524
  137CHX    CAF  820   3.811   4.461   3.489
  137CHX    CAE  821   3.828   4.437   3.338
  137CHX    CAC  822   3.969   4.476   3.292
  138CHX    CAA  823   2.447   0.239   1.750
  138CHX    CAB  824   2.600   0.232   1.751
  138CHX    CAD  825   2.655   0.273   1.614
  138CHX    CAF  826   2.609   0.415   1.580
  138CHX    CAE  827   2.456   0.425   1.581
  138CHX    CAC  828   2.397   0.379   1.715
  139CHX    CAA  829   2.185   0.722   1.476
  139CHX    CAB  830   2.167   0.580   1.418
  139CHX    CAD  831   2.163   0.571   1.264
  139CHX    CAF  832   2.101   0.697   1.203
  139CHX    CAE  833   2.176   0.825   1.243
  139CHX    CAC  834   2.251   0.818   1.377
  140CHX    CAA  835   3.982   0.506   1.078
  140CHX    CAB  836   4.035   0.644   1.038
  140CHX    CAD  837   4.087   0.645   0.894
  140CHX    CAF  838   3.979   0.596   0.797
  140CHX    CAE  839   3.927   0.457   0.836
  140CHX    CAC  840   3.874   0.458   0.980
  141CHX    CAA  841   0.813   0.463   1.569
  141CHX    CAB  842   0.818   0.310   1.560
  141CHX    CAD  843   0.826   0.249   1.701
  141CHX    CAF  844   0.709   0.294   1.789
  141CHX    CAE  845   0.703   0.447   1.795
  141CHX    CAC  846   0.694   0.508   1.654
  142CHX    CAA  847   3.666   4.374   1.005
  142CHX    CAB  848   3.695   4.332   1.150
  142CHX    CAD  849   3.843   4.296   1.168
  142CHX    CAF  850   3.935   4.409   1.122
  142CHX    CAE  851   3.904   4.452   0.978
  142CHX    CAC  852   3.756   4.492   0.964
  143CHX    CAA  853   0.249   0.420   2.135
  143CHX    CAB  854   0.278   0.296   2.221
  143CHX    CAD  855   0.184   0.290   2.342
  143CHX    CAF  856   0.037   0.294   2.298
  143CHX    CAE  857   0.009   0.418   2.212
  143CHX    CAC  858   0.102   0.420   2.090
  144CHX    CAA  859   0.210   4.154   1.957
  144CHX    CAB  860   0.313   4.049   2.000
  144CHX    CAD  861   0.254   3.908   1.991
  144CHX    CAF  862   0.203   3.879   1.850
  144CHX    CAE  863   0.099   3.984   1.808
  144CHX    CAC  864   0.158   4.125   1.816
  145CHX    CAA  865   2.292   1.430   2.488
  145CHX    CAB  866   2.385   1.380   2.599
  145CHX    CAD  867   2.461   1.497   2.663
  145CHX    CAF  868   2.362   1.601   2.717
  145CHX    CAE  869   2.270   1.652   2.605
  145CHX    CAC  870   2.194   1.535   2.542
  146CHX    CAA  871   2.528   4.854   0.190
  146CHX    CAB  872   2.379   4.885   0.172
  146CHX    CAD  873   2.310   4.779   0.085
  146CHX    CAF  874   2.331   4.639   0.144
  146CHX    CAE  875   2.481   4.608   0.157
  146CHX    CAC  876   2.549   4.713   0.246
  147CHX    CAA  877   1.558   3.194   4.005
  147CHX    CAB  878   1.472   3.099   3.919
  147CHX    CAD  879   1.482   3.136   3.771
  147CHX    CAF  880   1.628   3.136   3.723
  147CHX    CAE  881   1.714   3.230   3.809
  147CHX    CAC  882   1.704   3.192   3.958
  148CHX    CAA  883   3.352   2.049   1.462
  148CHX    CAB  884   3.373   1.901   1.499
  148CHX    CAD  885   3.258   1.853   1.589
  148CHX    CAF  886   3.123   1.872   1.518
  148CHX    CAE  887   3.102   2.018   1.477
  148CHX    CAC  888   3.218   2.069   1.391
  149CHX    CAA  889   3.890   1.735   2.896
  149CHX    CAB  890   3.988   1.708   3.011
  149CHX    CAD  891   4.133   1.718   2.962
  149CHX    CAF  892   4.159   1.856   2.902
  149CHX    CAE  893   4.063   1.882   2.785
  149CHX    CAC  894   3.917   1.872   2.832
  150CHX    CAA  895   1.914   2.154   2.762
  150CHX    CAB  896   1.932   2.294   2.702
  150CHX    CAD  897   1.809   2.334   2.620
  150CHX    CAF  898   1.682   2.325   2.705
  150CHX    CAE  899   1.665   2.183   2.761
  150CHX    CAC  900   1.787   2.145   2.846
  151CHX    CAA  901   2.607   2.529   1.712
  151CHX    CAB  902   2.480   2.614   1.721
  151CHX    CAD  903   2.488   2.735   1.628
  151CHX    CAF  904   2.513   2.691   1.483
  151CHX    CAE  905   2.641   2.606   1.473
  151CHX    CAC  906   2.632   2.485   1.567
  152CHX    CAA  907   0.635   3.750   2.132
  152CHX    CAB  908   0.539   3.664   2.047
  152CHX    CAD  909   0.615   3.594   1.934
  152CHX    CAF  910   0.728   3.507   1.991
  152CHX    CAE  911   0.824   3.591   2.076
  152CHX    CAC  912   0.748   3.662   2.188
  153CHX    CAA  913   3.364   2.475   3.951
  153CHX    CAB  914   3.340   2.331   3.905
  153CHX    CAD  915   3.281   2.329   3.764
  153CHX    CAF  916   3.373   2.402   3.665
  153CHX    CAE  917   3.398   2.547   3.711
  153CHX    CAC  918   3.456   2.549   3.853
  154CHX    CAA  919   4.688   3.605   2.131
  154CHX    CAB  920   4.713   3.555   2.274
  154CHX    CAD  921   4.680   3.664   2.377
  154CHX    CAF  922   4.535   3.709   2.361
  154CHX    CAE  923   4.508   3.761   2.219
  154CHX    CAC  924   4.543   3.654   2.115
  155CHX    CAA  925   2.434   3.080   0.084
  155CHX    CAB  926   2.560   2.993   0.093
  155CHX    CAD  927   2.629   2.985   4.956
  155CHX    CAF  928   2.665   3.125   4.905
  155CHX    CAE  929   2.539   3.212   4.895
  155CHX    CAC  930   2.467   3.220   0.031
  156CHX    CAA  931   3.879   3.261   1.321
  156CHX    CAB  932   3.801   3.254   1.189
  156CHX    CAD  933   3.650   3.275   1.211
  156CHX    CAF  934   3.622   3.406   1.286
  156CHX    CAE  935   3.699   3.410   1.419
  156CHX    CAC  936   3.850   3.393   1.395
  157CHX    CAA  937   3.046   4.199   4.620
  157CHX    CAB  938   3.028   4.118   4.749
  157CHX    CAD  939   3.083   3.976   4.732
  157CHX    CAF  940   3.232   3.980   4.692
  157CHX    CAE  941   3.250   4.061   4.562
  157CHX    CAC  942   3.194   4.203   4.578
  158CHX    CAA  943   0.081   4.330   2.968
  158CHX    CAB  944   0.015   4.455   2.910
  158CHX    CAD  945   4.972   4.553   3.021
  158CHX    CAF  946   0.091   4.588   3.112
  158CHX    CAE  947   0.152   4.461   3.172
  158CHX    CAC  948   0.199   4.366   3.060
  159CHX    CAA  949   0.122   1.406   0.481
  159CHX    CAB  950   0.012   1.386   0.587
  159CHX    CAD  951   0.068   1.417   0.727
  159CHX    CAF  952   0.121   1.561   0.733
  159CHX    CAE  953   0.228   1.584   0.626
  159CHX    CAC  954   0.176   1.550   0.486
  160CHX    CAA  955   3.266   1.993   2.404
  160CHX    CAB  956   3.331   1.859   2.366
  160CHX    CAD  957   3.226   1.761   2.312
  160CHX    CAF  958   3.151   1.822   2.192
  160CHX    CAE  959   3.085   1.955   2.231
  160CHX    CAC  960   3.191   2.053   2.284
  161CHX    CAA  961   4.905   2.293   3.994
  161CHX    CAB  962   4.869   2.335   4.137
  161CHX    CAD  963   4.923   2.474   4.170
  161CHX    CAF  964   4.875   2.578   4.067
  161CHX    CAE  965   4.911   2.535   3.924
  161CHX    CAC  966   4.855   2.396   3.892
  162CHX    CAA  967   4.302   1.197   3.648
  162CHX    CAB  968   4.172   1.219   3.726
  162CHX    CAD  969   4.132   1.367   3.726
  162CHX    CAF  970   4.121   1.422   3.583
  162CHX    CAE  971   4.253   1.400   3.506
  162CHX    CAC  972   4.290   1.251   3.505
  163CHX    CAA  973   3.140   2.930   1.124
  163CHX    CAB  974   3.035   2.874   1.026
  163CHX    CAD  975   2.990   2.734   1.070
  163CHX    CAF  976   2.935   2.735   1.213
  163CHX    CAE  977   3.039   2.792   1.310
  163CHX    CAC  978   3.083   2.932   1.266
  164CHX    CAA  979   4.897   1.490   1.551
  164CHX    CAB  980   4.965   1.419   1.433
  164CHX    CAD  981   0.027   1.286   1.477
  164CHX    CAF  982   4.922   1.194   1.542
  164CHX    CAE  983   4.856   1.266   1.660
  164CHX    CAC  984   4.792   1.398   1.616
  165CHX    CAA  985   0.008   3.070   1.742
  165CHX    CAB  986   4.914   3.189   1.768
  165CHX    CAD  987   4.768   3.143   1.770
  165CHX    CAF  988   4.747   3.033   1.875
  165CHX    CAE  989   4.841   2.915   1.851
  165CHX    CAC  990   4.988   2.960   1.848
  166CHX    CAA  991   4.776   4.999   0.713
  166CHX    CAB  992   4.723   4.886   0.802
  166CHX    CAD  993   4.787   4.752   0.762
  166CHX    CAF  994   4.940   4.760   0.769
  166CHX    CAE  995   4.992   4.874   0.679
  166CHX    CAC  996   4.929   0.007   0.721
  167CHX    CAA  997   2.522   0.221   0.319
  167CHX    CAB  998   2.462   0.167   0.450
  167CHX    CAD  999   2.358   0.266   0.506
  167CHX    CAF 1000   2.248   0.290   0.403
  167CHX    CAE 1001   2.307   0.343   0.272
  167CHX    CAC 1002   2.412   0.247   0.215
  168CHX    CAA 1003   2.838   0.523   4.952
  168CHX    CAB 1004   2.972   0.462   4.910
  168CHX    CAD 1005   3.018   0.355   0.011
  168CHX    CAF 1006   2.911   0.246   0.028
  168CHX    CAE 1007   2.776   0.308   0.068
  168CHX    CAC 1008   2.732   0.414   4.966
  169CHX    CAA 1009   4.267   4.493   0.034
  169CHX    CAB 1010   4.336   4.378   4.959
  169CHX    CAD 1011   4.470   4.345   0.025
  169CHX    CAF 1012   4.451   4.308   0.173
  169CHX    CAE 1013   4.377   4.420   0.248
  169CHX    CAC 1014   4.244   4.455   0.181
  170CHX    CAA 1015   1.719   4.775   0.157
  170CHX    CAB 1016   1.580   4.714   0.135
  170CHX    CAD 1017   1.543   4.620   0.251
  170CHX    CAF 1018   1.548   4.696   0.385
  170CHX    CAE 1019   1.686   4.758   0.408
  170CHX    CAC 1020   1.724   4.850   0.291
  171CHX    CAA 1021   3.800   3.099   2.467
  171CHX    CAB 1022   3.793   3.117   2.315
  171CHX    CAD 1023   3.824   2.985   2.244
  171CHX    CAF 1024   3.730   2.872   2.290
  171CHX    CAE 1025   3.736   2.856   2.443
  171CHX    CAC 1026   3.703   2.988   2.513
  172CHX    CAA 1027   4.000   4.472   4.763
  172CHX    CAB 1028   3.882   4.435   4.854
  172CHX    CAD 1029   3.891   4.514   4.986
  172CHX    CAF 1030   3.891   4.664   4.958
  172CHX    CAE 1031   4.006   4.703   4.863
  172CHX    CAC 1032   4.000   4.622   4.733
  173CHX    CAA 1033   1.514   4.519   1.683
  173CHX    CAB 1034   1.407   4.443   1.762
  173CHX    CAD 1035   1.391   4.300   1.707
  173CHX    CAF 1036   1.525   4.225   1.712
  173CHX    CAE 1037   1.633   4.301   1.633
  173CHX    CAC 1038   1.648   4.444   1.686
  174CHX    CAA 1039   4.215   3.577   1.612
  174CHX    CAB 1040   4.110   3.476   1.657
  174CHX    CAD 1041   4.144   3.421   1.796
  174CHX    CAF 1042   4.157   3.535   1.899
  174CHX    CAE 1043   4.260   3.639   1.853
  174CHX    CAC 1044   4.225   3.692   1.713
  175CHX    CAA 1045   3.864   2.558   1.880
  175CHX    CAB 1046   3.798   2.601   1.748
  175CHX    CAD 1047   3.647   2.570   1.751
  175CHX    CAF 1048   3.579   2.639   1.870
  175CHX    CAE 1049   3.646   2.599   2.002
  175CHX    CAC 1050   3.797   2.629   1.998
  176CHX    CAA 1051   2.796   1.731   2.814
  176CHX    CAB 1052   2.843   1.864   2.752
  176CHX    CAD 1053   2.994   1.862   2.722
  176CHX    CAF 1054   3.029   1.744   2.631
  176CHX    CAE 1055   2.985   1.611   2.695
  176CHX    CAC 1056   2.834   1.613   2.723
  177CHX    CAA 1057   0.401   2.915   1.580
  177CHX    CAB 1058   0.527   2.931   1.494
  177CHX    CAD 1059   0.638   2.836   1.542
  177CHX    CAF 1060   0.589   2.690   1.541
  177CHX    CAE 1061   0.462   2.674   1.627
  177CHX    CAC 1062   0.352   2.770   1.578
  178CHX    CAA 1063   0.496   4.779   1.461
  178CHX    CAB 1064   0.614   4.816   1.552
  178CHX    CAD 1065   0.653   4.964   1.533
  178CHX    CAF 1066   0.628   0.024   1.393
  178CHX    CAE 1067   0.629   4.917   1.283
  178CHX    CAC 1068   0.528   4.803   1.312
  179CHX    CAA 1069   3.795   3.786   1.377
  179CHX    CAB 1070   3.790   3.926   1.315
  179CHX    CAD 1071   3.793   4.033   1.424
  179CHX    CAF 1072   3.919   4.018   1.511
  179CHX    CAE 1073   3.928   3.877   1.571
  179CHX    CAC 1074   3.923   3.770   1.461
  180CHX    CAA 1075   2.355   0.265   2.292
  180CHX    CAB 1076   2.433   0.278   2.160
  180CHX    CAD 1077   2.552   0.181   2.158
  180CHX    CAF 1078   2.504   0.037   2.179
  180CHX    CAE 1079   2.426   0.023   2.311
  180CHX    CAC 1080   2.308   0.121   2.315
  181CHX    CAA 1081   3.118   4.357   2.188
  181CHX    CAB 1082   3.009   4.266   2.246
  181CHX    CAD 1083   3.067   4.165   2.347
  181CHX    CAF 1084   3.145   4.238   2.458
  181CHX    CAE 1085   3.256   4.325   2.398
  181CHX    CAC 1086   3.196   4.428   2.300
  182CHX    CAA 1087   2.444   0.683   3.449
  182CHX    CAB 1088   2.333   0.584   3.483
  182CHX    CAD 1089   2.390   0.442   3.499
  182CHX    CAF 1090   2.501   0.437   3.604
  182CHX    CAE 1091   2.612   0.538   3.571
  182CHX    CAC 1092   2.554   0.680   3.556
  183CHX    CAA 1093   4.382   3.062   0.920
  183CHX    CAB 1094   4.289   2.962   0.989
  183CHX    CAD 1095   4.161   3.032   1.037
  183CHX    CAF 1096   4.088   3.101   0.921
  183CHX    CAE 1097   4.182   3.200   0.850
  183CHX    CAC 1098   4.310   3.131   0.802
  184CHX    CAA 1099   4.213   0.927   1.862
  184CHX    CAB 1100   4.095   0.830   1.874
  184CHX    CAD 1101   4.127   0.696   1.805
  184CHX    CAF 1102   4.254   0.633   1.864
  184CHX    CAE 1103   4.372   0.730   1.851
  184CHX    CAC 1104   4.341   0.864   1.920
  185CHX    CAA 1105   3.392   0.155   0.510
  185CHX    CAB 1106   3.378   0.307   0.501
  185CHX    CAD 1107   3.382   0.354   0.355
  185CHX    CAF 1108   3.273   0.284   0.272
  185CHX    CAE 1109   3.287   0.132   0.281
  185CHX    CAC 1110   3.283   0.085   0.428
  186CHX    CAA 1111   0.173   1.458   4.930
  186CHX    CAB 1112   0.068   1.352   4.972
  186CHX    CAD 1113   0.097   1.278   0.104
  186CHX    CAF 1114   0.246   1.278   0.140
  186CHX    CAE 1115   0.306   1.420   0.145
  186CHX    CAC 1116   0.238   1.524   0.053
  187CHX    CAA 1117   2.769   1.527   0.413
  187CHX    CAB 1118   2.719   1.419   0.316
  187CHX    CAD 1119   2.837   1.341   0.256
  187CHX    CAF 1120   2.924   1.279   0.367
  187CHX    CAE 1121   2.975   1.389   0.462
  187CHX    CAC 1122   2.857   1.466   0.523
  188CHX    CAA 1123   3.661   4.761   3.242
  188CHX    CAB 1124   3.686   4.896   3.311
  188CHX    CAD 1125   3.822   4.959   3.274
  188CHX    CAF 1126   3.885   4.909   3.143
  188CHX    CAE 1127   3.779   4.872   3.039
  188CHX    CAC 1128   3.679   4.766   3.090
  189CHX    CAA 1129   3.165   2.963   2.149
  189CHX    CAB 1130   3.245   3.048   2.248
  189CHX    CAD 1131   3.394   3.016   2.239
  189CHX    CAF 1132   3.445   3.036   2.095
  189CHX    CAE 1133   3.367   2.948   1.997
  189CHX    CAC 1134   3.217   2.979   2.005
  190CHX    CAA 1135   0.115   4.895   1.646
  190CHX    CAB 1136   0.134   4.811   1.520
  190CHX    CAD 1137   4.999   4.766   1.462
  190CHX    CAF 1138   4.911   4.889   1.433
  190CHX    CAE 1139   4.890   4.973   1.560
  190CHX    CAC 1140   0.025   0.017   1.618
  191CHX    CAA 1141   2.399   3.585   0.140
  191CHX    CAB 1142   2.250   3.622   0.136
  191CHX    CAD 1143   2.190   3.624   0.277
  191CHX    CAF 1144   2.270   3.719   0.368
  191CHX    CAE 1145   2.419   3.682   0.371
  191CHX    CAC 1146   2.477   3.682   0.229
  192CHX    CAA 1147   0.273   0.895   0.119
  192CHX    CAB 1148   0.405   0.854   0.188
  192CHX    CAD 1149   0.377   0.794   0.327
  192CHX    CAF 1150   0.282   0.674   0.315
  192CHX    CAE 1151   0.151   0.713   0.245
  192CHX    CAC 1152   0.178   0.775   0.108
  193CHX    CAA 1153   4.612   0.826   0.092
  193CHX    CAB 1154   4.490   0.745   0.138
  193CHX    CAD 1155   4.507   0.597   0.102
  193CHX    CAF 1156   4.638   0.541   0.161
  193CHX    CAE 1157   4.759   0.623   0.114
  193CHX    CAC 1158   4.742   0.771   0.152
  194CHX    CAA 1159   3.560   2.700   2.890
  194CHX    CAB 1160   3.537   2.680   2.739
  194CHX    CAD 1161   3.402   2.740   2.697
  194CHX    CAF 1162   3.395   2.889   2.733
  194CHX    CAE 1163   3.417   2.909   2.884
  194CHX    CAC 1164   3.552   2.848   2.927
  195CHX    CAA 1165   3.512   2.229   1.866
  195CHX    CAB 1166   3.634   2.208   1.957
  195CHX    CAD 1167   3.593   2.135   2.086
  195CHX    CAF 1168   3.523   2.002   2.055
  195CHX    CAE 1169   3.404   2.021   1.961
  195CHX    CAC 1170   3.447   2.094   1.833
  196CHX    CAA 1171   2.800   1.184   1.233
  196CHX    CAB 1172   2.767   1.104   1.359
  196CHX    CAD 1173   2.618   1.113   1.393
  196CHX    CAF 1174   2.533   1.065   1.274
  196CHX    CAE 1175   2.565   1.145   1.148
  196CHX    CAC 1176   2.715   1.137   1.114
  197CHX    CAA 1177   1.591   1.665   0.799
  197CHX    CAB 1178   1.495   1.550   0.833
  197CHX    CAD 1179   1.569   1.437   0.908
  197CHX    CAF 1180   1.637   1.492   1.034
  197CHX    CAE 1181   1.734   1.606   0.999
  197CHX    CAC 1182   1.660   1.718   0.925
  198CHX    CAA 1183   1.399   0.556   3.660
  198CHX    CAB 1184   1.310   0.570   3.784
  198CHX    CAD 1185   1.302   0.716   3.829
  198CHX    CAF 1186   1.251   0.806   3.715
  198CHX    CAE 1187   1.340   0.791   3.590
  198CHX    CAC 1188   1.348   0.645   3.546
  199CHX    CAA 1189   0.511   2.039   2.847
  199CHX    CAB 1190   0.420   2.041   2.971
  199CHX    CAD 1191   0.315   2.153   2.959
  199CHX    CAF 1192   0.232   2.136   2.830
  199CHX    CAE 1193   0.323   2.133   2.707
  199CHX    CAC 1194   0.428   2.021   2.719
  200CHX    CAA 1195   3.711   2.844   4.277
  200CHX    CAB 1196   3.608   2.756   4.349
  200CHX    CAD 1197   3.541   2.658   4.252
  200CHX    CAF 1198   3.647   2.572   4.181
  200CHX    CAE 1199   3.748   2.661   4.108
  200CHX    CAC 1200   3.816   2.758   4.206
  201CHX    CAA 1201   2.029   0.629   4.505
  201CHX    CAB 1202   2.158   0.710   4.486
  201CHX    CAD 1203   2.137   0.856   4.530
  201CHX    CAF 1204   2.084   0.865   4.674
  201CHX    CAE 1205   1.956   0.782   4.691
  201CHX    CAC 1206   1.981   0.636   4.651
  202CHX    CAA 1207   1.351   0.902   1.839
  202CHX    CAB 1208   1.502   0.873   1.832
  202CHX    CAD 1209   1.536   0.795   1.704
  202CHX    CAF 1210   1.490   0.874   1.580
  202CHX    CAE 1211   1.339   0.903   1.587
  202CHX    CAC 1212   1.305   0.980   1.715
  203CHX    CAA 1213   1.955   4.314   4.212
  203CHX    CAB 1214   1.979   4.463   4.235
  203CHX    CAD 1215   2.128   4.498   4.229
  203CHX    CAF 1216   2.189   4.453   4.095
  203CHX    CAE 1217   2.166   4.303   4.073
  203CHX    CAC 1218   2.017   4.269   4.079
  204CHX    CAA 1219   3.008   0.919   2.003
  204CHX    CAB 1220   3.084   1.017   2.094
  204CHX    CAD 1221   3.235   1.011   2.067
  204CHX    CAF 1222   3.265   1.042   1.920
  204CHX    CAE 1223   3.190   0.944   1.828
  204CHX    CAC 1224   3.039   0.948   1.855
  205CHX    CAA 1225   0.173   0.392   4.005
  205CHX    CAB 1226   0.072   0.434   4.113
  205CHX    CAD 1227   0.047   0.320   4.213
  205CHX    CAF 1228   0.179   0.269   4.273
  205CHX    CAE 1229   0.278   0.228   4.164
  205CHX    CAC 1230   0.304   0.344   4.069
  206CHX    CAA 1231   0.502   3.625   4.186
  206CHX    CAB 1232   0.542   3.487   4.132
  206CHX    CAD 1233   0.679   3.493   4.064
  206CHX    CAF 1234   0.785   3.547   4.162
  206CHX    CAE 1235   0.747   3.686   4.212
  206CHX    CAC 1236   0.610   3.681   4.281
  207CHX    CAA 1237   2.190   4.196   3.701
  207CHX    CAB 1238   2.283   4.078   3.671
  207CHX    CAD 1239   2.245   3.956   3.756
  207CHX    CAF 1240   2.098   3.918   3.732
  207CHX    CAE 1241   2.005   4.037   3.759
  207CHX    CAC 1242   2.044   4.158   3.673
  208CHX    CAA 1243   4.163   4.514   4.299
  208CHX    CAB 1244   4.195   4.365   4.314
  208CHX    CAD 1245   4.120   4.306   4.434
  208CHX    CAF 1246   3.968   4.327   4.418
  208CHX    CAE 1247   3.934   4.476   4.401
  208CHX    CAC 1248   4.012   4.538   4.284
  209CHX    CAA 1249   4.459   0.731   3.571
  209CHX    CAB 1250   4.329   0.647   3.569
  209CHX    CAD 1251   4.344   0.523   3.658
  209CHX    CAF 1252   4.380   0.563   3.802
  209CHX    CAE 1253   4.509   0.647   3.804
  209CHX    CAC 1254   4.495   0.771   3.714
  210CHX    CAA 1255   1.309   2.725   4.040
  210CHX    CAB 1256   1.182   2.647   4.079
  210CHX    CAD 1257   1.183   2.594   4.224
  210CHX    CAF 1258   1.295   2.649   4.314
  210CHX    CAE 1259   1.316   2.799   4.290
  210CHX    CAC 1260   1.341   2.835   4.142
  211CHX    CAA 1261   3.854   2.634   4.646
  211CHX    CAB 1262   3.858   2.536   4.763
  211CHX    CAD 1263   3.771   2.413   4.732
  211CHX    CAF 1264   3.817   2.344   4.602
  211CHX    CAE 1265   3.818   2.443   4.485
  211CHX    CAC 1266   3.904   2.566   4.518
  212CHX    CAA 1267   3.929   3.854   4.313
  212CHX    CAB 1268   3.977   3.713   4.280
  212CHX    CAD 1269   4.107   3.717   4.198
  212CHX    CAF 1270   4.215   3.795   4.275
  212CHX    CAE 1271   4.167   3.937   4.308
  212CHX    CAC 1272   4.037   3.932   4.389
  213CHX    CAA 1273   3.042   2.236   3.472
  213CHX    CAB 1274   2.930   2.289   3.383
  213CHX    CAD 1275   2.828   2.179   3.352
  213CHX    CAF 1276   2.772   2.120   3.483
  213CHX    CAE 1277   2.885   2.066   3.571
  213CHX    CAC 1278   2.986   2.177   3.602
  214CHX    CAA 1279   1.245   0.757   4.297
  214CHX    CAB 1280   1.126   0.740   4.201
  214CHX    CAD 1281   1.071   0.877   4.159
  214CHX    CAF 1282   1.181   0.962   4.093
  214CHX    CAE 1283   1.302   0.977   4.186
  214CHX    CAC 1284   1.356   0.840   4.230
  215CHX    CAA 1285   2.842   1.424   3.817
  215CHX    CAB 1286   2.913   1.557   3.845
  215CHX    CAD 1287   2.918   1.644   3.719
  215CHX    CAF 1288   2.776   1.669   3.665
  215CHX    CAE 1289   2.707   1.535   3.634
  215CHX    CAC 1290   2.701   1.447   3.760
  216CHX    CAA 1291   1.711   1.055   2.269
  216CHX    CAB 1292   1.858   1.090   2.295
  216CHX    CAD 1293   1.949   0.967   2.278
  216CHX    CAF 1294   1.931   0.905   2.138
  216CHX    CAE 1295   1.783   0.869   2.115
  216CHX    CAC 1296   1.694   0.993   2.130
  217CHX    CAA 1297   4.355   2.599   1.183
  217CHX    CAB 1298   4.274   2.502   1.096
  217CHX    CAD 1299   4.285   2.359   1.151
  217CHX    CAF 1300   4.238   2.354   1.297
  217CHX    CAE 1301   4.318   2.451   1.385
  217CHX    CAC 1302   4.311   2.594   1.329
  218CHX    CAA 1303   1.635   0.350   4.119
  218CHX    CAB 1304   1.555   0.450   4.035
  218CHX    CAD 1305   1.596   0.594   4.068
  218CHX    CAF 1306   1.748   0.612   4.048
  218CHX    CAE 1307   1.826   0.513   4.135
  218CHX    CAC 1308   1.786   0.369   4.099
  219CHX    CAA 1309   4.396   2.782   2.187
  219CHX    CAB 1310   4.341   2.825   2.324
  219CHX    CAD 1311   4.197   2.877   2.312
  219CHX    CAF 1312   4.107   2.772   2.246
  219CHX    CAE 1313   4.162   2.730   2.109
  219CHX    CAC 1314   4.305   2.676   2.125
  220CHX    CAA 1315   1.677   4.559   2.032
  220CHX    CAB 1316   1.777   4.671   2.000
  220CHX    CAD 1317   1.750   4.792   2.091
  220CHX    CAF 1318   1.761   4.752   2.239
  220CHX    CAE 1319   1.661   4.640   2.270
  220CHX    CAC 1320   1.686   4.519   2.179
  221CHX    CAA 1321   2.485   4.107   4.108
  221CHX    CAB 1322   2.517   4.129   3.959
  221CHX    CAD 1323   2.514   4.279   3.923
  221CHX    CAF 1324   2.610   4.358   4.014
  221CHX    CAE 1325   2.575   4.337   4.162
  221CHX    CAC 1326   2.581   4.188   4.197
  222CHX    CAA 1327   2.930   4.731   1.274
  222CHX    CAB 1328   2.969   4.734   1.422
  222CHX    CAD 1329   3.067   4.849   1.449
  222CHX    CAF 1330   3.008   4.983   1.404
  222CHX    CAE 1331   2.970   4.978   1.256
  222CHX    CAC 1332   2.870   4.865   1.230
  223CHX    CAA 1333   2.994   1.467   2.167
  223CHX    CAB 1334   2.920   1.340   2.121
  223CHX    CAD 1335   2.860   1.264   2.240
  223CHX    CAF 1336   2.768   1.355   2.322
  223CHX    CAE 1337   2.845   1.479   2.369
  223CHX    CAC 1338   2.901   1.556   2.249
  224CHX    CAA 1339   1.315   0.538   1.968
  224CHX    CAB 1340   1.458   0.496   1.931
  224CHX    CAD 1341   1.519   0.412   2.044
  224CHX    CAF 1342   1.432   0.288   2.073
  224CHX    CAE 1343   1.290   0.331   2.111
  224CHX    CAC 1344   1.227   0.416   1.999
  225CHX    CAA 1345   1.253   0.465   1.044
  225CHX    CAB 1346   1.285   0.316   1.066
  225CHX    CAD 1347   1.237   0.270   1.205
  225CHX    CAF 1348   1.087   0.297   1.222
  225CHX    CAE 1349   1.055   0.446   1.201
  225CHX    CAC 1350   1.103   0.492   1.062
  226CHX    CAA 1351   3.498   3.336   0.639
  226CHX    CAB 1352   3.414   3.449   0.578
  226CHX    CAD 1353   3.278   3.395   0.531
  226CHX    CAF 1354   3.203   3.324   0.644
  226CHX    CAE 1355   3.289   3.213   0.707
  226CHX    CAC 1356   3.422   3.271   0.756
  227CHX    CAA 1357   3.751   2.513   0.746
  227CHX    CAB 1358   3.629   2.424   0.771
  227CHX    CAD 1359   3.673   2.282   0.807
  227CHX    CAF 1360   3.768   2.281   0.927
  227CHX    CAE 1361   3.889   2.372   0.903
  227CHX    CAC 1362   3.843   2.514   0.869
  228CHX    CAA 1363   4.536   0.755   0.933
  228CHX    CAB 1364   4.651   0.668   0.880
  228CHX    CAD 1365   4.761   0.648   0.986
  228CHX    CAF 1366   4.702   0.591   1.116
  228CHX    CAE 1367   4.589   0.681   1.168
  228CHX    CAC 1368   4.479   0.696   1.063
  229CHX    CAA 1369   3.695   1.511   3.139
  229CHX    CAB 1370   3.595   1.397   3.114
  229CHX    CAD 1371   3.486   1.397   3.221
  229CHX    CAF 1372   3.412   1.531   3.221
  229CHX    CAE 1373   3.509   1.646   3.247
  229CHX    CAC 1374   3.622   1.646   3.142
  230CHX    CAA 1375   3.535   0.365   4.953
  230CHX    CAB 1376   3.571   0.462   4.840
  230CHX    CAD 1377   3.586   0.387   4.707
  230CHX    CAF 1378   3.459   0.307   4.674
  230CHX    CAE 1379   3.423   0.211   4.788
  230CHX    CAC 1380   3.407   0.288   4.920
  231CHX    CAA 1381   2.194   4.448   3.400
  231CHX    CAB 1382   2.269   4.545   3.493
  231CHX    CAD 1383   2.382   4.474   3.567
  231CHX    CAF 1384   2.479   4.406   3.469
  231CHX    CAE 1385   2.404   4.310   3.375
  231CHX    CAC 1386   2.291   4.383   3.301
  232CHX    CAA 1387   3.969   3.079   3.349
  232CHX    CAB 1388   3.960   3.208   3.432
  232CHX    CAD 1389   4.025   3.325   3.356
  232CHX    CAF 1390   3.960   3.344   3.218
  232CHX    CAE 1391   3.969   3.215   3.136
  232CHX    CAC 1392   3.903   3.099   3.212
  233CHX    CAA 1393   2.915   4.958   2.263
  233CHX    CAB 1394   2.850   4.819   2.273
  233CHX    CAD 1395   2.917   4.713   2.183
  233CHX    CAF 1396   3.054   4.753   2.124
  233CHX    CAE 1397   3.139   4.828   2.227
  233CHX    CAC 1398   3.066   4.949   2.291
  234CHX    CAA 1399   0.426   4.228   2.765
  234CHX    CAB 1400   0.527   4.210   2.651
  234CHX    CAD 1401   0.671   4.215   2.705
  234CHX    CAF 1402   0.693   4.108   2.814
  234CHX    CAE 1403   0.592   4.126   2.928
  234CHX    CAC 1404   0.448   4.122   2.874
  235CHX    CAA 1405   1.669   3.513   4.824
  235CHX    CAB 1406   1.540   3.469   4.753
  235CHX    CAD 1407   1.498   3.574   4.648
  235CHX    CAF 1408   1.611   3.597   4.547
  235CHX    CAE 1409   1.739   3.643   4.617
  235CHX    CAC 1410   1.781   3.540   4.723
  236CHX    CAA 1411   3.404   0.386   1.353
  236CHX    CAB 1412   3.423   0.262   1.442
  236CHX    CAD 1413   3.334   0.147   1.394
  236CHX    CAF 1414   3.361   0.113   1.247
  236CHX    CAE 1415   3.344   0.237   1.158
  236CHX    CAC 1416   3.432   0.353   1.207
  237CHX    CAA 1417   3.704   1.071   2.215
  237CHX    CAB 1418   3.697   0.970   2.331
  237CHX    CAD 1419   3.577   0.876   2.315
  237CHX    CAF 1420   3.582   0.803   2.180
  237CHX    CAE 1421   3.590   0.903   2.064
  237CHX    CAC 1422   3.710   0.997   2.081
  238CHX    CAA 1423   1.653   0.346   2.754
  238CHX    CAB 1424   1.631   0.465   2.849
  238CHX    CAD 1425   1.550   0.576   2.781
  238CHX    CAF 1426   1.418   0.524   2.724
  238CHX    CAE 1427   1.444   0.406   2.629
  238CHX    CAC 1428   1.520   0.294   2.700
  239CHX    CAA 1429   0.422   3.607   4.832
  239CHX    CAB 1430   0.271   3.630   4.846
  239CHX    CAD 1431   0.241   3.726   4.962
  239CHX    CAF 1432   0.315   3.859   4.944
  239CHX    CAE 1433   0.466   3.835   4.931
  239CHX    CAC 1434   0.496   3.741   4.814
  240CHX    CAA 1435   2.186   2.922   1.459
  240CHX    CAB 1436   2.223   3.048   1.538
  240CHX    CAD 1437   2.110   3.151   1.532
  240CHX    CAF 1438   1.978   3.092   1.583
  240CHX    CAE 1439   1.941   2.966   1.504
  240CHX    CAC 1440   2.054   2.863   1.511
  241CHX    CAA 1441   4.252   1.498   1.111
  241CHX    CAB 1442   4.338   1.562   1.221
  241CHX    CAD 1443   4.444   1.464   1.272
  241CHX    CAF 1444   4.533   1.416   1.156
  241CHX    CAE 1445   4.448   1.352   1.045
  241CHX    CAC 1446   4.341   1.450   0.995
  242CHX    CAA 1447   2.406   4.269   0.477
  242CHX    CAB 1448   2.301   4.379   0.497
  242CHX    CAD 1449   2.349   4.480   0.602
  242CHX    CAF 1450   2.484   4.541   0.563
  242CHX    CAE 1451   2.589   4.431   0.541
  242CHX    CAC 1452   2.541   4.331   0.436
  243CHX    CAA 1453   3.026   2.045   4.581
  243CHX    CAB 1454   2.913   1.952   4.629
  243CHX    CAD 1455   2.821   2.026   4.726
  243CHX    CAF 1456   2.763   2.152   4.661
  243CHX    CAE 1457   2.875   2.245   4.613
  243CHX    CAC 1458   2.968   2.172   4.516
  244CHX    CAA 1459   1.649   2.995   4.547
  244CHX    CAB 1460   1.660   3.132   4.614
  244CHX    CAD 1461   1.774   3.215   4.553
  244CHX    CAF 1462   1.754   3.230   4.402
  244CHX    CAE 1463   1.747   3.092   4.335
  244CHX    CAC 1464   1.633   3.009   4.395
  245CHX    CAA 1465   4.281   3.320   2.592
  245CHX    CAB 1466   4.260   3.173   2.552
  245CHX    CAD 1467   4.385   3.087   2.578
  245CHX    CAF 1468   4.520   3.161   2.572
  245CHX    CAE 1469   4.515   3.284   2.480
  245CHX    CAC 1470   4.404   3.383   2.523
  246CHX    CAA 1471   1.641   0.636   0.089
  246CHX    CAB 1472   1.681   0.643   4.940
  246CHX    CAD 1473   1.699   0.502   4.882
  246CHX    CAF 1474   1.571   0.420   4.898
  246CHX    CAE 1475   1.529   0.412   0.046
  246CHX    CAC 1476   1.514   0.552   0.107
  247CHX    CAA 1477   0.413   2.319   2.301
  247CHX    CAB 1478   0.501   2.334   2.426
  247CHX    CAD 1479   0.611   2.227   2.428
  247CHX    CAF 1480   0.696   2.234   2.300
  247CHX    CAE 1481   0.608   2.219   2.176
  247CHX    CAC 1482   0.498   2.326   2.173
  248CHX    CAA 1483   1.238   2.888   1.736
  248CHX    CAB 1484   1.252   2.833   1.879
  248CHX    CAD 1485   1.211   2.686   1.884
  248CHX    CAF 1486   1.289   2.601   1.783
  248CHX    CAE 1487   1.276   2.658   1.641
  248CHX    CAC 1488   1.321   2.805   1.637
  249CHX    CAA 1489   2.109   0.641   1.842
  249CHX    CAB 1490   2.136   0.556   1.967
  249CHX    CAD 1491   2.012   0.553   2.058
  249CHX    CAF 1492   1.889   0.503   1.982
  249CHX    CAE 1493   1.863   0.588   1.856
  249CHX    CAC 1494   1.987   0.588   1.766
  250CHX    CAA 1495   1.864   0.942   3.909
  250CHX    CAB 1496   1.844   0.908   3.760
  250CHX    CAD 1497   1.705   0.847   3.737
  250CHX    CAF 1498   1.595   0.941   3.787
  250CHX    CAE 1499   1.613   0.973   3.936
  250CHX    CAC 1500   1.752   1.034   3.960
  251CHX    CAA 1501   0.266   2.246   4.074
  251CHX    CAB 1502   0.315   2.319   3.948
  251CHX    CAD 1503   0.278   2.469   3.953
  251CHX    CAF 1504   0.333   2.535   4.080
  251CHX    CAE 1505   0.284   2.462   4.206
  251CHX    CAC 1506   0.320   2.313   4.201
  252CHX    CAA 1507   0.894   1.190   2.442
  252CHX    CAB 1508   0.765   1.230   2.370
  252CHX    CAD 1509   0.733   1.129   2.258
  252CHX    CAF 1510   0.721   0.987   2.315
  252CHX    CAE 1511   0.850   0.947   2.387
  252CHX    CAC 1512   0.883   1.048   2.499
  253CHX    CAA 1513   1.617   1.009   0.446
  253CHX    CAB 1514   1.679   1.136   0.385
  253CHX    CAD 1515   1.587   1.257   0.405
  253CHX    CAF 1516   1.557   1.278   0.554
  253CHX    CAE 1517   1.494   1.152   0.615
  253CHX    CAC 1518   1.585   1.030   0.595
  254CHX    CAA 1519   4.382   0.111   0.956
  254CHX    CAB 1520   4.264   0.176   0.884
  254CHX    CAD 1521   4.269   0.328   0.901
  254CHX    CAF 1522   4.401   0.385   0.848
  254CHX    CAE 1523   4.519   0.320   0.921
  254CHX    CAC 1524   4.515   0.167   0.905
  255CHX    CAA 1525   2.674   3.265   2.364
  255CHX    CAB 1526   2.562   3.197   2.443
  255CHX    CAD 1527   2.528   3.060   2.383
  255CHX    CAF 1528   2.653   2.971   2.380
  255CHX    CAE 1529   2.766   3.038   2.301
  255CHX    CAC 1530   2.799   3.176   2.359
  256CHX    CAA 1531   4.835   4.255   0.008
  256CHX    CAB 1532   4.890   4.146   0.102
  256CHX    CAD 1533   4.891   4.009   0.033
  256CHX    CAF 1534   4.969   4.013   4.901
  256CHX    CAE 1535   4.913   4.121   4.807
  256CHX    CAC 1536   4.915   4.259   4.876
  257CHX    CAA 1537   0.164   1.840   1.625
  257CHX    CAB 1538   0.311   1.818   1.666
  257CHX    CAD 1539   0.393   1.768   1.546
  257CHX    CAF 1540   0.384   1.867   1.429
  257CHX    CAE 1541   0.238   1.889   1.389
  257CHX    CAC 1542   0.155   1.939   1.508
  258CHX    CAA 1543   3.364   0.510   1.729
  258CHX    CAB 1544   3.384   0.486   1.879
  258CHX    CAD 1545   3.297   0.582   1.961
  258CHX    CAF 1546   3.149   0.565   1.923
  258CHX    CAE 1547   3.128   0.589   1.773
  258CHX    CAC 1548   3.217   0.496   1.689
  259CHX    CAA 1549   4.609   3.042   3.331
  259CHX    CAB 1550   4.506   3.156   3.344
  259CHX    CAD 1551   4.362   3.103   3.352
  259CHX    CAF 1552   4.344   3.001   3.466
  259CHX    CAE 1553   4.471   2.923   3.506
  259CHX    CAC 1554   4.567   2.906   3.389
  260CHX    CAA 1555   2.470   3.162   1.788
  260CHX    CAB 1556   2.490   3.305   1.734
  260CHX    CAD 1557   2.418   3.407   1.824
  260CHX    CAF 1558   2.464   3.395   1.970
  260CHX    CAE 1559   2.447   3.252   2.022
  260CHX    CAC 1560   2.521   3.152   1.933
  261CHX    CAA 1561   2.515   1.863   3.455
  261CHX    CAB 1562   2.403   1.968   3.447
  261CHX    CAD 1563   2.428   2.066   3.331
  261CHX    CAF 1564   2.440   1.989   3.199
  261CHX    CAE 1565   2.552   1.884   3.206
  261CHX    CAC 1566   2.527   1.787   3.322
  262CHX    CAA 1567   0.086   4.572   4.470
  262CHX    CAB 1568   0.045   4.582   4.322
  262CHX    CAD 1569   0.017   4.442   4.265
  262CHX    CAF 1570   4.909   4.370   4.348
  262CHX    CAE 1571   4.951   4.360   4.495
  262CHX    CAC 1572   4.978   4.500   4.552
  263CHX    CAA 1573   2.088   3.574   2.358
  263CHX    CAB 1574   2.015   3.439   2.368
  263CHX    CAD 1575   2.087   3.333   2.284
  263CHX    CAF 1576   2.234   3.321   2.325
  263CHX    CAE 1577   2.306   3.456   2.314
  263CHX    CAC 1578   2.235   3.562   2.400
  264CHX    CAA 1579   1.882   2.085   0.883
  264CHX    CAB 1580   1.735   2.115   0.915
  264CHX    CAD 1581   1.657   2.144   0.786
  264CHX    CAF 1582   1.669   2.026   0.689
  264CHX    CAE 1583   1.816   1.994   0.657
  264CHX    CAC 1584   1.893   1.966   0.786
  265CHX    CAA 1585   1.451   1.433   2.991
  265CHX    CAB 1586   1.558   1.340   3.052
  265CHX    CAD 1587   1.498   1.258   3.167
  265CHX    CAF 1588   1.377   1.177   3.119
  265CHX    CAE 1589   1.271   1.268   3.056
  265CHX    CAC 1590   1.330   1.352   2.942
  266CHX    CAA 1591   4.096   2.744   0.749
  266CHX    CAB 1592   4.174   2.617   0.714
  266CHX    CAD 1593   4.111   2.546   0.592
  266CHX    CAF 1594   4.103   2.641   0.472
  266CHX    CAE 1595   4.024   2.767   0.508
  266CHX    CAC 1596   4.088   2.838   0.628
  267CHX    CAA 1597   0.751   1.828   0.525
  267CHX    CAB 1598   0.748   1.964   0.596
  267CHX    CAD 1599   0.765   2.079   0.496
  267CHX    CAF 1600   0.659   2.072   0.385
  267CHX    CAE 1601   0.663   1.935   0.315
  267CHX    CAC 1602   0.643   1.821   0.416
  268CHX    CAA 1603   1.638   2.613   4.574
  268CHX    CAB 1604   1.689   2.611   4.430
  268CHX    CAD 1605   1.838   2.649   4.425
  268CHX    CAF 1606   1.922   2.554   4.512
  268CHX    CAE 1607   1.871   2.557   4.657
  268CHX    CAC 1608   1.722   2.520   4.662
  269CHX    CAA 1609   1.694   0.204   1.801
  269CHX    CAB 1610   1.758   0.262   1.674
  269CHX    CAD 1611   1.889   0.190   1.641
  269CHX    CAF 1612   1.866   0.039   1.629
  269CHX    CAE 1613   1.799   4.981   1.754
  269CHX    CAC 1614   1.668   0.054   1.785
  270CHX    CAA 1615   0.529   2.300   3.459
  270CHX    CAB 1616   0.509   2.242   3.601
  270CHX    CAD 1617   0.569   2.102   3.613
  270CHX    CAF 1618   0.515   2.003   3.507
  270CHX    CAE 1619   0.451   2.066   3.382
  270CHX    CAC 1620   0.521   2.198   3.344
  271CHX    CAA 1621   1.612   3.107   1.211
  271CHX    CAB 1622   1.730   3.166   1.288
  271CHX    CAD 1623   1.850   3.190   1.195
  271CHX    CAF 1624   1.811   3.279   1.077
  271CHX    CAE 1625   1.692   3.220   1.000
  271CHX    CAC 1626   1.572   3.198   1.093
  272CHX    CAA 1627   4.899   4.499   1.916
  272CHX    CAB 1628   4.910   4.610   1.810
  272CHX    CAD 1629   4.773   4.647   1.753
  272CHX    CAF 1630   4.676   4.688   1.865
  272CHX    CAE 1631   4.664   4.575   1.969
  272CHX    CAC 1632   4.802   4.542   2.028
  273CHX    CAA 1633   0.072   2.283   0.773
  273CHX    CAB 1634   0.129   2.284   0.630
  273CHX    CAD 1635   0.057   2.388   0.543
  273CHX    CAF 1636   0.067   2.528   0.607
  273CHX    CAE 1637   0.010   2.527   0.749
  273CHX    CAC 1638   0.081   2.422   0.836
  274CHX    CAA 1639   1.118   2.413   3.741
  274CHX    CAB 1640   1.103   2.291   3.832
  274CHX    CAD 1641   0.964   2.228   3.817
  274CHX    CAF 1642   0.934   2.193   3.670
  274CHX    CAE 1643   0.948   2.317   3.581
  274CHX    CAC 1644   1.089   2.377   3.595
  275CHX    CAA 1645   1.408   2.366   4.816
  275CHX    CAB 1646   1.446   2.466   4.926
  275CHX    CAD 1647   1.366   2.437   0.054
  275CHX    CAF 1648   1.389   2.293   0.102
  275CHX    CAE 1649   1.352   2.193   4.992
  275CHX    CAC 1650   1.431   2.222   4.864
  276CHX    CAA 1651   2.095   0.302   4.333
  276CHX    CAB 1652   2.235   0.362   4.350
  276CHX    CAD 1653   2.328   0.265   4.424
  276CHX    CAF 1654   2.334   0.129   4.353
  276CHX    CAE 1655   2.193   0.070   4.340
  276CHX    CAC 1656   2.103   0.167   4.262
  277CHX    CAA 1657   2.021   4.583   3.766
  277CHX    CAB 1658   1.913   4.482   3.806
  277CHX    CAD 1659   1.802   4.551   3.887
  277CHX    CAF 1660   1.740   4.666   3.807
  277CHX    CAE 1661   1.848   4.767   3.765
  277CHX    CAC 1662   1.960   4.699   3.686
  278CHX    CAA 1663   0.365   3.112   3.956
  278CHX    CAB 1664   0.416   3.051   4.088
  278CHX    CAD 1665   0.431   2.899   4.074
  278CHX    CAF 1666   0.525   2.863   3.959
  278CHX    CAE 1667   0.474   2.924   3.827
  278CHX    CAC 1668   0.460   3.076   3.840
  279CHX    CAA 1669   2.317   0.219   1.289
  279CHX    CAB 1670   2.298   0.126   1.410
  279CHX    CAD 1671   2.366   4.990   1.384
  279CHX    CAF 1672   2.514   0.009   1.352
  279CHX    CAE 1673   2.533   0.101   1.231
  279CHX    CAC 1674   2.466   0.237   1.257
  280CHX    CAA 1675   2.628   4.829   1.638
  280CHX    CAB 1676   2.523   4.851   1.748
  280CHX    CAD 1677   2.578   4.809   1.885
  280CHX    CAF 1678   2.707   4.886   1.917
  280CHX    CAE 1679   2.812   4.864   1.807
  280CHX    CAC 1680   2.757   4.905   1.671
  281CHX    CAA 1681   4.787   0.815   2.308
  281CHX    CAB 1682   4.677   0.813   2.415
  281CHX    CAD 1683   4.539   0.825   2.351
  281CHX    CAF 1684   4.516   0.715   2.247
  281CHX    CAE 1685   4.625   0.718   2.140
  281CHX    CAC 1686   4.764   0.704   2.204
  282CHX    CAA 1687   0.081   0.403   4.617
  282CHX    CAB 1688   0.096   0.479   4.750
  282CHX    CAD 1689   0.018   0.408   4.861
  282CHX    CAF 1690   0.063   0.262   4.875
  282CHX    CAE 1691   0.049   0.186   4.742
  282CHX    CAC 1692   0.129   0.258   4.632
  283CHX    CAA 1693   3.627   4.886   4.775
  283CHX    CAB 1694   3.658   4.783   4.664
  283CHX    CAD 1695   3.683   4.853   4.530
  283CHX    CAF 1696   3.798   4.954   4.543
  283CHX    CAE 1697   3.770   0.057   4.654
  283CHX    CAC 1698   3.743   4.987   4.788
  284CHX    CAA 1699   2.179   1.674   1.622
  284CHX    CAB 1700   2.133   1.792   1.536
  284CHX    CAD 1701   2.087   1.909   1.624
  284CHX    CAF 1702   2.199   1.952   1.719
  284CHX    CAE 1703   2.247   1.834   1.805
  284CHX    CAC 1704   2.292   1.718   1.716
  285CHX    CAA 1705   1.535   3.161   1.998
  285CHX    CAB 1706   1.663   3.246   1.985
  285CHX    CAD 1707   1.739   3.208   1.857
  285CHX    CAF 1708   1.651   3.225   1.733
  285CHX    CAE 1709   1.522   3.142   1.746
  285CHX    CAC 1710   1.446   3.179   1.874
  286CHX    CAA 1711   3.860   2.833   1.154
  286CHX    CAB 1712   3.849   2.888   1.297
  286CHX    CAD 1713   3.826   2.773   1.398
  286CHX    CAF 1714   3.939   2.670   1.387
  286CHX    CAE 1715   3.949   2.615   1.244
  286CHX    CAC 1716   3.972   2.729   1.144
  287CHX    CAA 1717   2.433   0.593   2.521
  287CHX    CAB 1718   2.455   0.624   2.373
  287CHX    CAD 1719   2.321   0.634   2.296
  287CHX    CAF 1720   2.203   0.691   2.378
  287CHX    CAE 1721   2.249   0.776   2.497
  287CHX    CAC 1722   2.341   0.695   2.591
  288CHX    CAA 1723   1.323   0.871   1.171
  288CHX    CAB 1724   1.296   1.022   1.178
  288CHX    CAD 1725   1.395   1.101   1.090
  288CHX    CAF 1726   1.392   1.050   0.946
  288CHX    CAE 1727   1.421   0.899   0.939
  288CHX    CAC 1728   1.320   0.823   1.025
  289CHX    CAA 1729   2.680   2.816   1.958
  289CHX    CAB 1730   2.630   2.744   2.084
  289CHX    CAD 1731   2.722   2.627   2.120
  289CHX    CAF 1732   2.868   2.674   2.136
  289CHX    CAE 1733   2.915   2.742   2.007
  289CHX    CAC 1734   2.825   2.862   1.973
  290CHX    CAA 1735   4.143   4.871   4.442
  290CHX    CAB 1736   4.178   4.938   4.575
  290CHX    CAD 1737   4.201   0.090   4.559
  290CHX    CAF 1738   4.258   0.133   4.422
  290CHX    CAE 1739   4.334   0.022   4.349
  290CHX    CAC 1740   4.254   4.891   4.337
  291CHX    CAA 1741   3.869   2.164   3.240
  291CHX    CAB 1742   3.759   2.184   3.345
  291CHX    CAD 1743   3.621   2.163   3.283
  291CHX    CAF 1744   3.610   2.023   3.221
  291CHX    CAE 1745   3.721   2.001   3.118
  291CHX    CAC 1746   3.860   2.024   3.180
  292CHX    CAA 1747   0.494   4.904   4.023
  292CHX    CAB 1748   0.571   0.029   4.064
  292CHX    CAD 1749   0.656   0.002   4.190
  292CHX    CAF 1750   0.751   4.884   4.167
  292CHX    CAE 1751   0.674   4.758   4.124
  292CHX    CAC 1752   0.591   4.787   3.998
  293CHX    CAA 1753   4.231   0.896   2.665
  293CHX    CAB 1754   4.081   0.885   2.698
  293CHX    CAD 1755   4.011   0.779   2.612
  293CHX    CAF 1756   4.077   0.640   2.627
  293CHX    CAE 1757   4.224   0.640   2.672
  293CHX    CAC 1758   4.299   0.764   2.621
  294CHX    CAA 1759   0.512   0.022   3.306
  294CHX    CAB 1760   0.632   0.095   3.246
  294CHX    CAD 1761   0.626   0.094   3.092
  294CHX    CAF 1762   0.493   0.152   3.042
  294CHX    CAE 1763   0.373   0.078   3.102
  294CHX    CAC 1764   0.380   0.082   3.256
  295CHX    CAA 1765   1.563   4.889   1.320
  295CHX    CAB 1766   1.550   4.781   1.212
  295CHX    CAD 1767   1.680   4.699   1.202
  295CHX    CAF 1768   1.713   4.634   1.337
  295CHX    CAE 1769   1.724   4.741   1.447
  295CHX    CAC 1770   1.595   4.825   1.456
  296CHX    CAA 1771   3.245   3.365   1.235
  296CHX    CAB 1772   3.229   3.386   1.083
  296CHX    CAD 1773   3.119   3.295   1.027
  296CHX    CAF 1774   2.985   3.319   1.099
  296CHX    CAE 1775   3.001   3.300   1.251
  296CHX    CAC 1776   3.111   3.390   1.307
  297CHX    CAA 1777   1.537   2.635   2.504
  297CHX    CAB 1778   1.387   2.650   2.477
  297CHX    CAD 1779   1.359   2.778   2.396
  297CHX    CAF 1780   1.439   2.779   2.265
  297CHX    CAE 1781   1.589   2.763   2.294
  297CHX    CAC 1782   1.616   2.634   2.373
  298CHX    CAA 1783   0.610   1.392   1.455
  298CHX    CAB 1784   0.472   1.389   1.519
  298CHX    CAD 1785   0.374   1.308   1.432
  298CHX    CAF 1786   0.425   1.166   1.406
  298CHX    CAE 1787   0.565   1.170   1.343
  298CHX    CAC 1788   0.662   1.249   1.432
  299CHX    CAA 1789   1.823   1.865   2.338
  299CHX    CAB 1790   1.944   1.770   2.339
  299CHX    CAD 1791   2.069   1.841   2.285
  299CHX    CAF 1792   2.099   1.967   2.368
  299CHX    CAE 1793   1.979   2.062   2.368
  299CHX    CAC 1794   1.854   1.991   2.421
  300CHX    CAA 1795   0.623   2.440   2.831
  300CHX    CAB 1796   0.650   2.367   2.963
  300CHX    CAD 1797   0.604   2.453   3.082
  300CHX    CAF 1798   0.455   2.486   3.071
  300CHX    CAE 1799   0.425   2.558   2.939
  300CHX    CAC 1800   0.473   2.475   2.819
  301CHX    CAA 1801   2.954   0.860   3.641
  301CHX    CAB 1802   3.106   0.879   3.638
  301CHX    CAD 1803   3.175   0.744   3.613
  301CHX    CAF 1804   3.127   0.681   3.481
  301CHX    CAE 1805   2.974   0.662   3.484
  301CHX    CAC 1806   2.904   0.796   3.510
  302CHX    CAA 1807   3.875   0.247   1.347
  302CHX    CAB 1808   3.763   0.207   1.250
  302CHX    CAD 1809   3.738   0.055   1.253
  302CHX    CAF 1810   3.708   0.007   1.395
  302CHX    CAE 1811   3.822   0.046   1.490
  302CHX    CAC 1812   3.844   0.198   1.489
  303CHX    CAA 1813   2.663   0.312   2.689
  303CHX    CAB 1814   2.604   0.216   2.585
  303CHX    CAD 1815   2.715   0.144   2.507
  303CHX    CAF 1816   2.811   0.071   2.602
  303CHX    CAE 1817   2.870   0.167   2.706
  303CHX    CAC 1818   2.757   0.236   2.784
  304CHX    CAA 1819   0.777   3.953   0.551
  304CHX    CAB 1820   0.761   3.816   0.484
  304CHX    CAD 1821   0.897   3.750   0.464
  304CHX    CAF 1822   0.972   3.736   0.597
  304CHX    CAE 1823   0.986   3.872   0.666
  304CHX    CAC 1824   0.849   3.938   0.686
  305CHX    CAA 1825   3.187   0.591   4.450
  305CHX    CAB 1826   3.325   0.654   4.428
  305CHX    CAD 1827   3.349   0.768   4.528
  305CHX    CAF 1828   3.337   0.717   4.672
  305CHX    CAE 1829   3.199   0.653   4.695
  305CHX    CAC 1830   3.174   0.540   4.594
  306CHX    CAA 1831   3.996   1.949   2.395
  306CHX    CAB 1832   3.958   1.929   2.248
  306CHX    CAD 1833   3.828   1.846   2.234
  306CHX    CAF 1834   3.726   1.862   2.349
  306CHX    CAE 1835   3.741   1.996   2.421
  306CHX    CAC 1836   3.884   2.017   2.476
  307CHX    CAA 1837   3.279   2.485   1.680
  307CHX    CAB 1838   3.186   2.567   1.771
  307CHX    CAD 1839   3.076   2.635   1.689
  307CHX    CAF 1840   2.997   2.532   1.607
  307CHX    CAE 1841   3.089   2.450   1.516
  307CHX    CAC 1842   3.199   2.382   1.599
  308CHX    CAA 1843   0.297   3.505   3.373
  308CHX    CAB 1844   0.231   3.500   3.234
  308CHX    CAD 1845   0.267   3.371   3.159
  308CHX    CAF 1846   0.420   3.351   3.146
  308CHX    CAE 1847   0.507   3.426   3.249
  308CHX    CAC 1848   0.435   3.438   3.384
  309CHX    CAA 1849   2.518   0.671   1.924
  309CHX    CAB 1850   2.496   0.745   1.791
  309CHX    CAD 1851   2.621   0.825   1.750
  309CHX    CAF 1852   2.743   0.733   1.741
  309CHX    CAE 1853   2.766   0.660   1.875
  309CHX    CAC 1854   2.642   0.581   1.917
  310CHX    CAA 1855   2.792   4.615   3.604
  310CHX    CAB 1856   2.801   4.619   3.758
  310CHX    CAD 1857   2.894   4.508   3.810
  310CHX    CAF 1858   3.033   4.518   3.746
  310CHX    CAE 1859   3.023   4.514   3.592
  310CHX    CAC 1860   2.932   4.627   3.542
  311CHX    CAA 1861   2.834   4.129   0.541
  311CHX    CAB 1862   2.781   4.079   0.676
  311CHX    CAD 1863   2.640   4.019   0.662
  311CHX    CAF 1864   2.639   3.908   0.556
  311CHX    CAE 1865   2.689   3.961   0.421
  311CHX    CAC 1866   2.831   4.019   0.435
  312CHX    CAA 1867   4.198   0.111   1.653
  312CHX    CAB 1868   4.173   0.261   1.672
  312CHX    CAD 1869   4.101   0.287   1.805
  312CHX    CAF 1870   4.180   0.229   1.923
  312CHX    CAE 1871   4.207   0.079   1.903
  312CHX    CAC 1872   4.279   0.053   1.770
  313CHX    CAA 1873   4.800   1.723   2.549
  313CHX    CAB 1874   4.830   1.620   2.439
  313CHX    CAD 1875   4.980   1.616   2.408
  313CHX    CAF 1876   0.061   1.587   2.536
  313CHX    CAE 1877   0.031   1.691   2.645
  313CHX    CAC 1878   4.881   1.694   2.676
  314CHX    CAA 1879   4.989   3.061   2.924
  314CHX    CAB 1880   4.942   2.988   2.798
  314CHX    CAD 1881   4.979   3.066   2.672
  314CHX    CAF 1882   0.130   3.096   2.667
  314CHX    CAE 1883   0.176   3.170   2.794
  314CHX    CAC 1884   0.140   3.089   2.919
  315CHX    CAA 1885   2.605   3.670   1.383
  315CHX    CAB 1886   2.663   3.813   1.378
  315CHX    CAD 1887   2.558   3.915   1.423
  315CHX    CAF 1888   2.507   3.882   1.564
  315CHX    CAE 1889   2.449   3.740   1.569
  315CHX    CAC 1890   2.553   3.638   1.523
  316CHX    CAA 1891   2.048   1.299   1.305
  316CHX    CAB 1892   1.966   1.398   1.220
  316CHX    CAD 1893   2.056   1.465   1.116
  316CHX    CAF 1894   2.126   1.361   1.028
  316CHX    CAE 1895   2.206   1.261   1.113
  316CHX    CAC 1896   2.116   1.194   1.217
  317CHX    CAA 1897   1.680   0.845   3.122
  317CHX    CAB 1898   1.599   0.876   3.249
  317CHX    CAD 1899   1.691   0.928   3.361
  317CHX    CAF 1900   1.771   1.050   3.315
  317CHX    CAE 1901   1.850   1.021   3.186
  317CHX    CAC 1902   1.757   0.970   3.075
  318CHX    CAA 1903   2.654   3.431   4.526
  318CHX    CAB 1904   2.713   3.317   4.442
  318CHX    CAD 1905   2.863   3.339   4.419
  318CHX    CAF 1906   2.937   3.353   4.553
  318CHX    CAE 1907   2.879   3.468   4.636
  318CHX    CAC 1908   2.729   3.445   4.660
  319CHX    CAA 1909   1.513   2.897   0.050
  319CHX    CAB 1910   1.555   2.853   4.909
  319CHX    CAD 1911   1.704   2.818   4.905
  319CHX    CAF 1912   1.738   2.710   0.009
  319CHX    CAE 1913   1.695   2.753   0.149
  319CHX    CAC 1914   1.546   2.787   0.153
  320CHX    CAA 1915   4.205   2.775   4.717
  320CHX    CAB 1916   4.350   2.792   4.669
  320CHX    CAD 1917   4.356   2.797   4.516
  320CHX    CAF 1918   4.268   2.910   4.461
  320CHX    CAE 1919   4.123   2.894   4.510
  320CHX    CAC 1920   4.118   2.890   4.663
  321CHX    CAA 1921   2.592   1.893   4.969
  321CHX    CAB 1922   2.671   1.810   0.071
  321CHX    CAD 1923   2.576   1.728   0.159
  321CHX    CAF 1924   2.490   1.635   0.071
  321CHX    CAE 1925   2.412   1.717   4.967
  321CHX    CAC 1926   2.507   1.801   4.880
  322CHX    CAA 1927   3.546   3.581   2.448
  322CHX    CAB 1928   3.596   3.437   2.431
  322CHX    CAD 1929   3.490   3.351   2.362
  322CHX    CAF 1930   3.450   3.410   2.226
  322CHX    CAE 1931   3.403   3.555   2.242
  322CHX    CAC 1932   3.509   3.641   2.312
  323CHX    CAA 1933   0.475   1.636   3.356
  323CHX    CAB 1934   0.578   1.523   3.336
  323CHX    CAD 1935   0.508   1.394   3.293
  323CHX    CAF 1936   0.427   1.416   3.164
  323CHX    CAE 1937   0.325   1.529   3.184
  323CHX    CAC 1938   0.395   1.659   3.227
  324CHX    CAA 1939   2.017   0.205   3.256
  324CHX    CAB 1940   2.103   0.329   3.287
  324CHX    CAD 1941   2.109   0.427   3.169
  324CHX    CAF 1942   1.968   0.471   3.123
  324CHX    CAE 1943   1.856   0.368   3.144
  324CHX    CAC 1944   1.909   0.224   3.148
  325CHX    CAA 1945   2.837   0.880   3.993
  325CHX    CAB 1946   2.848   1.001   4.088
  325CHX    CAD 1947   2.789   1.127   4.023
  325CHX    CAF 1948   2.643   1.103   3.982
  325CHX    CAE 1949   2.631   0.982   3.888
  325CHX    CAC 1950   2.691   0.856   3.952
  326CHX    CAA 1951   4.876   4.893   4.529
  326CHX    CAB 1952   4.780   4.799   4.455
  326CHX    CAD 1953   4.659   4.876   4.400
  326CHX    CAF 1954   4.705   4.990   4.309
  326CHX    CAE 1955   4.800   0.085   4.384
  326CHX    CAC 1956   4.921   0.007   4.437
  327CHX    CAA 1957   0.914   0.785   2.767
  327CHX    CAB 1958   0.787   0.726   2.705
  327CHX    CAD 1959   0.820   0.617   2.603
  327CHX    CAF 1960   0.907   0.508   2.666
  327CHX    CAE 1961   1.035   0.567   2.727
  327CHX    CAC 1962   1.001   0.675   2.830
  328CHX    CAA 1963   3.166   0.658   0.196
  328CHX    CAB 1964   3.197   0.762   0.305
  328CHX    CAD 1965   3.348   0.766   0.333
  328CHX    CAF 1966   3.426   0.799   0.205
  328CHX    CAE 1967   3.396   0.694   0.096
  328CHX    CAC 1968   3.245   0.688   0.067
  329CHX    CAA 1969   3.303   4.695   1.845
  329CHX    CAB 1970   3.352   4.562   1.905
  329CHX    CAD 1971   3.284   4.443   1.835
  329CHX    CAF 1972   3.309   4.448   1.683
  329CHX    CAE 1973   3.262   4.581   1.624
  329CHX    CAC 1974   3.329   4.700   1.694
  330CHX    CAA 1975   2.982   4.730   4.975
  330CHX    CAB 1976   3.027   4.856   4.899
  330CHX    CAD 1977   3.127   4.939   4.982
  330CHX    CAF 1978   3.248   4.853   0.023
  330CHX    CAE 1979   3.202   4.728   0.100
  330CHX    CAC 1980   3.104   4.646   0.015
  331CHX    CAA 1981   2.211   4.827   0.597
  331CHX    CAB 1982   2.112   4.888   0.697
  331CHX    CAD 1983   2.060   0.023   0.646
  331CHX    CAF 1984   1.993   0.007   0.509
  331CHX    CAE 1985   2.089   4.943   0.408
  331CHX    CAC 1986   2.143   4.809   0.460
  332CHX    CAA 1987   3.481   4.423   2.943
  332CHX    CAB 1988   3.463   4.325   2.826
  332CHX    CAD 1989   3.596   4.305   2.751
  332CHX    CAF 1990   3.705   4.256   2.847
  332CHX    CAE 1991   3.723   4.355   2.964
  332CHX    CAC 1992   3.590   4.375   3.039
  333CHX    CAA 1993   0.682   3.154   1.915
  333CHX    CAB 1994   0.655   3.170   1.765
  333CHX    CAD 1995   0.787   3.183   1.686
  333CHX    CAF 1996   0.877   3.062   1.712
  333CHX    CAE 1997   0.906   3.047   1.862
  333CHX    CAC 1998   0.775   3.034   1.941
  334CHX    CAA 1999   1.973   3.013   0.503
  334CHX    CAB 2000   1.836   2.956   0.463
  334CHX    CAD 2001   1.737   2.970   0.579
  334CHX    CAF 2002   1.725   3.116   0.625
  334CHX    CAE 2003   1.862   3.174   0.663
  334CHX    CAC 2004   1.960   3.159   0.546
  335CHX    CAA 2005   1.651   1.742   3.272
  335CHX    CAB 2006   1.628   1.810   3.408
  335CHX    CAD 2007   1.692   1.950   3.411
  335CHX    CAF 2008   1.638   2.037   3.296
  335CHX    CAE 2009   1.663   1.968   3.161
  335CHX    CAC 2010   1.596   1.830   3.159
  336CHX    CAA 2011   2.727   0.472   0.525
  336CHX    CAB 2012   2.809   0.480   0.655
  336CHX    CAD 2013   2.937   0.394   0.645
  336CHX    CAF 2014   3.021   0.438   0.525
  336CHX    CAE 2015   2.939   0.429   0.395
  336CHX    CAC 2016   2.812   0.515   0.405
  337CHX    CAA 2017   1.740   2.329   0.464
  337CHX    CAB 2018   1.801   2.434   0.557
  337CHX    CAD 2019   1.764   2.576   0.510
  337CHX    CAF 2020   1.612   2.593   0.499
  337CHX    CAE 2021   1.551   2.486   0.408
  337CHX    CAC 2022   1.587   2.345   0.457
  338CHX    CAA 2023   1.288   1.980   3.770
  338CHX    CAB 2024   1.184   1.878   3.720
  338CHX    CAD 2025   1.233   1.808   3.592
  338CHX    CAF 2026   1.269   1.907   3.479
  338CHX    CAE 2027   1.292   2.053   3.523
  338CHX    CAC 2028   1.362   2.059   3.659
  339CHX    CAA 2029   2.698   3.047   2.895
  339CHX    CAB 2030   2.573   3.079   2.812
  339CHX    CAD 2031   2.522   2.954   2.739
  339CHX    CAF 2032   2.495   2.841   2.838
  339CHX    CAE 2033   2.622   2.808   2.919
  339CHX    CAC 2034   2.671   2.932   2.994
  340CHX    CAA 2035   3.080   4.039   3.733
  340CHX    CAB 2036   2.997   4.153   3.792
  340CHX    CAD 2037   2.855   4.105   3.827
  340CHX    CAF 2038   2.859   3.984   3.922
  340CHX    CAE 2039   2.943   3.871   3.863
  340CHX    CAC 2040   3.084   3.921   3.830
  341CHX    CAA 2041   0.397   3.804   0.335
  341CHX    CAB 2042   0.251   3.831   0.375
  341CHX    CAD 2043   0.158   3.726   0.314
  341CHX    CAF 2044   0.200   3.585   0.356
  341CHX    CAE 2045   0.345   3.557   0.317
  341CHX    CAC 2046   0.438   3.662   0.378
  342CHX    CAA 2047   4.410   1.004   3.161
  342CHX    CAB 2048   4.388   0.962   3.015
  342CHX    CAD 2049   4.370   0.810   3.003
  342CHX    CAF 2050   4.252   0.763   3.090
  342CHX    CAE 2051   4.274   0.803   3.236
  342CHX    CAC 2052   4.294   0.955   3.249
  343CHX    CAA 2053   0.563   1.475   0.597
  343CHX    CAB 2054   0.533   1.326   0.618
  343CHX    CAD 2055   0.655   1.256   0.680
  343CHX    CAF 2056   0.695   1.322   0.813
  343CHX    CAE 2057   0.723   1.472   0.793
  343CHX    CAC 2058   0.602   1.542   0.729
  344CHX    CAA 2059   4.504   2.504   2.501
  344CHX    CAB 2060   4.596   2.422   2.592
  344CHX    CAD 2061   4.648   2.506   2.709
  344CHX    CAF 2062   4.532   2.567   2.789
  344CHX    CAE 2063   4.441   2.650   2.697
  344CHX    CAC 2064   4.388   2.564   2.581
  345CHX    CAA 2065   2.846   4.436   0.210
  345CHX    CAB 2066   2.853   4.303   0.135
  345CHX    CAD 2067   2.999   4.263   0.108
  345CHX    CAF 2068   3.077   4.253   0.240
  345CHX    CAE 2069   3.071   4.387   0.316
  345CHX    CAC 2070   2.925   4.428   0.342
  346CHX    CAA 2071   1.190   3.233   3.253
  346CHX    CAB 2072   1.219   3.383   3.255
  346CHX    CAD 2073   1.303   3.422   3.377
  346CHX    CAF 2074   1.433   3.340   3.383
  346CHX    CAE 2075   1.404   3.190   3.382
  346CHX    CAC 2076   1.322   3.153   3.258
  347CHX    CAA 2077   0.595   4.286   3.575
  347CHX    CAB 2078   0.462   4.244   3.641
  347CHX    CAD 2079   0.342   4.299   3.562
  347CHX    CAF 2080   0.347   4.253   3.416
  347CHX    CAE 2081   0.480   4.293   3.350
  347CHX    CAC 2082   0.599   4.238   3.429
  348CHX    CAA 2083   1.547   2.375   3.422
  348CHX    CAB 2084   1.559   2.357   3.574
  348CHX    CAD 2085   1.561   2.494   3.644
  348CHX    CAF 2086   1.436   2.576   3.610
  348CHX    CAE 2087   1.422   2.592   3.458
  348CHX    CAC 2088   1.420   2.455   3.389
  349CHX    CAA 2089   2.185   1.002   0.017
  349CHX    CAB 2090   2.155   1.100   0.131
  349CHX    CAD 2091   2.004   1.111   0.153
  349CHX    CAF 2092   1.942   0.973   0.182
  349CHX    CAE 2093   1.973   0.874   0.069
  349CHX    CAC 2094   2.124   0.864   0.045
  350CHX    CAA 2095   0.992   4.759   3.251
  350CHX    CAB 2096   0.914   4.759   3.119
  350CHX    CAD 2097   0.955   4.876   3.029
  350CHX    CAF 2098   1.106   4.871   3.001
  350CHX    CAE 2099   1.185   4.873   3.132
  350CHX    CAC 2100   1.143   4.756   3.223
  351CHX    CAA 2101   1.139   3.093   4.936
  351CHX    CAB 2102   1.281   3.151   4.917
  351CHX    CAD 2103   1.319   3.153   4.769
  351CHX    CAF 2104   1.217   3.235   4.689
  351CHX    CAE 2105   1.075   3.178   4.706
  351CHX    CAC 2106   1.037   3.173   4.854
  352CHX    CAA 2107   2.086   2.552   0.826
  352CHX    CAB 2108   2.211   2.574   0.915
  352CHX    CAD 2109   2.247   2.448   0.994
  352CHX    CAF 2110   2.130   2.398   1.081
  352CHX    CAE 2111   1.989   2.440   1.036
  352CHX    CAC 2112   1.980   2.455   0.883
  353CHX    CAA 2113   3.185   1.417   0.809
  353CHX    CAB 2114   3.324   1.355   0.829
  353CHX    CAD 2115   3.336   1.291   0.967
  353CHX    CAF 2116   3.227   1.185   0.988
  353CHX    CAE 2117   3.088   1.248   0.971
  353CHX    CAC 2118   3.074   1.313   0.832
  354CHX    CAA 2119   3.378   0.004   2.992
  354CHX    CAB 2120   3.324   0.066   3.121
  354CHX    CAD 2121   3.438   0.123   3.207
  354CHX    CAF 2122   3.521   0.225   3.128
  354CHX    CAE 2123   3.573   0.165   2.997
  354CHX    CAC 2124   3.458   0.108   2.912
  355CHX    CAA 2125   0.369   1.690   2.307
  355CHX    CAB 2126   0.342   1.817   2.390
  355CHX    CAD 2127   0.388   1.942   2.313
  355CHX    CAF 2128   0.322   1.950   2.174
  355CHX    CAE 2129   0.347   1.822   2.093
  355CHX    CAC 2130   0.298   1.699   2.171
  356CHX    CAA 2131   3.207   3.863   2.156
  356CHX    CAB 2132   3.107   3.864   2.040
  356CHX    CAD 2133   3.087   4.006   1.986
  356CHX    CAF 2134   3.221   4.068   1.943
  356CHX    CAE 2135   3.320   4.068   2.060
  356CHX    CAC 2136   3.341   3.925   2.113
  357CHX    CAA 2137   2.386   4.741   1.017
  357CHX    CAB 2138   2.484   4.686   0.913
  357CHX    CAD 2139   2.627   4.683   0.970
  357CHX    CAF 2140   2.632   4.601   1.100
  357CHX    CAE 2141   2.534   4.656   1.204
  357CHX    CAC 2142   2.391   4.660   1.147
  358CHX    CAA 2143   3.833   4.555   0.494
  358CHX    CAB 2144   3.881   4.470   0.612
  358CHX    CAD 2145   3.820   4.330   0.605
  358CHX    CAF 2146   3.856   4.262   0.472
  358CHX    CAE 2147   3.810   4.347   0.353
  358CHX    CAC 2148   3.871   4.488   0.361
  359CHX    CAA 2149   1.214   3.643   2.135
  359CHX    CAB 2150   1.278   3.510   2.094
  359CHX    CAD 2151   1.400   3.478   2.182
  359CHX    CAF 2152   1.360   3.477   2.330
  359CHX    CAE 2153   1.296   3.611   2.371
  359CHX    CAC 2154   1.174   3.642   2.283
  360CHX    CAA 2155   3.603   3.927   1.744
  360CHX    CAB 2156   3.647   3.969   1.884
  360CHX    CAD 2157   3.694   4.115   1.885
  360CHX    CAF 2158   3.584   4.208   1.831
  360CHX    CAE 2159   3.542   4.165   1.689
  360CHX    CAC 2160   3.493   4.019   1.690
  361CHX    CAA 2161   3.412   2.222   4.265
  361CHX    CAB 2162   3.334   2.239   4.395
  361CHX    CAD 2163   3.372   2.132   4.498
  361CHX    CAF 2164   3.523   2.131   4.524
  361CHX    CAE 2165   3.600   2.112   4.392
  361CHX    CAC 2166   3.563   2.222   4.291
  362CHX    CAA 2167   4.993   0.062   3.269
  362CHX    CAB 2168   4.930   4.996   3.392
  362CHX    CAD 2169   4.788   4.946   3.361
  362CHX    CAF 2170   4.790   4.848   3.242
  362CHX    CAE 2171   4.853   4.914   3.119
  362CHX    CAC 2172   4.995   4.964   3.150
  363CHX    CAA 2173   1.105   3.762   4.750
  363CHX    CAB 2174   1.136   3.625   4.689
  363CHX    CAD 2175   1.006   3.553   4.648
  363CHX    CAF 2176   0.923   3.639   4.552
  363CHX    CAE 2177   0.892   3.776   4.615
  363CHX    CAC 2178   1.023   3.847   4.652
  364CHX    CAA 2179   0.637   2.013   1.854
  364CHX    CAB 2180   0.506   2.090   1.831
  364CHX    CAD 2181   0.527   2.202   1.728
  364CHX    CAF 2182   0.581   2.145   1.596
  364CHX    CAE 2183   0.711   2.067   1.618
  364CHX    CAC 2184   0.691   1.955   1.722
  365CHX    CAA 2185   1.813   3.583   1.395
  365CHX    CAB 2186   1.730   3.473   1.463
  365CHX    CAD 2187   1.580   3.506   1.457
  365CHX    CAF 2188   1.534   3.530   1.313
  365CHX    CAE 2189   1.617   3.641   1.248
  365CHX    CAC 2190   1.767   3.607   1.251
  366CHX    CAA 2191   0.284   3.705   0.721
  366CHX    CAB 2192   0.423   3.746   0.771
  366CHX    CAD 2193   0.423   3.767   0.923
  366CHX    CAF 2194   0.371   3.642   0.995
  366CHX    CAE 2195   0.231   3.603   0.944
  366CHX    CAC 2196   0.235   3.579   0.793
  367CHX    CAA 2197   3.262   3.832   4.262
  367CHX    CAB 2198   3.268   3.736   4.382
  367CHX    CAD 2199   3.132   3.668   4.403
  367CHX    CAF 2200   3.089   3.594   4.276
  367CHX    CAE 2201   3.084   3.688   4.156
  367CHX    CAC 2202   3.219   3.758   4.135
  368CHX    CAA 2203   1.420   4.177   3.958
  368CHX    CAB 2204   1.452   4.029   3.928
  368CHX    CAD 2205   1.587   3.986   3.990
  368CHX    CAF 2206   1.692   4.098   4.006
  368CHX    CAE 2207   1.673   4.209   3.902
  368CHX    CAC 2208   1.532   4.271   3.910
  369CHX    CAA 2209   0.789   2.561   3.918
  369CHX    CAB 2210   0.674   2.461   3.904
  369CHX    CAD 2211   0.685   2.350   4.011
  369CHX    CAF 2212   0.690   2.410   4.153
  369CHX    CAE 2213   0.805   2.511   4.165
  369CHX    CAC 2214   0.792   2.621   4.059
  370CHX    CAA 2215   1.427   2.374   3.027
  370CHX    CAB 2216   1.370   2.404   2.887
  370CHX    CAD 2217   1.373   2.554   2.858
  370CHX    CAF 2218   1.515   2.611   2.875
  370CHX    CAE 2219   1.569   2.582   3.015
  370CHX    CAC 2220   1.568   2.431   3.043
  371CHX    CAA 2221   1.408   2.792   1.222
  371CHX    CAB 2222   1.283   2.705   1.243
  371CHX    CAD 2223   1.156   2.781   1.203
  371CHX    CAF 2224   1.165   2.829   1.058
  371CHX    CAE 2225   1.289   2.918   1.039
  371CHX    CAC 2226   1.416   2.840   1.076
  372CHX    CAA 2227   4.621   1.337   0.601
  372CHX    CAB 2228   4.568   1.470   0.657
  372CHX    CAD 2229   4.434   1.507   0.591
  372CHX    CAF 2230   4.331   1.395   0.611
  372CHX    CAE 2231   4.384   1.261   0.556
  372CHX    CAC 2232   4.518   1.225   0.621
  373CHX    CAA 2233   3.455   3.274   3.009
  373CHX    CAB 2234   3.608   3.272   3.010
  373CHX    CAD 2235   3.663   3.200   2.886
  373CHX    CAF 2236   3.608   3.262   2.757
  373CHX    CAE 2237   3.455   3.265   2.757
  373CHX    CAC 2238   3.401   3.338   2.881
  374CHX    CAA 2239   4.756   0.625   2.990
  374CHX    CAB 2240   4.822   0.747   2.924
  374CHX    CAD 2241   4.760   0.877   2.978
  374CHX    CAF 2242   4.773   0.884   3.131
  374CHX    CAE 2243   4.706   0.763   3.197
  374CHX    CAC 2244   4.766   0.632   3.143
  375CHX    CAA 2245   4.703   1.934   2.924
  375CHX    CAB 2246   4.639   1.999   3.048
  375CHX    CAD 2247   4.735   2.102   3.111
  375CHX    CAF 2248   4.776   2.208   3.009
  375CHX    CAE 2249   4.841   2.142   2.886
  375CHX    CAC 2250   4.746   2.040   2.822
  376CHX    CAA 2251   1.479   2.371   1.055
  376CHX    CAB 2252   1.585   2.477   1.026
  376CHX    CAD 2253   1.586   2.514   0.877
  376CHX    CAF 2254   1.448   2.561   0.831
  376CHX    CAE 2255   1.341   2.455   0.860
  376CHX    CAC 2256   1.340   2.418   1.010
  377CHX    CAA 2257   4.825   3.795   0.496
  377CHX    CAB 2258   4.825   3.947   0.475
  377CHX    CAD 2259   4.797   4.018   0.608
  377CHX    CAF 2260   4.901   3.980   0.715
  377CHX    CAE 2261   4.901   3.828   0.736
  377CHX    CAC 2262   4.927   3.754   0.604
  378CHX    CAA 2263   4.717   2.074   3.741
  378CHX    CAB 2264   4.583   2.002   3.721
  378CHX    CAD 2265   4.531   2.024   3.579
  378CHX    CAF 2266   4.634   1.977   3.474
  378CHX    CAE 2267   4.768   2.047   3.495
  378CHX    CAC 2268   4.820   2.026   3.638
  379CHX    CAA 2269   0.168   2.769   0.339
  379CHX    CAB 2270   0.237   2.678   0.237
  379CHX    CAD 2271   0.153   2.551   0.211
  379CHX    CAF 2272   0.012   2.589   0.165
  379CHX    CAE 2273   4.943   2.680   0.269
  379CHX    CAC 2274   0.027   2.806   0.293
  380CHX    CAA 2275   2.335   3.521   3.280
  380CHX    CAB 2276   2.182   3.511   3.271
  380CHX    CAD 2277   2.120   3.506   3.411
  380CHX    CAF 2278   2.162   3.629   3.493
  380CHX    CAE 2279   2.315   3.639   3.502
  380CHX    CAC 2280   2.377   3.644   3.362
  381CHX    CAA 2281   4.760   3.890   4.365
  381CHX    CAB 2282   4.730   4.021   4.439
  381CHX    CAD 2283   4.654   4.120   4.349
  381CHX    CAF 2284   4.525   4.056   4.295
  381CHX    CAE 2285   4.557   3.926   4.219
  381CHX    CAC 2286   4.632   3.827   4.310
  382CHX    CAA 2287   3.807   2.727   3.472
  382CHX    CAB 2288   3.768   2.583   3.508
  382CHX    CAD 2289   3.651   2.534   3.422
  382CHX    CAF 2290   3.685   2.545   3.273
  382CHX    CAE 2291   3.721   2.689   3.236
  382CHX    CAC 2292   3.838   2.738   3.321
  383CHX    CAA 2293   2.094   2.185   3.996
  383CHX    CAB 2294   1.993   2.093   4.067
  383CHX    CAD 2295   2.011   2.101   4.220
  383CHX    CAF 2296   1.997   2.246   4.269
  383CHX    CAE 2297   2.100   2.336   4.199
  383CHX    CAC 2298   2.084   2.329   4.047
  384CHX    CAA 2299   4.508   1.863   2.255
  384CHX    CAB 2300   4.404   1.958   2.195
  384CHX    CAD 2301   4.357   2.061   2.298
  384CHX    CAF 2302   4.477   2.140   2.352
  384CHX    CAE 2303   4.580   2.045   2.414
  384CHX    CAC 2304   4.627   1.942   2.311
  385CHX    CAA 2305   0.877   1.410   2.917
  385CHX    CAB 2306   0.894   1.295   2.816
  385CHX    CAD 2307   0.944   1.169   2.887
  385CHX    CAF 2308   0.850   1.128   3.000
  385CHX    CAE 2309   0.830   1.243   3.100
  385CHX    CAC 2310   0.780   1.369   3.028
  386CHX    CAA 2311   0.006   4.825   0.141
  386CHX    CAB 2312   0.079   4.693   0.113
  386CHX    CAD 2313   0.006   4.612   0.006
  386CHX    CAF 2314   4.990   4.693   4.877
  386CHX    CAE 2315   4.915   4.824   4.905
  386CHX    CAC 2316   4.986   4.907   0.013
  387CHX    CAA 2317   4.759   1.693   3.845
  387CHX    CAB 2318   4.825   1.637   3.718
  387CHX    CAD 2319   4.729   1.636   3.597
  387CHX    CAF 2320   4.579   1.623   3.631
  387CHX    CAE 2321   4.557   1.548   3.763
  387CHX    CAC 2322   4.629   1.617   3.881
  388CHX    CAA 2323   4.105   1.059   0.362
  388CHX    CAB 2324   4.069   0.986   0.231
  388CHX    CAD 2325   3.978   0.865   0.260
  388CHX    CAF 2326   3.852   0.909   0.335
  388CHX    CAE 2327   3.889   0.979   0.467
  388CHX    CAC 2328   3.978   1.101   0.439
  389CHX    CAA 2329   2.637   2.582   2.593
  389CHX    CAB 2330   2.569   2.469   2.673
  389CHX    CAD 2331   2.420   2.500   2.697
  389CHX    CAF 2332   2.348   2.524   2.563
  389CHX    CAE 2333   2.415   2.638   2.484
  389CHX    CAC 2334   2.563   2.607   2.461
  390CHX    CAA 2335   4.035   4.756   1.170
  390CHX    CAB 2336   4.075   4.862   1.067
  390CHX    CAD 2337   4.073   0.001   1.132
  390CHX    CAF 2338   4.166   0.006   1.254
  390CHX    CAE 2339   4.129   4.897   1.356
  390CHX    CAC 2340   4.130   4.759   1.290
  391CHX    CAA 2341   0.167   2.379   3.345
  391CHX    CAB 2342   0.095   2.246   3.370
  391CHX    CAD 2343   0.128   2.193   3.510
  391CHX    CAF 2344   0.092   2.296   3.618
  391CHX    CAE 2345   0.163   2.429   3.593
  391CHX    CAC 2346   0.130   2.482   3.453
  392CHX    CAA 2347   1.896   1.567   0.525
  392CHX    CAB 2348   1.894   1.462   0.413
  392CHX    CAD 2349   1.999   1.353   0.438
  392CHX    CAF 2350   1.975   1.286   0.574
  392CHX    CAE 2351   1.979   1.390   0.686
  392CHX    CAC 2352   1.875   1.500   0.662
  393CHX    CAA 2353   4.725   1.715   0.039
  393CHX    CAB 2354   4.875   1.685   0.048
  393CHX    CAD 2355   4.914   1.646   0.191
  393CHX    CAF 2356   4.831   1.526   0.240
  393CHX    CAE 2357   4.681   1.556   0.231
  393CHX    CAC 2358   4.643   1.594   0.087
  394CHX    CAA 2359   1.242   4.711   2.227
  394CHX    CAB 2360   1.283   4.637   2.099
  394CHX    CAD 2361   1.299   4.735   1.982
  394CHX    CAF 2362   1.401   4.845   2.016
  394CHX    CAE 2363   1.364   4.918   2.147
  394CHX    CAC 2364   1.345   4.819   2.263
  395CHX    CAA 2365   4.084   0.363   4.163
  395CHX    CAB 2366   3.960   0.273   4.154
  395CHX    CAD 2367   3.924   0.216   4.292
  395CHX    CAF 2368   3.902   0.329   4.394
  395CHX    CAE 2369   4.026   0.419   4.403
  395CHX    CAC 2370   4.063   0.476   4.265
  396CHX    CAA 2371   2.281   3.307   0.612
  396CHX    CAB 2372   2.287   3.305   0.458
  396CHX    CAD 2373   2.433   3.312   0.411
  396CHX    CAF 2374   2.515   3.197   0.469
  396CHX    CAE 2375   2.506   3.194   0.622
  396CHX    CAC 2376   2.360   3.189   0.670
  397CHX    CAA 2377   0.309   4.277   3.991
  397CHX    CAB 2378   0.346   4.318   4.135
  397CHX    CAD 2379   0.412   4.456   4.136
  397CHX    CAF 2380   0.320   4.561   4.071
  397CHX    CAE 2381   0.285   4.520   3.928
  397CHX    CAC 2382   0.218   4.382   3.926
  398CHX    CAA 2383   4.293   1.311   4.128
  398CHX    CAB 2384   4.348   1.376   4.256
  398CHX    CAD 2385   4.489   1.322   4.288
  398CHX    CAF 2386   4.584   1.348   4.170
  398CHX    CAE 2387   4.530   1.282   4.042
  398CHX    CAC 2388   4.389   1.334   4.010
  399CHX    CAA 2389   1.401   2.937   0.698
  399CHX    CAB 2390   1.344   3.078   0.683
  399CHX    CAD 2391   1.359   3.129   0.539
  399CHX    CAF 2392   1.295   3.032   0.439
  399CHX    CAE 2393   1.356   2.892   0.454
  399CHX    CAC 2394   1.337   2.840   0.597
  400CHX    CAA 2395   4.418   2.351   0.748
  400CHX    CAB 2396   4.532   2.390   0.843
  400CHX    CAD 2397   4.663   2.320   0.804
  400CHX    CAF 2398   4.700   2.353   0.659
  400CHX    CAE 2399   4.587   2.314   0.563
  400CHX    CAC 2400   4.456   2.383   0.602
  401CHX    CAA 2401   2.749   0.973   4.627
  401CHX    CAB 2402   2.886   0.943   4.689
  401CHX    CAD 2403   2.996   0.940   4.582
  401CHX    CAF 2404   3.000   1.072   4.503
  401CHX    CAE 2405   2.863   1.101   4.441
  401CHX    CAC 2406   2.753   1.104   4.549
  402CHX    CAA 2407   1.141   2.213   1.716
  402CHX    CAB 2408   1.076   2.080   1.759
  402CHX    CAD 2409   1.108   1.970   1.657
  402CHX    CAF 2410   1.260   1.952   1.641
  402CHX    CAE 2411   1.326   2.085   1.600
  402CHX    CAC 2412   1.293   2.196   1.700
  403CHX    CAA 2413   4.146   3.513   4.599
  403CHX    CAB 2414   4.297   3.519   4.571
  403CHX    CAD 2415   4.375   3.422   4.661
  403CHX    CAF 2416   4.323   3.279   4.646
  403CHX    CAE 2417   4.172   3.272   4.672
  403CHX    CAC 2418   4.095   3.369   4.583
  404CHX    CAA 2419   3.930   3.908   2.176
  404CHX    CAB 2420   4.009   4.027   2.232
  404CHX    CAD 2421   3.921   4.153   2.235
  404CHX    CAF 2422   3.793   4.128   2.317
  404CHX    CAE 2423   3.715   4.009   2.260
  404CHX    CAC 2424   3.802   3.883   2.258
  405CHX    CAA 2425   1.679   1.262   0.005
  405CHX    CAB 2426   1.735   1.251   4.863
  405CHX    CAD 2427   1.786   1.109   4.836
  405CHX    CAF 2428   1.674   1.006   4.858
  405CHX    CAE 2429   1.615   1.017   4.999
  405CHX    CAC 2430   1.566   1.160   0.027
  406CHX    CAA 2431   2.030   3.831   3.089
  406CHX    CAB 2432   2.182   3.856   3.098
  406CHX    CAD 2433   2.212   3.981   3.182
  406CHX    CAF 2434   2.152   3.966   3.323
  406CHX    CAE 2435   2.001   3.939   3.316
  406CHX    CAC 2436   1.969   3.817   3.229
  407CHX    CAA 2437   0.940   1.068   1.261
  407CHX    CAB 2438   0.854   0.973   1.176
  407CHX    CAD 2439   0.916   0.833   1.173
  407CHX    CAF 2440   0.932   0.778   1.316
  407CHX    CAE 2441   1.019   0.872   1.400
  407CHX    CAC 2442   0.959   1.014   1.403
  408CHX    CAA 2443   3.190   2.687   4.966
  408CHX    CAB 2444   3.179   2.726   0.114
  408CHX    CAD 2445   3.089   2.849   0.131
  408CHX    CAF 2446   2.950   2.824   0.070
  408CHX    CAE 2447   2.962   2.785   4.922
  408CHX    CAC 2448   3.052   2.663   4.904
  409CHX    CAA 2449   3.019   1.558   1.174
  409CHX    CAB 2450   3.172   1.567   1.165
  409CHX    CAD 2451   3.213   1.685   1.075
  409CHX    CAF 2452   3.156   1.816   1.130
  409CHX    CAE 2453   3.004   1.808   1.144
  409CHX    CAC 2454   2.962   1.688   1.231
  410CHX    CAA 2455   0.897   0.871   4.653
  410CHX    CAB 2456   0.899   0.896   4.805
  410CHX    CAD 2457   0.787   0.816   4.874
  410CHX    CAF 2458   0.803   0.666   4.843
  410CHX    CAE 2459   0.800   0.642   4.691
  410CHX    CAC 2460   0.911   0.722   4.621
  411CHX    CAA 2461   0.941   0.454   3.742
  411CHX    CAB 2462   0.946   0.557   3.856
  411CHX    CAD 2463   0.903   0.696   3.806
  411CHX    CAF 2464   0.763   0.691   3.744
  411CHX    CAE 2465   0.757   0.588   3.630
  411CHX    CAC 2466   0.801   0.449   3.680
  412CHX    CAA 2467   2.907   1.661   3.308
  412CHX    CAB 2468   3.031   1.592   3.249
  412CHX    CAD 2469   3.053   1.635   3.103
  412CHX    CAF 2470   3.068   1.787   3.094
  412CHX    CAE 2471   2.944   1.857   3.152
  412CHX    CAC 2472   2.921   1.814   3.297
  413CHX    CAA 2473   1.840   3.596   0.662
  413CHX    CAB 2474   1.973   3.572   0.591
  413CHX    CAD 2475   2.090   3.627   0.674
  413CHX    CAF 2476   2.092   3.564   0.814
  413CHX    CAE 2477   1.958   3.589   0.886
  413CHX    CAC 2478   1.841   3.534   0.803
  414CHX    CAA 2479   4.489   0.987   1.584
  414CHX    CAB 2480   4.549   1.113   1.520
  414CHX    CAD 2481   4.584   1.088   1.373
  414CHX    CAF 2482   4.460   1.044   1.295
  414CHX    CAE 2483   4.397   0.918   1.358
  414CHX    CAC 2484   4.365   0.941   1.506
  415CHX    CAA 2485   1.381   1.520   1.470
  415CHX    CAB 2486   1.398   1.447   1.336
  415CHX    CAD 2487   1.510   1.342   1.345
  415CHX    CAF 2488   1.478   1.241   1.457
  415CHX    CAE 2489   1.462   1.313   1.591
  415CHX    CAC 2490   1.353   1.420   1.583
  416CHX    CAA 2491   4.964   2.819   1.429
  416CHX    CAB 2492   4.823   2.878   1.439
  416CHX    CAD 2493   4.718   2.767   1.453
  416CHX    CAF 2494   4.748   2.680   1.576
  416CHX    CAE 2495   4.889   2.621   1.568
  416CHX    CAC 2496   4.994   2.732   1.552
  417CHX    CAA 2497   3.871   3.093   0.008
  417CHX    CAB 2498   3.891   3.173   4.879
  417CHX    CAD 2499   3.773   3.154   4.782
  417CHX    CAF 2500   3.752   3.005   4.752
  417CHX    CAE 2501   3.730   2.925   4.882
  417CHX    CAC 2502   3.849   2.944   4.978
  418CHX    CAA 2503   1.768   4.247   4.598
  418CHX    CAB 2504   1.839   4.263   4.733
  418CHX    CAD 2505   1.838   4.131   4.812
  418CHX    CAF 2506   1.902   4.018   4.730
  418CHX    CAE 2507   1.830   4.002   4.595
  418CHX    CAC 2508   1.833   4.134   4.516
  419CHX    CAA 2509   3.312   0.791   1.252
  419CHX    CAB 2510   3.278   0.733   1.389
  419CHX    CAD 2511   3.209   0.837   1.479
  419CHX    CAF 2512   3.084   0.895   1.411
  419CHX    CAE 2513   3.120   0.955   1.274
  419CHX    CAC 2514   3.187   0.849   1.184
  420CHX    CAA 2515   4.168   4.717   0.478
  420CHX    CAB 2516   4.112   4.834   0.560
  420CHX    CAD 2517   4.183   4.843   0.695
  420CHX    CAF 2518   4.335   4.858   0.676
  420CHX    CAE 2519   4.391   4.741   0.593
  420CHX    CAC 2520   4.319   4.731   0.458
  421CHX    CAA 2521   3.943   2.326   2.179
  421CHX    CAB 2522   4.075   2.292   2.250
  421CHX    CAD 2523   4.125   2.411   2.334
  421CHX    CAF 2524   4.017   2.456   2.433
  421CHX    CAE 2525   3.886   2.491   2.361
  421CHX    CAC 2526   3.837   2.370   2.280
  422CHX    CAA 2527   0.175   0.715   1.183
  422CHX    CAB 2528   0.288   0.652   1.266
  422CHX    CAD 2529   0.353   0.756   1.358
  422CHX    CAF 2530   0.248   0.822   1.449
  422CHX    CAE 2531   0.135   0.885   1.366
  422CHX    CAC 2532   0.070   0.780   1.275
  423CHX    CAA 2533   4.761   2.531   3.459
  423CHX    CAB 2534   4.671   2.535   3.584
  423CHX    CAD 2535   4.524   2.519   3.544
  423CHX    CAF 2536   4.502   2.388   3.465
  423CHX    CAE 2537   4.591   2.386   3.340
  423CHX    CAC 2538   4.739   2.402   3.379
  424CHX    CAA 2539   3.077   3.330   2.060
  424CHX    CAB 2540   3.048   3.442   2.160
  424CHX    CAD 2541   2.943   3.539   2.103
  424CHX    CAF 2542   2.814   3.464   2.069
  424CHX    CAE 2543   2.842   3.352   1.968
  424CHX    CAC 2544   2.948   3.255   2.023
  425CHX    CAA 2545   2.425   1.670   0.548
  425CHX    CAB 2546   2.492   1.647   0.684
  425CHX    CAD 2547   2.418   1.722   0.796
  425CHX    CAF 2548   2.270   1.681   0.801
  425CHX    CAE 2549   2.204   1.705   0.664
  425CHX    CAC 2550   2.277   1.629   0.553
  426CHX    CAA 2551   3.878   3.719   3.620
  426CHX    CAB 2552   3.985   3.801   3.695
  426CHX    CAD 2553   4.010   3.743   3.835
  426CHX    CAF 2554   4.051   3.596   3.827
  426CHX    CAE 2555   3.945   3.514   3.752
  426CHX    CAC 2556   3.920   3.571   3.612
  427CHX    CAA 2557   1.761   3.713   2.171
  427CHX    CAB 2558   1.861   3.827   2.196
  427CHX    CAD 2559   1.794   3.943   2.270
  427CHX    CAF 2560   1.729   3.896   2.401
  427CHX    CAE 2561   1.629   3.783   2.373
  427CHX    CAC 2562   1.698   3.666   2.302
  428CHX    CAA 2563   3.755   3.579   2.032
  428CHX    CAB 2564   3.774   3.427   2.038
  428CHX    CAD 2565   3.701   3.360   1.920
  428CHX    CAF 2566   3.753   3.416   1.787
  428CHX    CAE 2567   3.738   3.568   1.780
  428CHX    CAC 2568   3.808   3.635   1.899
  429CHX    CAA 2569   3.713   0.133   0.756
  429CHX    CAB 2570   3.623   0.120   0.880
  429CHX    CAD 2571   3.587   4.973   0.906
  429CHX    CAF 2572   3.713   4.886   0.919
  429CHX    CAE 2573   3.802   4.900   0.794
  429CHX    CAC 2574   3.839   0.048   0.771
  430CHX    CAA 2575   0.147   4.526   2.231
  430CHX    CAB 2576   0.266   4.484   2.144
  430CHX    CAD 2577   0.374   4.415   2.229
  430CHX    CAF 2578   0.316   4.293   2.302
  430CHX    CAE 2579   0.195   4.333   2.388
  430CHX    CAC 2580   0.088   4.404   2.303
  431CHX    CAA 2581   3.351   0.649   0.683
  431CHX    CAB 2582   3.297   0.606   0.821
  431CHX    CAD 2583   3.356   0.471   0.861
  431CHX    CAF 2584   3.509   0.479   0.865
  431CHX    CAE 2585   3.565   0.522   0.729
  431CHX    CAC 2586   3.504   0.656   0.684
  432CHX    CAA 2587   2.494   0.024   3.467
  432CHX    CAB 2588   2.395   0.040   3.350
  432CHX    CAD 2589   2.436   4.952   3.232
  432CHX    CAF 2590   2.445   4.804   3.274
  432CHX    CAE 2591   2.541   4.787   3.393
  432CHX    CAC 2592   2.501   4.877   3.511
  433CHX    CAA 2593   1.522   3.375   0.129
  433CHX    CAB 2594   1.533   3.263   0.233
  433CHX    CAD 2595   1.677   3.255   0.286
  433CHX    CAF 2596   1.723   3.389   0.345
  433CHX    CAE 2597   1.711   3.501   0.240
  433CHX    CAC 2598   1.567   3.510   0.188
  434CHX    CAA 2599   0.478   1.772   4.889
  434CHX    CAB 2600   0.606   1.807   4.967
  434CHX    CAD 2601   0.661   1.683   0.037
  434CHX    CAF 2602   0.689   1.570   4.936
  434CHX    CAE 2603   0.562   1.536   4.857
  434CHX    CAC 2604   0.505   1.661   4.787
  435CHX    CAA 2605   4.848   0.971   3.629
  435CHX    CAB 2606   4.777   0.993   3.495
  435CHX    CAD 2607   4.646   1.072   3.514
  435CHX    CAF 2608   4.673   1.205   3.586
  435CHX    CAE 2609   4.744   1.183   3.720
  435CHX    CAC 2610   4.875   1.105   3.699
  436CHX    CAA 2611   1.372   4.574   2.916
  436CHX    CAB 2612   1.504   4.509   2.874
  436CHX    CAD 2613   1.595   4.491   2.996
  436CHX    CAF 2614   1.526   4.406   3.104
  436CHX    CAE 2615   1.392   4.470   3.144
  436CHX    CAC 2616   1.301   4.489   3.022
  437CHX    CAA 2617   4.003   1.267   1.948
  437CHX    CAB 2618   3.917   1.345   2.047
  437CHX    CAD 2619   3.836   1.453   1.974
  437CHX    CAF 2620   3.749   1.391   1.864
  437CHX    CAE 2621   3.835   1.310   1.765
  437CHX    CAC 2622   3.916   1.203   1.839
  438CHX    CAA 2623   2.786   2.921   4.626
  438CHX    CAB 2624   2.925   2.979   4.595
  438CHX    CAD 2625   2.975   2.929   4.459
  438CHX    CAF 2626   2.875   2.962   4.348
  438CHX    CAE 2627   2.737   2.905   4.380
  438CHX    CAC 2628   2.686   2.957   4.516
  439CHX    CAA 2629   4.529   0.349   1.968
  439CHX    CAB 2630   4.665   0.358   2.039
  439CHX    CAD 2631   4.746   0.230   2.018
  439CHX    CAF 2632   4.764   0.199   1.869
  439CHX    CAE 2633   4.628   0.190   1.798
  439CHX    CAC 2634   4.548   0.319   1.818
  440CHX    CAA 2635   3.030   0.409   3.797
  440CHX    CAB 2636   2.917   0.510   3.820
  440CHX    CAD 2637   2.842   0.479   3.950
  440CHX    CAF 2638   2.938   0.478   4.070
  440CHX    CAE 2639   3.052   0.377   4.047
  440CHX    CAC 2640   3.127   0.407   3.916
  441CHX    CAA 2641   2.917   0.079   3.081
  441CHX    CAB 2642   2.981   4.968   2.998
  441CHX    CAD 2643   3.025   4.851   3.088
  441CHX    CAF 2644   2.908   4.797   3.170
  441CHX    CAE 2645   2.842   4.909   3.251
  441CHX    CAC 2646   2.798   0.025   3.161
  442CHX    CAA 2647   4.512   4.216   2.659
  442CHX    CAB 2648   4.444   4.116   2.565
  442CHX    CAD 2649   4.532   4.086   2.443
  442CHX    CAF 2650   4.672   4.037   2.487
  442CHX    CAE 2651   4.739   4.142   2.576
  442CHX    CAC 2652   4.652   4.169   2.700
  443CHX    CAA 2653   3.801   3.988   3.343
  443CHX    CAB 2654   3.905   4.061   3.429
  443CHX    CAD 2655   4.041   4.062   3.359
  443CHX    CAF 2656   4.031   4.124   3.219
  443CHX    CAE 2657   3.925   4.053   3.134
  443CHX    CAC 2658   3.789   4.055   3.205
  444CHX    CAA 2659   3.332   2.877   1.594
  444CHX    CAB 2660   3.440   2.803   1.514
  444CHX    CAD 2661   3.450   2.858   1.372
  444CHX    CAF 2662   3.477   3.009   1.373
  444CHX    CAE 2663   3.368   3.083   1.452
  444CHX    CAC 2664   3.358   3.028   1.595
  445CHX    CAA 2665   0.447   0.317   4.990
  445CHX    CAB 2666   0.387   0.452   0.029
  445CHX    CAD 2667   0.460   0.566   4.958
  445CHX    CAF 2668   0.453   0.546   4.806
  445CHX    CAE 2669   0.515   0.412   4.765
  445CHX    CAC 2670   0.444   0.296   4.837
  446CHX    CAA 2671   0.614   3.325   2.307
  446CHX    CAB 2672   0.632   3.174   2.286
  446CHX    CAD 2673   0.568   3.095   2.401
  446CHX    CAF 2674   0.419   3.131   2.415
  446CHX    CAE 2675   0.401   3.283   2.434
  446CHX    CAC 2676   0.465   3.361   2.318
  447CHX    CAA 2677   1.952   2.934   2.860
  447CHX    CAB 2678   1.886   2.802   2.903
  447CHX    CAD 2679   1.895   2.697   2.792
  447CHX    CAF 2680   2.042   2.674   2.752
  447CHX    CAE 2681   2.106   2.805   2.705
  447CHX    CAC 2682   2.097   2.911   2.816
  448CHX    CAA 2683   0.947   2.935   4.128
  448CHX    CAB 2684   0.924   3.067   4.054
  448CHX    CAD 2685   0.783   3.121   4.078
  448CHX    CAF 2686   0.757   3.136   4.229
  448CHX    CAE 2687   0.778   3.003   4.302
  448CHX    CAC 2688   0.920   2.949   4.278
  449CHX    CAA 2689   4.514   2.266   4.033
  449CHX    CAB 2690   4.501   2.418   4.054
  449CHX    CAD 2691   4.469   2.487   3.921
  449CHX    CAF 2692   4.340   2.430   3.861
  449CHX    CAE 2693   4.352   2.279   3.839
  449CHX    CAC 2694   4.386   2.208   3.971
  450CHX    CAA 2695   2.782   3.379   3.620
  450CHX    CAB 2696   2.807   3.229   3.637
  450CHX    CAD 2697   2.682   3.159   3.694
  450CHX    CAF 2698   2.559   3.187   3.607
  450CHX    CAE 2699   2.537   3.338   3.588
  450CHX    CAC 2700   2.661   3.405   3.529
  451CHX    CAA 2701   2.962   0.153   4.668
  451CHX    CAB 2702   3.102   0.173   4.610
  451CHX    CAD 2703   3.101   0.158   4.457
  451CHX    CAF 2704   3.001   0.256   4.394
  451CHX    CAE 2705   2.860   0.236   4.453
  451CHX    CAC 2706   2.863   0.251   4.605
  452CHX    CAA 2707   4.293   3.679   2.809
  452CHX    CAB 2708   4.368   3.767   2.707
  452CHX    CAD 2709   4.501   3.816   2.766
  452CHX    CAF 2710   4.587   3.697   2.809
  452CHX    CAE 2711   4.513   3.608   2.910
  452CHX    CAC 2712   4.380   3.560   2.851
  453CHX    CAA 2713   4.763   2.827   0.628
  453CHX    CAB 2714   4.670   2.710   0.663
  453CHX    CAD 2715   4.531   2.761   0.705
  453CHX    CAF 2716   4.470   2.847   0.594
  453CHX    CAE 2717   4.563   2.964   0.559
  453CHX    CAC 2718   4.702   2.913   0.517
  454CHX    CAA 2719   1.841   4.227   2.871
  454CHX    CAB 2720   1.972   4.304   2.893
  454CHX    CAD 2721   1.975   4.370   3.032
  454CHX    CAF 2722   1.954   4.265   3.141
  454CHX    CAE 2723   1.823   4.188   3.119
  454CHX    CAC 2724   1.821   4.121   2.981
  455CHX    CAA 2725   1.058   2.241   4.735
  455CHX    CAB 2726   0.907   2.265   4.737
  455CHX    CAD 2727   0.872   2.403   4.681
  455CHX    CAF 2728   0.927   2.419   4.538
  455CHX    CAE 2729   1.079   2.397   4.537
  455CHX    CAC 2730   1.113   2.258   4.593
  456CHX    CAA 2731   2.385   4.245   1.663
  456CHX    CAB 2732   2.478   4.253   1.542
  456CHX    CAD 2733   2.489   4.398   1.491
  456CHX    CAF 2734   2.539   4.489   1.603
  456CHX    CAE 2735   2.444   4.482   1.724
  456CHX    CAC 2736   2.432   4.338   1.775
  457CHX    CAA 2737   0.326   2.762   3.354
  457CHX    CAB 2738   0.390   2.848   3.244
  457CHX    CAD 2739   0.333   2.990   3.245
  457CHX    CAF 2740   0.352   3.055   3.383
  457CHX    CAE 2741   0.285   2.971   3.492
  457CHX    CAC 2742   0.341   2.828   3.492
  458CHX    CAA 2743   0.928   1.833   4.663
  458CHX    CAB 2744   1.079   1.859   4.675
  458CHX    CAD 2745   1.163   1.759   4.593
  458CHX    CAF 2746   1.131   1.613   4.630
  458CHX    CAE 2747   0.987   1.586   4.678
  458CHX    CAC 2748   0.887   1.689   4.623
  459CHX    CAA 2749   2.167   1.674   4.616
  459CHX    CAB 2750   2.165   1.730   4.473
  459CHX    CAD 2751   2.031   1.797   4.443
  459CHX    CAF 2752   2.001   1.908   4.544
  459CHX    CAE 2753   2.004   1.854   4.687
  459CHX    CAC 2754   2.138   1.786   4.718
  460CHX    CAA 2755   2.343   4.017   0.127
  460CHX    CAB 2756   2.216   3.997   0.043
  460CHX    CAD 2757   2.119   4.115   0.062
  460CHX    CAF 2758   2.188   4.248   0.028
  460CHX    CAE 2759   2.315   4.267   0.111
  460CHX    CAC 2760   2.412   4.149   0.091
  461CHX    CAA 2761   3.757   0.265   2.535
  461CHX    CAB 2762   3.829   0.395   2.499
  461CHX    CAD 2763   3.727   0.505   2.464
  461CHX    CAF 2764   3.631   0.527   2.581
  461CHX    CAE 2765   3.559   0.397   2.619
  461CHX    CAC 2766   3.660   0.286   2.651
  462CHX    CAA 2767   0.554   3.605   1.562
  462CHX    CAB 2768   0.675   3.515   1.531
  462CHX    CAD 2769   0.643   3.416   1.418
  462CHX    CAF 2770   0.595   3.489   1.293
  462CHX    CAE 2771   0.473   3.577   1.326
  462CHX    CAC 2772   0.506   3.678   1.436
  463CHX    CAA 2773   2.111   2.162   3.088
  463CHX    CAB 2774   2.182   2.292   3.049
  463CHX    CAD 2775   2.079   2.401   3.014
  463CHX    CAF 2776   1.981   2.424   3.130
  463CHX    CAE 2777   1.911   2.293   3.171
  463CHX    CAC 2778   2.014   2.185   3.205
  464CHX    CAA 2779   4.753   2.311   0.056
  464CHX    CAB 2780   4.743   2.167   0.002
  464CHX    CAD 2781   4.850   2.078   0.065
  464CHX    CAF 2782   4.839   2.078   0.218
  464CHX    CAE 2783   4.850   2.222   0.272
  464CHX    CAC 2784   4.743   2.312   0.209
  465CHX    CAA 2785   0.742   2.480   0.065
  465CHX    CAB 2786   0.668   2.350   0.029
  465CHX    CAD 2787   0.518   2.362   0.058
  465CHX    CAF 2788   0.458   2.481   4.982
  465CHX    CAE 2789   0.530   2.611   0.019
  465CHX    CAC 2790   0.681   2.600   4.991
  466CHX    CAA 2791   3.648   3.737   4.567
  466CHX    CAB 2792   3.539   3.723   4.674
  466CHX    CAD 2793   3.466   3.589   4.658
  466CHX    CAF 2794   3.565   3.472   4.664
  466CHX    CAE 2795   3.676   3.487   4.559
  466CHX    CAC 2796   3.748   3.621   4.575
  467CHX    CAA 2797   2.936   4.432   0.921
  467CHX    CAB 2798   2.922   4.466   0.772
  467CHX    CAD 2799   3.059   4.455   0.703
  467CHX    CAF 2800   3.119   4.315   0.720
  467CHX    CAE 2801   3.132   4.280   0.869
  467CHX    CAC 2802   2.996   4.292   0.940
  468CHX    CAA 2803   1.902   4.376   0.442
  468CHX    CAB 2804   1.954   4.503   0.374
  468CHX    CAD 2805   1.986   4.477   0.227
  468CHX    CAF 2806   1.863   4.421   0.153
  468CHX    CAE 2807   1.811   4.294   0.221
  468CHX    CAC 2808   1.778   4.322   0.368
  469CHX    CAA 2809   4.684   1.880   1.894
  469CHX    CAB 2810   4.787   1.952   1.805
  469CHX    CAD 2811   4.908   1.996   1.888
  469CHX    CAF 2812   4.972   1.876   1.958
  469CHX    CAE 2813   4.870   1.802   2.046
  469CHX    CAC 2814   4.748   1.759   1.963
  470CHX    CAA 2815   3.648   0.762   4.233
  470CHX    CAB 2816   3.774   0.850   4.226
  470CHX    CAD 2817   3.824   0.885   4.367
  470CHX    CAF 2818   3.850   0.757   4.449
  470CHX    CAE 2819   3.725   0.669   4.455
  470CHX    CAC 2820   3.677   0.634   4.314
  471CHX    CAA 2821   0.755   3.481   3.676
  471CHX    CAB 2822   0.790   3.515   3.530
  471CHX    CAD 2823   0.893   3.416   3.474
  471CHX    CAF 2824   0.841   3.272   3.485
  471CHX    CAE 2825   0.808   3.238   3.631
  471CHX    CAC 2826   0.705   3.336   3.688
  472CHX    CAA 2827   4.968   4.072   3.534
  472CHX    CAB 2828   0.081   4.016   3.622
  472CHX    CAD 2829   0.056   3.868   3.654
  472CHX    CAF 2830   0.039   3.785   3.526
  472CHX    CAE 2831   4.927   3.842   3.438
  472CHX    CAC 2832   4.954   3.990   3.406
  473CHX    CAA 2833   2.007   4.487   1.554
  473CHX    CAB 2834   2.130   4.502   1.462
  473CHX    CAD 2835   2.162   4.650   1.438
  473CHX    CAF 2836   2.183   4.724   1.571
  473CHX    CAE 2837   2.059   4.710   1.661
  473CHX    CAC 2838   2.028   4.562   1.686
  474CHX    CAA 2839   0.306   3.285   1.143
  474CHX    CAB 2840   0.345   3.198   1.263
  474CHX    CAD 2841   0.235   3.095   1.295
  474CHX    CAF 2842   0.209   3.007   1.172
  474CHX    CAE 2843   0.169   3.093   1.052
  474CHX    CAC 2844   0.276   3.198   1.020
  475CHX    CAA 2845   3.160   1.631   0.007
  475CHX    CAB 2846   3.235   1.765   0.013
  475CHX    CAD 2847   3.141   1.877   0.061
  475CHX    CAF 2848   3.083   1.843   0.199
  475CHX    CAE 2849   3.007   1.709   0.193
  475CHX    CAC 2850   3.099   1.596   0.143
  476CHX    CAA 2851   4.656   4.215   1.664
  476CHX    CAB 2852   4.809   4.219   1.671
  476CHX    CAD 2853   4.870   4.247   1.533
  476CHX    CAF 2854   4.814   4.378   1.475
  476CHX    CAE 2855   4.661   4.373   1.467
  476CHX    CAC 2856   4.600   4.345   1.606
  477CHX    CAA 2857   4.672   2.310   1.500
  477CHX    CAB 2858   4.800   2.228   1.521
  477CHX    CAD 2859   4.808   2.113   1.419
  477CHX    CAF 2860   4.796   2.165   1.275
  477CHX    CAE 2861   4.669   2.249   1.256
  477CHX    CAC 2862   4.665   2.364   1.357
  478CHX    CAA 2863   2.924   0.811   3.126
  478CHX    CAB 2864   3.063   0.872   3.152
  478CHX    CAD 2865   3.160   0.834   3.039
  478CHX    CAF 2866   3.104   0.878   2.903
  478CHX    CAE 2867   2.966   0.817   2.878
  478CHX    CAC 2868   2.868   0.856   2.990
  479CHX    CAA 2869   2.215   3.923   2.277
  479CHX    CAB 2870   2.177   4.037   2.182
  479CHX    CAD 2871   2.190   4.173   2.251
  479CHX    CAF 2872   2.333   4.194   2.303
  479CHX    CAE 2873   2.373   4.081   2.399
  479CHX    CAC 2874   2.357   3.943   2.332
  480CHX    CAA 2875   2.170   1.463   4.031
  480CHX    CAB 2876   2.072   1.393   3.937
  480CHX    CAD 2877   1.973   1.307   4.016
  480CHX    CAF 2878   1.899   1.390   4.122
  480CHX    CAE 2879   1.999   1.459   4.216
  480CHX    CAC 2880   2.095   1.548   4.135
  481CHX    CAA 2881   1.344   1.115   4.566
  481CHX    CAB 2882   1.386   1.163   4.706
  481CHX    CAD 2883   1.290   1.269   4.761
  481CHX    CAF 2884   1.146   1.216   4.763
  481CHX    CAE 2885   1.105   1.171   4.623
  481CHX    CAC 2886   1.200   1.063   4.568
  482CHX    CAA 2887   4.036   0.232   3.759
  482CHX    CAB 2888   4.067   0.152   3.631
  482CHX    CAD 2889   3.978   0.028   3.622
  482CHX    CAF 2890   3.829   0.066   3.628
  482CHX    CAE 2891   3.798   0.146   3.755
  482CHX    CAC 2892   3.887   0.271   3.764
  483CHX    CAA 2893   0.197   2.447   4.579
  483CHX    CAB 2894   0.050   2.426   4.539
  483CHX    CAD 2895   4.968   2.373   4.657
  483CHX    CAF 2896   4.978   2.466   4.778
  483CHX    CAE 2897   0.125   2.485   4.819
  483CHX    CAC 2898   0.207   2.540   4.701
  484CHX    CAA 2899   3.772   1.819   1.869
  484CHX    CAB 2900   3.881   1.922   1.834
  484CHX    CAD 2901   3.981   1.862   1.734
  484CHX    CAF 2902   3.909   1.811   1.608
  484CHX    CAE 2903   3.799   1.710   1.645
  484CHX    CAC 2904   3.698   1.772   1.743
  485CHX    CAA 2905   2.127   3.939   1.434
  485CHX    CAB 2906   2.145   4.091   1.425
  485CHX    CAD 2907   2.038   4.154   1.334
  485CHX    CAF 2908   1.897   4.120   1.384
  485CHX    CAE 2909   1.878   3.967   1.391
  485CHX    CAC 2910   1.985   3.903   1.481
  486CHX    CAA 2911   4.395   0.924   4.039
  486CHX    CAB 2912   4.248   0.948   4.001
  486CHX    CAD 2913   4.156   0.857   4.084
  486CHX    CAF 2914   4.178   0.879   4.234
  486CHX    CAE 2915   4.325   0.855   4.272
  486CHX    CAC 2916   4.417   0.946   4.190
  487CHX    CAA 2917   0.814   3.952   1.610
  487CHX    CAB 2918   0.745   3.887   1.731
  487CHX    CAD 2919   0.641   3.982   1.791
  487CHX    CAF 2920   0.536   4.020   1.685
  487CHX    CAE 2921   0.604   4.084   1.563
  487CHX    CAC 2922   0.710   3.990   1.504
  488CHX    CAA 2923   1.226   2.129   0.709
  488CHX    CAB 2924   1.097   2.052   0.679
  488CHX    CAD 2925   1.125   1.902   0.659
  488CHX    CAF 2926   1.196   1.843   0.781
  488CHX    CAE 2927   1.324   1.921   0.813
  488CHX    CAC 2928   1.294   2.070   0.834
  489CHX    CAA 2929   4.834   3.695   1.776
  489CHX    CAB 2930   4.763   3.560   1.757
  489CHX    CAD 2931   4.612   3.579   1.736
  489CHX    CAF 2932   4.585   3.675   1.619
  489CHX    CAE 2933   4.653   3.810   1.642
  489CHX    CAC 2934   4.804   3.791   1.659
  490CHX    CAA 2935   0.524   4.741   0.423
  490CHX    CAB 2936   0.583   4.859   0.502
  490CHX    CAD 2937   0.498   4.986   0.483
  490CHX    CAF 2938   0.353   4.959   0.527
  490CHX    CAE 2939   0.293   4.844   0.445
  490CHX    CAC 2940   0.377   4.716   0.462
  491CHX    CAA 2941   3.998   0.854   1.330
  491CHX    CAB 2942   3.997   0.844   1.483
  491CHX    CAD 2943   3.972   0.981   1.546
  491CHX    CAF 2944   3.841   1.044   1.493
  491CHX    CAE 2945   3.843   1.053   1.340
  491CHX    CAC 2946   3.867   0.915   1.278
  492CHX    CAA 2947   2.277   3.155   3.360
  492CHX    CAB 2948   2.151   3.113   3.283
  492CHX    CAD 2949   2.159   3.155   3.136
  492CHX    CAF 2950   2.287   3.103   3.070
  492CHX    CAE 2951   2.411   3.149   3.147
  492CHX    CAC 2952   2.403   3.100   3.292
  493CHX    CAA 2953   4.525   0.244   0.378
  493CHX    CAB 2954   4.464   0.165   0.495
  493CHX    CAD 2955   4.319   0.208   0.519
  493CHX    CAF 2956   4.235   0.192   0.392
  493CHX    CAE 2957   4.296   0.272   0.276
  493CHX    CAC 2958   4.441   0.227   0.251
  494CHX    CAA 2959   1.766   4.332   3.455
  494CHX    CAB 2960   1.697   4.461   3.501
  494CHX    CAD 2961   1.546   4.455   3.475
  494CHX    CAF 2962   1.483   4.332   3.542
  494CHX    CAE 2963   1.552   4.204   3.495
  494CHX    CAC 2964   1.703   4.209   3.522
  495CHX    CAA 2965   3.709   1.358   3.992
  495CHX    CAB 2966   3.860   1.367   4.019
  495CHX    CAD 2967   3.915   1.229   4.061
  495CHX    CAF 2968   3.884   1.123   3.955
  495CHX    CAE 2969   3.733   1.115   3.928
  495CHX    CAC 2970   3.679   1.252   3.885
  496CHX    CAA 2971   1.999   1.223   2.886
  496CHX    CAB 2972   2.142   1.174   2.859
  496CHX    CAD 2973   2.144   1.077   2.740
  496CHX    CAF 2974   2.084   1.143   2.614
  496CHX    CAE 2975   1.942   1.194   2.642
  496CHX    CAC 2976   1.939   1.290   2.761
  497CHX    CAA 2977   4.051   0.103   2.735
  497CHX    CAB 2978   3.949   0.152   2.839
  497CHX    CAD 2979   4.020   0.214   2.960
  497CHX    CAF 2980   4.115   0.326   2.918
  497CHX    CAE 2981   4.217   0.274   2.816
  497CHX    CAC 2982   4.146   0.216   2.693
  498CHX    CAA 2983   2.095   3.707   1.833
  498CHX    CAB 2984   2.114   3.626   1.962
  498CHX    CAD 2985   2.024   3.502   1.963
  498CHX    CAF 2986   2.051   3.414   1.840
  498CHX    CAE 2987   2.033   3.494   1.710
  498CHX    CAC 2988   2.122   3.619   1.709
  499CHX    CAA 2989   4.894   0.160   0.336
  499CHX    CAB 2990   4.908   0.245   0.209
  499CHX    CAD 2991   0.007   0.361   0.231
  499CHX    CAF 2992   0.143   0.310   0.278
  499CHX    CAE 2993   0.128   0.227   0.407
  499CHX    CAC 2994   0.032   0.110   0.383
  500CHX    CAA 2995   0.308   0.378   0.791
  500CHX    CAB 2996   0.414   0.314   0.700
  500CHX    CAD 2997   0.440   0.399   0.576
  500CHX    CAF 2998   0.481   0.542   0.616
  500CHX    CAE 2999   0.373   0.607   0.704
  500CHX    CAC 3000   0.347   0.521   0.830
  501CHX    CAA 3001   1.530   4.923   4.679
  501CHX    CAB 3002   1.620   4.911   4.803
  501CHX    CAD 3003   1.601   0.031   4.897
  501CHX    CAF 3004   1.453   0.044   4.938
  501CHX    CAE 3005   1.364   0.058   4.814
  501CHX    CAC 3006   1.383   4.938   4.719
  502CHX    CAA 3007   1.676   1.283   3.685
  502CHX    CAB 3008   1.587   1.301   3.561
  502CHX    CAD 3009   1.636   1.421   3.478
  502CHX    CAF 3010   1.782   1.400   3.435
  502CHX    CAE 3011   1.872   1.380   3.558
  502CHX    CAC 3012   1.822   1.262   3.643
  503CHX    CAA 3013   3.603   0.771   1.650
  503CHX    CAB 3014   3.716   0.753   1.752
  503CHX    CAD 3015   3.756   0.605   1.765
  503CHX    CAF 3016   3.798   0.549   1.628
  503CHX    CAE 3017   3.685   0.566   1.525
  503CHX    CAC 3018   3.642   0.713   1.513
  504CHX    CAA 3019   1.682   0.281   2.354
  504CHX    CAB 3020   1.818   0.329   2.301
  504CHX    CAD 3021   1.932   0.287   2.396
  504CHX    CAF 3022   1.931   0.135   2.418
  504CHX    CAE 3023   1.795   0.087   2.469
  504CHX    CAC 3024   1.682   0.128   2.373
  505CHX    CAA 3025   0.600   0.405   1.261
  505CHX    CAB 3026   0.668   0.309   1.162
  505CHX    CAD 3027   0.642   0.355   1.018
  505CHX    CAF 3028   0.695   0.498   0.997
  505CHX    CAE 3029   0.628   0.595   1.096
  505CHX    CAC 3030   0.651   0.549   1.241
  506CHX    CAA 3031   2.656   1.393   1.717
  506CHX    CAB 3032   2.646   1.242   1.746
  506CHX    CAD 3033   2.663   1.214   1.896
  506CHX    CAF 3034   2.562   1.294   1.979
  506CHX    CAE 3035   2.573   1.445   1.951
  506CHX    CAC 3036   2.553   1.471   1.801
  507CHX    CAA 3037   0.509   2.942   2.742
  507CHX    CAB 3038   0.601   2.833   2.685
  507CHX    CAD 3039   0.737   2.834   2.757
  507CHX    CAF 3040   0.719   2.816   2.909
  507CHX    CAE 3041   0.626   2.924   2.966
  507CHX    CAC 3042   0.491   2.925   2.893
  508CHX    CAA 3043   3.158   0.824   2.396
  508CHX    CAB 3044   3.186   0.706   2.302
  508CHX    CAD 3045   3.304   0.622   2.352
  508CHX    CAF 3046   3.280   0.575   2.496
  508CHX    CAE 3047   3.256   0.694   2.589
  508CHX    CAC 3048   3.137   0.777   2.541
  509CHX    CAA 3049   3.228   3.602   3.099
  509CHX    CAB 3050   3.173   3.714   3.011
  509CHX    CAD 3051   3.021   3.728   3.027
  509CHX    CAF 3052   2.985   3.754   3.174
  509CHX    CAE 3053   3.040   3.642   3.264
  509CHX    CAC 3054   3.192   3.627   3.246
  510CHX    CAA 3055   1.239   2.050   2.990
  510CHX    CAB 3056   1.182   1.930   3.067
  510CHX    CAD 3057   1.170   1.808   2.975
  510CHX    CAF 3058   1.308   1.772   2.917
  510CHX    CAE 3059   1.366   1.890   2.839
  510CHX    CAC 3060   1.375   2.015   2.928
  511CHX    CAA 3061   4.860   0.615   0.515
  511CHX    CAB 3062   4.997   0.593   0.578
  511CHX    CAD 3063   4.983   0.522   0.713
  511CHX    CAF 3064   4.910   0.387   0.696
  511CHX    CAE 3065   4.772   0.409   0.634
  511CHX    CAC 3066   4.784   0.482   0.500
  512CHX    CAA 3067   1.816   3.978   0.552
  512CHX    CAB 3068   1.881   3.909   0.431
  512CHX    CAD 3069   2.001   3.990   0.381
  512CHX    CAF 3070   2.104   4.012   0.493
  512CHX    CAE 3071   2.039   4.079   0.615
  512CHX    CAC 3072   1.919   3.998   0.664
  513CHX    CAA 3073   4.363   3.222   4.258
  513CHX    CAB 3074   4.497   3.247   4.329
  513CHX    CAD 3075   4.581   3.351   4.254
  513CHX    CAF 3076   4.503   3.483   4.241
  513CHX    CAE 3077   4.370   3.459   4.168
  513CHX    CAC 3078   4.286   3.354   4.242
  514CHX    CAA 3079   3.434   0.273   3.724
  514CHX    CAB 3080   3.427   0.234   3.576
  514CHX    CAD 3081   3.367   0.348   3.493
  514CHX    CAF 3082   3.449   0.477   3.509
  514CHX    CAE 3083   3.458   0.516   3.658
  514CHX    CAC 3084   3.516   0.402   3.742
  515CHX    CAA 3085   0.139   2.318   1.816
  515CHX    CAB 3086   0.197   2.457   1.782
  515CHX    CAD 3087   0.143   2.564   1.878
  515CHX    CAF 3088   0.173   2.527   2.024
  515CHX    CAE 3089   0.118   2.388   2.058
  515CHX    CAC 3090   0.172   2.281   1.961
  516CHX    CAA 3091   1.265   1.821   2.005
  516CHX    CAB 3092   1.255   1.689   1.925
  516CHX    CAD 3093   1.394   1.646   1.877
  516CHX    CAF 3094   1.491   1.630   1.996
  516CHX    CAE 3095   1.500   1.762   2.075
  516CHX    CAC 3096   1.361   1.806   2.123
  517CHX    CAA 3097   4.673   0.377   4.070
  517CHX    CAB 3098   4.705   0.501   4.155
  517CHX    CAD 3099   4.578   0.579   4.188
  517CHX    CAF 3100   4.477   0.489   4.262
  517CHX    CAE 3101   4.445   0.365   4.177
  517CHX    CAC 3102   4.572   0.287   4.143
  518CHX    CAA 3103   4.265   3.609   1.233
  518CHX    CAB 3104   4.213   3.465   1.242
  518CHX    CAD 3105   4.294   3.373   1.150
  518CHX    CAF 3106   4.444   3.378   1.183
  518CHX    CAE 3107   4.496   3.523   1.176
  518CHX    CAC 3108   4.415   3.614   1.269
  519CHX    CAA 3109   1.184   1.364   0.761
  519CHX    CAB 3110   1.078   1.254   0.767
  519CHX    CAD 3111   1.058   1.204   0.911
  519CHX    CAF 3112   1.024   1.320   1.005
  519CHX    CAE 3113   1.131   1.430   0.999
  519CHX    CAC 3114   1.146   1.480   0.855
  520CHX    CAA 3115   3.758   3.668   1.026
  520CHX    CAB 3116   3.664   3.577   0.946
  520CHX    CAD 3117   3.739   3.515   0.827
  520CHX    CAF 3118   3.862   3.436   0.876
  520CHX    CAE 3119   3.957   3.528   0.953
  520CHX    CAC 3120   3.885   3.594   1.072
  521CHX    CAA 3121   1.423   0.382   4.506
  521CHX    CAB 3122   1.491   0.501   4.437
  521CHX    CAD 3123   1.629   0.528   4.501
  521CHX    CAF 3124   1.717   0.403   4.494
  521CHX    CAE 3125   1.649   0.285   4.563
  521CHX    CAC 3126   1.512   0.257   4.500
  522CHX    CAA 3127   3.332   4.751   1.105
  522CHX    CAB 3128   3.247   4.625   1.079
  522CHX    CAD 3129   3.328   4.498   1.110
  522CHX    CAF 3130   3.380   4.500   1.254
  522CHX    CAE 3131   3.465   4.626   1.280
  522CHX    CAC 3132   3.384   4.753   1.250
  523CHX    CAA 3133   2.711   1.784   1.679
  523CHX    CAB 3134   2.635   1.899   1.745
  523CHX    CAD 3135   2.623   1.876   1.896
  523CHX    CAF 3136   2.762   1.858   1.961
  523CHX    CAE 3137   2.838   1.743   1.894
  523CHX    CAC 3138   2.850   1.767   1.743
  524CHX    CAA 3139   1.493   1.938   1.169
  524CHX    CAB 3140   1.421   2.053   1.241
  524CHX    CAD 3141   1.271   2.051   1.212
  524CHX    CAF 3142   1.210   1.916   1.253
  524CHX    CAE 3143   1.280   1.800   1.179
  524CHX    CAC 3144   1.431   1.803   1.208
  525CHX    CAA 3145   0.953   2.749   0.378
  525CHX    CAB 3146   1.012   2.696   0.509
  525CHX    CAD 3147   1.071   2.555   0.489
  525CHX    CAF 3148   1.177   2.556   0.377
  525CHX    CAE 3149   1.116   2.609   0.246
  525CHX    CAC 3150   1.058   2.749   0.266
  526CHX    CAA 3151   3.213   3.594   3.756
  526CHX    CAB 3152   3.115   3.564   3.642
  526CHX    CAD 3153   3.157   3.437   3.567
  526CHX    CAF 3154   3.169   3.318   3.662
  526CHX    CAE 3155   3.268   3.349   3.776
  526CHX    CAC 3156   3.224   3.475   3.852
  527CHX    CAA 3157   2.529   2.481   0.113
  527CHX    CAB 3158   2.653   2.570   0.093
  527CHX    CAD 3159   2.779   2.484   0.080
  527CHX    CAF 3160   2.764   2.383   4.964
  527CHX    CAE 3161   2.641   2.294   4.985
  527CHX    CAC 3162   2.514   2.380   4.999
  528CHX    CAA 3163   1.938   3.259   4.903
  528CHX    CAB 3164   1.860   3.150   4.977
  528CHX    CAD 3165   1.954   3.071   0.069
  528CHX    CAF 3166   2.027   3.164   0.168
  528CHX    CAE 3167   2.102   3.275   0.093
  528CHX    CAC 3168   2.006   3.354   0.002
  529CHX    CAA 3169   4.086   1.720   4.018
  529CHX    CAB 3170   4.207   1.664   3.942
  529CHX    CAD 3171   4.225   1.735   3.808
  529CHX    CAF 3172   4.238   1.887   3.827
  529CHX    CAE 3173   4.115   1.942   3.901
  529CHX    CAC 3174   4.098   1.872   4.036
  530CHX    CAA 3175   4.175   4.395   3.639
  530CHX    CAB 3176   4.253   4.331   3.523
  530CHX    CAD 3177   4.324   4.437   3.439
  530CHX    CAF 3178   4.416   4.523   3.526
  530CHX    CAE 3179   4.337   4.590   3.640
  530CHX    CAC 3180   4.266   4.484   3.726
  531CHX    CAA 3181   0.754   4.063   3.885
  531CHX    CAB 3182   0.677   3.965   3.795
  531CHX    CAD 3183   0.600   3.862   3.879
  531CHX    CAF 3184   0.506   3.933   3.977
  531CHX    CAE 3185   0.586   4.027   4.069
  531CHX    CAC 3186   0.661   4.132   3.985
  532CHX    CAA 3187   0.947   2.078   0.082
  532CHX    CAB 3188   0.993   2.221   0.112
  532CHX    CAD 3189   1.014   2.242   0.262
  532CHX    CAF 3190   1.118   2.143   0.316
  532CHX    CAE 3191   1.075   1.999   0.286
  532CHX    CAC 3192   1.050   1.977   0.136
  533CHX    CAA 3193   4.898   1.423   4.658
  533CHX    CAB 3194   4.850   1.278   4.645
  533CHX    CAD 3195   4.786   1.254   4.508
  533CHX    CAF 3196   4.884   1.289   4.396
  533CHX    CAE 3197   4.931   1.435   4.408
  533CHX    CAC 3198   4.996   1.459   4.545
  534CHX    CAA 3199   0.755   2.618   3.413
  534CHX    CAB 3200   0.680   2.661   3.539
  534CHX    CAD 3201   0.728   2.798   3.587
  534CHX    CAF 3202   0.713   2.904   3.476
  534CHX    CAE 3203   0.789   2.861   3.350
  534CHX    CAC 3204   0.740   2.724   3.302
  535CHX    CAA 3205   3.733   3.608   2.792
  535CHX    CAB 3206   3.862   3.548   2.850
  535CHX    CAD 3207   3.930   3.649   2.943
  535CHX    CAF 3208   3.835   3.691   3.056
  535CHX    CAE 3209   3.705   3.750   2.998
  535CHX    CAC 3210   3.637   3.649   2.905
  536CHX    CAA 3211   1.020   0.156   4.146
  536CHX    CAB 3212   1.098   0.280   4.101
  536CHX    CAD 3213   1.219   0.302   4.193
  536CHX    CAF 3214   1.310   0.178   4.193
  536CHX    CAE 3215   1.233   0.052   4.237
  536CHX    CAC 3216   1.109   0.031   4.148
  537CHX    CAA 3217   3.392   1.688   4.681
  537CHX    CAB 3218   3.505   1.749   4.596
  537CHX    CAD 3219   3.480   1.723   4.447
  537CHX    CAF 3220   3.344   1.777   4.404
  537CHX    CAE 3221   3.231   1.718   4.489
  537CHX    CAC 3222   3.256   1.745   4.638
  538CHX    CAA 3223   1.008   1.441   1.367
  538CHX    CAB 3224   0.995   1.458   1.519
  538CHX    CAD 3225   1.015   1.605   1.559
  538CHX    CAF 3226   0.915   1.695   1.486
  538CHX    CAE 3227   0.929   1.678   1.334
  538CHX    CAC 3228   0.909   1.532   1.293
  539CHX    CAA 3229   2.328   0.896   0.852
  539CHX    CAB 3230   2.283   0.751   0.870
  539CHX    CAD 3231   2.332   0.663   0.754
  539CHX    CAF 3232   2.484   0.672   0.737
  539CHX    CAE 3233   2.529   0.818   0.719
  539CHX    CAC 3234   2.481   0.905   0.836
  540CHX    CAA 3235   1.643   2.579   1.939
  540CHX    CAB 3236   1.600   2.726   1.936
  540CHX    CAD 3237   1.717   2.818   1.903
  540CHX    CAF 3238   1.778   2.778   1.768
  540CHX    CAE 3239   1.824   2.632   1.770
  540CHX    CAC 3240   1.707   2.539   1.805
  541CHX    CAA 3241   2.316   4.562   2.943
  541CHX    CAB 3242   2.203   4.595   2.845
  541CHX    CAD 3243   2.245   4.569   2.700
  541CHX    CAF 3244   2.296   4.425   2.681
  541CHX    CAE 3245   2.410   4.394   2.780
  541CHX    CAC 3246   2.365   4.417   2.924
  542CHX    CAA 3247   1.216   0.997   2.689
  542CHX    CAB 3248   1.257   0.955   2.831
  542CHX    CAD 3249   1.404   0.912   2.835
  542CHX    CAF 3250   1.495   1.024   2.781
  542CHX    CAE 3251   1.453   1.062   2.638
  542CHX    CAC 3252   1.307   1.108   2.635
  543CHX    CAA 3253   1.170   3.512   0.081
  543CHX    CAB 3254   1.096   3.396   0.148
  543CHX    CAD 3255   1.156   3.364   0.286
  543CHX    CAF 3256   1.152   3.489   0.376
  543CHX    CAE 3257   1.225   3.607   0.309
  543CHX    CAC 3258   1.165   3.637   0.171
  544CHX    CAA 3259   2.880   2.348   1.915
  544CHX    CAB 3260   2.815   2.234   1.835
  544CHX    CAD 3261   2.920   2.159   1.753
  544CHX    CAF 3262   3.031   2.104   1.844
  544CHX    CAE 3263   3.096   2.217   1.924
  544CHX    CAC 3264   2.992   2.294   2.006
  545CHX    CAA 3265   0.897   3.239   2.901
  545CHX    CAB 3266   0.759   3.259   2.965
  545CHX    CAD 3267   0.670   3.347   2.876
  545CHX    CAF 3268   0.657   3.288   2.735
  545CHX    CAE 3269   0.796   3.270   2.671
  545CHX    CAC 3270   0.884   3.180   2.760
  546CHX    CAA 3271   1.621   0.563   1.175
  546CHX    CAB 3272   1.661   0.431   1.243
  546CHX    CAD 3273   1.791   0.447   1.323
  546CHX    CAF 3274   1.779   0.560   1.427
  546CHX    CAE 3275   1.742   0.692   1.358
  546CHX    CAC 3276   1.611   0.676   1.279
  547CHX    CAA 3277   1.597   1.408   2.626
  547CHX    CAB 3278   1.501   1.528   2.616
  547CHX    CAD 3279   1.559   1.636   2.523
  547CHX    CAF 3280   1.589   1.578   2.384
  547CHX    CAE 3281   1.685   1.459   2.395
  547CHX    CAC 3282   1.627   1.351   2.486
  548CHX    CAA 3283   2.545   3.753   1.981
  548CHX    CAB 3284   2.629   3.796   2.102
  548CHX    CAD 3285   2.689   3.936   2.082
  548CHX    CAF 3286   2.578   4.038   2.053
  548CHX    CAE 3287   2.494   3.995   1.932
  548CHX    CAC 3288   2.435   3.856   1.952
  549CHX    CAA 3289   0.958   2.312   0.957
  549CHX    CAB 3290   0.966   2.463   0.985
  549CHX    CAD 3291   0.956   2.542   0.854
  549CHX    CAF 3292   0.825   2.509   0.781
  549CHX    CAE 3293   0.816   2.358   0.752
  549CHX    CAC 3294   0.827   2.278   0.883
  550CHX    CAA 3295   3.813   1.447   0.582
  550CHX    CAB 3296   3.955   1.478   0.533
  550CHX    CAD 3297   4.006   1.612   0.590
  550CHX    CAF 3298   4.001   1.610   0.743
  550CHX    CAE 3299   3.858   1.582   0.792
  550CHX    CAC 3300   3.807   1.448   0.736
  551CHX    CAA 3301   3.204   1.219   2.409
  551CHX    CAB 3302   3.302   1.133   2.489
  551CHX    CAD 3303   3.436   1.205   2.505
  551CHX    CAF 3304   3.415   1.340   2.575
  551CHX    CAE 3305   3.316   1.428   2.497
  551CHX    CAC 3306   3.183   1.355   2.478
  552CHX    CAA 3307   4.253   2.209   2.637
  552CHX    CAB 3308   4.360   2.132   2.715
  552CHX    CAD 3309   4.399   2.206   2.844
  552CHX    CAF 3310   4.275   2.229   2.931
  552CHX    CAE 3311   4.170   2.309   2.854
  552CHX    CAC 3312   4.130   2.236   2.725
  553CHX    CAA 3313   0.161   3.923   1.175
  553CHX    CAB 3314   0.289   3.991   1.225
  553CHX    CAD 3315   0.268   4.047   1.367
  553CHX    CAF 3316   0.226   3.935   1.463
  553CHX    CAE 3317   0.099   3.865   1.412
  553CHX    CAC 3318   0.119   3.810   1.270
  554CHX    CAA 3319   4.886   4.907   2.101
  554CHX    CAB 3320   0.004   4.910   2.004
  554CHX    CAD 3321   0.124   4.983   2.066
  554CHX    CAF 3322   0.164   4.917   2.199
  554CHX    CAE 3323   0.045   4.915   2.297
  554CHX    CAC 3324   4.926   4.842   2.234
  555CHX    CAA 3325   4.860   3.220   0.854
  555CHX    CAB 3326   4.715   3.227   0.805
  555CHX    CAD 3327   4.645   3.350   0.864
  555CHX    CAF 3328   4.720   3.478   0.828
  555CHX    CAE 3329   4.866   3.471   0.874
  555CHX    CAC 3330   4.937   3.347   0.817
  556CHX    CAA 3331   0.542   0.931   1.683
  556CHX    CAB 3332   0.507   0.797   1.749
  556CHX    CAD 3333   0.568   0.786   1.889
  556CHX    CAF 3334   0.525   0.904   1.978
  556CHX    CAE 3335   0.559   1.038   1.911
  556CHX    CAC 3336   0.496   1.048   1.771
  557CHX    CAA 3337   1.778   3.099   2.316
  557CHX    CAB 3338   1.675   3.201   2.368
  557CHX    CAD 3339   1.587   3.139   2.478
  557CHX    CAF 3340   1.674   3.086   2.593
  557CHX    CAE 3341   1.776   2.984   2.541
  557CHX    CAC 3342   1.865   3.045   2.432
  558CHX    CAA 3343   3.591   0.203   2.215
  558CHX    CAB 3344   3.548   0.058   2.244
  558CHX    CAD 3345   3.453   0.050   2.365
  558CHX    CAF 3346   3.361   0.173   2.386
  558CHX    CAE 3347   3.339   0.252   2.257
  558CHX    CAC 3348   3.472   0.298   2.193
  559CHX    CAA 3349   0.142   3.397   3.820
  559CHX    CAB 3350   0.102   3.545   3.838
  559CHX    CAD 3351   0.221   3.628   3.887
  559CHX    CAF 3352   0.339   3.616   3.789
  559CHX    CAE 3353   0.379   3.469   3.772
  559CHX    CAC 3354   0.260   3.385   3.723
  560CHX    CAA 3355   3.205   4.319   4.061
  560CHX    CAB 3356   3.122   4.436   4.118
  560CHX    CAD 3357   3.009   4.395   4.214
  560CHX    CAF 3358   2.958   4.253   4.190
  560CHX    CAE 3359   3.071   4.149   4.198
  560CHX    CAC 3360   3.211   4.199   4.157
  561CHX    CAA 3361   0.166   3.523   1.762
  561CHX    CAB 3362   0.293   3.459   1.820
  561CHX    CAD 3363   0.309   3.315   1.770
  561CHX    CAF 3364   0.311   3.311   1.617
  561CHX    CAE 3365   0.185   3.376   1.558
  561CHX    CAC 3366   0.169   3.520   1.608
  562CHX    CAA 3367   1.265   0.246   0.526
  562CHX    CAB 3368   1.308   0.292   0.386
  562CHX    CAD 3369   1.421   0.203   0.332
  562CHX    CAF 3370   1.380   0.055   0.330
  562CHX    CAE 3371   1.338   0.010   0.471
  562CHX    CAC 3372   1.224   0.098   0.525
  563CHX    CAA 3373   2.967   2.570   4.335
  563CHX    CAB 3374   3.077   2.512   4.244
  563CHX    CAD 3375   3.044   2.368   4.204
  563CHX    CAF 3376   2.906   2.361   4.136
  563CHX    CAE 3377   2.797   2.421   4.225
  563CHX    CAC 3378   2.831   2.565   4.265
  564CHX    CAA 3379   3.337   1.439   3.573
  564CHX    CAB 3380   3.187   1.423   3.542
  564CHX    CAD 3381   3.139   1.282   3.580
  564CHX    CAF 3382   3.167   1.252   3.728
  564CHX    CAE 3383   3.317   1.269   3.759
  564CHX    CAC 3384   3.365   1.410   3.721
  565CHX    CAA 3385   4.423   1.195   4.934
  565CHX    CAB 3386   4.565   1.174   4.879
  565CHX    CAD 3387   4.669   1.241   4.970
  565CHX    CAF 3388   4.658   1.188   0.114
  565CHX    CAE 3389   4.516   1.207   0.169
  565CHX    CAC 3390   4.412   1.141   0.078
  566CHX    CAA 3391   1.395   3.449   0.870
  566CHX    CAB 3392   1.498   3.432   0.757
  566CHX    CAD 3393   1.446   3.490   0.624
  566CHX    CAF 3394   1.407   3.637   0.642
  566CHX    CAE 3395   1.302   3.652   0.753
  566CHX    CAC 3396   1.354   3.596   0.886
  567CHX    CAA 3397   2.397   0.897   4.214
  567CHX    CAB 3398   2.444   0.977   4.336
  567CHX    CAD 3399   2.442   1.128   4.306
  567CHX    CAF 3400   2.302   1.172   4.261
  567CHX    CAE 3401   2.257   1.093   4.137
  567CHX    CAC 3402   2.258   0.942   4.168
  568CHX    CAA 3403   2.508   2.136   1.228
  568CHX    CAB 3404   2.609   2.205   1.322
  568CHX    CAD 3405   2.658   2.108   1.430
  568CHX    CAF 3406   2.719   1.983   1.367
  568CHX    CAE 3407   2.618   1.914   1.274
  568CHX    CAC 3408   2.568   2.010   1.165
  569CHX    CAA 3409   3.490   2.922   3.527
  569CHX    CAB 3410   3.559   3.008   3.420
  569CHX    CAD 3411   3.465   3.035   3.302
  569CHX    CAF 3412   3.337   3.103   3.351
  569CHX    CAE 3413   3.266   3.018   3.457
  569CHX    CAC 3414   3.361   2.990   3.575
  570CHX    CAA 3415   2.100   4.968   1.079
  570CHX    CAB 3416   2.021   4.883   1.179
  570CHX    CAD 3417   1.974   4.969   1.297
  570CHX    CAF 3418   1.889   0.086   1.248
  570CHX    CAE 3419   1.968   0.172   1.148
  570CHX    CAC 3420   2.016   0.086   1.030
  571CHX    CAA 3421   0.104   1.494   3.935
  571CHX    CAB 3422   4.993   1.447   4.030
  571CHX    CAD 3423   4.973   1.295   4.020
  571CHX    CAF 3424   0.105   1.222   4.051
  571CHX    CAE 3425   0.215   1.268   3.955
  571CHX    CAC 3426   0.235   1.420   3.964
  572CHX    CAA 3427   4.988   3.405   4.643
  572CHX    CAB 3428   4.877   3.332   4.567
  572CHX    CAD 3429   4.740   3.392   4.600
  572CHX    CAF 3430   4.737   3.543   4.569
  572CHX    CAE 3431   4.848   3.617   4.644
  572CHX    CAC 3432   4.986   3.556   4.614
  573CHX    CAA 3433   1.177   3.066   2.201
  573CHX    CAB 3434   1.129   3.185   2.117
  573CHX    CAD 3435   0.997   3.243   2.172
  573CHX    CAF 3436   1.011   3.281   2.320
  573CHX    CAE 3437   1.057   3.160   2.403
  573CHX    CAC 3438   1.191   3.107   2.349
  574CHX    CAA 3439   4.630   1.334   3.192
  574CHX    CAB 3440   4.720   1.412   3.096
  574CHX    CAD 3441   4.646   1.535   3.040
  574CHX    CAF 3442   4.599   1.626   3.155
  574CHX    CAE 3443   4.511   1.549   3.253
  574CHX    CAC 3444   4.584   1.425   3.307
  575CHX    CAA 3445   0.810   0.520   0.412
  575CHX    CAB 3446   0.965   0.516   0.408
  575CHX    CAD 3447   1.031   0.602   0.298
  575CHX    CAF 3448   0.953   0.731   0.274
  575CHX    CAE 3449   0.805   0.706   0.237
  575CHX    CAC 3450   0.747   0.570   0.281
  576CHX    CAA 3451   2.680   3.436   2.892
  576CHX    CAB 3452   2.673   3.579   2.834
  576CHX    CAD 3453   2.572   3.667   2.909
  576CHX    CAF 3454   2.604   3.675   3.059
  576CHX    CAE 3455   2.671   3.550   3.120
  576CHX    CAC 3456   2.639   3.423   3.040
  577CHX    CAA 3457   0.215   1.245   3.477
  577CHX    CAB 3458   0.167   1.351   3.578
  577CHX    CAD 3459   0.082   1.457   3.507
  577CHX    CAF 3460   4.962   1.392   3.437
  577CHX    CAE 3461   0.009   1.286   3.336
  577CHX    CAC 3462   0.096   1.180   3.405
  578CHX    CAA 3463   4.064   1.094   2.372
  578CHX    CAB 3464   4.133   1.213   2.440
  578CHX    CAD 3465   4.285   1.195   2.442
  578CHX    CAF 3466   4.339   1.176   2.299
  578CHX    CAE 3467   4.271   1.057   2.231
  578CHX    CAC 3468   4.119   1.074   2.230
  579CHX    CAA 3469   3.779   1.557   3.503
  579CHX    CAB 3470   3.853   1.687   3.467
  579CHX    CAD 3471   3.770   1.809   3.508
  579CHX    CAF 3472   3.735   1.804   3.657
  579CHX    CAE 3473   3.660   1.675   3.691
  579CHX    CAC 3474   3.744   1.552   3.652
  580CHX    CAA 3475   0.517   1.254   3.733
  580CHX    CAB 3476   0.566   1.390   3.682
  580CHX    CAD 3477   0.719   1.393   3.669
  580CHX    CAF 3478   0.769   1.279   3.579
  580CHX    CAE 3479   0.721   1.143   3.632
  580CHX    CAC 3480   0.568   1.140   3.643
  581CHX    CAA 3481   3.054   1.506   1.541
  581CHX    CAB 3482   3.118   1.517   1.681
  581CHX    CAD 3483   3.042   1.432   1.783
  581CHX    CAF 3484   3.035   1.284   1.741
  581CHX    CAE 3485   3.043   1.256   1.589
  581CHX    CAC 3486   2.985   1.372   1.508
  582CHX    CAA 3487   0.480   4.441   4.737
  582CHX    CAB 3488   0.327   4.441   4.728
  582CHX    CAD 3489   0.277   4.310   4.665
  582CHX    CAF 3490   0.325   4.189   4.745
  582CHX    CAE 3491   0.478   4.189   4.756
  582CHX    CAC 3492   0.529   4.320   4.818
  583CHX    CAA 3493   3.425   4.510   3.414
  583CHX    CAB 3494   3.391   4.600   3.534
  583CHX    CAD 3495   3.369   4.745   3.489
  583CHX    CAF 3496   3.261   4.754   3.380
  583CHX    CAE 3497   3.296   4.663   3.261
  583CHX    CAC 3498   3.316   4.517   3.307
  584CHX    CAA 3499   0.087   0.917   1.778
  584CHX    CAB 3500   0.144   0.777   1.807
  584CHX    CAD 3501   0.190   0.766   1.953
  584CHX    CAF 3502   0.075   0.799   2.049
  584CHX    CAE 3503   0.016   0.937   2.019
  584CHX    CAC 3504   4.970   0.948   1.873
  585CHX    CAA 3505   2.670   0.427   3.185
  585CHX    CAB 3506   2.634   0.563   3.123
  585CHX    CAD 3507   2.579   0.544   2.980
  585CHX    CAF 3508   2.457   0.451   2.982
  585CHX    CAE 3509   2.492   0.315   3.044
  585CHX    CAC 3510   2.549   0.333   3.185
  586CHX    CAA 3511   2.822   3.451   3.989
  586CHX    CAB 3512   2.682   3.444   4.053
  586CHX    CAD 3513   2.619   3.305   4.030
  586CHX    CAF 3514   2.710   3.194   4.085
  586CHX    CAE 3515   2.850   3.201   4.023
  586CHX    CAC 3516   2.913   3.340   4.044
  587CHX    CAA 3517   0.641   3.393   0.106
  587CHX    CAB 3518   0.730   3.370   4.983
  587CHX    CAD 3519   0.758   3.502   4.911
  587CHX    CAF 3520   0.820   3.606   0.005
  587CHX    CAE 3521   0.734   3.625   0.131
  587CHX    CAC 3522   0.710   3.491   0.202
  588CHX    CAA 3523   4.891   3.506   1.248
  588CHX    CAB 3524   4.849   3.506   1.395
  588CHX    CAD 3525   4.761   3.384   1.427
  588CHX    CAF 3526   4.834   3.254   1.391
  588CHX    CAE 3527   4.873   3.254   1.243
  588CHX    CAC 3528   4.963   3.375   1.212
  589CHX    CAA 3529   0.093   4.862   3.979
  589CHX    CAB 3530   0.009   4.953   4.070
  589CHX    CAD 3531   4.936   0.060   3.987
  589CHX    CAF 3532   4.848   4.996   3.879
  589CHX    CAE 3533   4.931   4.904   3.789
  589CHX    CAC 3534   0.003   4.797   3.872
  590CHX    CAA 3535   2.351   1.310   0.751
  590CHX    CAB 3536   2.335   1.231   0.621
  590CHX    CAD 3537   2.455   1.252   0.529
  590CHX    CAF 3538   2.584   1.210   0.601
  590CHX    CAE 3539   2.603   1.291   0.730
  590CHX    CAC 3540   2.482   1.274   0.823
  591CHX    CAA 3541   1.279   0.830   4.869
  591CHX    CAB 3542   1.238   0.732   4.979
  591CHX    CAD 3543   1.154   0.616   4.924
  591CHX    CAF 3544   1.227   0.545   4.809
  591CHX    CAE 3545   1.265   0.645   4.698
  591CHX    CAC 3546   1.353   0.757   4.755
  592CHX    CAA 3547   4.832   2.962   4.979
  592CHX    CAB 3548   4.880   2.850   4.885
  592CHX    CAD 3549   4.767   2.806   4.791
  592CHX    CAF 3550   4.713   2.925   4.711
  592CHX    CAE 3551   4.665   3.037   4.804
  592CHX    CAC 3552   4.779   3.081   4.898
  593CHX    CAA 3553   2.039   0.722   0.439
  593CHX    CAB 3554   2.181   0.671   0.410
  593CHX    CAD 3555   2.272   0.785   0.364
  593CHX    CAF 3556   2.273   0.900   0.465
  593CHX    CAE 3557   2.131   0.949   0.497
  593CHX    CAC 3558   2.041   0.833   0.544
  594CHX    CAA 3559   0.220   1.105   4.527
  594CHX    CAB 3560   0.120   0.988   4.525
  594CHX    CAD 3561   0.149   0.889   4.638
  594CHX    CAF 3562   0.143   0.960   4.774
  594CHX    CAE 3563   0.244   1.076   4.778
  594CHX    CAC 3564   0.218   1.175   4.664
  595CHX    CAA 3565   4.676   2.806   4.314
  595CHX    CAB 3566   4.711   2.954   4.329
  595CHX    CAD 3567   4.765   3.011   4.198
  595CHX    CAF 3568   4.664   2.991   4.084
  595CHX    CAE 3569   4.629   2.842   4.068
  595CHX    CAC 3570   4.575   2.785   4.200
  596CHX    CAA 3571   3.826   0.529   3.434
  596CHX    CAB 3572   3.787   0.383   3.405
  596CHX    CAD 3573   3.865   0.329   3.284
  596CHX    CAF 3574   4.017   0.341   3.309
  596CHX    CAE 3575   4.056   0.487   3.336
  596CHX    CAC 3576   3.977   0.541   3.457
  597CHX    CAA 3577   2.106   0.060   3.616
  597CHX    CAB 3578   1.962   0.103   3.644
  597CHX    CAD 3579   1.939   0.129   3.794
  597CHX    CAF 3580   2.060   0.185   3.872
  597CHX    CAE 3581   2.161   0.255   3.781
  597CHX    CAC 3582   2.209   0.163   3.667
  598CHX    CAA 3583   1.267   1.736   4.991
  598CHX    CAB 3584   1.380   1.802   4.912
  598CHX    CAD 3585   1.517   1.759   4.967
  598CHX    CAF 3586   1.530   1.606   4.967
  598CHX    CAE 3587   1.417   1.541   0.047
  598CHX    CAC 3588   1.280   1.583   4.990
  599CHX    CAA 3589   0.995   3.960   2.074
  599CHX    CAB 3590   0.962   4.106   2.043
  599CHX    CAD 3591   1.079   4.172   1.967
  599CHX    CAF 3592   1.108   4.096   1.837
  599CHX    CAE 3593   1.142   3.950   1.867
  599CHX    CAC 3594   1.027   3.883   1.945
  600CHX    CAA 3595   0.612   4.768   2.914
  600CHX    CAB 3596   0.635   4.647   2.822
  600CHX    CAD 3597   0.675   4.523   2.904
  600CHX    CAF 3598   0.569   4.492   3.011
  600CHX    CAE 3599   0.552   4.613   3.104
  600CHX    CAC 3600   0.510   4.736   3.024
  601CHX    CAA 3601   4.376   3.325   2.136
  601CHX    CAB 3602   4.264   3.232   2.185
  601CHX    CAD 3603   4.194   3.165   2.067
  601CHX    CAF 3604   4.295   3.089   1.980
  601CHX    CAE 3605   4.407   3.182   1.931
  601CHX    CAC 3606   4.478   3.248   2.050
  602CHX    CAA 3607   2.669   1.434   4.234
  602CHX    CAB 3608   2.556   1.531   4.197
  602CHX    CAD 3609   2.439   1.518   4.295
  602CHX    CAF 3610   2.484   1.540   4.440
  602CHX    CAE 3611   2.596   1.443   4.477
  602CHX    CAC 3612   2.714   1.458   4.380
  603CHX    CAA 3613   0.259   2.059   0.066
  603CHX    CAB 3614   0.212   1.919   0.108
  603CHX    CAD 3615   0.276   1.878   0.242
  603CHX    CAF 3616   0.244   1.982   0.351
  603CHX    CAE 3617   0.289   2.123   0.308
  603CHX    CAC 3618   0.225   2.162   0.174
  604CHX    CAA 3619   3.187   3.081   4.838
  604CHX    CAB 3620   3.325   3.080   4.905
  604CHX    CAD 3621   3.401   3.210   4.875
  604CHX    CAF 3622   3.319   3.332   4.919
  604CHX    CAE 3623   3.182   3.334   4.850
  604CHX    CAC 3624   3.105   3.204   4.880
  605CHX    CAA 3625   2.180   0.539   4.024
  605CHX    CAB 3626   2.328   0.560   4.056
  605CHX    CAD 3627   2.407   0.596   3.929
  605CHX    CAF 3628   2.348   0.720   3.862
  605CHX    CAE 3629   2.200   0.699   3.830
  605CHX    CAC 3630   2.121   0.664   3.956
  606CHX    CAA 3631   3.566   4.025   3.627
  606CHX    CAB 3632   3.453   3.987   3.723
  606CHX    CAD 3633   3.442   4.090   3.837
  606CHX    CAF 3634   3.418   4.230   3.779
  606CHX    CAE 3635   3.531   4.269   3.684
  606CHX    CAC 3636   3.544   4.166   3.570
  607CHX    CAA 3637   1.030   3.669   1.230
  607CHX    CAB 3638   0.895   3.717   1.287
  607CHX    CAD 3639   0.828   3.818   1.193
  607CHX    CAF 3640   0.811   3.760   1.052
  607CHX    CAE 3641   0.946   3.713   0.996
  607CHX    CAC 3642   1.011   3.610   1.089
  608CHX    CAA 3643   4.869   3.444   3.403
  608CHX    CAB 3644   4.814   3.367   3.282
  608CHX    CAD 3645   4.916   3.262   3.234
  608CHX    CAF 3646   4.956   3.167   3.348
  608CHX    CAE 3647   0.009   3.245   3.469
  608CHX    CAC 3648   4.905   3.348   3.516
  609CHX    CAA 3649   0.462   2.455   0.596
  609CHX    CAB 3650   0.440   2.607   0.586
  609CHX    CAD 3651   0.568   2.679   0.541
  609CHX    CAF 3652   0.616   2.622   0.407
  609CHX    CAE 3653   0.639   2.470   0.418
  609CHX    CAC 3654   0.510   2.399   0.462
  610CHX    CAA 3655   4.676   2.567   2.052
  610CHX    CAB 3656   4.625   2.452   2.140
  610CHX    CAD 3657   4.569   2.339   2.052
  610CHX    CAF 3658   4.675   2.289   1.954
  610CHX    CAE 3659   4.727   2.404   1.866
  610CHX    CAC 3660   4.782   2.518   1.953
  611CHX    CAA 3661   4.841   0.572   1.782
  611CHX    CAB 3662   4.726   0.668   1.753
  611CHX    CAD 3663   4.760   0.760   1.635
  611CHX    CAF 3664   4.794   0.677   1.510
  611CHX    CAE 3665   4.910   0.581   1.540
  611CHX    CAC 3666   4.876   0.489   1.658
  612CHX    CAA 3667   1.982   0.017   4.786
  612CHX    CAB 3668   1.969   0.123   4.675
  612CHX    CAD 3669   2.029   0.256   4.720
  612CHX    CAF 3670   2.177   0.238   4.760
  612CHX    CAE 3671   2.192   0.132   4.870
  612CHX    CAC 3672   2.129   4.999   4.825
  613CHX    CAA 3673   3.031   3.343   2.748
  613CHX    CAB 3674   3.042   3.496   2.740
  613CHX    CAD 3675   3.167   3.538   2.661
  613CHX    CAF 3676   3.165   3.477   2.521
  613CHX    CAE 3677   3.154   3.324   2.527
  613CHX    CAC 3678   3.029   3.283   2.607
  614CHX    CAA 3679   3.438   2.929   0.340
  614CHX    CAB 3680   3.573   2.999   0.316
  614CHX    CAD 3681   3.558   3.111   0.212
  614CHX    CAF 3682   3.451   3.211   0.255
  614CHX    CAE 3683   3.316   3.140   0.276
  614CHX    CAC 3684   3.330   3.030   0.382
  615CHX    CAA 3685   4.349   1.824   1.505
  615CHX    CAB 3686   4.420   1.766   1.628
  615CHX    CAD 3687   4.542   1.684   1.586
  615CHX    CAF 3688   4.639   1.772   1.505
  615CHX    CAE 3689   4.569   1.832   1.383
  615CHX    CAC 3690   4.445   1.912   1.424
  616CHX    CAA 3691   2.449   1.337   3.014
  616CHX    CAB 3692   2.596   1.370   2.986
  616CHX    CAD 3693   2.645   1.483   3.078
  616CHX    CAF 3694   2.626   1.443   3.225
  616CHX    CAE 3695   2.480   1.410   3.255
  616CHX    CAC 3696   2.429   1.299   3.162
  617CHX    CAA 3697   3.641   3.933   0.433
  617CHX    CAB 3698   3.539   3.929   0.548
  617CHX    CAD 3699   3.481   4.069   0.572
  617CHX    CAF 3700   3.413   4.121   0.445
  617CHX    CAE 3701   3.515   4.126   0.329
  617CHX    CAC 3702   3.578   3.988   0.305
  618CHX    CAA 3703   2.843   3.696   1.084
  618CHX    CAB 3704   2.815   3.806   0.982
  618CHX    CAD 3705   2.858   3.943   1.037
  618CHX    CAF 3706   3.006   3.942   1.077
  618CHX    CAE 3707   3.033   3.832   1.181
  618CHX    CAC 3708   2.991   3.695   1.127
  619CHX    CAA 3709   2.374   1.569   1.322
  619CHX    CAB 3710   2.504   1.579   1.403
  619CHX    CAD 3711   2.615   1.497   1.336
  619CHX    CAF 3712   2.636   1.540   1.190
  619CHX    CAE 3713   2.505   1.531   1.111
  619CHX    CAC 3714   2.396   1.616   1.178
  620CHX    CAA 3715   3.177   4.571   2.689
  620CHX    CAB 3716   3.315   4.617   2.637
  620CHX    CAD 3717   3.302   4.743   2.550
  620CHX    CAF 3718   3.232   4.856   2.628
  620CHX    CAE 3719   3.094   4.809   2.676
  620CHX    CAC 3720   3.107   4.684   2.764
  621CHX    CAA 3721   3.350   3.514   1.870
  621CHX    CAB 3722   3.318   3.644   1.795
  621CHX    CAD 3723   3.390   3.647   1.659
  621CHX    CAF 3724   3.355   3.524   1.575
  621CHX    CAE 3725   3.388   3.395   1.651
  621CHX    CAC 3726   3.314   3.390   1.785
  622CHX    CAA 3727   0.578   3.845   3.239
  622CHX    CAB 3728   0.447   3.925   3.235
  622CHX    CAD 3729   0.349   3.874   3.342
  622CHX    CAF 3730   0.413   3.879   3.481
  622CHX    CAE 3731   0.544   3.799   3.485
  622CHX    CAC 3732   0.641   3.852   3.379
  623CHX    CAA 3733   0.363   0.839   4.282
  623CHX    CAB 3734   0.490   0.813   4.364
  623CHX    CAD 3735   0.461   0.723   4.485
  623CHX    CAF 3736   0.396   0.591   4.440
  623CHX    CAE 3737   0.268   0.621   4.361
  623CHX    CAC 3738   0.300   0.707   4.238
  624CHX    CAA 3739   2.963   3.076   0.480
  624CHX    CAB 3740   2.847   3.025   0.392
  624CHX    CAD 3741   2.795   2.888   0.437
  624CHX    CAF 3742   2.752   2.889   0.586
  624CHX    CAE 3743   2.830   2.986   0.678
  624CHX    CAC 3744   2.969   3.018   0.623
  625CHX    CAA 3745   2.012   4.648   4.885
  625CHX    CAB 3746   1.876   4.613   4.824
  625CHX    CAD 3747   1.869   4.655   4.676
  625CHX    CAF 3748   1.985   4.593   4.596
  625CHX    CAE 3749   2.121   4.632   4.657
  625CHX    CAC 3750   2.127   4.586   4.804
  626CHX    CAA 3751   1.293   3.961   0.456
  626CHX    CAB 3752   1.403   4.042   0.527
  626CHX    CAD 3753   1.469   4.141   0.430
  626CHX    CAF 3754   1.365   4.234   0.366
  626CHX    CAE 3755   1.257   4.152   0.295
  626CHX    CAC 3756   1.190   4.054   0.392
  627CHX    CAA 3757   4.924   4.172   4.000
  627CHX    CAB 3758   4.787   4.110   3.968
  627CHX    CAD 3759   4.804   3.970   3.907
  627CHX    CAF 3760   4.886   3.879   4.000
  627CHX    CAE 3761   0.023   3.941   4.032
  627CHX    CAC 3762   0.004   4.081   4.093
  628CHX    CAA 3763   2.246   3.482   1.366
  628CHX    CAB 3764   2.127   3.437   1.280
  628CHX    CAD 3765   2.174   3.397   1.139
  628CHX    CAF 3766   2.280   3.287   1.146
  628CHX    CAE 3767   2.399   3.332   1.232
  628CHX    CAC 3768   2.353   3.372   1.373
  629CHX    CAA 3769   2.159   3.473   4.680
  629CHX    CAB 3770   2.123   3.622   4.667
  629CHX    CAD 3771   2.194   3.706   4.774
  629CHX    CAF 3772   2.346   3.687   4.763
  629CHX    CAE 3773   2.383   3.539   4.777
  629CHX    CAC 3774   2.311   3.454   4.671
  630CHX    CAA 3775   1.410   2.980   2.882
  630CHX    CAB 3776   1.319   2.919   2.989
  630CHX    CAD 3777   1.172   2.951   2.959
  630CHX    CAF 3778   1.133   2.897   2.821
  630CHX    CAE 3779   1.223   2.957   2.712
  630CHX    CAC 3780   1.371   2.929   2.743
  631CHX    CAA 3781   4.256   4.912   3.356
  631CHX    CAB 3782   4.393   4.844   3.340
  631CHX    CAD 3783   4.416   4.800   3.195
  631CHX    CAF 3784   4.406   4.920   3.100
  631CHX    CAE 3785   4.269   4.988   3.115
  631CHX    CAC 3786   4.244   0.032   3.260
  632CHX    CAA 3787   1.849   2.219   4.856
  632CHX    CAB 3788   1.871   2.326   4.963
  632CHX    CAD 3789   1.762   2.320   0.071
  632CHX    CAF 3790   1.756   2.179   0.132
  632CHX    CAE 3791   1.734   2.072   0.025
  632CHX    CAC 3792   1.844   2.079   4.919
  633CHX    CAA 3793   3.329   2.007   3.460
  633CHX    CAB 3794   3.414   2.011   3.588
  633CHX    CAD 3795   3.334   1.958   3.707
  633CHX    CAF 3796   3.284   1.815   3.681
  633CHX    CAE 3797   3.200   1.811   3.553
  633CHX    CAC 3798   3.279   1.864   3.433
  634CHX    CAA 3799   2.297   3.396   3.860
  634CHX    CAB 3800   2.191   3.359   3.756
  634CHX    CAD 3801   2.051   3.403   3.803
  634CHX    CAF 3802   2.048   3.553   3.834
  634CHX    CAE 3803   2.156   3.590   3.937
  634CHX    CAC 3804   2.296   3.547   3.889
  635CHX    CAA 3805   1.382   4.268   2.250
  635CHX    CAB 3806   1.434   4.251   2.106
  635CHX    CAD 3807   1.501   4.114   2.089
  635CHX    CAF 3808   1.404   4.000   2.125
  635CHX    CAE 3809   1.349   4.017   2.267
  635CHX    CAC 3810   1.284   4.155   2.285
  636CHX    CAA 3811   2.671   2.094   0.343
  636CHX    CAB 3812   2.635   2.238   0.384
  636CHX    CAD 3813   2.750   2.302   0.463
  636CHX    CAF 3814   2.879   2.301   0.379
  636CHX    CAE 3815   2.915   2.158   0.335
  636CHX    CAC 3816   2.799   2.094   0.258
  637CHX    CAA 3817   2.645   0.199   0.822
  637CHX    CAB 3818   2.571   0.310   0.899
  637CHX    CAD 3819   2.421   0.307   0.868
  637CHX    CAF 3820   2.362   0.168   0.897
  637CHX    CAE 3821   2.436   0.059   0.819
  637CHX    CAC 3822   2.586   0.061   0.853
  638CHX    CAA 3823   2.766   4.761   4.280
  638CHX    CAB 3824   2.735   4.628   4.351
  638CHX    CAD 3825   2.843   4.596   4.456
  638CHX    CAF 3826   2.856   4.710   4.558
  638CHX    CAE 3827   2.885   4.843   4.487
  638CHX    CAC 3828   2.777   4.875   4.382
  639CHX    CAA 3829   1.988   0.071   2.069
  639CHX    CAB 3830   2.070   4.946   2.104
  639CHX    CAD 3831   2.137   4.890   1.978
  639CHX    CAF 3832   2.227   4.996   1.913
  639CHX    CAE 3833   2.146   0.123   1.881
  639CHX    CAC 3834   2.078   0.178   2.006
  640CHX    CAA 3835   1.982   2.541   2.108
  640CHX    CAB 3836   1.940   2.426   2.201
  640CHX    CAD 3837   2.012   2.438   2.336
  640CHX    CAF 3838   1.983   2.573   2.402
  640CHX    CAE 3839   2.020   2.689   2.309
  640CHX    CAC 3840   1.949   2.676   2.174
  641CHX    CAA 3841   0.831   0.119   0.234
  641CHX    CAB 3842   0.974   0.172   0.257
  641CHX    CAD 3843   1.041   0.211   0.125
  641CHX    CAF 3844   0.956   0.313   0.048
  641CHX    CAE 3845   0.815   0.260   0.025
  641CHX    CAC 3846   0.747   0.222   0.158
  642CHX    CAA 3847   3.703   2.165   0.106
  642CHX    CAB 3848   3.639   2.037   0.161
  642CHX    CAD 3849   3.535   1.981   0.064
  642CHX    CAF 3850   3.597   1.954   4.927
  642CHX    CAE 3851   3.662   2.081   4.871
  642CHX    CAC 3852   3.767   2.137   4.968
  643CHX    CAA 3853   4.214   2.949   0.182
  643CHX    CAB 3854   4.250   2.953   0.033
  643CHX    CAD 3855   4.286   3.096   4.989
  643CHX    CAF 3856   4.401   3.152   0.074
  643CHX    CAE 3857   4.364   3.148   0.223
  643CHX    CAC 3858   4.329   3.005   0.266
  644CHX    CAA 3859   0.948   2.781   2.360
  644CHX    CAB 3860   0.797   2.755   2.351
  644CHX    CAD 3861   0.767   2.606   2.377
  644CHX    CAF 3862   0.823   2.561   2.513
  644CHX    CAE 3863   0.974   2.589   2.523
  644CHX    CAC 3864   1.003   2.738   2.496
  645CHX    CAA 3865   0.943   0.989   1.845
  645CHX    CAB 3866   0.903   0.876   1.748
  645CHX    CAD 3867   0.989   0.751   1.770
  645CHX    CAF 3868   0.979   0.703   1.915
  645CHX    CAE 3869   1.020   0.815   2.012
  645CHX    CAC 3870   0.935   0.941   1.991
  646CHX    CAA 3871   0.464   1.478   1.094
  646CHX    CAB 3872   0.378   1.388   1.004
  646CHX    CAD 3873   0.245   1.355   1.072
  646CHX    CAF 3874   0.169   1.483   1.108
  646CHX    CAE 3875   0.254   1.573   1.198
  646CHX    CAC 3876   0.387   1.607   1.130
  647CHX    CAA 3877   2.925   3.281   3.264
  647CHX    CAB 3878   2.988   3.295   3.124
  647CHX    CAD 3879   3.084   3.179   3.096
  647CHX    CAF 3880   3.011   3.045   3.110
  647CHX    CAE 3881   2.947   3.031   3.249
  647CHX    CAC 3882   2.850   3.147   3.276
  648CHX    CAA 3883   1.072   0.987   3.427
  648CHX    CAB 3884   1.075   1.017   3.276
  648CHX    CAD 3885   1.112   0.892   3.195
  648CHX    CAF 3886   1.014   0.778   3.225
  648CHX    CAE 3887   1.013   0.746   3.375
  648CHX    CAC 3888   0.977   0.871   3.457
  649CHX    CAA 3889   2.525   1.664   2.319
  649CHX    CAB 3890   2.457   1.738   2.201
  649CHX    CAD 3891   2.438   1.887   2.230
  649CHX    CAF 3892   2.570   1.957   2.268
  649CHX    CAE 3893   2.673   1.869   2.343
  649CHX    CAC 3894   2.605   1.753   2.416
  650CHX    CAA 3895   4.370   4.054   1.479
  650CHX    CAB 3896   4.267   4.165   1.502
  650CHX    CAD 3897   4.228   4.235   1.371
  650CHX    CAF 3898   4.179   4.132   1.267
  650CHX    CAE 3899   4.283   4.022   1.244
  650CHX    CAC 3900   4.319   3.953   1.376
  651CHX    CAA 3901   1.893   0.494   0.931
  651CHX    CAB 3902   2.042   0.460   0.920
  651CHX    CAD 3903   2.067   0.366   0.801
  651CHX    CAF 3904   2.016   0.428   0.671
  651CHX    CAE 3905   1.867   0.462   0.683
  651CHX    CAC 3906   1.841   0.557   0.801
  652CHX    CAA 3907   1.872   2.062   1.986
  652CHX    CAB 3908   1.908   2.158   1.872
  652CHX    CAD 3909   1.805   2.147   1.758
  652CHX    CAF 3910   1.663   2.175   1.809
  652CHX    CAE 3911   1.627   2.081   1.925
  652CHX    CAC 3912   1.730   2.092   2.038
  653CHX    CAA 3913   2.416   2.105   4.183
  653CHX    CAB 3914   2.373   1.978   4.257
  653CHX    CAD 3915   2.494   1.890   4.289
  653CHX    CAF 3916   2.597   1.968   4.372
  653CHX    CAE 3917   2.641   2.095   4.298
  653CHX    CAC 3918   2.520   2.184   4.265
  654CHX    CAA 3919   1.686   1.818   1.496
  654CHX    CAB 3920   1.710   1.679   1.435
  654CHX    CAD 3921   1.809   1.597   1.519
  654CHX    CAF 3922   1.762   1.587   1.665
  654CHX    CAE 3923   1.742   1.728   1.724
  654CHX    CAC 3924   1.640   1.807   1.642
  655CHX    CAA 3925   3.015   4.840   0.858
  655CHX    CAB 3926   2.948   4.977   0.871
  655CHX    CAD 3927   3.050   0.085   0.908
  655CHX    CAF 3928   3.164   0.091   0.806
  655CHX    CAE 3929   3.231   4.954   0.794
  655CHX    CAC 3930   3.129   4.846   0.755
  656CHX    CAA 3931   1.443   3.607   4.071
  656CHX    CAB 3932   1.545   3.646   4.179
  656CHX    CAD 3933   1.677   3.570   4.159
  656CHX    CAF 3934   1.735   3.600   4.020
  656CHX    CAE 3935   1.634   3.563   3.910
  656CHX    CAC 3936   1.500   3.635   3.931
  657CHX    CAA 3937   3.239   3.905   0.145
  657CHX    CAB 3938   3.258   3.810   0.026
  657CHX    CAD 3939   3.365   3.704   0.056
  657CHX    CAF 3940   3.329   3.625   0.182
  657CHX    CAE 3941   3.310   3.719   0.302
  657CHX    CAC 3942   3.203   3.825   0.272
  658CHX    CAA 3943   0.043   4.295   1.082
  658CHX    CAB 3944   0.166   4.352   1.155
  658CHX    CAD 3945   0.191   4.498   1.115
  658CHX    CAF 3946   0.067   4.583   1.145
  658CHX    CAE 3947   4.944   4.528   1.073
  658CHX    CAC 3948   4.919   4.382   1.112
  659CHX    CAA 3949   0.415   4.644   0.831
  659CHX    CAB 3950   0.486   4.521   0.773
  659CHX    CAD 3951   0.630   4.555   0.731
  659CHX    CAF 3952   0.709   4.615   0.849
  659CHX    CAE 3953   0.637   4.737   0.907
  659CHX    CAC 3954   0.495   4.701   0.949
  660CHX    CAA 3955   4.498   0.728   0.543
  660CHX    CAB 3956   4.432   0.602   0.484
  660CHX    CAD 3957   4.291   0.581   0.541
  660CHX    CAF 3958   4.204   0.706   0.517
  660CHX    CAE 3959   4.271   0.829   0.580
  660CHX    CAC 3960   4.410   0.852   0.521
  661CHX    CAA 3961   0.360   4.430   0.142
  661CHX    CAB 3962   0.237   4.348   0.102
  661CHX    CAD 3963   0.267   4.197   0.108
  661CHX    CAF 3964   0.316   4.158   0.248
  661CHX    CAE 3965   0.441   4.239   0.286
  661CHX    CAC 3966   0.409   4.389   0.281
  662CHX    CAA 3967   2.733   4.446   3.021
  662CHX    CAB 3968   2.711   4.474   3.170
  662CHX    CAD 3969   2.810   4.393   3.255
  662CHX    CAF 3970   2.955   4.426   3.215
  662CHX    CAE 3971   2.978   4.400   3.065
  662CHX    CAC 3972   2.877   4.479   2.980
  663CHX    CAA 3973   2.591   1.049   0.137
  663CHX    CAB 3974   2.609   1.006   0.283
  663CHX    CAD 3975   2.672   0.866   0.292
  663CHX    CAF 3976   2.806   0.862   0.218
  663CHX    CAE 3977   2.789   0.904   0.071
  663CHX    CAC 3978   2.725   1.044   0.061
  664CHX    CAA 3979   3.653   4.548   4.135
  664CHX    CAB 3980   3.567   4.648   4.214
  664CHX    CAD 3981   3.500   4.749   4.120
  664CHX    CAF 3982   3.417   4.677   4.013
  664CHX    CAE 3983   3.504   4.579   3.933
  664CHX    CAC 3984   3.570   4.477   4.027
  665CHX    CAA 3985   1.295   0.525   1.503
  665CHX    CAB 3986   1.192   0.482   1.609
  665CHX    CAD 3987   1.183   0.329   1.617
  665CHX    CAF 3988   1.320   0.266   1.645
  665CHX    CAE 3989   1.421   0.308   1.538
  665CHX    CAC 3990   1.432   0.461   1.533
  666CHX    CAA 3991   4.594   1.091   2.639
  666CHX    CAB 3992   4.596   1.172   2.769
  666CHX    CAD 3993   4.738   1.224   2.797
  666CHX    CAF 3994   4.789   1.309   2.680
  666CHX    CAE 3995   4.788   1.228   2.549
  666CHX    CAC 3996   4.646   1.174   2.521
  667CHX    CAA 3997   3.714   2.306   2.640
  667CHX    CAB 3998   3.577   2.266   2.697
  667CHX    CAD 3999   3.593   2.213   2.840
  667CHX    CAF 4000   3.661   2.318   2.930
  667CHX    CAE 4001   3.798   2.356   2.874
  667CHX    CAC 4002   3.784   2.409   2.730
  668CHX    CAA 4003   3.717   3.460   0.168
  668CHX    CAB 4004   3.701   3.592   0.244
  668CHX    CAD 4005   3.787   3.702   0.178
  668CHX    CAF 4006   3.750   3.720   0.031
  668CHX    CAE 4007   3.767   3.587   4.956
  668CHX    CAC 4008   3.681   3.477   0.019
  669CHX    CAA 4009   4.512   4.953   2.138
  669CHX    CAB 4010   4.479   4.811   2.185
  669CHX    CAD 4011   4.563   4.773   2.309
  669CHX    CAF 4012   4.542   4.874   2.422
  669CHX    CAE 4013   4.577   0.015   2.374
  669CHX    CAC 4014   4.493   0.054   2.251
  670CHX    CAA 4015   4.653   4.043   2.028
  670CHX    CAB 4016   4.685   4.191   2.055
  670CHX    CAD 4017   4.773   4.207   2.179
  670CHX    CAF 4018   4.902   4.123   2.167
  670CHX    CAE 4019   4.869   3.976   2.140
  670CHX    CAC 4020   4.782   3.962   2.014
  671CHX    CAA 4021   0.961   1.536   0.220
  671CHX    CAB 4022   0.842   1.488   0.303
  671CHX    CAD 4023   0.889   1.430   0.437
  671CHX    CAF 4024   0.968   1.536   0.516
  671CHX    CAE 4025   1.088   1.585   0.434
  671CHX    CAC 4026   1.042   1.640   0.298
  672CHX    CAA 4027   3.595   1.569   4.957
  672CHX    CAB 4028   3.700   1.492   4.874
  672CHX    CAD 4029   3.693   1.341   4.901
  672CHX    CAF 4030   3.708   1.305   0.050
  672CHX    CAE 4031   3.667   1.416   0.149
  672CHX    CAC 4032   3.556   1.505   0.092
  673CHX    CAA 4033   4.576   3.868   4.827
  673CHX    CAB 4034   4.540   4.013   4.860
  673CHX    CAD 4035   4.506   4.091   4.732
  673CHX    CAF 4036   4.391   4.023   4.655
  673CHX    CAE 4037   4.423   3.876   4.626
  673CHX    CAC 4038   4.460   3.800   4.754
  674CHX    CAA 4039   2.741   1.166   2.653
  674CHX    CAB 4040   2.648   1.087   2.746
  674CHX    CAD 4041   2.592   0.963   2.675
  674CHX    CAF 4042   2.706   0.873   2.624
  674CHX    CAE 4043   2.802   0.951   2.533
  674CHX    CAC 4044   2.856   1.076   2.604
  675CHX    CAA 4045   0.177   3.477   4.295
  675CHX    CAB 4046   0.146   3.359   4.202
  675CHX    CAD 4047   4.994   3.335   4.194
  675CHX    CAF 4048   4.921   3.462   4.148
  675CHX    CAE 4049   4.953   3.581   4.239
  675CHX    CAC 4050   0.105   3.605   4.247
  676CHX    CAA 4051   4.348   3.189   3.893
  676CHX    CAB 4052   4.496   3.226   3.878
  676CHX    CAD 4053   4.535   3.235   3.730
  676CHX    CAF 4054   4.446   3.337   3.658
  676CHX    CAE 4055   4.297   3.302   3.673
  676CHX    CAC 4056   4.259   3.291   3.821
  677CHX    CAA 4057   4.141   3.847   0.433
  677CHX    CAB 4058   4.258   3.945   0.443
  677CHX    CAD 4059   4.274   4.023   0.312
  677CHX    CAF 4060   4.144   4.098   0.279
  677CHX    CAE 4061   4.027   4.000   0.267
  677CHX    CAC 4062   4.011   3.920   0.397
  678CHX    CAA 4063   3.063   0.475   3.116
  678CHX    CAB 4064   2.997   0.418   2.990
  678CHX    CAD 4065   3.072   0.460   2.862
  678CHX    CAF 4066   3.220   0.420   2.870
  678CHX    CAE 4067   3.285   0.483   2.994
  678CHX    CAC 4068   3.212   0.439   3.122
  679CHX    CAA 4069   2.899   3.734   2.419
  679CHX    CAB 4070   2.866   3.861   2.498
  679CHX    CAD 4071   2.718   3.898   2.480
  679CHX    CAF 4072   2.627   3.782   2.525
  679CHX    CAE 4073   2.660   3.654   2.447
  679CHX    CAC 4074   2.808   3.617   2.463
  680CHX    CAA 4075   2.908   1.588   4.712
  680CHX    CAB 4076   2.976   1.460   4.660
  680CHX    CAD 4077   2.999   1.361   4.774
  680CHX    CAF 4078   2.867   1.328   4.846
  680CHX    CAE 4079   2.800   1.456   4.898
  680CHX    CAC 4080   2.777   1.556   4.784
  681CHX    CAA 4081   2.779   1.837   0.830
  681CHX    CAB 4082   2.759   1.906   0.694
  681CHX    CAD 4083   2.894   1.939   0.629
  681CHX    CAF 4084   2.980   1.813   0.614
  681CHX    CAE 4085   3.000   1.745   0.751
  681CHX    CAC 4086   2.864   1.710   0.815
  682CHX    CAA 4087   2.378   1.123   4.709
  682CHX    CAB 4088   2.269   1.207   4.640
  682CHX    CAD 4089   2.197   1.297   4.742
  682CHX    CAF 4090   2.299   1.388   4.813
  682CHX    CAE 4091   2.407   1.304   4.883
  682CHX    CAC 4092   2.478   1.213   4.782
  683CHX    CAA 4093   4.560   0.245   3.282
  683CHX    CAB 4094   4.641   0.254   3.152
  683CHX    CAD 4095   4.548   0.281   3.032
  683CHX    CAF 4096   4.467   0.410   3.055
  683CHX    CAE 4097   4.387   0.402   3.186
  683CHX    CAC 4098   4.479   0.374   3.305
  684CHX    CAA 4099   1.185   0.737   2.416
  684CHX    CAB 4100   1.214   0.856   2.324
  684CHX    CAD 4101   1.366   0.876   2.307
  684CHX    CAF 4102   1.431   0.749   2.252
  684CHX    CAE 4103   1.403   0.630   2.345
  684CHX    CAC 4104   1.251   0.609   2.362
  685CHX    CAA 4105   2.840   3.699   4.939
  685CHX    CAB 4106   2.875   3.762   0.074
  685CHX    CAD 4107   2.861   3.915   0.067
  685CHX    CAF 4108   2.719   3.954   0.025
  685CHX    CAE 4109   2.682   3.890   4.891
  685CHX    CAC 4110   2.697   3.738   4.897
  686CHX    CAA 4111   2.167   2.300   3.549
  686CHX    CAB 4112   2.097   2.403   3.640
  686CHX    CAD 4113   1.944   2.390   3.626
  686CHX    CAF 4114   1.899   2.247   3.661
  686CHX    CAE 4115   1.970   2.144   3.572
  686CHX    CAC 4116   2.122   2.157   3.584
  687CHX    CAA 4117   3.983   0.620   4.942
  687CHX    CAB 4118   4.131   0.592   4.971
  687CHX    CAD 4119   4.165   0.444   4.952
  687CHX    CAF 4120   4.124   0.396   4.811
  687CHX    CAE 4121   3.975   0.420   4.788
  687CHX    CAC 4122   3.941   0.569   4.804
  688CHX    CAA 4123   0.051   2.679   3.111
  688CHX    CAB 4124   4.975   2.772   3.206
  688CHX    CAD 4125   4.839   2.809   3.146
  688CHX    CAF 4126   4.756   2.684   3.114
  688CHX    CAE 4127   4.833   2.590   3.021
  688CHX    CAC 4128   4.969   2.552   3.081
  689CHX    CAA 4129   3.766   0.164   1.890
  689CHX    CAB 4130   3.795   0.019   1.848
  689CHX    CAD 4131   3.673   4.927   1.862
  689CHX    CAF 4132   3.536   4.998   1.859
  689CHX    CAE 4133   3.538   0.123   1.770
  689CHX    CAC 4134   3.646   0.224   1.815
  690CHX    CAA 4135   0.753   3.016   0.098
  690CHX    CAB 4136   0.866   3.059   0.192
  690CHX    CAD 4137   0.811   3.134   0.315
  690CHX    CAF 4138   0.706   3.050   0.388
  690CHX    CAE 4139   0.592   3.010   0.293
  690CHX    CAC 4140   0.647   2.933   0.172
  691CHX    CAA 4141   3.459   1.230   0.403
  691CHX    CAB 4142   3.319   1.245   0.463
  691CHX    CAD 4143   3.264   1.109   0.509
  691CHX    CAF 4144   3.359   1.043   0.610
  691CHX    CAE 4145   3.500   1.028   0.549
  691CHX    CAC 4146   3.554   1.165   0.504
  692CHX    CAA 4147   0.213   3.127   0.566
  692CHX    CAB 4148   0.333   3.031   0.565
  692CHX    CAD 4149   0.341   2.953   0.697
  692CHX    CAF 4150   0.212   2.874   0.720
  692CHX    CAE 4151   0.090   2.967   0.719
  692CHX    CAC 4152   0.083   3.048   0.589
  693CHX    CAA 4153   0.913   2.533   1.359
  693CHX    CAB 4154   0.801   2.432   1.388
  693CHX    CAD 4155   0.834   2.295   1.326
  693CHX    CAF 4156   0.968   2.243   1.379
  693CHX    CAE 4157   1.081   2.344   1.350
  693CHX    CAC 4158   1.047   2.480   1.412
  694CHX    CAA 4159   1.541   2.502   1.420
  694CHX    CAB 4160   1.560   2.362   1.482
  694CHX    CAD 4161   1.673   2.286   1.412
  694CHX    CAF 4162   1.804   2.366   1.418
  694CHX    CAE 4163   1.786   2.506   1.356
  694CHX    CAC 4164   1.672   2.582   1.424
  695CHX    CAA 4165   4.831   2.755   2.484
  695CHX    CAB 4166   4.704   2.838   2.458
  695CHX    CAD 4167   4.731   2.945   2.350
  695CHX    CAF 4168   4.783   2.880   2.221
  695CHX    CAE 4169   4.910   2.798   2.248
  695CHX    CAC 4170   4.882   2.691   2.355
  696CHX    CAA 4171   0.638   4.320   4.411
  696CHX    CAB 4172   0.750   4.418   4.447
  696CHX    CAD 4173   0.822   4.373   4.575
  696CHX    CAF 4174   0.878   4.231   4.560
  696CHX    CAE 4175   0.766   4.133   4.524
  696CHX    CAC 4176   0.693   4.177   4.396
  697CHX    CAA 4177   4.998   2.014   2.396
  697CHX    CAB 4178   0.002   2.094   2.265
  697CHX    CAD 4179   4.889   2.198   2.262
  697CHX    CAF 4180   4.899   2.293   2.382
  697CHX    CAE 4181   4.896   2.213   2.514
  697CHX    CAC 4182   0.008   2.108   2.517
  698CHX    CAA 4183   0.594   4.267   1.212
  698CHX    CAB 4184   0.598   4.416   1.171
  698CHX    CAD 4185   0.707   4.491   1.249
  698CHX    CAF 4186   0.844   4.426   1.228
  698CHX    CAE 4187   0.840   4.278   1.269
  698CHX    CAC 4188   0.732   4.202   1.191
  699CHX    CAA 4189   0.128   0.709   2.435
  699CHX    CAB 4190   0.068   0.719   2.576
  699CHX    CAD 4191   0.106   0.596   2.660
  699CHX    CAF 4192   0.259   0.581   2.668
  699CHX    CAE 4193   0.321   0.574   2.527
  699CHX    CAC 4194   0.280   0.695   2.441
  700CHX    CAA 4195   4.504   1.820   1.015
  700CHX    CAB 4196   4.455   1.771   0.878
  700CHX    CAD 4197   4.332   1.850   0.834
  700CHX    CAF 4198   4.362   2.001   0.831
  700CHX    CAE 4199   4.415   2.050   0.967
  700CHX    CAC 4200   4.538   1.970   1.011
  701CHX    CAA 4201   0.505   4.781   2.151
  701CHX    CAB 4202   0.530   4.730   2.009
  701CHX    CAD 4203   0.468   4.826   1.906
  701CHX    CAF 4204   0.527   4.967   1.923
  701CHX    CAE 4205   0.503   0.020   2.065
  701CHX    CAC 4206   0.561   4.923   2.170
  702CHX    CAA 4207   0.881   1.974   2.760
  702CHX    CAB 4208   0.898   2.117   2.812
  702CHX    CAD 4209   1.001   2.194   2.728
  702CHX    CAF 4210   0.960   2.195   2.580
  702CHX    CAE 4211   0.942   2.052   2.527
  702CHX    CAC 4212   0.839   1.976   2.612
  703CHX    CAA 4213   3.261   2.056   0.525
  703CHX    CAB 4214   3.191   2.184   0.572
  703CHX    CAD 4215   3.293   2.291   0.611
  703CHX    CAF 4216   3.387   2.321   0.494
  703CHX    CAE 4217   3.458   2.193   0.448
  703CHX    CAC 4218   3.355   2.086   0.408
  704CHX    CAA 4219   4.774   4.620   3.565
  704CHX    CAB 4220   4.745   4.557   3.701
  704CHX    CAD 4221   4.799   4.413   3.707
  704CHX    CAF 4222   4.949   4.411   3.676
  704CHX    CAE 4223   4.978   4.472   3.538
  704CHX    CAC 4224   4.923   4.615   3.530
  705CHX    CAA 4225   0.845   2.389   1.913
  705CHX    CAB 4226   0.791   2.496   2.009
  705CHX    CAD 4227   0.856   2.632   1.982
  705CHX    CAF 4228   0.834   2.674   1.837
  705CHX    CAE 4229   0.889   2.568   1.741
  705CHX    CAC 4230   0.823   2.432   1.767
  706CHX    CAA 4231   0.673   0.403   4.112
  706CHX    CAB 4232   0.707   0.370   4.258
  706CHX    CAD 4233   0.822   0.460   4.308
  706CHX    CAF 4234   0.784   0.608   4.294
  706CHX    CAE 4235   0.746   0.642   4.149
  706CHX    CAC 4236   0.634   0.550   4.098
  707CHX    CAA 4237   1.477   0.490   3.180
  707CHX    CAB 4238   1.345   0.568   3.180
  707CHX    CAD 4239   1.259   0.531   3.058
  707CHX    CAF 4240   1.233   0.379   3.053
  707CHX    CAE 4241   1.364   0.300   3.055
  707CHX    CAC 4242   1.451   0.339   3.175
  708CHX    CAA 4243   4.254   2.054   3.263
  708CHX    CAB 4244   4.214   2.082   3.409
  708CHX    CAD 4245   4.129   1.967   3.465
  708CHX    CAF 4246   4.203   1.833   3.453
  708CHX    CAE 4247   4.241   1.805   3.307
  708CHX    CAC 4248   4.327   1.919   3.250
  709CHX    CAA 4249   2.149   0.081   2.703
  709CHX    CAB 4250   2.266   0.181   2.696
  709CHX    CAD 4251   2.216   0.324   2.674
  709CHX    CAF 4252   2.119   0.364   2.786
  709CHX    CAE 4253   2.001   0.265   2.791
  709CHX    CAC 4254   2.051   0.122   2.813
  710CHX    CAA 4255   3.607   1.091   2.914
  710CHX    CAB 4256   3.504   0.977   2.919
  710CHX    CAD 4257   3.479   0.920   2.778
  710CHX    CAF 4258   3.610   0.872   2.715
  710CHX    CAE 4259   3.713   0.986   2.711
  710CHX    CAC 4260   3.738   1.042   2.852
  711CHX    CAA 4261   2.282   3.892   2.722
  711CHX    CAB 4262   2.226   4.029   2.762
  711CHX    CAD 4263   2.124   4.078   2.659
  711CHX    CAF 4264   2.010   3.977   2.644
  711CHX    CAE 4265   2.065   3.840   2.604
  711CHX    CAC 4266   2.168   3.790   2.706
  712CHX    CAA 4267   3.800   2.047   0.517
  712CHX    CAB 4268   3.863   1.999   0.648
  712CHX    CAD 4269   4.016   2.016   0.644
  712CHX    CAF 4270   4.054   2.162   0.615
  712CHX    CAE 4271   3.993   2.207   0.481
  712CHX    CAC 4272   3.840   2.192   0.484
  713CHX    CAA 4273   0.204   2.444   1.409
  713CHX    CAB 4274   0.077   2.426   1.325
  713CHX    CAD 4275   0.110   2.357   1.192
  713CHX    CAF 4276   0.179   2.222   1.217
  713CHX    CAE 4277   0.307   2.242   1.299
  713CHX    CAC 4278   0.275   2.310   1.433
  714CHX    CAA 4279   4.294   3.640   0.101
  714CHX    CAB 4280   4.260   3.571   0.234
  714CHX    CAD 4281   4.115   3.522   0.229
  714CHX    CAF 4282   4.096   3.421   0.115
  714CHX    CAE 4283   4.133   3.487   4.981
  714CHX    CAC 4284   4.276   3.541   4.985
  715CHX    CAA 4285   4.926   0.940   4.224
  715CHX    CAB 4286   4.785   0.983   4.183
  715CHX    CAD 4287   4.768   0.973   4.030
  715CHX    CAF 4288   4.799   0.831   3.981
  715CHX    CAE 4289   4.940   0.788   4.024
  715CHX    CAC 4290   4.955   0.797   4.176
  716CHX    CAA 4291   3.041   2.885   2.550
  716CHX    CAB 4292   3.005   2.739   2.521
  716CHX    CAD 4293   3.045   2.649   2.639
  716CHX    CAF 4294   2.978   2.696   2.769
  716CHX    CAE 4295   3.014   2.842   2.797
  716CHX    CAC 4296   2.974   2.932   2.679
  717CHX    CAA 4297   4.230   2.451   4.356
  717CHX    CAB 4298   4.254   2.301   4.334
  717CHX    CAD 4299   4.125   2.231   4.289
  717CHX    CAF 4300   4.071   2.295   4.160
  717CHX    CAE 4301   4.049   2.446   4.179
  717CHX    CAC 4302   4.177   2.516   4.227
  718CHX    CAA 4303   0.184   3.099   4.884
  718CHX    CAB 4304   0.212   3.249   4.900
  718CHX    CAD 4305   0.201   3.293   0.047
  718CHX    CAF 4306   0.294   3.209   0.136
  718CHX    CAE 4307   0.264   3.060   0.120
  718CHX    CAC 4308   0.277   3.016   4.974
  719CHX    CAA 4309   2.266   1.966   0.395
  719CHX    CAB 4310   2.113   1.972   0.396
  719CHX    CAD 4311   2.063   2.105   0.337
  719CHX    CAF 4312   2.120   2.126   0.196
  719CHX    CAE 4313   2.273   2.122   0.198
  719CHX    CAC 4314   2.322   1.988   0.254
  720CHX    CAA 4315   1.589   2.222   3.930
  720CHX    CAB 4316   1.456   2.296   3.945
  720CHX    CAD 4317   1.442   2.355   4.086
  720CHX    CAF 4318   1.559   2.449   4.117
  720CHX    CAE 4319   1.692   2.374   4.104
  720CHX    CAC 4320   1.707   2.314   3.964
  721CHX    CAA 4321   3.566   1.976   3.995
  721CHX    CAB 4322   3.455   1.888   4.055
  721CHX    CAD 4323   3.488   1.739   4.036
  721CHX    CAF 4324   3.623   1.706   4.102
  721CHX    CAE 4325   3.734   1.793   4.042
  721CHX    CAC 4326   3.701   1.943   4.059
  722CHX    CAA 4327   4.041   2.765   2.670
  722CHX    CAB 4328   4.040   2.912   2.713
  722CHX    CAD 4329   3.934   2.936   2.822
  722CHX    CAF 4330   3.960   2.845   2.943
  722CHX    CAE 4331   3.962   2.698   2.901
  722CHX    CAC 4332   4.067   2.674   2.792
  723CHX    CAA 4333   4.822   1.063   0.434
  723CHX    CAB 4334   4.939   1.027   0.342
  723CHX    CAD 4335   0.073   1.045   0.414
  723CHX    CAF 4336   0.077   0.961   0.543
  723CHX    CAE 4337   4.961   0.998   0.635
  723CHX    CAC 4338   4.826   0.980   0.563
  724CHX    CAA 4339   3.454   1.114   4.357
  724CHX    CAB 4340   3.591   1.181   4.338
  724CHX    CAD 4341   3.583   1.332   4.368
  724CHX    CAF 4342   3.529   1.356   4.510
  724CHX    CAE 4343   3.391   1.291   4.527
  724CHX    CAC 4344   3.398   1.141   4.497
  725CHX    CAA 4345   3.988   3.459   2.367
  725CHX    CAB 4346   3.937   3.555   2.475
  725CHX    CAD 4347   4.052   3.638   2.533
  725CHX    CAF 4348   4.126   3.715   2.423
  725CHX    CAE 4349   4.175   3.620   2.313
  725CHX    CAC 4350   4.059   3.538   2.256
  726CHX    CAA 4351   1.058   4.963   2.584
  726CHX    CAB 4352   1.043   0.078   2.685
  726CHX    CAD 4353   1.139   0.193   2.652
  726CHX    CAF 4354   1.119   0.242   2.508
  726CHX    CAE 4355   1.136   0.127   2.408
  726CHX    CAC 4356   1.037   0.013   2.441
  727CHX    CAA 4357   2.425   1.653   3.862
  727CHX    CAB 4358   2.359   1.647   3.723
  727CHX    CAD 4359   2.218   1.708   3.728
  727CHX    CAF 4360   2.223   1.852   3.781
  727CHX    CAE 4361   2.287   1.855   3.920
  727CHX    CAC 4362   2.429   1.796   3.915
  728CHX    CAA 4363   4.856   0.237   1.051
  728CHX    CAB 4364   5.000   0.287   1.034
  728CHX    CAD 4365   0.036   0.388   1.143
  728CHX    CAF 4366   0.014   0.329   1.283
  728CHX    CAE 4367   4.870   0.281   1.300
  728CHX    CAC 4368   4.834   0.178   1.191
  729CHX    CAA 4369   1.265   3.107   1.390
  729CHX    CAB 4370   1.291   3.252   1.351
  729CHX    CAD 4371   1.188   3.301   1.248
  729CHX    CAF 4372   1.045   3.286   1.303
  729CHX    CAE 4373   1.018   3.140   1.341
  729CHX    CAC 4374   1.121   3.090   1.444
  730CHX    CAA 4375   0.608   1.182   4.736
  730CHX    CAB 4376   0.588   1.069   4.633
  730CHX    CAD 4377   0.605   1.124   4.491
  730CHX    CAF 4378   0.743   1.188   4.473
  730CHX    CAE 4379   0.762   1.301   4.575
  730CHX    CAC 4380   0.746   1.247   4.718
  731CHX    CAA 4381   3.754   3.074   1.641
  731CHX    CAB 4382   3.907   3.062   1.635
  731CHX    CAD 4383   3.969   3.082   1.773
  731CHX    CAF 4384   3.911   2.981   1.873
  731CHX    CAE 4385   3.758   2.994   1.880
  731CHX    CAC 4386   3.695   2.975   1.742
  732CHX    CAA 4387   4.762   0.624   4.675
  732CHX    CAB 4388   4.768   0.653   4.525
  732CHX    CAD 4389   4.692   0.782   4.493
  732CHX    CAF 4390   4.750   0.900   4.573
  732CHX    CAE 4391   4.748   0.872   4.723
  732CHX    CAC 4392   4.821   0.741   4.756
  733CHX    CAA 4393   0.436   3.258   4.591
  733CHX    CAB 4394   0.526   3.197   4.700
  733CHX    CAD 4395   0.667   3.171   4.645
  733CHX    CAF 4396   0.728   3.301   4.591
  733CHX    CAE 4397   0.638   3.365   4.485
  733CHX    CAC 4398   0.496   3.389   4.539
  734CHX    CAA 4399   0.470   2.856   4.458
  734CHX    CAB 4400   0.507   2.719   4.400
  734CHX    CAD 4401   0.627   2.660   4.476
  734CHX    CAF 4402   0.596   2.650   4.626
  734CHX    CAE 4403   0.559   2.787   4.683
  734CHX    CAC 4404   0.438   2.845   4.608
  735CHX    CAA 4405   4.575   3.861   3.279
  735CHX    CAB 4406   4.541   3.905   3.135
  735CHX    CAD 4407   4.404   3.974   3.129
  735CHX    CAF 4408   4.399   4.093   3.225
  735CHX    CAE 4409   4.431   4.049   3.368
  735CHX    CAC 4410   4.569   3.981   3.375
  736CHX    CAA 4411   1.745   1.767   2.817
  736CHX    CAB 4412   1.871   1.782   2.732
  736CHX    CAD 4413   1.996   1.764   2.819
  736CHX    CAF 4414   1.995   1.626   2.884
  736CHX    CAE 4415   1.869   1.607   2.970
  736CHX    CAC 4416   1.743   1.629   2.885
  737CHX    CAA 4417   1.261   4.917   0.862
  737CHX    CAB 4418   1.134   4.856   0.799
  737CHX    CAD 4419   1.091   4.728   0.872
  737CHX    CAF 4420   1.071   4.755   1.022
  737CHX    CAE 4421   1.200   4.812   1.083
  737CHX    CAC 4422   1.241   4.941   1.012
  738CHX    CAA 4423   1.763   3.904   0.998
  738CHX    CAB 4424   1.724   4.044   1.047
  738CHX    CAD 4425   1.659   4.123   0.933
  738CHX    CAF 4426   1.535   4.050   0.880
  738CHX    CAE 4427   1.573   3.910   0.831
  738CHX    CAC 4428   1.641   3.830   0.943
  739CHX    CAA 4429   1.173   1.574   4.252
  739CHX    CAB 4430   1.263   1.453   4.223
  739CHX    CAD 4431   1.214   1.330   4.300
  739CHX    CAF 4432   1.068   1.300   4.267
  739CHX    CAE 4433   0.979   1.421   4.297
  739CHX    CAC 4434   1.027   1.544   4.219
  740CHX    CAA 4435   4.692   3.458   4.976
  740CHX    CAB 4436   4.845   3.449   4.993
  740CHX    CAD 4437   4.904   3.588   0.019
  740CHX    CAF 4438   4.840   3.652   0.143
  740CHX    CAE 4439   4.688   3.661   0.127
  740CHX    CAC 4440   4.629   3.522   0.100
  741CHX    CAA 4441   2.703   4.753   2.749
  741CHX    CAB 4442   2.654   4.787   2.890
  741CHX    CAD 4443   2.564   4.912   2.888
  741CHX    CAF 4444   2.445   4.888   2.794
  741CHX    CAE 4445   2.492   4.854   2.652
  741CHX    CAC 4446   2.585   4.732   2.654
  742CHX    CAA 4447   0.845   3.644   2.983
  742CHX    CAB 4448   0.850   3.613   3.133
  742CHX    CAD 4449   0.970   3.682   3.199
  742CHX    CAF 4450   0.966   3.834   3.174
  742CHX    CAE 4451   0.964   3.863   3.023
  742CHX    CAC 4452   0.843   3.795   2.957
  743CHX    CAA 4453   2.223   2.916   3.663
  743CHX    CAB 4454   2.093   2.991   3.628
  743CHX    CAD 4455   1.993   2.985   3.744
  743CHX    CAF 4456   2.055   3.040   3.873
  743CHX    CAE 4457   2.186   2.967   3.907
  743CHX    CAC 4458   2.286   2.975   3.790
  744CHX    CAA 4459   3.955   1.483   2.647
  744CHX    CAB 4460   3.929   1.581   2.532
  744CHX    CAD 4461   3.889   1.505   2.405
  744CHX    CAF 4462   3.767   1.417   2.430
  744CHX    CAE 4463   3.793   1.319   2.546
  744CHX    CAC 4464   3.832   1.396   2.673
  745CHX    CAA 4465   4.385   4.128   0.782
  745CHX    CAB 4466   4.495   4.215   0.720
  745CHX    CAD 4467   4.446   4.279   0.589
  745CHX    CAF 4468   4.317   4.360   0.612
  745CHX    CAE 4469   4.207   4.271   0.673
  745CHX    CAC 4470   4.256   4.209   0.805
  746CHX    CAA 4471   3.049   0.493   1.246
  746CHX    CAB 4472   2.991   0.383   1.337
  746CHX    CAD 4473   2.850   0.346   1.289
  746CHX    CAF 4474   2.852   0.300   1.142
  746CHX    CAE 4475   2.913   0.408   1.051
  746CHX    CAC 4476   3.053   0.448   1.099
  747CHX    CAA 4477   1.258   4.010   1.179
  747CHX    CAB 4478   1.350   3.904   1.244
  747CHX    CAD 4479   1.386   3.945   1.388
  747CHX    CAF 4480   1.259   3.966   1.472
  747CHX    CAE 4481   1.167   4.071   1.408
  747CHX    CAC 4482   1.132   4.032   1.264
  748CHX    CAA 4483   0.135   1.553   1.874
  748CHX    CAB 4484   0.213   1.469   1.771
  748CHX    CAD 4485   0.272   1.344   1.837
  748CHX    CAF 4486   0.162   1.260   1.903
  748CHX    CAE 4487   0.083   1.343   2.005
  748CHX    CAC 4488   0.025   1.469   1.940
  749CHX    CAA 4489   4.863   2.898   1.058
  749CHX    CAB 4490   4.932   2.764   1.025
  749CHX    CAD 4491   4.859   2.648   1.093
  749CHX    CAF 4492   4.711   2.645   1.053
  749CHX    CAE 4493   4.643   2.780   1.085
  749CHX    CAC 4494   4.716   2.896   1.017
  750CHX    CAA 4495   1.411   4.936   2.726
  750CHX    CAB 4496   1.456   4.816   2.641
  750CHX    CAD 4497   1.607   4.821   2.616
  750CHX    CAF 4498   1.685   4.829   2.748
  750CHX    CAE 4499   1.640   4.949   2.832
  750CHX    CAC 4500   1.489   4.942   2.858
  751CHX    CAA 4501   3.166   2.125   2.944
  751CHX    CAB 4502   3.222   2.230   2.847
  751CHX    CAD 4503   3.230   2.368   2.914
  751CHX    CAF 4504   3.312   2.361   3.044
  751CHX    CAE 4505   3.255   2.256   3.140
  751CHX    CAC 4506   3.249   2.119   3.073
  752CHX    CAA 4507   4.048   2.729   3.888
  752CHX    CAB 4508   4.116   2.816   3.994
  752CHX    CAD 4509   4.269   2.805   3.984
  752CHX    CAF 4510   4.317   2.841   3.843
  752CHX    CAE 4511   4.246   2.756   3.737
  752CHX    CAC 4512   4.094   2.769   3.748
  753CHX    CAA 4513   0.755   0.491   3.241
  753CHX    CAB 4514   0.607   0.465   3.270
  753CHX    CAD 4515   0.518   0.546   3.174
  753CHX    CAF 4516   0.551   0.515   3.028
  753CHX    CAE 4517   0.699   0.540   3.000
  753CHX    CAC 4518   0.788   0.458   3.094
  754CHX    CAA 4519   1.869   1.089   1.809
  754CHX    CAB 4520   1.781   1.191   1.736
  754CHX    CAD 4521   1.829   1.209   1.591
  754CHX    CAF 4522   1.828   1.074   1.516
  754CHX    CAE 4523   1.916   0.972   1.589
  754CHX    CAC 4524   1.871   0.955   1.734
  755CHX    CAA 4525   2.701   4.300   4.647
  755CHX    CAB 4526   2.670   4.282   4.796
  755CHX    CAD 4527   2.616   4.413   4.856
  755CHX    CAF 4528   2.490   4.459   4.780
  755CHX    CAE 4529   2.520   4.476   4.631
  755CHX    CAC 4530   2.578   4.348   4.570
  756CHX    CAA 4531   4.553   0.096   4.693
  756CHX    CAB 4532   4.551   0.244   4.652
  756CHX    CAD 4533   4.529   0.333   4.775
  756CHX    CAF 4534   4.639   0.308   4.879
  756CHX    CAE 4535   4.642   0.160   4.921
  756CHX    CAC 4536   4.662   0.070   4.798
  757CHX    CAA 4537   1.504   2.083   2.334
  757CHX    CAB 4538   1.529   2.225   2.386
  757CHX    CAD 4539   1.403   2.283   2.450
  757CHX    CAF 4540   1.348   2.192   2.561
  757CHX    CAE 4541   1.323   2.051   2.506
  757CHX    CAC 4542   1.452   1.992   2.447
  758CHX    CAA 4543   0.937   4.925   3.810
  758CHX    CAB 4544   0.849   0.050   3.817
  758CHX    CAD 4545   0.793   0.086   3.679
  758CHX    CAF 4546   0.718   4.967   3.617
  758CHX    CAE 4547   0.809   4.843   3.609
  758CHX    CAC 4548   0.861   4.807   3.748
  759CHX    CAA 4549   4.445   1.514   2.546
  759CHX    CAB 4550   4.498   1.542   2.688
  759CHX    CAD 4551   4.460   1.679   2.748
  759CHX    CAF 4552   4.426   1.782   2.640
  759CHX    CAE 4553   4.313   1.733   2.547
  759CHX    CAC 4554   4.308   1.580   2.524
  760CHX    CAA 4555   2.865   3.760   1.783
  760CHX    CAB 4556   2.902   3.869   1.681
  760CHX    CAD 4557   3.030   3.829   1.606
  760CHX    CAF 4558   3.012   3.694   1.535
  760CHX    CAE 4559   2.976   3.585   1.638
  760CHX    CAC 4560   2.849   3.623   1.715
  761CHX    CAA 4561   3.680   4.097   4.490
  761CHX    CAB 4562   3.617   4.207   4.577
  761CHX    CAD 4563   3.590   4.333   4.494
  761CHX    CAF 4564   3.501   4.300   4.373
  761CHX    CAE 4565   3.565   4.190   4.286
  761CHX    CAC 4566   3.590   4.064   4.370
  762CHX    CAA 4567   0.505   1.101   2.871
  762CHX    CAB 4568   0.524   0.948   2.875
  762CHX    CAD 4569   0.450   0.881   2.759
  762CHX    CAF 4570   0.496   0.939   2.624
  762CHX    CAE 4571   0.478   1.091   2.620
  762CHX    CAC 4572   0.553   1.157   2.737
  763CHX    CAA 4573   2.582   0.084   4.831
  763CHX    CAB 4574   2.667   4.958   4.855
  763CHX    CAD 4575   2.587   4.831   4.822
  763CHX    CAF 4576   2.535   4.835   4.678
  763CHX    CAE 4577   2.453   4.962   4.652
  763CHX    CAC 4578   2.535   0.088   4.685
  764CHX    CAA 4579   0.479   3.711   2.888
  764CHX    CAB 4580   0.501   3.760   2.745
  764CHX    CAD 4581   0.496   3.643   2.645
  764CHX    CAF 4582   0.362   3.569   2.657
  764CHX    CAE 4583   0.342   3.518   2.801
  764CHX    CAC 4584   0.346   3.636   2.900
  765CHX    CAA 4585   4.152   4.052   2.836
  765CHX    CAB 4586   4.134   4.204   2.843
  765CHX    CAD 4587   4.118   4.264   2.703
  765CHX    CAF 4588   4.002   4.198   2.628
  765CHX    CAE 4589   4.020   4.046   2.622
  765CHX    CAC 4590   4.034   3.987   2.763
  766CHX    CAA 4591   3.549   1.909   0.889
  766CHX    CAB 4592   3.403   1.952   0.860
  766CHX    CAD 4593   3.375   2.093   0.912
  766CHX    CAF 4594   3.407   2.111   1.062
  766CHX    CAE 4595   3.500   2.003   1.122
  766CHX    CAC 4596   3.607   1.959   1.022
  767CHX    CAA 4597   3.766   2.978   0.772
  767CHX    CAB 4598   3.663   2.912   0.680
  767CHX    CAD 4599   3.562   2.831   0.762
  767CHX    CAF 4600   3.492   2.919   0.867
  767CHX    CAE 4601   3.595   2.987   0.958
  767CHX    CAC 4602   3.698   3.067   0.877
  768CHX    CAA 4603   4.324   4.707   2.797
  768CHX    CAB 4604   4.318   4.564   2.855
  768CHX    CAD 4605   4.217   4.556   2.970
  768CHX    CAF 4606   4.078   4.601   2.923
  768CHX    CAE 4607   4.083   4.743   2.866
  768CHX    CAC 4608   4.185   4.752   2.751
  769CHX    CAA 4609   3.575   0.853   0.993
  769CHX    CAB 4610   3.718   0.822   0.948
  769CHX    CAD 4611   3.768   0.921   0.840
  769CHX    CAF 4612   3.707   1.063   0.848
  769CHX    CAE 4613   3.661   1.099   0.989
  769CHX    CAC 4614   3.560   0.997   1.046
  770CHX    CAA 4615   0.750   3.995   0.147
  770CHX    CAB 4616   0.900   3.990   0.178
  770CHX    CAD 4617   0.983   3.958   0.053
  770CHX    CAF 4618   0.954   4.059   4.942
  770CHX    CAE 4619   0.804   4.062   4.909
  770CHX    CAC 4620   0.722   4.096   0.035
  771CHX    CAA 4621   2.753   3.367   0.224
  771CHX    CAB 4622   2.768   3.486   0.320
  771CHX    CAD 4623   2.902   3.478   0.396
  771CHX    CAF 4624   3.018   3.473   0.296
  771CHX    CAE 4625   3.003   3.353   0.201
  771CHX    CAC 4626   2.870   3.361   0.125
  772CHX    CAA 4627   4.462   1.523   4.638
  772CHX    CAB 4628   4.358   1.627   4.682
  772CHX    CAD 4629   4.423   1.731   4.775
  772CHX    CAF 4630   4.542   1.800   4.706
  772CHX    CAE 4631   4.645   1.697   4.659
  772CHX    CAC 4632   4.580   1.592   4.567
  773CHX    CAA 4633   0.453   1.508   2.622
  773CHX    CAB 4634   0.606   1.522   2.628
  773CHX    CAD 4635   0.646   1.653   2.698
  773CHX    CAF 4636   0.584   1.662   2.838
  773CHX    CAE 4637   0.431   1.649   2.830
  773CHX    CAC 4638   0.391   1.518   2.762
  774CHX    CAA 4639   3.376   2.439   1.275
  774CHX    CAB 4640   3.522   2.464   1.315
  774CHX    CAD 4641   3.607   2.489   1.190
  774CHX    CAF 4642   3.552   2.608   1.108
  774CHX    CAE 4643   3.405   2.584   1.070
  774CHX    CAC 4644   3.321   2.559   1.196
  775CHX    CAA 4645   1.082   3.271   0.885
  775CHX    CAB 4646   1.034   3.345   0.760
  775CHX    CAD 4647   1.018   3.249   0.640
  775CHX    CAF 4648   0.928   3.130   0.676
  775CHX    CAE 4649   0.981   3.056   0.799
  775CHX    CAC 4650   0.990   3.153   0.919
  776CHX    CAA 4651   0.779   0.732   0.735
  776CHX    CAB 4652   0.780   0.832   0.619
  776CHX    CAD 4653   0.872   0.951   0.650
  776CHX    CAF 4654   1.014   0.902   0.682
  776CHX    CAE 4655   1.011   0.804   0.800
  776CHX    CAC 4656   0.921   0.684   0.767
  777CHX    CAA 4657   3.494   3.278   4.308
  777CHX    CAB 4658   3.507   3.132   4.356
  777CHX    CAD 4659   3.450   3.117   4.498
  777CHX    CAF 4660   3.303   3.162   4.501
  777CHX    CAE 4661   3.291   3.308   4.456
  777CHX    CAC 4662   3.348   3.326   4.315
  778CHX    CAA 4663   2.886   1.841   4.134
  778CHX    CAB 4664   2.971   1.930   4.225
  778CHX    CAD 4665   3.105   1.966   4.160
  778CHX    CAF 4666   3.083   2.034   4.023
  778CHX    CAE 4667   2.998   1.944   3.932
  778CHX    CAC 4668   2.864   1.909   3.998
  779CHX    CAA 4669   2.280   2.400   1.424
  779CHX    CAB 4670   2.268   2.272   1.508
  779CHX    CAD 4671   2.251   2.306   1.657
  779CHX    CAF 4672   2.128   2.396   1.679
  779CHX    CAE 4673   2.140   2.524   1.596
  779CHX    CAC 4674   2.159   2.492   1.446
  780CHX    CAA 4675   0.833   2.036   3.166
  780CHX    CAB 4676   0.744   1.914   3.142
  780CHX    CAD 4677   0.806   1.788   3.205
  780CHX    CAF 4678   0.829   1.809   3.355
  780CHX    CAE 4679   0.919   1.930   3.380
  780CHX    CAC 4680   0.861   2.057   3.316
  781CHX    CAA 4681   0.590   1.196   0.265
  781CHX    CAB 4682   0.615   1.193   0.113
  781CHX    CAD 4683   0.766   1.197   0.083
  781CHX    CAF 4684   0.838   1.081   0.153
  781CHX    CAE 4685   0.814   1.086   0.304
  781CHX    CAC 4686   0.663   1.081   0.335
  782CHX    CAA 4687   3.861   0.992   4.910
  782CHX    CAB 4688   3.748   0.900   4.959
  782CHX    CAD 4689   3.613   0.941   4.898
  782CHX    CAF 4690   3.621   0.941   4.744
  782CHX    CAE 4691   3.732   1.035   4.696
  782CHX    CAC 4692   3.867   0.993   4.756
  783CHX    CAA 4693   2.585   2.625   1.032
  783CHX    CAB 4694   2.642   2.493   1.084
  783CHX    CAD 4695   2.640   2.387   0.972
  783CHX    CAF 4696   2.721   2.435   0.851
  783CHX    CAE 4697   2.666   2.568   0.799
  783CHX    CAC 4698   2.665   2.674   0.909
  784CHX    CAA 4699   0.172   2.503   2.518
  784CHX    CAB 4700   0.276   2.616   2.516
  784CHX    CAD 4701   0.219   2.743   2.579
  784CHX    CAF 4702   0.172   2.715   2.723
  784CHX    CAE 4703   0.068   2.603   2.725
  784CHX    CAC 4704   0.125   2.475   2.662
  785CHX    CAA 4705   4.304   0.550   1.484
  785CHX    CAB 4706   4.454   0.521   1.490
  785CHX    CAD 4707   4.485   0.378   1.445
  785CHX    CAF 4708   4.429   0.351   1.305
  785CHX    CAE 4709   4.278   0.378   1.300
  785CHX    CAC 4710   4.248   0.522   1.344
  786CHX    CAA 4711   3.899   1.707   0.135
  786CHX    CAB 4712   3.901   1.797   0.260
  786CHX    CAD 4713   4.032   1.876   0.268
  786CHX    CAF 4714   4.054   1.959   0.141
  786CHX    CAE 4715   4.056   1.867   0.017
  786CHX    CAC 4716   3.924   1.789   0.007
  787CHX    CAA 4717   2.245   4.552   2.074
  787CHX    CAB 4718   2.393   4.532   2.111
  787CHX    CAD 4719   2.439   4.640   2.210
  787CHX    CAF 4720   2.352   4.637   2.337
  787CHX    CAE 4721   2.203   4.657   2.302
  787CHX    CAC 4722   2.157   4.551   2.200
  788CHX    CAA 4723   0.685   2.826   0.942
  788CHX    CAB 4724   0.638   2.971   0.928
  788CHX    CAD 4725   0.599   3.029   1.065
  788CHX    CAF 4726   0.715   3.019   1.165
  788CHX    CAE 4727   0.761   2.874   1.180
  788CHX    CAC 4728   0.800   2.815   1.043
  789CHX    CAA 4729   0.033   3.163   2.295
  789CHX    CAB 4730   4.980   3.292   2.358
  789CHX    CAD 4731   0.064   3.412   2.313
  789CHX    CAF 4732   0.065   3.424   2.160
  789CHX    CAE 4733   0.116   3.294   2.096
  789CHX    CAC 4734   0.031   3.175   2.142
  790CHX    CAA 4735   3.407   4.736   0.509
  790CHX    CAB 4736   3.493   4.728   0.637
  790CHX    CAD 4737   3.455   4.604   0.720
  790CHX    CAF 4738   3.471   4.476   0.636
  790CHX    CAE 4739   3.388   4.485   0.507
  790CHX    CAC 4740   3.424   4.609   0.425
  791CHX    CAA 4741   0.284   1.904   0.834
  791CHX    CAB 4742   0.381   1.919   0.716
  791CHX    CAD 4743   0.418   2.067   0.697
  791CHX    CAF 4744   0.482   2.123   0.825
  791CHX    CAE 4745   0.385   2.108   0.943
  791CHX    CAC 4746   0.344   1.962   0.963
  792CHX    CAA 4747   1.706   3.834   3.662
  792CHX    CAB 4748   1.809   3.753   3.583
  792CHX    CAD 4749   1.757   3.612   3.551
  792CHX    CAF 4750   1.625   3.623   3.474
  792CHX    CAE 4751   1.520   3.702   3.553
  792CHX    CAC 4752   1.573   3.842   3.586
  793CHX    CAA 4753   1.142   4.642   0.490
  793CHX    CAB 4754   0.993   4.674   0.506
  793CHX    CAD 4755   0.957   4.804   0.432
  793CHX    CAF 4756   0.994   4.792   0.284
  793CHX    CAE 4757   1.143   4.760   0.266
  793CHX    CAC 4758   1.180   4.631   0.342
  794CHX    CAA 4759   2.215   4.278   4.524
  794CHX    CAB 4760   2.227   4.165   4.422
  794CHX    CAD 4761   2.344   4.072   4.458
  794CHX    CAF 4762   2.325   4.014   4.599
  794CHX    CAE 4763   2.314   4.127   4.702
  794CHX    CAC 4764   2.199   4.222   4.666
  795CHX    CAA 4765   4.630   4.860   0.155
  795CHX    CAB 4766   4.595   4.712   0.129
  795CHX    CAD 4767   4.689   4.619   0.206
  795CHX    CAF 4768   4.686   4.651   0.356
  795CHX    CAE 4769   4.723   4.797   0.382
  795CHX    CAC 4770   4.628   4.891   0.305
  796CHX    CAA 4771   2.764   2.234   2.439
  796CHX    CAB 4772   2.829   2.310   2.323
  796CHX    CAD 4773   2.937   2.405   2.374
  796CHX    CAF 4774   3.043   2.330   2.456
  796CHX    CAE 4775   2.978   2.253   2.571
  796CHX    CAC 4776   2.871   2.157   2.518
  797CHX    CAA 4777   3.570   3.536   3.281
  797CHX    CAB 4778   3.578   3.664   3.366
  797CHX    CAD 4779   3.497   3.648   3.495
  797CHX    CAF 4780   3.546   3.526   3.575
  797CHX    CAE 4781   3.539   3.398   3.490
  797CHX    CAC 4782   3.620   3.415   3.361
  798CHX    CAA 4783   3.289   3.760   0.795
  798CHX    CAB 4784   3.232   3.901   0.779
  798CHX    CAD 4785   3.139   3.908   0.657
  798CHX    CAF 4786   3.026   3.805   0.669
  798CHX    CAE 4787   3.082   3.664   0.689
  798CHX    CAC 4788   3.176   3.658   0.810
  799CHX    CAA 4789   0.484   4.474   1.666
  799CHX    CAB 4790   0.443   4.405   1.535
  799CHX    CAD 4791   0.305   4.453   1.488
  799CHX    CAF 4792   0.200   4.429   1.597
  799CHX    CAE 4793   0.242   4.498   1.728
  799CHX    CAC 4794   0.379   4.449   1.775
  800CHX    CAA 4795   1.298   3.417   2.898
  800CHX    CAB 4796   1.186   3.521   2.910
  800CHX    CAD 4797   1.154   3.584   2.774
  800CHX    CAF 4798   1.115   3.477   2.672
  800CHX    CAE 4799   1.227   3.372   2.659
  800CHX    CAC 4800   1.260   3.310   2.795
  801CHX    CAA 4801   1.535   4.836   3.246
  801CHX    CAB 4802   1.485   4.809   3.388
  801CHX    CAD 4803   1.586   4.857   3.492
  801CHX    CAF 4804   1.616   0.007   3.474
  801CHX    CAE 4805   1.665   0.036   3.332
  801CHX    CAC 4806   1.564   4.986   3.227
  802CHX    CAA 4807   2.674   4.339   2.385
  802CHX    CAB 4808   2.662   4.268   2.520
  802CHX    CAD 4809   2.793   4.278   2.599
  802CHX    CAF 4810   2.832   4.424   2.621
  802CHX    CAE 4811   2.844   4.498   2.486
  802CHX    CAC 4812   2.714   4.486   2.406
  803CHX    CAA 4813   3.742   0.544   0.222
  803CHX    CAB 4814   3.833   0.422   0.196
  803CHX    CAD 4815   3.955   0.424   0.289
  803CHX    CAF 4816   3.912   0.428   0.436
  803CHX    CAE 4817   3.822   0.550   0.462
  803CHX    CAC 4818   3.699   0.549   0.370
  804CHX    CAA 4819   0.157   1.205   3.017
  804CHX    CAB 4820   0.114   1.289   2.896
  804CHX    CAD 4821   0.149   1.216   2.766
  804CHX    CAF 4822   0.084   1.077   2.761
  804CHX    CAE 4823   0.124   0.993   2.884
  804CHX    CAC 4824   0.090   1.067   3.014
  805CHX    CAA 4825   2.048   1.819   1.163
  805CHX    CAB 4826   1.910   1.884   1.185
  805CHX    CAD 4827   1.919   1.997   1.289
  805CHX    CAF 4828   2.025   2.101   1.249
  805CHX    CAE 4829   2.161   2.034   1.228
  805CHX    CAC 4830   2.153   1.923   1.122
  806CHX    CAA 4831   1.389   1.272   2.171
  806CHX    CAB 4832   1.251   1.223   2.218
  806CHX    CAD 4833   1.139   1.284   2.133
  806CHX    CAF 4834   1.159   1.252   1.985
  806CHX    CAE 4835   1.298   1.298   1.937
  806CHX    CAC 4836   1.410   1.238   2.023
  807CHX    CAA 4837   2.544   2.645   3.606
  807CHX    CAB 4838   2.660   2.559   3.552
  807CHX    CAD 4839   2.689   2.592   3.405
  807CHX    CAF 4840   2.718   2.742   3.386
  807CHX    CAE 4841   2.601   2.827   3.439
  807CHX    CAC 4842   2.573   2.795   3.587
  808CHX    CAA 4843   0.964   2.165   4.234
  808CHX    CAB 4844   0.948   2.032   4.309
  808CHX    CAD 4845   1.049   1.921   4.271
  808CHX    CAF 4846   1.109   1.942   4.132
  808CHX    CAE 4847   1.177   2.080   4.122
  808CHX    CAC 4848   1.110   2.195   4.201
  809CHX    CAA 4849   2.109   3.420   4.304
  809CHX    CAB 4850   2.261   3.440   4.289
  809CHX    CAD 4851   2.335   3.305   4.297
  809CHX    CAF 4852   2.281   3.208   4.191
  809CHX    CAE 4853   2.129   3.189   4.205
  809CHX    CAC 4854   2.056   3.323   4.197
  810CHX    CAA 4855   2.716   2.177   2.973
  810CHX    CAB 4856   2.592   2.261   3.004
  810CHX    CAD 4857   2.628   2.379   3.095
  810CHX    CAF 4858   2.736   2.467   3.031
  810CHX    CAE 4859   2.860   2.384   2.997
  810CHX    CAC 4860   2.824   2.265   2.907
  811CHX    CAA 4861   4.725   1.952   0.666
  811CHX    CAB 4862   4.846   2.029   0.613
  811CHX    CAD 4863   4.969   1.938   0.599
  811CHX    CAF 4864   4.936   1.821   0.506
  811CHX    CAE 4865   4.817   1.741   0.560
  811CHX    CAC 4866   4.694   1.831   0.577
  812CHX    CAA 4867   4.453   2.072   0.236
  812CHX    CAB 4868   4.436   1.925   0.194
  812CHX    CAD 4869   4.450   1.833   0.316
  812CHX    CAF 4870   4.351   1.871   0.427
  812CHX    CAE 4871   4.368   2.019   0.466
  812CHX    CAC 4872   4.351   2.110   0.344
  813CHX    CAA 4873   4.241   0.050   4.936
  813CHX    CAB 4874   4.290   4.916   4.992
  813CHX    CAD 4875   4.246   4.900   0.138
  813CHX    CAF 4876   4.093   4.913   0.153
  813CHX    CAE 4877   4.043   0.046   0.093
  813CHX    CAC 4878   4.088   0.060   4.947
  814CHX    CAA 4879   2.291   0.939   3.178
  814CHX    CAB 4880   2.178   0.835   3.188
  814CHX    CAD 4881   2.123   0.802   3.048
  814CHX    CAF 4882   2.235   0.750   2.957
  814CHX    CAE 4883   2.349   0.852   2.947
  814CHX    CAC 4884   2.403   0.887   3.087
  815CHX    CAA 4885   4.082   3.857   4.907
  815CHX    CAB 4886   4.017   3.839   4.769
  815CHX    CAD 4887   3.915   3.950   4.744
  815CHX    CAF 4888   3.982   4.088   4.752
  815CHX    CAE 4889   4.048   4.107   4.890
  815CHX    CAC 4890   4.149   3.995   4.918
  816CHX    CAA 4891   0.057   3.000   4.528
  816CHX    CAB 4892   0.067   2.848   4.547
  816CHX    CAD 4893   0.034   2.774   4.416
  816CHX    CAF 4894   0.124   2.822   4.301
  816CHX    CAE 4895   0.114   2.974   4.284
  816CHX    CAC 4896   0.148   3.047   4.415
  817CHX    CAA 4897   0.239   1.942   3.842
  817CHX    CAB 4898   0.139   1.877   3.746
  817CHX    CAD 4899   0.213   1.803   3.633
  817CHX    CAF 4900   0.309   1.698   3.691
  817CHX    CAE 4901   0.407   1.760   3.790
  817CHX    CAC 4902   0.333   1.836   3.902
  818CHX    CAA 4903   2.489   3.495   0.872
  818CHX    CAB 4904   2.612   3.446   0.950
  818CHX    CAD 4905   2.718   3.388   0.855
  818CHX    CAF 4906   2.759   3.492   0.750
  818CHX    CAE 4907   2.637   3.541   0.671
  818CHX    CAC 4908   2.530   3.597   0.764
  819CHX    CAA 4909   2.982   1.234   3.036
  819CHX    CAB 4910   3.109   1.255   3.121
  819CHX    CAD 4911   3.233   1.211   3.043
  819CHX    CAF 4912   3.244   1.285   2.909
  819CHX    CAE 4913   3.117   1.261   2.825
  819CHX    CAC 4914   2.992   1.307   2.902
  820CHX    CAA 4915   4.683   4.497   4.085
  820CHX    CAB 4916   4.727   4.644   4.087
  820CHX    CAD 4917   4.622   4.732   4.017
  820CHX    CAF 4918   4.484   4.715   4.081
  820CHX    CAE 4919   4.442   4.567   4.078
  820CHX    CAC 4920   4.546   4.481   4.152
  821CHX    CAA 4921   1.292   4.309   4.937
  821CHX    CAB 4922   1.268   4.390   4.809
  821CHX    CAD 4923   1.363   4.510   4.802
  821CHX    CAF 4924   1.510   4.465   4.810
  821CHX    CAE 4925   1.534   4.384   4.939
  821CHX    CAC 4926   1.439   4.263   4.946
  822CHX    CAA 4927   4.457   2.705   1.790
  822CHX    CAB 4928   4.392   2.574   1.744
  822CHX    CAD 4929   4.240   2.583   1.758
  822CHX    CAF 4930   4.183   2.701   1.679
  822CHX    CAE 4931   4.249   2.832   1.725
  822CHX    CAC 4932   4.402   2.825   1.712
  823CHX    CAA 4933   4.277   4.271   1.863
  823CHX    CAB 4934   4.125   4.287   1.878
  823CHX    CAD 4935   4.052   4.168   1.814
  823CHX    CAF 4936   4.100   4.035   1.874
  823CHX    CAE 4937   4.252   4.021   1.862
  823CHX    CAC 4938   4.323   4.140   1.927
  824CHX    CAA 4939   1.466   3.812   1.742
  824CHX    CAB 4940   1.470   3.719   1.863
  824CHX    CAD 4941   1.574   3.609   1.842
  824CHX    CAF 4942   1.713   3.670   1.817
  824CHX    CAE 4943   1.710   3.766   1.698
  824CHX    CAC 4944   1.603   3.875   1.716
  825CHX    CAA 4945   1.830   4.095   1.917
  825CHX    CAB 4946   1.924   4.076   1.796
  825CHX    CAD 4947   2.069   4.110   1.831
  825CHX    CAF 4948   2.084   4.253   1.886
  825CHX    CAE 4949   1.958   4.314   1.950
  825CHX    CAC 4950   1.870   4.208   2.015
  826CHX    CAA 4951   0.388   4.779   3.673
  826CHX    CAB 4952   0.250   4.777   3.605
  826CHX    CAD 4953   0.265   4.778   3.452
  826CHX    CAF 4954   0.352   4.661   3.405
  826CHX    CAE 4955   0.490   4.664   3.473
  826CHX    CAC 4956   0.474   4.662   3.626
  827CHX    CAA 4957   2.841   0.147   3.606
  827CHX    CAB 4958   2.829   0.238   3.483
  827CHX    CAD 4959   2.968   0.287   3.439
  827CHX    CAF 4960   3.061   0.169   3.410
  827CHX    CAE 4961   3.073   0.077   3.532
  827CHX    CAC 4962   2.934   0.028   3.578
  828CHX    CAA 4963   2.855   1.002   0.794
  828CHX    CAB 4964   2.955   0.913   0.869
  828CHX    CAD 4965   2.973   0.779   0.796
  828CHX    CAF 4966   3.019   0.803   0.651
  828CHX    CAE 4967   2.919   0.892   0.576
  828CHX    CAC 4968   2.901   1.026   0.650
  829CHX    CAA 4969   1.787   0.196   0.201
  829CHX    CAB 4970   1.784   0.292   0.321
  829CHX    CAD 4971   1.891   0.403   0.320
  829CHX    CAF 4972   1.934   0.444   0.179
  829CHX    CAE 4973   1.979   0.324   0.093
  829CHX    CAC 4974   1.927   0.185   0.139
  830CHX    CAA 4975   0.521   4.938   4.578
  830CHX    CAB 4976   0.562   4.810   4.503
  830CHX    CAD 4977   0.438   4.731   4.458
  830CHX    CAF 4978   0.345   4.819   4.372
  830CHX    CAE 4979   0.303   4.945   4.450
  830CHX    CAC 4980   0.426   0.025   4.494
  831CHX    CAA 4981   0.365   4.702   2.528
  831CHX    CAB 4982   0.273   4.608   2.607
  831CHX    CAD 4983   0.271   4.647   2.756
  831CHX    CAF 4984   0.229   4.793   2.774
  831CHX    CAE 4985   0.322   4.886   2.695
  831CHX    CAC 4986   0.322   4.848   2.546
  832CHX    CAA 4987   1.680   2.923   3.421
  832CHX    CAB 4988   1.651   2.848   3.290
  832CHX    CAD 4989   1.772   2.762   3.251
  832CHX    CAF 4990   1.807   2.662   3.363
  832CHX    CAE 4991   1.836   2.737   3.493
  832CHX    CAC 4992   1.717   2.826   3.533
  833CHX    CAA 4993   4.104   1.511   1.507
  833CHX    CAB 4994   4.068   1.372   1.453
  833CHX    CAD 4995   4.185   1.275   1.471
  833CHX    CAF 4996   4.226   1.267   1.619
  833CHX    CAE 4997   4.264   1.406   1.672
  833CHX    CAC 4998   4.146   1.503   1.654
  834CHX    CAA 4999   3.786   1.454   1.195
  834CHX    CAB 5000   3.738   1.505   1.332
  834CHX    CAD 5001   3.666   1.640   1.317
  834CHX    CAF 5002   3.548   1.628   1.220
  834CHX    CAE 5003   3.595   1.577   1.083
  834CHX    CAC 5004   3.668   1.443   1.097
  835CHX    CAA 5005   3.397   0.935   3.964
  835CHX    CAB 5006   3.383   0.789   3.919
  835CHX    CAD 5007   3.330   0.701   4.033
  835CHX    CAF 5008   3.197   0.755   4.086
  835CHX    CAE 5009   3.211   0.900   4.132
  835CHX    CAC 5010   3.262   0.988   4.017
  836CHX    CAA 5011   2.687   3.054   1.168
  836CHX    CAB 5012   2.600   2.947   1.235
  836CHX    CAD 5013   2.454   2.959   1.191
  836CHX    CAF 5014   2.441   2.952   1.038
  836CHX    CAE 5015   2.530   3.058   0.971
  836CHX    CAC 5016   2.677   3.044   1.015
  837CHX    CAA 5017   1.041   0.050   2.050
  837CHX    CAB 5018   1.072   0.084   1.904
  837CHX    CAD 5019   1.061   4.959   1.816
  837CHX    CAF 5020   0.922   4.895   1.829
  837CHX    CAE 5021   0.894   4.860   1.975
  837CHX    CAC 5022   0.903   4.985   2.064
  838CHX    CAA 5023   0.856   1.887   2.155
  838CHX    CAB 5024   0.891   1.770   2.062
  838CHX    CAD 5025   0.930   1.646   2.144
  838CHX    CAF 5026   0.820   1.606   2.243
  838CHX    CAE 5027   0.782   1.724   2.334
  838CHX    CAC 5028   0.743   1.847   2.250
  839CHX    CAA 5029   0.325   0.230   1.531
  839CHX    CAB 5030   0.342   0.382   1.515
  839CHX    CAD 5031   0.263   0.457   1.623
  839CHX    CAF 5032   0.306   0.412   1.763
  839CHX    CAE 5033   0.288   0.260   1.779
  839CHX    CAC 5034   0.367   0.185   1.672
  840CHX    CAA 5035   4.082   1.206   2.910
  840CHX    CAB 5036   4.213   1.266   2.855
  840CHX    CAD 5037   4.284   1.366   2.949
  840CHX    CAF 5038   4.246   1.345   3.097
  840CHX    CAE 5039   4.094   1.351   3.120
  840CHX    CAC 5040   4.007   1.304   3.001
  841CHX    CAA 5041   4.024   1.776   1.219
  841CHX    CAB 5042   4.065   1.906   1.290
  841CHX    CAD 5043   4.134   2.002   1.192
  841CHX    CAF 5044   4.042   2.033   1.073
  841CHX    CAE 5045   4.000   1.903   1.002
  841CHX    CAC 5046   3.932   1.806   1.100
  842CHX    CAA 5047   1.046   0.244   4.680
  842CHX    CAB 5048   1.099   0.159   4.563
  842CHX    CAD 5049   1.002   0.043   4.533
  842CHX    CAF 5050   0.862   0.097   4.501
  842CHX    CAE 5051   0.809   0.183   4.617
  842CHX    CAC 5052   0.906   0.298   4.648
  843CHX    CAA 5053   0.771   0.311   2.214
  843CHX    CAB 5054   0.642   0.379   2.168
  843CHX    CAD 5055   0.626   0.517   2.235
  843CHX    CAF 5056   0.748   0.605   2.205
  843CHX    CAE 5057   0.878   0.536   2.250
  843CHX    CAC 5058   0.893   0.399   2.184
  844CHX    CAA 5059   4.726   0.474   2.651
  844CHX    CAB 5060   4.759   0.472   2.501
  844CHX    CAD 5061   4.675   0.368   2.426
  844CHX    CAF 5062   4.525   0.391   2.450
  844CHX    CAE 5063   4.494   0.388   2.600
  844CHX    CAC 5064   4.576   0.495   2.674
  845CHX    CAA 5065   4.267   3.161   1.539
  845CHX    CAB 5066   4.410   3.215   1.524
  845CHX    CAD 5067   4.507   3.103   1.484
  845CHX    CAF 5068   4.460   3.034   1.355
  845CHX    CAE 5069   4.318   2.979   1.372
  845CHX    CAC 5070   4.221   3.091   1.411
  846CHX    CAA 5071   2.916   4.438   1.724
  846CHX    CAB 5072   2.898   4.518   1.854
  846CHX    CAD 5073   2.774   4.470   1.931
  846CHX    CAF 5074   2.785   4.319   1.961
  846CHX    CAE 5075   2.806   4.239   1.831
  846CHX    CAC 5076   2.930   4.288   1.756
  847CHX    CAA 5077   1.223   4.810   1.518
  847CHX    CAB 5078   1.134   4.715   1.437
  847CHX    CAD 5079   0.990   4.767   1.428
  847CHX    CAF 5080   0.988   4.908   1.367
  847CHX    CAE 5081   1.075   0.004   1.449
  847CHX    CAC 5082   1.220   4.951   1.457
  848CHX    CAA 5083   2.546   0.662   1.120
  848CHX    CAB 5084   2.690   0.682   1.071
  848CHX    CAD 5085   2.769   0.774   1.166
  848CHX    CAF 5086   2.765   0.722   1.310
  848CHX    CAE 5087   2.620   0.705   1.357
  848CHX    CAC 5088   2.545   0.609   1.264
  849CHX    CAA 5089   2.960   2.214   1.172
  849CHX    CAB 5090   3.003   2.355   1.129
  849CHX    CAD 5091   3.100   2.347   1.010
  849CHX    CAF 5092   3.038   2.270   0.893
  849CHX    CAE 5093   2.996   2.129   0.937
  849CHX    CAC 5094   2.898   2.138   1.055
  850CHX    CAA 5095   1.387   3.345   4.337
  850CHX    CAB 5096   1.287   3.452   4.384
  850CHX    CAD 5097   1.159   3.449   4.299
  850CHX    CAF 5098   1.096   3.309   4.303
  850CHX    CAE 5099   1.197   3.204   4.253
  850CHX    CAC 5100   1.324   3.206   4.338
  851CHX    CAA 5101   1.750   0.420   3.654
  851CHX    CAB 5102   1.869   0.505   3.701
  851CHX    CAD 5103   1.965   0.542   3.587
  851CHX    CAF 5104   1.892   0.614   3.472
  851CHX    CAE 5105   1.747   0.567   3.447
  851CHX    CAC 5106   1.719   0.426   3.503
  852CHX    CAA 5107   1.014   4.677   4.326
  852CHX    CAB 5108   1.129   4.628   4.415
  852CHX    CAD 5109   1.143   4.475   4.409
  852CHX    CAF 5110   1.159   4.427   4.264
  852CHX    CAE 5111   1.042   4.475   4.177
  852CHX    CAC 5112   1.033   4.628   4.181
  853CHX    CAA 5113   3.838   2.415   3.836
  853CHX    CAB 5114   3.745   2.297   3.868
  853CHX    CAD 5115   3.731   2.206   3.745
  853CHX    CAF 5116   3.869   2.154   3.702
  853CHX    CAE 5117   3.963   2.271   3.670
  853CHX    CAC 5118   3.976   2.364   3.791
  854CHX    CAA 5119   4.317   4.486   1.103
  854CHX    CAB 5120   4.311   4.561   0.969
  854CHX    CAD 5121   4.448   4.624   0.937
  854CHX    CAF 5122   4.557   4.516   0.933
  854CHX    CAE 5123   4.563   4.440   1.066
  854CHX    CAC 5124   4.426   4.378   1.099
  855CHX    CAA 5125   0.385   0.072   1.012
  855CHX    CAB 5126   0.272   0.015   0.925
  855CHX    CAD 5127   0.195   4.907   1.001
  855CHX    CAF 5128   0.139   4.961   1.133
  855CHX    CAE 5129   0.250   0.022   1.220
  855CHX    CAC 5130   0.328   0.129   1.143
  856CHX    CAA 5131   1.025   1.438   3.368
  856CHX    CAB 5132   1.065   1.518   3.243
  856CHX    CAD 5133   1.181   1.613   3.275
  856CHX    CAF 5134   1.302   1.537   3.331
  856CHX    CAE 5135   1.261   1.455   3.455
  856CHX    CAC 5136   1.146   1.360   3.423
  857CHX    CAA 5137   4.861   1.829   4.371
  857CHX    CAB 5138   4.876   1.981   4.360
  857CHX    CAD 5139   0.003   2.017   4.281
  857CHX    CAF 5140   4.999   1.954   4.141
  857CHX    CAE 5141   4.984   1.801   4.152
  857CHX    CAC 5142   4.858   1.764   4.231
  858CHX    CAA 5143   2.825   0.629   4.446
  858CHX    CAB 5144   2.757   0.701   4.329
  858CHX    CAD 5145   2.641   0.617   4.274
  858CHX    CAF 5146   2.540   0.586   4.385
  858CHX    CAE 5147   2.607   0.513   4.502
  858CHX    CAC 5148   2.724   0.597   4.557
  859CHX    CAA 5149   1.918   4.387   1.057
  859CHX    CAB 5150   1.992   4.304   0.952
  859CHX    CAD 5151   2.013   4.383   0.822
  859CHX    CAF 5152   2.086   4.516   0.849
  859CHX    CAE 5153   2.011   4.598   0.955
  859CHX    CAC 5154   1.995   4.518   1.085
  860CHX    CAA 5155   3.415   2.505   2.404
  860CHX    CAB 5156   3.448   2.400   2.296
  860CHX    CAD 5157   3.331   2.384   2.198
  860CHX    CAF 5158   3.292   2.518   2.134
  860CHX    CAE 5159   3.259   2.621   2.243
  860CHX    CAC 5160   3.377   2.639   2.339
  861CHX    CAA 5161   4.466   4.207   3.824
  861CHX    CAB 5162   4.422   4.190   3.971
  861CHX    CAD 5163   4.277   4.143   3.981
  861CHX    CAF 5164   4.257   4.013   3.903
  861CHX    CAE 5165   4.297   4.032   3.756
  861CHX    CAC 5166   4.443   4.078   3.745
  862CHX    CAA 5167   4.308   1.877   4.369
  862CHX    CAB 5168   4.434   1.962   4.386
  862CHX    CAD 5169   4.512   1.980   4.254
  862CHX    CAF 5170   4.493   1.868   4.150
  862CHX    CAE 5171   4.465   1.733   4.217
  862CHX    CAC 5172   4.340   1.739   4.308
  863CHX    CAA 5173   4.119   0.098   2.346
  863CHX    CAB 5174   3.975   0.106   2.293
  863CHX    CAD 5175   3.956   0.010   2.175
  863CHX    CAF 5176   3.990   4.867   2.216
  863CHX    CAE 5177   4.133   4.858   2.272
  863CHX    CAC 5178   4.152   4.954   2.390
  864CHX    CAA 5179   2.245   2.223   2.092
  864CHX    CAB 5180   2.345   2.159   1.995
  864CHX    CAD 5181   2.459   2.257   1.960
  864CHX    CAF 5182   2.529   2.306   2.087
  864CHX    CAE 5183   2.429   2.371   2.183
  864CHX    CAC 5184   2.317   2.272   2.219
  865CHX    CAA 5185   1.065   4.346   2.722
  865CHX    CAB 5186   0.984   4.477   2.722
  865CHX    CAD 5187   1.075   4.599   2.701
  865CHX    CAF 5188   1.157   4.584   2.571
  865CHX    CAE 5189   1.238   4.454   2.572
  865CHX    CAC 5190   1.146   4.333   2.591
  866CHX    CAA 5191   3.688   2.132   1.537
  866CHX    CAB 5192   3.736   2.065   1.408
  866CHX    CAD 5193   3.780   2.171   1.305
  866CHX    CAF 5194   3.889   2.261   1.364
  866CHX    CAE 5195   3.840   2.328   1.493
  866CHX    CAC 5196   3.795   2.223   1.596
  867CHX    CAA 5197   4.950   3.510   2.658
  867CHX    CAB 5198   4.809   3.451   2.658
  867CHX    CAD 5199   4.790   3.353   2.775
  867CHX    CAF 5200   4.823   3.420   2.909
  867CHX    CAE 5201   4.965   3.480   2.908
  867CHX    CAC 5202   4.980   3.578   2.791
  868CHX    CAA 5203   0.618   0.846   3.404
  868CHX    CAB 5204   0.471   0.806   3.422
  868CHX    CAD 5205   0.378   0.925   3.397
  868CHX    CAF 5206   0.403   0.985   3.257
  868CHX    CAE 5207   0.550   1.027   3.243
  868CHX    CAC 5208   0.642   0.906   3.265
  869CHX    CAA 5209   1.438   4.695   4.211
  869CHX    CAB 5210   1.480   4.735   4.354
  869CHX    CAD 5211   1.511   4.611   4.439
  869CHX    CAF 5212   1.619   4.524   4.372
  869CHX    CAE 5213   1.575   4.483   4.231
  869CHX    CAC 5214   1.545   4.607   4.145
  870CHX    CAA 5215   3.896   4.095   4.019
  870CHX    CAB 5216   3.884   4.237   4.075
  870CHX    CAD 5217   3.948   4.340   3.980
  870CHX    CAF 5218   3.882   4.331   3.842
  870CHX    CAE 5219   3.897   4.190   3.784
  870CHX    CAC 5220   3.833   4.088   3.879
  871CHX    CAA 5221   1.356   3.947   2.638
  871CHX    CAB 5222   1.446   4.072   2.634
  871CHX    CAD 5223   1.499   4.111   2.772
  871CHX    CAF 5224   1.384   4.134   2.873
  871CHX    CAE 5225   1.256   4.051   2.849
  871CHX    CAC 5226   1.286   3.921   2.773
  872CHX    CAA 5227   1.463   4.326   1.308
  872CHX    CAB 5228   1.514   4.361   1.167
  872CHX    CAD 5229   1.398   4.355   1.066
  872CHX    CAF 5230   1.284   4.449   1.108
  872CHX    CAE 5231   1.234   4.414   1.248
  872CHX    CAC 5232   1.350   4.420   1.350
  873CHX    CAA 5233   1.132   3.878   3.535
  873CHX    CAB 5234   1.214   3.958   3.636
  873CHX    CAD 5235   1.181   4.108   3.628
  873CHX    CAF 5236   1.030   4.131   3.648
  873CHX    CAE 5237   0.948   4.050   3.546
  873CHX    CAC 5238   0.982   3.900   3.556
  874CHX    CAA 5239   0.324   1.041   0.803
  874CHX    CAB 5240   0.454   0.962   0.784
  874CHX    CAD 5241   0.545   0.976   0.907
  874CHX    CAF 5242   0.472   0.931   1.034
  874CHX    CAE 5243   0.341   1.009   1.052
  874CHX    CAC 5244   0.250   0.994   0.929
  875CHX    CAA 5245   1.402   2.080   4.453
  875CHX    CAB 5246   1.463   2.010   4.576
  875CHX    CAD 5247   1.616   2.012   4.570
  875CHX    CAF 5248   1.669   2.156   4.554
  875CHX    CAE 5249   1.607   2.225   4.433
  875CHX    CAC 5250   1.454   2.224   4.441
  876CHX    CAA 5251   1.631   3.255   3.028
  876CHX    CAB 5252   1.684   3.398   3.019
  876CHX    CAD 5253   1.734   3.449   3.155
  876CHX    CAF 5254   1.840   3.355   3.212
  876CHX    CAE 5255   1.786   3.211   3.223
  876CHX    CAC 5256   1.738   3.161   3.085
  877CHX    CAA 5257   2.049   2.838   1.121
  877CHX    CAB 5258   2.062   2.943   1.009
  877CHX    CAD 5259   1.979   2.901   0.887
  877CHX    CAF 5260   1.831   2.880   0.925
  877CHX    CAE 5261   1.817   2.777   1.038
  877CHX    CAC 5262   1.902   2.818   1.160
  878CHX    CAA 5263   1.901   4.512   2.532
  878CHX    CAB 5264   1.777   4.484   2.618
  878CHX    CAD 5265   1.676   4.395   2.544
  878CHX    CAF 5266   1.743   4.264   2.499
  878CHX    CAE 5267   1.866   4.292   2.412
  878CHX    CAC 5268   1.966   4.381   2.487
  879CHX    CAA 5269   2.125   1.528   0.110
  879CHX    CAB 5270   2.099   1.661   0.184
  879CHX    CAD 5271   2.029   1.762   0.092
  879CHX    CAF 5272   1.899   1.704   0.036
  879CHX    CAE 5273   1.926   1.574   4.960
  879CHX    CAC 5274   1.995   1.472   0.052
  880CHX    CAA 5275   2.937   0.472   2.479
  880CHX    CAB 5276   2.809   0.542   2.431
  880CHX    CAD 5277   2.821   0.587   2.285
  880CHX    CAF 5278   2.855   0.467   2.195
  880CHX    CAE 5279   2.985   0.401   2.241
  880CHX    CAC 5280   2.975   0.355   2.387
  881CHX    CAA 5281   0.803   4.350   1.774
  881CHX    CAB 5282   0.823   4.472   1.865
  881CHX    CAD 5283   0.972   4.507   1.876
  881CHX    CAF 5284   1.033   4.531   1.737
  881CHX    CAE 5285   1.012   4.410   1.645
  881CHX    CAC 5286   0.862   4.375   1.635
  882CHX    CAA 5287   2.787   1.211   3.481
  882CHX    CAB 5288   2.688   1.124   3.559
  882CHX    CAD 5289   2.576   1.072   3.467
  882CHX    CAF 5290   2.634   0.997   3.347
  882CHX    CAE 5291   2.732   1.086   3.269
  882CHX    CAC 5292   2.845   1.135   3.361
  883CHX    CAA 5293   3.601   3.118   3.943
  883CHX    CAB 5294   3.620   3.205   3.818
  883CHX    CAD 5295   3.760   3.185   3.759
  883CHX    CAF 5296   3.785   3.037   3.725
  883CHX    CAE 5297   3.762   2.948   3.847
  883CHX    CAC 5298   3.622   2.970   3.907
  884CHX    CAA 5299   3.632   0.615   3.101
  884CHX    CAB 5300   3.726   0.736   3.111
  884CHX    CAD 5301   3.871   0.696   3.077
  884CHX    CAF 5302   3.879   0.633   2.938
  884CHX    CAE 5303   3.785   0.512   2.929
  884CHX    CAC 5304   3.641   0.553   2.961
  885CHX    CAA 5305   4.865   0.523   3.750
  885CHX    CAB 5306   4.931   0.385   3.736
  885CHX    CAD 5307   4.852   0.296   3.638
  885CHX    CAF 5308   4.837   0.365   3.502
  885CHX    CAE 5309   4.771   0.502   3.517
  885CHX    CAC 5310   4.851   0.591   3.613
  886CHX    CAA 5311   4.345   3.182   2.947
  886CHX    CAB 5312   4.283   3.051   2.999
  886CHX    CAD 5313   4.357   2.929   2.942
  886CHX    CAF 5314   4.507   2.936   2.977
  886CHX    CAE 5315   4.570   3.066   2.926
  886CHX    CAC 5316   4.495   3.189   2.980
  887CHX    CAA 5317   3.028   4.848   3.942
  887CHX    CAB 5318   3.148   4.870   3.848
  887CHX    CAD 5319   3.208   0.010   3.870
  887CHX    CAF 5320   3.248   0.030   4.016
  887CHX    CAE 5321   3.129   0.007   4.110
  887CHX    CAC 5322   3.070   4.867   4.089
  888CHX    CAA 5323   3.902   4.508   1.474
  888CHX    CAB 5324   3.854   4.400   1.572
  888CHX    CAD 5325   3.801   4.464   1.701
  888CHX    CAF 5326   3.687   4.562   1.669
  888CHX    CAE 5327   3.734   4.671   1.571
  888CHX    CAC 5328   3.790   4.607   1.443
  889CHX    CAA 5329   1.141   2.459   2.188
  889CHX    CAB 5330   1.078   2.332   2.247
  889CHX    CAD 5331   1.088   2.215   2.148
  889CHX    CAF 5332   1.234   2.190   2.107
  889CHX    CAE 5333   1.298   2.317   2.049
  889CHX    CAC 5334   1.287   2.435   2.148
  890CHX    CAA 5335   1.879   4.665   3.226
  890CHX    CAB 5336   1.933   4.766   3.328
  890CHX    CAD 5337   2.067   4.827   3.283
  890CHX    CAF 5338   2.089   4.836   3.130
  890CHX    CAE 5339   1.957   4.845   3.053
  890CHX    CAC 5340   1.864   4.727   3.085
  891CHX    CAA 5341   1.289   0.022   3.815
  891CHX    CAB 5342   1.389   4.946   3.903
  891CHX    CAD 5343   1.532   4.967   3.851
  891CHX    CAF 5344   1.567   0.116   3.845
  891CHX    CAE 5345   1.465   0.193   3.759
  891CHX    CAC 5346   1.322   0.172   3.811
  892CHX    CAA 5347   2.194   1.697   3.179
  892CHX    CAB 5348   2.144   1.567   3.244
  892CHX    CAD 5349   2.121   1.589   3.394
  892CHX    CAF 5350   2.019   1.701   3.417
  892CHX    CAE 5351   2.066   1.832   3.352
  892CHX    CAC 5352   2.093   1.810   3.202
  893CHX    CAA 5353   0.022   0.102   2.635
  893CHX    CAB 5354   4.873   0.133   2.658
  893CHX    CAD 5355   4.842   0.140   2.809
  893CHX    CAF 5356   4.932   0.244   2.878
  893CHX    CAE 5357   0.080   0.210   2.855
  893CHX    CAC 5358   0.111   0.205   2.705
  894CHX    CAA 5359   2.011   2.916   4.656
  894CHX    CAB 5360   2.078   2.969   4.529
  894CHX    CAD 5361   2.168   3.089   4.563
  894CHX    CAF 5362   2.275   3.050   4.666
  894CHX    CAE 5363   2.209   2.995   4.793
  894CHX    CAC 5364   2.116   2.876   4.760
  895CHX    CAA 5365   3.303   2.797   4.630
  895CHX    CAB 5366   3.448   2.777   4.677
  895CHX    CAD 5367   3.469   2.636   4.733
  895CHX    CAF 5368   3.429   2.530   4.629
  895CHX    CAE 5369   3.283   2.550   4.586
  895CHX    CAC 5370   3.263   2.691   4.528
  896CHX    CAA 5371   2.476   4.703   4.043
  896CHX    CAB 5372   2.477   4.734   3.893
  896CHX    CAD 5373   2.335   4.756   3.839
  896CHX    CAF 5374   2.263   4.867   3.918
  896CHX    CAE 5375   2.261   4.833   4.068
  896CHX    CAC 5376   2.403   4.814   4.122
  897CHX    CAA 5377   2.714   3.929   4.512
  897CHX    CAB 5378   2.625   3.804   4.507
  897CHX    CAD 5379   2.578   3.774   4.363
  897CHX    CAF 5380   2.699   3.758   4.270
  897CHX    CAE 5381   2.789   3.883   4.275
  897CHX    CAC 5382   2.835   3.913   4.419
  898CHX    CAA 5383   1.587   1.416   4.471
  898CHX    CAB 5384   1.737   1.450   4.476
  898CHX    CAD 5385   1.779   1.519   4.606
  898CHX    CAF 5386   1.695   1.646   4.633
  898CHX    CAE 5387   1.552   1.645   4.576
  898CHX    CAC 5388   1.496   1.503   4.560
  899CHX    CAA 5389   2.182   2.755   3.332
  899CHX    CAB 5390   2.245   2.623   3.383
  899CHX    CAD 5391   2.331   2.546   3.280
  899CHX    CAF 5392   2.386   2.638   3.170
  899CHX    CAE 5393   2.274   2.715   3.097
  899CHX    CAC 5394   2.150   2.749   3.183
  900CHX    CAA 5395   1.591   4.400   0.692
  900CHX    CAB 5396   1.458   4.463   0.647
  900CHX    CAD 5397   1.403   4.556   0.755
  900CHX    CAF 5398   1.505   4.664   0.793
  900CHX    CAE 5399   1.638   4.600   0.838
  900CHX    CAC 5400   1.693   4.510   0.727
   5.00000   5.00000   5.00000
