[ defaults ]
; nbfunc        comb-rule       gen-pairs       fudgeLJ fudgeQQ
  1             1               no              1.0     1.0

[ atomtypes ]
;   type      mass    charge    ptype       c6            c12
    OMET    15.999     0.0000     A	2.26576e-3      2.325625e-6
    CMET    15.035     0.0000     A	8.87364e-3      1.936000e-5
      HO     1.008     0.0000     A	0.0            0.0

[ moleculetype ]
; name  nrexcl
Methanol        2

[ atoms ]
;   nr  type    resnr   residu  atom    cgnr    charge	mass
1       CMET     1       MeOH    Me1     1        0.266000  15.035
2       OMET     1       MeOH    O2      1       -0.674000  15.999
3       HO       1       MeOH    H3      1        0.408000  1.008

[ constraints ]
;  ai  aj funct           c0       
1       2	1	   0.15300
2       3	1	   0.10000
1	3	1	   0.20770

[ exclusions ]
;  ai    aj    ak
    1     2     3
    2     3     1
    3     2     1

;Model "B3" from W.F. van Gunsteren et.al., JCP 112, 2000, 10450
;Christoph Freudenberger 13/03/03

[ system ]
; Name
Methanol 

[ molecules ]
; Compound        #mols
Methanol       	400
