Cholestrol system in water
10061
    1CHOL   C19    1   0.240   1.538   2.365
    1CHOL   C17    2   0.318   1.453   2.464
    1CHOL   C18    3   0.424   1.372   2.391
    1CHOL   C16    4   0.221   1.364   2.540
    1CHOL   C15    5   0.279   1.308   2.669
    1CHOL   C14    6   0.296   1.418   2.772
    1CHOL   C13    7   0.341   1.360   2.906
    1CHOL   C20    8   0.488   1.397   2.924
    1CHOL   C12    9   0.248   1.404   3.021
    1CHOL   C11   10   0.105   1.351   2.994
    1CHOL   C10   11   0.039   1.309   3.125
    1CHOL    C9   12   0.128   1.376   3.228
    1CHOL    C8   13   0.117   1.338   3.376
    1CHOL    C7   14   4.976   1.366   3.429
    1CHOL    C6   15   4.965   1.337   3.574
    1CHOL    H9   16   4.863   1.323   3.613
    1CHOL    C5   17   0.070   1.331   3.657
    1CHOL    C4   18   0.048   1.295   3.800
    1CHOL    C1   19   0.120   1.393   3.893
    1CHOL    H2   20   0.070   1.494   3.887
    1CHOL   O28   21   0.112   1.346   4.028
    1CHOL   H74   22   0.134   1.249   4.035
    1CHOL    C2   23   0.268   1.410   3.855
    1CHOL    C3   24   0.281   1.452   3.708
    1CHOL   C26   25   0.214   1.353   3.611
    1CHOL   C27   26   0.284   1.216   3.616
    1CHOL   C25   27   0.219   1.414   3.465
    1CHOL   C24   28   0.360   1.410   3.406
    1CHOL   C23   29   0.366   1.447   3.258
    1CHOL   C21   30   0.274   1.360   3.171
    1CHOL   C22   31   0.323   1.214   3.175
    2CHOL   C19   32   1.111   1.212   3.832
    2CHOL   C17   33   1.142   1.194   3.685
    2CHOL   C18   34   1.110   1.324   3.613
    2CHOL   C16   35   1.066   1.075   3.630
    2CHOL   C15   36   1.123   1.026   3.498
    2CHOL   C14   37   1.251   0.945   3.519
    2CHOL   C13   38   1.319   0.918   3.385
    2CHOL   C20   39   1.450   0.995   3.387
    2CHOL   C12   40   1.338   0.770   3.346
    2CHOL   C11   41   1.217   0.681   3.385
    2CHOL   C10   42   1.201   0.568   3.284
    2CHOL    C9   43   1.328   0.579   3.201
    2CHOL    C8   44   1.346   0.504   3.067
    2CHOL    C7   45   1.329   0.353   3.089
    2CHOL    C6   46   1.376   0.271   2.974
    2CHOL    H9   47   1.329   0.171   2.967
    2CHOL    C5   48   1.466   0.312   2.883
    2CHOL    C4   49   1.513   0.217   2.778
    2CHOL    C1   50   1.662   0.235   2.743
    2CHOL    H2   51   1.725   0.196   2.828
    2CHOL   O28   52   1.693   0.162   2.624
    2CHOL   H74   53   1.688   0.065   2.641
    2CHOL    C2   54   1.697   0.381   2.716
    2CHOL    C3   55   1.657   0.469   2.835
    2CHOL   C26   56   1.508   0.460   2.871
    2CHOL   C27   57   1.423   0.522   2.759
    2CHOL   C25   58   1.486   0.534   3.007
    2CHOL   C24   59   1.508   0.685   2.994
    2CHOL   C23   60   1.491   0.757   3.127
    2CHOL   C21   61   1.354   0.735   3.192
    2CHOL   C22   62   1.250   0.812   3.109
    3CHOL   C19   63   2.176   4.577   2.217
    3CHOL   C17   64   2.215   4.647   2.345
    3CHOL   C18   65   2.089   4.694   2.416
    3CHOL   C16   66   2.313   4.759   2.314
    3CHOL   C15   67   2.364   4.830   2.438
    3CHOL   C14   68   2.452   4.739   2.521
    3CHOL   C13   69   2.482   4.802   2.657
    3CHOL   C20   70   2.387   4.737   2.756
    3CHOL   C12   71   2.631   4.790   2.695
    3CHOL   C11   72   2.721   4.856   2.588
    3CHOL   C10   73   2.846   4.913   2.654
    3CHOL    C9   74   2.839   4.853   2.794
    3CHOL    C8   75   2.929   4.903   2.907
    3CHOL    C7   76   3.076   4.887   2.870
    3CHOL    C6   77   3.167   4.921   2.984
    3CHOL    H9   78   3.273   4.933   2.956
    3CHOL    C5   79   3.128   4.922   3.113
    3CHOL    C4   80   3.227   4.955   3.219
    3CHOL    C1   81   3.223   4.846   3.327
    3CHOL    H2   82   3.248   4.747   3.279
    3CHOL   O28   83   3.319   4.871   3.431
    3CHOL   H74   84   3.315   4.966   3.461
    3CHOL    C2   85   3.083   4.834   3.387
    3CHOL    C3   86   2.985   4.795   3.277
    3CHOL   C26   87   2.984   4.892   3.158
    3CHOL   C27   88   2.924   0.025   3.206
    3CHOL   C25   89   2.901   4.828   3.041
    3CHOL   C24   90   2.752   4.826   3.074
    3CHOL   C23   91   2.667   4.775   2.958
    3CHOL   C21   92   2.685   4.855   2.829
    3CHOL   C22   93   2.627   4.997   2.847
    4CHOL   C19   94   1.350   4.456   3.929
    4CHOL   C17   95   1.298   4.314   3.932
    4CHOL   C18   96   1.317   4.252   3.794
    4CHOL   C16   97   1.152   4.316   3.975
    4CHOL   C15   98   1.089   4.179   3.995
    4CHOL   C14   99   1.137   4.105   4.119
    4CHOL   C13  100   1.039   3.992   4.155
    4CHOL   C20  101   1.102   3.862   4.107
    4CHOL   C12  102   1.003   3.994   4.305
    4CHOL   C11  103   0.945   4.132   4.343
    4CHOL   C10  104   0.867   4.119   4.473
    4CHOL    C9  105   0.890   3.974   4.512
    4CHOL    C8  106   0.806   3.906   4.620
    4CHOL    C7  107   0.819   3.985   4.751
    4CHOL    C6  108   0.757   3.914   4.866
    4CHOL    H9  109   0.732   3.977   4.953
    4CHOL    C5  110   0.737   3.781   4.870
    4CHOL    C4  111   0.676   3.720   4.992
    4CHOL    C1  112   0.758   3.599   0.039
    4CHOL    H2  113   0.857   3.637   0.076
    4CHOL   O28  114   0.692   3.528   0.145
    4CHOL   H74  115   0.635   3.587   0.198
    4CHOL    C2  116   0.782   3.499   4.926
    4CHOL    C3  117   0.849   3.567   4.806
    4CHOL   C26  118   0.769   3.687   4.753
    4CHOL   C27  119   0.636   3.636   4.697
    4CHOL   C25  120   0.854   3.761   4.643
    4CHOL   C24  121   0.857   3.683   4.511
    4CHOL   C23  122   0.940   3.753   4.404
    4CHOL   C21  123   0.898   3.896   4.373
    4CHOL   C22  124   0.765   3.892   4.295
    5CHOL   C19  125   2.458   0.734   1.194
    5CHOL   C17  126   2.461   0.885   1.203
    5CHOL   C18  127   2.480   0.922   1.348
    5CHOL   C16  128   2.330   0.941   1.149
    5CHOL   C15  129   2.345   0.996   1.008
    5CHOL   C14  130   2.360   0.893   0.898
    5CHOL   C13  131   2.421   0.956   0.772
    5CHOL   C20  132   2.569   0.925   0.777
    5CHOL   C12  133   2.361   0.909   0.638
    5CHOL   C11  134   2.208   0.882   0.644
    5CHOL   C10  135   2.158   0.879   0.500
    5CHOL    C9  136   2.287   0.899   0.421
    5CHOL    C8  137   2.288   0.921   0.269
    5CHOL    C7  138   2.243   0.790   0.203
    5CHOL    C6  139   2.268   0.786   0.056
    5CHOL    H9  140   2.213   0.707   0.004
    5CHOL    C5  141   2.353   0.867   4.991
    5CHOL    C4  142   2.376   0.849   4.844
    5CHOL    C1  143   2.527   0.848   4.813
    5CHOL    H2  144   2.574   0.759   4.864
    5CHOL   O28  145   2.555   0.843   4.673
    5CHOL   H74  146   2.510   0.765   4.630
    5CHOL    C2  147   2.589   0.977   4.865
    5CHOL    C3  148   2.573   0.988   0.016
    5CHOL   C26  149   2.426   0.983   0.062
    5CHOL   C27  150   2.356   1.115   0.025
    5CHOL   C25  151   2.428   0.957   0.216
    5CHOL   C24  152   2.494   1.069   0.297
    5CHOL   C23  153   2.506   1.028   0.443
    5CHOL   C21  154   2.370   1.001   0.509
    5CHOL   C22  155   2.304   1.138   0.532
    6CHOL   C19  156   1.014   3.940   2.026
    6CHOL   C17  157   0.977   4.070   1.958
    6CHOL   C18  158   0.921   4.163   2.063
    6CHOL   C16  159   0.882   4.042   1.843
    6CHOL   C15  160   0.845   4.165   1.760
    6CHOL   C14  161   0.962   4.226   1.685
    6CHOL   C13  162   0.909   4.308   1.566
    6CHOL   C20  163   0.942   4.454   1.588
    6CHOL   C12  164   0.959   4.259   1.429
    6CHOL   C11  165   0.963   4.104   1.422
    6CHOL   C10  166   0.931   4.058   1.281
    6CHOL    C9  167   0.942   4.188   1.204
    6CHOL    C8  168   0.896   4.193   1.059
    6CHOL    C7  169   0.982   4.099   0.974
    6CHOL    C6  170   0.939   4.103   0.832
    6CHOL    H9  171   0.966   4.016   0.770
    6CHOL    C5  172   0.873   4.207   0.778
    6CHOL    C4  173   0.835   4.201   0.634
    6CHOL    C1  174   0.891   4.325   0.562
    6CHOL    H2  175   1.004   4.323   0.569
    6CHOL   O28  176   0.852   4.323   0.424
    6CHOL   H74  177   0.881   4.238   0.383
    6CHOL    C2  178   0.839   4.452   0.629
    6CHOL    C3  179   0.879   4.456   0.777
    6CHOL   C26  180   0.833   4.333   0.857
    6CHOL   C27  181   0.680   4.333   0.872
    6CHOL   C25  182   0.902   4.335   0.998
    6CHOL   C24  183   0.839   4.438   1.092
    6CHOL   C23  184   0.895   4.432   1.234
    6CHOL   C21  185   0.875   4.295   1.299
    6CHOL   C22  186   0.725   4.273   1.324
    7CHOL   C19  187   1.141   3.627   3.758
    7CHOL   C17  188   1.175   3.570   3.622
    7CHOL   C18  189   1.278   3.459   3.633
    7CHOL   C16  190   1.225   3.681   3.530
    7CHOL   C15  191   1.224   3.639   3.385
    7CHOL   C14  192   1.081   3.630   3.335
    7CHOL   C13  193   1.072   3.580   3.191
    7CHOL   C20  194   0.987   3.454   3.196
    7CHOL   C12  195   1.010   3.678   3.089
    7CHOL   C11  196   1.028   3.826   3.130
    7CHOL   C10  197   1.027   3.912   3.005
    7CHOL    C9  198   0.988   3.811   2.899
    7CHOL    C8  199   0.996   3.848   2.751
    7CHOL    C7  200   0.904   3.968   2.728
    7CHOL    C6  201   0.880   3.996   2.585
    7CHOL    H9  202   0.857   4.101   2.560
    7CHOL    C5  203   0.890   3.903   2.489
    7CHOL    C4  204   0.850   3.939   2.350
    7CHOL    C1  205   0.755   3.832   2.296
    7CHOL    H2  206   0.664   3.827   2.362
    7CHOL   O28  207   0.714   3.862   2.162
    7CHOL   H74  208   0.660   3.944   2.161
    7CHOL    C2  209   0.824   3.696   2.299
    7CHOL    C3  210   0.862   3.658   2.442
    7CHOL   C26  211   0.950   3.764   2.512
    7CHOL   C27  212   1.092   3.762   2.452
    7CHOL   C25  213   0.950   3.728   2.665
    7CHOL   C24  214   1.034   3.604   2.697
    7CHOL   C23  215   1.021   3.566   2.845
    7CHOL   C21  216   1.064   3.678   2.940
    7CHOL   C22  217   1.217   3.686   2.937
    8CHOL   C19  218   4.857   3.348   1.040
    8CHOL   C17  219   4.808   3.210   1.078
    8CHOL   C18  220   4.666   3.219   1.133
    8CHOL   C16  221   4.906   3.146   1.174
    8CHOL   C15  222   4.876   2.999   1.191
    8CHOL   C14  223   4.964   2.931   1.295
    8CHOL   C13  224   4.944   2.980   1.439
    8CHOL   C20  225   4.807   2.935   1.487
    8CHOL   C12  226   0.059   2.928   1.528
    8CHOL   C11  227   0.189   2.997   1.481
    8CHOL   C10  228   0.285   3.006   1.598
    8CHOL    C9  229   0.220   2.913   1.699
    8CHOL    C8  230   0.270   2.903   1.843
    8CHOL    C7  231   0.419   2.873   1.838
    8CHOL    C6  232   0.475   2.834   1.970
    8CHOL    H9  233   0.585   2.834   1.974
    8CHOL    C5  234   0.402   2.786   2.071
    8CHOL    C4  235   0.473   2.742   2.194
    8CHOL    C1  236   0.452   2.591   2.211
    8CHOL    H2  237   0.501   2.537   2.124
    8CHOL   O28  238   0.511   2.544   2.333
    8CHOL   H74  239   0.609   2.544   2.325
    8CHOL    C2  240   0.302   2.558   2.213
    8CHOL    C3  241   0.229   2.610   2.089
    8CHOL   C26  242   0.250   2.760   2.062
    8CHOL   C27  243   0.179   2.841   2.171
    8CHOL   C25  244   0.194   2.790   1.917
    8CHOL   C24  245   0.044   2.823   1.915
    8CHOL   C23  246   4.990   2.842   1.773
    8CHOL   C21  247   0.065   2.944   1.686
    8CHOL   C22  248   0.026   3.085   1.729
    9CHOL   C19  249   2.561   0.994   1.862
    9CHOL   C17  250   2.561   1.075   1.990
    9CHOL   C18  251   2.435   1.159   2.000
    9CHOL   C16  252   2.686   1.162   1.997
    9CHOL   C15  253   2.715   1.206   2.140
    9CHOL   C14  254   2.764   1.088   2.222
    9CHOL   C13  255   2.765   1.117   2.372
    9CHOL   C20  256   2.637   1.054   2.428
    9CHOL   C12  257   2.894   1.068   2.441
    9CHOL   C11  258   3.017   1.139   2.380
    9CHOL   C10  259   3.124   1.158   2.488
    9CHOL    C9  260   3.074   1.065   2.598
    9CHOL    C8  261   3.137   1.065   2.738
    9CHOL    C7  262   3.286   1.031   2.728
    9CHOL    C6  263   3.349   0.998   2.858
    9CHOL    H9  264   3.459   1.002   2.858
    9CHOL    C5  265   3.281   0.960   2.968
    9CHOL    C4  266   3.358   0.922   3.090
    9CHOL    C1  267   3.298   0.797   3.157
    9CHOL    H2  268   3.309   0.710   3.085
    9CHOL   O28  269   3.366   0.765   3.279
    9CHOL   H74  270   3.386   0.845   3.333
    9CHOL    C2  271   3.150   0.818   3.186
    9CHOL    C3  272   3.075   0.842   3.054
    9CHOL   C26  273   3.127   0.964   2.976
    9CHOL   C27  274   3.084   1.091   3.051
    9CHOL   C25  275   3.067   0.962   2.831
    9CHOL   C24  276   2.916   0.983   2.831
    9CHOL   C23  277   2.857   0.980   2.690
    9CHOL   C21  278   2.917   1.085   2.597
    9CHOL   C22  279   2.873   1.225   2.643
   10CHOL   C19  280   4.809   3.602   3.751
   10CHOL   C17  281   4.752   3.718   3.830
   10CHOL   C18  282   4.863   3.819   3.853
   10CHOL   C16  283   4.690   3.663   3.958
   10CHOL   C15  284   4.639   3.772   4.050
   10CHOL   C14  285   4.552   3.714   4.160
   10CHOL   C13  286   4.585   3.766   4.301
   10CHOL   C20  287   4.549   3.913   4.310
   10CHOL   C12  288   4.513   3.680   4.407
   10CHOL   C11  289   4.544   3.530   4.384
   10CHOL   C10  290   4.542   3.457   4.518
   10CHOL    C9  291   4.479   3.561   4.608
   10CHOL    C8  292   4.474   3.538   4.759
   10CHOL    C7  293   4.385   3.417   4.787
   10CHOL    C6  294   4.366   3.395   4.932
   10CHOL    H9  295   4.343   3.291   4.961
   10CHOL    C5  296   4.380   3.491   0.025
   10CHOL    C4  297   4.356   3.457   0.168
   10CHOL    C1  298   4.268   3.563   0.236
   10CHOL    H2  299   4.164   3.560   0.192
   10CHOL   O28  300   4.261   3.536   0.377
   10CHOL   H74  301   4.230   3.444   0.392
   10CHOL    C2  302   4.328   3.703   0.217
   10CHOL    C3  303   4.345   3.736   0.068
   10CHOL   C26  304   4.431   3.633   4.992
   10CHOL   C27  305   4.577   3.642   0.039
   10CHOL   C25  306   4.419   3.659   4.837
   10CHOL   C24  307   4.485   3.790   4.793
   10CHOL   C23  308   4.475   3.811   4.642
   10CHOL   C21  309   4.543   3.698   4.562
   10CHOL   C22  310   4.694   3.708   4.582
   11CHOL   C19  311   2.916   2.085   0.017
   11CHOL   C17  312   2.860   2.086   0.158
   11CHOL   C18  313   2.766   2.203   0.173
   11CHOL   C16  314   2.976   2.094   0.257
   11CHOL   C15  315   2.938   2.074   0.403
   11CHOL   C14  316   2.888   1.934   0.432
   11CHOL   C13  317   2.905   1.900   0.581
   11CHOL   C20  318   2.775   1.933   0.650
   11CHOL   C12  319   2.952   1.755   0.608
   11CHOL   C11  320   3.069   1.718   0.513
   11CHOL   C10  321   3.176   1.640   0.588
   11CHOL    C9  322   3.097   1.590   0.707
   11CHOL    C8  323   3.164   1.515   0.823
   11CHOL    C7  324   3.236   1.392   0.767
   11CHOL    C6  325   3.280   1.296   0.871
   11CHOL    H9  326   3.363   1.230   0.843
   11CHOL    C5  327   3.224   1.289   0.993
   11CHOL    C4  328   3.265   1.179   1.085
   11CHOL    C1  329   3.139   1.105   1.134
   11CHOL    H2  330   3.084   1.064   1.045
   11CHOL   O28  331   3.172   0.997   1.222
   11CHOL   H74  332   3.232   0.933   1.174
   11CHOL    C2  333   3.047   1.202   1.206
   11CHOL    C3  334   3.004   1.313   1.111
   11CHOL   C26  335   3.121   1.390   1.045
   11CHOL   C27  336   3.189   1.479   1.151
   11CHOL   C25  337   3.058   1.472   0.927
   11CHOL   C24  338   2.978   1.594   0.975
   11CHOL   C23  339   2.913   1.669   0.859
   11CHOL   C21  340   3.011   1.715   0.751
   11CHOL   C22  341   3.096   1.830   0.805
   12CHOL   C19  342   2.229   4.229   4.200
   12CHOL   C17  343   2.094   4.183   4.147
   12CHOL   C18  344   2.031   4.089   4.248
   12CHOL   C16  345   2.112   4.115   4.013
   12CHOL   C15  346   1.981   4.094   3.939
   12CHOL   C14  347   1.932   4.221   3.871
   12CHOL   C13  348   1.806   4.192   3.789
   12CHOL   C20  349   1.694   4.270   3.856
   12CHOL   C12  350   1.820   4.225   3.639
   12CHOL   C11  351   1.947   4.158   3.580
   12CHOL   C10  352   1.923   4.122   3.434
   12CHOL    C9  353   1.795   4.195   3.402
   12CHOL    C8  354   1.718   4.177   3.270
   12CHOL    C7  355   1.813   4.212   3.155
   12CHOL    C6  356   1.744   4.238   3.026
   12CHOL    H9  357   1.811   4.244   2.939
   12CHOL    C5  358   1.613   4.268   3.014
   12CHOL    C4  359   1.556   4.299   2.880
   12CHOL    C1  360   1.468   4.426   2.882
   12CHOL    H2  361   1.534   4.517   2.893
   12CHOL   O28  362   1.395   4.436   2.759
   12CHOL   H74  363   1.457   4.452   2.684
   12CHOL    C2  364   1.366   4.422   2.994
   12CHOL    C3  365   1.432   4.395   3.129
   12CHOL   C26  366   1.517   4.267   3.134
   12CHOL   C27  367   1.428   4.142   3.124
   12CHOL   C25  368   1.596   4.272   3.269
   12CHOL   C24  369   1.506   4.246   3.391
   12CHOL   C23  370   1.583   4.269   3.520
   12CHOL   C21  371   1.707   4.180   3.535
   12CHOL   C22  372   1.662   4.036   3.562
   13CHOL   C19  373   1.989   0.336   3.047
   13CHOL   C17  374   2.040   0.475   3.014
   13CHOL   C18  375   2.150   0.464   2.910
   13CHOL   C16  376   2.084   0.544   3.142
   13CHOL   C15  377   2.130   0.687   3.118
   13CHOL   C14  378   2.127   0.770   3.245
   13CHOL   C13  379   2.175   0.914   3.219
   13CHOL   C20  380   2.062   0.990   3.152
   13CHOL   C12  381   2.227   0.984   3.347
   13CHOL   C11  382   2.332   0.893   3.415
   13CHOL   C10  383   2.441   0.979   3.479
   13CHOL    C9  384   2.377   1.116   3.478
   13CHOL    C8  385   2.462   1.239   3.512
   13CHOL    C7  386   2.518   1.231   3.655
   13CHOL    C6  387   2.594   1.353   3.691
   13CHOL    H9  388   2.667   1.340   3.772
   13CHOL    C5  389   2.580   1.472   3.629
   13CHOL    C4  390   2.665   1.587   3.675
   13CHOL    C1  391   2.588   1.720   3.676
   13CHOL    H2  392   2.509   1.716   3.758
   13CHOL   O28  393   2.678   1.828   3.703
   13CHOL   H74  394   2.743   1.837   3.631
   13CHOL    C2  395   2.518   1.743   3.542
   13CHOL    C3  396   2.421   1.627   3.513
   13CHOL   C26  397   2.492   1.491   3.505
   13CHOL   C27  398   2.582   1.489   3.381
   13CHOL   C25  399   2.387   1.374   3.494
   13CHOL   C24  400   2.309   1.377   3.361
   13CHOL   C23  401   2.223   1.253   3.338
   13CHOL   C21  402   2.303   1.123   3.338
   13CHOL   C22  403   2.398   1.123   3.216
   14CHOL   C19  404   3.536   2.351   3.084
   14CHOL   C17  405   3.477   2.479   3.137
   14CHOL   C18  406   3.348   2.511   3.065
   14CHOL   C16  407   3.578   2.592   3.123
   14CHOL   C15  408   3.543   2.718   3.201
   14CHOL   C14  409   3.556   2.700   3.351
   14CHOL   C13  410   3.546   2.836   3.421
   14CHOL   C20  411   3.401   2.859   3.458
   14CHOL   C12  412   3.638   2.856   3.543
   14CHOL   C11  413   3.780   2.807   3.509
   14CHOL   C10  414   3.881   2.908   3.561
   14CHOL    C9  415   3.803   2.984   3.665
   14CHOL    C8  416   3.860   3.112   3.726
   14CHOL    C7  417   3.992   3.082   3.798
   14CHOL    C6  418   4.044   3.203   3.868
   14CHOL    H9  419   4.148   3.196   3.903
   14CHOL    C5  420   3.968   3.310   3.899
   14CHOL    C4  421   4.030   3.424   3.971
   14CHOL    C1  422   3.949   3.452   4.098
   14CHOL    H2  423   3.950   3.358   4.160
   14CHOL   O28  424   4.008   3.557   4.174
   14CHOL   H74  425   4.098   3.530   4.205
   14CHOL    C2  426   3.805   3.489   4.061
   14CHOL    C3  427   3.739   3.371   3.988
   14CHOL   C26  428   3.818   3.322   3.864
   14CHOL   C27  429   3.804   3.424   3.750
   14CHOL   C25  430   3.762   3.180   3.825
   14CHOL   C24  431   3.620   3.191   3.767
   14CHOL   C23  432   3.571   3.059   3.707
   14CHOL   C21  433   3.662   3.004   3.598
   14CHOL   C22  434   3.669   3.103   3.482
   15CHOL   C19  435   3.821   4.828   1.377
   15CHOL   C17  436   3.842   4.697   1.302
   15CHOL   C18  437   3.814   4.579   1.395
   15CHOL   C16  438   3.984   4.692   1.251
   15CHOL   C15  439   4.008   4.574   1.159
   15CHOL   C14  440   3.977   4.606   1.014
   15CHOL   C13  441   4.035   4.500   0.921
   15CHOL   C20  442   3.918   4.436   0.846
   15CHOL   C12  443   4.146   4.558   0.830
   15CHOL   C11  444   4.264   4.607   0.918
   15CHOL   C10  445   4.394   4.594   0.840
   15CHOL    C9  446   4.341   4.575   0.699
   15CHOL    C8  447   4.435   4.545   0.582
   15CHOL    C7  448   4.531   4.664   0.567
   15CHOL    C6  449   4.604   4.665   0.438
   15CHOL    H9  450   4.683   4.742   0.432
   15CHOL    C5  451   4.569   4.593   0.330
   15CHOL    C4  452   4.652   4.602   0.206
   15CHOL    C1  453   4.566   4.614   0.079
   15CHOL    H2  454   4.519   4.717   0.076
   15CHOL   O28  455   4.647   4.596   4.963
   15CHOL   H74  456   4.706   4.517   4.973
   15CHOL    C2  457   4.456   4.507   0.074
   15CHOL    C3  458   4.370   4.513   0.200
   15CHOL   C26  459   4.451   4.495   0.330
   15CHOL   C27  460   4.508   4.352   0.333
   15CHOL   C25  461   4.355   4.524   0.451
   15CHOL   C24  462   4.247   4.418   0.469
   15CHOL   C23  463   4.151   4.457   0.581
   15CHOL   C21  464   4.220   4.474   0.717
   15CHOL   C22  465   4.263   4.336   0.770
   16CHOL   C19  466   4.492   3.104   2.950
   16CHOL   C17  467   4.556   3.221   3.023
   16CHOL   C18  468   4.618   3.318   2.924
   16CHOL   C16  469   4.657   3.168   3.123
   16CHOL   C15  470   4.698   3.271   3.228
   16CHOL   C14  471   4.579   3.312   3.314
   16CHOL   C13  472   4.619   3.326   3.461
   16CHOL   C20  473   4.604   3.472   3.497
   16CHOL   C12  474   4.540   3.235   3.557
   16CHOL   C11  475   4.524   3.095   3.494
   16CHOL   C10  476   4.552   2.987   3.597
   16CHOL    C9  477   4.526   3.064   3.724
   16CHOL    C8  478   4.563   2.997   3.856
   16CHOL    C7  479   4.483   2.868   3.872
   16CHOL    C6  480   4.520   2.800   3.998
   16CHOL    H9  481   4.534   2.691   3.990
   16CHOL    C5  482   4.560   2.865   4.108
   16CHOL    C4  483   4.583   2.785   4.231
   16CHOL    C1  484   4.541   2.864   4.355
   16CHOL    H2  485   4.429   2.877   4.354
   16CHOL   O28  486   4.578   2.787   4.470
   16CHOL   H74  487   4.558   2.837   4.552
   16CHOL    C2  488   4.609   3.001   4.358
   16CHOL    C3  489   4.566   3.083   4.235
   16CHOL   C26  490   4.607   3.013   4.104
   16CHOL   C27  491   4.760   3.011   4.095
   16CHOL   C25  492   4.543   3.087   3.980
   16CHOL   C24  493   4.603   3.227   3.957
   16CHOL   C23  494   4.563   3.289   3.823
   16CHOL   C21  495   4.599   3.202   3.702
   16CHOL   C22  496   4.751   3.188   3.693
   17CHOL   C19  497   0.692   0.334   4.992
   17CHOL   C17  498   0.803   0.407   0.065
   17CHOL   C18  499   0.935   0.358   0.009
   17CHOL   C16  500   0.790   0.380   0.214
   17CHOL   C15  501   0.888   0.454   0.305
   17CHOL   C14  502   0.860   0.603   0.315
   17CHOL   C13  503   0.921   0.661   0.444
   17CHOL   C20  504   1.053   0.725   0.407
   17CHOL   C12  505   0.826   0.759   0.517
   17CHOL   C11  506   0.687   0.692   0.533
   17CHOL   C10  507   0.633   0.715   0.673
   17CHOL    C9  508   0.710   0.838   0.715
   17CHOL    C8  509   0.701   0.890   0.858
   17CHOL    C7  510   0.555   0.925   0.891
   17CHOL    C6  511   0.542   0.989   1.024
   17CHOL    H9  512   0.440   0.991   1.065
   17CHOL    C5  513   0.644   1.048   1.089
   17CHOL    C4  514   0.619   1.110   1.222
   17CHOL    C1  515   0.677   1.253   1.228
   17CHOL    H2  516   0.618   1.319   1.158
   17CHOL   O28  517   0.667   1.304   1.361
   17CHOL   H74  518   0.641   1.399   1.358
   17CHOL    C2  519   0.823   1.256   1.185
   17CHOL    C3  520   0.838   1.198   1.045
   17CHOL   C26  521   0.787   1.054   1.032
   17CHOL   C27  522   0.876   0.959   1.116
   17CHOL   C25  523   0.789   1.015   0.880
   17CHOL   C24  524   0.932   0.995   0.826
   17CHOL   C23  525   0.934   0.942   0.682
   17CHOL   C21  526   0.858   0.810   0.664
   17CHOL   C22  527   0.928   0.700   0.744
   18CHOL   C19  528   4.361   1.482   3.513
   18CHOL   C17  529   4.397   1.458   3.658
   18CHOL   C18  530   4.272   1.429   3.738
   18CHOL   C16  531   4.474   1.578   3.710
   18CHOL   C15  532   4.531   1.552   3.848
   18CHOL   C14  533   4.663   1.475   3.846
   18CHOL   C13  534   4.702   1.439   3.990
   18CHOL   C20  535   4.744   1.294   3.994
   18CHOL   C12  536   4.804   1.528   4.064
   18CHOL   C11  537   4.837   1.661   3.989
   18CHOL   C10  538   4.849   1.775   4.090
   18CHOL    C9  539   4.867   1.699   4.220
   18CHOL    C8  540   4.869   1.772   4.355
   18CHOL    C7  541   4.990   1.866   4.362
   18CHOL    C6  542   0.016   1.918   4.500
   18CHOL    H9  543   0.089   2.000   4.503
   18CHOL    C5  544   4.962   1.867   4.612
   18CHOL    C4  545   4.997   1.930   4.743
   18CHOL    C1  546   0.004   1.827   4.857
   18CHOL    H2  547   0.090   1.757   4.839
   18CHOL   O28  548   0.024   1.894   4.982
   18CHOL   H74  549   0.121   1.889   0.004
   18CHOL    C2  550   4.878   1.743   4.863
   18CHOL    C3  551   4.865   1.666   4.731
   18CHOL   C26  552   4.852   1.760   4.609
   18CHOL   C27  553   4.718   1.833   4.618
   18CHOL   C25  554   4.869   1.677   4.476
   18CHOL   C24  555   4.765   1.566   4.462
   18CHOL   C23  556   4.783   1.489   4.330
   18CHOL   C21  557   4.764   1.579   4.208
   18CHOL   C22  558   4.616   1.616   4.205
   19CHOL   C19  559   4.731   1.179   4.846
   19CHOL   C17  560   4.644   1.259   4.941
   19CHOL   C18  561   4.643   1.405   4.899
   19CHOL   C16  562   4.692   1.237   0.083
   19CHOL   C15  563   4.591   1.291   0.183
   19CHOL   C14  564   4.631   1.258   0.326
   19CHOL   C13  565   4.523   1.306   0.423
   19CHOL   C20  566   4.453   1.182   0.476
   19CHOL   C12  567   4.582   1.394   0.535
   19CHOL   C11  568   4.649   1.516   0.470
   19CHOL   C10  569   4.647   1.632   0.569
   19CHOL    C9  570   4.605   1.563   0.698
   19CHOL    C8  571   4.568   1.645   0.821
   19CHOL    C7  572   4.688   1.732   0.855
   19CHOL    C6  573   4.673   1.800   0.985
   19CHOL    H9  574   4.727   1.895   0.993
   19CHOL    C5  575   4.596   1.754   1.085
   19CHOL    C4  576   4.602   1.824   1.216
   19CHOL    C1  577   4.634   1.720   1.325
   19CHOL    H2  578   4.735   1.674   1.302
   19CHOL   O28  579   4.639   1.781   1.454
   19CHOL   H74  580   4.682   1.870   1.451
   19CHOL    C2  581   4.527   1.610   1.326
   19CHOL    C3  582   4.521   1.539   1.191
   19CHOL   C26  583   4.501   1.634   1.070
   19CHOL   C27  584   4.356   1.687   1.071
   19CHOL   C25  585   4.534   1.552   0.940
   19CHOL   C24  586   4.422   1.455   0.899
   19CHOL   C23  587   4.460   1.374   0.775
   19CHOL   C21  588   4.495   1.459   0.652
   19CHOL   C22  589   4.369   1.529   0.597
   20CHOL   C19  590   1.973   4.003   2.276
   20CHOL   C17  591   1.929   3.872   2.338
   20CHOL   C18  592   1.856   3.791   2.233
   20CHOL   C16  593   1.841   3.899   2.459
   20CHOL   C15  594   1.835   3.782   2.557
   20CHOL   C14  595   1.960   3.772   2.643
   20CHOL   C13  596   1.952   3.656   2.743
   20CHOL   C20  597   2.059   3.556   2.700
   20CHOL   C12  598   1.967   3.703   2.890
   20CHOL   C11  599   1.850   3.798   2.925
   20CHOL   C10  600   1.818   3.791   3.074
   20CHOL    C9  601   1.934   3.710   3.127
   20CHOL    C8  602   1.931   3.652   3.269
   20CHOL    C7  603   1.918   3.764   3.373
   20CHOL    C6  604   1.935   3.716   3.513
   20CHOL    H9  605   1.885   3.776   3.591
   20CHOL    C5  606   2.000   3.602   3.546
   20CHOL    C4  607   2.018   3.569   3.691
   20CHOL    C1  608   2.150   3.496   3.720
   20CHOL    H2  609   2.237   3.568   3.709
   20CHOL   O28  610   2.149   3.444   3.853
   20CHOL   H74  611   2.171   3.516   3.917
   20CHOL    C2  612   2.170   3.378   3.626
   20CHOL    C3  613   2.169   3.428   3.481
   20CHOL   C26  614   2.037   3.496   3.441
   20CHOL   C27  615   1.927   3.390   3.438
   20CHOL   C25  616   2.055   3.566   3.302
   20CHOL   C24  617   2.085   3.466   3.190
   20CHOL   C23  618   2.094   3.532   3.053
   20CHOL   C21  619   1.964   3.603   3.013
   20CHOL   C22  620   1.852   3.499   2.995
   21CHOL   C19  621   0.815   1.664   3.031
   21CHOL   C17  622   0.816   1.813   3.055
   21CHOL   C18  623   0.820   1.888   2.923
   21CHOL   C16  624   0.933   1.851   3.141
   21CHOL   C15  625   0.921   1.995   3.186
   21CHOL   C14  626   0.862   2.008   3.325
   21CHOL   C13  627   0.886   2.152   3.371
   21CHOL   C20  628   0.754   2.210   3.417
   21CHOL   C12  629   0.996   2.174   3.476
   21CHOL   C11  630   1.107   2.065   3.472
   21CHOL   C10  631   1.243   2.129   3.497
   21CHOL    C9  632   1.202   2.263   3.556
   21CHOL    C8  633   1.307   2.371   3.584
   21CHOL    C7  634   1.403   2.322   3.693
   21CHOL    C6  635   1.490   2.430   3.748
   21CHOL    H9  636   1.579   2.395   3.801
   21CHOL    C5  637   1.467   2.561   3.730
   21CHOL    C4  638   1.558   2.660   3.794
   21CHOL    C1  639   1.479   2.778   3.853
   21CHOL    H2  640   1.415   2.739   3.938
   21CHOL   O28  641   1.567   2.878   3.904
   21CHOL   H74  642   1.622   2.841   3.976
   21CHOL    C2  643   1.391   2.842   3.747
   21CHOL    C3  644   1.291   2.741   3.695
   21CHOL   C26  645   1.355   2.614   3.638
   21CHOL   C27  646   1.416   2.648   3.501
   21CHOL   C25  647   1.244   2.505   3.627
   21CHOL   C24  648   1.127   2.547   3.538
   21CHOL   C23  649   1.022   2.436   3.529
   21CHOL   C21  650   1.079   2.309   3.467
   21CHOL   C22  651   1.114   2.339   3.321
   22CHOL   C19  652   1.698   3.103   4.924
   22CHOL   C17  653   1.569   3.172   4.965
   22CHOL   C18  654   1.573   3.204   0.113
   22CHOL   C16  655   1.452   3.083   4.930
   22CHOL   C15  656   1.319   3.152   4.955
   22CHOL   C14  657   1.208   3.069   4.895
   22CHOL   C13  658   1.069   3.126   4.926
   22CHOL   C20  659   1.029   3.218   4.812
   22CHOL   C12  660   0.968   3.013   4.952
   22CHOL   C11  661   1.025   2.914   0.056
   22CHOL   C10  662   0.911   2.836   0.119
   22CHOL    C9  663   0.792   2.888   0.041
   22CHOL    C8  664   0.650   2.860   0.090
   22CHOL    C7  665   0.626   2.709   0.085
   22CHOL    C6  666   0.483   2.671   0.105
   22CHOL    H9  667   0.465   2.566   0.133
   22CHOL    C5  668   0.381   2.757   0.091
   22CHOL    C4  669   0.241   2.705   0.103
   22CHOL    C1  670   0.156   2.761   4.987
   22CHOL    H2  671   0.202   2.726   4.889
   22CHOL   O28  672   0.019   2.720   4.992
   22CHOL   H74  673   0.011   2.627   0.026
   22CHOL    C2  674   0.157   2.913   4.992
   22CHOL    C3  675   0.299   2.965   4.970
   22CHOL   C26  676   0.403   2.908   0.069
   22CHOL   C27  677   0.391   2.979   0.204
   22CHOL   C25  678   0.543   2.930   0.004
   22CHOL   C24  679   0.576   3.078   4.980
   22CHOL   C23  680   0.715   3.096   4.920
   22CHOL   C21  681   0.825   3.041   0.012
   22CHOL   C22  682   0.836   3.132   0.135
   23CHOL   C19  683   1.924   4.933   3.826
   23CHOL   C17  684   2.044   4.866   3.890
   23CHOL   C18  685   1.997   4.782   4.008
   23CHOL   C16  686   2.146   4.971   3.931
   23CHOL   C15  687   2.277   4.909   3.976
   23CHOL   C14  688   2.360   4.854   3.861
   23CHOL   C13  689   2.474   4.768   3.917
   23CHOL   C20  690   2.464   4.632   3.851
   23CHOL   C12  691   2.617   4.823   3.906
   23CHOL   C11  692   2.625   4.975   3.881
   23CHOL   C10  693   2.758   0.027   3.935
   23CHOL    C9  694   2.829   4.899   3.976
   23CHOL    C8  695   2.954   4.902   4.063
   23CHOL    C7  696   3.062   4.985   3.991
   23CHOL    C6  697   3.195   4.973   4.056
   23CHOL    H9  698   3.265   0.055   4.033
   23CHOL    C5  699   3.231   4.871   4.136
   23CHOL    C4  700   3.370   4.867   4.189
   23CHOL    C1  701   3.431   4.728   4.162
   23CHOL    H2  702   3.445   4.715   4.051
   23CHOL   O28  703   3.557   4.716   4.227
   23CHOL   H74  704   3.619   4.784   4.195
   23CHOL    C2  705   3.343   4.616   4.216
   23CHOL    C3  706   3.202   4.622   4.157
   23CHOL   C26  707   3.134   4.759   4.179
   23CHOL   C27  708   3.103   4.775   4.329
   23CHOL   C25  709   3.005   4.759   4.090
   23CHOL   C24  710   2.894   4.670   4.148
   23CHOL   C23  711   2.771   4.666   4.058
   23CHOL   C21  712   2.713   4.805   4.030
   23CHOL   C22  713   2.646   4.855   4.159
   24CHOL   C19  714   3.342   2.011   2.555
   24CHOL   C17  715   3.420   1.923   2.459
   24CHOL   C18  716   3.503   2.014   2.369
   24CHOL   C16  717   3.322   1.837   2.380
   24CHOL   C15  718   3.390   1.740   2.286
   24CHOL   C14  719   3.290   1.678   2.191
   24CHOL   C13  720   3.364   1.593   2.088
   24CHOL   C20  721   3.322   1.448   2.107
   24CHOL   C12  722   3.348   1.635   1.940
   24CHOL   C11  723   3.324   1.787   1.919
   24CHOL   C10  724   3.375   1.828   1.781
   24CHOL    C9  725   3.412   1.693   1.721
   24CHOL    C8  726   3.489   1.680   1.590
   24CHOL    C7  727   3.405   1.742   1.478
   24CHOL    C6  728   3.458   1.713   1.342
   24CHOL    H9  729   3.432   1.788   1.266
   24CHOL    C5  730   3.538   1.609   1.314
   24CHOL    C4  731   3.579   1.586   1.172
   24CHOL    C1  732   3.571   1.437   1.135
   24CHOL    H2  733   3.463   1.405   1.133
   24CHOL   O28  734   3.628   1.420   1.005
   24CHOL   H74  735   3.608   1.331   0.968
   24CHOL    C2  736   3.649   1.351   1.235
   24CHOL    C3  737   3.596   1.372   1.376
   24CHOL   C26  738   3.601   1.519   1.422
   24CHOL   C27  739   3.747   1.562   1.439
   24CHOL   C25  740   3.520   1.532   1.556
   24CHOL   C24  741   3.589   1.462   1.673
   24CHOL   C23  742   3.501   1.468   1.798
   24CHOL   C21  743   3.470   1.611   1.844
   24CHOL   C22  744   3.597   1.669   1.907
   25CHOL   C19  745   2.333   2.264   0.340
   25CHOL   C17  746   2.380   2.121   0.325
   25CHOL   C18  747   2.504   2.099   0.409
   25CHOL   C16  748   2.402   2.089   0.178
   25CHOL   C15  749   2.430   1.942   0.157
   25CHOL   C14  750   2.449   1.909   0.010
   25CHOL   C13  751   2.474   1.759   4.995
   25CHOL   C20  752   2.338   1.693   4.986
   25CHOL   C12  753   2.561   1.719   4.875
   25CHOL   C11  754   2.689   1.806   4.872
   25CHOL   C10  755   2.797   1.729   4.796
   25CHOL    C9  756   2.722   1.607   4.746
   25CHOL    C8  757   2.798   1.487   4.691
   25CHOL    C7  758   2.879   1.532   4.569
   25CHOL    C6  759   2.948   1.419   4.504
   25CHOL    H9  760   3.047   1.443   4.463
   25CHOL    C5  761   2.906   1.292   4.511
   25CHOL    C4  762   2.979   1.188   4.434
   25CHOL    C1  763   2.880   1.102   4.356
   25CHOL    H2  764   2.825   1.166   4.280
   25CHOL   O28  765   2.951   0.999   4.287
   25CHOL   H74  766   2.987   1.033   4.202
   25CHOL    C2  767   2.778   1.039   4.451
   25CHOL    C3  768   2.701   1.148   4.527
   25CHOL   C26  769   2.792   1.246   4.604
   25CHOL   C27  770   2.857   1.173   4.723
   25CHOL   C25  771   2.706   1.370   4.650
   25CHOL   C24  772   2.608   1.336   4.762
   25CHOL   C23  773   2.530   1.458   4.811
   25CHOL   C21  774   2.619   1.572   4.861
   25CHOL   C22  775   2.685   1.526   4.992
   26CHOL   C19  776   3.360   4.484   1.604
   26CHOL   C17  777   3.422   4.549   1.482
   26CHOL   C18  778   3.497   4.672   1.528
   26CHOL   C16  779   3.313   4.586   1.383
   26CHOL   C15  780   3.365   4.643   1.252
   26CHOL   C14  781   3.420   4.537   1.158
   26CHOL   C13  782   3.446   4.600   1.020
   26CHOL   C20  783   3.592   4.579   0.985
   26CHOL   C12  784   3.354   4.555   0.904
   26CHOL   C11  785   3.225   4.484   0.953
   26CHOL   C10  786   3.106   4.531   0.871
   26CHOL    C9  787   3.175   4.591   0.749
   26CHOL    C8  788   3.095   4.673   0.649
   26CHOL    C7  789   2.980   4.590   0.593
   26CHOL    C6  790   2.901   4.665   0.493
   26CHOL    H9  791   2.797   4.632   0.482
   26CHOL    C5  792   2.951   4.768   0.423
   26CHOL    C4  793   2.864   4.830   0.318
   26CHOL    C1  794   2.941   4.828   0.186
   26CHOL    H2  795   2.965   4.722   0.161
   26CHOL   O28  796   2.861   4.883   0.080
   26CHOL   H74  797   2.775   4.836   0.075
   26CHOL    C2  798   3.072   4.906   0.200
   26CHOL    C3  799   3.161   4.840   0.307
   26CHOL   C26  800   3.093   4.825   0.444
   26CHOL   C27  801   3.081   4.964   0.509
   26CHOL   C25  802   3.181   4.728   0.532
   26CHOL   C24  803   3.308   4.796   0.585
   26CHOL   C23  804   3.385   4.713   0.689
   26CHOL   C21  805   3.299   4.668   0.808
   26CHOL   C22  806   3.258   4.792   0.888
   27CHOL   C19  807   2.526   3.837   0.666
   27CHOL   C17  808   2.532   3.790   0.523
   27CHOL   C18  809   2.482   3.647   0.510
   27CHOL   C16  810   2.675   3.804   0.475
   27CHOL   C15  811   2.678   3.838   0.328
   27CHOL   C14  812   2.650   3.985   0.301
   27CHOL   C13  813   2.593   4.002   0.159
   27CHOL   C20  814   2.461   4.075   0.176
   27CHOL   C12  815   2.684   4.069   0.055
   27CHOL   C11  816   2.829   4.021   0.071
   27CHOL   C10  817   2.898   4.012   4.936
   27CHOL    C9  818   2.801   4.086   4.848
   27CHOL    C8  819   2.819   4.083   4.696
   27CHOL    C7  820   2.956   4.143   4.661
   27CHOL    C6  821   2.975   4.157   4.515
   27CHOL    H9  822   3.079   4.160   4.482
   27CHOL    C5  823   2.874   4.165   4.427
   27CHOL    C4  824   2.906   4.188   4.283
   27CHOL    C1  825   2.826   4.309   4.231
   27CHOL    H2  826   2.859   4.402   4.286
   27CHOL   O28  827   2.847   4.327   4.091
   27CHOL   H74  828   2.942   4.332   4.069
   27CHOL    C2  829   2.676   4.288   4.255
   27CHOL    C3  830   2.647   4.268   4.404
   27CHOL   C26  831   2.725   4.151   4.467
   27CHOL   C27  832   2.671   4.019   4.410
   27CHOL   C25  833   2.708   4.161   4.623
   27CHOL   C24  834   2.570   4.116   4.672
   27CHOL   C23  835   2.555   4.126   4.824
   27CHOL   C21  836   2.658   4.042   4.900
   27CHOL   C22  837   2.626   3.893   4.879
   28CHOL   C19  838   2.460   1.921   4.349
   28CHOL   C17  839   2.556   1.996   4.439
   28CHOL   C18  840   2.511   1.976   4.582
   28CHOL   C16  841   2.554   2.143   4.406
   28CHOL   C15  842   2.645   2.175   4.289
   28CHOL   C14  843   2.566   2.246   4.180
   28CHOL   C13  844   2.658   2.326   4.088
   28CHOL   C20  845   2.674   2.246   3.959
   28CHOL   C12  846   2.613   2.471   4.062
   28CHOL   C11  847   2.547   2.533   4.188
   28CHOL   C10  848   2.581   2.682   4.197
   28CHOL    C9  849   2.639   2.708   4.059
   28CHOL    C8  850   2.709   2.841   4.029
   28CHOL    C7  851   2.607   2.955   4.039
   28CHOL    C6  852   2.661   3.084   3.990
   28CHOL    H9  853   2.591   3.168   4.000
   28CHOL    C5  854   2.773   3.097   3.918
   28CHOL    C4  855   2.819   3.234   3.881
   28CHOL    C1  856   2.854   3.243   3.731
   28CHOL    H2  857   2.759   3.235   3.670
   28CHOL   O28  858   2.916   3.369   3.705
   28CHOL   H74  859   2.854   3.442   3.726
   28CHOL    C2  860   2.951   3.133   3.691
   28CHOL    C3  861   2.894   2.995   3.725
   28CHOL   C26  862   2.857   2.977   3.874
   28CHOL   C27  863   2.984   2.975   3.960
   28CHOL   C25  864   2.774   2.845   3.888
   28CHOL   C24  865   2.855   2.719   3.857
   28CHOL   C23  866   2.771   2.593   3.880
   28CHOL   C21  867   2.724   2.579   4.025
   28CHOL   C22  868   2.847   2.562   4.115
   29CHOL   C19  869   2.786   0.799   0.384
   29CHOL   C17  870   2.769   0.691   0.279
   29CHOL   C18  871   2.649   0.604   0.314
   29CHOL   C16  872   2.900   0.613   0.272
   29CHOL   C15  873   2.905   0.504   0.166
   29CHOL   C14  874   2.903   0.560   0.025
   29CHOL   C13  875   2.934   0.454   4.919
   29CHOL   C20  876   2.800   0.406   4.865
   29CHOL   C12  877   3.031   0.507   4.811
   29CHOL   C11  878   3.162   0.553   4.879
   29CHOL   C10  879   3.277   0.541   4.780
   29CHOL    C9  880   3.205   0.513   4.650
   29CHOL    C8  881   3.279   0.473   4.522
   29CHOL    C7  882   3.382   0.582   4.489
   29CHOL    C6  883   3.436   0.572   4.351
   29CHOL    H9  884   3.528   0.631   4.333
   29CHOL    C5  885   3.375   0.506   4.251
   29CHOL    C4  886   3.436   0.510   4.115
   29CHOL    C1  887   3.330   0.552   4.012
   29CHOL    H2  888   3.294   0.656   4.036
   29CHOL   O28  889   3.389   0.553   3.881
   29CHOL   H74  890   3.407   0.462   3.848
   29CHOL    C2  891   3.211   0.455   4.016
   29CHOL    C3  892   3.148   0.457   4.156
   29CHOL   C26  893   3.247   0.422   4.269
   29CHOL   C27  894   3.284   0.274   4.256
   29CHOL   C25  895   3.179   0.458   4.405
   29CHOL   C24  896   3.069   0.358   4.442
   29CHOL   C23  897   2.995   0.400   4.569
   29CHOL   C21  898   3.085   0.418   4.692
   29CHOL   C22  899   3.127   0.279   4.743
   30CHOL   C19  900   0.491   3.196   0.679
   30CHOL   C17  901   0.579   3.249   0.790
   30CHOL   C18  902   0.612   3.394   0.763
   30CHOL   C16  903   0.704   3.163   0.801
   30CHOL   C15  904   0.763   3.159   0.941
   30CHOL   C14  905   0.680   3.072   1.034
   30CHOL   C13  906   0.734   3.077   1.178
   30CHOL   C20  907   0.633   3.155   1.260
   30CHOL   C12  908   0.765   2.942   1.247
   30CHOL   C11  909   0.761   2.820   1.153
   30CHOL   C10  910   0.850   2.710   1.210
   30CHOL    C9  911   0.891   2.767   1.345
   30CHOL    C8  912   1.007   2.706   1.424
   30CHOL    C7  913   0.980   2.559   1.459
   30CHOL    C6  914   1.089   2.500   1.541
   30CHOL    H9  915   1.096   2.390   1.537
   30CHOL    C5  916   1.174   2.573   1.615
   30CHOL    C4  917   1.281   2.503   1.693
   30CHOL    C1  918   1.302   2.565   1.832
   30CHOL    H2  919   1.213   2.538   1.898
   30CHOL   O28  920   1.421   2.510   1.889
   30CHOL   H74  921   1.500   2.530   1.833
   30CHOL    C2  922   1.315   2.717   1.826
   30CHOL    C3  923   1.193   2.779   1.757
   30CHOL   C26  924   1.175   2.727   1.613
   30CHOL   C27  925   1.293   2.774   1.527
   30CHOL   C25  926   1.039   2.782   1.555
   30CHOL   C24  927   1.043   2.934   1.533
   30CHOL   C23  928   0.921   2.988   1.458
   30CHOL   C21  929   0.902   2.923   1.321
   30CHOL   C22  930   1.019   2.966   1.231
   31CHOL   C19  931   1.758   1.684   1.855
   31CHOL   C17  932   1.745   1.556   1.936
   31CHOL   C18  933   1.874   1.478   1.929
   31CHOL   C16  934   1.629   1.475   1.884
   31CHOL   C15  935   1.558   1.400   1.993
   31CHOL   C14  936   1.420   1.360   1.945
   31CHOL   C13  937   1.335   1.306   2.059
   31CHOL   C20  938   1.237   1.414   2.100
   31CHOL   C12  939   1.264   1.171   2.031
   31CHOL   C11  940   1.362   1.077   1.957
   31CHOL   C10  941   1.373   0.947   2.035
   31CHOL    C9  942   1.236   0.939   2.096
   31CHOL    C8  943   1.199   0.827   2.194
   31CHOL    C7  944   1.222   0.691   2.129
   31CHOL    C6  945   1.177   0.578   2.214
   31CHOL    H9  946   1.227   0.482   2.198
   31CHOL    C5  947   1.082   0.592   2.309
   31CHOL    C4  948   1.042   0.472   2.389
   31CHOL    C1  949   0.889   0.463   2.408
   31CHOL    H2  950   0.841   0.424   2.313
   31CHOL   O28  951   0.861   0.374   2.516
   31CHOL   H74  952   0.826   0.287   2.483
   31CHOL    C2  953   0.827   0.598   2.447
   31CHOL    C3  954   0.868   0.711   2.353
   31CHOL   C26  955   1.021   0.728   2.347
   31CHOL   C27  956   1.077   0.766   2.485
   31CHOL   C25  957   1.052   0.838   2.239
   31CHOL   C24  958   1.022   0.980   2.290
   31CHOL   C23  959   1.066   1.090   2.193
   31CHOL   C21  960   1.214   1.084   2.155
   31CHOL   C22  961   1.301   1.110   2.279
   32CHOL   C19  962   1.499   3.600   1.047
   32CHOL   C17  963   1.581   3.558   0.927
   32CHOL   C18  964   1.579   3.666   0.820
   32CHOL   C16  965   1.525   3.426   0.878
   32CHOL   C15  966   1.617   3.349   0.786
   32CHOL   C14  967   1.541   3.223   0.748
   32CHOL   C13  968   1.618   3.110   0.678
   32CHOL   C20  969   1.737   3.073   0.766
   32CHOL   C12  970   1.532   2.984   0.655
   32CHOL   C11  971   1.406   2.973   0.744
   32CHOL   C10  972   1.296   2.903   0.665
   32CHOL    C9  973   1.375   2.836   0.555
   32CHOL    C8  974   1.306   2.767   0.436
   32CHOL    C7  975   1.209   2.661   0.488
   32CHOL    C6  976   1.152   2.581   0.378
   32CHOL    H9  977   1.071   2.512   0.408
   32CHOL    C5  978   1.206   2.572   0.255
   32CHOL    C4  979   1.138   2.488   0.152
   32CHOL    C1  980   1.235   2.380   0.102
   32CHOL    H2  981   1.256   2.308   0.187
   32CHOL   O28  982   1.173   2.308   4.995
   32CHOL   H74  983   1.102   2.250   0.029
   32CHOL    C2  984   1.367   2.440   0.053
   32CHOL    C3  985   1.433   2.524   0.162
   32CHOL   C26  986   1.341   2.635   0.217
   32CHOL   C27  987   1.318   2.737   0.104
   32CHOL   C25  988   1.410   2.700   0.343
   32CHOL   C24  989   1.519   2.801   0.303
   32CHOL   C23  990   1.583   2.870   0.423
   32CHOL   C21  991   1.483   2.943   0.511
   32CHOL   C22  992   1.425   3.065   0.437
   33CHOL   C19  993   1.211   1.920   3.810
   33CHOL   C17  994   1.348   1.857   3.790
   33CHOL   C18  995   1.336   1.763   3.671
   33CHOL   C16  996   1.392   1.780   3.913
   33CHOL   C15  997   1.454   1.863   4.024
   33CHOL   C14  998   1.355   1.914   4.128
   33CHOL   C13  999   1.429   1.961   4.255
   33CHOL   C20 1000   1.449   2.111   4.241
   33CHOL   C12 1001   1.359   1.921   4.387
   33CHOL   C11 1002   1.319   1.772   4.381
   33CHOL   C10 1003   1.361   1.702   4.510
   33CHOL    C9 1004   1.361   1.819   4.606
   33CHOL    C8 1005   1.407   1.804   4.751
   33CHOL    C7 1006   1.326   1.689   4.812
   33CHOL    C6 1007   1.321   1.687   4.960
   33CHOL    H9 1008   1.281   1.596   0.005
   33CHOL    C5 1009   1.354   1.792   0.038
   33CHOL    C4 1010   1.339   1.778   0.186
   33CHOL    C1 1011   1.265   1.900   0.242
   33CHOL    H2 1012   1.163   1.906   0.193
   33CHOL   O28 1013   1.248   1.889   0.384
   33CHOL   H74 1014   1.177   1.822   0.401
   33CHOL    C2 1015   1.344   2.026   0.208
   33CHOL    C3 1016   1.350   2.043   0.055
   33CHOL   C26 1017   1.412   1.923   4.981
   33CHOL   C27 1018   1.562   1.922   0.009
   33CHOL   C25 1019   1.381   1.937   4.827
   33CHOL   C24 1020   1.456   2.051   4.757
   33CHOL   C23 1021   1.417   2.064   4.609
   33CHOL   C21 1022   1.436   1.935   4.527
   33CHOL   C22 1023   1.585   1.907   4.509
   34CHOL   C19 1024   2.800   4.463   0.198
   34CHOL   C17 1025   2.920   4.369   0.195
   34CHOL   C18 1026   2.930   4.298   0.328
   34CHOL   C16 1027   3.048   4.445   0.169
   34CHOL   C15 1028   3.057   4.496   0.026
   34CHOL   C14 1029   3.178   4.586   0.019
   34CHOL   C13 1030   3.199   4.661   4.887
   34CHOL   C20 1031   3.076   4.740   4.848
   34CHOL   C12 1032   3.323   4.753   4.886
   34CHOL   C11 1033   3.406   4.758   0.018
   34CHOL   C10 1034   3.553   4.780   4.984
   34CHOL    C9 1035   3.547   4.814   4.835
   34CHOL    C8 1036   3.672   4.815   4.746
   34CHOL    C7 1037   3.777   4.909   4.804
   34CHOL    C6 1038   3.891   4.930   4.712
   34CHOL    H9 1039   3.987   4.953   4.761
   34CHOL    C5 1040   3.882   4.918   4.578
   34CHOL    C4 1041   4.002   4.948   4.495
   34CHOL    C1 1042   3.966   0.022   4.365
   34CHOL    H2 1043   3.936   0.128   4.387
   34CHOL   O28 1044   4.080   0.023   4.279
   34CHOL   H74 1045   4.152   0.078   4.319
   34CHOL    C2 1046   3.850   4.956   4.291
   34CHOL    C3 1047   3.729   4.943   4.383
   34CHOL   C26 1048   3.760   4.859   4.508
   34CHOL   C27 1049   3.796   4.717   4.462
   34CHOL   C25 1050   3.635   4.859   4.602
   34CHOL   C24 1051   3.522   4.772   4.546
   34CHOL   C23 1052   3.399   4.768   4.636
   34CHOL   C21 1053   3.432   4.723   4.778
   34CHOL   C22 1054   3.468   4.574   4.780
   35CHOL   C19 1055   1.808   0.331   0.494
   35CHOL   C17 1056   1.902   0.417   0.576
   35CHOL   C18 1057   1.837   0.552   0.604
   35CHOL   C16 1058   2.035   0.431   0.502
   35CHOL   C15 1059   2.143   0.495   0.587
   35CHOL   C14 1060   2.178   0.414   0.710
   35CHOL   C13 1061   2.283   0.488   0.794
   35CHOL   C20 1062   2.211   0.562   0.904
   35CHOL   C12 1063   2.399   0.405   0.851
   35CHOL   C11 1064   2.401   0.258   0.802
   35CHOL   C10 1065   2.546   0.214   0.785
   35CHOL    C9 1066   2.622   0.323   0.860
   35CHOL    C8 1067   2.774   0.333   0.850
   35CHOL    C7 1068   2.839   0.204   0.899
   35CHOL    C6 1069   2.987   0.212   0.896
   35CHOL    H9 1070   3.038   0.115   0.886
   35CHOL    C5 1071   3.055   0.328   0.903
   35CHOL    C4 1072   3.204   0.325   0.908
   35CHOL    C1 1073   3.252   0.404   1.030
   35CHOL    H2 1074   3.216   0.353   1.124
   35CHOL   O28 1075   3.395   0.410   1.032
   35CHOL   H74 1076   3.433   0.321   1.047
   35CHOL    C2 1077   3.198   0.547   1.027
   35CHOL    C3 1078   3.045   0.547   1.024
   35CHOL   C26 1079   2.986   0.466   0.907
   35CHOL   C27 1080   3.019   0.540   0.775
   35CHOL   C25 1081   2.831   0.452   0.931
   35CHOL   C24 1082   2.755   0.582   0.900
   35CHOL   C23 1083   2.604   0.566   0.911
   35CHOL   C21 1084   2.546   0.456   0.823
   35CHOL   C22 1085   2.560   0.499   0.676
   36CHOL   C19 1086   4.290   4.075   2.984
   36CHOL   C17 1087   4.363   4.099   3.115
   36CHOL   C18 1088   4.512   4.104   3.086
   36CHOL   C16 1089   4.325   3.987   3.210
   36CHOL   C15 1090   4.386   3.998   3.348
   36CHOL   C14 1091   4.331   4.109   3.437
   36CHOL   C13 1092   4.371   4.079   3.582
   36CHOL   C20 1093   4.463   4.190   3.631
   36CHOL   C12 1094   4.250   4.057   3.675
   36CHOL   C11 1095   4.158   3.950   3.611
   36CHOL   C10 1096   4.100   3.859   3.718
   36CHOL    C9 1097   4.123   3.945   3.840
   36CHOL    C8 1098   4.088   3.889   3.978
   36CHOL    C7 1099   3.937   3.865   3.980
   36CHOL    C6 1100   3.884   3.842   4.116
   36CHOL    H9 1101   3.785   3.795   4.119
   36CHOL    C5 1102   3.949   3.874   4.229
   36CHOL    C4 1103   3.880   3.852   4.359
   36CHOL    C1 1104   3.898   3.977   4.446
   36CHOL    H2 1105   3.857   4.066   4.389
   36CHOL   O28 1106   3.825   3.965   4.569
   36CHOL   H74 1107   3.854   3.885   4.619
   36CHOL    C2 1108   4.047   4.000   4.472
   36CHOL    C3 1109   4.114   4.032   4.338
   36CHOL   C26 1110   4.095   3.924   4.230
   36CHOL   C27 1111   4.186   3.805   4.265
   36CHOL   C25 1112   4.129   3.987   4.090
   36CHOL   C24 1113   4.275   4.032   4.076
   36CHOL   C23 1114   4.300   4.094   3.939
   36CHOL   C21 1115   4.271   3.999   3.822
   36CHOL   C22 1116   4.378   3.889   3.821
   37CHOL   C19 1117   0.122   4.848   0.969
   37CHOL   C17 1118   0.047   4.924   0.861
   37CHOL   C18 1119   4.953   4.831   0.786
   37CHOL   C16 1120   0.148   4.991   0.768
   37CHOL   C15 1121   0.087   0.095   0.676
   37CHOL   C14 1122   0.045   0.219   0.755
   37CHOL   C13 1123   4.994   0.329   0.662
   37CHOL   C20 1124   4.843   0.329   0.676
   37CHOL   C12 1125   0.058   0.466   0.694
   37CHOL   C11 1126   0.211   0.454   0.684
   37CHOL   C10 1127   0.269   0.589   0.644
   37CHOL    C9 1128   0.150   0.682   0.655
   37CHOL    C8 1129   0.153   0.822   0.595
   37CHOL    C7 1130   0.275   0.896   0.650
   37CHOL    C6 1131   0.275   1.040   0.619
   37CHOL    H9 1132   0.374   1.086   0.608
   37CHOL    C5 1133   0.163   1.110   0.596
   37CHOL    C4 1134   0.174   1.258   0.579
   37CHOL    C1 1135   0.068   1.329   0.664
   37CHOL    H2 1136   0.090   1.312   0.773
   37CHOL   O28 1137   0.071   1.470   0.637
   37CHOL   H74 1138   0.155   1.509   0.669
   37CHOL    C2 1139   4.929   1.277   0.631
   37CHOL    C3 1140   4.920   1.127   0.657
   37CHOL   C26 1141   0.024   1.046   0.577
   37CHOL   C27 1142   4.984   1.056   0.429
   37CHOL   C25 1143   0.022   0.898   0.631
   37CHOL   C24 1144   4.901   0.818   0.580
   37CHOL   C23 1145   4.900   0.674   0.632
   37CHOL   C21 1146   0.028   0.594   0.605
   37CHOL   C22 1147   0.039   0.561   0.456
   38CHOL   C19 1148   1.219   4.765   3.012
   38CHOL   C17 1149   1.135   4.876   2.951
   38CHOL   C18 1150   1.004   4.882   3.028
   38CHOL   C16 1151   1.106   4.848   2.805
   38CHOL   C15 1152   1.210   4.898   2.706
   38CHOL   C14 1153   1.327   4.803   2.686
   38CHOL   C13 1154   1.381   4.822   2.544
   38CHOL   C20 1155   1.511   4.899   2.552
   38CHOL   C12 1156   1.390   4.694   2.458
   38CHOL   C11 1157   1.276   4.595   2.490
   38CHOL   C10 1158   1.231   4.522   2.364
   38CHOL    C9 1159   1.337   4.561   2.263
   38CHOL    C8 1160   1.313   4.540   2.113
   38CHOL    C7 1161   1.287   4.394   2.078
   38CHOL    C6 1162   1.265   4.376   1.932
   38CHOL    H9 1163   1.193   4.297   1.904
   38CHOL    C5 1164   1.316   4.457   1.838
   38CHOL    C4 1165   1.292   4.424   1.694
   38CHOL    C1 1166   1.406   4.466   1.601
   38CHOL    H2 1167   1.494   4.398   1.617
   38CHOL   O28 1168   1.362   4.454   1.465
   38CHOL   H74 1169   1.422   4.501   1.404
   38CHOL    C2 1170   1.449   4.611   1.628
   38CHOL    C3 1171   1.488   4.630   1.775
   38CHOL   C26 1172   1.374   4.595   1.873
   38CHOL   C27 1173   1.262   4.699   1.854
   38CHOL   C25 1174   1.426   4.593   2.022
   38CHOL   C24 1175   1.475   4.731   2.067
   38CHOL   C23 1176   1.500   4.743   2.218
   38CHOL   C21 1177   1.375   4.710   2.300
   38CHOL   C22 1178   1.265   4.812   2.270
   39CHOL   C19 1179   4.924   2.635   3.225
   39CHOL   C17 1180   4.969   2.728   3.335
   39CHOL   C18 1181   4.961   2.654   3.468
   39CHOL   C16 1182   4.884   2.853   3.328
   39CHOL   C15 1183   4.924   2.960   3.428
   39CHOL   C14 1184   0.056   3.025   3.392
   39CHOL   C13 1185   0.106   3.104   3.513
   39CHOL   C20 1186   0.206   3.014   3.583
   39CHOL   C12 1187   0.159   3.246   3.484
   39CHOL   C11 1188   0.060   3.322   3.392
   39CHOL   C10 1189   0.053   3.469   3.433
   39CHOL    C9 1190   0.171   3.483   3.527
   39CHOL    C8 1191   0.183   3.605   3.619
   39CHOL    C7 1192   0.190   3.734   3.537
   39CHOL    C6 1193   0.221   3.853   3.621
   39CHOL    H9 1194   0.198   3.950   3.575
   39CHOL    C5 1195   0.276   3.847   3.744
   39CHOL    C4 1196   0.312   3.974   3.812
   39CHOL    C1 1197   0.453   3.966   3.871
   39CHOL    H2 1198   0.527   3.952   3.786
   39CHOL   O28 1199   0.486   4.086   3.941
   39CHOL   H74 1200   0.582   4.084   3.966
   39CHOL    C2 1201   0.462   3.847   3.967
   39CHOL    C3 1202   0.438   3.718   3.890
   39CHOL   C26 1203   0.302   3.714   3.818
   39CHOL   C27 1204   0.193   3.692   3.924
   39CHOL   C25 1205   0.305   3.596   3.714
   39CHOL   C24 1206   0.317   3.460   3.783
   39CHOL   C23 1207   0.307   3.344   3.685
   39CHOL   C21 1208   0.176   3.346   3.605
   39CHOL   C22 1209   0.059   3.329   3.702
   40CHOL   C19 1210   4.508   0.241   3.597
   40CHOL   C17 1211   4.368   0.300   3.603
   40CHOL   C18 1212   4.361   0.405   3.713
   40CHOL   C16 1213   4.270   0.187   3.627
   40CHOL   C15 1214   4.125   0.233   3.614
   40CHOL   C14 1215   4.028   0.117   3.629
   40CHOL   C13 1216   4.025   0.057   3.770
   40CHOL   C20 1217   3.914   0.134   3.843
   40CHOL   C12 1218   4.006   4.904   3.763
   40CHOL   C11 1219   4.140   4.837   3.725
   40CHOL   C10 1220   4.141   4.693   3.777
   40CHOL    C9 1221   3.998   4.673   3.824
   40CHOL    C8 1222   3.954   4.556   3.914
   40CHOL    C7 1223   3.998   4.422   3.854
   40CHOL    C6 1224   3.933   4.305   3.920
   40CHOL    H9 1225   3.992   4.212   3.916
   40CHOL    C5 1226   3.814   4.309   3.984
   40CHOL    C4 1227   3.753   4.185   4.039
   40CHOL    C1 1228   3.604   4.173   4.002
   40CHOL    H2 1229   3.595   4.151   3.891
   40CHOL   O28 1230   3.539   4.068   4.076
   40CHOL   H74 1231   3.584   3.982   4.063
   40CHOL    C2 1232   3.528   4.302   4.035
   40CHOL    C3 1233   3.594   4.425   3.972
   40CHOL   C26 1234   3.742   4.441   4.013
   40CHOL   C27 1235   3.751   4.466   4.164
   40CHOL   C25 1236   3.800   4.561   3.930
   40CHOL   C24 1237   3.759   4.695   3.991
   40CHOL   C23 1238   3.807   4.815   3.910
   40CHOL   C21 1239   3.958   4.815   3.884
   40CHOL   C22 1240   4.036   4.849   4.011
   41CHOL   C19 1241   2.357   3.815   3.275
   41CHOL   C17 1242   2.456   3.765   3.171
   41CHOL   C18 1243   2.585   3.723   3.238
   41CHOL   C16 1244   2.480   3.875   3.071
   41CHOL   C15 1245   2.540   3.825   2.941
   41CHOL   C14 1246   2.437   3.748   2.859
   41CHOL   C13 1247   2.501   3.705   2.727
   41CHOL   C20 1248   2.526   3.555   2.737
   41CHOL   C12 1249   2.422   3.748   2.601
   41CHOL   C11 1250   2.379   3.897   2.609
   41CHOL   C10 1251   2.382   3.959   2.470
   41CHOL    C9 1252   2.397   3.837   2.380
   41CHOL    C8 1253   2.434   3.850   2.231
   41CHOL    C7 1254   2.329   3.936   2.161
   41CHOL    C6 1255   2.345   3.936   2.013
   41CHOL    H9 1256   2.297   4.021   1.961
   41CHOL    C5 1257   2.410   3.842   1.945
   41CHOL    C4 1258   2.408   3.848   1.796
   41CHOL    C1 1259   2.352   3.715   1.744
   41CHOL    H2 1260   2.251   3.698   1.792
   41CHOL   O28 1261   2.337   3.716   1.601
   41CHOL   H74 1262   2.251   3.759   1.579
   41CHOL    C2 1263   2.446   3.602   1.787
   41CHOL    C3 1264   2.447   3.593   1.940
   41CHOL   C26 1265   2.485   3.724   2.011
   41CHOL   C27 1266   2.636   3.745   1.995
   41CHOL   C25 1267   2.442   3.712   2.162
   41CHOL   C24 1268   2.533   3.617   2.240
   41CHOL   C23 1269   2.492   3.607   2.386
   41CHOL   C21 1270   2.493   3.741   2.460
   41CHOL   C22 1271   2.637   3.794   2.470
   42CHOL   C19 1272   4.378   3.656   1.550
   42CHOL   C17 1273   4.389   3.592   1.687
   42CHOL   C18 1274   4.312   3.672   1.789
   42CHOL   C16 1275   4.535   3.577   1.725
   42CHOL   C15 1276   4.548   3.455   1.813
   42CHOL   C14 1277   4.691   3.423   1.850
   42CHOL   C13 1278   4.688   3.299   1.940
   42CHOL   C20 1279   4.711   3.178   1.851
   42CHOL   C12 1280   4.777   3.305   2.066
   42CHOL   C11 1281   4.771   3.446   2.131
   42CHOL   C10 1282   4.778   3.434   2.283
   42CHOL    C9 1283   4.813   3.288   2.304
   42CHOL    C8 1284   4.792   3.222   2.441
   42CHOL    C7 1285   4.873   3.293   2.550
   42CHOL    C6 1286   4.868   3.220   2.680
   42CHOL    H9 1287   4.891   3.282   2.769
   42CHOL    C5 1288   4.833   3.091   2.693
   42CHOL    C4 1289   4.834   3.029   2.829
   42CHOL    C1 1290   4.871   2.881   2.828
   42CHOL    H2 1291   4.981   2.870   2.805
   42CHOL   O28 1292   4.844   2.822   2.956
   42CHOL   H74 1293   4.901   2.864   3.025
   42CHOL    C2 1294   4.789   2.805   2.724
   42CHOL    C3 1295   4.817   2.863   2.586
   42CHOL   C26 1296   4.772   3.010   2.576
   42CHOL   C27 1297   4.618   3.016   2.587
   42CHOL   C25 1298   4.824   3.070   2.441
   42CHOL   C24 1299   4.763   2.996   2.321
   42CHOL   C23 1300   4.791   3.067   2.188
   42CHOL   C21 1301   4.738   3.211   2.187
   42CHOL   C22 1302   4.586   3.210   2.205
   43CHOL   C19 1303   4.409   4.968   0.874
   43CHOL   C17 1304   4.546   5.000   0.931
   43CHOL   C18 1305   4.636   0.050   0.820
   43CHOL   C16 1306   4.605   4.878   1.000
   43CHOL   C15 1307   4.724   4.914   1.087
   43CHOL   C14 1308   4.684   4.968   1.223
   43CHOL   C13 1309   4.804   0.026   1.299
   43CHOL   C20 1310   4.766   0.169   1.332
   43CHOL   C12 1311   4.847   4.946   1.424
   43CHOL   C11 1312   4.873   4.798   1.388
   43CHOL   C10 1313   4.994   4.746   1.465
   43CHOL    C9 1314   0.008   4.848   1.575
   43CHOL    C8 1315   0.128   4.851   1.671
   43CHOL    C7 1316   0.144   4.713   1.736
   43CHOL    C6 1317   0.216   4.713   1.866
   43CHOL    H9 1318   0.255   4.615   1.895
   43CHOL    C5 1319   0.236   4.822   1.942
   43CHOL    C4 1320   0.297   4.805   2.078
   43CHOL    C1 1321   0.224   4.892   2.180
   43CHOL    H2 1322   0.116   4.859   2.186
   43CHOL   O28 1323   0.283   4.880   2.310
   43CHOL   H74 1324   0.379   4.905   2.308
   43CHOL    C2 1325   0.228   0.039   2.136
   43CHOL    C3 1326   0.157   0.054   2.002
   43CHOL   C26 1327   0.213   4.964   1.890
   43CHOL   C27 1328   0.348   0.019   1.842
   43CHOL   C25 1329   0.104   4.962   1.777
   43CHOL   C24 1330   0.089   0.096   1.706
   43CHOL   C23 1331   4.972   0.095   1.608
   43CHOL   C21 1332   4.980   4.985   1.502
   43CHOL   C22 1333   0.090   0.021   1.401
   44CHOL   C19 1334   0.216   1.166   2.194
   44CHOL   C17 1335   0.105   1.103   2.275
   44CHOL   C18 1336   0.166   1.022   2.388
   44CHOL   C16 1337   0.019   1.020   2.181
   44CHOL   C15 1338   4.893   0.965   2.247
   44CHOL   C14 1339   4.791   1.073   2.279
   44CHOL   C13 1340   4.667   1.010   2.343
   44CHOL   C20 1341   4.656   1.066   2.484
   44CHOL   C12 1342   4.538   1.030   2.260
   44CHOL   C11 1343   4.562   0.993   2.112
   44CHOL   C10 1344   4.433   0.941   2.050
   44CHOL    C9 1345   4.331   0.968   2.158
   44CHOL    C8 1346   4.194   0.900   2.152
   44CHOL    C7 1347   4.119   0.937   2.024
   44CHOL    C6 1348   3.979   0.885   2.022
   44CHOL    H9 1349   3.932   0.883   1.923
   44CHOL    C5 1350   3.910   0.849   2.132
   44CHOL    C4 1351   3.769   0.802   2.118
   44CHOL    C1 1352   3.680   0.840   2.237
   44CHOL    H2 1353   3.662   0.952   2.233
   44CHOL   O28 1354   3.554   0.772   2.232
   44CHOL   H74 1355   3.565   0.677   2.205
   44CHOL    C2 1356   3.747   0.807   2.370
   44CHOL    C3 1357   3.880   0.882   2.380
   44CHOL   C26 1358   3.978   0.837   2.270
   44CHOL   C27 1359   4.013   0.689   2.292
   44CHOL   C25 1360   4.106   0.929   2.276
   44CHOL   C24 1361   4.184   0.910   2.407
   44CHOL   C23 1362   4.317   0.985   2.408
   44CHOL   C21 1363   4.409   0.943   2.293
   44CHOL   C22 1364   4.450   0.797   2.313
   45CHOL   C19 1365   4.057   2.739   0.524
   45CHOL   C17 1366   4.029   2.718   0.376
   45CHOL   C18 1367   3.887   2.765   0.347
   45CHOL   C16 1368   4.049   2.571   0.342
   45CHOL   C15 1369   4.043   2.536   0.194
   45CHOL   C14 1370   4.158   2.592   0.112
   45CHOL   C13 1371   4.173   2.519   4.978
   45CHOL   C20 1372   4.105   2.604   4.872
   45CHOL   C12 1373   4.322   2.487   4.947
   45CHOL   C11 1374   4.379   2.402   0.062
   45CHOL   C10 1375   4.484   2.306   0.008
   45CHOL    C9 1376   4.517   2.374   4.877
   45CHOL    C8 1377   4.615   2.311   4.778
   45CHOL    C7 1378   4.750   2.298   4.850
   45CHOL    C6 1379   4.862   2.265   4.758
   45CHOL    H9 1380   4.949   2.218   4.805
   45CHOL    C5 1381   4.860   2.291   4.626
   45CHOL    C4 1382   4.982   2.258   4.546
   45CHOL    C1 1383   0.013   2.367   4.444
   45CHOL    H2 1384   0.041   2.462   4.498
   45CHOL   O28 1385   0.122   2.326   4.361
   45CHOL   H74 1386   0.203   2.313   4.416
   45CHOL    C2 1387   4.890   2.394   4.356
   45CHOL    C3 1388   4.772   2.438   4.444
   45CHOL   C26 1389   4.734   2.335   4.551
   45CHOL   C27 1390   4.675   2.210   4.485
   45CHOL   C25 1391   4.631   2.399   4.652
   45CHOL   C24 1392   4.494   2.426   4.589
   45CHOL   C23 1393   4.399   2.492   4.689
   45CHOL   C21 1394   4.374   2.411   4.817
   45CHOL   C22 1395   4.286   2.289   4.784
   46CHOL   C19 1396   2.492   0.095   4.397
   46CHOL   C17 1397   2.411   0.187   4.308
   46CHOL   C18 1398   2.461   0.174   4.165
   46CHOL   C16 1399   2.428   0.328   4.360
   46CHOL   C15 1400   2.349   0.434   4.286
   46CHOL   C14 1401   2.199   0.424   4.308
   46CHOL   C13 1402   2.133   0.555   4.264
   46CHOL   C20 1403   2.073   0.532   4.127
   46CHOL   C12 1404   2.033   0.615   4.365
   46CHOL   C11 1405   2.081   0.598   4.511
   46CHOL   C10 1406   2.034   0.717   4.595
   46CHOL    C9 1407   1.934   0.783   4.501
   46CHOL    C8 1408   1.877   0.922   4.531
   46CHOL    C7 1409   1.802   0.918   4.665
   46CHOL    C6 1410   1.729   1.044   4.692
   46CHOL    H9 1411   1.715   1.066   4.799
   46CHOL    C5 1412   1.687   1.128   4.596
   46CHOL    C4 1413   1.606   1.247   4.633
   46CHOL    C1 1414   1.478   1.254   4.548
   46CHOL    H2 1415   1.411   1.166   4.573
   46CHOL   O28 1416   1.407   1.376   4.576
   46CHOL   H74 1417   1.392   1.383   4.672
   46CHOL    C2 1418   1.512   1.252   4.399
   46CHOL    C3 1419   1.593   1.126   4.365
   46CHOL   C26 1420   1.722   1.111   4.448
   46CHOL   C27 1421   1.821   1.222   4.409
   46CHOL   C25 1422   1.780   0.968   4.420
   46CHOL   C24 1423   1.846   0.959   4.282
   46CHOL   C23 1424   1.900   0.819   4.254
   46CHOL   C21 1425   2.001   0.770   4.359
   46CHOL   C22 1426   2.130   0.852   4.344
   47CHOL   C19 1427   0.896   1.428   1.913
   47CHOL   C17 1428   0.898   1.570   1.861
   47CHOL   C18 1429   0.844   1.572   1.720
   47CHOL   C16 1430   1.040   1.624   1.868
   47CHOL   C15 1431   1.055   1.772   1.840
   47CHOL   C14 1432   0.995   1.857   1.951
   47CHOL   C13 1433   1.045   2.002   1.943
   47CHOL   C20 1434   0.935   2.087   1.882
   47CHOL   C12 1435   1.092   2.054   2.080
   47CHOL   C11 1436   1.206   1.964   2.131
   47CHOL   C10 1437   1.316   2.050   2.192
   47CHOL    C9 1438   1.239   2.176   2.225
   47CHOL    C8 1439   1.312   2.301   2.273
   47CHOL    C7 1440   1.392   2.271   2.400
   47CHOL    C6 1441   1.462   2.393   2.447
   47CHOL    H9 1442   1.557   2.375   2.501
   47CHOL    C5 1443   1.419   2.518   2.421
   47CHOL    C4 1444   1.497   2.632   2.476
   47CHOL    C1 1445   1.407   2.745   2.526
   47CHOL    H2 1446   1.355   2.713   2.620
   47CHOL   O28 1447   1.489   2.859   2.554
   47CHOL   H74 1448   1.527   2.896   2.471
   47CHOL    C2 1449   1.299   2.783   2.423
   47CHOL    C3 1450   1.216   2.661   2.384
   47CHOL   C26 1451   1.303   2.548   2.325
   47CHOL   C27 1452   1.361   2.597   2.192
   47CHOL   C25 1453   1.216   2.419   2.300
   47CHOL   C24 1454   1.117   2.440   2.184
   47CHOL   C23 1455   1.050   2.312   2.136
   47CHOL   C21 1456   1.148   2.201   2.098
   47CHOL   C22 1457   1.227   2.244   1.974
   48CHOL   C19 1458   3.932   1.217   1.878
   48CHOL   C17 1459   3.863   1.289   1.992
   48CHOL   C18 1460   3.851   1.435   1.952
   48CHOL   C16 1461   3.946   1.273   2.118
   48CHOL   C15 1462   3.888   1.349   2.236
   48CHOL   C14 1463   3.769   1.280   2.302
   48CHOL   C13 1464   3.692   1.376   2.394
   48CHOL   C20 1465   3.547   1.361   2.355
   48CHOL   C12 1466   3.718   1.347   2.543
   48CHOL   C11 1467   3.861   1.395   2.577
   48CHOL   C10 1468   3.870   1.423   2.726
   48CHOL    C9 1469   3.738   1.366   2.773
   48CHOL    C8 1470   3.694   1.385   2.918
   48CHOL    C7 1471   3.791   1.306   3.006
   48CHOL    C6 1472   3.747   1.299   3.147
   48CHOL    H9 1473   3.828   1.284   3.220
   48CHOL    C5 1474   3.620   1.316   3.186
   48CHOL    C4 1475   3.585   1.297   3.330
   48CHOL    C1 1476   3.456   1.216   3.342
   48CHOL    H2 1477   3.473   1.115   3.294
   48CHOL   O28 1478   3.422   1.197   3.479
   48CHOL   H74 1479   3.393   1.282   3.521
   48CHOL    C2 1480   3.343   1.286   3.267
   48CHOL    C3 1481   3.377   1.297   3.119
   48CHOL   C26 1482   3.510   1.368   3.092
   48CHOL   C27 1483   3.494   1.518   3.118
   48CHOL   C25 1484   3.551   1.336   2.944
   48CHOL   C24 1485   3.451   1.389   2.840
   48CHOL   C23 1486   3.496   1.351   2.699
   48CHOL   C21 1487   3.633   1.410   2.662
   48CHOL   C22 1488   3.615   1.562   2.644
   49CHOL   C19 1489   4.747   0.868   0.202
   49CHOL   C17 1490   4.850   0.797   0.116
   49CHOL   C18 1491   4.985   0.803   0.185
   49CHOL   C16 1492   4.855   0.863   4.979
   49CHOL   C15 1493   4.948   0.794   4.880
   49CHOL   C14 1494   4.891   0.665   4.823
   49CHOL   C13 1495   4.986   0.604   4.719
   49CHOL   C20 1496   0.019   0.463   4.765
   49CHOL   C12 1497   4.935   0.604   4.573
   49CHOL   C11 1498   4.846   0.728   4.543
   49CHOL   C10 1499   4.853   0.760   4.394
   49CHOL    C9 1500   4.934   0.644   4.340
   49CHOL    C8 1501   4.993   0.652   4.199
   49CHOL    C7 1502   4.879   0.664   4.097
   49CHOL    C6 1503   4.929   0.659   3.957
   49CHOL    H9 1504   4.877   0.726   3.887
   49CHOL    C5 1505   0.041   0.594   3.920
   49CHOL    C4 1506   0.074   0.586   3.774
   49CHOL    C1 1507   0.140   0.451   3.740
   49CHOL    H2 1508   0.064   0.369   3.757
   49CHOL   O28 1509   0.184   0.447   3.604
   49CHOL   H74 1510   0.110   0.466   3.543
   49CHOL    C2 1511   0.261   0.427   3.830
   49CHOL    C3 1512   0.217   0.423   3.976
   49CHOL   C26 1513   0.147   0.552   4.022
   49CHOL   C27 1514   0.252   0.663   4.025
   49CHOL   C25 1515   0.081   0.530   4.163
   49CHOL   C24 1516   0.183   0.501   4.274
   49CHOL   C23 1517   0.117   0.487   4.412
   49CHOL   C21 1518   0.040   0.612   4.454
   49CHOL   C22 1519   0.142   0.724   4.481
   50CHOL   C19 1520   0.426   4.271   3.449
   50CHOL   C17 1521   0.484   4.286   3.310
   50CHOL   C18 1522   0.624   4.342   3.321
   50CHOL   C16 1523   0.394   4.374   3.225
   50CHOL   C15 1524   0.443   4.379   3.081
   50CHOL   C14 1525   0.415   4.250   3.004
   50CHOL   C13 1526   0.501   4.238   2.878
   50CHOL   C20 1527   0.565   4.100   2.884
   50CHOL   C12 1528   0.427   4.264   2.745
   50CHOL   C11 1529   0.346   4.395   2.752
   50CHOL   C10 1530   0.358   4.475   2.622
   50CHOL    C9 1531   0.400   4.364   2.529
   50CHOL    C8 1532   0.435   4.393   2.383
   50CHOL    C7 1533   0.310   4.450   2.314
   50CHOL    C6 1534   0.318   4.449   2.165
   50CHOL    H9 1535   0.244   4.513   2.115
   50CHOL    C5 1536   0.403   4.372   2.095
   50CHOL    C4 1537   0.401   4.379   1.946
   50CHOL    C1 1538   0.416   4.240   1.882
   50CHOL    H2 1539   0.322   4.181   1.898
   50CHOL   O28 1540   0.438   4.258   1.742
   50CHOL   H74 1541   0.455   4.172   1.698
   50CHOL    C2 1542   0.534   4.163   1.940
   50CHOL    C3 1543   0.524   4.152   2.092
   50CHOL   C26 1544   0.514   4.289   2.161
   50CHOL   C27 1545   0.645   4.367   2.145
   50CHOL   C25 1546   0.480   4.263   2.312
   50CHOL   C24 1547   0.594   4.196   2.388
   50CHOL   C23 1548   0.552   4.162   2.531
   50CHOL   C21 1549   0.511   4.285   2.611
   50CHOL   C22 1550   0.638   4.367   2.641
   51CHOL   C19 1551   3.462   2.567   0.515
   51CHOL   C17 1552   3.558   2.485   0.431
   51CHOL   C18 1553   3.691   2.474   0.503
   51CHOL   C16 1554   3.572   2.554   0.298
   51CHOL   C15 1555   3.668   2.487   0.202
   51CHOL   C14 1556   3.614   2.359   0.142
   51CHOL   C13 1557   3.721   2.301   0.051
   51CHOL   C20 1558   3.773   2.176   0.119
   51CHOL   C12 1559   3.671   2.280   4.906
   51CHOL   C11 1560   3.627   2.415   4.845
   51CHOL   C10 1561   3.669   2.424   4.698
   51CHOL    C9 1562   3.699   2.279   4.666
   51CHOL    C8 1563   3.772   2.238   4.538
   51CHOL    C7 1564   3.699   2.286   4.412
   51CHOL    C6 1565   3.760   2.231   4.287
   51CHOL    H9 1566   3.736   2.288   4.195
   51CHOL    C5 1567   3.838   2.121   4.283
   51CHOL    C4 1568   3.894   2.073   4.153
   51CHOL    C1 1569   3.889   1.920   4.140
   51CHOL    H2 1570   3.781   1.886   4.133
   51CHOL   O28 1571   3.960   1.876   4.024
   51CHOL   H74 1572   3.927   1.923   3.945
   51CHOL    C2 1573   3.952   1.851   4.261
   51CHOL    C3 1574   3.884   1.898   4.390
   51CHOL   C26 1575   3.886   2.051   4.410
   51CHOL   C27 1576   4.028   2.101   4.440
   51CHOL   C25 1577   3.792   2.084   4.530
   51CHOL   C24 1578   3.850   2.027   4.660
   51CHOL   C23 1579   3.774   2.071   4.784
   51CHOL   C21 1580   3.770   2.223   4.797
   51CHOL   C22 1581   3.912   2.280   4.816
   52CHOL   C19 1582   4.840   4.289   1.692
   52CHOL   C17 1583   4.831   4.405   1.790
   52CHOL   C18 1584   4.817   4.532   1.710
   52CHOL   C16 1585   4.954   4.406   1.879
   52CHOL   C15 1586   4.952   4.509   1.990
   52CHOL   C14 1587   4.848   4.481   2.096
   52CHOL   C13 1588   4.857   4.588   2.205
   52CHOL   C20 1589   4.750   4.689   2.173
   52CHOL   C12 1590   4.846   4.536   2.350
   52CHOL   C11 1591   4.927   4.406   2.366
   52CHOL   C10 1592   4.985   4.397   2.507
   52CHOL    C9 1593   4.917   4.511   2.579
   52CHOL    C8 1594   4.970   4.562   2.714
   52CHOL    C7 1595   4.979   4.447   2.814
   52CHOL    C6 1596   0.023   4.496   2.948
   52CHOL    H9 1597   0.081   4.424   3.008
   52CHOL    C5 1598   0.001   4.621   2.992
   52CHOL    C4 1599   0.040   4.658   3.131
   52CHOL    C1 1600   4.918   4.713   3.208
   52CHOL    H2 1601   4.849   4.627   3.234
   52CHOL   O28 1602   4.960   4.778   3.328
   52CHOL   H74 1603   0.015   4.719   3.383
   52CHOL    C2 1604   4.841   4.819   3.130
   52CHOL    C3 1605   4.808   4.776   2.987
   52CHOL   C26 1606   4.932   4.729   2.907
   52CHOL   C27 1607   0.029   4.847   2.891
   52CHOL   C25 1608   4.879   4.673   2.770
   52CHOL   C24 1609   4.859   4.783   2.665
   52CHOL   C23 1610   4.811   4.732   2.529
   52CHOL   C21 1611   4.903   4.625   2.469
   52CHOL   C22 1612   0.036   4.690   2.430
   53CHOL   C19 1613   1.317   3.194   3.877
   53CHOL   C17 1614   1.170   3.171   3.905
   53CHOL   C18 1615   1.102   3.302   3.941
   53CHOL   C16 1616   1.155   3.073   4.019
   53CHOL   C15 1617   1.027   2.992   4.012
   53CHOL   C14 1618   1.042   2.885   3.905
   53CHOL   C13 1619   0.945   2.768   3.924
   53CHOL   C20 1620   0.876   2.741   3.791
   53CHOL   C12 1621   1.007   2.637   3.977
   53CHOL   C11 1622   1.143   2.653   4.050
   53CHOL   C10 1623   1.156   2.544   4.156
   53CHOL    C9 1624   1.034   2.457   4.128
   53CHOL    C8 1625   0.985   2.354   4.230
   53CHOL    C7 1626   1.094   2.251   4.260
   53CHOL    C6 1627   1.045   2.141   4.348
   53CHOL    H9 1628   1.121   2.097   4.414
   53CHOL    C5 1629   0.916   2.106   4.359
   53CHOL    C4 1630   0.879   1.988   4.441
   53CHOL    C1 1631   0.776   1.902   4.366
   53CHOL    H2 1632   0.824   1.863   4.271
   53CHOL   O28 1633   0.729   1.792   4.443
   53CHOL   H74 1634   0.799   1.724   4.451
   53CHOL    C2 1635   0.654   1.986   4.331
   53CHOL    C3 1636   0.695   2.099   4.238
   53CHOL   C26 1637   0.803   2.190   4.299
   53CHOL   C27 1638   0.742   2.273   4.413
   53CHOL   C25 1639   0.857   2.281   4.183
   53CHOL   C24 1640   0.750   2.379   4.134
   53CHOL   C23 1641   0.804   2.476   4.030
   53CHOL   C21 1642   0.921   2.558   4.082
   53CHOL   C22 1643   0.871   2.653   4.193
   54CHOL   C19 1644   4.344   0.125   3.061
   54CHOL   C17 1645   4.362   0.069   2.921
   54CHOL   C18 1646   4.451   4.946   2.928
   54CHOL   C16 1647   4.421   0.178   2.832
   54CHOL   C15 1648   4.427   0.141   2.685
   54CHOL   C14 1649   4.290   0.140   2.618
   54CHOL   C13 1650   4.306   0.108   2.469
   54CHOL   C20 1651   4.239   4.975   2.441
   54CHOL   C12 1652   4.257   0.215   2.369
   54CHOL   C11 1653   4.275   0.358   2.425
   54CHOL   C10 1654   4.301   0.454   2.310
   54CHOL    C9 1655   4.276   0.368   2.188
   54CHOL    C8 1656   4.321   0.414   2.049
   54CHOL    C7 1657   4.258   0.550   2.021
   54CHOL    C6 1658   4.284   0.597   1.883
   54CHOL    H9 1659   4.278   0.706   1.867
   54CHOL    C5 1660   4.310   0.514   1.781
   54CHOL    C4 1661   4.327   0.572   1.645
   54CHOL    C1 1662   4.230   0.504   1.547
   54CHOL    H2 1663   4.124   0.530   1.576
   54CHOL   O28 1664   4.256   0.550   1.414
   54CHOL   H74 1665   4.256   0.648   1.412
   54CHOL    C2 1666   4.248   0.351   1.549
   54CHOL    C3 1667   4.231   0.295   1.691
   54CHOL   C26 1668   4.324   0.361   1.796
   54CHOL   C27 1669   4.469   0.323   1.762
   54CHOL   C25 1670   4.280   0.313   1.940
   54CHOL   C24 1671   4.333   0.174   1.976
   54CHOL   C23 1672   4.288   0.128   2.116
   54CHOL   C21 1673   4.329   0.225   2.228
   54CHOL   C22 1674   4.482   0.218   2.245
   55CHOL   C19 1675   3.517   3.522   0.425
   55CHOL   C17 1676   3.617   3.537   0.538
   55CHOL   C18 1677   3.664   3.399   0.582
   55CHOL   C16 1678   3.549   3.614   0.649
   55CHOL   C15 1679   3.639   3.647   0.766
   55CHOL   C14 1680   3.575   3.756   0.849
   55CHOL   C13 1681   3.661   3.790   0.971
   55CHOL   C20 1682   3.780   3.871   0.924
   55CHOL   C12 1683   3.589   3.870   1.082
   55CHOL   C11 1684   3.438   3.839   1.094
   55CHOL   C10 1685   3.394   3.882   1.234
   55CHOL    C9 1686   3.521   3.944   1.290
   55CHOL    C8 1687   3.534   3.979   1.438
   55CHOL    C7 1688   3.437   4.093   1.472
   55CHOL    C6 1689   3.454   4.140   1.612
   55CHOL    H9 1690   3.371   4.199   1.653
   55CHOL    C5 1691   3.565   4.121   1.685
   55CHOL    C4 1692   3.568   4.170   1.826
   55CHOL    C1 1693   3.705   4.226   1.869
   55CHOL    H2 1694   3.718   4.330   1.826
   55CHOL   O28 1695   3.710   4.233   2.012
   55CHOL   H74 1696   3.677   4.320   2.044
   55CHOL    C2 1697   3.820   4.136   1.823
   55CHOL    C3 1698   3.813   4.111   1.673
   55CHOL   C26 1699   3.683   4.038   1.634
   55CHOL   C27 1700   3.679   3.902   1.704
   55CHOL   C25 1701   3.677   4.023   1.478
   55CHOL   C24 1702   3.785   3.929   1.425
   55CHOL   C23 1703   3.772   3.911   1.274
   55CHOL   C21 1704   3.637   3.853   1.231
   55CHOL   C22 1705   3.631   3.706   1.275
   56CHOL   C19 1706   1.581   0.714   2.494
   56CHOL   C17 1707   1.553   0.638   2.365
   56CHOL   C18 1708   1.483   0.507   2.397
   56CHOL   C16 1709   1.684   0.617   2.292
   56CHOL   C15 1710   1.672   0.574   2.147
   56CHOL   C14 1711   1.605   0.676   2.058
   56CHOL   C13 1712   1.587   0.625   1.914
   56CHOL   C20 1713   1.455   0.549   1.909
   56CHOL   C12 1714   1.588   0.735   1.807
   56CHOL   C11 1715   1.704   0.834   1.834
   56CHOL   C10 1716   1.742   0.898   1.702
   56CHOL    C9 1717   1.640   0.845   1.603
   56CHOL    C8 1718   1.664   0.854   1.453
   56CHOL    C7 1719   1.690   1.000   1.415
   56CHOL    C6 1720   1.689   1.024   1.269
   56CHOL    H9 1721   1.736   1.118   1.236
   56CHOL    C5 1722   1.633   0.940   1.180
   56CHOL    C4 1723   1.635   0.979   1.036
   56CHOL    C1 1724   1.497   0.955   0.972
   56CHOL    H2 1725   1.420   1.019   1.024
   56CHOL   O28 1726   1.498   0.987   0.833
   56CHOL   H74 1727   1.563   1.059   0.813
   56CHOL    C2 1728   1.457   0.808   0.990
   56CHOL    C3 1729   1.447   0.774   1.139
   56CHOL   C26 1730   1.577   0.801   1.218
   56CHOL   C27 1731   1.681   0.695   1.181
   56CHOL   C25 1732   1.545   0.797   1.372
   56CHOL   C24 1733   1.507   0.656   1.421
   56CHOL   C23 1734   1.487   0.649   1.572
   56CHOL   C21 1735   1.607   0.699   1.654
   56CHOL   C22 1736   1.724   0.600   1.638
   57CHOL   C19 1737   2.523   4.319   2.468
   57CHOL   C17 1738   2.610   4.334   2.345
   57CHOL   C18 1739   2.633   4.481   2.318
   57CHOL   C16 1740   2.547   4.261   2.227
   57CHOL   C15 1741   2.641   4.261   2.107
   57CHOL   C14 1742   2.593   4.175   1.992
   57CHOL   C13 1743   2.694   4.177   1.876
   57CHOL   C20 1744   2.772   4.047   1.881
   57CHOL   C12 1745   2.627   4.204   1.740
   57CHOL   C11 1746   2.557   4.342   1.749
   57CHOL   C10 1747   2.560   4.409   1.613
   57CHOL    C9 1748   2.595   4.292   1.524
   57CHOL    C8 1749   2.621   4.313   1.375
   57CHOL    C7 1750   2.490   4.364   1.315
   57CHOL    C6 1751   2.489   4.361   1.167
   57CHOL    H9 1752   2.417   4.429   1.120
   57CHOL    C5 1753   2.571   4.285   1.093
   57CHOL    C4 1754   2.552   4.285   0.945
   57CHOL    C1 1755   2.554   4.142   0.891
   57CHOL    H2 1756   2.465   4.088   0.934
   57CHOL   O28 1757   2.543   4.144   0.748
   57CHOL   H74 1758   2.622   4.190   0.709
   57CHOL    C2 1759   2.684   4.070   0.932
   57CHOL    C3 1760   2.696   4.066   1.085
   57CHOL   C26 1761   2.689   4.204   1.152
   57CHOL   C27 1762   2.820   4.280   1.125
   57CHOL   C25 1763   2.664   4.182   1.306
   57CHOL   C24 1764   2.782   4.117   1.379
   57CHOL   C23 1765   2.747   4.090   1.526
   57CHOL   C21 1766   2.709   4.216   1.604
   57CHOL   C22 1767   2.835   4.300   1.624
   58CHOL   C19 1768   0.689   2.132   1.501
   58CHOL   C17 1769   0.612   2.020   1.567
   58CHOL   C18 1770   0.472   2.014   1.509
   58CHOL   C16 1771   0.616   2.042   1.716
   58CHOL   C15 1772   0.564   1.928   1.802
   58CHOL   C14 1773   0.613   1.955   1.943
   58CHOL   C13 1774   0.546   1.880   2.059
   58CHOL   C20 1775   0.572   1.731   2.041
   58CHOL   C12 1776   0.595   1.934   2.196
   58CHOL   C11 1777   0.580   2.088   2.197
   58CHOL   C10 1778   0.521   2.136   2.329
   58CHOL    C9 1779   0.556   2.021   2.420
   58CHOL    C8 1780   0.498   2.016   2.562
   58CHOL    C7 1781   0.541   2.137   2.646
   58CHOL    C6 1782   0.490   2.127   2.785
   58CHOL    H9 1783   0.479   2.224   2.836
   58CHOL    C5 1784   0.451   2.012   2.844
   58CHOL    C4 1785   0.400   2.017   2.985
   58CHOL    C1 1786   0.441   1.896   3.069
   58CHOL    H2 1787   0.550   1.905   3.095
   58CHOL   O28 1788   0.365   1.894   3.191
   58CHOL   H74 1789   0.392   1.968   3.249
   58CHOL    C2 1790   0.414   1.766   2.995
   58CHOL    C3 1791   0.484   1.764   2.858
   58CHOL   C26 1792   0.441   1.879   2.767
   58CHOL   C27 1793   0.294   1.855   2.726
   58CHOL   C25 1794   0.533   1.886   2.639
   58CHOL   C24 1795   0.520   1.761   2.552
   58CHOL   C23 1796   0.583   1.774   2.413
   58CHOL   C21 1797   0.526   1.892   2.333
   58CHOL   C22 1798   0.377   1.868   2.309
   59CHOL   C19 1799   3.886   3.806   2.622
   59CHOL   C17 1800   3.996   3.902   2.662
   59CHOL   C18 1801   4.055   3.856   2.793
   59CHOL   C16 1802   3.942   4.044   2.668
   59CHOL   C15 1803   4.047   4.149   2.699
   59CHOL   C14 1804   4.160   4.155   2.597
   59CHOL   C13 1805   4.169   4.294   2.533
   59CHOL   C20 1806   4.291   4.363   2.590
   59CHOL   C12 1807   4.171   4.294   2.378
   59CHOL   C11 1808   4.074   4.188   2.321
   59CHOL   C10 1809   4.008   4.241   2.195
   59CHOL    C9 1810   4.097   4.359   2.161
   59CHOL    C8 1811   4.060   4.457   2.050
   59CHOL    C7 1812   4.050   4.377   1.920
   59CHOL    C6 1813   4.035   4.461   1.800
   59CHOL    H9 1814   3.970   4.421   1.720
   59CHOL    C5 1815   4.080   4.587   1.794
   59CHOL    C4 1816   4.076   4.657   1.662
   59CHOL    C1 1817   4.214   4.721   1.638
   59CHOL    H2 1818   4.293   4.640   1.641
   59CHOL   O28 1819   4.216   4.785   1.510
   59CHOL   H74 1820   4.305   4.773   1.469
   59CHOL    C2 1821   4.242   4.823   1.748
   59CHOL    C3 1822   4.248   4.753   1.884
   59CHOL   C26 1823   4.125   4.667   1.918
   59CHOL   C27 1824   4.008   4.757   1.961
   59CHOL   C25 1825   4.166   4.567   2.033
   59CHOL   C24 1826   4.195   4.637   2.167
   59CHOL   C23 1827   4.235   4.535   2.275
   59CHOL   C21 1828   4.129   4.427   2.301
   59CHOL   C22 1829   4.008   4.492   2.369
   60CHOL   C19 1830   3.046   4.504   1.831
   60CHOL   C17 1831   2.975   4.453   1.955
   60CHOL   C18 1832   2.923   4.571   2.036
   60CHOL   C16 1833   3.066   4.358   2.031
   60CHOL   C15 1834   2.991   4.292   2.146
   60CHOL   C14 1835   3.062   4.171   2.204
   60CHOL   C13 1836   2.980   4.112   2.319
   60CHOL   C20 1837   2.922   3.980   2.270
   60CHOL   C12 1838   3.057   4.100   2.453
   60CHOL   C11 1839   3.132   4.233   2.481
   60CHOL   C10 1840   3.133   4.261   2.631
   60CHOL    C9 1841   3.088   4.129   2.689
   60CHOL    C8 1842   3.048   4.116   2.837
   60CHOL    C7 1843   3.162   4.168   2.924
   60CHOL    C6 1844   3.152   4.128   3.066
   60CHOL    H9 1845   3.220   4.183   3.133
   60CHOL    C5 1846   3.074   4.028   3.112
   60CHOL    C4 1847   3.074   3.999   3.258
   60CHOL    C1 1848   3.056   3.851   3.292
   60CHOL    H2 1849   3.153   3.796   3.273
   60CHOL   O28 1850   3.023   3.840   3.431
   60CHOL   H74 1851   2.950   3.902   3.455
   60CHOL    C2 1852   2.943   3.786   3.211
   60CHOL    C3 1853   2.963   3.809   3.061
   60CHOL   C26 1854   2.970   3.958   3.023
   60CHOL   C27 1855   2.834   4.025   3.049
   60CHOL   C25 1856   3.013   3.970   2.872
   60CHOL   C24 1857   2.907   3.914   2.776
   60CHOL   C23 1858   2.949   3.929   2.630
   60CHOL   C21 1859   2.978   4.074   2.589
   60CHOL   C22 1860   2.847   4.155   2.592
   61CHOL   C19 1861   2.936   2.483   2.491
   61CHOL   C17 1862   3.042   2.384   2.448
   61CHOL   C18 1863   3.138   2.452   2.352
   61CHOL   C16 1864   2.975   2.262   2.386
   61CHOL   C15 1865   3.074   2.153   2.352
   61CHOL   C14 1866   3.009   2.029   2.294
   61CHOL   C13 1867   2.976   2.035   2.145
   61CHOL   C20 1868   3.108   2.030   2.070
   61CHOL   C12 1869   2.877   1.923   2.113
   61CHOL   C11 1870   2.735   1.976   2.145
   61CHOL   C10 1871   2.635   1.890   2.069
   61CHOL    C9 1872   2.722   1.777   2.016
   61CHOL    C8 1873   2.666   1.681   1.912
   61CHOL    C7 1874   2.552   1.596   1.969
   61CHOL    C6 1875   2.493   1.513   1.860
   61CHOL    H9 1876   2.386   1.489   1.875
   61CHOL    C5 1877   2.558   1.477   1.748
   61CHOL    C4 1878   2.488   1.396   1.644
   61CHOL    C1 1879   2.574   1.276   1.600
   61CHOL    H2 1880   2.582   1.204   1.686
   61CHOL   O28 1881   2.512   1.211   1.489
   61CHOL   H74 1882   2.424   1.175   1.515
   61CHOL    C2 1883   2.715   1.320   1.560
   61CHOL    C3 1884   2.783   1.397   1.674
   61CHOL   C26 1885   2.703   1.521   1.718
   61CHOL   C27 1886   2.699   1.623   1.602
   61CHOL   C25 1887   2.768   1.584   1.847
   61CHOL   C24 1888   2.901   1.655   1.816
   61CHOL   C23 1889   2.954   1.740   1.932
   61CHOL   C21 1890   2.856   1.850   1.973
   61CHOL   C22 1891   2.840   1.951   1.859
   62CHOL   C19 1892   3.618   2.743   3.919
   62CHOL   C17 1893   3.713   2.779   4.032
   62CHOL   C18 1894   3.772   2.649   4.084
   62CHOL   C16 1895   3.635   2.856   4.138
   62CHOL   C15 1896   3.715   2.902   4.259
   62CHOL   C14 1897   3.807   3.020   4.234
   62CHOL   C13 1898   3.862   3.074   4.368
   62CHOL   C20 1899   4.008   3.034   4.376
   62CHOL   C12 1900   3.839   3.226   4.385
   62CHOL   C11 1901   3.688   3.257   4.370
   62CHOL   C10 1902   3.645   3.362   4.471
   62CHOL    C9 1903   3.777   3.426   4.508
   62CHOL    C8 1904   3.787   3.520   4.627
   62CHOL    C7 1905   3.685   3.633   4.614
   62CHOL    C6 1906   3.692   3.722   4.732
   62CHOL    H9 1907   3.598   3.773   4.759
   62CHOL    C5 1908   3.802   3.738   4.807
   62CHOL    C4 1909   3.797   3.834   4.921
   62CHOL    C1 1910   3.908   3.940   4.905
   62CHOL    H2 1911   3.884   4.005   4.816
   62CHOL   O28 1912   3.916   4.023   0.022
   62CHOL   H74 1913   3.853   3.993   0.094
   62CHOL    C2 1914   4.045   3.874   4.884
   62CHOL    C3 1915   4.044   3.774   4.767
   62CHOL   C26 1916   3.936   3.665   4.779
   62CHOL   C27 1917   3.973   3.578   4.901
   62CHOL   C25 1918   3.929   3.580   4.646
   62CHOL   C24 1919   4.035   3.468   4.642
   62CHOL   C23 1920   4.017   3.369   4.526
   62CHOL   C21 1921   3.878   3.304   4.518
   62CHOL   C22 1922   3.854   3.216   4.641
   63CHOL   C19 1923   0.534   0.518   4.467
   63CHOL   C17 1924   0.659   0.525   4.380
   63CHOL   C18 1925   0.744   0.643   4.424
   63CHOL   C16 1926   0.615   0.535   4.235
   63CHOL   C15 1927   0.731   0.537   4.137
   63CHOL   C14 1928   0.791   0.398   4.124
   63CHOL   C13 1929   0.922   0.401   4.046
   63CHOL   C20 1930   1.028   0.362   4.146
   63CHOL   C12 1931   0.921   0.309   3.921
   63CHOL   C11 1932   0.800   0.341   3.829
   63CHOL   C10 1933   0.836   0.308   3.685
   63CHOL    C9 1934   0.971   0.239   3.699
   63CHOL    C8 1935   1.064   0.217   3.579
   63CHOL    C7 1936   0.990   0.134   3.473
   63CHOL    C6 1937   1.080   0.086   3.365
   63CHOL    H9 1938   1.032   0.071   3.267
   63CHOL    C5 1939   1.213   0.072   3.380
   63CHOL    C4 1940   1.293   0.014   3.268
   63CHOL    C1 1941   1.387   4.906   3.322
   63CHOL    H2 1942   1.324   4.825   3.369
   63CHOL   O28 1943   1.464   4.848   3.216
   63CHOL   H74 1944   1.510   4.918   3.163
   63CHOL    C2 1945   1.480   4.964   3.428
   63CHOL    C3 1946   1.396   0.018   3.544
   63CHOL   C26 1947   1.291   0.123   3.501
   63CHOL   C27 1948   1.363   0.252   3.460
   63CHOL   C25 1949   1.194   0.145   3.622
   63CHOL   C24 1950   1.263   0.216   3.738
   63CHOL   C23 1951   1.168   0.237   3.856
   63CHOL   C21 1952   1.042   0.315   3.819
   63CHOL   C22 1953   1.078   0.461   3.785
   64CHOL   C19 1954   1.010   4.151   3.626
   64CHOL   C17 1955   0.890   4.239   3.652
   64CHOL   C18 1956   0.765   4.169   3.601
   64CHOL   C16 1957   0.913   4.375   3.588
   64CHOL   C15 1958   0.802   4.474   3.620
   64CHOL   C14 1959   0.826   4.603   3.544
   64CHOL   C13 1960   0.703   4.694   3.550
   64CHOL   C20 1961   0.714   4.776   3.677
   64CHOL   C12 1962   0.681   4.781   3.424
   64CHOL   C11 1963   0.717   4.708   3.292
   64CHOL   C10 1964   0.629   4.759   3.179
   64CHOL    C9 1965   0.558   4.878   3.242
   64CHOL    C8 1966   0.436   4.947   3.177
   64CHOL    C7 1967   0.473   4.996   3.037
   64CHOL    C6 1968   0.377   0.096   2.982
   64CHOL    H9 1969   0.371   0.097   2.872
   64CHOL    C5 1970   0.296   0.173   3.056
   64CHOL    C4 1971   0.217   0.282   2.991
   64CHOL    C1 1972   0.225   0.411   3.075
   64CHOL    H2 1973   0.332   0.447   3.080
   64CHOL   O28 1974   0.143   0.514   3.019
   64CHOL   H74 1975   0.192   0.564   2.950
   64CHOL    C2 1976   0.175   0.384   3.218
   64CHOL    C3 1977   0.262   0.278   3.284
   64CHOL   C26 1978   0.270   0.145   3.205
   64CHOL   C27 1979   0.136   0.071   3.216
   64CHOL   C25 1980   0.389   0.065   3.266
   64CHOL   C24 1981   0.359   0.017   3.408
   64CHOL   C23 1982   0.483   4.953   3.470
   64CHOL   C21 1983   0.534   4.832   3.392
   64CHOL   C22 1984   0.432   4.718   3.405
   65CHOL   C19 1985   1.517   3.960   4.006
   65CHOL   C17 1986   1.517   3.843   3.909
   65CHOL   C18 1987   1.419   3.872   3.797
   65CHOL   C16 1988   1.481   3.716   3.986
   65CHOL   C15 1989   1.503   3.585   3.912
   65CHOL   C14 1990   1.649   3.560   3.876
   65CHOL   C13 1991   1.675   3.409   3.863
   65CHOL   C20 1992   1.672   3.371   3.716
   65CHOL   C12 1993   1.800   3.354   3.936
   65CHOL   C11 1994   1.835   3.441   4.060
   65CHOL   C10 1995   1.869   3.354   4.180
   65CHOL    C9 1996   1.900   3.221   4.115
   65CHOL    C8 1997   1.919   3.094   4.198
   65CHOL    C7 1998   2.028   3.117   4.304
   65CHOL    C6 1999   2.077   2.992   4.367
   65CHOL    H9 2000   2.136   3.006   4.459
   65CHOL    C5 2001   2.056   2.869   4.316
   65CHOL    C4 2002   2.116   2.752   4.387
   65CHOL    C1 2003   2.175   2.648   4.291
   65CHOL    H2 2004   2.267   2.691   4.241
   65CHOL   O28 2005   2.211   2.530   4.363
   65CHOL   H74 2006   2.283   2.549   4.429
   65CHOL    C2 2007   2.072   2.609   4.184
   65CHOL    C3 2008   2.028   2.732   4.106
   65CHOL   C26 2009   1.966   2.842   4.194
   65CHOL   C27 2010   1.828   2.795   4.243
   65CHOL   C25 2011   1.957   2.974   4.108
   65CHOL   C24 2012   1.864   2.960   3.988
   65CHOL   C23 2013   1.850   3.092   3.911
   65CHOL   C21 2014   1.796   3.207   3.997
   65CHOL   C22 2015   1.654   3.173   4.043
   66CHOL   C19 2016   3.538   1.549   0.598
   66CHOL   C17 2017   3.624   1.646   0.675
   66CHOL   C18 2018   3.736   1.570   0.743
   66CHOL   C16 2019   3.537   1.724   0.773
   66CHOL   C15 2020   3.612   1.836   0.843
   66CHOL   C14 2021   3.652   1.948   0.749
   66CHOL   C13 2022   3.724   2.059   0.827
   66CHOL   C20 2023   3.871   2.049   0.792
   66CHOL   C12 2024   3.664   2.200   0.804
   66CHOL   C11 2025   3.512   2.194   0.829
   66CHOL   C10 2026   3.465   2.321   0.899
   66CHOL    C9 2027   3.581   2.414   0.868
   66CHOL    C8 2028   3.586   2.555   0.927
   66CHOL    C7 2029   3.463   2.632   0.878
   66CHOL    C6 2030   3.470   2.776   0.914
   66CHOL    H9 2031   3.373   2.825   0.933
   66CHOL    C5 2032   3.584   2.843   0.936
   66CHOL    C4 2033   3.575   2.989   0.966
   66CHOL    C1 2034   3.691   3.068   0.904
   66CHOL    H2 2035   3.680   3.070   0.792
   66CHOL   O28 2036   3.691   3.203   0.953
   66CHOL   H74 2037   3.599   3.240   0.952
   66CHOL    C2 2038   3.825   3.004   0.941
   66CHOL    C3 2039   3.830   2.858   0.892
   66CHOL   C26 2040   3.719   2.771   0.955
   66CHOL   C27 2041   3.746   2.756   1.105
   66CHOL   C25 2042   3.715   2.630   0.885
   66CHOL   C24 2043   3.839   2.545   0.913
   66CHOL   C23 2044   3.831   2.407   0.848
   66CHOL   C21 2045   3.710   2.324   0.893
   66CHOL   C22 2046   3.729   2.283   1.040
   67CHOL   C19 2047   3.239   1.241   3.852
   67CHOL   C17 2048   3.225   1.091   3.835
   67CHOL   C18 2049   3.347   1.022   3.892
   67CHOL   C16 2050   3.208   1.062   3.687
   67CHOL   C15 2051   3.169   0.920   3.654
   67CHOL   C14 2052   3.028   0.886   3.699
   67CHOL   C13 2053   2.997   0.743   3.655
   67CHOL   C20 2054   3.017   0.655   3.776
   67CHOL   C12 2055   2.860   0.723   3.587
   67CHOL   C11 2056   2.829   0.839   3.488
   67CHOL   C10 2057   2.744   0.786   3.373
   67CHOL    C9 2058   2.707   0.647   3.419
   67CHOL    C8 2059   2.647   0.547   3.321
   67CHOL    C7 2060   2.511   0.592   3.268
   67CHOL    C6 2061   2.453   0.493   3.173
   67CHOL    H9 2062   2.391   0.535   3.092
   67CHOL    C5 2063   2.481   0.362   3.176
   67CHOL    C4 2064   2.418   0.268   3.077
   67CHOL    C1 2065   2.382   0.132   3.140
   67CHOL    H2 2066   2.290   0.144   3.205
   67CHOL   O28 2067   2.356   0.035   3.039
   67CHOL   H74 2068   2.270   0.053   2.993
   67CHOL    C2 2069   2.497   0.075   3.222
   67CHOL    C3 2070   2.546   0.174   3.327
   67CHOL   C26 2071   2.593   0.306   3.265
   67CHOL   C27 2072   2.713   0.281   3.173
   67CHOL   C25 2073   2.631   0.405   3.380
   67CHOL   C24 2074   2.756   0.359   3.455
   67CHOL   C23 2075   2.805   0.462   3.557
   67CHOL   C21 2076   2.838   0.597   3.494
   67CHOL   C22 2077   2.960   0.579   3.402
   68CHOL   C19 2078   0.619   3.220   3.481
   68CHOL   C17 2079   0.655   3.097   3.401
   68CHOL   C18 2080   0.733   3.139   3.279
   68CHOL   C16 2081   0.527   3.024   3.366
   68CHOL   C15 2082   0.546   2.893   3.292
   68CHOL   C14 2083   0.409   2.833   3.264
   68CHOL   C13 2084   0.418   2.696   3.197
   68CHOL   C20 2085   0.432   2.595   3.310
   68CHOL   C12 2086   0.296   2.667   3.108
   68CHOL   C11 2087   0.276   2.778   3.002
   68CHOL   C10 2088   0.212   2.717   2.878
   68CHOL    C9 2089   0.165   2.582   2.928
   68CHOL    C8 2090   0.112   2.473   2.834
   68CHOL    C7 2091   4.988   2.523   2.760
   68CHOL    C6 2092   4.927   2.418   2.674
   68CHOL    H9 2093   4.875   2.455   2.584
   68CHOL    C5 2094   4.942   2.287   2.696
   68CHOL    C4 2095   4.879   2.190   2.600
   68CHOL    C1 2096   4.826   2.064   2.670
   68CHOL    H2 2097   4.728   2.089   2.720
   68CHOL   O28 2098   4.804   1.963   2.571
   68CHOL   H74 2099   4.707   1.938   2.571
   68CHOL    C2 2100   4.923   2.006   2.773
   68CHOL    C3 2101   4.970   2.112   2.872
   68CHOL   C26 2102   0.037   2.232   2.802
   68CHOL   C27 2103   0.163   2.185   2.727
   68CHOL   C25 2104   0.073   2.343   2.908
   68CHOL   C24 2105   0.185   2.297   3.001
   68CHOL   C23 2106   0.234   2.408   3.094
   68CHOL   C21 2107   0.283   2.534   3.022
   68CHOL   C22 2108   0.414   2.504   2.947
   69CHOL   C19 2109   3.828   2.281   2.767
   69CHOL   C17 2110   3.855   2.215   2.633
   69CHOL   C18 2111   3.950   2.099   2.652
   69CHOL   C16 2112   3.912   2.319   2.538
   69CHOL   C15 2113   3.920   2.274   2.393
   69CHOL   C14 2114   3.784   2.270   2.325
   69CHOL   C13 2115   3.798   2.267   2.172
   69CHOL   C20 2116   3.761   2.128   2.124
   69CHOL   C12 2117   3.719   2.379   2.101
   69CHOL   C11 2118   3.754   2.516   2.166
   69CHOL   C10 2119   3.755   2.624   2.059
   69CHOL    C9 2120   3.685   2.557   1.943
   69CHOL    C8 2121   3.681   2.621   1.804
   69CHOL    C7 2122   3.612   2.758   1.813
   69CHOL    C6 2123   3.587   2.819   1.680
   69CHOL    H9 2124   3.591   2.928   1.680
   69CHOL    C5 2125   3.573   2.748   1.567
   69CHOL    C4 2126   3.540   2.819   1.440
   69CHOL    C1 2127   3.434   2.742   1.359
   69CHOL    H2 2128   3.334   2.747   1.413
   69CHOL   O28 2129   3.420   2.799   1.229
   69CHOL   H74 2130   3.350   2.869   1.226
   69CHOL    C2 2131   3.476   2.596   1.339
   69CHOL    C3 2132   3.500   2.527   1.473
   69CHOL   C26 2133   3.606   2.598   1.559
   69CHOL   C27 2134   3.742   2.584   1.491
   69CHOL   C25 2135   3.605   2.533   1.702
   69CHOL   C24 2136   3.659   2.390   1.703
   69CHOL   C23 2137   3.659   2.329   1.843
   69CHOL   C21 2138   3.741   2.408   1.946
   69CHOL   C22 2139   3.890   2.398   1.910
   70CHOL   C19 2140   3.195   1.705   4.442
   70CHOL   C17 2141   3.260   1.670   4.309
   70CHOL   C18 2142   3.239   1.523   4.278
   70CHOL   C16 2143   3.407   1.709   4.317
   70CHOL   C15 2144   3.482   1.692   4.186
   70CHOL   C14 2145   3.431   1.783   4.076
   70CHOL   C13 2146   3.492   1.741   3.942
   70CHOL   C20 2147   3.398   1.638   3.881
   70CHOL   C12 2148   3.524   1.858   3.847
   70CHOL   C11 2149   3.600   1.970   3.921
   70CHOL   C10 2150   3.717   2.018   3.836
   70CHOL    C9 2151   3.677   1.974   3.697
   70CHOL    C8 2152   3.777   1.971   3.582
   70CHOL    C7 2153   3.858   2.101   3.578
   70CHOL    C6 2154   3.944   2.106   3.458
   70CHOL    H9 2155   4.039   2.159   3.473
   70CHOL    C5 2156   3.916   2.043   3.343
   70CHOL    C4 2157   4.006   2.065   3.226
   70CHOL    C1 2158   3.923   2.103   3.102
   70CHOL    H2 2159   3.879   2.206   3.116
   70CHOL   O28 2160   4.008   2.103   2.988
   70CHOL   H74 2161   4.049   2.014   2.976
   70CHOL    C2 2162   3.809   2.005   3.077
   70CHOL    C3 2163   3.720   1.986   3.201
   70CHOL   C26 2164   3.800   1.944   3.326
   70CHOL   C27 2165   3.861   1.804   3.302
   70CHOL   C25 2166   3.702   1.946   3.449
   70CHOL   C24 2167   3.621   1.816   3.459
   70CHOL   C23 2168   3.535   1.806   3.585
   70CHOL   C21 2169   3.610   1.833   3.716
   70CHOL   C22 2170   3.714   1.723   3.739
   71CHOL   C19 2171   0.528   4.112   0.398
   71CHOL   C17 2172   0.506   4.233   0.309
   71CHOL   C18 2173   0.534   4.358   0.390
   71CHOL   C16 2174   0.364   4.233   0.257
   71CHOL   C15 2175   0.337   4.342   0.154
   71CHOL   C14 2176   0.407   4.315   0.022
   71CHOL   C13 2177   0.388   4.434   4.927
   71CHOL   C20 2178   0.522   4.507   4.922
   71CHOL   C12 2179   0.336   4.391   4.788
   71CHOL   C11 2180   0.202   4.315   4.803
   71CHOL   C10 2181   0.115   4.341   4.680
   71CHOL    C9 2182   0.215   4.404   4.583
   71CHOL    C8 2183   0.169   4.466   4.451
   71CHOL    C7 2184   0.105   4.361   4.359
   71CHOL    C6 2185   0.073   4.413   4.223
   71CHOL    H9 2186   0.010   4.347   4.163
   71CHOL    C5 2187   0.129   4.524   4.171
   71CHOL    C4 2188   0.091   4.569   4.033
   71CHOL    C1 2189   0.215   4.611   3.952
   71CHOL    H2 2190   0.279   4.520   3.932
   71CHOL   O28 2191   0.175   4.669   3.827
   71CHOL   H74 2192   0.172   4.598   3.759
   71CHOL    C2 2193   0.298   4.714   4.028
   71CHOL    C3 2194   0.345   4.655   4.161
   71CHOL   C26 2195   0.227   4.612   4.251
   71CHOL   C27 2196   0.151   4.736   4.297
   71CHOL   C25 2197   0.285   4.534   4.374
   71CHOL   C24 2198   0.367   4.626   4.465
   71CHOL   C23 2199   0.417   4.555   4.591
   71CHOL   C21 2200   0.303   4.498   4.676
   71CHOL   C22 2201   0.225   4.616   4.736
   72CHOL   C19 2202   3.174   3.110   2.241
   72CHOL   C17 2203   3.076   3.152   2.349
   72CHOL   C18 2204   3.063   3.303   2.351
   72CHOL   C16 2205   3.126   3.096   2.481
   72CHOL   C15 2206   3.029   3.115   2.597
   72CHOL   C14 2207   2.896   3.045   2.574
   72CHOL   C13 2208   2.808   3.059   2.698
   72CHOL   C20 2209   2.748   3.199   2.698
   72CHOL   C12 2210   2.703   2.948   2.713
   72CHOL   C11 2211   2.768   2.808   2.700
   72CHOL   C10 2212   2.695   2.708   2.790
   72CHOL    C9 2213   2.574   2.787   2.838
   72CHOL    C8 2214   2.486   2.742   2.955
   72CHOL    C7 2215   2.428   2.604   2.926
   72CHOL    C6 2216   2.332   2.559   3.031
   72CHOL    H9 2217   2.318   2.451   3.041
   72CHOL    C5 2218   2.265   2.644   3.112
   72CHOL    C4 2219   2.166   2.588   3.208
   72CHOL    C1 2220   2.033   2.665   3.197
   72CHOL    H2 2221   1.991   2.650   3.093
   72CHOL   O28 2222   1.939   2.618   3.293
   72CHOL   H74 2223   1.974   2.627   3.386
   72CHOL    C2 2224   2.056   2.815   3.218
   72CHOL    C3 2225   2.155   2.869   3.113
   72CHOL   C26 2226   2.290   2.796   3.111
   72CHOL   C27 2227   2.370   2.832   3.237
   72CHOL   C25 2228   2.368   2.838   2.981
   72CHOL   C24 2229   2.413   2.983   2.986
   72CHOL   C23 2230   2.499   3.024   2.866
   72CHOL   C21 2231   2.623   2.936   2.849
   72CHOL   C22 2232   2.718   2.959   2.968
   73CHOL   C19 2233   3.392   4.653   3.030
   73CHOL   C17 2234   3.508   4.648   3.128
   73CHOL   C18 2235   3.467   4.565   3.249
   73CHOL   C16 2236   3.546   4.789   3.169
   73CHOL   C15 2237   3.682   4.798   3.237
   73CHOL   C14 2238   3.791   4.817   3.133
   73CHOL   C13 2239   3.909   4.722   3.160
   73CHOL   C20 2240   3.908   4.621   3.047
   73CHOL   C12 2241   4.048   4.785   3.177
   73CHOL   C11 2242   4.038   4.920   3.252
   73CHOL   C10 2243   4.160   4.938   3.341
   73CHOL    C9 2244   4.250   4.823   3.303
   73CHOL    C8 2245   4.361   4.780   3.398
   73CHOL    C7 2246   4.457   4.894   3.431
   73CHOL    C6 2247   4.562   4.850   3.527
   73CHOL    H9 2248   4.608   4.932   3.584
   73CHOL    C5 2249   4.600   4.722   3.543
   73CHOL    C4 2250   4.706   4.688   3.642
   73CHOL    C1 2251   4.809   4.590   3.583
   73CHOL    H2 2252   4.869   4.644   3.504
   73CHOL   O28 2253   4.897   4.545   3.686
   73CHOL   H74 2254   4.958   4.617   3.712
   73CHOL    C2 2255   4.741   4.468   3.520
   73CHOL    C3 2256   4.638   4.510   3.414
   73CHOL   C26 2257   4.530   4.605   3.469
   73CHOL   C27 2258   4.443   4.532   3.573
   73CHOL   C25 2259   4.443   4.658   3.349
   73CHOL   C24 2260   4.352   4.547   3.292
   73CHOL   C23 2261   4.240   4.598   3.201
   73CHOL   C21 2262   4.152   4.705   3.267
   73CHOL   C22 2263   4.080   4.645   3.389
   74CHOL   C19 2264   1.897   0.734   0.278
   74CHOL   C17 2265   1.755   0.724   0.227
   74CHOL   C18 2266   1.668   0.821   0.304
   74CHOL   C16 2267   1.705   0.582   0.243
   74CHOL   C15 2268   1.596   0.545   0.145
   74CHOL   C14 2269   1.655   0.491   0.015
   74CHOL   C13 2270   1.548   0.427   4.926
   74CHOL   C20 2271   1.541   0.512   4.800
   74CHOL   C12 2272   1.577   0.279   4.894
   74CHOL   C11 2273   1.598   0.200   0.026
   74CHOL   C10 2274   1.547   0.058   0.008
   74CHOL    C9 2275   1.533   0.049   4.857
   74CHOL    C8 2276   1.468   4.927   4.792
   74CHOL    C7 2277   1.551   4.803   4.826
   74CHOL    C6 2278   1.500   4.682   4.757
   74CHOL    H9 2279   1.513   4.589   4.814
   74CHOL    C5 2280   1.430   4.685   4.642
   74CHOL    C4 2281   1.392   4.556   4.578
   74CHOL    C1 2282   1.426   4.559   4.428
   74CHOL    H2 2283   1.538   4.564   4.416
   74CHOL   O28 2284   1.378   4.439   4.365
   74CHOL   H74 2285   1.432   4.361   4.397
   74CHOL    C2 2286   1.360   4.679   4.361
   74CHOL    C3 2287   1.406   4.810   4.426
   74CHOL   C26 2288   1.379   4.816   4.578
   74CHOL   C27 2289   1.227   4.825   4.602
   74CHOL   C25 2290   1.456   4.940   4.639
   74CHOL   C24 2291   1.392   0.074   4.600
   74CHOL   C23 2292   1.465   0.193   4.663
   74CHOL   C21 2293   1.470   0.188   4.817
   74CHOL   C22 2294   1.329   0.210   4.874
   75CHOL   C19 2295   4.443   2.249   1.821
   75CHOL   C17 2296   4.361   2.332   1.726
   75CHOL   C18 2297   4.265   2.421   1.803
   75CHOL   C16 2298   4.290   2.240   1.628
   75CHOL   C15 2299   4.256   2.311   1.498
   75CHOL   C14 2300   4.380   2.335   1.414
   75CHOL   C13 2301   4.341   2.383   1.274
   75CHOL   C20 2302   4.407   2.518   1.249
   75CHOL   C12 2303   4.372   2.284   1.160
   75CHOL   C11 2304   4.346   2.137   1.202
   75CHOL   C10 2305   4.282   2.060   1.087
   75CHOL    C9 2306   4.317   2.150   0.970
   75CHOL    C8 2307   4.258   2.124   0.833
   75CHOL    C7 2308   4.301   1.984   0.787
   75CHOL    C6 2309   4.255   1.956   0.648
   75CHOL    H9 2310   4.249   1.850   0.620
   75CHOL    C5 2311   4.228   2.053   0.559
   75CHOL    C4 2312   4.189   2.013   0.421
   75CHOL    C1 2313   4.265   2.091   0.314
   75CHOL    H2 2314   4.374   2.058   0.312
   75CHOL   O28 2315   4.208   2.067   0.185
   75CHOL   H74 2316   4.188   1.971   0.174
   75CHOL    C2 2317   4.257   2.241   0.341
   75CHOL    C3 2318   4.308   2.275   0.481
   75CHOL   C26 2319   4.230   2.203   0.592
   75CHOL   C27 2320   4.085   2.256   0.592
   75CHOL   C25 2321   4.303   2.229   0.729
   75CHOL   C24 2322   4.281   2.372   0.779
   75CHOL   C23 2323   4.343   2.395   0.917
   75CHOL   C21 2324   4.291   2.297   1.024
   75CHOL   C22 2325   4.143   2.326   1.052
   76CHOL   C19 2326   2.467   0.261   3.717
   76CHOL   C17 2327   2.493   0.391   3.790
   76CHOL   C18 2328   2.612   0.373   3.884
   76CHOL   C16 2329   2.367   0.432   3.863
   76CHOL   C15 2330   2.372   0.575   3.916
   76CHOL   C14 2331   2.369   0.680   3.806
   76CHOL   C13 2332   2.343   0.817   3.869
   76CHOL   C20 2333   2.474   0.894   3.869
   76CHOL   C12 2334   2.229   0.897   3.802
   76CHOL   C11 2335   2.106   0.808   3.773
   76CHOL   C10 2336   1.981   0.896   3.770
   76CHOL    C9 2337   2.039   1.036   3.781
   76CHOL    C8 2338   1.949   1.156   3.816
   76CHOL    C7 2339   1.838   1.170   3.712
   76CHOL    C6 2340   1.755   1.290   3.737
   76CHOL    H9 2341   1.650   1.280   3.706
   76CHOL    C5 2342   1.799   1.400   3.801
   76CHOL    C4 2343   1.710   1.520   3.810
   76CHOL    C1 2344   1.788   1.647   3.773
   76CHOL    H2 2345   1.817   1.642   3.664
   76CHOL   O28 2346   1.708   1.763   3.796
   76CHOL   H74 2347   1.643   1.773   3.722
   76CHOL    C2 2348   1.914   1.660   3.858
   76CHOL    C3 2349   2.004   1.537   3.843
   76CHOL   C26 2350   1.933   1.404   3.876
   76CHOL   C27 2351   1.905   1.396   4.027
   76CHOL   C25 2352   2.028   1.288   3.826
   76CHOL   C24 2353   2.150   1.272   3.917
   76CHOL   C23 2354   2.239   1.155   3.877
   76CHOL   C21 2355   2.165   1.021   3.876
   76CHOL   C22 2356   2.131   0.984   4.020
   77CHOL   C19 2357   4.113   0.554   3.951
   77CHOL   C17 2358   4.059   0.635   4.067
   77CHOL   C18 2359   4.011   0.770   4.016
   77CHOL   C16 2360   4.167   0.648   4.173
   77CHOL   C15 2361   4.119   0.710   4.304
   77CHOL   C14 2362   4.035   0.615   4.388
   77CHOL   C13 2363   3.998   0.679   4.523
   77CHOL   C20 2364   3.847   0.692   4.525
   77CHOL   C12 2365   4.049   0.602   4.647
   77CHOL   C11 2366   4.195   0.554   4.628
   77CHOL   C10 2367   4.255   0.527   4.765
   77CHOL    C9 2368   4.138   0.552   4.858
   77CHOL    C8 2369   4.159   0.565   0.008
   77CHOL    C7 2370   4.219   0.435   0.061
   77CHOL    C6 2371   4.226   0.431   0.210
   77CHOL    H9 2372   4.310   0.374   0.249
   77CHOL    C5 2373   4.148   0.505   0.291
   77CHOL    C4 2374   4.163   0.489   0.439
   77CHOL    C1 2375   4.028   0.501   0.512
   77CHOL    H2 2376   3.965   0.409   0.491
   77CHOL   O28 2377   4.051   0.511   0.653
   77CHOL   H74 2378   4.071   0.421   0.691
   77CHOL    C2 2379   3.952   0.627   0.469
   77CHOL    C3 2380   3.930   0.626   0.318
   77CHOL   C26 2381   4.061   0.620   0.238
   77CHOL   C27 2382   4.138   0.751   0.259
   77CHOL   C25 2383   4.029   0.596   0.085
   77CHOL   C24 2384   3.954   0.713   0.021
   77CHOL   C23 2385   3.929   0.691   4.872
   77CHOL   C21 2386   4.057   0.670   4.790
   77CHOL   C22 2387   4.132   0.804   4.783
   78CHOL   C19 2388   2.512   0.178   4.941
   78CHOL   C17 2389   2.463   0.136   0.078
   78CHOL   C18 2390   2.582   0.097   0.164
   78CHOL   C16 2391   2.365   0.021   0.061
   78CHOL   C15 2392   2.296   4.977   0.189
   78CHOL   C14 2393   2.197   0.078   0.246
   78CHOL   C13 2394   2.110   0.009   0.353
   78CHOL   C20 2395   2.136   0.075   0.487
   78CHOL   C12 2396   1.959   4.999   0.321
   78CHOL   C11 2397   1.938   4.976   0.169
   78CHOL   C10 2398   1.857   4.850   0.147
   78CHOL    C9 2399   1.770   4.856   0.270
   78CHOL    C8 2400   1.669   4.746   0.301
   78CHOL    C7 2401   1.582   4.727   0.176
   78CHOL    C6 2402   1.466   4.640   0.199
   78CHOL    H9 2403   1.431   4.584   0.111
   78CHOL    C5 2404   1.410   4.623   0.319
   78CHOL    C4 2405   1.284   4.544   0.326
   78CHOL    C1 2406   1.178   4.624   0.400
   78CHOL    H2 2407   1.157   4.720   0.343
   78CHOL   O28 2408   1.059   4.546   0.407
   78CHOL   H74 2409   0.981   4.604   0.422
   78CHOL    C2 2410   1.228   4.658   0.541
   78CHOL    C3 2411   1.358   4.740   0.534
   78CHOL   C26 2412   1.471   4.675   0.451
   78CHOL   C27 2413   1.524   4.555   0.529
   78CHOL   C25 2414   1.583   4.784   0.423
   78CHOL   C24 2415   1.676   4.810   0.543
   78CHOL   C23 2416   1.786   4.914   0.513
   78CHOL   C21 2417   1.871   4.883   0.389
   78CHOL   C22 2418   1.959   4.761   0.419
   79CHOL   C19 2419   1.188   1.985   2.551
   79CHOL   C17 2420   1.244   1.852   2.596
   79CHOL   C18 2421   1.238   1.849   2.747
   79CHOL   C16 2422   1.387   1.838   2.545
   79CHOL   C15 2423   1.449   1.702   2.576
   79CHOL   C14 2424   1.413   1.595   2.474
   79CHOL   C13 2425   1.482   1.463   2.511
   79CHOL   C20 2426   1.373   1.361   2.536
   79CHOL   C12 2427   1.586   1.412   2.409
   79CHOL   C11 2428   1.676   1.527   2.358
   79CHOL   C10 2429   1.815   1.473   2.324
   79CHOL    C9 2430   1.791   1.323   2.329
   79CHOL    C8 2431   1.908   1.226   2.320
   79CHOL    C7 2432   1.977   1.240   2.184
   79CHOL    C6 2433   2.080   1.136   2.159
   79CHOL    H9 2434   2.160   1.165   2.089
   79CHOL    C5 2435   2.083   1.017   2.221
   79CHOL    C4 2436   2.187   0.918   2.182
   79CHOL    C1 2437   2.129   0.775   2.180
   79CHOL    H2 2438   2.051   0.768   2.097
   79CHOL   O28 2439   2.233   0.680   2.155
   79CHOL   H74 2440   2.243   0.669   2.056
   79CHOL    C2 2441   2.064   0.741   2.313
   79CHOL    C3 2442   1.950   0.840   2.341
   79CHOL   C26 2443   1.995   0.987   2.344
   79CHOL   C27 2444   2.080   1.009   2.469
   79CHOL   C25 2445   1.867   1.078   2.341
   79CHOL   C24 2446   1.779   1.062   2.466
   79CHOL   C23 2447   1.657   1.155   2.461
   79CHOL   C21 2448   1.695   1.304   2.454
   79CHOL   C22 2449   1.756   1.343   2.589
   80CHOL   C19 2450   2.542   4.657   1.004
   80CHOL   C17 2451   2.619   4.779   1.048
   80CHOL   C18 2452   2.601   4.888   0.944
   80CHOL   C16 2453   2.764   4.744   1.076
   80CHOL   C15 2454   2.828   4.857   1.153
   80CHOL   C14 2455   2.969   4.826   1.198
   80CHOL   C13 2456   3.010   4.932   1.302
   80CHOL   C20 2457   2.965   4.879   1.437
   80CHOL   C12 2458   3.160   4.965   1.303
   80CHOL   C11 2459   3.210   0.001   1.162
   80CHOL   C10 2460   3.339   0.081   1.175
   80CHOL    C9 2461   3.360   0.087   1.325
   80CHOL    C8 2462   3.459   0.185   1.389
   80CHOL    C7 2463   3.600   0.156   1.336
   80CHOL    C6 2464   3.708   0.220   1.415
   80CHOL    H9 2465   3.801   0.240   1.359
   80CHOL    C5 2466   3.694   0.262   1.542
   80CHOL    C4 2467   3.813   0.315   1.615
   80CHOL    C1 2468   3.818   0.255   1.756
   80CHOL    H2 2469   3.828   0.142   1.746
   80CHOL   O28 2470   3.931   0.305   1.828
   80CHOL   H74 2471   3.919   0.400   1.857
   80CHOL    C2 2472   3.690   0.283   1.834
   80CHOL    C3 2473   3.571   0.223   1.760
   80CHOL   C26 2474   3.558   0.268   1.613
   80CHOL   C27 2475   3.509   0.414   1.609
   80CHOL   C25 2476   3.457   0.171   1.543
   80CHOL   C24 2477   3.316   0.184   1.600
   80CHOL   C23 2478   3.225   0.078   1.539
   80CHOL   C21 2479   3.213   0.088   1.387
   80CHOL   C22 2480   3.128   0.212   1.355
   81CHOL   C19 2481   0.836   4.792   0.949
   81CHOL   C17 2482   0.981   4.825   0.977
   81CHOL   C18 2483   1.070   4.780   0.862
   81CHOL   C16 2484   1.022   4.761   1.109
   81CHOL   C15 2485   1.144   4.825   1.173
   81CHOL   C14 2486   1.112   4.963   1.226
   81CHOL   C13 2487   1.230   0.016   1.307
   81CHOL   C20 2488   1.313   0.107   1.218
   81CHOL   C12 2489   1.192   0.080   1.443
   81CHOL   C11 2490   1.077   0.004   1.513
   81CHOL   C10 2491   1.103   4.994   1.663
   81CHOL    C9 2492   1.217   0.092   1.685
   81CHOL    C8 2493   1.300   0.088   1.814
   81CHOL    C7 2494   1.219   0.110   1.942
   81CHOL    C6 2495   1.307   0.105   2.062
   81CHOL    H9 2496   1.253   0.086   2.156
   81CHOL    C5 2497   1.441   0.120   2.060
   81CHOL    C4 2498   1.518   0.112   2.188
   81CHOL    C1 2499   1.624   0.223   2.195
   81CHOL    H2 2500   1.570   0.322   2.198
   81CHOL   O28 2501   1.707   0.211   2.311
   81CHOL   H74 2502   1.654   0.209   2.393
   81CHOL    C2 2503   1.714   0.218   2.072
   81CHOL    C3 2504   1.632   0.241   1.946
   81CHOL   C26 2505   1.520   0.137   1.927
   81CHOL   C27 2506   1.588   0.005   1.889
   81CHOL   C25 2507   1.421   0.185   1.815
   81CHOL   C24 2508   1.493   0.196   1.680
   81CHOL   C23 2509   1.400   0.200   1.558
   81CHOL   C21 2510   1.305   0.081   1.554
   81CHOL   C22 2511   1.385   4.949   1.546
   82CHOL   C19 2512   0.212   2.041   3.965
   82CHOL   C17 2513   0.134   1.940   3.883
   82CHOL   C18 2514   0.198   1.802   3.893
   82CHOL   C16 2515   0.127   1.986   3.739
   82CHOL   C15 2516   0.007   1.929   3.667
   82CHOL   C14 2517   4.880   2.008   3.697
   82CHOL   C13 2518   4.777   1.983   3.586
   82CHOL   C20 2519   4.656   1.914   3.648
   82CHOL   C12 2520   4.738   2.106   3.501
   82CHOL   C11 2521   4.856   2.206   3.484
   82CHOL   C10 2522   4.855   2.264   3.343
   82CHOL    C9 2523   4.716   2.228   3.296
   82CHOL    C8 2524   4.672   2.247   3.150
   82CHOL    C7 2525   4.695   2.394   3.112
   82CHOL    C6 2526   4.622   2.438   2.991
   82CHOL    H9 2527   4.667   2.524   2.939
   82CHOL    C5 2528   4.513   2.377   2.943
   82CHOL    C4 2529   4.438   2.442   2.831
   82CHOL    C1 2530   4.287   2.436   2.859
   82CHOL    H2 2531   4.265   2.492   2.955
   82CHOL   O28 2532   4.211   2.494   2.753
   82CHOL   H74 2533   4.218   2.593   2.757
   82CHOL    C2 2534   4.243   2.291   2.876
   82CHOL    C3 2535   4.314   2.232   2.998
   82CHOL   C26 2536   4.468   2.238   2.991
   82CHOL   C27 2537   4.516   2.135   2.888
   82CHOL   C25 2538   4.523   2.209   3.135
   82CHOL   C24 2539   4.499   2.065   3.181
   82CHOL   C23 2540   4.546   2.044   3.325
   82CHOL   C21 2541   4.693   2.082   3.351
   82CHOL   C22 2542   4.784   1.979   3.283
   83CHOL   C19 2543   3.318   2.545   3.608
   83CHOL   C17 2544   3.231   2.428   3.568
   83CHOL   C18 2545   3.281   2.374   3.435
   83CHOL   C16 2546   3.086   2.471   3.565
   83CHOL   C15 2547   2.996   2.352   3.537
   83CHOL   C14 2548   2.849   2.388   3.527
   83CHOL   C13 2549   2.775   2.262   3.480
   83CHOL   C20 2550   2.718   2.194   3.602
   83CHOL   C12 2551   2.677   2.273   3.363
   83CHOL   C11 2552   2.675   2.414   3.297
   83CHOL   C10 2553   2.651   2.397   3.147
   83CHOL    C9 2554   2.607   2.253   3.136
   83CHOL    C8 2555   2.594   2.185   2.999
   83CHOL    C7 2556   2.488   2.259   2.917
   83CHOL    C6 2557   2.447   2.189   2.793
   83CHOL    H9 2558   2.401   2.253   2.716
   83CHOL    C5 2559   2.466   2.058   2.772
   83CHOL    C4 2560   2.411   1.998   2.646
   83CHOL    C1 2561   2.351   1.860   2.674
   83CHOL    H2 2562   2.264   1.871   2.745
   83CHOL   O28 2563   2.304   1.800   2.552
   83CHOL   H74 2564   2.221   1.751   2.568
   83CHOL    C2 2565   2.457   1.770   2.738
   83CHOL    C3 2566   2.494   1.829   2.874
   83CHOL   C26 2567   2.553   1.971   2.866
   83CHOL   C27 2568   2.693   1.963   2.806
   83CHOL   C25 2569   2.555   2.036   3.010
   83CHOL   C24 2570   2.645   1.962   3.109
   83CHOL   C23 2571   2.650   2.031   3.246
   83CHOL   C21 2572   2.699   2.176   3.239
   83CHOL   C22 2573   2.847   2.174   3.200
   84CHOL   C19 2574   4.822   1.502   1.994
   84CHOL   C17 2575   4.951   1.423   1.988
   84CHOL   C18 2576   0.056   1.498   2.068
   84CHOL   C16 2577   4.992   1.409   1.842
   84CHOL   C15 2578   0.117   1.326   1.818
   84CHOL   C14 2579   0.091   1.177   1.826
   84CHOL   C13 2580   0.208   1.099   1.765
   84CHOL   C20 2581   0.278   1.022   1.876
   84CHOL   C12 2582   0.168   1.008   1.648
   84CHOL   C11 2583   0.080   1.086   1.547
   84CHOL   C10 2584   0.119   1.049   1.404
   84CHOL    C9 2585   0.194   0.919   1.426
   84CHOL    C8 2586   0.271   0.854   1.311
   84CHOL    C7 2587   0.174   0.830   1.195
   84CHOL    C6 2588   0.232   0.742   1.091
   84CHOL    H9 2589   0.186   0.754   0.991
   84CHOL    C5 2590   0.334   0.657   1.111
   84CHOL    C4 2591   0.370   0.563   1.002
   84CHOL    C1 2592   0.365   0.421   1.060
   84CHOL    H2 2593   0.263   0.405   1.106
   84CHOL   O28 2594   0.387   0.321   0.960
   84CHOL   H74 2595   0.342   0.238   0.986
   84CHOL    C2 2596   0.470   0.409   1.170
   84CHOL    C3 2597   0.434   0.504   1.285
   84CHOL   C26 2598   0.415   0.651   1.243
   84CHOL   C27 2599   0.554   0.711   1.221
   84CHOL   C25 2600   0.335   0.721   1.358
   84CHOL   C24 2601   0.420   0.742   1.484
   84CHOL   C23 2602   0.340   0.809   1.596
   84CHOL   C21 2603   0.281   0.945   1.555
   84CHOL   C22 2604   0.394   1.045   1.532
   85CHOL   C19 2605   0.024   4.910   0.038
   85CHOL   C17 2606   4.941   4.787   0.008
   85CHOL   C18 2607   0.015   4.670   0.071
   85CHOL   C16 2608   4.930   4.762   4.858
   85CHOL   C15 2609   4.816   4.830   4.784
   85CHOL   C14 2610   4.838   4.978   4.755
   85CHOL   C13 2611   4.766   0.016   4.625
   85CHOL   C20 2612   4.636   0.085   4.657
   85CHOL   C12 2613   4.850   0.093   4.520
   85CHOL   C11 2614   0.002   0.092   4.550
   85CHOL   C10 2615   0.081   0.070   4.422
   85CHOL    C9 2616   4.977   0.097   4.314
   85CHOL    C8 2617   0.002   0.053   4.169
   85CHOL    C7 2618   0.135   0.106   4.117
   85CHOL    C6 2619   0.156   0.074   3.973
   85CHOL    H9 2620   0.259   0.086   3.938
   85CHOL    C5 2621   0.056   0.043   3.888
   85CHOL    C4 2622   0.090   0.013   3.746
   85CHOL    C1 2623   4.990   0.075   3.648
   85CHOL    H2 2624   0.007   0.187   3.643
   85CHOL   O28 2625   0.012   0.020   3.518
   85CHOL   H74 2626   4.963   0.073   3.450
   85CHOL    C2 2627   4.845   0.046   3.688
   85CHOL    C3 2628   4.817   0.093   3.831
   85CHOL   C26 2629   4.910   0.026   3.934
   85CHOL   C27 2630   4.880   4.875   3.938
   85CHOL   C25 2631   4.887   0.094   4.074
   85CHOL   C24 2632   4.750   0.057   4.133
   85CHOL   C23 2633   4.732   0.094   4.280
   85CHOL   C21 2634   4.842   0.039   4.371
   85CHOL   C22 2635   4.837   4.885   4.371
   86CHOL   C19 2636   3.475   2.438   2.556
   86CHOL   C17 2637   3.523   2.578   2.589
   86CHOL   C18 2638   3.664   2.598   2.537
   86CHOL   C16 2639   3.514   2.603   2.739
   86CHOL   C15 2640   3.540   2.748   2.778
   86CHOL   C14 2641   3.422   2.840   2.749
   86CHOL   C13 2642   3.475   2.979   2.714
   86CHOL   C20 2643   3.473   2.987   2.562
   86CHOL   C12 2644   3.402   3.101   2.773
   86CHOL   C11 2645   3.334   3.074   2.909
   86CHOL   C10 2646   3.317   3.209   2.979
   86CHOL    C9 2647   3.374   3.310   2.880
   86CHOL    C8 2648   3.411   3.453   2.921
   86CHOL    C7 2649   3.287   3.526   2.972
   86CHOL    C6 2650   3.313   3.670   2.999
   86CHOL    H9 2651   3.246   3.717   3.073
   86CHOL    C5 2652   3.410   3.741   2.940
   86CHOL    C4 2653   3.427   3.886   2.970
   86CHOL    C1 2654   3.440   3.968   2.840
   86CHOL    H2 2655   3.339   3.972   2.788
   86CHOL   O28 2656   3.483   4.101   2.870
   86CHOL   H74 2657   3.429   4.141   2.942
   86CHOL    C2 2658   3.542   3.911   2.742
   86CHOL    C3 2659   3.516   3.763   2.716
   86CHOL   C26 2660   3.512   3.678   2.844
   86CHOL   C27 2661   3.648   3.681   2.914
   86CHOL   C25 2662   3.469   3.533   2.801
   86CHOL   C24 2663   3.582   3.457   2.732
   86CHOL   C23 2664   3.538   3.317   2.689
   86CHOL   C21 2665   3.488   3.230   2.804
   86CHOL   C22 2666   3.610   3.193   2.890
   87CHOL   C19 2667   0.625   0.808   1.849
   87CHOL   C17 2668   0.646   0.661   1.882
   87CHOL   C18 2669   0.712   0.590   1.765
   87CHOL   C16 2670   0.513   0.597   1.916
   87CHOL   C15 2671   0.527   0.479   2.012
   87CHOL   C14 2672   0.543   0.527   2.155
   87CHOL   C13 2673   0.450   0.449   2.249
   87CHOL   C20 2674   0.538   0.370   2.344
   87CHOL   C12 2675   0.347   0.537   2.324
   87CHOL   C11 2676   0.274   0.632   2.225
   87CHOL   C10 2677   0.135   0.662   2.277
   87CHOL    C9 2678   0.138   0.603   2.416
   87CHOL    C8 2679   0.008   0.587   2.496
   87CHOL    C7 2680   4.947   0.724   2.528
   87CHOL    C6 2681   4.825   0.712   2.612
   87CHOL    H9 2682   4.757   0.799   2.609
   87CHOL    C5 2683   4.797   0.605   2.688
   87CHOL    C4 2684   4.671   0.605   2.768
   87CHOL    C1 2685   4.684   0.535   2.904
   87CHOL    H2 2686   4.742   0.601   2.975
   87CHOL   O28 2687   4.554   0.511   2.959
   87CHOL   H74 2688   4.505   0.595   2.970
   87CHOL    C2 2689   4.755   0.401   2.891
   87CHOL    C3 2690   4.892   0.418   2.825
   87CHOL   C26 2691   4.881   0.476   2.683
   87CHOL   C27 2692   4.810   0.374   2.592
   87CHOL   C25 2693   0.024   0.509   2.628
   87CHOL   C24 2694   0.111   0.383   2.611
   87CHOL   C23 2695   0.243   0.413   2.541
   87CHOL   C21 2696   0.225   0.471   2.400
   87CHOL   C22 2697   0.161   0.364   2.312
   88CHOL   C19 2698   0.797   3.619   1.762
   88CHOL   C17 2699   0.925   3.576   1.829
   88CHOL   C18 2700   0.905   3.569   1.979
   88CHOL   C16 2701   1.034   3.673   1.788
   88CHOL   C15 2702   1.172   3.636   1.836
   88CHOL   C14 2703   1.218   3.502   1.783
   88CHOL   C13 2704   1.358   3.474   1.837
   88CHOL   C20 2705   1.342   3.378   1.954
   88CHOL   C12 2706   1.459   3.426   1.731
   88CHOL   C11 2707   1.444   3.506   1.599
   88CHOL   C10 2708   1.581   3.537   1.540
   88CHOL    C9 2709   1.670   3.440   1.613
   88CHOL    C8 2710   1.823   3.450   1.605
   88CHOL    C7 2711   1.870   3.442   1.459
   88CHOL    C6 2712   2.018   3.436   1.449
   88CHOL    H9 2713   2.059   3.467   1.352
   88CHOL    C5 2714   2.099   3.396   1.549
   88CHOL    C4 2715   2.247   3.393   1.527
   88CHOL    C1 2716   2.312   3.268   1.589
   88CHOL    H2 2717   2.285   3.176   1.529
   88CHOL   O28 2718   2.454   3.281   1.592
   88CHOL   H74 2719   2.489   3.299   1.502
   88CHOL    C2 2720   2.268   3.247   1.734
   88CHOL    C3 2721   2.116   3.239   1.745
   88CHOL   C26 2722   2.047   3.365   1.691
   88CHOL   C27 2723   2.080   3.485   1.781
   88CHOL   C25 2724   1.892   3.339   1.687
   88CHOL   C24 2725   1.835   3.328   1.829
   88CHOL   C23 2726   1.682   3.318   1.831
   88CHOL   C21 2727   1.614   3.436   1.762
   88CHOL   C22 2728   1.643   3.562   1.845
   89CHOL   C19 2729   0.908   1.289   3.069
   89CHOL   C17 2730   0.885   1.335   3.211
   89CHOL   C18 2731   1.020   1.373   3.268
   89CHOL   C16 2732   0.811   1.229   3.291
   89CHOL   C15 2733   0.780   1.281   3.430
   89CHOL   C14 2734   0.695   1.186   3.515
   89CHOL   C13 2735   0.694   1.233   3.662
   89CHOL   C20 2736   0.637   1.373   3.667
   89CHOL   C12 2737   0.620   1.140   3.760
   89CHOL   C11 2738   0.653   0.991   3.734
   89CHOL   C10 2739   0.629   0.913   3.863
   89CHOL    C9 2740   0.573   1.018   3.958
   89CHOL    C8 2741   0.571   0.995   4.110
   89CHOL    C7 2742   0.488   0.871   4.139
   89CHOL    C6 2743   0.469   0.847   4.284
   89CHOL    H9 2744   0.425   0.749   4.309
   89CHOL    C5 2745   0.488   0.940   4.378
   89CHOL    C4 2746   0.473   0.903   4.521
   89CHOL    C1 2747   0.375   0.998   4.591
   89CHOL    H2 2748   0.272   0.982   4.549
   89CHOL   O28 2749   0.373   0.970   4.732
   89CHOL   H74 2750   0.319   0.890   4.749
   89CHOL    C2 2751   0.417   1.144   4.571
   89CHOL    C3 2752   0.426   1.177   4.421
   89CHOL   C26 2753   0.523   1.086   4.344
   89CHOL   C27 2754   0.666   1.113   4.394
   89CHOL   C25 2755   0.510   1.113   4.189
   89CHOL   C24 2756   0.575   1.245   4.147
   89CHOL   C23 2757   0.575   1.266   3.995
   89CHOL   C21 2758   0.644   1.153   3.917
   89CHOL   C22 2759   0.793   1.155   3.950
   90CHOL   C19 2760   1.654   4.386   1.341
   90CHOL   C17 2761   1.791   4.418   1.395
   90CHOL   C18 2762   1.899   4.357   1.308
   90CHOL   C16 2763   1.802   4.371   1.539
   90CHOL   C15 2764   1.898   4.459   1.616
   90CHOL   C14 2765   1.836   4.595   1.640
   90CHOL   C13 2766   1.944   4.697   1.675
   90CHOL   C20 2767   1.966   4.780   1.551
   90CHOL   C12 2768   1.913   4.788   1.796
   90CHOL   C11 2769   1.855   4.706   1.914
   90CHOL   C10 2770   1.896   4.772   2.045
   90CHOL    C9 2771   1.966   4.900   2.000
   90CHOL    C8 2772   2.059   4.974   2.095
   90CHOL    C7 2773   1.988   0.013   2.224
   90CHOL    C6 2774   2.080   0.085   2.315
   90CHOL    H9 2775   2.067   0.059   2.421
   90CHOL    C5 2776   2.185   0.158   2.273
   90CHOL    C4 2777   2.269   0.229   2.374
   90CHOL    C1 2778   2.311   0.369   2.327
   90CHOL    H2 2779   2.223   0.440   2.333
   90CHOL   O28 2780   2.416   0.417   2.411
   90CHOL   H74 2781   2.385   0.432   2.503
   90CHOL    C2 2782   2.366   0.367   2.184
   90CHOL    C3 2783   2.269   0.300   2.087
   90CHOL   C26 2784   2.234   0.156   2.128
   90CHOL   C27 2785   2.361   0.069   2.124
   90CHOL   C25 2786   2.124   0.100   2.032
   90CHOL   C24 2787   2.181   0.069   1.893
   90CHOL   C23 2788   2.084   4.995   1.802
   90CHOL   C21 2789   2.035   4.863   1.863
   90CHOL   C22 2790   2.155   4.768   1.880
   91CHOL   C19 2791   0.631   2.536   0.570
   91CHOL   C17 2792   0.733   2.501   0.463
   91CHOL   C18 2793   0.813   2.626   0.432
   91CHOL   C16 2794   0.661   2.448   0.340
   91CHOL   C15 2795   0.752   2.389   0.233
   91CHOL   C14 2796   0.755   2.237   0.243
   91CHOL   C13 2797   0.842   2.174   0.133
   91CHOL   C20 2798   0.975   2.145   0.198
   91CHOL   C12 2799   0.783   2.045   0.072
   91CHOL   C11 2800   0.632   2.059   0.040
   91CHOL   C10 2801   0.596   1.956   4.933
   91CHOL    C9 2802   0.725   1.877   4.917
   91CHOL    C8 2803   0.747   1.778   4.801
   91CHOL    C7 2804   0.638   1.671   4.804
   91CHOL    C6 2805   0.665   1.559   4.710
   91CHOL    H9 2806   0.575   1.507   4.674
   91CHOL    C5 2807   0.787   1.523   4.668
   91CHOL    C4 2808   0.802   1.401   4.584
   91CHOL    C1 2809   0.915   1.310   4.636
   91CHOL    H2 2810   0.884   1.268   4.735
   91CHOL   O28 2811   0.940   1.203   4.545
   91CHOL   H74 2812   0.874   1.131   4.560
   91CHOL    C2 2813   1.045   1.389   4.653
   91CHOL    C3 2814   1.022   1.506   4.749
   91CHOL   C26 2815   0.914   1.604   4.700
   91CHOL   C27 2816   0.970   1.665   4.570
   91CHOL   C25 2817   0.887   1.712   4.812
   91CHOL   C24 2818   0.993   1.822   4.815
   91CHOL   C23 2819   0.974   1.917   4.933
   91CHOL   C21 2820   0.838   1.987   4.935
   91CHOL   C22 2821   0.839   2.095   4.826
   92CHOL   C19 2822   2.264   1.781   1.801
   92CHOL   C17 2823   2.345   1.805   1.675
   92CHOL   C18 2824   2.443   1.919   1.698
   92CHOL   C16 2825   2.250   1.830   1.559
   92CHOL   C15 2826   2.319   1.844   1.425
   92CHOL   C14 2827   2.380   1.715   1.373
   92CHOL   C13 2828   2.438   1.742   1.234
   92CHOL   C20 2829   2.589   1.745   1.247
   92CHOL   C12 2830   2.386   1.649   1.123
   92CHOL   C11 2831   2.232   1.629   1.134
   92CHOL   C10 2832   2.171   1.625   0.994
   92CHOL    C9 2833   2.292   1.606   0.905
   92CHOL    C8 2834   2.285   1.622   0.753
   92CHOL    C7 2835   2.176   1.531   0.699
   92CHOL    C6 2836   2.176   1.521   0.551
   92CHOL    H9 2837   2.081   1.489   0.507
   92CHOL    C5 2838   2.284   1.545   0.474
   92CHOL    C4 2839   2.275   1.521   0.327
   92CHOL    C1 2840   2.391   1.431   0.283
   92CHOL    H2 2841   2.380   1.330   0.333
   92CHOL   O28 2842   2.389   1.413   0.141
   92CHOL   H74 2843   2.309   1.363   0.114
   92CHOL    C2 2844   2.525   1.492   0.323
   92CHOL    C3 2845   2.532   1.513   0.474
   92CHOL   C26 2846   2.417   1.598   0.531
   92CHOL   C27 2847   2.435   1.743   0.484
   92CHOL   C25 2848   2.421   1.585   0.688
   92CHOL   C24 2849   2.533   1.669   0.751
   92CHOL   C23 2850   2.537   1.658   0.903
   92CHOL   C21 2851   2.405   1.694   0.972
   92CHOL   C22 2852   2.379   1.844   0.958
   93CHOL   C19 2853   2.172   2.164   1.767
   93CHOL   C17 2854   2.209   2.229   1.636
   93CHOL   C18 2855   2.272   2.362   1.672
   93CHOL   C16 2856   2.085   2.248   1.550
   93CHOL   C15 2857   2.110   2.288   1.406
   93CHOL   C14 2858   2.160   2.168   1.326
   93CHOL   C13 2859   2.110   2.170   1.181
   93CHOL   C20 2860   2.232   2.187   1.093
   93CHOL   C12 2861   2.028   2.043   1.146
   93CHOL   C11 2862   1.910   2.029   1.246
   93CHOL   C10 2863   1.794   1.955   1.179
   93CHOL    C9 2864   1.854   1.910   1.048
   93CHOL    C8 2865   1.766   1.859   0.933
   93CHOL    C7 2866   1.680   1.743   0.984
   93CHOL    C6 2867   1.616   1.666   0.875
   93CHOL    H9 2868   1.537   1.598   0.911
   93CHOL    C5 2869   1.655   1.667   0.747
   93CHOL    C4 2870   1.587   1.578   0.648
   93CHOL    C1 2871   1.690   1.498   0.568
   93CHOL    H2 2872   1.749   1.432   0.638
   93CHOL   O28 2873   1.624   1.415   0.471
   93CHOL   H74 2874   1.576   1.343   0.517
   93CHOL    C2 2875   1.785   1.594   0.497
   93CHOL    C3 2876   1.859   1.679   0.600
   93CHOL   C26 2877   1.767   1.759   0.694
   93CHOL   C27 2878   1.704   1.872   0.611
   93CHOL   C25 2879   1.854   1.812   0.814
   93CHOL   C24 2880   1.952   1.921   0.772
   93CHOL   C23 2881   2.036   1.974   0.888
   93CHOL   C21 2882   1.954   2.026   1.007
   93CHOL   C22 2883   1.883   2.157   0.967
   94CHOL   C19 2884   2.025   2.859   4.895
   94CHOL   C17 2885   2.112   2.929   4.998
   94CHOL   C18 2886   2.044   3.058   0.042
   94CHOL   C16 2887   2.250   2.953   4.938
   94CHOL   C15 2888   2.347   3.008   0.041
   94CHOL   C14 2889   2.390   2.908   0.148
   94CHOL   C13 2890   2.458   2.982   0.264
   94CHOL   C20 2891   2.375   2.955   0.389
   94CHOL   C12 2892   2.608   2.954   0.285
   94CHOL   C11 2893   2.682   2.952   0.149
   94CHOL   C10 2894   2.812   3.032   0.156
   94CHOL    C9 2895   2.839   3.033   0.305
   94CHOL    C8 2896   2.950   3.118   0.367
   94CHOL    C7 2897   3.086   3.085   0.302
   94CHOL    C6 2898   3.200   3.150   0.372
   94CHOL    H9 2899   3.284   3.179   0.307
   94CHOL    C5 2900   3.197   3.185   0.502
   94CHOL    C4 2901   3.320   3.242   0.566
   94CHOL    C1 2902   3.344   3.185   0.707
   94CHOL    H2 2903   3.378   3.077   0.699
   94CHOL   O28 2904   3.445   3.261   0.774
   94CHOL   H74 2905   3.532   3.247   0.731
   94CHOL    C2 2906   3.219   3.193   0.794
   94CHOL    C3 2907   3.100   3.126   0.725
   94CHOL   C26 2908   3.068   3.183   0.586
   94CHOL   C27 2909   3.019   3.328   0.602
   94CHOL   C25 2910   2.960   3.092   0.519
   94CHOL   C24 2911   2.823   3.108   0.586
   94CHOL   C23 2912   2.712   3.026   0.519
   94CHOL   C21 2913   2.696   3.056   0.370
   94CHOL   C22 2914   2.644   3.199   0.355
   95CHOL   C19 2915   1.395   4.170   2.551
   95CHOL   C17 2916   1.370   4.122   2.409
   95CHOL   C18 2917   1.220   4.109   2.388
   95CHOL   C16 2918   1.446   3.992   2.386
   95CHOL   C15 2919   1.437   3.940   2.244
   95CHOL   C14 2920   1.514   4.024   2.142
   95CHOL   C13 2921   1.475   3.982   1.999
   95CHOL   C20 2922   1.344   4.052   1.971
   95CHOL   C12 2923   1.580   4.016   1.892
   95CHOL   C11 2924   1.711   3.943   1.925
   95CHOL   C10 2925   1.772   3.886   1.798
   95CHOL    C9 2926   1.703   3.963   1.688
   95CHOL    C8 2927   1.710   3.916   1.543
   95CHOL    C7 2928   1.855   3.896   1.496
   95CHOL    C6 2929   1.862   3.861   1.352
   95CHOL    H9 2930   1.946   3.796   1.325
   95CHOL    C5 2931   1.768   3.894   1.262
   95CHOL    C4 2932   1.789   3.861   1.117
   95CHOL    C1 2933   1.746   3.978   1.026
   95CHOL    H2 2934   1.817   4.065   1.042
   95CHOL   O28 2935   1.747   3.942   0.887
   95CHOL   H74 2936   1.824   3.885   0.864
   95CHOL    C2 2937   1.603   4.021   1.058
   95CHOL    C3 2938   1.591   4.062   1.204
   95CHOL   C26 2939   1.631   3.951   1.303
   95CHOL   C27 2940   1.529   3.836   1.296
   95CHOL   C25 2941   1.636   4.012   1.447
   95CHOL   C24 2942   1.495   4.047   1.498
   95CHOL   C23 2943   1.491   4.086   1.647
   95CHOL   C21 2944   1.554   3.980   1.739
   95CHOL   C22 2945   1.473   3.850   1.729
   96CHOL   C19 2946   4.840   3.374   1.463
   96CHOL   C17 2947   4.780   3.513   1.458
   96CHOL   C18 2948   4.679   3.522   1.346
   96CHOL   C16 2949   4.890   3.617   1.442
   96CHOL   C15 2950   4.909   3.708   1.563
   96CHOL   C14 2951   4.951   3.634   1.690
   96CHOL   C13 2952   4.992   3.724   1.808
   96CHOL   C20 2953   4.875   3.813   1.846
   96CHOL   C12 2954   0.043   3.644   1.929
   96CHOL   C11 2955   0.147   3.540   1.883
   96CHOL   C10 2956   0.250   3.519   1.992
   96CHOL    C9 2957   0.187   3.587   2.111
   96CHOL    C8 2958   0.275   3.616   2.232
   96CHOL    C7 2959   0.332   3.488   2.294
   96CHOL    C6 2960   0.420   3.521   2.409
   96CHOL    H9 2961   0.487   3.439   2.441
   96CHOL    C5 2962   0.416   3.637   2.477
   96CHOL    C4 2963   0.511   3.658   2.590
   96CHOL    C1 2964   0.437   3.709   2.715
   96CHOL    H2 2965   0.368   3.627   2.752
   96CHOL   O28 2966   0.532   3.740   2.817
   96CHOL   H74 2967   0.487   3.740   2.905
   96CHOL    C2 2968   0.355   3.834   2.682
   96CHOL    C3 2969   0.253   3.804   2.571
   96CHOL   C26 2970   0.317   3.751   2.441
   96CHOL   C27 2971   0.397   3.865   2.376
   96CHOL   C25 2972   0.205   3.698   2.344
   96CHOL   C24 2973   0.121   3.813   2.286
   96CHOL   C23 2974   0.035   3.775   2.165
   96CHOL   C21 2975   0.118   3.715   2.050
   96CHOL   C22 2976   0.217   3.820   1.996
   97CHOL   C19 2977   3.900   2.935   2.753
   97CHOL   C17 2978   3.942   2.955   2.609
   97CHOL   C18 2979   4.084   3.008   2.605
   97CHOL   C16 2980   3.839   3.046   2.544
   97CHOL   C15 2981   3.864   3.082   2.399
   97CHOL   C14 2982   3.731   3.118   2.336
   97CHOL   C13 2983   3.733   3.232   2.233
   97CHOL   C20 2984   3.801   3.181   2.107
   97CHOL   C12 2985   3.592   3.286   2.201
   97CHOL   C11 2986   3.509   3.302   2.331
   97CHOL   C10 2987   3.416   3.423   2.320
   97CHOL    C9 2988   3.422   3.452   2.171
   97CHOL    C8 2989   3.361   3.580   2.115
   97CHOL    C7 2990   3.211   3.585   2.145
   97CHOL    C6 2991   3.144   3.702   2.080
   97CHOL    H9 2992   3.047   3.729   2.123
   97CHOL    C5 2993   3.195   3.768   1.975
   97CHOL    C4 2994   3.115   3.878   1.913
   97CHOL    C1 2995   3.108   3.854   1.761
   97CHOL    H2 2996   3.062   3.754   1.743
   97CHOL   O28 2997   3.030   3.955   1.695
   97CHOL   H74 2998   2.935   3.943   1.717
   97CHOL    C2 2999   3.248   3.851   1.701
   97CHOL    C3 3000   3.327   3.734   1.762
   97CHOL   C26 3001   3.334   3.737   1.916
   97CHOL   C27 3002   3.429   3.850   1.961
   97CHOL   C25 3003   3.384   3.596   1.963
   97CHOL   C24 3004   3.531   3.571   1.925
   97CHOL   C23 3005   3.583   3.439   1.981
   97CHOL   C21 3006   3.574   3.429   2.133
   97CHOL   C22 3007   3.669   3.531   2.198
   98CHOL   C19 3008   1.749   2.709   0.785
   98CHOL   C17 3009   1.754   2.584   0.700
   98CHOL   C18 3010   1.791   2.469   0.792
   98CHOL   C16 3011   1.855   2.606   0.588
   98CHOL   C15 3012   1.875   2.487   0.496
   98CHOL   C14 3013   1.770   2.473   0.386
   98CHOL   C13 3014   1.801   2.348   0.302
   98CHOL   C20 3015   1.683   2.253   0.316
   98CHOL   C12 3016   1.838   2.374   0.154
   98CHOL   C11 3017   1.938   2.491   0.140
   98CHOL   C10 3018   2.037   2.463   0.028
   98CHOL    C9 3019   1.970   2.347   4.957
   98CHOL    C8 3020   2.041   2.268   4.847
   98CHOL    C7 3021   2.077   2.365   4.735
   98CHOL    C6 3022   2.124   2.298   4.611
   98CHOL    H9 3023   2.183   2.361   4.544
   98CHOL    C5 3024   2.098   2.169   4.582
   98CHOL    C4 3025   2.143   2.115   4.451
   98CHOL    C1 3026   2.025   2.047   4.381
   98CHOL    H2 3027   1.942   2.123   4.363
   98CHOL   O28 3028   2.066   1.994   4.254
   98CHOL   H74 3029   2.104   2.064   4.197
   98CHOL    C2 3030   1.972   1.934   4.469
   98CHOL    C3 3031   1.923   1.990   4.603
   98CHOL   C26 3032   2.028   2.073   4.680
   98CHOL   C27 3033   2.133   1.978   4.740
   98CHOL   C25 3034   1.952   2.155   4.790
   98CHOL   C24 3035   1.898   2.067   4.903
   98CHOL   C23 3036   1.825   2.150   0.008
   98CHOL   C21 3037   1.911   2.258   0.073
   98CHOL   C22 3038   2.018   2.191   0.160
   99CHOL   C19 3039   3.890   1.297   0.222
   99CHOL   C17 3040   3.907   1.388   0.103
   99CHOL   C18 3041   3.985   1.512   0.140
   99CHOL   C16 3042   3.770   1.422   0.050
   99CHOL   C15 3043   3.779   1.458   4.903
   99CHOL   C14 3044   3.802   1.335   4.818
   99CHOL   C13 3045   3.858   1.380   4.684
   99CHOL   C20 3046   4.006   1.347   4.686
   99CHOL   C12 3047   3.784   1.322   4.562
   99CHOL   C11 3048   3.631   1.343   4.574
   99CHOL   C10 3049   3.573   1.359   4.434
   99CHOL    C9 3050   3.690   1.321   4.346
   99CHOL    C8 3051   3.688   1.354   4.197
   99CHOL    C7 3052   3.566   1.290   4.130
   99CHOL    C6 3053   3.566   1.322   3.985
   99CHOL    H9 3054   3.466   1.346   3.946
   99CHOL    C5 3055   3.676   1.343   3.913
   99CHOL    C4 3056   3.659   1.369   3.767
   99CHOL    C1 3057   3.778   1.328   3.679
   99CHOL    H2 3058   3.767   1.220   3.649
   99CHOL   O28 3059   3.771   1.410   3.562
   99CHOL   H74 3060   3.846   1.390   3.500
   99CHOL    C2 3061   3.915   1.351   3.744
   99CHOL    C3 3062   3.920   1.300   3.889
   99CHOL   C26 3063   3.814   1.368   3.977
   99CHOL   C27 3064   3.840   1.520   3.980
   99CHOL   C25 3065   3.817   1.311   4.123
   99CHOL   C24 3066   3.942   1.360   4.197
   99CHOL   C23 3067   3.940   1.329   4.346
   99CHOL   C21 3068   3.816   1.381   4.419
   99CHOL   C22 3069   3.819   1.534   4.423
  100CHOL   C19 3070   2.752   3.710   4.595
  100CHOL   C17 3071   2.821   3.581   4.633
  100CHOL   C18 3072   2.715   3.476   4.660
  100CHOL   C16 3073   2.912   3.606   4.752
  100CHOL   C15 3074   3.001   3.487   4.783
  100CHOL   C14 3075   3.118   3.468   4.687
  100CHOL   C13 3076   3.209   3.353   4.733
  100CHOL   C20 3077   3.207   3.251   4.622
  100CHOL   C12 3078   3.355   3.389   4.773
  100CHOL   C11 3079   3.363   3.535   4.820
  100CHOL   C10 3080   3.433   3.547   4.953
  100CHOL    C9 3081   3.521   3.425   4.946
  100CHOL    C8 3082   3.607   3.386   0.066
  100CHOL    C7 3083   3.696   3.505   0.101
  100CHOL    C6 3084   3.799   3.470   0.201
  100CHOL    H9 3085   3.838   3.554   0.258
  100CHOL    C5 3086   3.842   3.345   0.224
  100CHOL    C4 3087   3.949   3.326   0.326
  100CHOL    C1 3088   4.052   3.222   0.282
  100CHOL    H2 3089   4.117   3.264   0.200
  100CHOL   O28 3090   4.134   3.191   0.395
  100CHOL   H74 3091   4.227   3.172   0.367
  100CHOL    C2 3092   3.986   3.093   0.234
  100CHOL    C3 3093   3.884   3.120   0.123
  100CHOL   C26 3094   3.775   3.220   0.163
  100CHOL   C27 3095   3.685   3.157   0.271
  100CHOL   C25 3096   3.693   3.261   0.035
  100CHOL   C24 3097   3.605   3.147   4.980
  100CHOL   C23 3098   3.518   3.191   4.861
  100CHOL   C21 3099   3.426   3.310   4.893
  100CHOL   C22 3100   3.323   3.266   4.998
  101CHOL   C19 3101   0.808   0.882   1.490
  101CHOL   C17 3102   0.857   1.001   1.569
  101CHOL   C18 3103   0.739   1.093   1.595
  101CHOL   C16 3104   0.970   1.069   1.493
  101CHOL   C15 3105   1.017   1.198   1.558
  101CHOL   C14 3106   1.131   1.257   1.478
  101CHOL   C13 3107   1.152   1.405   1.510
  101CHOL   C20 3108   1.239   1.413   1.634
  101CHOL   C12 3109   1.213   1.485   1.392
  101CHOL   C11 3110   1.141   1.451   1.260
  101CHOL   C10 3111   1.148   1.571   1.167
  101CHOL    C9 3112   1.243   1.664   1.240
  101CHOL    C8 3113   1.255   1.811   1.199
  101CHOL    C7 3114   1.296   1.819   1.052
  101CHOL    C6 3115   1.321   1.959   1.011
  101CHOL    H9 3116   1.273   1.983   0.914
  101CHOL    C5 3117   1.364   2.056   1.093
  101CHOL    C4 3118   1.400   2.189   1.036
  101CHOL    C1 3119   1.531   2.237   1.098
  101CHOL    H2 3120   1.613   2.165   1.069
  101CHOL   O28 3121   1.564   2.367   1.046
  101CHOL   H74 3122   1.651   2.395   1.081
  101CHOL    C2 3123   1.519   2.243   1.250
  101CHOL    C3 3124   1.489   2.104   1.306
  101CHOL   C26 3125   1.362   2.040   1.247
  101CHOL   C27 3126   1.242   2.118   1.302
  101CHOL   C25 3127   1.357   1.888   1.286
  101CHOL   C24 3128   1.326   1.868   1.435
  101CHOL   C23 3129   1.315   1.720   1.472
  101CHOL   C21 3130   1.209   1.643   1.393
  101CHOL   C22 3131   1.070   1.692   1.435
  102CHOL   C19 3132   4.905   1.886   0.280
  102CHOL   C17 3133   4.983   1.809   0.385
  102CHOL   C18 3134   4.963   1.661   0.359
  102CHOL   C16 3135   4.935   1.856   0.521
  102CHOL   C15 3136   4.992   1.781   0.640
  102CHOL   C14 3137   0.128   1.828   0.689
  102CHOL   C13 3138   0.162   1.754   0.819
  102CHOL   C20 3139   0.289   1.674   0.796
  102CHOL   C12 3140   0.168   1.839   0.948
  102CHOL   C11 3141   0.059   1.950   0.946
  102CHOL   C10 3142   4.983   1.951   1.078
  102CHOL    C9 3143   0.082   1.886   1.172
  102CHOL    C8 3144   0.042   1.845   1.314
  102CHOL    C7 3145   4.982   1.966   1.386
  102CHOL    C6 3146   4.953   1.936   1.528
  102CHOL    H9 3147   4.872   1.996   1.573
  102CHOL    C5 3148   0.017   1.841   1.598
  102CHOL    C4 3149   4.985   1.825   1.742
  102CHOL    C1 3150   0.115   1.832   1.823
  102CHOL    H2 3151   0.164   1.931   1.804
  102CHOL   O28 3152   0.083   1.822   1.963
  102CHOL   H74 3153   0.033   1.904   1.988
  102CHOL    C2 3154   0.210   1.721   1.779
  102CHOL    C3 3155   0.243   1.736   1.629
  102CHOL   C26 3156   0.119   1.743   1.537
  102CHOL   C27 3157   0.054   1.604   1.532
  102CHOL   C25 3158   0.164   1.792   1.393
  102CHOL   C24 3159   0.235   1.681   1.313
  102CHOL   C23 3160   0.265   1.718   1.167
  102CHOL   C21 3161   0.142   1.766   1.088
  102CHOL   C22 3162   0.040   1.652   1.072
  103CHOL   C19 3163   3.995   3.538   2.047
  103CHOL   C17 3164   3.981   3.540   1.896
  103CHOL   C18 3165   3.898   3.660   1.855
  103CHOL   C16 3166   3.926   3.407   1.848
  103CHOL   C15 3167   3.920   3.389   1.698
  103CHOL   C14 3168   4.058   3.389   1.634
  103CHOL   C13 3169   4.048   3.385   1.481
  103CHOL   C20 3170   4.045   3.529   1.433
  103CHOL   C12 3171   4.157   3.299   1.415
  103CHOL   C11 3172   4.164   3.159   1.482
  103CHOL   C10 3173   4.190   3.052   1.377
  103CHOL    C9 3174   4.235   3.132   1.257
  103CHOL    C8 3175   4.243   3.068   1.117
  103CHOL    C7 3176   4.337   2.947   1.116
  103CHOL    C6 3177   4.349   2.888   0.980
  103CHOL    H9 3178   4.382   2.782   0.977
  103CHOL    C5 3179   4.325   2.956   0.867
  103CHOL    C4 3180   4.336   2.888   0.734
  103CHOL    C1 3181   4.413   2.973   0.632
  103CHOL    H2 3182   4.524   2.969   0.655
  103CHOL   O28 3183   4.391   2.922   0.500
  103CHOL   H74 3184   4.429   2.832   0.490
  103CHOL    C2 3185   4.369   3.120   0.631
  103CHOL    C3 3186   4.370   3.181   0.771
  103CHOL   C26 3187   4.280   3.103   0.867
  103CHOL   C27 3188   4.135   3.107   0.815
  103CHOL   C25 3189   4.292   3.169   1.010
  103CHOL   C24 3190   4.215   3.302   1.018
  103CHOL   C23 3191   4.207   3.360   1.159
  103CHOL   C21 3192   4.145   3.263   1.260
  103CHOL   C22 3193   3.999   3.235   1.223
  104CHOL   C19 3194   1.520   0.861   4.935
  104CHOL   C17 3195   1.414   0.942   0.007
  104CHOL   C18 3196   1.484   1.043   0.097
  104CHOL   C16 3197   1.323   0.851   0.088
  104CHOL   C15 3198   1.200   0.927   0.136
  104CHOL   C14 3199   1.090   0.926   0.032
  104CHOL   C13 3200   1.009   1.056   0.033
  104CHOL   C20 3201   1.054   1.131   4.910
  104CHOL   C12 3202   0.856   1.036   0.040
  104CHOL   C11 3203   0.824   0.944   0.159
  104CHOL   C10 3204   0.702   0.995   0.234
  104CHOL    C9 3205   0.637   1.083   0.130
  104CHOL    C8 3206   0.520   1.173   0.167
  104CHOL    C7 3207   0.407   1.087   0.226
  104CHOL    C6 3208   0.282   1.164   0.242
  104CHOL    H9 3209   0.217   1.124   0.321
  104CHOL    C5 3210   0.251   1.277   0.176
  104CHOL    C4 3211   0.118   1.340   0.199
  104CHOL    C1 3212   0.057   1.393   0.068
  104CHOL    H2 3213   0.030   1.305   0.001
  104CHOL   O28 3214   4.938   1.468   0.096
  104CHOL   H74 3215   4.859   1.414   0.077
  104CHOL    C2 3216   0.156   1.484   4.995
  104CHOL    C3 3217   0.284   1.406   4.963
  104CHOL   C26 3218   0.354   1.352   0.088
  104CHOL   C27 3219   0.410   1.470   0.169
  104CHOL   C25 3220   0.469   1.253   0.045
  104CHOL   C24 3221   0.584   1.326   4.975
  104CHOL   C23 3222   0.702   1.233   4.942
  104CHOL   C21 3223   0.759   1.160   0.064
  104CHOL   C22 3224   0.823   1.262   0.160
  105CHOL   C19 3225   4.437   4.003   1.071
  105CHOL   C17 3226   4.433   3.953   1.215
  105CHOL   C18 3227   4.401   3.804   1.215
  105CHOL   C16 3228   4.333   4.034   1.295
  105CHOL   C15 3229   4.344   4.013   1.444
  105CHOL   C14 3230   4.457   4.092   1.510
  105CHOL   C13 3231   4.495   4.021   1.640
  105CHOL   C20 3232   4.621   3.942   1.609
  105CHOL   C12 3233   4.516   4.106   1.767
  105CHOL   C11 3234   4.445   4.243   1.770
  105CHOL   C10 3235   4.439   4.288   1.916
  105CHOL    C9 3236   4.508   4.174   1.991
  105CHOL    C8 3237   4.495   4.154   2.143
  105CHOL    C7 3238   4.547   4.280   2.214
  105CHOL    C6 3239   4.566   4.260   2.361
  105CHOL    H9 3240   4.567   4.353   2.420
  105CHOL    C5 3241   4.581   4.140   2.419
  105CHOL    C4 3242   4.607   4.133   2.566
  105CHOL    C1 3243   4.720   4.035   2.599
  105CHOL    H2 3244   4.817   4.076   2.558
  105CHOL   O28 3245   4.731   4.019   2.741
  105CHOL   H74 3246   4.792   4.086   2.778
  105CHOL    C2 3247   4.693   3.897   2.537
  105CHOL    C3 3248   4.675   3.908   2.386
  105CHOL   C26 3249   4.563   4.007   2.344
  105CHOL   C27 3250   4.426   3.948   2.382
  105CHOL   C25 3251   4.575   4.030   2.190
  105CHOL   C24 3252   4.537   3.906   2.110
  105CHOL   C23 3253   4.554   3.927   1.960
  105CHOL   C21 3254   4.473   4.046   1.906
  105CHOL   C22 3255   4.324   4.010   1.908
  106CHOL   C19 3256   0.135   2.776   0.951
  106CHOL   C17 3257   0.075   2.698   0.835
  106CHOL   C18 3258   0.121   2.553   0.836
  106CHOL   C16 3259   0.110   2.767   0.705
  106CHOL   C15 3260   0.009   2.734   0.598
  106CHOL   C14 3261   4.873   2.793   0.631
  106CHOL   C13 3262   4.765   2.743   0.535
  106CHOL   C20 3263   4.652   2.693   0.622
  106CHOL   C12 3264   4.711   2.847   0.434
  106CHOL   C11 3265   4.761   2.992   0.457
  106CHOL   C10 3266   4.765   3.064   0.322
  106CHOL    C9 3267   4.689   2.968   0.232
  106CHOL    C8 3268   4.686   2.983   0.079
  106CHOL    C7 3269   4.645   3.126   0.044
  106CHOL    C6 3270   4.606   3.142   4.902
  106CHOL    H9 3271   4.623   3.243   4.860
  106CHOL    C5 3272   4.558   3.043   4.826
  106CHOL    C4 3273   4.505   3.073   4.690
  106CHOL    C1 3274   4.366   3.011   4.669
  106CHOL    H2 3275   4.291   3.065   4.735
  106CHOL   O28 3276   4.322   3.018   4.533
  106CHOL   H74 3277   4.326   3.110   4.497
  106CHOL    C2 3278   4.366   2.863   4.704
  106CHOL    C3 3279   4.419   2.839   4.845
  106CHOL   C26 3280   4.559   2.896   4.869
  106CHOL   C27 3281   4.662   2.819   4.784
  106CHOL   C25 3282   4.585   2.880   0.023
  106CHOL   C24 3283   4.627   2.738   0.063
  106CHOL   C23 3284   4.636   2.722   0.215
  106CHOL   C21 3285   4.730   2.823   0.281
  106CHOL   C22 3286   4.874   2.784   0.251
  107CHOL   C19 3287   3.230   3.636   4.319
  107CHOL   C17 3288   3.178   3.738   4.420
  107CHOL   C18 3289   3.049   3.801   4.370
  107CHOL   C16 3290   3.284   3.844   4.445
  107CHOL   C15 3291   3.255   3.924   4.570
  107CHOL   C14 3292   3.321   3.863   4.693
  107CHOL   C13 3293   3.287   3.940   4.821
  107CHOL   C20 3294   3.207   3.846   4.909
  107CHOL   C12 3295   3.408   3.999   4.897
  107CHOL   C11 3296   3.501   4.071   4.797
  107CHOL   C10 3297   3.535   4.210   4.849
  107CHOL    C9 3298   3.518   4.191   4.997
  107CHOL    C8 3299   3.528   4.310   0.094
  107CHOL    C7 3300   3.663   4.380   0.073
  107CHOL    C6 3301   3.690   4.482   0.177
  107CHOL    H9 3302   3.760   4.562   0.147
  107CHOL    C5 3303   3.634   4.482   0.299
  107CHOL    C4 3304   3.676   4.585   0.398
  107CHOL    C1 3305   3.713   4.517   0.531
  107CHOL    H2 3306   3.803   4.451   0.514
  107CHOL   O28 3307   3.745   4.616   0.630
  107CHOL   H74 3308   3.828   4.664   0.603
  107CHOL    C2 3309   3.597   4.432   0.583
  107CHOL    C3 3310   3.556   4.326   0.479
  107CHOL   C26 3311   3.522   4.383   0.340
  107CHOL   C27 3312   3.390   4.461   0.348
  107CHOL   C25 3313   3.514   4.262   0.240
  107CHOL   C24 3314   3.385   4.180   0.257
  107CHOL   C23 3315   3.374   4.065   0.156
  107CHOL   C21 3316   3.383   4.110   0.010
  107CHOL   C22 3317   3.259   4.194   4.974
  108CHOL   C19 3318   2.136   2.305   0.743
  108CHOL   C17 3319   2.225   2.421   0.705
  108CHOL   C18 3320   2.369   2.385   0.733
  108CHOL   C16 3321   2.180   2.543   0.783
  108CHOL   C15 3322   2.242   2.670   0.729
  108CHOL   C14 3323   2.207   2.787   0.817
  108CHOL   C13 3324   2.301   2.906   0.797
  108CHOL   C20 3325   2.217   3.015   0.732
  108CHOL   C12 3326   2.366   2.947   0.932
  108CHOL   C11 3327   2.457   2.834   0.986
  108CHOL   C10 3328   2.553   2.894   1.089
  108CHOL    C9 3329   2.507   3.038   1.098
  108CHOL    C8 3330   2.590   3.148   1.167
  108CHOL    C7 3331   2.608   3.117   1.316
  108CHOL    C6 3332   2.664   3.232   1.393
  108CHOL    H9 3333   2.717   3.204   1.486
  108CHOL    C5 3334   2.657   3.360   1.353
  108CHOL    C4 3335   2.712   3.470   1.439
  108CHOL    C1 3336   2.616   3.590   1.447
  108CHOL    H2 3337   2.522   3.558   1.502
  108CHOL   O28 3338   2.672   3.703   1.515
  108CHOL   H74 3339   2.750   3.677   1.573
  108CHOL    C2 3340   2.577   3.639   1.308
  108CHOL    C3 3341   2.514   3.524   1.229
  108CHOL   C26 3342   2.607   3.402   1.215
  108CHOL   C27 3343   2.729   3.441   1.131
  108CHOL   C25 3344   2.522   3.286   1.152
  108CHOL   C24 3345   2.489   3.316   1.007
  108CHOL   C23 3346   2.396   3.210   0.950
  108CHOL   C21 3347   2.460   3.072   0.949
  108CHOL   C22 3348   2.572   3.069   0.845
  109CHOL   C19 3349   4.558   2.700   1.672
  109CHOL   C17 3350   4.646   2.579   1.647
  109CHOL   C18 3351   4.754   2.572   1.754
  109CHOL   C16 3352   4.700   2.587   1.506
  109CHOL   C15 3353   4.780   2.464   1.468
  109CHOL   C14 3354   4.835   2.483   1.328
  109CHOL   C13 3355   4.947   2.382   1.302
  109CHOL   C20 3356   4.883   2.266   1.228
  109CHOL   C12 3357   0.067   2.440   1.226
  109CHOL   C11 3358   0.106   2.578   1.284
  109CHOL   C10 3359   0.255   2.601   1.262
  109CHOL    C9 3360   0.290   2.487   1.169
  109CHOL    C8 3361   0.435   2.460   1.128
  109CHOL    C7 3362   0.484   2.576   1.040
  109CHOL    C6 3363   0.616   2.548   0.977
  109CHOL    H9 3364   0.664   2.635   0.930
  109CHOL    C5 3365   0.671   2.426   0.969
  109CHOL    C4 3366   0.804   2.413   0.902
  109CHOL    C1 3367   0.804   2.293   0.806
  109CHOL    H2 3368   0.729   2.313   0.723
  109CHOL   O28 3369   0.934   2.276   0.747
  109CHOL   H74 3370   0.933   2.204   0.680
  109CHOL    C2 3371   0.764   2.166   0.881
  109CHOL    C3 3372   0.622   2.180   0.934
  109CHOL   C26 3373   0.605   2.300   1.029
  109CHOL   C27 3374   0.672   2.266   1.162
  109CHOL   C25 3375   0.452   2.328   1.049
  109CHOL   C24 3376   0.377   2.211   1.113
  109CHOL   C23 3377   0.230   2.246   1.132
  109CHOL   C21 3378   0.207   2.365   1.226
  109CHOL   C22 3379   0.245   2.321   1.368
  110CHOL   C19 3380   4.846   1.318   0.985
  110CHOL   C17 3381   4.799   1.192   1.055
  110CHOL   C18 3382   4.918   1.107   1.097
  110CHOL   C16 3383   4.704   1.114   0.966
  110CHOL   C15 3384   4.608   1.032   1.050
  110CHOL   C14 3385   4.501   1.123   1.109
  110CHOL   C13 3386   4.444   1.067   1.240
  110CHOL   C20 3387   4.484   1.167   1.347
  110CHOL   C12 3388   4.292   1.043   1.232
  110CHOL   C11 3389   4.261   0.945   1.116
  110CHOL   C10 3390   4.138   0.862   1.152
  110CHOL    C9 3391   4.083   0.936   1.272
  110CHOL    C8 3392   3.972   0.874   1.357
  110CHOL    C7 3393   3.844   0.857   1.272
  110CHOL    C6 3394   3.731   0.805   1.354
  110CHOL    H9 3395   3.649   0.760   1.296
  110CHOL    C5 3396   3.725   0.814   1.488
  110CHOL    C4 3397   3.608   0.756   1.561
  110CHOL    C1 3398   3.550   0.854   1.665
  110CHOL    H2 3399   3.495   0.936   1.612
  110CHOL   O28 3400   3.459   0.783   1.751
  110CHOL   H74 3401   3.369   0.823   1.742
  110CHOL    C2 3402   3.659   0.916   1.754
  110CHOL    C3 3403   3.770   0.977   1.670
  110CHOL   C26 3404   3.836   0.878   1.573
  110CHOL   C27 3405   3.907   0.765   1.651
  110CHOL   C25 3406   3.937   0.958   1.482
  110CHOL   C24 3407   4.062   1.000   1.559
  110CHOL   C23 3408   4.167   1.067   1.469
  110CHOL   C21 3409   4.213   0.978   1.353
  110CHOL   C22 3410   4.294   0.860   1.410
  111CHOL   C19 3411   3.391   1.851   4.776
  111CHOL   C17 3412   3.503   1.750   4.793
  111CHOL   C18 3413   3.569   1.731   4.658
  111CHOL   C16 3414   3.445   1.618   4.842
  111CHOL   C15 3415   3.420   1.615   4.992
  111CHOL   C14 3416   3.348   1.486   0.028
  111CHOL   C13 3417   3.371   1.441   0.174
  111CHOL   C20 3418   3.270   1.512   0.261
  111CHOL   C12 3419   3.366   1.288   0.194
  111CHOL   C11 3420   3.438   1.217   0.077
  111CHOL   C10 3421   3.516   1.097   0.129
  111CHOL    C9 3422   3.457   1.076   0.267
  111CHOL    C8 3423   3.525   0.982   0.366
  111CHOL    C7 3424   3.536   0.842   0.305
  111CHOL    C6 3425   3.576   0.739   0.404
  111CHOL    H9 3426   3.637   0.657   0.365
  111CHOL    C5 3427   3.554   0.749   0.536
  111CHOL    C4 3428   3.587   0.631   0.622
  111CHOL    C1 3429   3.492   0.618   0.741
  111CHOL    H2 3430   3.389   0.588   0.705
  111CHOL   O28 3431   3.543   0.516   0.828
  111CHOL   H74 3432   3.481   0.498   0.903
  111CHOL    C2 3433   3.484   0.749   0.818
  111CHOL    C3 3434   3.432   0.860   0.726
  111CHOL   C26 3435   3.523   0.883   0.603
  111CHOL   C27 3436   3.656   0.944   0.650
  111CHOL   C25 3437   3.448   0.976   0.500
  111CHOL   C24 3438   3.422   1.117   0.555
  111CHOL   C23 3439   3.355   1.209   0.452
  111CHOL   C21 3440   3.435   1.223   0.322
  111CHOL   C22 3441   3.566   1.297   0.354
  112CHOL   C19 3442   0.370   4.106   1.472
  112CHOL   C17 3443   0.418   3.969   1.517
  112CHOL   C18 3444   0.361   3.932   1.653
  112CHOL   C16 3445   0.570   3.969   1.515
  112CHOL   C15 3446   0.629   3.830   1.498
  112CHOL   C14 3447   0.577   3.764   1.372
  112CHOL   C13 3448   0.683   3.673   1.309
  112CHOL   C20 3449   0.668   3.534   1.369
  112CHOL   C12 3450   0.686   3.672   1.155
  112CHOL   C11 3451   0.644   3.810   1.096
  112CHOL   C10 3452   0.717   3.835   0.965
  112CHOL    C9 3453   0.789   3.704   0.939
  112CHOL    C8 3454   0.906   3.697   0.841
  112CHOL    C7 3455   0.865   3.745   0.702
  112CHOL    C6 3456   0.976   3.730   0.604
  112CHOL    H9 3457   0.971   3.796   0.516
  112CHOL    C5 3458   1.077   3.643   0.619
  112CHOL    C4 3459   1.182   3.632   0.513
  112CHOL    C1 3460   1.213   3.486   0.480
  112CHOL    H2 3461   1.121   3.440   0.433
  112CHOL   O28 3462   1.323   3.474   0.390
  112CHOL   H74 3463   1.315   3.539   0.317
  112CHOL    C2 3464   1.251   3.408   0.606
  112CHOL    C3 3465   1.139   3.416   0.711
  112CHOL   C26 3466   1.098   3.560   0.747
  112CHOL   C27 3467   1.211   3.628   0.827
  112CHOL   C25 3468   0.966   3.554   0.830
  112CHOL   C24 3469   0.990   3.491   0.968
  112CHOL   C23 3470   0.870   3.503   1.062
  112CHOL   C21 3471   0.824   3.647   1.083
  112CHOL   C22 3472   0.937   3.724   1.153
  113CHOL   C19 3473   3.316   4.228   4.342
  113CHOL   C17 3474   3.389   4.286   4.462
  113CHOL   C18 3475   3.311   4.406   4.513
  113CHOL   C16 3476   3.533   4.316   4.421
  113CHOL   C15 3477   3.622   4.372   4.531
  113CHOL   C14 3478   3.762   4.315   4.520
  113CHOL   C13 3479   3.867   4.387   4.607
  113CHOL   C20 3480   3.858   4.331   4.748
  113CHOL   C12 3481   4.007   4.370   4.545
  113CHOL   C11 3482   4.010   4.425   4.400
  113CHOL   C10 3483   4.155   4.445   4.359
  113CHOL    C9 3484   4.228   4.384   4.477
  113CHOL    C8 3485   4.380   4.390   4.492
  113CHOL    C7 3486   4.440   4.320   4.369
  113CHOL    C6 3487   4.582   4.281   4.385
  113CHOL    H9 3488   4.637   4.262   4.292
  113CHOL    C5 3489   4.643   4.268   4.504
  113CHOL    C4 3490   4.784   4.218   4.507
  113CHOL    C1 3491   4.799   4.108   4.612
  113CHOL    H2 3492   4.736   4.018   4.583
  113CHOL   O28 3493   4.936   4.067   4.623
  113CHOL   H74 3494   4.972   4.040   4.535
  113CHOL    C2 3495   4.755   4.159   4.749
  113CHOL    C3 3496   4.608   4.203   4.744
  113CHOL   C26 3497   4.579   4.310   4.637
  113CHOL   C27 3498   4.641   4.444   4.681
  113CHOL   C25 3499   4.423   4.317   4.621
  113CHOL   C24 3500   4.353   4.378   4.742
  113CHOL   C23 3501   4.202   4.361   4.730
  113CHOL   C21 3502   4.142   4.427   4.605
  113CHOL   C22 3503   4.133   4.578   4.630
  114CHOL   C19 3504   3.500   4.828   2.369
  114CHOL   C17 3505   3.515   4.977   2.393
  114CHOL   C18 3506   3.584   0.043   2.274
  114CHOL   C16 3507   3.592   4.997   2.522
  114CHOL   C15 3508   3.602   0.140   2.571
  114CHOL   C14 3509   3.473   0.189   2.634
  114CHOL   C13 3510   3.510   0.308   2.724
  114CHOL   C20 3511   3.455   0.435   2.662
  114CHOL   C12 3512   3.479   0.292   2.874
  114CHOL   C11 3513   3.488   0.144   2.920
  114CHOL   C10 3514   3.566   0.133   3.050
  114CHOL    C9 3515   3.557   0.273   3.104
  114CHOL    C8 3516   3.643   0.316   3.223
  114CHOL    C7 3517   3.618   0.227   3.346
  114CHOL    C6 3518   3.691   0.276   3.466
  114CHOL    H9 3519   3.708   0.200   3.545
  114CHOL    C5 3520   3.733   0.403   3.482
  114CHOL    C4 3521   3.804   0.443   3.607
  114CHOL    C1 3522   3.763   0.582   3.657
  114CHOL    H2 3523   3.660   0.577   3.703
  114CHOL   O28 3524   3.857   0.626   3.756
  114CHOL   H74 3525   3.811   0.645   3.842
  114CHOL    C2 3526   3.765   0.686   3.546
  114CHOL    C3 3527   3.677   0.642   3.429
  114CHOL   C26 3528   3.723   0.508   3.370
  114CHOL   C27 3529   3.863   0.525   3.309
  114CHOL   C25 3530   3.619   0.464   3.261
  114CHOL   C24 3531   3.624   0.557   3.138
  114CHOL   C23 3532   3.541   0.507   3.020
  114CHOL   C21 3533   3.577   0.365   2.976
  114CHOL   C22 3534   3.721   0.362   2.922
  115CHOL   C19 3535   1.672   3.440   2.467
  115CHOL   C17 3536   1.779   3.452   2.361
  115CHOL   C18 3537   1.718   3.432   2.223
  115CHOL   C16 3538   1.893   3.358   2.392
  115CHOL   C15 3539   2.006   3.375   2.293
  115CHOL   C14 3540   2.129   3.296   2.335
  115CHOL   C13 3541   2.196   3.232   2.213
  115CHOL   C20 3542   2.302   3.329   2.164
  115CHOL   C12 3543   2.251   3.093   2.250
  115CHOL   C11 3544   2.135   3.002   2.291
  115CHOL   C10 3545   2.177   2.857   2.270
  115CHOL    C9 3546   2.324   2.869   2.233
  115CHOL    C8 3547   2.403   2.752   2.176
  115CHOL    C7 3548   2.401   2.633   2.273
  115CHOL    C6 3549   2.490   2.522   2.230
  115CHOL    H9 3550   2.473   2.426   2.281
  115CHOL    C5 3551   2.592   2.538   2.144
  115CHOL    C4 3552   2.675   2.420   2.105
  115CHOL    C1 3553   2.825   2.452   2.115
  115CHOL    H2 3554   2.853   2.460   2.224
  115CHOL   O28 3555   2.901   2.348   2.054
  115CHOL   H74 3556   2.899   2.268   2.109
  115CHOL    C2 3557   2.862   2.583   2.046
  115CHOL    C3 3558   2.777   2.699   2.096
  115CHOL   C26 3559   2.627   2.673   2.079
  115CHOL   C27 3560   2.593   2.663   1.929
  115CHOL   C25 3561   2.550   2.791   2.148
  115CHOL   C24 3562   2.559   2.920   2.066
  115CHOL   C23 3563   2.481   3.034   2.130
  115CHOL   C21 3564   2.333   3.003   2.149
  115CHOL   C22 3565   2.262   2.995   2.012
  116CHOL   C19 3566   2.929   2.518   4.759
  116CHOL   C17 3567   2.919   2.663   4.804
  116CHOL   C18 3568   2.919   2.753   4.682
  116CHOL   C16 3569   3.037   2.694   4.894
  116CHOL   C15 3570   2.994   2.706   0.039
  116CHOL   C14 3571   2.962   2.573   0.105
  116CHOL   C13 3572   2.886   2.600   0.234
  116CHOL   C20 3573   2.739   2.572   0.206
  116CHOL   C12 3574   2.935   2.529   0.361
  116CHOL   C11 3575   3.063   2.444   0.347
  116CHOL   C10 3576   3.122   2.425   0.487
  116CHOL    C9 3577   3.025   2.501   0.576
  116CHOL    C8 3578   3.065   2.548   0.716
  116CHOL    C7 3579   3.101   2.431   0.808
  116CHOL    C6 3580   3.137   2.479   0.944
  116CHOL    H9 3581   3.198   2.408   1.002
  116CHOL    C5 3582   3.099   2.598   0.995
  116CHOL    C4 3583   3.143   2.641   1.131
  116CHOL    C1 3584   3.024   2.689   1.215
  116CHOL    H2 3585   2.958   2.599   1.235
  116CHOL   O28 3586   3.067   2.744   1.340
  116CHOL   H74 3587   3.114   2.677   1.393
  116CHOL    C2 3588   2.944   2.797   1.141
  116CHOL    C3 3589   2.898   2.747   1.004
  116CHOL   C26 3590   3.014   2.698   0.916
  116CHOL   C27 3591   3.105   2.817   0.882
  116CHOL   C25 3592   2.955   2.632   0.787
  116CHOL   C24 3593   2.894   2.738   0.694
  116CHOL   C23 3594   2.854   2.683   0.558
  116CHOL   C21 3595   2.970   2.617   0.485
  116CHOL   C22 3596   3.075   2.724   0.449
  117CHOL   C19 3597   1.119   1.275   0.392
  117CHOL   C17 3598   1.128   1.422   0.429
  117CHOL   C18 3599   1.274   1.461   0.447
  117CHOL   C16 3600   1.045   1.444   0.554
  117CHOL   C15 3601   1.025   1.589   0.596
  117CHOL   C14 3602   0.955   1.672   0.491
  117CHOL   C13 3603   0.875   1.788   0.550
  117CHOL   C20 3604   0.971   1.901   0.586
  117CHOL   C12 3605   0.760   1.837   0.460
  117CHOL   C11 3606   0.688   1.720   0.387
  117CHOL   C10 3607   0.542   1.757   0.363
  117CHOL    C9 3608   0.538   1.903   0.403
  117CHOL    C8 3609   0.407   1.980   0.420
  117CHOL    C7 3610   0.331   1.979   0.287
  117CHOL    C6 3611   0.213   2.069   0.289
  117CHOL    H9 3612   0.139   2.047   0.211
  117CHOL    C5 3613   0.195   2.170   0.376
  117CHOL    C4 3614   0.074   2.256   0.364
  117CHOL    C1 3615   0.114   2.404   0.358
  117CHOL    H2 3616   0.175   2.423   0.265
  117CHOL   O28 3617   4.997   2.487   0.355
  117CHOL   H74 3618   4.961   2.490   0.263
  117CHOL    C2 3619   0.199   2.442   0.479
  117CHOL    C3 3620   0.324   2.354   0.485
  117CHOL   C26 3621   0.295   2.203   0.488
  117CHOL   C27 3622   0.233   2.169   0.625
  117CHOL   C25 3623   0.430   2.127   0.463
  117CHOL   C24 3624   0.524   2.135   0.583
  117CHOL   C23 3625   0.655   2.062   0.556
  117CHOL   C21 3626   0.638   1.914   0.525
  117CHOL   C22 3627   0.590   1.841   0.652
  118CHOL   C19 3628   1.875   0.168   3.366
  118CHOL   C17 3629   1.774   0.274   3.405
  118CHOL   C18 3630   1.705   0.328   3.280
  118CHOL   C16 3631   1.845   0.385   3.481
  118CHOL   C15 3632   1.751   0.487   3.544
  118CHOL   C14 3633   1.660   0.424   3.648
  118CHOL   C13 3634   1.579   0.529   3.724
  118CHOL   C20 3635   1.443   0.538   3.658
  118CHOL   C12 3636   1.574   0.496   3.875
  118CHOL   C11 3637   1.718   0.502   3.929
  118CHOL   C10 3638   1.718   0.557   4.071
  118CHOL    C9 3639   1.572   0.549   4.110
  118CHOL    C8 3640   1.521   0.627   4.232
  118CHOL    C7 3641   1.594   0.585   4.359
  118CHOL    C6 3642   1.544   0.661   4.476
  118CHOL    H9 3643   1.615   0.672   4.560
  118CHOL    C5 3644   1.421   0.716   4.481
  118CHOL    C4 3645   1.378   0.788   4.604
  118CHOL    C1 3646   1.244   0.729   4.651
  118CHOL    H2 3647   1.261   0.621   4.679
  118CHOL   O28 3648   1.194   0.800   4.763
  118CHOL   H74 3649   1.253   0.785   4.841
  118CHOL    C2 3650   1.138   0.737   4.541
  118CHOL    C3 3651   1.185   0.663   4.415
  118CHOL   C26 3652   1.322   0.712   4.364
  118CHOL   C27 3653   1.309   0.856   4.311
  118CHOL   C25 3654   1.369   0.610   4.254
  118CHOL   C24 3655   1.289   0.628   4.124
  118CHOL   C23 3656   1.347   0.549   4.007
  118CHOL   C21 3657   1.493   0.585   3.978
  118CHOL   C22 3658   1.503   0.732   3.939
  119CHOL   C19 3659   4.193   2.968   3.158
  119CHOL   C17 3660   4.156   2.945   3.304
  119CHOL   C18 3661   4.151   3.079   3.375
  119CHOL   C16 3662   4.258   2.850   3.366
  119CHOL   C15 3663   4.238   2.823   3.514
  119CHOL   C14 3664   4.185   2.683   3.542
  119CHOL   C13 3665   4.192   2.652   3.692
  119CHOL   C20 3666   4.050   2.657   3.747
  119CHOL   C12 3667   4.263   2.517   3.717
  119CHOL   C11 3668   4.411   2.533   3.675
  119CHOL   C10 3669   4.501   2.453   3.766
  119CHOL    C9 3670   4.402   2.362   3.836
  119CHOL    C8 3671   4.445   2.282   3.958
  119CHOL    C7 3672   4.563   2.190   3.925
  119CHOL    C6 3673   4.599   2.102   4.040
  119CHOL    H9 3674   4.702   2.064   4.041
  119CHOL    C5 3675   4.513   2.073   4.140
  119CHOL    C4 3676   4.557   1.981   4.250
  119CHOL    C1 3677   4.447   1.882   4.288
  119CHOL    H2 3678   4.430   1.809   4.204
  119CHOL   O28 3679   4.483   1.809   4.406
  119CHOL   H74 3680   4.563   1.754   4.388
  119CHOL    C2 3681   4.316   1.951   4.317
  119CHOL    C3 3682   4.273   2.030   4.193
  119CHOL   C26 3683   4.375   2.138   4.154
  119CHOL   C27 3684   4.380   2.246   4.264
  119CHOL   C25 3685   4.329   2.198   4.017
  119CHOL   C24 3686   4.199   2.279   4.032
  119CHOL   C23 3687   4.163   2.357   3.906
  119CHOL   C21 3688   4.274   2.452   3.861
  119CHOL   C22 3689   4.295   2.558   3.969
  120CHOL   C19 3690   1.237   3.871   4.708
  120CHOL   C17 3691   1.300   3.748   4.770
  120CHOL   C18 3692   1.197   3.676   4.856
  120CHOL   C16 3693   1.422   3.787   4.851
  120CHOL   C15 3694   1.515   3.671   4.880
  120CHOL   C14 3695   1.617   3.649   4.769
  120CHOL   C13 3696   1.721   3.544   4.810
  120CHOL   C20 3697   1.722   3.435   4.703
  120CHOL   C12 3698   1.863   3.601   4.832
  120CHOL   C11 3699   1.854   3.724   4.926
  120CHOL   C10 3700   1.976   3.732   0.016
  120CHOL    C9 3701   2.069   3.636   4.946
  120CHOL    C8 3702   2.197   3.594   0.016
  120CHOL    C7 3703   2.285   3.716   0.045
  120CHOL    C6 3704   2.410   3.675   0.113
  120CHOL    H9 3705   2.447   3.746   0.187
  120CHOL    C5 3706   2.467   3.554   0.097
  120CHOL    C4 3707   2.596   3.525   0.166
  120CHOL    C1 3708   2.695   3.452   0.074
  120CHOL    H2 3709   2.731   3.523   4.994
  120CHOL   O28 3710   2.807   3.405   0.150
  120CHOL   H74 3711   2.831   3.467   0.224
  120CHOL    C2 3712   2.629   3.330   0.009
  120CHOL    C3 3713   2.498   3.365   4.938
  120CHOL   C26 3714   2.396   3.437   0.028
  120CHOL   C27 3715   2.345   3.345   0.140
  120CHOL   C25 3716   2.279   3.489   4.937
  120CHOL   C24 3717   2.190   3.374   4.887
  120CHOL   C23 3718   2.063   3.423   4.817
  120CHOL   C21 3719   1.976   3.515   4.903
  120CHOL   C22 3720   1.918   3.435   0.021
  121CHOL   C19 3721   3.052   4.429   3.524
  121CHOL   C17 3722   3.070   4.348   3.398
  121CHOL   C18 3723   3.220   4.329   3.381
  121CHOL   C16 3724   3.012   4.421   3.278
  121CHOL   C15 3725   2.870   4.380   3.236
  121CHOL   C14 3726   2.760   4.405   3.338
  121CHOL   C13 3727   2.621   4.385   3.275
  121CHOL   C20 3728   2.585   4.237   3.285
  121CHOL   C12 3729   2.509   4.478   3.328
  121CHOL   C11 3730   2.563   4.619   3.361
  121CHOL   C10 3731   2.465   4.726   3.315
  121CHOL    C9 3732   2.337   4.649   3.288
  121CHOL    C8 3733   2.223   4.711   3.205
  121CHOL    C7 3734   2.170   4.842   3.264
  121CHOL    C6 3735   2.059   4.898   3.181
  121CHOL    H9 3736   2.052   0.007   3.180
  121CHOL    C5 3737   1.980   4.822   3.101
  121CHOL    C4 3738   1.869   4.886   3.024
  121CHOL    C1 3739   1.740   4.802   3.032
  121CHOL    H2 3740   1.699   4.807   3.137
  121CHOL   O28 3741   1.642   4.853   2.941
  121CHOL   H74 3742   1.609   4.940   2.975
  121CHOL    C2 3743   1.765   4.656   2.995
  121CHOL    C3 3744   1.874   4.595   3.083
  121CHOL   C26 3745   2.007   4.673   3.076
  121CHOL   C27 3746   2.067   4.659   2.934
  121CHOL   C25 3747   2.104   4.615   3.186
  121CHOL   C24 3748   2.148   4.472   3.151
  121CHOL   C23 3749   2.264   4.420   3.237
  121CHOL   C21 3750   2.387   4.510   3.231
  121CHOL   C22 3751   2.438   4.520   3.087
  122CHOL   C19 3752   4.943   1.627   2.604
  122CHOL   C17 3753   4.837   1.526   2.565
  122CHOL   C18 3754   4.861   1.393   2.637
  122CHOL   C16 3755   4.836   1.513   2.414
  122CHOL   C15 3756   4.713   1.442   2.360
  122CHOL   C14 3757   4.584   1.517   2.390
  122CHOL   C13 3758   4.489   1.507   2.270
  122CHOL   C20 3759   4.395   1.389   2.293
  122CHOL   C12 3760   4.414   1.637   2.237
  122CHOL   C11 3761   4.505   1.762   2.252
  122CHOL   C10 3762   4.459   1.869   2.153
  122CHOL    C9 3763   4.330   1.811   2.099
  122CHOL    C8 3764   4.260   1.870   1.976
  122CHOL    C7 3765   4.223   2.015   2.006
  122CHOL    C6 3766   4.130   2.075   1.907
  122CHOL    H9 3767   4.123   2.184   1.910
  122CHOL    C5 3768   4.055   2.003   1.822
  122CHOL    C4 3769   3.962   2.074   1.729
  122CHOL    C1 3770   3.822   2.013   1.739
  122CHOL    H2 3771   3.780   2.031   1.843
  122CHOL   O28 3772   3.735   2.074   1.643
  122CHOL   H74 3773   3.722   2.168   1.664
  122CHOL    C2 3774   3.826   1.863   1.711
  122CHOL    C3 3775   3.918   1.794   1.812
  122CHOL   C26 3776   4.061   1.849   1.813
  122CHOL   C27 3777   4.132   1.808   1.683
  122CHOL   C25 3778   4.132   1.791   1.940
  122CHOL   C24 3779   4.161   1.641   1.927
  122CHOL   C23 3780   4.225   1.587   2.054
  122CHOL   C21 3781   4.357   1.655   2.090
  122CHOL   C22 3782   4.463   1.617   1.985
  123CHOL   C19 3783   4.539   0.940   4.054
  123CHOL   C17 3784   4.456   1.016   3.953
  123CHOL   C18 3785   4.408   1.147   4.015
  123CHOL   C16 3786   4.341   0.927   3.909
  123CHOL   C15 3787   4.258   0.982   3.794
  123CHOL   C14 3788   4.339   0.988   3.665
  123CHOL   C13 3789   4.243   0.990   3.545
  123CHOL   C20 3790   4.234   1.132   3.494
  123CHOL   C12 3791   4.283   0.888   3.435
  123CHOL   C11 3792   4.299   0.748   3.499
  123CHOL   C10 3793   4.253   0.640   3.401
  123CHOL    C9 3794   4.244   0.718   3.272
  123CHOL    C8 3795   4.176   0.656   3.150
  123CHOL    C7 3796   4.248   0.528   3.107
  123CHOL    C6 3797   4.183   0.467   2.988
  123CHOL    H9 3798   4.203   0.360   2.973
  123CHOL    C5 3799   4.105   0.536   2.902
  123CHOL    C4 3800   4.046   0.463   2.786
  123CHOL    C1 3801   4.054   0.544   2.656
  123CHOL    H2 3802   4.161   0.548   2.620
  123CHOL   O28 3803   3.973   0.481   2.555
  123CHOL   H74 3804   4.016   0.399   2.524
  123CHOL    C2 3805   4.002   0.686   2.676
  123CHOL    C3 3806   4.080   0.757   2.788
  123CHOL   C26 3807   4.067   0.684   2.923
  123CHOL   C27 3808   3.920   0.690   2.968
  123CHOL   C25 3809   4.163   0.751   3.028
  123CHOL   C24 3810   4.113   0.890   3.070
  123CHOL   C23 3811   4.190   0.948   3.190
  123CHOL   C21 3812   4.184   0.859   3.314
  123CHOL   C22 3813   4.040   0.851   3.364
  124CHOL   C19 3814   1.779   2.065   2.090
  124CHOL   C17 3815   1.763   1.989   2.219
  124CHOL   C18 3816   1.663   1.875   2.199
  124CHOL   C16 3817   1.720   2.087   2.326
  124CHOL   C15 3818   1.717   2.027   2.466
  124CHOL   C14 3819   1.853   1.977   2.511
  124CHOL   C13 3820   1.839   1.920   2.652
  124CHOL   C20 3821   1.816   1.770   2.640
  124CHOL   C12 3822   1.951   1.953   2.752
  124CHOL   C11 3823   2.038   2.075   2.712
  124CHOL   C10 3824   2.097   2.134   2.840
  124CHOL    C9 3825   2.047   2.042   2.950
  124CHOL    C8 3826   2.047   2.083   3.098
  124CHOL    C7 3827   2.189   2.117   3.146
  124CHOL    C6 3828   2.195   2.140   3.293
  124CHOL    H9 3829   2.275   2.207   3.327
  124CHOL    C5 3830   2.105   2.091   3.380
  124CHOL    C4 3831   2.123   2.114   3.527
  124CHOL    C1 3832   2.099   1.984   3.605
  124CHOL    H2 3833   2.175   1.907   3.573
  124CHOL   O28 3834   2.111   2.006   3.746
  124CHOL   H74 3835   2.054   2.084   3.775
  124CHOL    C2 3836   1.958   1.932   3.576
  124CHOL    C3 3837   1.944   1.903   3.426
  124CHOL   C26 3838   1.974   2.025   3.336
  124CHOL   C27 3839   1.864   2.130   3.349
  124CHOL   C25 3840   1.986   1.974   3.188
  124CHOL   C24 3841   1.851   1.924   3.136
  124CHOL   C23 3842   1.858   1.881   2.990
  124CHOL   C21 3843   1.906   1.993   2.898
  124CHOL   C22 3844   1.800   2.104   2.895
  125CHOL   C19 3845   4.709   4.270   0.700
  125CHOL   C17 3846   4.663   4.155   0.613
  125CHOL   C18 3847   4.557   4.075   0.686
  125CHOL   C16 3848   4.782   4.069   0.574
  125CHOL   C15 3849   4.759   3.991   0.446
  125CHOL   C14 3850   4.779   4.077   0.322
  125CHOL   C13 3851   4.777   3.988   0.197
  125CHOL   C20 3852   4.648   4.016   0.122
  125CHOL   C12 3853   4.901   3.998   0.105
  125CHOL   C11 3854   0.031   4.037   0.180
  125CHOL   C10 3855   0.152   3.973   0.110
  125CHOL    C9 3856   0.090   3.922   4.981
  125CHOL    C8 3857   0.168   3.832   4.883
  125CHOL    C7 3858   0.289   3.908   4.829
  125CHOL    C6 3859   0.351   3.844   4.710
  125CHOL    H9 3860   0.457   3.871   4.692
  125CHOL    C5 3861   0.288   3.757   4.628
  125CHOL    C4 3862   0.359   3.703   4.507
  125CHOL    C1 3863   0.268   3.697   4.383
  125CHOL    H2 3864   0.250   3.801   4.345
  125CHOL   O28 3865   0.331   3.619   4.280
  125CHOL   H74 3866   0.425   3.648   4.267
  125CHOL    C2 3867   0.135   3.630   4.414
  125CHOL    C3 3868   0.065   3.698   4.532
  125CHOL   C26 3869   0.150   3.698   4.661
  125CHOL   C27 3870   0.170   3.554   4.711
  125CHOL   C25 3871   0.077   3.788   4.766
  125CHOL   C24 3872   4.949   3.723   4.819
  125CHOL   C23 3873   4.870   3.822   4.904
  125CHOL   C21 3874   4.948   3.867   0.028
  125CHOL   C22 3875   4.953   3.748   0.125
  126CHOL   C19 3876   1.874   4.422   0.960
  126CHOL   C17 3877   1.739   4.429   0.890
  126CHOL   C18 3878   1.632   4.458   0.993
  126CHOL   C16 3879   1.709   4.299   0.818
  126CHOL   C15 3880   1.737   4.310   0.669
  126CHOL   C14 3881   1.882   4.286   0.630
  126CHOL   C13 3882   1.917   4.361   0.500
  126CHOL   C20 3883   2.048   4.431   0.526
  126CHOL   C12 3884   1.928   4.279   0.370
  126CHOL   C11 3885   1.902   4.127   0.385
  126CHOL   C10 3886   1.847   4.076   0.252
  126CHOL    C9 3887   1.870   4.194   0.159
  126CHOL    C8 3888   1.810   4.200   0.018
  126CHOL    C7 3889   1.860   4.077   4.940
  126CHOL    C6 3890   1.844   4.087   4.793
  126CHOL    H9 3891   1.829   3.991   4.742
  126CHOL    C5 3892   1.834   4.204   4.727
  126CHOL    C4 3893   1.834   4.199   4.578
  126CHOL    C1 3894   1.887   4.328   4.514
  126CHOL    H2 3895   1.999   4.333   4.529
  126CHOL   O28 3896   1.859   4.331   4.373
  126CHOL   H74 3897   1.774   4.285   4.352
  126CHOL    C2 3898   1.821   4.451   4.576
  126CHOL    C3 3899   1.852   4.456   4.725
  126CHOL   C26 3900   1.795   4.334   4.800
  126CHOL   C27 3901   1.642   4.345   4.802
  126CHOL   C25 3902   1.854   4.330   4.945
  126CHOL   C24 3903   1.818   4.452   0.029
  126CHOL   C23 3904   1.881   4.445   0.168
  126CHOL   C21 3905   1.839   4.321   0.247
  126CHOL   C22 3906   1.692   4.334   0.287
  127CHOL   C19 3907   1.434   2.216   3.036
  127CHOL   C17 3908   1.286   2.185   3.037
  127CHOL   C18 3909   1.267   2.042   3.083
  127CHOL   C16 3910   1.225   2.213   2.900
  127CHOL   C15 3911   1.073   2.208   2.895
  127CHOL   C14 3912   1.004   2.328   2.959
  127CHOL   C13 3913   0.904   2.391   2.860
  127CHOL   C20 3914   0.766   2.339   2.893
  127CHOL   C12 3915   0.904   2.545   2.849
  127CHOL   C11 3916   1.042   2.604   2.889
  127CHOL   C10 3917   1.074   2.724   2.801
  127CHOL    C9 3918   0.940   2.755   2.740
  127CHOL    C8 3919   0.931   2.860   2.629
  127CHOL    C7 3920   0.980   2.995   2.683
  127CHOL    C6 3921   0.958   3.106   2.586
  127CHOL    H9 3922   1.027   3.190   2.597
  127CHOL    C5 3923   0.866   3.102   2.489
  127CHOL    C4 3924   0.849   3.222   2.401
  127CHOL    C1 3925   0.700   3.255   2.382
  127CHOL    H2 3926   0.656   3.285   2.481
  127CHOL   O28 3927   0.687   3.365   2.291
  127CHOL   H74 3928   0.711   3.338   2.198
  127CHOL    C2 3929   0.624   3.133   2.330
  127CHOL    C3 3930   0.638   3.015   2.427
  127CHOL   C26 3931   0.784   2.975   2.454
  127CHOL   C27 3932   0.845   2.914   2.326
  127CHOL   C25 3933   0.787   2.874   2.575
  127CHOL   C24 3934   0.727   2.736   2.540
  127CHOL   C23 3935   0.735   2.636   2.656
  127CHOL   C21 3936   0.879   2.613   2.706
  127CHOL   C22 3937   0.954   2.534   2.598
  128CHOL   C19 3938   1.953   2.373   2.403
  128CHOL   C17 3939   1.989   2.386   2.256
  128CHOL   C18 3940   2.113   2.303   2.228
  128CHOL   C16 3941   2.009   2.534   2.226
  128CHOL   C15 3942   2.032   2.569   2.080
  128CHOL   C14 3943   1.908   2.558   1.993
  128CHOL   C13 3944   1.932   2.623   1.856
  128CHOL   C20 3945   1.967   2.511   1.761
  128CHOL   C12 3946   1.814   2.706   1.804
  128CHOL   C11 3947   1.773   2.810   1.910
  128CHOL   C10 3948   1.711   2.931   1.841
  128CHOL    C9 3949   1.697   2.882   1.699
  128CHOL    C8 3950   1.662   2.979   1.586
  128CHOL    C7 3951   1.527   3.043   1.616
  128CHOL    C6 3952   1.480   3.127   1.503
  128CHOL    H9 3953   1.410   3.206   1.532
  128CHOL    C5 3954   1.523   3.115   1.377
  128CHOL    C4 3955   1.463   3.203   1.272
  128CHOL    C1 3956   1.413   3.115   1.156
  128CHOL    H2 3957   1.333   3.044   1.196
  128CHOL   O28 3958   1.355   3.195   1.052
  128CHOL   H74 3959   1.277   3.243   1.088
  128CHOL    C2 3960   1.529   3.034   1.099
  128CHOL    C3 3961   1.587   2.942   1.207
  128CHOL   C26 3962   1.632   3.016   1.334
  128CHOL   C27 3963   1.760   3.096   1.302
  128CHOL   C25 3964   1.656   2.910   1.448
  128CHOL   C24 3965   1.781   2.826   1.424
  128CHOL   C23 3966   1.810   2.728   1.537
  128CHOL   C21 3967   1.827   2.795   1.673
  128CHOL   C22 3968   1.958   2.875   1.674
  129CHOL   C19 3969   4.284   3.318   1.992
  129CHOL   C17 3970   4.249   3.179   2.038
  129CHOL   C18 3971   4.178   3.112   1.923
  129CHOL   C16 3972   4.160   3.181   2.162
  129CHOL   C15 3973   4.229   3.220   2.292
  129CHOL   C14 3974   4.214   3.367   2.329
  129CHOL   C13 3975   4.275   3.392   2.468
  129CHOL   C20 3976   4.404   3.470   2.450
  129CHOL   C12 3977   4.180   3.459   2.570
  129CHOL   C11 3978   4.034   3.408   2.556
  129CHOL   C10 3979   3.971   3.387   2.694
  129CHOL    C9 3980   4.066   3.464   2.784
  129CHOL    C8 3981   4.059   3.449   2.936
  129CHOL    C7 3982   3.920   3.485   2.988
  129CHOL    C6 3983   3.913   3.482   3.137
  129CHOL    H9 3984   3.811   3.481   3.178
  129CHOL    C5 3985   4.020   3.488   3.217
  129CHOL    C4 3986   4.002   3.480   3.365
  129CHOL    C1 3987   4.087   3.585   3.438
  129CHOL    H2 3988   4.047   3.687   3.414
  129CHOL   O28 3989   4.076   3.562   3.579
  129CHOL   H74 3990   4.132   3.627   3.628
  129CHOL    C2 3991   4.233   3.581   3.394
  129CHOL    C3 3992   4.243   3.602   3.242
  129CHOL   C26 3993   4.165   3.496   3.162
  129CHOL   C27 3994   4.230   3.359   3.183
  129CHOL   C25 3995   4.164   3.536   3.010
  129CHOL   C24 3996   4.303   3.522   2.947
  129CHOL   C23 3997   4.304   3.535   2.794
  129CHOL   C21 3998   4.210   3.436   2.725
  129CHOL   C22 3999   4.258   3.292   2.748
  130CHOL   C19 4000   3.119   2.076   4.368
  130CHOL   C17 4001   3.098   2.111   4.222
  130CHOL   C18 4002   3.065   2.259   4.211
  130CHOL   C16 4003   2.991   2.021   4.164
  130CHOL   C15 4004   2.983   2.028   4.012
  130CHOL   C14 4005   3.107   1.969   3.946
  130CHOL   C13 4006   3.118   2.016   3.801
  130CHOL   C20 4007   3.222   2.126   3.801
  130CHOL   C12 4008   3.155   1.905   3.701
  130CHOL   C11 4009   3.072   1.777   3.725
  130CHOL   C10 4010   3.065   1.699   3.594
  130CHOL    C9 4011   3.154   1.779   3.499
  130CHOL    C8 4012   3.141   1.761   3.348
  130CHOL    C7 4013   3.164   1.615   3.308
  130CHOL    C6 4014   3.157   1.597   3.161
  130CHOL    H9 4015   3.123   1.497   3.128
  130CHOL    C5 4016   3.183   1.694   3.073
  130CHOL    C4 4017   3.182   1.661   2.927
  130CHOL    C1 4018   3.302   1.724   2.855
  130CHOL    H2 4019   3.397   1.676   2.891
  130CHOL   O28 4020   3.291   1.703   2.714
  130CHOL   H74 4021   3.275   1.609   2.693
  130CHOL    C2 4022   3.309   1.874   2.883
  130CHOL    C3 4023   3.322   1.900   3.033
  130CHOL   C26 4024   3.204   1.842   3.113
  130CHOL   C27 4025   3.076   1.920   3.076
  130CHOL   C25 4026   3.237   1.853   3.267
  130CHOL   C24 4027   3.228   1.998   3.316
  130CHOL   C23 4028   3.240   2.011   3.468
  130CHOL   C21 4029   3.136   1.928   3.545
  130CHOL   C22 4030   2.995   1.980   3.517
  131CHOL   C19 4031   1.800   3.816   4.340
  131CHOL   C17 4032   1.659   3.760   4.341
  131CHOL   C18 4033   1.575   3.836   4.442
  131CHOL   C16 4034   1.667   3.611   4.367
  131CHOL   C15 4035   1.534   3.539   4.356
  131CHOL   C14 4036   1.557   3.389   4.349
  131CHOL   C13 4037   1.431   3.301   4.356
  131CHOL   C20 4038   1.351   3.322   4.229
  131CHOL   C12 4039   1.459   3.151   4.380
  131CHOL   C11 4040   1.581   3.134   4.474
  131CHOL   C10 4041   1.558   3.017   4.568
  131CHOL    C9 4042   1.444   2.945   4.501
  131CHOL    C8 4043   1.375   2.830   4.574
  131CHOL    C7 4044   1.474   2.715   4.595
  131CHOL    C6 4045   1.409   2.595   4.655
  131CHOL    H9 4046   1.477   2.524   4.705
  131CHOL    C5 4047   1.276   2.572   4.651
  131CHOL    C4 4048   1.224   2.445   4.710
  131CHOL    C1 4049   1.115   2.383   4.623
  131CHOL    H2 4050   1.160   2.348   4.526
  131CHOL   O28 4051   1.057   2.270   4.691
  131CHOL   H74 4052   1.124   2.199   4.700
  131CHOL    C2 4053   1.004   2.484   4.595
  131CHOL    C3 4054   1.062   2.605   4.521
  131CHOL   C26 4055   1.175   2.675   4.598
  131CHOL   C27 4056   1.112   2.746   4.718
  131CHOL   C25 4057   1.249   2.776   4.502
  131CHOL   C24 4058   1.158   2.889   4.451
  131CHOL   C23 4059   1.236   2.993   4.370
  131CHOL   C21 4060   1.348   3.061   4.450
  131CHOL   C22 4061   1.281   3.143   4.560
  132CHOL   C19 4062   2.698   3.542   4.276
  132CHOL   C17 4063   2.759   3.615   4.159
  132CHOL   C18 4064   2.650   3.638   4.056
  132CHOL   C16 4065   2.874   3.531   4.104
  132CHOL   C15 4066   2.940   3.591   3.980
  132CHOL   C14 4067   3.015   3.720   4.009
  132CHOL   C13 4068   3.067   3.779   3.878
  132CHOL   C20 4069   2.995   3.911   3.856
  132CHOL   C12 4070   3.220   3.797   3.869
  132CHOL   C11 4071   3.298   3.680   3.936
  132CHOL   C10 4072   3.428   3.656   3.860
  132CHOL    C9 4073   3.434   3.777   3.768
  132CHOL    C8 4074   3.532   3.782   3.651
  132CHOL    C7 4075   3.673   3.767   3.707
  132CHOL    C6 4076   3.776   3.786   3.602
  132CHOL    H9 4077   3.867   3.726   3.615
  132CHOL    C5 4078   3.756   3.862   3.493
  132CHOL    C4 4079   3.871   3.883   3.400
  132CHOL    C1 4080   3.885   4.032   3.366
  132CHOL    H2 4081   3.910   4.089   3.460
  132CHOL   O28 4082   3.991   4.049   3.271
  132CHOL   H74 4083   3.985   3.979   3.199
  132CHOL    C2 4084   3.754   4.084   3.307
  132CHOL    C3 4085   3.639   4.066   3.407
  132CHOL   C26 4086   3.620   3.919   3.451
  132CHOL   C27 4087   3.570   3.840   3.330
  132CHOL   C25 4088   3.521   3.915   3.572
  132CHOL   C24 4089   3.376   3.940   3.529
  132CHOL   C23 4090   3.280   3.936   3.648
  132CHOL   C21 4091   3.284   3.803   3.724
  132CHOL   C22 4092   3.228   3.691   3.635
  133CHOL   C19 4093   1.948   2.687   1.088
  133CHOL   C17 4094   2.050   2.722   1.194
  133CHOL   C18 4095   2.085   2.869   1.175
  133CHOL   C16 4096   2.166   2.625   1.179
  133CHOL   C15 4097   2.293   2.665   1.252
  133CHOL   C14 4098   2.293   2.654   1.403
  133CHOL   C13 4099   2.434   2.694   1.450
  133CHOL   C20 4100   2.419   2.813   1.543
  133CHOL   C12 4101   2.520   2.580   1.508
  133CHOL   C11 4102   2.500   2.446   1.431
  133CHOL   C10 4103   2.623   2.358   1.448
  133CHOL    C9 4104   2.707   2.439   1.545
  133CHOL    C8 4105   2.854   2.404   1.570
  133CHOL    C7 4106   2.863   2.263   1.630
  133CHOL    C6 4107   2.996   2.232   1.691
  133CHOL    H9 4108   3.020   2.125   1.700
  133CHOL    C5 4109   3.086   2.326   1.727
  133CHOL    C4 4110   3.210   2.283   1.799
  133CHOL    C1 4111   3.237   2.379   1.917
  133CHOL    H2 4112   3.149   2.375   1.988
  133CHOL   O28 4113   3.356   2.343   1.988
  133CHOL   H74 4114   3.435   2.350   1.930
  133CHOL    C2 4115   3.253   2.521   1.864
  133CHOL    C3 4116   3.122   2.566   1.800
  133CHOL   C26 4117   3.071   2.474   1.687
  133CHOL   C27 4118   3.154   2.500   1.561
  133CHOL   C25 4119   2.920   2.507   1.665
  133CHOL   C24 4120   2.897   2.650   1.618
  133CHOL   C23 4121   2.748   2.682   1.604
  133CHOL   C21 4122   2.677   2.590   1.505
  133CHOL   C22 4123   2.721   2.630   1.363
  134CHOL   C19 4124   2.047   1.077   1.799
  134CHOL   C17 4125   2.140   1.012   1.699
  134CHOL   C18 4126   2.259   1.101   1.673
  134CHOL   C16 4127   2.065   0.984   1.569
  134CHOL   C15 4128   2.131   0.876   1.486
  134CHOL   C14 4129   2.122   0.739   1.551
  134CHOL   C13 4130   2.208   0.637   1.476
  134CHOL   C20 4131   2.340   0.627   1.551
  134CHOL   C12 4132   2.137   0.501   1.457
  134CHOL   C11 4133   2.000   0.522   1.388
  134CHOL   C10 4134   1.968   0.399   1.303
  134CHOL    C9 4135   2.070   0.299   1.354
  134CHOL    C8 4136   2.090   0.164   1.284
  134CHOL    C7 4137   1.959   0.085   1.288
  134CHOL    C6 4138   1.975   4.944   1.244
  134CHOL    H9 4139   1.880   4.893   1.220
  134CHOL    C5 4140   2.092   4.878   1.241
  134CHOL    C4 4141   2.095   4.735   1.198
  134CHOL    C1 4142   2.184   4.649   1.289
  134CHOL    H2 4143   2.135   4.634   1.390
  134CHOL   O28 4144   2.204   4.521   1.229
  134CHOL   H74 4145   2.123   4.466   1.234
  134CHOL    C2 4146   2.322   4.712   1.310
  134CHOL    C3 4147   2.310   4.854   1.364
  134CHOL   C26 4148   2.226   4.947   1.274
  134CHOL   C27 4149   2.300   4.974   1.142
  134CHOL   C25 4150   2.202   0.081   1.352
  134CHOL   C24 4151   2.331   0.163   1.365
  134CHOL   C23 4152   2.308   0.296   1.436
  134CHOL   C21 4153   2.202   0.385   1.371
  134CHOL   C22 4154   2.257   0.438   1.238
  135SOL     OW 4155   0.194   0.548   0.157
  135SOL    HW1 4156   0.097   0.524   0.146
  135SOL    HW2 4157   0.217   0.621   0.093
  136SOL     OW 4158   0.132   0.190   1.101
  136SOL    HW1 4159   0.080   0.125   1.046
  136SOL    HW2 4160   0.086   0.279   1.102
  137SOL     OW 4161   1.255   0.659   0.769
  137SOL    HW1 4162   1.242   0.754   0.742
  137SOL    HW2 4163   1.220   0.646   0.862
  138SOL     OW 4164   0.604   1.244   1.856
  138SOL    HW1 4165   0.680   1.189   1.820
  138SOL    HW2 4166   0.577   1.312   1.788
  139SOL     OW 4167   0.439   1.360   0.976
  139SOL    HW1 4168   0.340   1.375   0.981
  139SOL    HW2 4169   0.485   1.448   0.963
  140SOL     OW 4170   1.593   1.445   1.347
  140SOL    HW1 4171   1.580   1.497   1.431
  140SOL    HW2 4172   1.537   1.363   1.349
  141SOL     OW 4173   0.506   0.348   1.575
  141SOL    HW1 4174   0.583   0.323   1.516
  141SOL    HW2 4175   0.420   0.339   1.525
  142SOL     OW 4176   1.548   0.428   0.709
  142SOL    HW1 4177   1.540   0.515   0.661
  142SOL    HW2 4178   1.585   0.443   0.800
  143SOL     OW 4179   0.267   1.580   0.453
  143SOL    HW1 4180   0.246   1.675   0.429
  143SOL    HW2 4181   0.181   1.529   0.463
  144SOL     OW 4182   0.888   1.064   1.911
  144SOL    HW1 4183   0.876   1.075   2.009
  144SOL    HW2 4184   0.957   1.129   1.878
  145SOL     OW 4185   0.224   1.095   0.946
  145SOL    HW1 4186   0.262   1.091   0.853
  145SOL    HW2 4187   0.206   1.191   0.969
  146SOL     OW 4188   1.676   0.846   0.640
  146SOL    HW1 4189   1.753   0.834   0.702
  146SOL    HW2 4190   1.682   0.936   0.597
  147SOL     OW 4191   1.686   1.096   0.527
  147SOL    HW1 4192   1.742   1.127   0.449
  147SOL    HW2 4193   1.721   1.137   0.611
  148SOL     OW 4194   0.018   0.643   1.680
  148SOL    HW1 4195   0.005   0.715   1.748
  148SOL    HW2 4196   4.941   0.644   1.616
  149SOL     OW 4197   0.521   1.248   0.746
  149SOL    HW1 4198   0.491   1.269   0.839
  149SOL    HW2 4199   0.486   1.317   0.683
  150SOL     OW 4200   1.441   1.211   1.356
  150SOL    HW1 4201   1.380   1.136   1.334
  150SOL    HW2 4202   1.464   1.208   1.454
  151SOL     OW 4203   0.780   4.990   0.682
  151SOL    HW1 4204   0.791   0.046   0.600
  151SOL    HW2 4205   0.704   0.026   0.737
  152SOL     OW 4206   0.320   0.340   1.774
  152SOL    HW1 4207   0.397   0.357   1.713
  152SOL    HW2 4208   0.352   0.295   1.857
  153SOL     OW 4209   1.475   1.321   0.828
  153SOL    HW1 4210   1.452   1.305   0.924
  153SOL    HW2 4211   1.411   1.273   0.769
  154SOL     OW 4212   0.552   0.709   0.110
  154SOL    HW1 4213   0.647   0.678   0.114
  154SOL    HW2 4214   0.506   0.689   0.197
  155SOL     OW 4215   1.265   0.268   0.919
  155SOL    HW1 4216   1.184   0.221   0.953
  155SOL    HW2 4217   1.301   0.328   0.991
  156SOL     OW 4218   0.857   0.578   1.412
  156SOL    HW1 4219   0.779   0.591   1.473
  156SOL    HW2 4220   0.834   0.509   1.344
  157SOL     OW 4221   1.066   0.355   1.208
  157SOL    HW1 4222   0.974   0.383   1.233
  157SOL    HW2 4223   1.062   0.280   1.141
  158SOL     OW 4224   1.322   0.513   0.449
  158SOL    HW1 4225   1.390   0.573   0.491
  158SOL    HW2 4226   1.270   0.467   0.521
  159SOL     OW 4227   1.430   1.128   0.450
  159SOL    HW1 4228   1.526   1.121   0.477
  159SOL    HW2 4229   1.395   1.036   0.431
  160SOL     OW 4230   0.570   0.109   0.817
  160SOL    HW1 4231   0.558   0.087   0.914
  160SOL    HW2 4232   0.581   0.208   0.807
  161SOL     OW 4233   1.937   1.071   0.922
  161SOL    HW1 4234   1.856   1.094   0.867
  161SOL    HW2 4235   1.976   1.154   0.961
  162SOL     OW 4236   1.480   0.674   0.603
  162SOL    HW1 4237   1.418   0.672   0.681
  162SOL    HW2 4238   1.557   0.733   0.623
  163SOL     OW 4239   1.000   1.691   0.172
  163SOL    HW1 4240   0.924   1.722   0.114
  163SOL    HW2 4241   1.035   1.604   0.137
  164SOL     OW 4242   0.252   0.305   1.481
  164SOL    HW1 4243   0.180   0.361   1.441
  164SOL    HW2 4244   0.232   0.290   1.578
  165SOL     OW 4245   1.586   1.355   0.199
  165SOL    HW1 4246   1.581   1.434   0.139
  165SOL    HW2 4247   1.545   1.378   0.288
  166SOL     OW 4248   1.280   0.044   0.462
  166SOL    HW1 4249   1.269   4.991   0.378
  166SOL    HW2 4250   1.376   0.070   0.473
  167SOL     OW 4251   0.994   1.753   0.902
  167SOL    HW1 4252   1.075   1.763   0.845
  167SOL    HW2 4253   0.973   1.656   0.913
  168SOL     OW 4254   0.415   0.624   0.325
  168SOL    HW1 4255   0.445   0.559   0.395
  168SOL    HW2 4256   0.322   0.601   0.296
  169SOL     OW 4257   0.511   0.035   0.067
  169SOL    HW1 4258   0.588   0.026   0.131
  169SOL    HW2 4259   0.546   0.051   4.975
  170SOL     OW 4260   0.827   0.248   1.649
  170SOL    HW1 4261   0.902   0.313   1.642
  170SOL    HW2 4262   0.819   0.215   1.743
  171SOL     OW 4263   0.792   1.619   1.143
  171SOL    HW1 4264   0.758   1.690   1.082
  171SOL    HW2 4265   0.845   1.553   1.090
  172SOL     OW 4266   0.925   1.492   0.920
  172SOL    HW1 4267   1.004   1.434   0.906
  172SOL    HW2 4268   0.853   1.468   0.855
  173SOL     OW 4269   0.973   0.428   0.906
  173SOL    HW1 4270   0.947   0.414   0.810
  173SOL    HW2 4271   0.991   0.339   0.948
  174SOL     OW 4272   0.449   0.055   0.560
  174SOL    HW1 4273   0.494   0.093   0.641
  174SOL    HW2 4274   0.468   0.113   0.481
  175SOL     OW 4275   1.291   1.306   0.110
  175SOL    HW1 4276   1.341   1.251   0.177
  175SOL    HW2 4277   1.348   1.319   0.028
  176SOL     OW 4278   0.269   0.079   0.200
  176SOL    HW1 4279   0.356   0.069   0.151
  176SOL    HW2 4280   0.265   0.012   0.274
  177SOL     OW 4281   0.832   0.160   0.481
  177SOL    HW1 4282   0.793   0.130   0.394
  177SOL    HW2 4283   0.929   0.182   0.468
  178SOL     OW 4284   1.098   0.603   1.537
  178SOL    HW1 4285   1.010   0.600   1.489
  178SOL    HW2 4286   1.101   0.529   1.605
  179SOL     OW 4287   1.294   1.568   0.811
  179SOL    HW1 4288   1.302   1.652   0.757
  179SOL    HW2 4289   1.380   1.516   0.804
  180SOL     OW 4290   1.316   1.800   0.660
  180SOL    HW1 4291   1.305   1.807   0.561
  180SOL    HW2 4292   1.364   1.881   0.694
  181SOL     OW 4293   0.068   0.482   1.370
  181SOL    HW1 4294   0.050   0.462   1.274
  181SOL    HW2 4295   0.119   0.568   1.378
  182SOL     OW 4296   0.525   0.035   1.078
  182SOL    HW1 4297   0.509   4.937   1.076
  182SOL    HW2 4298   0.462   0.078   1.143
  183SOL     OW 4299   0.836   0.359   0.676
  183SOL    HW1 4300   0.740   0.376   0.700
  183SOL    HW2 4301   0.841   0.294   0.600
  184SOL     OW 4302   1.022   0.101   0.747
  184SOL    HW1 4303   0.941   0.045   0.727
  184SOL    HW2 4304   1.051   0.147   0.663
  185SOL     OW 4305   1.285   1.189   0.679
  185SOL    HW1 4306   1.257   1.095   0.699
  185SOL    HW2 4307   1.329   1.192   0.589
  186SOL     OW 4308   1.732   1.200   0.776
  186SOL    HW1 4309   1.813   1.252   0.750
  186SOL    HW2 4310   1.659   1.263   0.805
  187SOL     OW 4311   0.516   0.202   0.342
  187SOL    HW1 4312   0.587   0.146   0.302
  187SOL    HW2 4313   0.465   0.249   0.270
  188SOL     OW 4314   1.778   1.239   1.637
  188SOL    HW1 4315   1.827   1.182   1.571
  188SOL    HW2 4316   1.810   1.334   1.629
  189SOL     OW 4317   1.603   1.585   1.580
  189SOL    HW1 4318   1.615   1.682   1.564
  189SOL    HW2 4319   1.691   1.543   1.603
  190SOL     OW 4320   1.163   1.162   1.057
  190SOL    HW1 4321   1.072   1.149   1.096
  190SOL    HW2 4322   1.158   1.228   0.982
  191SOL     OW 4323   0.760   0.007   1.224
  191SOL    HW1 4324   0.683   0.010   1.160
  191SOL    HW2 4325   0.755   0.085   1.287
  192SOL     OW 4326   0.659   1.142   0.537
  192SOL    HW1 4327   0.607   1.169   0.618
  192SOL    HW2 4328   0.663   1.043   0.531
  193SOL     OW 4329   1.315   0.439   1.131
  193SOL    HW1 4330   1.294   0.525   1.085
  193SOL    HW2 4331   1.236   0.408   1.183
  194SOL     OW 4332   0.581   0.385   0.776
  194SOL    HW1 4333   0.484   0.384   0.802
  194SOL    HW2 4334   0.634   0.432   0.847
  195SOL     OW 4335   1.412   1.267   1.089
  195SOL    HW1 4336   1.437   1.254   1.185
  195SOL    HW2 4337   1.319   1.232   1.073
  196SOL     OW 4338   0.375   1.368   1.251
  196SOL    HW1 4339   0.396   1.322   1.164
  196SOL    HW2 4340   0.440   1.442   1.266
  197SOL     OW 4341   1.246   0.442   0.167
  197SOL    HW1 4342   1.325   0.384   0.186
  197SOL    HW2 4343   1.228   0.501   0.245
  198SOL     OW 4344   0.343   0.139   1.269
  198SOL    HW1 4345   0.319   0.195   1.348
  198SOL    HW2 4346   0.269   0.142   1.202
  199SOL     OW 4347   0.107   1.363   1.278
  199SOL    HW1 4348   0.082   1.362   1.375
  199SOL    HW2 4349   0.207   1.370   1.270
  200SOL     OW 4350   0.727   0.509   0.975
  200SOL    HW1 4351   0.821   0.485   0.951
  200SOL    HW2 4352   0.718   0.608   0.982
  201SOL     OW 4353   1.430   0.303   0.314
  201SOL    HW1 4354   1.471   0.236   0.375
  201SOL    HW2 4355   1.399   0.382   0.368
  202SOL     OW 4356   1.139   0.625   1.012
  202SOL    HW1 4357   1.113   0.660   1.102
  202SOL    HW2 4358   1.074   0.555   0.983
  203SOL     OW 4359   1.872   1.486   1.587
  203SOL    HW1 4360   1.874   1.487   1.487
  203SOL    HW2 4361   1.965   1.496   1.622
  204SOL     OW 4362   1.152   1.346   0.861
  204SOL    HW1 4363   1.183   1.287   0.786
  204SOL    HW2 4364   1.197   1.435   0.855
  205SOL     OW 4365   1.052   0.406   1.724
  205SOL    HW1 4366   1.028   0.459   1.805
  205SOL    HW2 4367   1.122   0.339   1.748
  206SOL     OW 4368   0.585   1.581   0.911
  206SOL    HW1 4369   0.620   1.673   0.926
  206SOL    HW2 4370   0.639   1.536   0.840
  207SOL     OW 4371   1.078   0.708   1.269
  207SOL    HW1 4372   1.137   0.671   1.341
  207SOL    HW2 4373   0.982   0.695   1.294
  208SOL     OW 4374   0.000   0.438   1.107
  208SOL    HW1 4375   0.006   0.512   1.040
  208SOL    HW2 4376   4.908   0.435   1.145
  209SOL     OW 4377   0.065   0.420   1.820
  209SOL    HW1 4378   0.159   0.388   1.806
  209SOL    HW2 4379   0.052   0.506   1.771
  210SOL     OW 4380   1.644   0.446   0.958
  210SOL    HW1 4381   1.634   0.396   1.044
  210SOL    HW2 4382   1.726   0.503   0.963
  211SOL     OW 4383   0.795   0.393   1.229
  211SOL    HW1 4384   0.744   0.321   1.275
  211SOL    HW2 4385   0.751   0.414   1.142
  212SOL     OW 4386   0.767   1.785   1.359
  212SOL    HW1 4387   0.790   1.722   1.285
  212SOL    HW2 4388   0.821   1.869   1.348
  213SOL     OW 4389   0.409   0.378   0.156
  213SOL    HW1 4390   0.481   0.448   0.150
  213SOL    HW2 4391   0.320   0.423   0.165
  214SOL     OW 4392   1.257   1.017   1.270
  214SOL    HW1 4393   1.218   0.925   1.270
  214SOL    HW2 4394   1.230   1.065   1.187
  215SOL     OW 4395   1.360   0.861   0.439
  215SOL    HW1 4396   1.311   0.815   0.365
  215SOL    HW2 4397   1.422   0.796   0.484
  216SOL     OW 4398   0.170   1.362   1.008
  216SOL    HW1 4399   0.139   1.351   1.102
  216SOL    HW2 4400   0.114   1.431   0.962
  217SOL     OW 4401   0.594   1.670   1.532
  217SOL    HW1 4402   0.541   1.738   1.581
  217SOL    HW2 4403   0.667   1.715   1.480
  218SOL     OW 4404   0.934   0.027   0.105
  218SOL    HW1 4405   0.961   0.022   0.009
  218SOL    HW2 4406   0.998   0.086   0.155
  219SOL     OW 4407   1.530   0.137   0.506
  219SOL    HW1 4408   1.627   0.116   0.497
  219SOL    HW2 4409   1.509   0.156   0.602
  220SOL     OW 4410   1.277   0.917   0.692
  220SOL    HW1 4411   1.362   0.934   0.743
  220SOL    HW2 4412   1.299   0.904   0.596
  221SOL     OW 4413   1.654   1.843   1.537
  221SOL    HW1 4414   1.638   1.879   1.445
  221SOL    HW2 4415   1.750   1.858   1.562
  222SOL     OW 4416   1.701   0.114   0.906
  222SOL    HW1 4417   1.782   0.118   0.848
  222SOL    HW2 4418   1.621   0.142   0.854
  223SOL     OW 4419   1.605   1.549   0.011
  223SOL    HW1 4420   1.616   1.640   0.052
  223SOL    HW2 4421   1.681   1.531   4.949
  224SOL     OW 4422   0.319   1.366   1.518
  224SOL    HW1 4423   0.348   1.368   1.422
  224SOL    HW2 4424   0.286   1.274   1.541
  225SOL     OW 4425   1.009   0.176   1.001
  225SOL    HW1 4426   1.013   0.145   0.906
  225SOL    HW2 4427   0.956   0.111   1.056
  226SOL     OW 4428   0.467   1.439   0.567
  226SOL    HW1 4429   0.551   1.440   0.512
  226SOL    HW2 4430   0.397   1.495   0.522
  227SOL     OW 4431   1.660   0.345   1.397
  227SOL    HW1 4432   1.579   0.403   1.389
  227SOL    HW2 4433   1.675   0.298   1.310
  228SOL     OW 4434   0.693   0.206   1.408
  228SOL    HW1 4435   0.628   0.131   1.426
  228SOL    HW2 4436   0.753   0.217   1.487
  229SOL     OW 4437   0.066   0.231   0.103
  229SOL    HW1 4438   4.977   0.191   0.125
  229SOL    HW2 4439   0.139   0.177   0.144
  230SOL     OW 4440   1.071   1.453   0.069
  230SOL    HW1 4441   1.004   1.389   0.031
  230SOL    HW2 4442   1.154   1.402   0.095
  231SOL     OW 4443   1.509   1.209   1.621
  231SOL    HW1 4444   1.468   1.213   1.712
  231SOL    HW2 4445   1.608   1.218   1.629
  232SOL     OW 4446   1.096   0.228   0.504
  232SOL    HW1 4447   1.168   0.159   0.495
  232SOL    HW2 4448   1.129   0.303   0.561
  233SOL     OW 4449   1.814   0.287   1.622
  233SOL    HW1 4450   1.774   0.312   1.534
  233SOL    HW2 4451   1.761   0.329   1.696
  234SOL     OW 4452   0.731   1.814   0.962
  234SOL    HW1 4453   0.720   1.908   0.994
  234SOL    HW2 4454   0.822   1.802   0.923
  235SOL     OW 4455   1.857   1.449   0.923
  235SOL    HW1 4456   1.837   1.531   0.869
  235SOL    HW2 4457   1.780   1.430   0.983
  236SOL     OW 4458   0.528   1.435   1.677
  236SOL    HW1 4459   0.447   1.410   1.624
  236SOL    HW2 4460   0.573   1.513   1.634
  237SOL     OW 4461   1.670   0.207   1.157
  237SOL    HW1 4462   1.653   0.128   1.216
  237SOL    HW2 4463   1.680   0.177   1.062
  238SOL     OW 4464   0.509   0.424   0.493
  238SOL    HW1 4465   0.515   0.339   0.441
  238SOL    HW2 4466   0.541   0.408   0.587
  239SOL     OW 4467   1.652   1.399   1.085
  239SOL    HW1 4468   1.573   1.342   1.060
  239SOL    HW2 4469   1.640   1.431   1.179
  240SOL     OW 4470   0.735   1.424   0.738
  240SOL    HW1 4471   0.744   1.437   0.639
  240SOL    HW2 4472   0.672   1.349   0.756
  241SOL     OW 4473   0.716   1.392   0.458
  241SOL    HW1 4474   0.699   1.295   0.476
  241SOL    HW2 4475   0.786   1.402   0.388
  242SOL     OW 4476   0.563   1.553   1.287
  242SOL    HW1 4477   0.569   1.599   1.375
  242SOL    HW2 4478   0.642   1.577   1.231
  243SOL     OW 4479   1.237   4.943   0.212
  243SOL    HW1 4480   1.211   4.889   0.132
  243SOL    HW2 4481   1.201   0.036   0.202
  244SOL     OW 4482   1.207   0.406   0.679
  244SOL    HW1 4483   1.216   0.502   0.707
  244SOL    HW2 4484   1.230   0.347   0.757
  245SOL     OW 4485   1.471   0.186   0.770
  245SOL    HW1 4486   1.392   0.199   0.829
  245SOL    HW2 4487   1.507   0.274   0.740
  246SOL     OW 4488   0.000   0.800   1.905
  246SOL    HW1 4489   4.954   0.738   1.968
  246SOL    HW2 4490   0.090   0.824   1.941
  247SOL     OW 4491   0.584   1.058   3.088
  247SOL    HW1 4492   0.515   1.043   3.018
  247SOL    HW2 4493   0.543   1.103   3.167
  248SOL     OW 4494   0.774   1.058   2.896
  248SOL    HW1 4495   0.721   1.069   2.980
  248SOL    HW2 4496   0.778   1.145   2.847
  249SOL     OW 4497   0.807   0.678   3.652
  249SOL    HW1 4498   0.853   0.714   3.733
  249SOL    HW2 4499   0.859   0.702   3.570
  250SOL     OW 4500   0.745   0.944   2.581
  250SOL    HW1 4501   0.830   0.943   2.633
  250SOL    HW2 4502   0.680   1.007   2.623
  251SOL     OW 4503   1.487   1.568   3.197
  251SOL    HW1 4504   1.490   1.657   3.241
  251SOL    HW2 4505   1.431   1.505   3.252
  252SOL     OW 4506   0.081   1.939   2.479
  252SOL    HW1 4507   4.983   1.941   2.501
  252SOL    HW2 4508   0.093   1.934   2.380
  253SOL     OW 4509   0.400   1.015   2.889
  253SOL    HW1 4510   0.390   0.945   2.818
  253SOL    HW2 4511   0.323   1.008   2.953
  254SOL     OW 4512   0.650   1.682   3.366
  254SOL    HW1 4513   0.567   1.736   3.352
  254SOL    HW2 4514   0.667   1.672   3.464
  255SOL     OW 4515   0.564   1.074   2.072
  255SOL    HW1 4516   0.567   1.131   1.990
  255SOL    HW2 4517   0.624   1.113   2.142
  256SOL     OW 4518   1.589   0.080   3.095
  256SOL    HW1 4519   1.542   0.166   3.074
  256SOL    HW2 4520   1.644   0.092   3.177
  257SOL     OW 4521   2.009   1.768   2.073
  257SOL    HW1 4522   2.012   1.722   2.162
  257SOL    HW2 4523   2.071   1.847   2.074
  258SOL     OW 4524   0.119   0.710   3.423
  258SOL    HW1 4525   0.211   0.686   3.454
  258SOL    HW2 4526   0.096   0.802   3.456
  259SOL     OW 4527   0.686   1.449   2.555
  259SOL    HW1 4528   0.715   1.381   2.488
  259SOL    HW2 4529   0.599   1.489   2.527
  260SOL     OW 4530   1.346   1.375   3.319
  260SOL    HW1 4531   1.309   1.286   3.292
  260SOL    HW2 4532   1.366   1.374   3.417
  261SOL     OW 4533   0.773   0.118   2.449
  261SOL    HW1 4534   0.841   0.118   2.375
  261SOL    HW2 4535   0.686   0.082   2.414
  262SOL     OW 4536   0.230   0.904   3.086
  262SOL    HW1 4537   0.308   0.843   3.074
  262SOL    HW2 4538   0.153   0.871   3.032
  263SOL     OW 4539   1.196   1.724   3.316
  263SOL    HW1 4540   1.208   1.713   3.217
  263SOL    HW2 4541   1.278   1.767   3.355
  264SOL     OW 4542   0.406   0.160   3.716
  264SOL    HW1 4543   0.496   0.154   3.760
  264SOL    HW2 4544   0.391   0.252   3.682
  265SOL     OW 4545   1.504   1.372   2.869
  265SOL    HW1 4546   1.432   1.387   2.937
  265SOL    HW2 4547   1.487   1.285   2.822
  266SOL     OW 4548   1.403   1.701   2.069
  266SOL    HW1 4549   1.339   1.643   2.118
  266SOL    HW2 4550   1.400   1.678   1.971
  267SOL     OW 4551   0.692   0.489   3.389
  267SOL    HW1 4552   0.652   0.486   3.481
  267SOL    HW2 4553   0.703   0.396   3.355
  268SOL     OW 4554   0.870   0.700   3.377
  268SOL    HW1 4555   0.813   0.618   3.385
  268SOL    HW2 4556   0.816   0.775   3.340
  269SOL     OW 4557   0.935   0.273   3.100
  269SOL    HW1 4558   0.893   0.359   3.072
  269SOL    HW2 4559   0.987   0.234   3.023
  270SOL     OW 4560   0.121   0.974   2.723
  270SOL    HW1 4561   0.205   0.925   2.702
  270SOL    HW2 4562   0.103   1.043   2.654
  271SOL     OW 4563   0.131   1.762   3.404
  271SOL    HW1 4564   0.054   1.710   3.442
  271SOL    HW2 4565   0.122   1.767   3.305
  272SOL     OW 4566   0.912   0.305   2.055
  272SOL    HW1 4567   0.929   0.393   2.012
  272SOL    HW2 4568   0.864   0.245   1.990
  273SOL     OW 4569   0.512   0.287   2.743
  273SOL    HW1 4570   0.558   0.290   2.832
  273SOL    HW2 4571   0.533   0.370   2.692
  274SOL     OW 4572   1.054   1.368   2.368
  274SOL    HW1 4573   1.049   1.444   2.304
  274SOL    HW2 4574   1.054   1.403   2.462
  275SOL     OW 4575   1.750   1.062   2.853
  275SOL    HW1 4576   1.773   0.981   2.800
  275SOL    HW2 4577   1.681   1.039   2.921
  276SOL     OW 4578   0.467   0.902   2.256
  276SOL    HW1 4579   0.496   0.952   2.174
  276SOL    HW2 4580   0.367   0.894   2.257
  277SOL     OW 4581   0.080   1.805   3.143
  277SOL    HW1 4582   0.143   1.882   3.144
  277SOL    HW2 4583   0.075   1.766   3.051
  278SOL     OW 4584   0.993   1.632   2.760
  278SOL    HW1 4585   1.080   1.589   2.783
  278SOL    HW2 4586   0.963   1.600   2.670
  279SOL     OW 4587   0.780   0.119   1.894
  279SOL    HW1 4588   0.796   0.062   1.974
  279SOL    HW2 4589   0.723   0.070   1.828
  280SOL     OW 4590   0.775   1.290   2.754
  280SOL    HW1 4591   0.874   1.301   2.760
  280SOL    HW2 4592   0.737   1.360   2.694
  281SOL     OW 4593   1.025   0.456   2.738
  281SOL    HW1 4594   0.954   0.450   2.667
  281SOL    HW2 4595   1.016   0.377   2.800
  282SOL     OW 4596   0.523   0.029   2.372
  282SOL    HW1 4597   0.459   0.078   2.431
  282SOL    HW2 4598   0.519   0.068   2.280
  283SOL     OW 4599   0.969   0.133   2.261
  283SOL    HW1 4600   0.962   0.203   2.191
  283SOL    HW2 4601   1.058   0.140   2.307
  284SOL     OW 4602   1.226   1.505   2.794
  284SOL    HW1 4603   1.313   1.527   2.749
  284SOL    HW2 4604   1.245   1.469   2.886
  285SOL     OW 4605   0.567   1.116   2.686
  285SOL    HW1 4606   0.502   1.098   2.759
  285SOL    HW2 4607   0.628   1.191   2.713
  286SOL     OW 4608   0.993   0.547   1.950
  286SOL    HW1 4609   0.977   0.636   1.909
  286SOL    HW2 4610   1.038   0.558   2.039
  287SOL     OW 4611   4.986   0.678   3.182
  287SOL    HW1 4612   0.047   0.647   3.110
  287SOL    HW2 4613   0.039   0.698   3.265
  288SOL     OW 4614   0.578   0.325   3.048
  288SOL    HW1 4615   0.626   0.296   3.132
  288SOL    HW2 4616   0.489   0.280   3.044
  289SOL     OW 4617   0.875   0.062   2.690
  289SOL    HW1 4618   0.825   0.098   2.611
  289SOL    HW2 4619   0.945   4.997   2.659
  290SOL     OW 4620   1.408   1.123   2.806
  290SOL    HW1 4621   1.314   1.117   2.839
  290SOL    HW2 4622   1.414   1.082   2.715
  291SOL     OW 4623   0.518   1.402   2.060
  291SOL    HW1 4624   0.424   1.429   2.040
  291SOL    HW2 4625   0.553   1.346   1.985
  292SOL     OW 4626   0.558   0.123   2.117
  292SOL    HW1 4627   0.638   0.063   2.118
  292SOL    HW2 4628   0.579   0.205   2.063
  293SOL     OW 4629   1.675   1.323   3.441
  293SOL    HW1 4630   1.736   1.243   3.437
  293SOL    HW2 4631   1.729   1.406   3.444
  294SOL     OW 4632   1.637   1.776   3.508
  294SOL    HW1 4633   1.584   1.795   3.425
  294SOL    HW2 4634   1.693   1.694   3.494
  295SOL     OW 4635   1.151   1.103   2.903
  295SOL    HW1 4636   1.105   1.026   2.859
  295SOL    HW2 4637   1.109   1.189   2.872
  296SOL     OW 4638   1.544   1.094   3.044
  296SOL    HW1 4639   1.573   1.181   3.083
  296SOL    HW2 4640   1.501   1.110   2.955
  297SOL     OW 4641   0.691   1.039   2.333
  297SOL    HW1 4642   0.725   1.004   2.420
  297SOL    HW2 4643   0.609   0.990   2.306
  298SOL     OW 4644   0.429   0.735   3.030
  298SOL    HW1 4645   0.461   0.697   3.118
  298SOL    HW2 4646   0.405   0.660   2.969
  299SOL     OW 4647   4.874   1.661   3.273
  299SOL    HW1 4648   4.782   1.688   3.243
  299SOL    HW2 4649   4.942   1.716   3.223
  300SOL     OW 4650   0.560   0.545   2.647
  300SOL    HW1 4651   0.540   0.613   2.577
  300SOL    HW2 4652   0.649   0.562   2.688
  301SOL     OW 4653   1.289   1.407   3.032
  301SOL    HW1 4654   1.272   1.483   3.096
  301SOL    HW2 4655   1.282   1.320   3.081
  302SOL     OW 4656   0.377   0.705   3.526
  302SOL    HW1 4657   0.409   0.747   3.441
  302SOL    HW2 4658   0.447   0.641   3.559
  303SOL     OW 4659   0.640   0.818   2.874
  303SOL    HW1 4660   0.673   0.912   2.878
  303SOL    HW2 4661   0.560   0.807   2.933
  304SOL     OW 4662   1.280   0.824   2.772
  304SOL    HW1 4663   1.197   0.774   2.797
  304SOL    HW2 4664   1.340   0.832   2.852
  305SOL     OW 4665   0.784   0.625   2.773
  305SOL    HW1 4666   0.878   0.656   2.763
  305SOL    HW2 4667   0.727   0.700   2.807
  306SOL     OW 4668   1.601   0.930   3.694
  306SOL    HW1 4669   1.561   0.920   3.602
  306SOL    HW2 4670   1.537   0.979   3.753
  307SOL     OW 4671   0.366   0.109   2.586
  307SOL    HW1 4672   0.418   0.173   2.643
  307SOL    HW2 4673   0.349   0.025   2.637
  308SOL     OW 4674   1.050   0.699   2.854
  308SOL    HW1 4675   1.018   0.699   2.948
  308SOL    HW2 4676   1.056   0.605   2.820
  309SOL     OW 4677   0.942   1.684   3.691
  309SOL    HW1 4678   0.958   1.671   3.593
  309SOL    HW2 4679   1.027   1.667   3.741
  310SOL     OW 4680   1.809   1.564   3.421
  310SOL    HW1 4681   1.799   1.577   3.322
  310SOL    HW2 4682   1.904   1.581   3.447
  311SOL     OW 4683   0.291   0.887   3.714
  311SOL    HW1 4684   0.374   0.941   3.732
  311SOL    HW2 4685   0.313   0.813   3.650
  312SOL     OW 4686   1.186   0.826   1.670
  312SOL    HW1 4687   1.255   0.877   1.619
  312SOL    HW2 4688   1.158   0.745   1.618
  313SOL     OW 4689   1.045   1.307   2.746
  313SOL    HW1 4690   1.077   1.244   2.677
  313SOL    HW2 4691   1.108   1.385   2.753
  314SOL     OW 4692   0.347   0.823   2.699
  314SOL    HW1 4693   0.414   0.812   2.626
  314SOL    HW2 4694   0.336   0.737   2.749
  315SOL     OW 4695   0.359   0.568   2.824
  315SOL    HW1 4696   0.295   0.493   2.808
  315SOL    HW2 4697   0.438   0.558   2.764
  316SOL     OW 4698   0.074   1.695   2.895
  316SOL    HW1 4699   0.070   1.755   2.814
  316SOL    HW2 4700   0.145   1.626   2.882
  317SOL     OW 4701   0.930   0.693   3.100
  317SOL    HW1 4702   0.945   0.694   3.198
  317SOL    HW2 4703   0.875   0.613   3.075
  318SOL     OW 4704   0.791   0.483   3.001
  318SOL    HW1 4705   0.705   0.433   3.019
  318SOL    HW2 4706   0.785   0.528   2.913
  319SOL     OW 4707   0.952   1.667   3.429
  319SOL    HW1 4708   0.877   1.667   3.363
  319SOL    HW2 4709   1.038   1.684   3.382
  320SOL     OW 4710   0.307   0.943   3.352
  320SOL    HW1 4711   0.229   0.961   3.413
  320SOL    HW2 4712   0.274   0.934   3.258
  321SOL     OW 4713   1.284   1.159   3.136
  321SOL    HW1 4714   1.373   1.113   3.126
  321SOL    HW2 4715   1.222   1.127   3.064
  322SOL     OW 4716   1.231   1.693   3.047
  322SOL    HW1 4717   1.316   1.687   2.994
  322SOL    HW2 4718   1.154   1.705   2.985
  323SOL     OW 4719   0.674   1.695   3.641
  323SOL    HW1 4720   0.640   1.789   3.650
  323SOL    HW2 4721   0.773   1.695   3.656
  324SOL     OW 4722   1.373   0.975   2.574
  324SOL    HW1 4723   1.339   0.908   2.640
  324SOL    HW2 4724   1.435   0.930   2.510
  325SOL     OW 4725   1.528   1.833   3.259
  325SOL    HW1 4726   1.605   1.824   3.196
  325SOL    HW2 4727   1.519   1.928   3.287
  326SOL     OW 4728   0.726   0.860   3.206
  326SOL    HW1 4729   0.794   0.827   3.141
  326SOL    HW2 4730   0.677   0.937   3.167
  327SOL     OW 4731   1.402   1.685   1.779
  327SOL    HW1 4732   1.314   1.687   1.730
  327SOL    HW2 4733   1.470   1.638   1.723
  328SOL     OW 4734   1.618   1.323   3.175
  328SOL    HW1 4735   1.617   1.307   3.273
  328SOL    HW2 4736   1.576   1.412   3.155
  329SOL     OW 4737   1.129   1.105   2.595
  329SOL    HW1 4738   1.071   1.033   2.634
  329SOL    HW2 4739   1.217   1.065   2.567
  330SOL     OW 4740   1.037   0.209   2.851
  330SOL    HW1 4741   0.965   0.156   2.807
  330SOL    HW2 4742   1.120   0.205   2.795
  331SOL     OW 4743   0.726   1.495   2.214
  331SOL    HW1 4744   0.748   1.415   2.269
  331SOL    HW2 4745   0.648   1.475   2.155
  332SOL     OW 4746   0.083   0.957   3.531
  332SOL    HW1 4747   4.999   1.006   3.553
  332SOL    HW2 4748   0.139   0.949   3.614
  333SOL     OW 4749   0.725   0.241   3.269
  333SOL    HW1 4750   0.811   0.247   3.217
  333SOL    HW2 4751   0.722   0.155   3.319
  334SOL     OW 4752   4.955   0.346   2.064
  334SOL    HW1 4753   4.856   0.336   2.049
  334SOL    HW2 4754   0.000   0.359   1.976
  335SOL     OW 4755   4.910   0.143   2.284
  335SOL    HW1 4756   4.941   0.221   2.230
  335SOL    HW2 4757   4.980   0.118   2.351
  336SOL     OW 4758   0.535   0.674   3.270
  336SOL    HW1 4759   0.597   0.752   3.255
  336SOL    HW2 4760   0.585   0.599   3.312
  337SOL     OW 4761   1.490   1.643   2.939
  337SOL    HW1 4762   1.522   1.566   2.884
  337SOL    HW2 4763   1.495   1.618   3.036
  338SOL     OW 4764   0.575   0.546   3.638
  338SOL    HW1 4765   0.660   0.598   3.644
  338SOL    HW2 4766   0.545   0.519   3.729
  339SOL     OW 4767   1.440   1.375   3.569
  339SOL    HW1 4768   1.440   1.375   3.669
  339SOL    HW2 4769   1.533   1.356   3.536
  340SOL     OW 4770   0.386   1.757   3.502
  340SOL    HW1 4771   0.293   1.762   3.465
  340SOL    HW2 4772   0.413   1.662   3.514
  341SOL     OW 4773   1.202   0.148   2.404
  341SOL    HW1 4774   1.277   0.082   2.403
  341SOL    HW2 4775   1.203   0.198   2.490
  342SOL     OW 4776   0.534   0.785   2.503
  342SOL    HW1 4777   0.615   0.834   2.535
  342SOL    HW2 4778   0.511   0.815   2.411
  343SOL     OW 4779   0.969   0.939   2.756
  343SOL    HW1 4780   0.996   0.850   2.791
  343SOL    HW2 4781   0.900   0.979   2.816
  344SOL     OW 4782   0.987   0.802   1.855
  344SOL    HW1 4783   0.939   0.888   1.870
  344SOL    HW2 4784   1.062   0.816   1.791
  345SOL     OW 4785   1.988   1.536   2.794
  345SOL    HW1 4786   2.007   1.473   2.719
  345SOL    HW2 4787   1.897   1.518   2.831
  346SOL     OW 4788   1.761   1.440   2.914
  346SOL    HW1 4789   1.668   1.410   2.894
  346SOL    HW2 4790   1.822   1.361   2.916
  347SOL     OW 4791   0.925   1.568   2.514
  347SOL    HW1 4792   0.939   1.584   2.416
  347SOL    HW2 4793   0.833   1.531   2.528
  348SOL     OW 4794   0.792   1.285   2.368
  348SOL    HW1 4795   0.760   1.191   2.354
  348SOL    HW2 4796   0.892   1.287   2.368
  349SOL     OW 4797   1.217   0.281   2.642
  349SOL    HW1 4798   1.155   0.358   2.656
  349SOL    HW2 4799   1.310   0.307   2.670
  350SOL     OW 4800   0.973   1.606   2.246
  350SOL    HW1 4801   0.883   1.574   2.214
  350SOL    HW2 4802   0.969   1.705   2.260
  351SOL     OW 4803   0.304   0.220   4.674
  351SOL    HW1 4804   0.294   0.245   4.770
  351SOL    HW2 4805   0.243   0.277   4.619
  352SOL     OW 4806   4.616   0.383   4.445
  352SOL    HW1 4807   4.579   0.472   4.418
  352SOL    HW2 4808   4.652   0.389   4.538
  353SOL     OW 4809   0.196   1.494   4.636
  353SOL    HW1 4810   0.124   1.449   4.689
  353SOL    HW2 4811   0.216   1.584   4.675
  354SOL     OW 4812   0.236   1.695   4.234
  354SOL    HW1 4813   0.191   1.755   4.300
  354SOL    HW2 4814   0.308   1.746   4.187
  355SOL     OW 4815   0.247   1.431   4.244
  355SOL    HW1 4816   0.244   1.531   4.240
  355SOL    HW2 4817   0.208   1.393   4.160
  356SOL     OW 4818   0.075   1.062   4.419
  356SOL    HW1 4819   0.008   1.030   4.485
  356SOL    HW2 4820   0.084   1.161   4.425
  357SOL     OW 4821   1.968   1.731   4.173
  357SOL    HW1 4822   2.033   1.709   4.246
  357SOL    HW2 4823   2.017   1.778   4.099
  358SOL     OW 4824   1.595   1.187   4.036
  358SOL    HW1 4825   1.658   1.111   4.022
  358SOL    HW2 4826   1.630   1.268   3.988
  359SOL     OW 4827   0.408   1.496   4.463
  359SOL    HW1 4828   0.333   1.482   4.528
  359SOL    HW2 4829   0.379   1.465   4.372
  360SOL     OW 4830   0.699   0.075   4.250
  360SOL    HW1 4831   0.754   0.035   4.178
  360SOL    HW2 4832   0.614   0.023   4.260
  361SOL     OW 4833   0.199   0.986   4.988
  361SOL    HW1 4834   0.234   0.893   4.988
  361SOL    HW2 4835   0.227   1.033   0.072
  362SOL     OW 4836   1.428   1.054   3.860
  362SOL    HW1 4837   1.343   1.020   3.901
  362SOL    HW2 4838   1.486   1.093   3.931
  363SOL     OW 4839   1.666   1.567   4.402
  363SOL    HW1 4840   1.690   1.602   4.311
  363SOL    HW2 4841   1.588   1.505   4.394
  364SOL     OW 4842   1.162   0.388   4.651
  364SOL    HW1 4843   1.090   0.319   4.664
  364SOL    HW2 4844   1.183   0.432   4.738
  365SOL     OW 4845   1.709   1.662   4.141
  365SOL    HW1 4846   1.806   1.677   4.160
  365SOL    HW2 4847   1.693   1.668   4.043
  366SOL     OW 4848   1.333   1.165   4.122
  366SOL    HW1 4849   1.433   1.173   4.117
  366SOL    HW2 4850   1.291   1.254   4.104
  367SOL     OW 4851   0.593   0.048   4.801
  367SOL    HW1 4852   0.511   4.999   4.771
  367SOL    HW2 4853   0.608   0.128   4.744
  368SOL     OW 4854   0.989   1.431   4.124
  368SOL    HW1 4855   0.942   1.433   4.036
  368SOL    HW2 4856   0.923   1.452   4.197
  369SOL     OW 4857   0.343   1.986   4.540
  369SOL    HW1 4858   0.388   1.899   4.521
  369SOL    HW2 4859   0.404   2.045   4.592
  370SOL     OW 4860   0.094   0.954   3.895
  370SOL    HW1 4861   0.128   0.995   3.980
  370SOL    HW2 4862   0.171   0.922   3.841
  371SOL     OW 4863   1.039   1.785   4.067
  371SOL    HW1 4864   0.948   1.748   4.085
  371SOL    HW2 4865   1.088   1.726   4.003
  372SOL     OW 4866   0.439   1.839   4.134
  372SOL    HW1 4867   0.396   1.914   4.184
  372SOL    HW2 4868   0.502   1.876   4.066
  373SOL     OW 4869   1.434   0.116   4.055
  373SOL    HW1 4870   1.454   0.044   3.989
  373SOL    HW2 4871   1.512   0.128   4.117
  374SOL     OW 4872   0.300   1.829   4.972
  374SOL    HW1 4873   0.327   1.758   0.037
  374SOL    HW2 4874   0.305   1.793   4.879
  375SOL     OW 4875   0.613   0.052   3.864
  375SOL    HW1 4876   0.694   0.019   3.913
  375SOL    HW2 4877   0.556   4.975   3.836
  376SOL     OW 4878   0.845   0.451   4.684
  376SOL    HW1 4879   0.801   0.453   4.594
  376SOL    HW2 4880   0.886   0.361   4.698
  377SOL     OW 4881   0.437   4.972   4.245
  377SOL    HW1 4882   0.405   0.065   4.266
  377SOL    HW2 4883   0.399   4.943   4.157
  378SOL     OW 4884   1.426   1.340   3.841
  378SOL    HW1 4885   1.412   1.241   3.833
  378SOL    HW2 4886   1.367   1.377   3.913
  379SOL     OW 4887   0.403   4.892   3.783
  379SOL    HW1 4888   0.384   4.983   3.746
  379SOL    HW2 4889   0.319   4.853   3.821
  380SOL     OW 4890   0.867   0.030   4.478
  380SOL    HW1 4891   0.796   0.066   4.417
  380SOL    HW2 4892   0.933   4.976   4.425
  381SOL     OW 4893   0.528   0.211   4.071
  381SOL    HW1 4894   0.547   0.166   3.984
  381SOL    HW2 4895   0.601   0.189   4.136
  382SOL     OW 4896   1.672   1.260   4.955
  382SOL    HW1 4897   1.651   1.279   0.051
  382SOL    HW2 4898   1.587   1.261   4.902
  383SOL     OW 4899   0.312   0.738   4.986
  383SOL    HW1 4900   0.400   0.735   0.032
  383SOL    HW2 4901   0.312   0.672   4.910
  384SOL     OW 4902   1.258   1.420   4.054
  384SOL    HW1 4903   1.325   1.466   4.111
  384SOL    HW2 4904   1.167   1.426   4.096
  385SOL     OW 4905   1.423   1.384   4.886
  385SOL    HW1 4906   1.486   1.451   4.925
  385SOL    HW2 4907   1.343   1.430   4.848
  386SOL     OW 4908   0.612   0.858   4.830
  386SOL    HW1 4909   0.531   0.905   4.796
  386SOL    HW2 4910   0.600   0.837   4.927
  387SOL     OW 4911   0.278   0.292   4.932
  387SOL    HW1 4912   0.344   0.304   0.005
  387SOL    HW2 4913   0.188   0.271   4.971
  388SOL     OW 4914   0.618   0.584   4.785
  388SOL    HW1 4915   0.703   0.538   4.762
  388SOL    HW2 4916   0.633   0.682   4.790
  389SOL     OW 4917   0.553   0.196   4.562
  389SOL    HW1 4918   0.462   0.212   4.601
  389SOL    HW2 4919   0.559   0.102   4.529
  390SOL     OW 4920   0.948   0.673   4.810
  390SOL    HW1 4921   1.038   0.700   4.775
  390SOL    HW2 4922   0.917   0.591   4.762
  391SOL     OW 4923   1.677   0.156   3.881
  391SOL    HW1 4924   1.638   0.067   3.857
  391SOL    HW2 4925   1.606   0.214   3.920
  392SOL     OW 4926   1.201   0.784   3.803
  392SOL    HW1 4927   1.283   0.789   3.747
  392SOL    HW2 4928   1.211   0.846   3.881
  393SOL     OW 4929   0.351   0.537   4.811
  393SOL    HW1 4930   0.329   0.446   4.846
  393SOL    HW2 4931   0.450   0.543   4.794
  394SOL     OW 4932   1.119   0.193   0.225
  394SOL    HW1 4933   1.114   0.207   0.324
  394SOL    HW2 4934   1.157   0.275   0.182
  395SOL     OW 4935   0.296   1.748   4.709
  395SOL    HW1 4936   0.247   1.831   4.682
  395SOL    HW2 4937   0.372   1.733   4.646
  396SOL     OW 4938   0.469   1.751   4.499
  396SOL    HW1 4939   0.564   1.771   4.476
  396SOL    HW2 4940   0.448   1.656   4.474
  397SOL     OW 4941   1.185   0.529   4.907
  397SOL    HW1 4942   1.215   0.495   4.997
  397SOL    HW2 4943   1.095   0.571   4.916
  398SOL     OW 4944   1.209   0.953   4.014
  398SOL    HW1 4945   1.248   1.029   4.066
  398SOL    HW2 4946   1.127   0.919   4.060
  399SOL     OW 4947   1.784   1.731   4.841
  399SOL    HW1 4948   1.777   1.775   4.752
  399SOL    HW2 4949   1.816   1.637   4.829
  400SOL     OW 4950   4.995   1.340   4.730
  400SOL    HW1 4951   0.039   1.253   4.752
  400SOL    HW2 4952   4.913   1.323   4.675
  401SOL     OW 4953   1.654   0.147   4.214
  401SOL    HW1 4954   1.736   0.184   4.170
  401SOL    HW2 4955   1.679   0.106   4.302
  402SOL     OW 4956   1.457   1.544   4.189
  402SOL    HW1 4957   1.549   1.572   4.162
  402SOL    HW2 4958   1.413   1.617   4.241
  403SOL     OW 4959   0.593   1.634   3.898
  403SOL    HW1 4960   0.611   1.633   3.799
  403SOL    HW2 4961   0.558   1.724   3.924
  404SOL     OW 4962   1.797   1.735   0.120
  404SOL    HW1 4963   1.797   1.744   0.020
  404SOL    HW2 4964   1.870   1.792   0.158
  405SOL     OW 4965   1.881   0.247   4.624
  405SOL    HW1 4966   1.965   0.203   4.593
  405SOL    HW2 4967   1.830   0.281   4.545
  406SOL     OW 4968   1.115   1.585   3.883
  406SOL    HW1 4969   1.187   1.528   3.923
  406SOL    HW2 4970   1.027   1.539   3.895
  407SOL     OW 4971   0.982   0.850   4.140
  407SOL    HW1 4972   0.958   0.753   4.153
  407SOL    HW2 4973   0.967   0.899   4.226
  408SOL     OW 4974   0.949   0.958   4.391
  408SOL    HW1 4975   0.905   0.925   4.474
  408SOL    HW2 4976   0.985   1.050   4.407
  409SOL     OW 4977   0.964   0.201   4.681
  409SOL    HW1 4978   0.932   0.150   4.600
  409SOL    HW2 4979   0.992   0.136   4.752
  410SOL     OW 4980   0.528   1.582   4.175
  410SOL    HW1 4981   0.516   1.552   4.080
  410SOL    HW2 4982   0.495   1.676   4.185
  411SOL     OW 4983   0.859   1.492   3.881
  411SOL    HW1 4984   0.763   1.497   3.907
  411SOL    HW2 4985   0.874   1.547   3.799
  412SOL     OW 4986   0.837   0.898   4.656
  412SOL    HW1 4987   0.894   0.833   4.707
  412SOL    HW2 4988   0.748   0.905   4.700
  413SOL     OW 4989   0.940   0.775   3.869
  413SOL    HW1 4990   0.938   0.821   3.957
  413SOL    HW2 4991   1.035   0.770   3.835
  414SOL     OW 4992   1.858   1.558   4.586
  414SOL    HW1 4993   1.784   1.565   4.520
  414SOL    HW2 4994   1.830   1.500   4.663
  415SOL     OW 4995   0.119   1.080   4.141
  415SOL    HW1 4996   0.142   1.067   4.238
  415SOL    HW2 4997   0.019   1.084   4.132
  416SOL     OW 4998   1.898   0.098   4.850
  416SOL    HW1 4999   1.817   0.104   4.908
  416SOL    HW2 5000   1.884   0.153   4.768
  417SOL     OW 5001   0.400   0.231   4.315
  417SOL    HW1 5002   0.435   0.257   4.226
  417SOL    HW2 5003   0.467   0.255   4.386
  418SOL     OW 5004   1.823   1.452   4.843
  418SOL    HW1 5005   1.770   1.371   4.869
  418SOL    HW2 5006   1.913   1.448   4.886
  419SOL     OW 5007   0.762   1.503   4.281
  419SOL    HW1 5008   0.669   1.523   4.252
  419SOL    HW2 5009   0.760   1.455   4.368
  420SOL     OW 5010   1.020   4.990   4.852
  420SOL    HW1 5011   0.951   4.941   4.798
  420SOL    HW2 5012   1.088   4.925   4.886
  421SOL     OW 5013   1.530   4.927   3.847
  421SOL    HW1 5014   1.529   4.848   3.908
  421SOL    HW2 5015   1.511   4.897   3.753
  422SOL     OW 5016   1.228   0.285   4.399
  422SOL    HW1 5017   1.269   0.361   4.349
  422SOL    HW2 5018   1.205   0.315   4.492
  423SOL     OW 5019   4.853   1.002   4.120
  423SOL    HW1 5020   4.902   0.917   4.139
  423SOL    HW2 5021   4.826   1.005   4.024
  424SOL     OW 5022   0.791   1.696   4.090
  424SOL    HW1 5023   0.719   1.677   4.024
  424SOL    HW2 5024   0.784   1.632   4.167
  425SOL     OW 5025   4.991   2.448   0.052
  425SOL    HW1 5026   4.949   2.358   0.056
  425SOL    HW2 5027   0.007   2.473   4.957
  426SOL     OW 5028   4.898   2.193   0.652
  426SOL    HW1 5029   4.873   2.276   0.702
  426SOL    HW2 5030   4.995   2.195   0.631
  427SOL     OW 5031   1.156   2.431   0.797
  427SOL    HW1 5032   1.072   2.400   0.752
  427SOL    HW2 5033   1.133   2.499   0.866
  428SOL     OW 5034   0.798   2.658   1.851
  428SOL    HW1 5035   0.870   2.675   1.918
  428SOL    HW2 5036   0.780   2.741   1.799
  429SOL     OW 5037   0.693   2.831   0.729
  429SOL    HW1 5038   0.777   2.815   0.780
  429SOL    HW2 5039   0.618   2.846   0.793
  430SOL     OW 5040   0.737   2.896   1.742
  430SOL    HW1 5041   0.751   2.940   1.830
  430SOL    HW2 5042   0.698   2.962   1.677
  431SOL     OW 5043   0.403   3.516   0.995
  431SOL    HW1 5044   0.330   3.455   0.963
  431SOL    HW2 5045   0.432   3.576   0.921
  432SOL     OW 5046   0.411   2.328   1.653
  432SOL    HW1 5047   0.484   2.306   1.588
  432SOL    HW2 5048   0.335   2.263   1.641
  433SOL     OW 5049   1.568   2.248   0.644
  433SOL    HW1 5050   1.529   2.255   0.553
  433SOL    HW2 5051   1.535   2.324   0.700
  434SOL     OW 5052   0.329   3.587   0.524
  434SOL    HW1 5053   0.336   3.685   0.543
  434SOL    HW2 5054   0.416   3.555   0.484
  435SOL     OW 5055   1.207   3.140   1.746
  435SOL    HW1 5056   1.117   3.138   1.791
  435SOL    HW2 5057   1.276   3.104   1.809
  436SOL     OW 5058   0.217   3.338   0.559
  436SOL    HW1 5059   0.273   3.420   0.556
  436SOL    HW2 5060   0.135   3.355   0.612
  437SOL     OW 5061   0.256   3.091   0.902
  437SOL    HW1 5062   0.287   3.051   0.988
  437SOL    HW2 5063   0.254   3.191   0.910
  438SOL     OW 5064   1.886   3.760   0.354
  438SOL    HW1 5065   1.954   3.687   0.350
  438SOL    HW2 5066   1.814   3.742   0.287
  439SOL     OW 5067   4.887   3.417   0.242
  439SOL    HW1 5068   4.970   3.453   0.199
  439SOL    HW2 5069   4.900   3.413   0.341
  440SOL     OW 5070   1.942   2.961   0.500
  440SOL    HW1 5071   1.969   3.057   0.506
  440SOL    HW2 5072   1.922   2.926   0.591
  441SOL     OW 5073   0.099   2.562   1.621
  441SOL    HW1 5074   0.198   2.573   1.628
  441SOL    HW2 5075   0.059   2.644   1.580
  442SOL     OW 5076   0.371   2.945   1.132
  442SOL    HW1 5077   0.418   2.901   1.209
  442SOL    HW2 5078   0.323   3.026   1.164
  443SOL     OW 5079   1.803   3.067   0.284
  443SOL    HW1 5080   1.713   3.023   0.290
  443SOL    HW2 5081   1.864   3.027   0.353
  444SOL     OW 5082   0.302   2.118   1.891
  444SOL    HW1 5083   0.382   2.177   1.886
  444SOL    HW2 5084   0.267   2.117   1.985
  445SOL     OW 5085   1.669   3.551   0.511
  445SOL    HW1 5086   1.617   3.542   0.426
  445SOL    HW2 5087   1.740   3.481   0.514
  446SOL     OW 5088   1.609   3.509   0.236
  446SOL    HW1 5089   1.634   3.603   0.214
  446SOL    HW2 5090   1.519   3.488   0.196
  447SOL     OW 5091   0.672   2.457   1.523
  447SOL    HW1 5092   0.716   2.423   1.606
  447SOL    HW2 5093   0.720   2.422   1.443
  448SOL     OW 5094   0.966   2.278   1.270
  448SOL    HW1 5095   1.020   2.356   1.303
  448SOL    HW2 5096   0.989   2.259   1.175
  449SOL     OW 5097   0.193   3.736   1.361
  449SOL    HW1 5098   0.140   3.820   1.377
  449SOL    HW2 5099   0.232   3.738   1.270
  450SOL     OW 5100   1.661   2.375   1.767
  450SOL    HW1 5101   1.741   2.318   1.783
  450SOL    HW2 5102   1.579   2.324   1.794
  451SOL     OW 5103   0.901   3.301   0.493
  451SOL    HW1 5104   0.898   3.399   0.472
  451SOL    HW2 5105   0.814   3.259   0.467
  452SOL     OW 5106   0.420   3.740   0.813
  452SOL    HW1 5107   0.489   3.735   0.740
  452SOL    HW2 5108   0.424   3.830   0.857
  453SOL     OW 5109   1.175   3.250   1.492
  453SOL    HW1 5110   1.192   3.201   1.577
  453SOL    HW2 5111   1.145   3.343   1.512
  454SOL     OW 5112   1.409   2.466   0.714
  454SOL    HW1 5113   1.313   2.453   0.738
  454SOL    HW2 5114   1.446   2.541   0.768
  455SOL     OW 5115   1.059   3.642   0.210
  455SOL    HW1 5116   0.994   3.621   0.282
  455SOL    HW2 5117   1.099   3.558   0.175
  456SOL     OW 5118   0.196   2.141   1.646
  456SOL    HW1 5119   0.159   2.057   1.608
  456SOL    HW2 5120   0.230   2.124   1.739
  457SOL     OW 5121   0.291   3.736   1.112
  457SOL    HW1 5122   0.359   3.663   1.097
  457SOL    HW2 5123   0.225   3.736   1.037
  458SOL     OW 5124   0.428   2.890   0.561
  458SOL    HW1 5125   0.515   2.906   0.513
  458SOL    HW2 5126   0.446   2.847   0.649
  459SOL     OW 5127   1.525   2.071   1.648
  459SOL    HW1 5128   1.530   2.101   1.743
  459SOL    HW2 5129   1.549   1.974   1.642
  460SOL     OW 5130   0.909   3.321   1.340
  460SOL    HW1 5131   0.831   3.278   1.295
  460SOL    HW2 5132   0.992   3.304   1.286
  461SOL     OW 5133   1.181   2.451   1.202
  461SOL    HW1 5134   1.210   2.364   1.162
  461SOL    HW2 5135   1.261   2.507   1.222
  462SOL     OW 5136   0.486   3.310   0.210
  462SOL    HW1 5137   0.393   3.287   0.237
  462SOL    HW2 5138   0.488   3.336   0.113
  463SOL     OW 5139   1.149   3.300   1.220
  463SOL    HW1 5140   1.175   3.258   1.308
  463SOL    HW2 5141   1.185   3.393   1.217
  464SOL     OW 5142   1.098   3.021   0.913
  464SOL    HW1 5143   1.107   3.100   0.974
  464SOL    HW2 5144   1.072   3.053   0.822
  465SOL     OW 5145   0.931   2.007   1.324
  465SOL    HW1 5146   0.928   2.104   1.302
  465SOL    HW2 5147   0.975   1.994   1.413
  466SOL     OW 5148   0.699   2.951   0.489
  466SOL    HW1 5149   0.695   2.907   0.578
  466SOL    HW2 5150   0.793   2.951   0.456
  467SOL     OW 5151   0.461   2.827   1.363
  467SOL    HW1 5152   0.526   2.804   1.436
  467SOL    HW2 5153   0.391   2.755   1.358
  468SOL     OW 5154   0.124   3.475   1.251
  468SOL    HW1 5155   0.125   3.555   1.311
  468SOL    HW2 5156   0.216   3.438   1.243
  469SOL     OW 5157   0.211   3.056   0.534
  469SOL    HW1 5158   0.238   3.149   0.557
  469SOL    HW2 5159   0.289   2.994   0.545
  470SOL     OW 5160   1.107   3.185   0.361
  470SOL    HW1 5161   1.190   3.190   0.416
  470SOL    HW2 5162   1.030   3.226   0.411
  471SOL     OW 5163   1.389   2.333   0.457
  471SOL    HW1 5164   1.384   2.401   0.530
  471SOL    HW2 5165   1.302   2.285   0.450
  472SOL     OW 5166   0.383   3.396   1.245
  472SOL    HW1 5167   0.420   3.442   1.164
  472SOL    HW2 5168   0.401   3.452   1.326
  473SOL     OW 5169   0.367   2.591   1.627
  473SOL    HW1 5170   0.448   2.640   1.597
  473SOL    HW2 5171   0.388   2.493   1.635
  474SOL     OW 5172   1.501   2.530   1.439
  474SOL    HW1 5173   1.448   2.540   1.523
  474SOL    HW2 5174   1.451   2.571   1.363
  475SOL     OW 5175   1.038   2.014   1.571
  475SOL    HW1 5176   1.123   2.064   1.590
  475SOL    HW2 5177   0.979   2.018   1.651
  476SOL     OW 5178   0.452   2.883   0.861
  476SOL    HW1 5179   0.389   2.953   0.827
  476SOL    HW2 5180   0.442   2.874   0.960
  477SOL     OW 5181   1.450   2.634   0.932
  477SOL    HW1 5182   1.388   2.565   0.967
  477SOL    HW2 5183   1.534   2.635   0.987
  478SOL     OW 5184   0.245   3.173   1.196
  478SOL    HW1 5185   0.308   3.248   1.214
  478SOL    HW2 5186   0.153   3.199   1.224
  479SOL     OW 5187   1.099   2.608   0.993
  479SOL    HW1 5188   1.150   2.691   1.014
  479SOL    HW2 5189   1.100   2.547   1.073
  480SOL     OW 5190   0.899   3.293   1.633
  480SOL    HW1 5191   0.958   3.373   1.621
  480SOL    HW2 5192   0.900   3.238   1.549
  481SOL     OW 5193   0.534   2.544   1.856
  481SOL    HW1 5194   0.615   2.602   1.863
  481SOL    HW2 5195   0.467   2.588   1.795
  482SOL     OW 5196   1.012   3.103   0.666
  482SOL    HW1 5197   0.991   3.028   0.603
  482SOL    HW2 5198   0.969   3.187   0.633
  483SOL     OW 5199   1.260   2.151   1.648
  483SOL    HW1 5200   1.262   2.221   1.720
  483SOL    HW2 5201   1.354   2.119   1.631
  484SOL     OW 5202   4.985   3.196   0.098
  484SOL    HW1 5203   4.925   3.263   0.141
  484SOL    HW2 5204   0.014   3.129   0.167
  485SOL     OW 5205   0.151   3.715   0.883
  485SOL    HW1 5206   0.082   3.718   0.811
  485SOL    HW2 5207   0.242   3.707   0.842
  486SOL     OW 5208   0.006   2.327   1.702
  486SOL    HW1 5209   0.072   2.259   1.671
  486SOL    HW2 5210   0.031   2.417   1.666
  487SOL     OW 5211   0.469   3.544   1.723
  487SOL    HW1 5212   0.491   3.627   1.776
  487SOL    HW2 5213   0.423   3.478   1.783
  488SOL     OW 5214   1.043   3.495   1.492
  488SOL    HW1 5215   0.983   3.444   1.432
  488SOL    HW2 5216   1.013   3.590   1.497
  489SOL     OW 5217   0.226   2.298   0.044
  489SOL    HW1 5218   0.319   2.330   0.025
  489SOL    HW2 5219   0.166   2.377   0.059
  490SOL     OW 5220   1.260   2.821   1.032
  490SOL    HW1 5221   1.333   2.793   0.970
  490SOL    HW2 5222   1.211   2.899   0.993
  491SOL     OW 5223   1.224   3.557   1.289
  491SOL    HW1 5224   1.237   3.656   1.289
  491SOL    HW2 5225   1.177   3.528   1.372
  492SOL     OW 5226   0.184   3.366   0.919
  492SOL    HW1 5227   0.123   3.350   0.996
  492SOL    HW2 5228   0.130   3.389   0.837
  493SOL     OW 5229   0.643   3.323   1.720
  493SOL    HW1 5230   0.598   3.410   1.699
  493SOL    HW2 5231   0.736   3.324   1.683
  494SOL     OW 5232   1.108   3.374   0.160
  494SOL    HW1 5233   1.114   3.304   0.231
  494SOL    HW2 5234   1.030   3.355   0.100
  495SOL     OW 5235   0.972   2.951   0.435
  495SOL    HW1 5236   1.021   3.025   0.389
  495SOL    HW2 5237   1.013   2.863   0.410
  496SOL     OW 5238   1.351   3.475   0.092
  496SOL    HW1 5239   1.268   3.429   0.123
  496SOL    HW2 5240   1.365   3.456   4.994
  497SOL     OW 5241   1.068   2.227   1.022
  497SOL    HW1 5242   1.057   2.258   0.927
  497SOL    HW2 5243   1.040   2.131   1.029
  498SOL     OW 5244   0.551   3.479   0.415
  498SOL    HW1 5245   0.608   3.415   0.467
  498SOL    HW2 5246   0.524   3.436   0.328
  499SOL     OW 5247   0.233   3.266   0.296
  499SOL    HW1 5248   0.185   3.180   0.282
  499SOL    HW2 5249   0.226   3.293   0.392
  500SOL     OW 5250   1.378   2.640   1.221
  500SOL    HW1 5251   1.329   2.717   1.180
  500SOL    HW2 5252   1.473   2.640   1.189
  501SOL     OW 5253   0.601   2.718   1.571
  501SOL    HW1 5254   0.663   2.774   1.625
  501SOL    HW2 5255   0.645   2.630   1.551
  502SOL     OW 5256   0.761   2.396   1.777
  502SOL    HW1 5257   0.800   2.487   1.796
  502SOL    HW2 5258   0.664   2.396   1.799
  503SOL     OW 5259   0.344   3.541   1.481
  503SOL    HW1 5260   0.295   3.624   1.455
  503SOL    HW2 5261   0.396   3.557   1.565
  504SOL     OW 5262   1.638   2.631   1.139
  504SOL    HW1 5263   1.689   2.550   1.168
  504SOL    HW2 5264   1.690   2.713   1.161
  505SOL     OW 5265   1.168   2.174   0.468
  505SOL    HW1 5266   1.180   2.083   0.427
  505SOL    HW2 5267   1.173   2.167   0.567
  506SOL     OW 5268   1.760   2.138   1.533
  506SOL    HW1 5269   1.762   2.232   1.499
  506SOL    HW2 5270   1.668   2.115   1.563
  507SOL     OW 5271   0.935   2.795   0.856
  507SOL    HW1 5272   0.978   2.716   0.901
  507SOL    HW2 5273   0.986   2.877   0.879
  508SOL     OW 5274   1.932   3.520   0.929
  508SOL    HW1 5275   1.954   3.460   0.852
  508SOL    HW2 5276   1.871   3.471   0.992
  509SOL     OW 5277   0.325   3.250   1.838
  509SOL    HW1 5278   0.290   3.275   1.748
  509SOL    HW2 5279   0.248   3.238   1.901
  510SOL     OW 5280   0.034   3.100   0.744
  510SOL    HW1 5281   0.105   3.090   0.813
  510SOL    HW2 5282   0.070   3.076   0.654
  511SOL     OW 5283   0.614   3.083   1.595
  511SOL    HW1 5284   0.537   3.079   1.531
  511SOL    HW2 5285   0.611   3.169   1.645
  512SOL     OW 5286   1.797   3.359   1.112
  512SOL    HW1 5287   1.698   3.353   1.103
  512SOL    HW2 5288   1.821   3.377   1.207
  513SOL     OW 5289   0.970   1.979   1.056
  513SOL    HW1 5290   0.989   1.890   1.014
  513SOL    HW2 5291   0.961   1.968   1.155
  514SOL     OW 5292   0.665   3.211   0.401
  514SOL    HW1 5293   0.658   3.115   0.428
  514SOL    HW2 5294   0.602   3.230   0.326
  515SOL     OW 5295   1.214   2.161   0.731
  515SOL    HW1 5296   1.221   2.250   0.775
  515SOL    HW2 5297   1.300   2.110   0.744
  516SOL     OW 5298   1.454   2.024   0.741
  516SOL    HW1 5299   1.508   1.986   0.815
  516SOL    HW2 5300   1.503   2.100   0.699
  517SOL     OW 5301   0.089   3.033   0.298
  517SOL    HW1 5302   0.125   3.035   0.391
  517SOL    HW2 5303   0.069   2.938   0.272
  518SOL     OW 5304   0.854   3.544   0.371
  518SOL    HW1 5305   0.797   3.499   0.301
  518SOL    HW2 5306   0.810   3.628   0.400
  519SOL     OW 5307   0.084   2.337   1.965
  519SOL    HW1 5308   0.013   2.371   2.026
  519SOL    HW2 5309   0.056   2.353   1.870
  520SOL     OW 5310   0.519   3.181   3.017
  520SOL    HW1 5311   0.435   3.158   3.065
  520SOL    HW2 5312   0.568   3.251   3.068
  521SOL     OW 5313   1.568   3.177   2.629
  521SOL    HW1 5314   1.542   3.240   2.701
  521SOL    HW2 5315   1.488   3.154   2.574
  522SOL     OW 5316   1.331   2.497   2.744
  522SOL    HW1 5317   1.422   2.457   2.736
  522SOL    HW2 5318   1.269   2.449   2.681
  523SOL     OW 5319   1.614   2.401   2.064
  523SOL    HW1 5320   1.527   2.443   2.041
  523SOL    HW2 5321   1.677   2.410   1.987
  524SOL     OW 5322   0.741   3.037   2.955
  524SOL    HW1 5323   0.651   3.068   2.983
  524SOL    HW2 5324   0.800   3.116   2.936
  525SOL     OW 5325   0.755   3.046   3.764
  525SOL    HW1 5326   0.796   3.137   3.757
  525SOL    HW2 5327   0.660   3.049   3.733
  526SOL     OW 5328   0.248   3.370   2.931
  526SOL    HW1 5329   0.213   3.284   2.893
  526SOL    HW2 5330   0.329   3.398   2.880
  527SOL     OW 5331   1.332   3.367   3.076
  527SOL    HW1 5332   1.388   3.443   3.108
  527SOL    HW2 5333   1.357   3.283   3.125
  528SOL     OW 5334   0.403   2.174   3.348
  528SOL    HW1 5335   0.449   2.172   3.436
  528SOL    HW2 5336   0.321   2.116   3.352
  529SOL     OW 5337   1.013   3.256   3.466
  529SOL    HW1 5338   1.110   3.271   3.482
  529SOL    HW2 5339   0.985   3.170   3.510
  530SOL     OW 5340   0.197   3.229   2.493
  530SOL    HW1 5341   0.288   3.244   2.534
  530SOL    HW2 5342   0.178   3.131   2.491
  531SOL     OW 5343   0.393   2.991   2.703
  531SOL    HW1 5344   0.454   2.937   2.760
  531SOL    HW2 5345   0.319   3.029   2.759
  532SOL     OW 5346   0.659   3.672   3.198
  532SOL    HW1 5347   0.611   3.640   3.279
  532SOL    HW2 5348   0.681   3.769   3.208
  533SOL     OW 5349   1.538   2.085   3.350
  533SOL    HW1 5350   1.551   2.181   3.324
  533SOL    HW2 5351   1.562   2.073   3.446
  534SOL     OW 5352   0.029   2.503   2.388
  534SOL    HW1 5353   0.082   2.419   2.401
  534SOL    HW2 5354   0.079   2.580   2.426
  535SOL     OW 5355   1.812   2.749   2.445
  535SOL    HW1 5356   1.833   2.700   2.529
  535SOL    HW2 5357   1.783   2.842   2.467
  536SOL     OW 5358   1.557   3.024   2.329
  536SOL    HW1 5359   1.563   3.086   2.250
  536SOL    HW2 5360   1.648   3.013   2.369
  537SOL     OW 5361   1.369   3.114   3.180
  537SOL    HW1 5362   1.324   3.050   3.117
  537SOL    HW2 5363   1.346   3.090   3.274
  538SOL     OW 5364   0.908   1.861   2.329
  538SOL    HW1 5365   0.928   1.957   2.349
  538SOL    HW2 5366   0.813   1.852   2.300
  539SOL     OW 5367   1.508   2.861   2.116
  539SOL    HW1 5368   1.557   2.775   2.129
  539SOL    HW2 5369   1.519   2.918   2.197
  540SOL     OW 5370   0.497   2.177   3.606
  540SOL    HW1 5371   0.586   2.204   3.642
  540SOL    HW2 5372   0.424   2.218   3.661
  541SOL     OW 5373   1.256   3.249   2.762
  541SOL    HW1 5374   1.190   3.255   2.838
  541SOL    HW2 5375   1.281   3.153   2.748
  542SOL     OW 5376   0.746   2.507   3.237
  542SOL    HW1 5377   0.716   2.533   3.329
  542SOL    HW2 5378   0.687   2.434   3.202
  543SOL     OW 5379   0.875   2.784   3.448
  543SOL    HW1 5380   0.800   2.723   3.473
  543SOL    HW2 5381   0.923   2.746   3.369
  544SOL     OW 5382   0.812   2.607   2.208
  544SOL    HW1 5383   0.820   2.551   2.291
  544SOL    HW2 5384   0.775   2.551   2.134
  545SOL     OW 5385   0.180   2.696   2.522
  545SOL    HW1 5386   0.159   2.706   2.619
  545SOL    HW2 5387   0.206   2.785   2.484
  546SOL     OW 5388   1.858   2.444   3.727
  546SOL    HW1 5389   1.911   2.509   3.672
  546SOL    HW2 5390   1.797   2.392   3.666
  547SOL     OW 5391   1.345   3.104   2.481
  547SOL    HW1 5392   1.416   3.067   2.419
  547SOL    HW2 5393   1.262   3.122   2.428
  548SOL     OW 5394   1.085   3.432   2.321
  548SOL    HW1 5395   0.992   3.443   2.356
  548SOL    HW2 5396   1.148   3.420   2.397
  549SOL     OW 5397   1.743   2.906   2.765
  549SOL    HW1 5398   1.743   2.937   2.670
  549SOL    HW2 5399   1.663   2.942   2.812
  550SOL     OW 5400   0.484   3.036   3.732
  550SOL    HW1 5401   0.387   3.058   3.726
  550SOL    HW2 5402   0.500   2.943   3.697
  551SOL     OW 5403   1.187   3.629   2.165
  551SOL    HW1 5404   1.150   3.554   2.220
  551SOL    HW2 5405   1.127   3.646   2.087
  552SOL     OW 5406   0.172   2.038   3.381
  552SOL    HW1 5407   0.117   2.092   3.445
  552SOL    HW2 5408   0.158   1.941   3.398
  553SOL     OW 5409   1.541   3.176   2.111
  553SOL    HW1 5410   1.495   3.249   2.162
  553SOL    HW2 5411   1.478   3.137   2.044
  554SOL     OW 5412   0.589   3.577   2.083
  554SOL    HW1 5413   0.582   3.572   2.183
  554SOL    HW2 5414   0.624   3.490   2.048
  555SOL     OW 5415   0.311   3.680   3.025
  555SOL    HW1 5416   0.338   3.608   3.089
  555SOL    HW2 5417   0.240   3.646   2.964
  556SOL     OW 5418   0.336   2.461   2.534
  556SOL    HW1 5419   0.422   2.474   2.484
  556SOL    HW2 5420   0.285   2.547   2.536
  557SOL     OW 5421   1.629   2.040   3.607
  557SOL    HW1 5422   1.646   2.053   3.705
  557SOL    HW2 5423   1.638   1.944   3.584
  558SOL     OW 5424   0.733   2.199   3.762
  558SOL    HW1 5425   0.757   2.109   3.726
  558SOL    HW2 5426   0.813   2.239   3.807
  559SOL     OW 5427   1.389   2.510   3.197
  559SOL    HW1 5428   1.293   2.483   3.198
  559SOL    HW2 5429   1.395   2.609   3.213
  560SOL     OW 5430   0.840   3.293   2.935
  560SOL    HW1 5431   0.939   3.287   2.947
  560SOL    HW2 5432   0.819   3.340   2.850
  561SOL     OW 5433   1.346   3.028   1.974
  561SOL    HW1 5434   1.408   2.959   2.009
  561SOL    HW2 5435   1.252   3.008   2.004
  562SOL     OW 5436   0.101   1.957   2.209
  562SOL    HW1 5437   0.151   2.040   2.185
  562SOL    HW2 5438   0.117   1.887   2.139
  563SOL     OW 5439   0.919   2.133   2.395
  563SOL    HW1 5440   1.006   2.180   2.383
  563SOL    HW2 5441   0.898   2.125   2.493
  564SOL     OW 5442   1.254   3.393   2.527
  564SOL    HW1 5443   1.304   3.479   2.540
  564SOL    HW2 5444   1.256   3.340   2.612
  565SOL     OW 5445   0.436   3.241   2.608
  565SOL    HW1 5446   0.438   3.146   2.639
  565SOL    HW2 5447   0.455   3.302   2.685
  566SOL     OW 5448   1.392   3.624   2.529
  566SOL    HW1 5449   1.419   3.630   2.433
  566SOL    HW2 5450   1.425   3.704   2.579
  567SOL     OW 5451   0.201   2.356   3.419
  567SOL    HW1 5452   0.280   2.302   3.390
  567SOL    HW2 5453   0.134   2.359   3.345
  568SOL     OW 5454   0.775   2.367   2.340
  568SOL    HW1 5455   0.752   2.362   2.243
  568SOL    HW2 5456   0.811   2.279   2.371
  569SOL     OW 5457   0.886   1.842   2.614
  569SOL    HW1 5458   0.904   1.813   2.519
  569SOL    HW2 5459   0.920   1.772   2.677
  570SOL     OW 5460   1.333   2.987   2.748
  570SOL    HW1 5461   1.347   2.892   2.775
  570SOL    HW2 5462   1.344   2.996   2.649
  571SOL     OW 5463   1.573   2.372   2.761
  571SOL    HW1 5464   1.548   2.275   2.762
  571SOL    HW2 5465   1.571   2.408   2.854
  572SOL     OW 5466   1.676   2.654   2.203
  572SOL    HW1 5467   1.717   2.665   2.293
  572SOL    HW2 5468   1.666   2.556   2.182
  573SOL     OW 5469   0.486   3.147   2.035
  573SOL    HW1 5470   0.425   3.137   2.113
  573SOL    HW2 5471   0.434   3.176   1.955
  574SOL     OW 5472   1.758   3.013   2.514
  574SOL    HW1 5473   1.850   3.053   2.520
  574SOL    HW2 5474   1.691   3.079   2.547
  575SOL     OW 5475   1.625   3.226   3.346
  575SOL    HW1 5476   1.717   3.195   3.372
  575SOL    HW2 5477   1.619   3.326   3.356
  576SOL     OW 5478   1.053   3.113   3.223
  576SOL    HW1 5479   1.006   3.181   3.280
  576SOL    HW2 5480   1.120   3.064   3.278
  577SOL     OW 5481   1.622   3.496   3.344
  577SOL    HW1 5482   1.569   3.524   3.265
  577SOL    HW2 5483   1.716   3.531   3.336
  578SOL     OW 5484   0.954   2.906   3.081
  578SOL    HW1 5485   0.983   2.979   3.142
  578SOL    HW2 5486   0.873   2.935   3.029
  579SOL     OW 5487   1.549   3.009   2.916
  579SOL    HW1 5488   1.563   3.092   2.970
  579SOL    HW2 5489   1.464   3.017   2.865
  580SOL     OW 5490   0.974   3.003   3.573
  580SOL    HW1 5491   0.917   3.017   3.654
  580SOL    HW2 5492   0.940   2.923   3.522
  581SOL     OW 5493   4.985   3.364   3.044
  581SOL    HW1 5494   4.939   3.434   3.099
  581SOL    HW2 5495   0.069   3.402   3.005
  582SOL     OW 5496   1.177   3.180   2.250
  582SOL    HW1 5497   1.270   3.212   2.236
  582SOL    HW2 5498   1.116   3.258   2.265
  583SOL     OW 5499   1.107   3.245   2.988
  583SOL    HW1 5500   1.183   3.303   3.016
  583SOL    HW2 5501   1.083   3.182   3.062
  584SOL     OW 5502   0.380   3.435   3.161
  584SOL    HW1 5503   0.325   3.414   3.080
  584SOL    HW2 5504   0.477   3.435   3.136
  585SOL     OW 5505   1.741   2.748   3.522
  585SOL    HW1 5506   1.661   2.699   3.555
  585SOL    HW2 5507   1.718   2.796   3.437
  586SOL     OW 5508   0.836   1.946   3.709
  586SOL    HW1 5509   0.855   1.955   3.806
  586SOL    HW2 5510   0.884   1.866   3.673
  587SOL     OW 5511   0.516   1.917   3.677
  587SOL    HW1 5512   0.461   1.860   3.616
  587SOL    HW2 5513   0.510   2.013   3.647
  588SOL     OW 5514   0.566   2.853   2.860
  588SOL    HW1 5515   0.642   2.913   2.885
  588SOL    HW2 5516   0.583   2.761   2.895
  589SOL     OW 5517   1.389   2.729   2.878
  589SOL    HW1 5518   1.352   2.652   2.826
  589SOL    HW2 5519   1.469   2.698   2.929
  590SOL     OW 5520   0.063   3.102   3.053
  590SOL    HW1 5521   0.149   3.112   3.104
  590SOL    HW2 5522   0.011   3.188   3.057
  591SOL     OW 5523   0.844   3.467   3.513
  591SOL    HW1 5524   0.870   3.551   3.467
  591SOL    HW2 5525   0.902   3.392   3.482
  592SOL     OW 5526   0.528   2.784   3.650
  592SOL    HW1 5527   0.525   2.732   3.736
  592SOL    HW2 5528   0.584   2.736   3.583
  593SOL     OW 5529   1.526   2.175   1.901
  593SOL    HW1 5530   1.510   2.078   1.920
  593SOL    HW2 5531   1.557   2.221   1.984
  594SOL     OW 5532   0.120   3.189   2.032
  594SOL    HW1 5533   0.044   3.252   2.043
  594SOL    HW2 5534   0.085   3.098   2.007
  595SOL     OW 5535   0.110   3.641   2.837
  595SOL    HW1 5536   0.124   3.576   2.762
  595SOL    HW2 5537   0.098   3.733   2.800
  596SOL     OW 5538   0.499   3.378   2.829
  596SOL    HW1 5539   0.589   3.411   2.800
  596SOL    HW2 5540   0.510   3.302   2.893
  597SOL     OW 5541   0.971   2.667   3.223
  597SOL    HW1 5542   0.963   2.744   3.160
  597SOL    HW2 5543   0.894   2.604   3.209
  598SOL     OW 5544   0.247   2.544   3.606
  598SOL    HW1 5545   0.345   2.542   3.626
  598SOL    HW2 5546   0.228   2.481   3.530
  599SOL     OW 5547   1.213   3.013   3.414
  599SOL    HW1 5548   1.306   3.001   3.450
  599SOL    HW2 5549   1.147   2.993   3.486
  600SOL     OW 5550   0.724   2.377   2.066
  600SOL    HW1 5551   0.779   2.366   1.983
  600SOL    HW2 5552   0.630   2.347   2.049
  601SOL     OW 5553   1.579   2.522   2.999
  601SOL    HW1 5554   1.501   2.513   3.061
  601SOL    HW2 5555   1.663   2.492   3.045
  602SOL     OW 5556   0.569   2.299   3.166
  602SOL    HW1 5557   0.507   2.259   3.234
  602SOL    HW2 5558   0.582   2.234   3.091
  603SOL     OW 5559   0.470   2.318   1.984
  603SOL    HW1 5560   0.476   2.402   1.931
  603SOL    HW2 5561   0.386   2.319   2.038
  604SOL     OW 5562   1.239   2.909   3.045
  604SOL    HW1 5563   1.276   2.849   2.974
  604SOL    HW2 5564   1.139   2.900   3.046
  605SOL     OW 5565   1.566   3.607   2.854
  605SOL    HW1 5566   1.663   3.613   2.832
  605SOL    HW2 5567   1.533   3.514   2.837
  606SOL     OW 5568   0.171   3.122   2.809
  606SOL    HW1 5569   0.128   3.100   2.896
  606SOL    HW2 5570   0.101   3.141   2.740
  607SOL     OW 5571   0.668   3.536   3.706
  607SOL    HW1 5572   0.623   3.620   3.676
  607SOL    HW2 5573   0.735   3.507   3.637
  608SOL     OW 5574   1.400   3.339   2.287
  608SOL    HW1 5575   1.424   3.434   2.267
  608SOL    HW2 5576   1.365   3.332   2.380
  609SOL     OW 5577   0.668   3.337   1.995
  609SOL    HW1 5578   0.676   3.334   1.895
  609SOL    HW2 5579   0.603   3.267   2.025
  610SOL     OW 5580   1.496   3.596   3.126
  610SOL    HW1 5581   1.517   3.608   3.029
  610SOL    HW2 5582   1.487   3.686   3.170
  611SOL     OW 5583   0.977   2.744   2.035
  611SOL    HW1 5584   1.022   2.830   2.055
  611SOL    HW2 5585   0.932   2.709   2.117
  612SOL     OW 5586   0.298   3.164   3.176
  612SOL    HW1 5587   0.308   3.262   3.195
  612SOL    HW2 5588   0.304   3.113   3.261
  613SOL     OW 5589   1.626   3.229   3.061
  613SOL    HW1 5590   1.724   3.223   3.078
  613SOL    HW2 5591   1.577   3.214   3.147
  614SOL     OW 5592   0.874   2.102   2.653
  614SOL    HW1 5593   0.876   2.003   2.645
  614SOL    HW2 5594   0.839   2.128   2.743
  615SOL     OW 5595   1.594   2.355   3.306
  615SOL    HW1 5596   1.671   2.375   3.245
  615SOL    HW2 5597   1.514   2.409   3.278
  616SOL     OW 5598   0.293   3.149   2.240
  616SOL    HW1 5599   0.229   3.165   2.165
  616SOL    HW2 5600   0.264   3.201   2.320
  617SOL     OW 5601   4.963   2.087   1.959
  617SOL    HW1 5602   4.890   2.109   1.894
  617SOL    HW2 5603   0.027   2.164   1.964
  618SOL     OW 5604   1.415   2.776   3.204
  618SOL    HW1 5605   1.341   2.831   3.165
  618SOL    HW2 5606   1.499   2.791   3.151
  619SOL     OW 5607   4.861   2.074   2.227
  619SOL    HW1 5608   4.839   2.068   2.129
  619SOL    HW2 5609   4.947   2.026   2.244
  620SOL     OW 5610   1.082   3.002   2.065
  620SOL    HW1 5611   1.038   3.057   1.994
  620SOL    HW2 5612   1.111   3.061   2.140
  621SOL     OW 5613   1.494   3.819   2.697
  621SOL    HW1 5614   1.568   3.886   2.704
  621SOL    HW2 5615   1.514   3.741   2.756
  622SOL     OW 5616   0.699   2.571   3.519
  622SOL    HW1 5617   0.623   2.532   3.571
  622SOL    HW2 5618   0.785   2.527   3.547
  623SOL     OW 5619   1.479   3.032   3.458
  623SOL    HW1 5620   1.529   3.022   3.545
  623SOL    HW2 5621   1.517   3.109   3.407
  624SOL     OW 5622   0.520   3.538   3.394
  624SOL    HW1 5623   0.449   3.506   3.332
  624SOL    HW2 5624   0.562   3.460   3.441
  625SOL     OW 5625   1.644   2.799   3.057
  625SOL    HW1 5626   1.667   2.718   3.003
  625SOL    HW2 5627   1.617   2.873   2.996
  626SOL     OW 5628   1.705   2.307   3.556
  626SOL    HW1 5629   1.664   2.333   3.469
  626SOL    HW2 5630   1.683   2.211   3.576
  627SOL     OW 5631   1.678   2.896   3.306
  627SOL    HW1 5632   1.587   2.926   3.335
  627SOL    HW2 5633   1.673   2.858   3.214
  628SOL     OW 5634   0.955   3.151   1.866
  628SOL    HW1 5635   0.871   3.117   1.908
  628SOL    HW2 5636   0.932   3.204   1.784
  629SOL     OW 5637   1.811   3.256   2.743
  629SOL    HW1 5638   1.727   3.237   2.692
  629SOL    HW2 5639   1.788   3.303   2.828
  630SOL     OW 5640   0.259   2.955   2.468
  630SOL    HW1 5641   0.321   2.963   2.547
  630SOL    HW2 5642   0.305   2.990   2.386
  631SOL     OW 5643   0.185   2.272   2.408
  631SOL    HW1 5644   0.167   2.187   2.459
  631SOL    HW2 5645   0.249   2.329   2.461
  632SOL     OW 5646   1.509   3.341   2.837
  632SOL    HW1 5647   1.411   3.326   2.829
  632SOL    HW2 5648   1.541   3.309   2.926
  633SOL     OW 5649   0.742   3.423   2.711
  633SOL    HW1 5650   0.750   3.522   2.698
  633SOL    HW2 5651   0.747   3.377   2.622
  634SOL     OW 5652   1.522   1.910   2.909
  634SOL    HW1 5653   1.520   1.810   2.908
  634SOL    HW2 5654   1.476   1.943   2.991
  635SOL     OW 5655   0.741   3.030   1.986
  635SOL    HW1 5656   0.649   3.067   2.001
  635SOL    HW2 5657   0.771   2.982   2.069
  636SOL     OW 5658   0.647   3.416   3.099
  636SOL    HW1 5659   0.665   3.511   3.126
  636SOL    HW2 5660   0.727   3.380   3.051
  637SOL     OW 5661   1.487   1.911   1.911
  637SOL    HW1 5662   1.461   1.846   1.840
  637SOL    HW2 5663   1.476   1.869   2.001
  638SOL     OW 5664   1.509   2.111   2.726
  638SOL    HW1 5665   1.520   2.038   2.793
  638SOL    HW2 5666   1.488   2.072   2.637
  639SOL     OW 5667   0.170   2.739   3.779
  639SOL    HW1 5668   0.122   2.684   3.848
  639SOL    HW2 5669   0.200   2.680   3.704
  640SOL     OW 5670   1.782   2.475   3.987
  640SOL    HW1 5671   1.804   2.467   3.889
  640SOL    HW2 5672   1.779   2.384   4.027
  641SOL     OW 5673   0.665   2.815   4.475
  641SOL    HW1 5674   0.733   2.867   4.525
  641SOL    HW2 5675   0.581   2.870   4.466
  642SOL     OW 5676   0.436   3.386   4.944
  642SOL    HW1 5677   0.343   3.351   4.937
  642SOL    HW2 5678   0.485   3.366   4.859
  643SOL     OW 5679   1.655   2.373   4.328
  643SOL    HW1 5680   1.625   2.446   4.267
  643SOL    HW2 5681   1.733   2.405   4.382
  644SOL     OW 5682   0.226   3.347   4.262
  644SOL    HW1 5683   0.275   3.433   4.277
  644SOL    HW2 5684   0.236   3.289   4.343
  645SOL     OW 5685   0.257   2.898   4.645
  645SOL    HW1 5686   0.174   2.842   4.648
  645SOL    HW2 5687   0.237   2.989   4.679
  646SOL     OW 5688   0.620   2.901   3.965
  646SOL    HW1 5689   0.676   2.949   3.898
  646SOL    HW2 5690   0.649   2.926   4.057
  647SOL     OW 5691   0.184   2.534   4.186
  647SOL    HW1 5692   0.179   2.441   4.223
  647SOL    HW2 5693   0.159   2.600   4.256
  648SOL     OW 5694   4.947   3.372   3.998
  648SOL    HW1 5695   4.963   3.274   3.984
  648SOL    HW2 5696   0.007   3.424   3.938
  649SOL     OW 5697   1.485   2.820   4.172
  649SOL    HW1 5698   1.469   2.896   4.109
  649SOL    HW2 5699   1.414   2.819   4.242
  650SOL     OW 5700   0.530   3.200   4.457
  650SOL    HW1 5701   0.486   3.110   4.462
  650SOL    HW2 5702   0.524   3.234   4.363
  651SOL     OW 5703   1.373   3.409   4.712
  651SOL    HW1 5704   1.399   3.317   4.683
  651SOL    HW2 5705   1.452   3.470   4.704
  652SOL     OW 5706   0.542   2.653   3.899
  652SOL    HW1 5707   0.585   2.741   3.922
  652SOL    HW2 5708   0.508   2.610   3.982
  653SOL     OW 5709   0.109   2.696   4.387
  653SOL    HW1 5710   0.162   2.654   4.460
  653SOL    HW2 5711   0.096   2.793   4.405
  654SOL     OW 5712   0.084   3.590   0.402
  654SOL    HW1 5713   0.168   3.573   0.453
  654SOL    HW2 5714   0.053   3.684   0.418
  655SOL     OW 5715   0.878   1.984   3.969
  655SOL    HW1 5716   0.926   2.070   3.952
  655SOL    HW2 5717   0.939   1.920   4.016
  656SOL     OW 5718   0.544   2.135   4.645
  656SOL    HW1 5719   0.641   2.113   4.654
  656SOL    HW2 5720   0.533   2.232   4.625
  657SOL     OW 5721   0.998   3.332   4.392
  657SOL    HW1 5722   0.906   3.346   4.429
  657SOL    HW2 5723   1.065   3.379   4.450
  658SOL     OW 5724   1.865   2.904   4.578
  658SOL    HW1 5725   1.908   2.912   4.489
  658SOL    HW2 5726   1.765   2.910   4.567
  659SOL     OW 5727   0.323   2.856   3.976
  659SOL    HW1 5728   0.419   2.870   3.952
  659SOL    HW2 5729   0.273   2.817   3.898
  660SOL     OW 5730   0.384   3.608   0.104
  660SOL    HW1 5731   0.427   3.546   0.039
  660SOL    HW2 5732   0.292   3.574   0.127
  661SOL     OW 5733   0.449   2.549   4.134
  661SOL    HW1 5734   0.452   2.450   4.146
  661SOL    HW2 5735   0.355   2.581   4.143
  662SOL     OW 5736   0.604   1.920   3.936
  662SOL    HW1 5737   0.702   1.935   3.952
  662SOL    HW2 5738   0.586   1.922   3.838
  663SOL     OW 5739   0.742   3.371   4.484
  663SOL    HW1 5740   0.711   3.448   4.428
  663SOL    HW2 5741   0.674   3.297   4.479
  664SOL     OW 5742   1.643   3.027   3.669
  664SOL    HW1 5743   1.618   2.991   3.758
  664SOL    HW2 5744   1.743   3.021   3.658
  665SOL     OW 5745   1.175   3.485   4.529
  665SOL    HW1 5746   1.206   3.568   4.482
  665SOL    HW2 5747   1.237   3.466   4.605
  666SOL     OW 5748   0.435   2.943   4.449
  666SOL    HW1 5749   0.359   2.928   4.512
  666SOL    HW2 5750   0.399   2.962   4.357
  667SOL     OW 5751   1.257   3.706   4.376
  667SOL    HW1 5752   1.349   3.731   4.346
  667SOL    HW2 5753   1.204   3.788   4.396
  668SOL     OW 5754   1.008   2.200   3.855
  668SOL    HW1 5755   1.031   2.174   3.761
  668SOL    HW2 5756   1.092   2.220   3.905
  669SOL     OW 5757   0.512   3.214   3.942
  669SOL    HW1 5758   0.415   3.217   3.968
  669SOL    HW2 5759   0.525   3.145   3.871
  670SOL     OW 5760   0.523   2.183   3.954
  670SOL    HW1 5761   0.535   2.084   3.962
  670SOL    HW2 5762   0.591   2.220   3.891
  671SOL     OW 5763   0.673   2.961   4.227
  671SOL    HW1 5764   0.578   2.992   4.222
  671SOL    HW2 5765   0.682   2.893   4.299
  672SOL     OW 5766   0.396   3.009   4.190
  672SOL    HW1 5767   0.358   3.098   4.164
  672SOL    HW2 5768   0.368   2.940   4.123
  673SOL     OW 5769   0.511   2.398   4.602
  673SOL    HW1 5770   0.521   2.454   4.520
  673SOL    HW2 5771   0.557   2.443   4.679
  674SOL     OW 5772   1.583   2.563   4.155
  674SOL    HW1 5773   1.553   2.658   4.154
  674SOL    HW2 5774   1.653   2.549   4.085
  675SOL     OW 5775   0.481   2.728   4.684
  675SOL    HW1 5776   0.543   2.751   4.609
  675SOL    HW2 5777   0.408   2.796   4.689
  676SOL     OW 5778   1.623   2.753   4.936
  676SOL    HW1 5779   1.523   2.750   4.924
  676SOL    HW2 5780   1.665   2.679   4.884
  677SOL     OW 5781   1.257   2.234   3.969
  677SOL    HW1 5782   1.271   2.230   4.068
  677SOL    HW2 5783   1.335   2.278   3.926
  678SOL     OW 5784   0.275   2.097   4.870
  678SOL    HW1 5785   0.259   2.163   4.944
  678SOL    HW2 5786   0.292   2.006   4.910
  679SOL     OW 5787   0.170   3.317   4.945
  679SOL    HW1 5788   0.105   3.255   4.990
  679SOL    HW2 5789   0.161   3.408   4.986
  680SOL     OW 5790   0.629   2.521   4.808
  680SOL    HW1 5791   0.722   2.533   4.843
  680SOL    HW2 5792   0.590   2.611   4.787
  681SOL     OW 5793   0.311   2.031   4.276
  681SOL    HW1 5794   0.308   2.128   4.251
  681SOL    HW2 5795   0.311   2.022   4.375
  682SOL     OW 5796   1.735   2.228   4.107
  682SOL    HW1 5797   1.763   2.134   4.128
  682SOL    HW2 5798   1.702   2.272   4.190
  683SOL     OW 5799   1.697   2.079   3.874
  683SOL    HW1 5800   1.717   1.990   3.914
  683SOL    HW2 5801   1.689   2.147   3.947
  684SOL     OW 5802   0.268   2.579   4.572
  684SOL    HW1 5803   0.347   2.627   4.608
  684SOL    HW2 5804   0.259   2.490   4.617
  685SOL     OW 5805   0.268   2.333   4.713
  685SOL    HW1 5806   0.264   2.243   4.756
  685SOL    HW2 5807   0.360   2.348   4.676
  686SOL     OW 5808   0.025   3.106   3.944
  686SOL    HW1 5809   0.033   3.054   4.029
  686SOL    HW2 5810   4.987   3.047   3.872
  687SOL     OW 5811   0.551   3.321   4.704
  687SOL    HW1 5812   0.634   3.370   4.678
  687SOL    HW2 5813   0.516   3.270   4.626
  688SOL     OW 5814   0.886   2.515   4.908
  688SOL    HW1 5815   0.948   2.452   4.862
  688SOL    HW2 5816   0.923   2.539   4.998
  689SOL     OW 5817   0.059   2.497   4.794
  689SOL    HW1 5818   0.141   2.444   4.775
  689SOL    HW2 5819   4.987   2.471   4.729
  690SOL     OW 5820   1.727   2.551   4.791
  690SOL    HW1 5821   1.741   2.454   4.810
  690SOL    HW2 5822   1.805   2.587   4.740
  691SOL     OW 5823   0.479   2.354   4.964
  691SOL    HW1 5824   0.508   2.264   4.931
  691SOL    HW2 5825   0.530   2.425   4.916
  692SOL     OW 5826   0.508   2.483   3.694
  692SOL    HW1 5827   0.529   2.540   3.773
  692SOL    HW2 5828   0.446   2.409   3.721
  693SOL     OW 5829   0.162   3.150   4.727
  693SOL    HW1 5830   0.179   3.219   4.798
  693SOL    HW2 5831   0.076   3.103   4.747
  694SOL     OW 5832   1.788   1.959   4.142
  694SOL    HW1 5833   1.881   1.933   4.165
  694SOL    HW2 5834   1.725   1.886   4.168
  695SOL     OW 5835   1.098   3.524   4.209
  695SOL    HW1 5836   1.071   3.447   4.268
  695SOL    HW2 5837   1.157   3.586   4.260
  696SOL     OW 5838   0.711   3.403   3.934
  696SOL    HW1 5839   0.686   3.462   3.858
  696SOL    HW2 5840   0.642   3.332   3.946
  697SOL     OW 5841   1.645   3.781   0.199
  697SOL    HW1 5842   1.662   3.879   0.195
  697SOL    HW2 5843   1.546   3.765   0.196
  698SOL     OW 5844   1.572   3.711   3.509
  698SOL    HW1 5845   1.580   3.707   3.609
  698SOL    HW2 5846   1.580   3.618   3.471
  699SOL     OW 5847   0.562   3.290   4.200
  699SOL    HW1 5848   0.659   3.268   4.207
  699SOL    HW2 5849   0.529   3.268   4.109
  700SOL     OW 5850   0.262   3.212   4.033
  700SOL    HW1 5851   0.177   3.175   3.995
  700SOL    HW2 5852   0.241   3.270   4.111
  701SOL     OW 5853   0.072   2.358   3.738
  701SOL    HW1 5854   4.979   2.386   3.761
  701SOL    HW2 5855   0.116   2.430   3.684
  702SOL     OW 5856   1.799   2.818   0.136
  702SOL    HW1 5857   1.736   2.789   0.064
  702SOL    HW2 5858   1.811   2.917   0.132
  703SOL     OW 5859   0.562   2.567   4.392
  703SOL    HW1 5860   0.610   2.652   4.414
  703SOL    HW2 5861   0.525   2.573   4.299
  704SOL     OW 5862   2.006   2.777   0.313
  704SOL    HW1 5863   1.986   2.846   0.382
  704SOL    HW2 5864   1.934   2.777   0.243
  705SOL     OW 5865   0.854   3.289   3.732
  705SOL    HW1 5866   0.821   3.332   3.815
  705SOL    HW2 5867   0.859   3.357   3.658
  706SOL     OW 5868   0.205   3.168   4.462
  706SOL    HW1 5869   0.200   3.175   4.562
  706SOL    HW2 5870   0.144   3.095   4.430
  707SOL     OW 5871   0.417   2.281   4.187
  707SOL    HW1 5872   0.453   2.243   4.101
  707SOL    HW2 5873   0.483   2.264   4.260
  708SOL     OW 5874   0.634   3.540   4.286
  708SOL    HW1 5875   0.713   3.563   4.229
  708SOL    HW2 5876   0.590   3.458   4.251
  709SOL     OW 5877   0.816   3.209   4.211
  709SOL    HW1 5878   0.799   3.111   4.219
  709SOL    HW2 5879   0.897   3.233   4.266
  710SOL     OW 5880   1.390   2.388   4.406
  710SOL    HW1 5881   1.390   2.463   4.471
  710SOL    HW2 5882   1.483   2.368   4.377
  711SOL     OW 5883   0.086   2.912   4.128
  711SOL    HW1 5884   0.167   2.880   4.079
  711SOL    HW2 5885   0.022   2.836   4.140
  712SOL     OW 5886   0.847   3.559   4.112
  712SOL    HW1 5887   0.814   3.485   4.054
  712SOL    HW2 5888   0.942   3.541   4.138
  713SOL     OW 5889   0.022   4.089   0.927
  713SOL    HW1 5890   0.088   4.045   0.988
  713SOL    HW2 5891   4.935   4.040   0.930
  714SOL     OW 5892   0.047   4.285   0.530
  714SOL    HW1 5893   0.010   4.349   0.598
  714SOL    HW2 5894   5.000   4.299   0.443
  715SOL     OW 5895   0.668   4.583   1.749
  715SOL    HW1 5896   0.629   4.609   1.837
  715SOL    HW2 5897   0.728   4.657   1.716
  716SOL     OW 5898   0.661   4.742   0.653
  716SOL    HW1 5899   0.732   4.812   0.666
  716SOL    HW2 5900   0.582   4.764   0.709
  717SOL     OW 5901   0.655   0.028   1.666
  717SOL    HW1 5902   0.705   0.112   1.646
  717SOL    HW2 5903   0.582   0.016   1.599
  718SOL     OW 5904   0.542   4.715   0.193
  718SOL    HW1 5905   0.592   4.741   0.110
  718SOL    HW2 5906   0.584   4.758   0.272
  719SOL     OW 5907   0.217   4.489   0.453
  719SOL    HW1 5908   0.178   4.399   0.471
  719SOL    HW2 5909   0.225   4.539   0.539
  720SOL     OW 5910   0.128   4.434   1.484
  720SOL    HW1 5911   0.216   4.472   1.514
  720SOL    HW2 5912   0.068   4.508   1.455
  721SOL     OW 5913   0.279   4.695   1.272
  721SOL    HW1 5914   0.345   4.621   1.276
  721SOL    HW2 5915   0.193   4.661   1.234
  722SOL     OW 5916   0.774   4.557   0.281
  722SOL    HW1 5917   0.682   4.566   0.244
  722SOL    HW2 5918   0.779   4.477   0.341
  723SOL     OW 5919   1.306   3.954   0.881
  723SOL    HW1 5920   1.237   3.926   0.814
  723SOL    HW2 5921   1.390   3.900   0.867
  724SOL     OW 5922   0.200   4.620   0.696
  724SOL    HW1 5923   0.257   4.607   0.777
  724SOL    HW2 5924   0.230   4.701   0.646
  725SOL     OW 5925   0.925   3.882   0.204
  725SOL    HW1 5926   0.950   3.953   0.137
  725SOL    HW2 5927   0.983   3.802   0.191
  726SOL     OW 5928   1.643   4.348   1.857
  726SOL    HW1 5929   1.548   4.377   1.868
  726SOL    HW2 5930   1.652   4.291   1.776
  727SOL     OW 5931   0.389   4.004   0.887
  727SOL    HW1 5932   0.322   4.020   0.960
  727SOL    HW2 5933   0.398   4.086   0.831
  728SOL     OW 5934   1.778   4.789   0.915
  728SOL    HW1 5935   1.756   4.780   0.818
  728SOL    HW2 5936   1.695   4.811   0.966
  729SOL     OW 5937   0.288   4.701   0.299
  729SOL    HW1 5938   0.377   4.699   0.252
  729SOL    HW2 5939   0.272   4.613   0.343
  730SOL     OW 5940   1.337   4.474   0.821
  730SOL    HW1 5941   1.335   4.380   0.853
  730SOL    HW2 5942   1.425   4.493   0.777
  731SOL     OW 5943   1.438   3.814   0.460
  731SOL    HW1 5944   1.425   3.763   0.375
  731SOL    HW2 5945   1.535   3.816   0.483
  732SOL     OW 5946   1.306   4.281   1.193
  732SOL    HW1 5947   1.309   4.284   1.293
  732SOL    HW2 5948   1.296   4.374   1.157
  733SOL     OW 5949   0.558   3.792   0.583
  733SOL    HW1 5950   0.485   3.845   0.542
  733SOL    HW2 5951   0.631   3.778   0.516
  734SOL     OW 5952   0.466   3.809   0.263
  734SOL    HW1 5953   0.396   3.879   0.254
  734SOL    HW2 5954   0.442   3.730   0.206
  735SOL     OW 5955   1.003   4.064   0.392
  735SOL    HW1 5956   0.963   3.991   0.338
  735SOL    HW2 5957   1.079   4.028   0.446
  736SOL     OW 5958   0.458   4.847   0.795
  736SOL    HW1 5959   0.481   4.943   0.804
  736SOL    HW2 5960   0.399   4.834   0.715
  737SOL     OW 5961   1.015   4.106   0.065
  737SOL    HW1 5962   0.951   4.148   0.002
  737SOL    HW2 5963   1.057   4.176   0.123
  738SOL     OW 5964   0.137   4.258   1.281
  738SOL    HW1 5965   0.232   4.259   1.249
  738SOL    HW2 5966   0.127   4.321   1.358
  739SOL     OW 5967   1.401   4.925   0.826
  739SOL    HW1 5968   1.323   4.898   0.770
  739SOL    HW2 5969   1.433   0.015   0.798
  740SOL     OW 5970   1.343   4.221   0.919
  740SOL    HW1 5971   1.329   4.122   0.909
  740SOL    HW2 5972   1.338   4.245   1.016
  741SOL     OW 5973   1.372   4.266   0.137
  741SOL    HW1 5974   1.289   4.270   0.192
  741SOL    HW2 5975   1.436   4.201   0.178
  742SOL     OW 5976   0.720   3.787   0.360
  742SOL    HW1 5977   0.630   3.795   0.320
  742SOL    HW2 5978   0.788   3.830   0.300
  743SOL     OW 5979   1.749   0.029   1.547
  743SOL    HW1 5980   1.806   4.962   1.596
  743SOL    HW2 5981   1.776   0.121   1.574
  744SOL     OW 5982   1.543   4.852   1.044
  744SOL    HW1 5983   1.560   4.935   1.097
  744SOL    HW2 5984   1.486   4.874   0.965
  745SOL     OW 5985   0.981   3.760   1.477
  745SOL    HW1 5986   0.897   3.797   1.437
  745SOL    HW2 5987   1.058   3.781   1.417
  746SOL     OW 5988   0.797   4.798   1.637
  746SOL    HW1 5989   0.744   4.881   1.656
  746SOL    HW2 5990   0.808   4.789   1.538
  747SOL     OW 5991   0.710   4.800   0.391
  747SOL    HW1 5992   0.684   4.782   0.486
  747SOL    HW2 5993   0.760   4.722   0.354
  748SOL     OW 5994   0.481   4.512   1.245
  748SOL    HW1 5995   0.534   4.518   1.329
  748SOL    HW2 5996   0.459   4.416   1.227
  749SOL     OW 5997   1.258   4.006   1.154
  749SOL    HW1 5998   1.270   4.104   1.166
  749SOL    HW2 5999   1.270   3.983   1.057
  750SOL     OW 6000   0.335   4.812   0.549
  750SOL    HW1 6001   0.371   4.906   0.544
  750SOL    HW2 6002   0.313   4.780   0.458
  751SOL     OW 6003   0.416   4.243   0.710
  751SOL    HW1 6004   0.444   4.337   0.692
  751SOL    HW2 6005   0.449   4.183   0.637
  752SOL     OW 6006   0.375   4.490   1.582
  752SOL    HW1 6007   0.449   4.538   1.534
  752SOL    HW2 6008   0.413   4.441   1.660
  753SOL     OW 6009   0.484   4.770   1.114
  753SOL    HW1 6010   0.399   4.767   1.166
  753SOL    HW2 6011   0.537   4.687   1.132
  754SOL     OW 6012   1.297   4.529   1.086
  754SOL    HW1 6013   1.314   4.623   1.114
  754SOL    HW2 6014   1.299   4.522   0.986
  755SOL     OW 6015   1.128   4.264   0.262
  755SOL    HW1 6016   1.081   4.200   0.323
  755SOL    HW2 6017   1.083   4.353   0.266
  756SOL     OW 6018   0.210   3.993   1.108
  756SOL    HW1 6019   0.157   4.004   1.192
  756SOL    HW2 6020   0.255   3.903   1.108
  757SOL     OW 6021   0.292   3.876   0.603
  757SOL    HW1 6022   0.242   3.958   0.632
  757SOL    HW2 6023   0.335   3.834   0.683
  758SOL     OW 6024   1.567   4.078   0.490
  758SOL    HW1 6025   1.617   4.000   0.529
  758SOL    HW2 6026   1.506   4.116   0.559
  759SOL     OW 6027   1.501   4.042   0.229
  759SOL    HW1 6028   1.412   3.996   0.226
  759SOL    HW2 6029   1.529   4.054   0.324
  760SOL     OW 6030   1.332   4.430   4.922
  760SOL    HW1 6031   1.354   4.380   0.006
  760SOL    HW2 6032   1.356   4.375   4.843
  761SOL     OW 6033   0.370   4.589   0.908
  761SOL    HW1 6034   0.406   4.673   0.947
  761SOL    HW2 6035   0.353   4.522   0.981
  762SOL     OW 6036   0.279   4.304   0.937
  762SOL    HW1 6037   0.180   4.307   0.924
  762SOL    HW2 6038   0.324   4.286   0.850
  763SOL     OW 6039   1.173   3.923   1.607
  763SOL    HW1 6040   1.094   3.863   1.592
  763SOL    HW2 6041   1.180   3.945   1.704
  764SOL     OW 6042   1.206   3.829   1.348
  764SOL    HW1 6043   1.227   3.873   1.435
  764SOL    HW2 6044   1.227   3.892   1.273
  765SOL     OW 6045   0.001   4.326   1.058
  765SOL    HW1 6046   4.995   4.244   1.001
  765SOL    HW2 6047   0.040   4.302   1.147
  766SOL     OW 6048   0.164   4.250   1.680
  766SOL    HW1 6049   0.261   4.263   1.700
  766SOL    HW2 6050   0.135   4.316   1.611
  767SOL     OW 6051   0.940   4.437   0.100
  767SOL    HW1 6052   0.881   4.375   0.049
  767SOL    HW2 6053   0.885   4.492   0.163
  768SOL     OW 6054   1.700   3.830   0.540
  768SOL    HW1 6055   1.777   3.830   0.477
  768SOL    HW2 6056   1.685   3.738   0.575
  769SOL     OW 6057   0.136   4.077   0.677
  769SOL    HW1 6058   0.108   4.156   0.622
  769SOL    HW2 6059   0.092   4.083   0.767
  770SOL     OW 6060   0.789   4.768   1.363
  770SOL    HW1 6061   0.861   4.715   1.318
  770SOL    HW2 6062   0.774   4.853   1.313
  771SOL     OW 6063   0.502   4.997   1.440
  771SOL    HW1 6064   0.439   0.043   1.377
  771SOL    HW2 6065   0.487   4.898   1.437
  772SOL     OW 6066   1.630   4.978   1.306
  772SOL    HW1 6067   1.670   0.005   1.394
  772SOL    HW2 6068   1.600   4.883   1.311
  773SOL     OW 6069   0.057   3.848   0.472
  773SOL    HW1 6070   0.021   3.939   0.449
  773SOL    HW2 6071   0.148   3.858   0.512
  774SOL     OW 6072   0.612   4.584   1.477
  774SOL    HW1 6073   0.673   4.651   1.436
  774SOL    HW2 6074   0.637   4.570   1.573
  775SOL     OW 6075   1.565   4.709   1.273
  775SOL    HW1 6076   1.630   4.633   1.267
  775SOL    HW2 6077   1.551   4.747   1.182
  776SOL     OW 6078   1.244   3.995   0.494
  776SOL    HW1 6079   1.311   3.922   0.486
  776SOL    HW2 6080   1.283   4.071   0.546
  777SOL     OW 6081   0.491   4.508   0.678
  777SOL    HW1 6082   0.559   4.576   0.647
  777SOL    HW2 6083   0.448   4.540   0.762
  778SOL     OW 6084   1.187   4.808   4.972
  778SOL    HW1 6085   1.143   4.719   4.957
  778SOL    HW2 6086   1.285   4.800   4.953
  779SOL     OW 6087   0.395   4.260   1.174
  779SOL    HW1 6088   0.437   4.169   1.174
  779SOL    HW2 6089   0.355   4.278   1.084
  780SOL     OW 6090   0.716   0.035   0.258
  780SOL    HW1 6091   0.712   4.949   0.310
  780SOL    HW2 6092   0.795   0.034   0.197
  781SOL     OW 6093   1.380   3.723   0.206
  781SOL    HW1 6094   1.355   3.641   0.154
  781SOL    HW2 6095   1.309   3.792   0.194
  782SOL     OW 6096   1.360   4.199   0.641
  782SOL    HW1 6097   1.330   4.287   0.603
  782SOL    HW2 6098   1.358   4.204   0.741
  783SOL     OW 6099   0.036   4.774   0.408
  783SOL    HW1 6100   0.117   4.752   0.355
  783SOL    HW2 6101   4.983   4.691   0.425
  784SOL     OW 6102   0.049   3.940   2.839
  784SOL    HW1 6103   0.117   3.935   2.912
  784SOL    HW2 6104   4.968   3.989   2.872
  785SOL     OW 6105   4.974   4.089   2.337
  785SOL    HW1 6106   4.999   4.082   2.434
  785SOL    HW2 6107   0.057   4.103   2.283
  786SOL     OW 6108   1.042   4.357   2.614
  786SOL    HW1 6109   1.124   4.311   2.579
  786SOL    HW2 6110   1.070   4.430   2.677
  787SOL     OW 6111   1.838   4.292   2.031
  787SOL    HW1 6112   1.765   4.314   1.967
  787SOL    HW2 6113   1.798   4.261   2.118
  788SOL     OW 6114   0.712   4.857   2.780
  788SOL    HW1 6115   0.763   4.942   2.774
  788SOL    HW2 6116   0.646   4.852   2.704
  789SOL     OW 6117   0.719   4.647   2.480
  789SOL    HW1 6118   0.782   4.642   2.558
  789SOL    HW2 6119   0.644   4.709   2.502
  790SOL     OW 6120   0.481   3.940   3.410
  790SOL    HW1 6121   0.557   3.949   3.345
  790SOL    HW2 6122   0.394   3.956   3.362
  791SOL     OW 6123   0.301   4.862   2.688
  791SOL    HW1 6124   0.319   4.807   2.770
  791SOL    HW2 6125   0.207   4.845   2.657
  792SOL     OW 6126   0.589   4.679   1.986
  792SOL    HW1 6127   0.505   4.732   1.993
  792SOL    HW2 6128   0.641   4.689   2.071
  793SOL     OW 6129   1.507   3.832   3.273
  793SOL    HW1 6130   1.561   3.916   3.263
  793SOL    HW2 6131   1.522   3.793   3.364
  794SOL     OW 6132   1.761   4.702   2.453
  794SOL    HW1 6133   1.780   4.665   2.362
  794SOL    HW2 6134   1.794   4.796   2.458
  795SOL     OW 6135   0.173   4.489   3.496
  795SOL    HW1 6136   0.260   4.494   3.545
  795SOL    HW2 6137   0.127   4.578   3.502
  796SOL     OW 6138   1.165   4.195   2.892
  796SOL    HW1 6139   1.217   4.277   2.869
  796SOL    HW2 6140   1.219   4.114   2.869
  797SOL     OW 6141   1.087   4.698   3.351
  797SOL    HW1 6142   1.096   4.600   3.370
  797SOL    HW2 6143   1.046   4.711   3.261
  798SOL     OW 6144   1.095   4.191   3.179
  798SOL    HW1 6145   0.997   4.173   3.177
  798SOL    HW2 6146   1.130   4.190   3.085
  799SOL     OW 6147   0.871   4.425   2.411
  799SOL    HW1 6148   0.927   4.402   2.490
  799SOL    HW2 6149   0.807   4.498   2.435
  800SOL     OW 6150   1.700   4.587   2.681
  800SOL    HW1 6151   1.724   4.637   2.598
  800SOL    HW2 6152   1.675   4.652   2.753
  801SOL     OW 6153   0.236   4.019   3.305
  801SOL    HW1 6154   0.264   4.115   3.297
  801SOL    HW2 6155   0.148   4.012   3.352
  802SOL     OW 6156   0.531   3.754   1.892
  802SOL    HW1 6157   0.550   3.690   1.966
  802SOL    HW2 6158   0.569   3.843   1.913
  803SOL     OW 6159   0.907   4.271   2.847
  803SOL    HW1 6160   0.905   4.280   2.747
  803SOL    HW2 6161   0.991   4.224   2.874
  804SOL     OW 6162   1.133   4.422   3.325
  804SOL    HW1 6163   1.127   4.328   3.291
  804SOL    HW2 6164   1.225   4.440   3.358
  805SOL     OW 6165   0.542   4.835   2.564
  805SOL    HW1 6166   0.451   4.834   2.605
  805SOL    HW2 6167   0.544   4.900   2.488
  806SOL     OW 6168   0.904   4.505   1.906
  806SOL    HW1 6169   0.810   4.492   1.873
  806SOL    HW2 6170   0.908   4.482   2.004
  807SOL     OW 6171   0.053   4.314   3.317
  807SOL    HW1 6172   0.099   4.293   3.231
  807SOL    HW2 6173   0.105   4.383   3.367
  808SOL     OW 6174   1.791   4.527   2.244
  808SOL    HW1 6175   1.858   4.471   2.294
  808SOL    HW2 6176   1.794   4.503   2.147
  809SOL     OW 6177   1.806   4.836   3.397
  809SOL    HW1 6178   1.833   4.793   3.483
  809SOL    HW2 6179   1.882   4.829   3.331
  810SOL     OW 6180   1.082   4.815   3.598
  810SOL    HW1 6181   1.067   4.914   3.591
  810SOL    HW2 6182   1.073   4.774   3.508
  811SOL     OW 6183   0.725   4.725   2.219
  811SOL    HW1 6184   0.715   4.692   2.312
  811SOL    HW2 6185   0.822   4.723   2.193
  812SOL     OW 6186   1.633   4.419   2.468
  812SOL    HW1 6187   1.643   4.476   2.549
  812SOL    HW2 6188   1.666   4.468   2.388
  813SOL     OW 6189   1.567   4.637   3.638
  813SOL    HW1 6190   1.468   4.635   3.651
  813SOL    HW2 6191   1.588   4.628   3.540
  814SOL     OW 6192   0.903   3.888   3.451
  814SOL    HW1 6193   0.996   3.922   3.444
  814SOL    HW2 6194   0.878   3.878   3.547
  815SOL     OW 6195   0.585   3.748   3.560
  815SOL    HW1 6196   0.558   3.670   3.503
  815SOL    HW2 6197   0.546   3.832   3.523
  816SOL     OW 6198   0.618   4.614   2.875
  816SOL    HW1 6199   0.646   4.567   2.791
  816SOL    HW2 6200   0.648   4.710   2.871
  817SOL     OW 6201   0.964   4.465   2.166
  817SOL    HW1 6202   1.044   4.406   2.157
  817SOL    HW2 6203   0.921   4.450   2.255
  818SOL     OW 6204   0.226   3.934   3.049
  818SOL    HW1 6205   0.232   3.955   3.146
  818SOL    HW2 6206   0.267   3.844   3.032
  819SOL     OW 6207   0.774   4.429   3.026
  819SOL    HW1 6208   0.809   4.371   2.952
  819SOL    HW2 6209   0.707   4.494   2.988
  820SOL     OW 6210   1.723   4.632   3.852
  820SOL    HW1 6211   1.674   4.621   3.765
  820SOL    HW2 6212   1.658   4.656   3.924
  821SOL     OW 6213   1.735   4.234   2.275
  821SOL    HW1 6214   1.819   4.264   2.321
  821SOL    HW2 6215   1.656   4.263   2.329
  822SOL     OW 6216   1.048   4.505   2.856
  822SOL    HW1 6217   1.057   4.544   2.948
  822SOL    HW2 6218   0.998   4.419   2.861
  823SOL     OW 6219   0.379   4.524   3.668
  823SOL    HW1 6220   0.427   4.607   3.696
  823SOL    HW2 6221   0.424   4.445   3.707
  824SOL     OW 6222   0.354   4.702   2.899
  824SOL    HW1 6223   0.445   4.661   2.899
  824SOL    HW2 6224   0.300   4.665   2.975
  825SOL     OW 6225   1.167   4.002   3.377
  825SOL    HW1 6226   1.255   3.959   3.356
  825SOL    HW2 6227   1.147   4.072   3.308
  826SOL     OW 6228   4.777   0.006   2.081
  826SOL    HW1 6229   4.784   0.060   1.997
  826SOL    HW2 6230   4.825   0.054   2.155
  827SOL     OW 6231   0.997   4.546   3.124
  827SOL    HW1 6232   1.041   4.495   3.198
  827SOL    HW2 6233   0.908   4.506   3.105
  828SOL     OW 6234   0.105   4.184   3.078
  828SOL    HW1 6235   0.163   4.104   3.058
  828SOL    HW2 6236   0.017   4.173   3.033
  829SOL     OW 6237   0.164   4.259   3.653
  829SOL    HW1 6238   0.256   4.223   3.642
  829SOL    HW2 6239   0.152   4.342   3.598
  830SOL     OW 6240   1.294   4.649   3.639
  830SOL    HW1 6241   1.220   4.715   3.631
  830SOL    HW2 6242   1.311   4.607   3.550
  831SOL     OW 6243   0.823   4.163   3.122
  831SOL    HW1 6244   0.815   4.128   3.028
  831SOL    HW2 6245   0.791   4.257   3.125
  832SOL     OW 6246   0.107   4.747   3.556
  832SOL    HW1 6247   0.159   4.761   3.640
  832SOL    HW2 6248   0.070   4.834   3.525
  833SOL     OW 6249   0.070   4.081   2.601
  833SOL    HW1 6250   0.140   4.149   2.621
  833SOL    HW2 6251   0.059   4.020   2.679
  834SOL     OW 6252   0.977   4.737   2.136
  834SOL    HW1 6253   0.976   4.766   2.040
  834SOL    HW2 6254   0.993   4.639   2.141
  835SOL     OW 6255   0.715   3.943   3.263
  835SOL    HW1 6256   0.750   4.024   3.215
  835SOL    HW2 6257   0.780   3.917   3.335
  836SOL     OW 6258   0.087   4.103   1.909
  836SOL    HW1 6259   0.001   4.112   1.959
  836SOL    HW2 6260   0.090   4.168   1.833
  837SOL     OW 6261   1.357   4.576   3.386
  837SOL    HW1 6262   1.310   4.640   3.325
  837SOL    HW2 6263   1.456   4.584   3.373
  838SOL     OW 6264   1.621   4.628   3.368
  838SOL    HW1 6265   1.653   4.722   3.358
  838SOL    HW2 6266   1.700   4.567   3.371
  839SOL     OW 6267   0.861   4.635   2.706
  839SOL    HW1 6268   0.937   4.599   2.760
  839SOL    HW2 6269   0.827   4.719   2.748
  840SOL     OW 6270   0.941   4.767   1.868
  840SOL    HW1 6271   0.901   4.794   1.781
  840SOL    HW2 6272   0.940   4.668   1.876
  841SOL     OW 6273   0.116   0.054   2.462
  841SOL    HW1 6274   0.152   4.979   2.406
  841SOL    HW2 6275   0.191   0.098   2.510
  842SOL     OW 6276   1.333   3.987   2.844
  842SOL    HW1 6277   1.380   3.939   2.770
  842SOL    HW2 6278   1.329   3.928   2.925
  843SOL     OW 6279   0.784   4.981   2.127
  843SOL    HW1 6280   0.765   4.887   2.156
  843SOL    HW2 6281   0.865   0.015   2.176
  844SOL     OW 6282   1.438   3.610   2.254
  844SOL    HW1 6283   1.505   3.655   2.195
  844SOL    HW2 6284   1.346   3.626   2.218
  845SOL     OW 6285   1.672   4.019   2.756
  845SOL    HW1 6286   1.629   4.069   2.832
  845SOL    HW2 6287   1.707   4.084   2.689
  846SOL     OW 6288   0.219   4.273   3.930
  846SOL    HW1 6289   0.144   4.215   3.963
  846SOL    HW2 6290   0.209   4.287   3.831
  847SOL     OW 6291   0.033   4.030   4.364
  847SOL    HW1 6292   4.944   4.056   4.327
  847SOL    HW2 6293   0.090   3.992   4.291
  848SOL     OW 6294   1.103   4.414   4.423
  848SOL    HW1 6295   1.201   4.427   4.410
  848SOL    HW2 6296   1.082   4.412   4.521
  849SOL     OW 6297   0.804   4.898   4.711
  849SOL    HW1 6298   0.726   4.945   4.750
  849SOL    HW2 6299   0.827   4.938   4.622
  850SOL     OW 6300   0.688   4.734   4.398
  850SOL    HW1 6301   0.747   4.698   4.470
  850SOL    HW2 6302   0.632   4.809   4.434
  851SOL     OW 6303   1.529   4.215   4.458
  851SOL    HW1 6304   1.438   4.177   4.447
  851SOL    HW2 6305   1.589   4.179   4.387
  852SOL     OW 6306   0.356   4.946   4.702
  852SOL    HW1 6307   0.333   4.901   4.788
  852SOL    HW2 6308   0.309   0.034   4.696
  853SOL     OW 6309   1.739   4.697   4.312
  853SOL    HW1 6310   1.748   4.617   4.253
  853SOL    HW2 6311   1.729   4.779   4.255
  854SOL     OW 6312   1.710   4.896   4.126
  854SOL    HW1 6313   1.782   4.907   4.057
  854SOL    HW2 6314   1.684   4.985   4.162
  855SOL     OW 6315   0.781   3.779   3.973
  855SOL    HW1 6316   0.687   3.785   4.006
  855SOL    HW2 6317   0.827   3.703   4.018
  856SOL     OW 6318   0.346   4.847   4.955
  856SOL    HW1 6319   0.406   4.911   0.005
  856SOL    HW2 6320   0.297   4.790   0.020
  857SOL     OW 6321   1.531   4.721   4.028
  857SOL    HW1 6322   1.436   4.745   4.049
  857SOL    HW2 6323   1.593   4.777   4.084
  858SOL     OW 6324   0.622   4.494   3.972
  858SOL    HW1 6325   0.650   4.578   4.019
  858SOL    HW2 6326   0.547   4.451   4.022
  859SOL     OW 6327   1.237   4.236   4.693
  859SOL    HW1 6328   1.158   4.295   4.708
  859SOL    HW2 6329   1.260   4.189   4.778
  860SOL     OW 6330   0.928   4.465   4.220
  860SOL    HW1 6331   0.992   4.436   4.291
  860SOL    HW2 6332   0.896   4.386   4.168
  861SOL     OW 6333   0.769   4.053   3.927
  861SOL    HW1 6334   0.791   3.964   3.967
  861SOL    HW2 6335   0.780   4.047   3.827
  862SOL     OW 6336   1.224   0.064   4.222
  862SOL    HW1 6337   1.215   0.134   4.293
  862SOL    HW2 6338   1.296   0.091   4.158
  863SOL     OW 6339   1.779   4.781   4.562
  863SOL    HW1 6340   1.761   4.745   4.470
  863SOL    HW2 6341   1.704   4.757   4.623
  864SOL     OW 6342   0.433   4.344   4.085
  864SOL    HW1 6343   0.466   4.272   4.145
  864SOL    HW2 6344   0.350   4.312   4.038
  865SOL     OW 6345   0.799   3.846   3.704
  865SOL    HW1 6346   0.802   3.809   3.797
  865SOL    HW2 6347   0.720   3.809   3.656
  866SOL     OW 6348   0.396   4.002   4.264
  866SOL    HW1 6349   0.361   4.023   4.355
  866SOL    HW2 6350   0.477   4.058   4.246
  867SOL     OW 6351   0.527   4.930   4.494
  867SOL    HW1 6352   0.458   4.920   4.566
  867SOL    HW2 6353   0.481   4.935   4.405
  868SOL     OW 6354   0.595   4.180   4.244
  868SOL    HW1 6355   0.668   4.219   4.187
  868SOL    HW2 6356   0.615   4.198   4.340
  869SOL     OW 6357   1.788   4.525   4.097
  869SOL    HW1 6358   1.882   4.524   4.130
  869SOL    HW2 6359   1.786   4.552   4.001
  870SOL     OW 6360   0.714   4.709   4.125
  870SOL    HW1 6361   0.689   4.719   4.221
  870SOL    HW2 6362   0.813   4.691   4.118
  871SOL     OW 6363   0.576   4.271   4.514
  871SOL    HW1 6364   0.602   4.347   4.455
  871SOL    HW2 6365   0.477   4.255   4.508
  872SOL     OW 6366   1.579   4.370   4.166
  872SOL    HW1 6367   1.500   4.423   4.195
  872SOL    HW2 6368   1.651   4.431   4.135
  873SOL     OW 6369   0.757   4.380   4.697
  873SOL    HW1 6370   0.696   4.328   4.638
  873SOL    HW2 6371   0.759   4.476   4.667
  874SOL     OW 6372   1.679   4.137   4.245
  874SOL    HW1 6373   1.722   4.084   4.172
  874SOL    HW2 6374   1.639   4.220   4.206
  875SOL     OW 6375   1.030   4.419   4.693
  875SOL    HW1 6376   1.051   4.477   4.773
  875SOL    HW2 6377   0.934   4.393   4.696
  876SOL     OW 6378   1.236   3.958   0.203
  876SOL    HW1 6379   1.217   3.980   0.298
  876SOL    HW2 6380   1.168   4.004   0.144
  877SOL     OW 6381   1.098   4.558   4.920
  877SOL    HW1 6382   1.188   4.514   4.922
  877SOL    HW2 6383   1.040   4.518   4.991
  878SOL     OW 6384   0.778   4.287   4.070
  878SOL    HW1 6385   0.782   4.205   4.013
  878SOL    HW2 6386   0.730   4.359   4.021
  879SOL     OW 6387   0.789   4.267   4.947
  879SOL    HW1 6388   0.705   4.218   4.969
  879SOL    HW2 6389   0.782   4.309   4.856
  880SOL     OW 6390   0.505   4.321   3.787
  880SOL    HW1 6391   0.561   4.383   3.843
  880SOL    HW2 6392   0.481   4.240   3.841
  881SOL     OW 6393   1.287   4.833   4.056
  881SOL    HW1 6394   1.252   4.906   4.115
  881SOL    HW2 6395   1.215   4.805   3.993
  882SOL     OW 6396   0.273   4.061   4.497
  882SOL    HW1 6397   0.180   4.065   4.460
  882SOL    HW2 6398   0.275   4.000   4.576
  883SOL     OW 6399   0.740   4.809   0.016
  883SOL    HW1 6400   0.746   4.808   4.916
  883SOL    HW2 6401   0.816   4.862   0.053
  884SOL     OW 6402   0.989   4.703   4.105
  884SOL    HW1 6403   1.034   4.695   4.016
  884SOL    HW2 6404   0.982   4.612   4.147
  885SOL     OW 6405   1.027   4.892   4.308
  885SOL    HW1 6406   1.017   4.818   4.242
  885SOL    HW2 6407   1.102   4.952   4.280
  886SOL     OW 6408   0.012   4.109   3.975
  886SOL    HW1 6409   4.946   4.094   4.049
  886SOL    HW2 6410   4.970   4.088   3.887
  887SOL     OW 6411   0.165   3.943   4.143
  887SOL    HW1 6412   0.143   4.005   4.068
  887SOL    HW2 6413   0.259   3.959   4.173
  888SOL     OW 6414   0.683   4.462   4.357
  888SOL    HW1 6415   0.659   4.559   4.370
  888SOL    HW2 6416   0.768   4.456   4.304
  889SOL     OW 6417   0.830   4.640   4.616
  889SOL    HW1 6418   0.926   4.617   4.604
  889SOL    HW2 6419   0.822   4.729   4.661
  890SOL     OW 6420   1.117   4.717   3.862
  890SOL    HW1 6421   1.076   4.758   3.781
  890SOL    HW2 6422   1.189   4.654   3.835
  891SOL     OW 6423   1.357   4.122   4.909
  891SOL    HW1 6424   1.388   4.029   4.924
  891SOL    HW2 6425   1.363   4.174   4.994
  892SOL     OW 6426   0.806   4.945   4.026
  892SOL    HW1 6427   0.762   4.860   4.053
  892SOL    HW2 6428   0.905   4.934   4.029
  893SOL     OW 6429   1.277   4.136   4.448
  893SOL    HW1 6430   1.199   4.167   4.393
  893SOL    HW2 6431   1.265   4.165   4.543
  894SOL     OW 6432   1.526   4.059   4.687
  894SOL    HW1 6433   1.465   4.104   4.752
  894SOL    HW2 6434   1.541   4.119   4.609
  895SOL     OW 6435   2.056   0.444   0.118
  895SOL    HW1 6436   1.993   0.449   0.196
  895SOL    HW2 6437   2.040   0.521   0.057
  896SOL     OW 6438   1.943   0.315   0.967
  896SOL    HW1 6439   1.950   0.255   0.887
  896SOL    HW2 6440   1.880   0.274   1.034
  897SOL     OW 6441   2.452   1.291   0.928
  897SOL    HW1 6442   2.363   1.281   0.882
  897SOL    HW2 6443   2.438   1.291   1.027
  898SOL     OW 6444   3.644   0.537   0.148
  898SOL    HW1 6445   3.632   0.634   0.132
  898SOL    HW2 6446   3.591   0.509   0.228
  899SOL     OW 6447   2.706   1.127   1.114
  899SOL    HW1 6448   2.610   1.131   1.141
  899SOL    HW2 6449   2.730   1.209   1.062
  900SOL     OW 6450   2.834   0.752   1.832
  900SOL    HW1 6451   2.932   0.751   1.852
  900SOL    HW2 6452   2.816   0.818   1.759
  901SOL     OW 6453   2.094   1.831   0.405
  901SOL    HW1 6454   2.146   1.748   0.425
  901SOL    HW2 6455   2.079   1.838   0.306
  902SOL     OW 6456   3.060   1.363   1.476
  902SOL    HW1 6457   3.098   1.403   1.558
  902SOL    HW2 6458   3.064   1.263   1.482
  903SOL     OW 6459   2.189   1.229   0.832
  903SOL    HW1 6460   2.170   1.132   0.821
  903SOL    HW2 6461   2.142   1.264   0.913
  904SOL     OW 6462   3.785   1.725   0.355
  904SOL    HW1 6463   3.839   1.716   0.439
  904SOL    HW2 6464   3.688   1.734   0.378
  905SOL     OW 6465   1.871   1.480   0.198
  905SOL    HW1 6466   1.797   1.447   0.256
  905SOL    HW2 6467   1.851   1.574   0.169
  906SOL     OW 6468   2.645   1.238   0.708
  906SOL    HW1 6469   2.564   1.236   0.767
  906SOL    HW2 6470   2.708   1.165   0.736
  907SOL     OW 6471   2.738   0.007   0.581
  907SOL    HW1 6472   2.799   0.056   0.518
  907SOL    HW2 6473   2.643   0.026   0.557
  908SOL     OW 6474   1.992   0.996   1.182
  908SOL    HW1 6475   1.987   1.079   1.238
  908SOL    HW2 6476   1.963   1.017   1.089
  909SOL     OW 6477   3.119   1.944   1.540
  909SOL    HW1 6478   3.036   1.979   1.497
  909SOL    HW2 6479   3.113   1.845   1.547
  910SOL     OW 6480   2.336   0.341   1.751
  910SOL    HW1 6481   2.356   0.403   1.675
  910SOL    HW2 6482   2.237   0.334   1.764
  911SOL     OW 6483   3.517   1.781   0.348
  911SOL    HW1 6484   3.518   1.809   0.252
  911SOL    HW2 6485   3.428   1.804   0.388
  912SOL     OW 6486   2.703   0.625   1.371
  912SOL    HW1 6487   2.692   0.618   1.470
  912SOL    HW2 6488   2.649   0.553   1.326
  913SOL     OW 6489   2.860   0.926   1.625
  913SOL    HW1 6490   2.909   0.848   1.588
  913SOL    HW2 6491   2.829   0.986   1.551
  914SOL     OW 6492   2.961   0.491   1.358
  914SOL    HW1 6493   2.907   0.413   1.390
  914SOL    HW2 6494   2.907   0.544   1.293
  915SOL     OW 6495   1.882   0.818   0.811
  915SOL    HW1 6496   1.886   0.733   0.865
  915SOL    HW2 6497   1.918   0.893   0.866
  916SOL     OW 6498   1.912   1.912   1.588
  916SOL    HW1 6499   1.941   1.916   1.684
  916SOL    HW2 6500   1.880   2.002   1.559
  917SOL     OW 6501   3.644   0.604   1.866
  917SOL    HW1 6502   3.582   0.679   1.843
  917SOL    HW2 6503   3.661   0.548   1.785
  918SOL     OW 6504   2.919   1.408   0.347
  918SOL    HW1 6505   2.899   1.501   0.315
  918SOL    HW2 6506   2.887   1.398   0.441
  919SOL     OW 6507   3.757   1.092   0.977
  919SOL    HW1 6508   3.706   1.145   0.909
  919SOL    HW2 6509   3.694   1.054   1.044
  920SOL     OW 6510   3.069   1.677   1.538
  920SOL    HW1 6511   3.097   1.603   1.600
  920SOL    HW2 6512   2.996   1.646   1.478
  921SOL     OW 6513   3.131   1.818   0.177
  921SOL    HW1 6514   3.057   1.819   0.244
  921SOL    HW2 6515   3.113   1.747   0.109
  922SOL     OW 6516   3.389   0.181   0.553
  922SOL    HW1 6517   3.362   0.144   0.464
  922SOL    HW2 6518   3.482   0.216   0.548
  923SOL     OW 6519   1.962   1.725   1.389
  923SOL    HW1 6520   1.946   1.786   1.467
  923SOL    HW2 6521   2.033   1.764   1.331
  924SOL     OW 6522   2.698   0.320   1.702
  924SOL    HW1 6523   2.770   0.251   1.691
  924SOL    HW2 6524   2.643   0.298   1.782
  925SOL     OW 6525   2.694   1.434   1.221
  925SOL    HW1 6526   2.719   1.426   1.125
  925SOL    HW2 6527   2.766   1.481   1.271
  926SOL     OW 6528   3.215   0.550   1.674
  926SOL    HW1 6529   3.219   0.517   1.768
  926SOL    HW2 6530   3.274   0.630   1.664
  927SOL     OW 6531   2.714   1.356   0.958
  927SOL    HW1 6532   2.765   1.331   0.875
  927SOL    HW2 6533   2.616   1.350   0.940
  928SOL     OW 6534   2.488   0.046   0.487
  928SOL    HW1 6535   2.421   0.001   0.546
  928SOL    HW2 6536   2.457   0.139   0.466
  929SOL     OW 6537   2.858   0.168   0.391
  929SOL    HW1 6538   2.848   0.162   0.291
  929SOL    HW2 6539   2.955   0.184   0.414
  930SOL     OW 6540   2.990   0.704   1.531
  930SOL    HW1 6541   2.968   0.620   1.481
  930SOL    HW2 6542   3.072   0.688   1.587
  931SOL     OW 6543   2.033   0.736   1.132
  931SOL    HW1 6544   2.105   0.704   1.193
  931SOL    HW2 6545   2.011   0.831   1.152
  932SOL     OW 6546   2.635   0.145   1.200
  932SOL    HW1 6547   2.641   0.082   1.277
  932SOL    HW2 6548   2.674   0.102   1.119
  933SOL     OW 6549   2.847   0.403   0.522
  933SOL    HW1 6550   2.767   0.463   0.521
  933SOL    HW2 6551   2.824   0.317   0.475
  934SOL     OW 6552   2.891   4.901   0.787
  934SOL    HW1 6553   2.840   4.948   0.715
  934SOL    HW2 6554   2.868   4.804   0.786
  935SOL     OW 6555   3.638   1.245   0.784
  935SOL    HW1 6556   3.721   1.229   0.731
  935SOL    HW2 6557   3.584   1.317   0.740
  936SOL     OW 6558   3.246   0.694   0.213
  936SOL    HW1 6559   3.203   0.726   0.298
  936SOL    HW2 6560   3.245   0.594   0.211
  937SOL     OW 6561   3.404   1.174   1.639
  937SOL    HW1 6562   3.477   1.242   1.635
  937SOL    HW2 6563   3.376   1.161   1.735
  938SOL     OW 6564   2.914   1.552   1.342
  938SOL    HW1 6565   2.964   1.475   1.382
  938SOL    HW2 6566   2.975   1.601   1.280
  939SOL     OW 6567   3.546   1.026   1.137
  939SOL    HW1 6568   3.536   1.027   1.237
  939SOL    HW2 6569   3.488   1.098   1.098
  940SOL     OW 6570   2.682   0.063   1.487
  940SOL    HW1 6571   2.743   0.047   1.564
  940SOL    HW2 6572   2.703   0.152   1.445
  941SOL     OW 6573   3.231   0.512   1.401
  941SOL    HW1 6574   3.234   0.510   1.501
  941SOL    HW2 6575   3.137   0.498   1.370
  942SOL     OW 6576   1.864   1.483   1.317
  942SOL    HW1 6577   1.764   1.480   1.314
  942SOL    HW2 6578   1.894   1.578   1.325
  943SOL     OW 6579   3.012   1.126   0.373
  943SOL    HW1 6580   2.995   1.107   0.470
  943SOL    HW2 6581   2.985   1.220   0.353
  944SOL     OW 6582   2.236   1.327   1.383
  944SOL    HW1 6583   2.245   1.404   1.446
  944SOL    HW2 6584   2.308   1.333   1.313
  945SOL     OW 6585   2.867   0.100   1.689
  945SOL    HW1 6586   2.942   0.166   1.698
  945SOL    HW2 6587   2.892   0.015   1.735
  946SOL     OW 6588   2.478   0.092   1.699
  946SOL    HW1 6589   2.525   0.085   1.610
  946SOL    HW2 6590   2.407   0.161   1.694
  947SOL     OW 6591   3.125   0.866   0.906
  947SOL    HW1 6592   3.039   0.873   0.957
  947SOL    HW2 6593   3.200   0.846   0.970
  948SOL     OW 6594   1.990   1.244   1.310
  948SOL    HW1 6595   2.082   1.262   1.344
  948SOL    HW2 6596   1.935   1.327   1.315
  949SOL     OW 6597   3.488   0.437   0.357
  949SOL    HW1 6598   3.537   0.362   0.402
  949SOL    HW2 6599   3.437   0.489   0.425
  950SOL     OW 6600   2.221   0.662   1.884
  950SOL    HW1 6601   2.215   0.719   1.802
  950SOL    HW2 6602   2.313   0.622   1.889
  951SOL     OW 6603   3.320   0.425   0.147
  951SOL    HW1 6604   3.385   0.422   0.224
  951SOL    HW2 6605   3.371   0.433   0.061
  952SOL     OW 6606   3.151   0.851   0.020
  952SOL    HW1 6607   3.189   0.794   0.093
  952SOL    HW2 6608   3.219   0.863   4.948
  953SOL     OW 6609   3.015   0.331   1.714
  953SOL    HW1 6610   2.963   0.383   1.781
  953SOL    HW2 6611   3.086   0.390   1.673
  954SOL     OW 6612   1.783   1.180   0.280
  954SOL    HW1 6613   1.703   1.232   0.249
  954SOL    HW2 6614   1.831   1.143   0.201
  955SOL     OW 6615   2.890   0.792   1.277
  955SOL    HW1 6616   2.960   0.782   1.349
  955SOL    HW2 6617   2.809   0.739   1.303
  956SOL     OW 6618   1.888   0.582   0.962
  956SOL    HW1 6619   1.923   0.488   0.958
  956SOL    HW2 6620   1.940   0.634   1.028
  957SOL     OW 6621   3.208   0.857   1.657
  957SOL    HW1 6622   3.166   0.947   1.653
  957SOL    HW2 6623   3.248   0.835   1.568
  958SOL     OW 6624   3.429   0.629   1.259
  958SOL    HW1 6625   3.366   0.565   1.302
  958SOL    HW2 6626   3.505   0.579   1.218
  959SOL     OW 6627   2.133   1.500   1.665
  959SOL    HW1 6628   2.168   1.594   1.664
  959SOL    HW2 6629   2.155   1.457   1.752
  960SOL     OW 6630   2.591   0.409   1.239
  960SOL    HW1 6631   2.604   0.312   1.218
  960SOL    HW2 6632   2.534   0.450   1.167
  961SOL     OW 6633   2.311   0.440   0.231
  961SOL    HW1 6634   2.377   0.475   0.165
  961SOL    HW2 6635   2.220   0.440   0.189
  962SOL     OW 6636   3.123   0.846   0.417
  962SOL    HW1 6637   3.107   0.861   0.514
  962SOL    HW2 6638   3.095   0.928   0.366
  963SOL     OW 6639   2.038   1.293   1.042
  963SOL    HW1 6640   2.023   1.283   1.140
  963SOL    HW2 6641   1.975   1.361   1.005
  964SOL     OW 6642   2.896   0.176   0.121
  964SOL    HW1 6643   2.884   0.168   0.022
  964SOL    HW2 6644   2.991   0.199   0.142
  965SOL     OW 6645   3.649   0.252   0.489
  965SOL    HW1 6646   3.701   0.274   0.407
  965SOL    HW2 6647   3.680   0.164   0.525
  966SOL     OW 6648   1.972   1.938   1.856
  966SOL    HW1 6649   1.944   1.860   1.913
  966SOL    HW2 6650   2.053   1.981   1.896
  967SOL     OW 6651   3.090   0.984   0.666
  967SOL    HW1 6652   3.101   0.931   0.750
  967SOL    HW2 6653   3.171   1.041   0.652
  968SOL     OW 6654   3.628   0.182   0.935
  968SOL    HW1 6655   3.676   0.238   0.867
  968SOL    HW2 6656   3.543   0.147   0.895
  969SOL     OW 6657   3.024   1.625   0.023
  969SOL    HW1 6658   3.014   1.527   0.042
  969SOL    HW2 6659   3.055   1.638   4.929
  970SOL     OW 6660   2.801   1.034   1.377
  970SOL    HW1 6661   2.835   0.950   1.334
  970SOL    HW2 6662   2.773   1.098   1.305
  971SOL     OW 6663   3.455   1.049   1.393
  971SOL    HW1 6664   3.437   1.104   1.474
  971SOL    HW2 6665   3.404   0.963   1.398
  972SOL     OW 6666   2.859   1.080   0.798
  972SOL    HW1 6667   2.859   1.019   0.877
  972SOL    HW2 6668   2.935   1.055   0.737
  973SOL     OW 6669   2.014   1.273   0.381
  973SOL    HW1 6670   1.928   1.234   0.349
  973SOL    HW2 6671   2.039   1.352   0.324
  974SOL     OW 6672   2.760   0.320   1.433
  974SOL    HW1 6673   2.694   0.361   1.370
  974SOL    HW2 6674   2.733   0.340   1.527
  975SOL     OW 6675   3.300   0.823   1.407
  975SOL    HW1 6676   3.234   0.865   1.345
  975SOL    HW2 6677   3.348   0.749   1.360
  976SOL     OW 6678   2.988   1.366   0.085
  976SOL    HW1 6679   2.991   1.267   0.068
  976SOL    HW2 6680   2.963   1.382   0.181
  977SOL     OW 6681   3.306   1.785   1.044
  977SOL    HW1 6682   3.369   1.860   1.060
  977SOL    HW2 6683   3.318   1.750   0.951
  978SOL     OW 6684   2.684   0.585   1.639
  978SOL    HW1 6685   2.716   0.646   1.711
  978SOL    HW2 6686   2.689   0.490   1.671
  979SOL     OW 6687   3.133   1.119   1.608
  979SOL    HW1 6688   3.091   1.128   1.698
  979SOL    HW2 6689   3.229   1.149   1.613
  980SOL     OW 6690   3.347   0.834   1.099
  980SOL    HW1 6691   3.371   0.748   1.144
  980SOL    HW2 6692   3.426   0.895   1.100
  981SOL     OW 6693   3.100   0.308   0.491
  981SOL    HW1 6694   3.157   0.290   0.571
  981SOL    HW2 6695   3.018   0.358   0.518
  982SOL     OW 6696   2.871   0.922   1.035
  982SOL    HW1 6697   2.885   0.861   1.113
  982SOL    HW2 6698   2.808   0.995   1.060
  983SOL     OW 6699   3.010   1.105   0.047
  983SOL    HW1 6700   2.949   1.038   0.004
  983SOL    HW2 6701   3.044   1.068   0.134
  984SOL     OW 6702   2.175   1.360   1.900
  984SOL    HW1 6703   2.235   1.284   1.877
  984SOL    HW2 6704   2.081   1.328   1.907
  985SOL     OW 6705   1.967   1.270   0.652
  985SOL    HW1 6706   2.050   1.271   0.707
  985SOL    HW2 6707   1.992   1.267   0.555
  986SOL     OW 6708   2.408   0.301   0.441
  986SOL    HW1 6709   2.375   0.344   0.357
  986SOL    HW2 6710   2.401   0.367   0.516
  987SOL     OW 6711   2.823   1.402   0.598
  987SOL    HW1 6712   2.814   1.488   0.648
  987SOL    HW2 6713   2.752   1.339   0.628
  988SOL     OW 6714   2.471   1.285   1.222
  988SOL    HW1 6715   2.477   1.233   1.307
  988SOL    HW2 6716   2.547   1.351   1.218
  989SOL     OW 6717   3.369   0.102   0.285
  989SOL    HW1 6718   3.410   0.100   0.194
  989SOL    HW2 6719   3.275   0.134   0.279
  990SOL     OW 6720   3.415   0.080   0.805
  990SOL    HW1 6721   3.345   0.012   0.826
  990SOL    HW2 6722   3.399   0.118   0.714
  991SOL     OW 6723   2.861   1.656   0.238
  991SOL    HW1 6724   2.915   1.652   0.154
  991SOL    HW2 6725   2.772   1.697   0.218
  992SOL     OW 6726   1.998   0.514   1.969
  992SOL    HW1 6727   1.993   0.498   2.068
  992SOL    HW2 6728   2.076   0.573   1.949
  993SOL     OW 6729   2.143   0.091   2.882
  993SOL    HW1 6730   2.213   0.138   2.829
  993SOL    HW2 6731   2.076   0.157   2.915
  994SOL     OW 6732   2.000   0.441   2.506
  994SOL    HW1 6733   1.999   0.352   2.551
  994SOL    HW2 6734   1.980   0.430   2.409
  995SOL     OW 6735   2.461   1.363   2.988
  995SOL    HW1 6736   2.362   1.349   2.991
  995SOL    HW2 6737   2.484   1.450   3.033
  996SOL     OW 6738   3.009   0.677   2.514
  996SOL    HW1 6739   3.099   0.705   2.546
  996SOL    HW2 6740   2.953   0.647   2.591
  997SOL     OW 6741   3.560   0.504   2.103
  997SOL    HW1 6742   3.596   0.545   2.020
  997SOL    HW2 6743   3.497   0.430   2.079
  998SOL     OW 6744   2.612   1.147   2.918
  998SOL    HW1 6745   2.545   1.213   2.951
  998SOL    HW2 6746   2.681   1.194   2.863
  999SOL     OW 6747   2.720   0.694   3.910
  999SOL    HW1 6748   2.766   0.779   3.937
  999SOL    HW2 6749   2.719   0.686   3.811
 1000SOL     OW 6750   2.188   1.351   2.967
 1000SOL    HW1 6751   2.104   1.299   2.951
 1000SOL    HW2 6752   2.218   1.395   2.882
 1001SOL     OW 6753   2.217   0.296   3.426
 1001SOL    HW1 6754   2.299   0.247   3.398
 1001SOL    HW2 6755   2.173   0.248   3.501
 1002SOL     OW 6756   2.076   1.726   2.349
 1002SOL    HW1 6757   2.025   1.805   2.385
 1002SOL    HW2 6758   2.158   1.758   2.302
 1003SOL     OW 6759   3.179   1.364   3.544
 1003SOL    HW1 6760   3.262   1.419   3.554
 1003SOL    HW2 6761   3.110   1.396   3.610
 1004SOL     OW 6762   2.172   1.472   2.382
 1004SOL    HW1 6763   2.126   1.561   2.380
 1004SOL    HW2 6764   2.136   1.417   2.457
 1005SOL     OW 6765   2.116   1.111   2.766
 1005SOL    HW1 6766   2.107   1.011   2.761
 1005SOL    HW2 6767   2.051   1.147   2.833
 1006SOL     OW 6768   2.695   0.755   2.077
 1006SOL    HW1 6769   2.728   0.760   1.982
 1006SOL    HW2 6770   2.772   0.765   2.139
 1007SOL     OW 6771   3.337   0.127   3.523
 1007SOL    HW1 6772   3.244   0.142   3.489
 1007SOL    HW2 6773   3.365   0.205   3.578
 1008SOL     OW 6774   3.868   1.688   2.240
 1008SOL    HW1 6775   3.817   1.711   2.323
 1008SOL    HW2 6776   3.912   1.771   2.204
 1009SOL     OW 6777   3.476   0.840   2.526
 1009SOL    HW1 6778   3.505   0.766   2.465
 1009SOL    HW2 6779   3.454   0.921   2.471
 1010SOL     OW 6780   3.427   1.050   2.355
 1010SOL    HW1 6781   3.481   1.072   2.274
 1010SOL    HW2 6782   3.397   1.134   2.399
 1011SOL     OW 6783   1.780   0.857   3.486
 1011SOL    HW1 6784   1.747   0.873   3.579
 1011SOL    HW2 6785   1.796   0.944   3.440
 1012SOL     OW 6786   2.497   1.365   2.593
 1012SOL    HW1 6787   2.456   1.277   2.619
 1012SOL    HW2 6788   2.479   1.381   2.495
 1013SOL     OW 6789   3.077   1.160   3.408
 1013SOL    HW1 6790   3.144   1.087   3.395
 1013SOL    HW2 6791   3.120   1.236   3.456
 1014SOL     OW 6792   2.596   0.179   2.445
 1014SOL    HW1 6793   2.657   0.168   2.367
 1014SOL    HW2 6794   2.516   0.232   2.418
 1015SOL     OW 6795   3.270   1.002   2.112
 1015SOL    HW1 6796   3.176   0.969   2.107
 1015SOL    HW2 6797   3.306   0.988   2.204
 1016SOL     OW 6798   2.130   0.201   3.671
 1016SOL    HW1 6799   2.148   0.295   3.701
 1016SOL    HW2 6800   2.060   0.160   3.730
 1017SOL     OW 6801   3.779   1.810   2.472
 1017SOL    HW1 6802   3.696   1.864   2.457
 1017SOL    HW2 6803   3.791   1.796   2.571
 1018SOL     OW 6804   2.487   0.728   2.257
 1018SOL    HW1 6805   2.554   0.750   2.186
 1018SOL    HW2 6806   2.397   0.715   2.216
 1019SOL     OW 6807   3.101   0.404   2.754
 1019SOL    HW1 6808   3.015   0.455   2.756
 1019SOL    HW2 6809   3.102   0.337   2.829
 1020SOL     OW 6810   3.339   0.536   3.586
 1020SOL    HW1 6811   3.388   0.618   3.614
 1020SOL    HW2 6812   3.377   0.457   3.634
 1021SOL     OW 6813   2.921   0.496   3.047
 1021SOL    HW1 6814   2.868   0.579   3.033
 1021SOL    HW2 6815   2.883   0.422   2.991
 1022SOL     OW 6816   2.901   0.709   2.269
 1022SOL    HW1 6817   2.948   0.717   2.357
 1022SOL    HW2 6818   2.820   0.651   2.280
 1023SOL     OW 6819   1.841   0.828   2.745
 1023SOL    HW1 6820   1.939   0.826   2.730
 1023SOL    HW2 6821   1.820   0.794   2.837
 1024SOL     OW 6822   2.680   0.419   2.050
 1024SOL    HW1 6823   2.757   0.446   1.993
 1024SOL    HW2 6824   2.631   0.343   2.007
 1025SOL     OW 6825   2.314   0.222   2.710
 1025SOL    HW1 6826   2.388   0.162   2.680
 1025SOL    HW2 6827   2.345   0.317   2.711
 1026SOL     OW 6828   2.912   1.480   2.385
 1026SOL    HW1 6829   2.852   1.559   2.375
 1026SOL    HW2 6830   2.869   1.414   2.447
 1027SOL     OW 6831   3.651   0.847   2.749
 1027SOL    HW1 6832   3.583   0.858   2.677
 1027SOL    HW2 6833   3.692   0.756   2.742
 1028SOL     OW 6834   3.252   0.714   2.611
 1028SOL    HW1 6835   3.257   0.685   2.707
 1028SOL    HW2 6836   3.334   0.766   2.587
 1029SOL     OW 6837   2.297   1.771   2.190
 1029SOL    HW1 6838   2.384   1.781   2.237
 1029SOL    HW2 6839   2.289   1.679   2.152
 1030SOL     OW 6840   3.213   0.093   2.271
 1030SOL    HW1 6841   3.247   0.067   2.180
 1030SOL    HW2 6842   3.268   0.168   2.306
 1031SOL     OW 6843   2.186   1.674   2.914
 1031SOL    HW1 6844   2.162   1.699   3.008
 1031SOL    HW2 6845   2.108   1.630   2.870
 1032SOL     OW 6846   2.939   1.636   2.695
 1032SOL    HW1 6847   3.020   1.590   2.657
 1032SOL    HW2 6848   2.857   1.587   2.668
 1033SOL     OW 6849   3.387   0.311   3.727
 1033SOL    HW1 6850   3.430   0.241   3.785
 1033SOL    HW2 6851   3.288   0.302   3.733
 1034SOL     OW 6852   2.578   0.211   1.923
 1034SOL    HW1 6853   2.614   0.138   1.982
 1034SOL    HW2 6854   2.522   0.170   1.851
 1035SOL     OW 6855   2.818   1.500   3.091
 1035SOL    HW1 6856   2.786   1.461   3.004
 1035SOL    HW2 6857   2.867   1.429   3.143
 1036SOL     OW 6858   3.275   0.506   3.325
 1036SOL    HW1 6859   3.298   0.503   3.422
 1036SOL    HW2 6860   3.307   0.591   3.285
 1037SOL     OW 6861   2.706   1.416   2.862
 1037SOL    HW1 6862   2.710   1.461   2.773
 1037SOL    HW2 6863   2.611   1.405   2.890
 1038SOL     OW 6864   2.655   0.403   2.778
 1038SOL    HW1 6865   2.681   0.398   2.681
 1038SOL    HW2 6866   2.722   0.355   2.833
 1039SOL     OW 6867   3.300   1.159   1.889
 1039SOL    HW1 6868   3.290   1.091   1.961
 1039SOL    HW2 6869   3.224   1.224   1.893
 1040SOL     OW 6870   2.763   0.223   2.229
 1040SOL    HW1 6871   2.733   0.301   2.174
 1040SOL    HW2 6872   2.856   0.238   2.260
 1041SOL     OW 6873   2.364   1.136   2.648
 1041SOL    HW1 6874   2.275   1.134   2.694
 1041SOL    HW2 6875   2.373   1.055   2.590
 1042SOL     OW 6876   2.890   0.491   1.899
 1042SOL    HW1 6877   2.867   0.583   1.868
 1042SOL    HW2 6878   2.949   0.497   1.980
 1043SOL     OW 6879   1.788   0.694   3.269
 1043SOL    HW1 6880   1.795   0.599   3.299
 1043SOL    HW2 6881   1.785   0.754   3.349
 1044SOL     OW 6882   2.735   0.400   2.525
 1044SOL    HW1 6883   2.729   0.459   2.445
 1044SOL    HW2 6884   2.699   0.309   2.502
 1045SOL     OW 6885   3.250   0.604   2.859
 1045SOL    HW1 6886   3.194   0.533   2.817
 1045SOL    HW2 6887   3.295   0.566   2.940
 1046SOL     OW 6888   2.254   1.512   2.119
 1046SOL    HW1 6889   2.208   1.480   2.202
 1046SOL    HW2 6890   2.219   1.462   2.040
 1047SOL     OW 6891   3.225   0.498   1.943
 1047SOL    HW1 6892   3.156   0.502   2.015
 1047SOL    HW2 6893   3.293   0.428   1.966
 1048SOL     OW 6894   2.924   1.305   3.239
 1048SOL    HW1 6895   2.843   1.247   3.247
 1048SOL    HW2 6896   3.001   1.260   3.283
 1049SOL     OW 6897   3.418   1.489   3.570
 1049SOL    HW1 6898   3.512   1.462   3.546
 1049SOL    HW2 6899   3.421   1.573   3.623
 1050SOL     OW 6900   3.697   0.972   2.993
 1050SOL    HW1 6901   3.677   0.920   2.910
 1050SOL    HW2 6902   3.670   1.067   2.980
 1051SOL     OW 6903   2.845   1.157   3.561
 1051SOL    HW1 6904   2.857   1.158   3.660
 1051SOL    HW2 6905   2.935   1.160   3.517
 1052SOL     OW 6906   3.088   0.348   3.211
 1052SOL    HW1 6907   3.161   0.403   3.252
 1052SOL    HW2 6908   3.023   0.409   3.166
 1053SOL     OW 6909   1.807   1.582   3.149
 1053SOL    HW1 6910   1.766   1.548   3.064
 1053SOL    HW2 6911   1.906   1.571   3.146
 1054SOL     OW 6912   2.413   0.480   2.690
 1054SOL    HW1 6913   2.433   0.561   2.635
 1054SOL    HW2 6914   2.494   0.453   2.741
 1055SOL     OW 6915   2.999   1.427   2.133
 1055SOL    HW1 6916   3.081   1.485   2.133
 1055SOL    HW2 6917   2.954   1.434   2.223
 1056SOL     OW 6918   2.065   1.508   3.151
 1056SOL    HW1 6919   2.121   1.458   3.085
 1056SOL    HW2 6920   2.121   1.578   3.196
 1057SOL     OW 6921   3.460   0.770   3.673
 1057SOL    HW1 6922   3.377   0.805   3.718
 1057SOL    HW2 6923   3.478   0.824   3.591
 1058SOL     OW 6924   2.845   0.048   3.552
 1058SOL    HW1 6925   2.928   0.089   3.515
 1058SOL    HW2 6926   2.860   4.950   3.566
 1059SOL     OW 6927   2.307   0.016   3.553
 1059SOL    HW1 6928   2.272   4.923   3.562
 1059SOL    HW2 6929   2.249   0.078   3.604
 1060SOL     OW 6930   2.370   0.920   2.836
 1060SOL    HW1 6931   2.405   1.011   2.814
 1060SOL    HW2 6932   2.403   0.893   2.926
 1061SOL     OW 6933   3.028   0.506   2.131
 1061SOL    HW1 6934   3.027   0.422   2.186
 1061SOL    HW2 6935   2.994   0.582   2.186
 1062SOL     OW 6936   1.894   1.294   3.197
 1062SOL    HW1 6937   1.800   1.327   3.185
 1062SOL    HW2 6938   1.957   1.372   3.196
 1063SOL     OW 6939   2.583   0.751   2.760
 1063SOL    HW1 6940   2.563   0.729   2.664
 1063SOL    HW2 6941   2.511   0.809   2.796
 1064SOL     OW 6942   3.664   0.926   3.782
 1064SOL    HW1 6943   3.598   0.863   3.742
 1064SOL    HW2 6944   3.644   0.938   3.880
 1065SOL     OW 6945   2.043   0.200   2.630
 1065SOL    HW1 6946   2.139   0.222   2.648
 1065SOL    HW2 6947   2.028   0.103   2.648
 1066SOL     OW 6948   3.349   0.325   2.331
 1066SOL    HW1 6949   3.442   0.352   2.353
 1066SOL    HW2 6950   3.285   0.373   2.390
 1067SOL     OW 6951   2.886   0.583   2.744
 1067SOL    HW1 6952   2.872   0.643   2.823
 1067SOL    HW2 6953   2.800   0.537   2.722
 1068SOL     OW 6954   2.888   1.470   3.455
 1068SOL    HW1 6955   2.857   1.558   3.419
 1068SOL    HW2 6956   2.905   1.407   3.379
 1069SOL     OW 6957   3.377   0.300   2.059
 1069SOL    HW1 6958   3.364   0.204   2.032
 1069SOL    HW2 6959   3.363   0.309   2.157
 1070SOL     OW 6960   3.103   0.741   1.881
 1070SOL    HW1 6961   3.157   0.659   1.904
 1070SOL    HW2 6962   3.145   0.787   1.803
 1071SOL     OW 6963   2.124   0.832   2.759
 1071SOL    HW1 6964   2.213   0.859   2.796
 1071SOL    HW2 6965   2.134   0.751   2.701
 1072SOL     OW 6966   3.124   0.366   3.657
 1072SOL    HW1 6967   3.047   0.396   3.713
 1072SOL    HW2 6968   3.177   0.446   3.628
 1073SOL     OW 6969   3.077   0.193   3.451
 1073SOL    HW1 6970   3.083   0.260   3.525
 1073SOL    HW2 6971   3.071   0.241   3.364
 1074SOL     OW 6972   2.291   1.472   2.746
 1074SOL    HW1 6973   2.292   1.561   2.793
 1074SOL    HW2 6974   2.381   1.456   2.704
 1075SOL     OW 6975   2.761   0.714   2.967
 1075SOL    HW1 6976   2.764   0.801   3.016
 1075SOL    HW2 6977   2.696   0.721   2.891
 1076SOL     OW 6978   1.829   0.783   3.013
 1076SOL    HW1 6979   1.928   0.799   3.016
 1076SOL    HW2 6980   1.798   0.750   3.102
 1077SOL     OW 6981   2.156   0.541   3.525
 1077SOL    HW1 6982   2.182   0.456   3.480
 1077SOL    HW2 6983   2.172   0.618   3.464
 1078SOL     OW 6984   2.688   0.542   2.294
 1078SOL    HW1 6985   2.683   0.498   2.205
 1078SOL    HW2 6986   2.608   0.600   2.308
 1079SOL     OW 6987   2.075   1.591   3.510
 1079SOL    HW1 6988   2.096   1.630   3.599
 1079SOL    HW2 6989   2.109   1.497   3.506
 1080SOL     OW 6990   2.813   1.694   3.286
 1080SOL    HW1 6991   2.818   1.625   3.214
 1080SOL    HW2 6992   2.854   1.780   3.253
 1081SOL     OW 6993   2.462   0.541   1.902
 1081SOL    HW1 6994   2.538   0.525   1.964
 1081SOL    HW2 6995   2.431   0.454   1.864
 1082SOL     OW 6996   1.789   1.082   3.333
 1082SOL    HW1 6997   1.848   1.149   3.287
 1082SOL    HW2 6998   1.725   1.043   3.267
 1083SOL     OW 6999   3.019   0.891   2.086
 1083SOL    HW1 7000   2.979   0.839   2.161
 1083SOL    HW2 7001   3.055   0.827   2.017
 1084SOL     OW 7002   1.940   1.224   2.940
 1084SOL    HW1 7003   1.929   1.233   3.039
 1084SOL    HW2 7004   1.869   1.163   2.904
 1085SOL     OW 7005   3.140   1.530   2.535
 1085SOL    HW1 7006   3.193   1.609   2.503
 1085SOL    HW2 7007   3.070   1.508   2.467
 1086SOL     OW 7008   2.727   1.138   3.314
 1086SOL    HW1 7009   2.767   1.137   3.405
 1086SOL    HW2 7010   2.632   1.167   3.320
 1087SOL     OW 7011   3.680   1.732   2.952
 1087SOL    HW1 7012   3.647   1.814   2.905
 1087SOL    HW2 7013   3.610   1.700   3.016
 1088SOL     OW 7014   2.181   0.613   2.609
 1088SOL    HW1 7015   2.107   0.559   2.569
 1088SOL    HW2 7016   2.244   0.553   2.657
 1089SOL     OW 7017   3.153   1.463   1.703
 1089SOL    HW1 7018   3.112   1.408   1.776
 1089SOL    HW2 7019   3.240   1.502   1.736
 1090SOL     OW 7020   2.714   0.970   3.094
 1090SOL    HW1 7021   2.684   1.034   3.024
 1090SOL    HW2 7022   2.735   1.020   3.178
 1091SOL     OW 7023   2.856   0.260   2.888
 1091SOL    HW1 7024   2.815   0.172   2.862
 1091SOL    HW2 7025   2.950   0.244   2.918
 1092SOL     OW 7026   2.438   1.427   2.337
 1092SOL    HW1 7027   2.452   1.432   2.238
 1092SOL    HW2 7028   2.342   1.443   2.359
 1093SOL     OW 7029   2.060   0.353   1.758
 1093SOL    HW1 7030   1.983   0.324   1.701
 1093SOL    HW2 7031   2.027   0.410   1.833
 1094SOL     OW 7032   1.957   0.382   2.239
 1094SOL    HW1 7033   1.864   0.345   2.243
 1094SOL    HW2 7034   2.022   0.308   2.221
 1095SOL     OW 7035   3.066   1.304   1.903
 1095SOL    HW1 7036   3.019   1.217   1.885
 1095SOL    HW2 7037   3.029   1.345   1.986
 1096SOL     OW 7038   2.490   0.826   3.052
 1096SOL    HW1 7039   2.568   0.884   3.078
 1096SOL    HW2 7040   2.518   0.730   3.055
 1097SOL     OW 7041   2.192   1.706   3.280
 1097SOL    HW1 7042   2.239   1.793   3.291
 1097SOL    HW2 7043   2.152   1.677   3.367
 1098SOL     OW 7044   3.715   0.949   3.269
 1098SOL    HW1 7045   3.784   0.879   3.285
 1098SOL    HW2 7046   3.701   0.960   3.170
 1099SOL     OW 7047   3.018   0.284   2.293
 1099SOL    HW1 7048   3.074   0.202   2.278
 1099SOL    HW2 7049   3.052   0.333   2.373
 1100SOL     OW 7050   2.434   0.705   2.526
 1100SOL    HW1 7051   2.458   0.719   2.430
 1100SOL    HW2 7052   2.335   0.699   2.535
 1101SOL     OW 7053   3.511   0.935   3.466
 1101SOL    HW1 7054   3.488   1.030   3.487
 1101SOL    HW2 7055   3.584   0.933   3.397
 1102SOL     OW 7056   2.981   1.055   1.842
 1102SOL    HW1 7057   2.929   1.011   1.769
 1102SOL    HW2 7058   2.976   1.000   1.925
 1103SOL     OW 7059   2.097   1.347   2.615
 1103SOL    HW1 7060   2.090   1.253   2.649
 1103SOL    HW2 7061   2.174   1.392   2.659
 1104SOL     OW 7062   2.709   1.523   2.607
 1104SOL    HW1 7063   2.708   1.586   2.529
 1104SOL    HW2 7064   2.630   1.461   2.601
 1105SOL     OW 7065   3.111   0.229   2.970
 1105SOL    HW1 7066   3.150   0.137   2.977
 1105SOL    HW2 7067   3.111   0.272   3.060
 1106SOL     OW 7068   2.553   1.594   3.086
 1106SOL    HW1 7069   2.544   1.694   3.090
 1106SOL    HW2 7070   2.649   1.569   3.098
 1107SOL     OW 7071   3.321   0.027   2.027
 1107SOL    HW1 7072   3.389   4.954   2.038
 1107SOL    HW2 7073   3.235   4.987   1.993
 1108SOL     OW 7074   3.142   0.430   2.485
 1108SOL    HW1 7075   3.107   0.523   2.476
 1108SOL    HW2 7076   3.140   0.404   2.582
 1109SOL     OW 7077   2.732   1.683   2.387
 1109SOL    HW1 7078   2.646   1.698   2.339
 1109SOL    HW2 7079   2.770   1.772   2.416
 1110SOL     OW 7080   2.039   0.472   3.759
 1110SOL    HW1 7081   2.039   0.550   3.822
 1110SOL    HW2 7082   2.075   0.500   3.670
 1111SOL     OW 7083   1.995   0.430   4.793
 1111SOL    HW1 7084   2.047   0.362   4.844
 1111SOL    HW2 7085   1.941   0.385   4.722
 1112SOL     OW 7086   1.808   0.332   4.377
 1112SOL    HW1 7087   1.862   0.297   4.300
 1112SOL    HW2 7088   1.710   0.328   4.353
 1113SOL     OW 7089   2.956   0.737   4.455
 1113SOL    HW1 7090   3.048   0.777   4.449
 1113SOL    HW2 7091   2.913   0.762   4.541
 1114SOL     OW 7092   3.697   0.633   3.981
 1114SOL    HW1 7093   3.614   0.669   3.937
 1114SOL    HW2 7094   3.698   0.533   3.972
 1115SOL     OW 7095   2.497   1.020   4.264
 1115SOL    HW1 7096   2.574   1.013   4.328
 1115SOL    HW2 7097   2.418   1.057   4.312
 1116SOL     OW 7098   2.158   1.359   4.780
 1116SOL    HW1 7099   2.127   1.348   4.875
 1116SOL    HW2 7100   2.140   1.453   4.750
 1117SOL     OW 7101   2.192   1.688   4.328
 1117SOL    HW1 7102   2.232   1.715   4.415
 1117SOL    HW2 7103   2.257   1.707   4.254
 1118SOL     OW 7104   2.031   1.477   4.383
 1118SOL    HW1 7105   2.094   1.553   4.366
 1118SOL    HW2 7106   1.966   1.503   4.455
 1119SOL     OW 7107   2.171   1.111   4.666
 1119SOL    HW1 7108   2.097   1.055   4.704
 1119SOL    HW2 7109   2.168   1.202   4.707
 1120SOL     OW 7110   3.602   0.939   4.383
 1120SOL    HW1 7111   3.649   1.026   4.370
 1120SOL    HW2 7112   3.650   0.867   4.334
 1121SOL     OW 7113   3.388   0.897   4.215
 1121SOL    HW1 7114   3.439   0.903   4.129
 1121SOL    HW2 7115   3.450   0.911   4.292
 1122SOL     OW 7116   2.459   1.348   4.354
 1122SOL    HW1 7117   2.420   1.259   4.380
 1122SOL    HW2 7118   2.418   1.379   4.268
 1123SOL     OW 7119   2.039   0.918   4.906
 1123SOL    HW1 7120   2.139   0.913   4.905
 1123SOL    HW2 7121   2.001   0.825   4.911
 1124SOL     OW 7122   3.268   1.385   4.606
 1124SOL    HW1 7123   3.212   1.370   4.688
 1124SOL    HW2 7124   3.296   1.296   4.569
 1125SOL     OW 7125   2.442   0.762   4.213
 1125SOL    HW1 7126   2.464   0.859   4.222
 1125SOL    HW2 7127   2.372   0.750   4.142
 1126SOL     OW 7128   2.906   0.709   4.193
 1126SOL    HW1 7129   2.923   0.714   4.292
 1126SOL    HW2 7130   2.827   0.651   4.176
 1127SOL     OW 7131   3.250   1.149   4.233
 1127SOL    HW1 7132   3.289   1.066   4.193
 1127SOL    HW2 7133   3.181   1.187   4.171
 1128SOL     OW 7134   2.293   0.256   4.694
 1128SOL    HW1 7135   2.258   0.254   4.787
 1128SOL    HW2 7136   2.358   0.331   4.684
 1129SOL     OW 7137   2.298   1.722   4.578
 1129SOL    HW1 7138   2.316   1.623   4.571
 1129SOL    HW2 7139   2.382   1.768   4.607
 1130SOL     OW 7140   3.713   0.986   4.632
 1130SOL    HW1 7141   3.670   0.948   4.551
 1130SOL    HW2 7142   3.643   1.016   4.697
 1131SOL     OW 7143   3.043   1.492   3.959
 1131SOL    HW1 7144   2.957   1.535   3.987
 1131SOL    HW2 7145   3.039   1.472   3.861
 1132SOL     OW 7146   2.340   1.724   4.092
 1132SOL    HW1 7147   2.418   1.776   4.058
 1132SOL    HW2 7148   2.257   1.757   4.048
 1133SOL     OW 7149   2.038   1.626   4.979
 1133SOL    HW1 7150   2.068   1.536   0.010
 1133SOL    HW2 7151   2.058   1.636   4.881
 1134SOL     OW 7152   2.702   0.556   4.590
 1134SOL    HW1 7153   2.714   0.514   4.500
 1134SOL    HW2 7154   2.786   0.604   4.615
 1135SOL     OW 7155   2.819   0.204   4.241
 1135SOL    HW1 7156   2.777   0.145   4.172
 1135SOL    HW2 7157   2.873   0.149   4.305
 1136SOL     OW 7158   3.125   1.617   4.775
 1136SOL    HW1 7159   3.176   1.644   4.694
 1136SOL    HW2 7160   3.126   1.517   4.784
 1137SOL     OW 7161   2.306   1.127   4.425
 1137SOL    HW1 7162   2.262   1.114   4.514
 1137SOL    HW2 7163   2.243   1.176   4.365
 1138SOL     OW 7164   2.740   0.441   4.350
 1138SOL    HW1 7165   2.704   0.496   4.275
 1138SOL    HW2 7166   2.773   0.353   4.314
 1139SOL     OW 7167   2.951   0.051   4.425
 1139SOL    HW1 7168   2.885   0.074   4.496
 1139SOL    HW2 7169   3.044   0.057   4.461
 1140SOL     OW 7170   3.326   1.130   4.501
 1140SOL    HW1 7171   3.277   1.044   4.514
 1140SOL    HW2 7172   3.313   1.162   4.407
 1141SOL     OW 7173   3.730   0.770   4.216
 1141SOL    HW1 7174   3.818   0.812   4.234
 1141SOL    HW2 7175   3.738   0.709   4.137
 1142SOL     OW 7176   2.343   1.532   3.837
 1142SOL    HW1 7177   2.324   1.503   3.931
 1142SOL    HW2 7178   2.423   1.483   3.803
 1143SOL     OW 7179   3.461   1.055   4.741
 1143SOL    HW1 7180   3.383   1.074   4.801
 1143SOL    HW2 7181   3.441   1.088   4.649
 1144SOL     OW 7182   2.669   1.111   4.058
 1144SOL    HW1 7183   2.595   1.085   4.120
 1144SOL    HW2 7184   2.732   1.034   4.047
 1145SOL     OW 7185   2.173   1.287   4.256
 1145SOL    HW1 7186   2.108   1.347   4.303
 1145SOL    HW2 7187   2.223   1.340   4.188
 1146SOL     OW 7188   2.443   0.505   4.649
 1146SOL    HW1 7189   2.407   0.572   4.584
 1146SOL    HW2 7190   2.542   0.504   4.645
 1147SOL     OW 7191   3.022   1.265   4.101
 1147SOL    HW1 7192   3.045   1.348   4.050
 1147SOL    HW2 7193   2.985   1.290   4.190
 1148SOL     OW 7194   3.121   1.346   4.835
 1148SOL    HW1 7195   3.069   1.361   4.918
 1148SOL    HW2 7196   3.158   1.254   4.834
 1149SOL     OW 7197   3.115   0.897   4.684
 1149SOL    HW1 7198   3.022   0.860   4.691
 1149SOL    HW2 7199   3.150   0.884   4.592
 1150SOL     OW 7200   2.130   0.241   4.926
 1150SOL    HW1 7201   2.122   0.287   0.015
 1150SOL    HW2 7202   2.062   0.168   4.920
 1151SOL     OW 7203   2.033   1.351   0.031
 1151SOL    HW1 7204   2.022   1.253   0.045
 1151SOL    HW2 7205   1.973   1.401   0.093
 1152SOL     OW 7206   2.049   0.014   4.301
 1152SOL    HW1 7207   2.079   0.060   4.384
 1152SOL    HW2 7208   2.113   4.940   4.279
 1153SOL     OW 7209   2.844   0.804   4.693
 1153SOL    HW1 7210   2.859   0.830   4.789
 1153SOL    HW2 7211   2.747   0.813   4.671
 1154SOL     OW 7212   2.259   0.523   4.843
 1154SOL    HW1 7213   2.168   0.500   4.808
 1154SOL    HW2 7214   2.325   0.521   4.767
 1155SOL     OW 7215   3.139   0.246   0.233
 1155SOL    HW1 7216   3.122   0.275   0.327
 1155SOL    HW2 7217   3.197   0.314   0.187
 1156SOL     OW 7218   2.087   1.620   4.716
 1156SOL    HW1 7219   2.007   1.608   4.657
 1156SOL    HW2 7220   2.158   1.669   4.666
 1157SOL     OW 7221   2.318   1.460   4.559
 1157SOL    HW1 7222   2.278   1.390   4.620
 1157SOL    HW2 7223   2.369   1.415   4.486
 1158SOL     OW 7224   2.894   0.874   4.952
 1158SOL    HW1 7225   2.990   0.857   4.973
 1158SOL    HW2 7226   2.836   0.830   0.020
 1159SOL     OW 7227   1.948   0.656   4.932
 1159SOL    HW1 7228   1.967   0.579   4.871
 1159SOL    HW2 7229   1.849   0.665   4.944
 1160SOL     OW 7230   2.654   0.601   4.152
 1160SOL    HW1 7231   2.672   0.620   4.055
 1160SOL    HW2 7232   2.575   0.653   4.183
 1161SOL     OW 7233   3.607   0.617   4.791
 1161SOL    HW1 7234   3.554   0.545   4.836
 1161SOL    HW2 7235   3.678   0.577   4.734
 1162SOL     OW 7236   2.467   0.520   0.021
 1162SOL    HW1 7237   2.389   0.529   4.959
 1162SOL    HW2 7238   2.538   0.465   4.976
 1163SOL     OW 7239   1.980   1.092   0.105
 1163SOL    HW1 7240   2.035   1.057   0.181
 1163SOL    HW2 7241   1.988   1.030   0.027
 1164SOL     OW 7242   3.207   1.088   4.849
 1164SOL    HW1 7243   3.173   1.020   4.783
 1164SOL    HW2 7244   3.149   1.086   4.930
 1165SOL     OW 7245   3.129   0.850   4.096
 1165SOL    HW1 7246   3.062   0.786   4.134
 1165SOL    HW2 7247   3.216   0.839   4.143
 1166SOL     OW 7248   3.617   0.148   4.122
 1166SOL    HW1 7249   3.708   0.177   4.149
 1166SOL    HW2 7250   3.560   0.135   4.203
 1167SOL     OW 7251   3.184   0.892   4.417
 1167SOL    HW1 7252   3.262   0.874   4.358
 1167SOL    HW2 7253   3.117   0.948   4.368
 1168SOL     OW 7254   3.518   1.959   0.127
 1168SOL    HW1 7255   3.599   1.910   0.093
 1168SOL    HW2 7256   3.545   2.020   0.202
 1169SOL     OW 7257   2.115   0.169   4.514
 1169SOL    HW1 7258   2.120   0.246   4.450
 1169SOL    HW2 7259   2.186   0.179   4.583
 1170SOL     OW 7260   2.963   1.407   3.710
 1170SOL    HW1 7261   2.912   1.333   3.754
 1170SOL    HW2 7262   2.921   1.429   3.622
 1171SOL     OW 7263   2.852   0.911   4.018
 1171SOL    HW1 7264   2.941   0.940   3.985
 1171SOL    HW2 7265   2.863   0.845   4.092
 1172SOL     OW 7266   2.776   0.142   4.612
 1172SOL    HW1 7267   2.742   0.236   4.601
 1172SOL    HW2 7268   2.804   0.128   4.707
 1173SOL     OW 7269   2.359   1.453   4.118
 1173SOL    HW1 7270   2.448   1.425   4.082
 1173SOL    HW2 7271   2.353   1.553   4.120
 1174SOL     OW 7272   3.528   0.400   4.954
 1174SOL    HW1 7273   3.580   0.450   0.024
 1174SOL    HW2 7274   3.591   0.347   4.897
 1175SOL     OW 7275   1.938   0.249   3.885
 1175SOL    HW1 7276   1.843   0.223   3.869
 1175SOL    HW2 7277   1.959   0.333   3.835
 1176SOL     OW 7278   1.917   0.207   4.154
 1176SOL    HW1 7279   1.939   0.222   4.058
 1176SOL    HW2 7280   1.975   0.135   4.191
 1177SOL     OW 7281   2.863   1.197   3.863
 1177SOL    HW1 7282   2.778   1.165   3.905
 1177SOL    HW2 7283   2.932   1.213   3.934
 1178SOL     OW 7284   3.604   0.868   4.899
 1178SOL    HW1 7285   3.606   0.777   4.856
 1178SOL    HW2 7286   3.543   0.928   4.847
 1179SOL     OW 7287   2.398   0.717   4.483
 1179SOL    HW1 7288   2.351   0.803   4.503
 1179SOL    HW2 7289   2.423   0.714   4.386
 1180SOL     OW 7290   3.702   0.238   4.823
 1180SOL    HW1 7291   3.718   0.187   4.907
 1180SOL    HW2 7292   3.627   0.195   4.772
 1181SOL     OW 7293   2.598   1.586   4.357
 1181SOL    HW1 7294   2.658   1.595   4.436
 1181SOL    HW2 7295   2.553   1.497   4.358
 1182SOL     OW 7296   3.439   0.150   4.750
 1182SOL    HW1 7297   3.435   0.123   4.846
 1182SOL    HW2 7298   3.347   0.149   4.711
 1183SOL     OW 7299   2.831   0.047   4.865
 1183SOL    HW1 7300   2.761   4.992   4.819
 1183SOL    HW2 7301   2.865   4.997   4.946
 1184SOL     OW 7302   2.599   1.378   4.028
 1184SOL    HW1 7303   2.630   1.284   4.040
 1184SOL    HW2 7304   2.678   1.439   4.020
 1185SOL     OW 7305   3.486   0.158   4.478
 1185SOL    HW1 7306   3.487   0.152   4.578
 1185SOL    HW2 7307   3.562   0.215   4.447
 1186SOL     OW 7308   1.715   0.958   3.965
 1186SOL    HW1 7309   1.730   0.872   4.014
 1186SOL    HW2 7310   1.695   0.938   3.869
 1187SOL     OW 7311   2.788   1.579   3.993
 1187SOL    HW1 7312   2.770   1.619   3.903
 1187SOL    HW2 7313   2.761   1.644   4.064
 1188SOL     OW 7314   1.830   2.179   0.620
 1188SOL    HW1 7315   1.732   2.198   0.625
 1188SOL    HW2 7316   1.882   2.254   0.661
 1189SOL     OW 7317   3.308   3.516   0.877
 1189SOL    HW1 7318   3.345   3.433   0.834
 1189SOL    HW2 7319   3.286   3.583   0.806
 1190SOL     OW 7320   2.570   2.655   0.717
 1190SOL    HW1 7321   2.637   2.729   0.725
 1190SOL    HW2 7322   2.594   2.581   0.781
 1191SOL     OW 7323   2.566   3.080   1.749
 1191SOL    HW1 7324   2.575   3.135   1.832
 1191SOL    HW2 7325   2.517   3.133   1.679
 1192SOL     OW 7326   2.177   3.487   1.039
 1192SOL    HW1 7327   2.086   3.509   1.006
 1192SOL    HW2 7328   2.241   3.483   0.962
 1193SOL     OW 7329   3.285   3.356   1.321
 1193SOL    HW1 7330   3.298   3.408   1.405
 1193SOL    HW2 7331   3.268   3.260   1.344
 1194SOL     OW 7332   2.123   3.607   0.360
 1194SOL    HW1 7333   2.142   3.687   0.417
 1194SOL    HW2 7334   2.176   3.613   0.275
 1195SOL     OW 7335   2.985   3.214   1.711
 1195SOL    HW1 7336   3.063   3.198   1.772
 1195SOL    HW2 7337   2.928   3.133   1.707
 1196SOL     OW 7338   2.186   3.407   0.530
 1196SOL    HW1 7339   2.163   3.480   0.466
 1196SOL    HW2 7340   2.144   3.426   0.619
 1197SOL     OW 7341   2.184   3.667   1.248
 1197SOL    HW1 7342   2.255   3.641   1.314
 1197SOL    HW2 7343   2.186   3.605   1.170
 1198SOL     OW 7344   3.336   2.095   1.460
 1198SOL    HW1 7345   3.425   2.050   1.468
 1198SOL    HW2 7346   3.267   2.042   1.510
 1199SOL     OW 7347   3.914   3.772   0.338
 1199SOL    HW1 7348   3.956   3.697   0.390
 1199SOL    HW2 7349   3.978   3.849   0.333
 1200SOL     OW 7350   3.665   2.940   0.574
 1200SOL    HW1 7351   3.657   2.865   0.640
 1200SOL    HW2 7352   3.583   2.942   0.516
 1201SOL     OW 7353   3.440   2.933   0.419
 1201SOL    HW1 7354   3.476   2.910   0.329
 1201SOL    HW2 7355   3.359   2.991   0.408
 1202SOL     OW 7356   2.420   3.299   0.609
 1202SOL    HW1 7357   2.418   3.199   0.599
 1202SOL    HW2 7358   2.340   3.339   0.563
 1203SOL     OW 7359   3.205   3.104   1.399
 1203SOL    HW1 7360   3.221   3.045   1.320
 1203SOL    HW2 7361   3.267   3.078   1.473
 1204SOL     OW 7362   3.295   2.718   0.203
 1204SOL    HW1 7363   3.272   2.693   0.297
 1204SOL    HW2 7364   3.381   2.768   0.201
 1205SOL     OW 7365   2.384   2.564   0.193
 1205SOL    HW1 7366   2.462   2.595   0.248
 1205SOL    HW2 7367   2.300   2.570   0.247
 1206SOL     OW 7368   3.173   2.123   0.926
 1206SOL    HW1 7369   3.079   2.094   0.947
 1206SOL    HW2 7370   3.227   2.125   1.011
 1207SOL     OW 7371   2.808   2.282   1.069
 1207SOL    HW1 7372   2.724   2.245   1.109
 1207SOL    HW2 7373   2.860   2.208   1.028
 1208SOL     OW 7374   2.670   2.005   0.970
 1208SOL    HW1 7375   2.610   2.021   0.892
 1208SOL    HW2 7376   2.631   2.049   1.051
 1209SOL     OW 7377   2.221   3.736   0.779
 1209SOL    HW1 7378   2.251   3.640   0.776
 1209SOL    HW2 7379   2.272   3.784   0.851
 1210SOL     OW 7380   3.056   3.430   1.557
 1210SOL    HW1 7381   3.035   3.347   1.609
 1210SOL    HW2 7382   3.155   3.447   1.559
 1211SOL     OW 7383   2.877   3.548   0.386
 1211SOL    HW1 7384   2.832   3.579   0.469
 1211SOL    HW2 7385   2.976   3.543   0.402
 1212SOL     OW 7386   3.287   1.917   0.380
 1212SOL    HW1 7387   3.236   1.887   0.300
 1212SOL    HW2 7388   3.297   2.017   0.379
 1213SOL     OW 7389   2.787   3.605   0.795
 1213SOL    HW1 7390   2.864   3.567   0.846
 1213SOL    HW2 7391   2.737   3.531   0.751
 1214SOL     OW 7392   2.194   2.599   0.382
 1214SOL    HW1 7393   2.144   2.521   0.420
 1214SOL    HW2 7394   2.129   2.670   0.354
 1215SOL     OW 7395   2.591   2.192   1.851
 1215SOL    HW1 7396   2.683   2.226   1.870
 1215SOL    HW2 7397   2.572   2.202   1.753
 1216SOL     OW 7398   2.837   3.270   0.883
 1216SOL    HW1 7399   2.903   3.345   0.885
 1216SOL    HW2 7400   2.762   3.294   0.822
 1217SOL     OW 7401   2.665   2.447   0.892
 1217SOL    HW1 7402   2.666   2.386   0.813
 1217SOL    HW2 7403   2.731   2.415   0.960
 1218SOL     OW 7404   2.506   2.081   0.770
 1218SOL    HW1 7405   2.421   2.064   0.721
 1218SOL    HW2 7406   2.553   2.159   0.728
 1219SOL     OW 7407   3.265   2.947   0.045
 1219SOL    HW1 7408   3.242   2.861   0.091
 1219SOL    HW2 7409   3.195   2.967   4.976
 1220SOL     OW 7410   2.056   1.844   0.138
 1220SOL    HW1 7411   2.053   1.764   0.078
 1220SOL    HW2 7412   2.098   1.920   0.089
 1221SOL     OW 7413   3.008   3.484   0.898
 1221SOL    HW1 7414   3.090   3.520   0.852
 1221SOL    HW2 7415   3.031   3.455   0.990
 1222SOL     OW 7416   3.211   3.685   0.684
 1222SOL    HW1 7417   3.267   3.740   0.622
 1222SOL    HW2 7418   3.126   3.732   0.704
 1223SOL     OW 7419   2.788   2.223   4.665
 1223SOL    HW1 7420   2.737   2.226   4.751
 1223SOL    HW2 7421   2.886   2.216   4.684
 1224SOL     OW 7422   1.731   2.405   1.492
 1224SOL    HW1 7423   1.736   2.411   1.591
 1224SOL    HW2 7424   1.647   2.450   1.460
 1225SOL     OW 7425   2.692   2.275   0.685
 1225SOL    HW1 7426   2.665   2.324   0.601
 1225SOL    HW2 7427   2.778   2.227   0.669
 1226SOL     OW 7428   3.223   2.363   1.257
 1226SOL    HW1 7429   3.232   2.455   1.220
 1226SOL    HW2 7430   3.314   2.320   1.262
 1227SOL     OW 7431   3.305   2.502   0.022
 1227SOL    HW1 7432   3.285   2.577   0.085
 1227SOL    HW2 7433   3.295   2.415   0.069
 1228SOL     OW 7434   3.608   3.187   1.651
 1228SOL    HW1 7435   3.691   3.136   1.627
 1228SOL    HW2 7436   3.596   3.263   1.588
 1229SOL     OW 7437   2.966   3.205   1.352
 1229SOL    HW1 7438   2.954   3.300   1.382
 1229SOL    HW2 7439   3.058   3.174   1.374
 1230SOL     OW 7440   3.335   3.437   1.576
 1230SOL    HW1 7441   3.333   3.385   1.661
 1230SOL    HW2 7442   3.428   3.434   1.537
 1231SOL     OW 7443   2.987   3.137   1.077
 1231SOL    HW1 7444   2.945   3.147   1.168
 1231SOL    HW2 7445   2.921   3.166   1.007
 1232SOL     OW 7446   2.899   1.994   1.372
 1232SOL    HW1 7447   2.931   1.923   1.309
 1232SOL    HW2 7448   2.925   2.084   1.337
 1233SOL     OW 7449   2.820   2.997   1.720
 1233SOL    HW1 7450   2.722   3.017   1.725
 1233SOL    HW2 7451   2.843   2.970   1.627
 1234SOL     OW 7452   2.987   2.232   1.270
 1234SOL    HW1 7453   3.064   2.295   1.279
 1234SOL    HW2 7454   2.921   2.269   1.204
 1235SOL     OW 7455   3.101   3.376   1.129
 1235SOL    HW1 7456   3.165   3.370   1.205
 1235SOL    HW2 7457   3.065   3.286   1.108
 1236SOL     OW 7458   2.157   3.255   1.190
 1236SOL    HW1 7459   2.160   3.342   1.142
 1236SOL    HW2 7460   2.250   3.219   1.201
 1237SOL     OW 7461   2.488   2.407   1.098
 1237SOL    HW1 7462   2.542   2.417   1.015
 1237SOL    HW2 7463   2.453   2.496   1.127
 1238SOL     OW 7464   2.274   2.010   0.645
 1238SOL    HW1 7465   2.205   2.056   0.589
 1238SOL    HW2 7466   2.252   1.913   0.651
 1239SOL     OW 7467   3.347   2.182   0.407
 1239SOL    HW1 7468   3.443   2.154   0.410
 1239SOL    HW2 7469   3.310   2.181   0.500
 1240SOL     OW 7470   2.769   3.382   1.755
 1240SOL    HW1 7471   2.776   3.462   1.696
 1240SOL    HW2 7472   2.845   3.320   1.738
 1241SOL     OW 7473   3.585   3.392   1.473
 1241SOL    HW1 7474   3.621   3.381   1.380
 1241SOL    HW2 7475   3.630   3.471   1.517
 1242SOL     OW 7476   2.278   2.672   1.829
 1242SOL    HW1 7477   2.341   2.748   1.814
 1242SOL    HW2 7478   2.186   2.698   1.802
 1243SOL     OW 7479   3.283   2.267   0.152
 1243SOL    HW1 7480   3.265   2.179   0.108
 1243SOL    HW2 7481   3.303   2.252   0.249
 1244SOL     OW 7482   1.793   3.335   0.349
 1244SOL    HW1 7483   1.730   3.396   0.302
 1244SOL    HW2 7484   1.790   3.244   0.306
 1245SOL     OW 7485   1.961   3.776   0.830
 1245SOL    HW1 7486   1.927   3.690   0.868
 1245SOL    HW2 7487   2.055   3.763   0.797
 1246SOL     OW 7488   2.325   3.492   0.793
 1246SOL    HW1 7489   2.406   3.535   0.833
 1246SOL    HW2 7490   2.353   3.417   0.733
 1247SOL     OW 7491   1.800   2.426   1.225
 1247SOL    HW1 7492   1.892   2.392   1.204
 1247SOL    HW2 7493   1.782   2.417   1.323
 1248SOL     OW 7494   3.146   2.884   1.649
 1248SOL    HW1 7495   3.233   2.934   1.639
 1248SOL    HW2 7496   3.081   2.916   1.580
 1249SOL     OW 7497   2.620   2.401   0.463
 1249SOL    HW1 7498   2.629   2.370   0.368
 1249SOL    HW2 7499   2.567   2.486   0.465
 1250SOL     OW 7500   3.472   2.250   1.274
 1250SOL    HW1 7501   3.431   2.195   1.346
 1250SOL    HW2 7502   3.565   2.275   1.299
 1251SOL     OW 7503   2.586   2.156   1.178
 1251SOL    HW1 7504   2.584   2.124   1.273
 1251SOL    HW2 7505   2.528   2.237   1.170
 1252SOL     OW 7506   2.391   2.373   4.994
 1252SOL    HW1 7507   2.481   2.331   4.991
 1252SOL    HW2 7508   2.383   2.430   0.075
 1253SOL     OW 7509   2.074   3.103   1.409
 1253SOL    HW1 7510   2.029   3.161   1.477
 1253SOL    HW2 7511   2.092   3.158   1.327
 1254SOL     OW 7512   3.225   2.995   1.152
 1254SOL    HW1 7513   3.309   3.050   1.149
 1254SOL    HW2 7514   3.152   3.042   1.104
 1255SOL     OW 7515   3.167   3.637   1.109
 1255SOL    HW1 7516   3.237   3.634   1.037
 1255SOL    HW2 7517   3.138   3.544   1.131
 1256SOL     OW 7518   1.978   3.189   0.987
 1256SOL    HW1 7519   2.050   3.185   1.056
 1256SOL    HW2 7520   1.899   3.239   1.024
 1257SOL     OW 7521   3.590   2.053   0.387
 1257SOL    HW1 7522   3.688   2.063   0.399
 1257SOL    HW2 7523   3.563   1.958   0.404
 1258SOL     OW 7524   3.138   3.572   0.437
 1258SOL    HW1 7525   3.198   3.605   0.364
 1258SOL    HW2 7526   3.176   3.597   0.526
 1259SOL     OW 7527   2.053   3.820   1.945
 1259SOL    HW1 7528   2.071   3.838   1.848
 1259SOL    HW2 7529   2.039   3.907   1.993
 1260SOL     OW 7530   3.713   1.950   1.177
 1260SOL    HW1 7531   3.775   1.905   1.112
 1260SOL    HW2 7532   3.622   1.957   1.136
 1261SOL     OW 7533   3.125   3.516   0.098
 1261SOL    HW1 7534   3.094   3.433   0.053
 1261SOL    HW2 7535   3.048   3.579   0.108
 1262SOL     OW 7536   2.927   2.959   1.470
 1262SOL    HW1 7537   2.960   2.889   1.407
 1262SOL    HW2 7538   2.929   3.048   1.424
 1263SOL     OW 7539   3.444   3.141   1.217
 1263SOL    HW1 7540   3.536   3.110   1.244
 1263SOL    HW2 7541   3.440   3.240   1.223
 1264SOL     OW 7542   2.931   2.031   1.015
 1264SOL    HW1 7543   2.836   2.013   0.989
 1264SOL    HW2 7544   2.966   1.954   1.068
 1265SOL     OW 7545   1.989   3.224   0.500
 1265SOL    HW1 7546   1.916   3.268   0.446
 1265SOL    HW2 7547   2.073   3.279   0.493
 1266SOL     OW 7548   2.632   2.029   1.426
 1266SOL    HW1 7549   2.730   2.020   1.410
 1266SOL    HW2 7550   2.596   1.943   1.462
 1267SOL     OW 7551   2.057   2.087   0.493
 1267SOL    HW1 7552   1.966   2.109   0.529
 1267SOL    HW2 7553   2.058   1.994   0.457
 1268SOL     OW 7554   3.001   3.271   0.022
 1268SOL    HW1 7555   2.928   3.305   0.082
 1268SOL    HW2 7556   3.055   3.202   0.070
 1269SOL     OW 7557   3.448   3.437   1.109
 1269SOL    HW1 7558   3.402   3.470   1.027
 1269SOL    HW2 7559   3.382   3.429   1.184
 1270SOL     OW 7560   3.358   3.054   1.611
 1270SOL    HW1 7561   3.337   3.131   1.670
 1270SOL    HW2 7562   3.457   3.047   1.598
 1271SOL     OW 7563   2.468   2.625   0.461
 1271SOL    HW1 7564   2.493   2.645   0.556
 1271SOL    HW2 7565   2.369   2.628   0.451
 1272SOL     OW 7566   2.530   3.621   0.902
 1272SOL    HW1 7567   2.491   3.707   0.936
 1272SOL    HW2 7568   2.628   3.635   0.882
 1273SOL     OW 7569   3.883   3.396   0.917
 1273SOL    HW1 7570   3.922   3.385   0.826
 1273SOL    HW2 7571   3.819   3.322   0.936
 1274SOL     OW 7572   2.008   3.328   0.753
 1274SOL    HW1 7573   2.005   3.265   0.831
 1274SOL    HW2 7574   1.987   3.279   0.669
 1275SOL     OW 7575   3.595   2.024   1.419
 1275SOL    HW1 7576   3.661   2.017   1.493
 1275SOL    HW2 7577   3.636   1.990   1.334
 1276SOL     OW 7578   2.672   3.391   0.670
 1276SOL    HW1 7579   2.724   3.367   0.588
 1276SOL    HW2 7580   2.576   3.366   0.658
 1277SOL     OW 7581   3.199   2.064   1.231
 1277SOL    HW1 7582   3.248   2.075   1.317
 1277SOL    HW2 7583   3.122   2.128   1.228
 1278SOL     OW 7584   3.060   1.841   1.183
 1278SOL    HW1 7585   3.121   1.781   1.131
 1278SOL    HW2 7586   3.111   1.922   1.214
 1279SOL     OW 7587   3.270   2.017   0.042
 1279SOL    HW1 7588   3.364   1.992   0.067
 1279SOL    HW2 7589   3.207   1.947   0.076
 1280SOL     OW 7590   3.226   2.122   0.650
 1280SOL    HW1 7591   3.185   2.035   0.624
 1280SOL    HW2 7592   3.214   2.136   0.748
 1281SOL     OW 7593   3.443   2.015   1.121
 1281SOL    HW1 7594   3.350   2.010   1.157
 1281SOL    HW2 7595   3.482   2.105   1.141
 1282SOL     OW 7596   2.280   3.206   3.175
 1282SOL    HW1 7597   2.243   3.214   3.083
 1282SOL    HW2 7598   2.327   3.291   3.200
 1283SOL     OW 7599   2.598   2.670   3.581
 1283SOL    HW1 7600   2.566   2.759   3.612
 1283SOL    HW2 7601   2.693   2.677   3.549
 1284SOL     OW 7602   2.394   2.804   2.559
 1284SOL    HW1 7603   2.492   2.818   2.540
 1284SOL    HW2 7604   2.349   2.893   2.568
 1285SOL     OW 7605   2.523   2.931   3.651
 1285SOL    HW1 7606   2.545   2.959   3.744
 1285SOL    HW2 7607   2.430   2.959   3.628
 1286SOL     OW 7608   2.153   3.220   2.934
 1286SOL    HW1 7609   2.085   3.157   2.897
 1286SOL    HW2 7610   2.210   3.255   2.859
 1287SOL     OW 7611   3.261   3.367   3.292
 1287SOL    HW1 7612   3.322   3.446   3.292
 1287SOL    HW2 7613   3.199   3.373   3.371
 1288SOL     OW 7614   2.117   3.604   2.088
 1288SOL    HW1 7615   2.030   3.566   2.118
 1288SOL    HW2 7616   2.100   3.687   2.034
 1289SOL     OW 7617   2.104   2.896   2.754
 1289SOL    HW1 7618   2.116   2.798   2.771
 1289SOL    HW2 7619   2.050   2.937   2.828
 1290SOL     OW 7620   2.459   3.581   3.504
 1290SOL    HW1 7621   2.409   3.546   3.425
 1290SOL    HW2 7622   2.552   3.545   3.502
 1291SOL     OW 7623   3.505   2.783   2.303
 1291SOL    HW1 7624   3.463   2.708   2.252
 1291SOL    HW2 7625   3.460   2.793   2.391
 1292SOL     OW 7626   1.977   2.636   3.572
 1292SOL    HW1 7627   2.029   2.704   3.623
 1292SOL    HW2 7628   1.887   2.674   3.547
 1293SOL     OW 7629   2.320   3.281   2.718
 1293SOL    HW1 7630   2.314   3.189   2.679
 1293SOL    HW2 7631   2.392   3.333   2.671
 1294SOL     OW 7632   3.056   3.064   3.370
 1294SOL    HW1 7633   3.084   3.040   3.277
 1294SOL    HW2 7634   3.132   3.107   3.418
 1295SOL     OW 7635   2.727   1.946   2.479
 1295SOL    HW1 7636   2.718   2.045   2.482
 1295SOL    HW2 7637   2.642   1.905   2.446
 1296SOL     OW 7638   3.363   2.953   1.997
 1296SOL    HW1 7639   3.310   2.879   2.037
 1296SOL    HW2 7640   3.458   2.946   2.027
 1297SOL     OW 7641   2.921   3.610   3.526
 1297SOL    HW1 7642   2.973   3.687   3.490
 1297SOL    HW2 7643   2.969   3.525   3.503
 1298SOL     OW 7644   3.504   3.764   2.391
 1298SOL    HW1 7645   3.436   3.808   2.332
 1298SOL    HW2 7646   3.458   3.704   2.456
 1299SOL     OW 7647   3.240   2.248   2.818
 1299SOL    HW1 7648   3.170   2.197   2.768
 1299SOL    HW2 7649   3.207   2.268   2.910
 1300SOL     OW 7650   2.847   2.719   3.482
 1300SOL    HW1 7651   2.937   2.742   3.518
 1300SOL    HW2 7652   2.845   2.734   3.383
 1301SOL     OW 7653   1.861   2.670   2.699
 1301SOL    HW1 7654   1.954   2.667   2.735
 1301SOL    HW2 7655   1.815   2.752   2.733
 1302SOL     OW 7656   3.585   2.387   3.707
 1302SOL    HW1 7657   3.526   2.467   3.708
 1302SOL    HW2 7658   3.603   2.360   3.613
 1303SOL     OW 7659   2.721   3.300   2.282
 1303SOL    HW1 7660   2.754   3.387   2.245
 1303SOL    HW2 7661   2.754   3.225   2.226
 1304SOL     OW 7662   3.019   3.379   3.426
 1304SOL    HW1 7663   2.989   3.289   3.461
 1304SOL    HW2 7664   3.000   3.385   3.329
 1305SOL     OW 7665   3.127   2.741   2.604
 1305SOL    HW1 7666   3.149   2.650   2.641
 1305SOL    HW2 7667   3.111   2.804   2.679
 1306SOL     OW 7668   2.276   3.043   3.611
 1306SOL    HW1 7669   2.231   3.069   3.525
 1306SOL    HW2 7670   2.222   2.971   3.655
 1307SOL     OW 7671   3.356   3.266   1.783
 1307SOL    HW1 7672   3.452   3.239   1.791
 1307SOL    HW2 7673   3.301   3.217   1.850
 1308SOL     OW 7674   2.930   3.500   2.731
 1308SOL    HW1 7675   3.025   3.503   2.701
 1308SOL    HW2 7676   2.871   3.484   2.653
 1309SOL     OW 7677   2.426   2.268   3.723
 1309SOL    HW1 7678   2.510   2.235   3.765
 1309SOL    HW2 7679   2.357   2.282   3.794
 1310SOL     OW 7680   2.699   3.397   3.202
 1310SOL    HW1 7681   2.731   3.440   3.118
 1310SOL    HW2 7682   2.738   3.305   3.210
 1311SOL     OW 7683   2.785   2.271   2.697
 1311SOL    HW1 7684   2.735   2.239   2.616
 1311SOL    HW2 7685   2.864   2.212   2.713
 1312SOL     OW 7686   2.494   1.850   2.364
 1312SOL    HW1 7687   2.432   1.826   2.439
 1312SOL    HW2 7688   2.474   1.943   2.333
 1313SOL     OW 7689   3.169   3.100   1.901
 1313SOL    HW1 7690   3.251   3.056   1.937
 1313SOL    HW2 7691   3.096   3.033   1.892
 1314SOL     OW 7692   2.189   1.983   2.059
 1314SOL    HW1 7693   2.250   2.061   2.042
 1314SOL    HW2 7694   2.241   1.910   2.103
 1315SOL     OW 7695   3.037   2.504   3.229
 1315SOL    HW1 7696   3.005   2.469   3.318
 1315SOL    HW2 7697   3.090   2.587   3.243
 1316SOL     OW 7698   3.173   3.500   2.613
 1316SOL    HW1 7699   3.193   3.586   2.566
 1316SOL    HW2 7700   3.241   3.431   2.587
 1317SOL     OW 7701   2.269   3.041   2.602
 1317SOL    HW1 7702   2.224   2.983   2.669
 1317SOL    HW2 7703   2.200   3.088   2.547
 1318SOL     OW 7704   3.207   3.722   2.460
 1318SOL    HW1 7705   3.239   3.795   2.401
 1318SOL    HW2 7706   3.114   3.697   2.436
 1319SOL     OW 7707   2.632   2.206   2.461
 1319SOL    HW1 7708   2.598   2.293   2.496
 1319SOL    HW2 7709   2.569   2.171   2.392
 1320SOL     OW 7710   2.965   1.892   2.606
 1320SOL    HW1 7711   2.879   1.912   2.559
 1320SOL    HW2 7712   2.962   1.800   2.644
 1321SOL     OW 7713   3.164   2.518   2.768
 1321SOL    HW1 7714   3.071   2.490   2.792
 1321SOL    HW2 7715   3.224   2.438   2.768
 1322SOL     OW 7716   2.387   2.181   2.033
 1322SOL    HW1 7717   2.464   2.166   1.971
 1322SOL    HW2 7718   2.348   2.271   2.017
 1323SOL     OW 7719   2.812   3.148   3.239
 1323SOL    HW1 7720   2.716   3.122   3.252
 1323SOL    HW2 7721   2.867   3.111   3.314
 1324SOL     OW 7722   3.397   3.395   3.571
 1324SOL    HW1 7723   3.352   3.312   3.537
 1324SOL    HW2 7724   3.477   3.415   3.513
 1325SOL     OW 7725   2.958   3.182   3.013
 1325SOL    HW1 7726   2.892   3.170   3.088
 1325SOL    HW2 7727   2.913   3.226   2.935
 1326SOL     OW 7728   2.714   2.957   3.452
 1326SOL    HW1 7729   2.635   2.970   3.513
 1326SOL    HW2 7730   2.766   2.877   3.480
 1327SOL     OW 7731   3.090   2.312   3.035
 1327SOL    HW1 7732   3.086   2.370   3.116
 1327SOL    HW2 7733   3.025   2.345   2.967
 1328SOL     OW 7734   2.532   2.432   2.569
 1328SOL    HW1 7735   2.445   2.479   2.583
 1328SOL    HW2 7736   2.595   2.455   2.643
 1329SOL     OW 7737   3.034   3.400   3.152
 1329SOL    HW1 7738   3.129   3.399   3.184
 1329SOL    HW2 7739   3.017   3.319   3.096
 1330SOL     OW 7740   3.372   2.597   2.164
 1330SOL    HW1 7741   3.366   2.509   2.119
 1330SOL    HW2 7742   3.296   2.655   2.134
 1331SOL     OW 7743   2.291   2.714   3.522
 1331SOL    HW1 7744   2.328   2.759   3.441
 1331SOL    HW2 7745   2.338   2.627   3.537
 1332SOL     OW 7746   2.384   1.959   3.780
 1332SOL    HW1 7747   2.416   1.979   3.688
 1332SOL    HW2 7748   2.286   1.981   3.787
 1333SOL     OW 7749   3.091   2.745   2.914
 1333SOL    HW1 7750   3.008   2.707   2.953
 1333SOL    HW2 7751   3.142   2.674   2.865
 1334SOL     OW 7752   1.892   3.191   3.123
 1334SOL    HW1 7753   1.891   3.152   3.216
 1334SOL    HW2 7754   1.982   3.232   3.106
 1335SOL     OW 7755   2.923   2.437   2.860
 1335SOL    HW1 7756   2.872   2.505   2.914
 1335SOL    HW2 7757   2.859   2.386   2.803
 1336SOL     OW 7758   3.640   3.423   3.387
 1336SOL    HW1 7759   3.661   3.350   3.323
 1336SOL    HW2 7760   3.723   3.449   3.437
 1337SOL     OW 7761   2.129   2.827   3.696
 1337SOL    HW1 7762   2.173   2.823   3.787
 1337SOL    HW2 7763   2.189   2.783   3.629
 1338SOL     OW 7764   3.443   2.083   2.033
 1338SOL    HW1 7765   3.390   2.028   1.968
 1338SOL    HW2 7766   3.403   2.174   2.039
 1339SOL     OW 7767   2.108   2.629   2.796
 1339SOL    HW1 7768   2.182   2.593   2.738
 1339SOL    HW2 7769   2.085   2.561   2.865
 1340SOL     OW 7770   1.821   3.138   2.103
 1340SOL    HW1 7771   1.724   3.158   2.094
 1340SOL    HW2 7772   1.833   3.048   2.146
 1341SOL     OW 7773   2.882   2.634   3.052
 1341SOL    HW1 7774   2.934   2.572   3.111
 1341SOL    HW2 7775   2.840   2.706   3.108
 1342SOL     OW 7776   1.798   2.443   3.138
 1342SOL    HW1 7777   1.866   2.426   3.067
 1342SOL    HW2 7778   1.838   2.501   3.209
 1343SOL     OW 7779   2.156   2.434   3.593
 1343SOL    HW1 7780   2.248   2.444   3.556
 1343SOL    HW2 7781   2.097   2.505   3.555
 1344SOL     OW 7782   3.093   2.821   3.522
 1344SOL    HW1 7783   3.072   2.917   3.502
 1344SOL    HW2 7784   3.133   2.778   3.441
 1345SOL     OW 7785   2.702   3.461   3.468
 1345SOL    HW1 7786   2.698   3.436   3.371
 1345SOL    HW2 7787   2.783   3.518   3.484
 1346SOL     OW 7788   2.330   2.442   1.981
 1346SOL    HW1 7789   2.397   2.481   2.044
 1346SOL    HW2 7790   2.300   2.512   1.916
 1347SOL     OW 7791   1.870   3.073   3.369
 1347SOL    HW1 7792   1.893   3.051   3.464
 1347SOL    HW2 7793   1.803   3.008   3.335
 1348SOL     OW 7794   3.062   2.943   3.100
 1348SOL    HW1 7795   3.083   2.880   3.026
 1348SOL    HW2 7796   3.037   3.033   3.063
 1349SOL     OW 7797   3.170   2.773   2.095
 1349SOL    HW1 7798   3.127   2.774   2.185
 1349SOL    HW2 7799   3.103   2.802   2.026
 1350SOL     OW 7800   1.938   3.029   2.911
 1350SOL    HW1 7801   1.907   3.082   2.990
 1350SOL    HW2 7802   1.859   2.991   2.863
 1351SOL     OW 7803   2.659   3.508   3.732
 1351SOL    HW1 7804   2.682   3.606   3.733
 1351SOL    HW2 7805   2.672   3.472   3.639
 1352SOL     OW 7806   1.955   3.767   3.953
 1352SOL    HW1 7807   1.978   3.731   4.044
 1352SOL    HW2 7808   2.038   3.805   3.910
 1353SOL     OW 7809   3.053   2.786   2.341
 1353SOL    HW1 7810   3.087   2.756   2.430
 1353SOL    HW2 7811   3.000   2.870   2.352
 1354SOL     OW 7812   2.545   3.119   3.260
 1354SOL    HW1 7813   2.529   3.144   3.355
 1354SOL    HW2 7814   2.460   3.128   3.208
 1355SOL     OW 7815   2.612   3.273   1.941
 1355SOL    HW1 7816   2.663   3.321   1.869
 1355SOL    HW2 7817   2.552   3.338   1.988
 1356SOL     OW 7818   3.434   3.564   3.284
 1356SOL    HW1 7819   3.460   3.635   3.219
 1356SOL    HW2 7820   3.515   3.522   3.324
 1357SOL     OW 7821   3.619   1.949   2.807
 1357SOL    HW1 7822   3.705   1.950   2.755
 1357SOL    HW2 7823   3.575   2.038   2.799
 1358SOL     OW 7824   1.840   2.404   2.726
 1358SOL    HW1 7825   1.846   2.501   2.702
 1358SOL    HW2 7826   1.744   2.377   2.727
 1359SOL     OW 7827   2.916   3.539   1.927
 1359SOL    HW1 7828   2.984   3.472   1.957
 1359SOL    HW2 7829   2.842   3.492   1.880
 1360SOL     OW 7830   2.839   2.832   3.235
 1360SOL    HW1 7831   2.910   2.887   3.190
 1360SOL    HW2 7832   2.774   2.893   3.281
 1361SOL     OW 7833   2.151   3.097   3.385
 1361SOL    HW1 7834   2.199   3.134   3.305
 1361SOL    HW2 7835   2.053   3.090   3.364
 1362SOL     OW 7836   3.430   3.157   3.283
 1362SOL    HW1 7837   3.515   3.182   3.237
 1362SOL    HW2 7838   3.364   3.231   3.276
 1363SOL     OW 7839   3.005   2.109   2.759
 1363SOL    HW1 7840   3.002   2.031   2.696
 1363SOL    HW2 7841   2.997   2.076   2.853
 1364SOL     OW 7842   2.516   3.286   2.471
 1364SOL    HW1 7843   2.589   3.286   2.402
 1364SOL    HW2 7844   2.431   3.254   2.429
 1365SOL     OW 7845   1.902   2.952   3.610
 1365SOL    HW1 7846   1.845   2.874   3.584
 1365SOL    HW2 7847   1.987   2.919   3.651
 1366SOL     OW 7848   2.436   2.063   3.534
 1366SOL    HW1 7849   2.475   2.090   3.445
 1366SOL    HW2 7850   2.416   2.146   3.587
 1367SOL     OW 7851   1.842   2.179   1.790
 1367SOL    HW1 7852   1.882   2.097   1.831
 1367SOL    HW2 7853   1.822   2.160   1.694
 1368SOL     OW 7854   3.168   2.741   3.261
 1368SOL    HW1 7855   3.125   2.814   3.208
 1368SOL    HW2 7856   3.265   2.735   3.238
 1369SOL     OW 7857   3.034   3.312   2.006
 1369SOL    HW1 7858   2.956   3.266   2.048
 1369SOL    HW2 7859   3.102   3.244   1.978
 1370SOL     OW 7860   2.421   2.473   3.546
 1370SOL    HW1 7861   2.497   2.536   3.558
 1370SOL    HW2 7862   2.428   2.398   3.611
 1371SOL     OW 7863   3.267   3.155   3.515
 1371SOL    HW1 7864   3.277   3.123   3.609
 1371SOL    HW2 7865   3.344   3.122   3.460
 1372SOL     OW 7866   2.287   2.561   2.596
 1372SOL    HW1 7867   2.326   2.653   2.586
 1372SOL    HW2 7868   2.221   2.545   2.522
 1373SOL     OW 7869   3.642   2.337   3.446
 1373SOL    HW1 7870   3.706   2.388   3.389
 1373SOL    HW2 7871   3.634   2.243   3.411
 1374SOL     OW 7872   2.819   3.146   2.069
 1374SOL    HW1 7873   2.741   3.187   2.021
 1374SOL    HW2 7874   2.838   3.056   2.031
 1375SOL     OW 7875   3.005   2.882   1.883
 1375SOL    HW1 7876   2.920   2.911   1.840
 1375SOL    HW2 7877   3.071   2.857   1.812
 1376SOL     OW 7878   1.994   3.108   2.606
 1376SOL    HW1 7879   2.025   3.032   2.664
 1376SOL    HW2 7880   1.943   3.174   2.661
 1377SOL     OW 7881   2.474   3.224   3.503
 1377SOL    HW1 7882   2.404   3.168   3.547
 1377SOL    HW2 7883   2.524   3.276   3.572
 1378SOL     OW 7884   2.425   2.110   2.295
 1378SOL    HW1 7885   2.422   2.132   2.198
 1378SOL    HW2 7886   2.345   2.148   2.341
 1379SOL     OW 7887   1.993   2.424   2.945
 1379SOL    HW1 7888   2.048   2.342   2.960
 1379SOL    HW2 7889   1.936   2.412   2.863
 1380SOL     OW 7890   2.779   3.463   2.505
 1380SOL    HW1 7891   2.783   3.396   2.432
 1380SOL    HW2 7892   2.686   3.466   2.542
 1381SOL     OW 7893   2.850   1.723   2.942
 1381SOL    HW1 7894   2.889   1.703   2.852
 1381SOL    HW2 7895   2.852   1.641   2.999
 1382SOL     OW 7896   2.437   3.399   3.285
 1382SOL    HW1 7897   2.448   3.339   3.364
 1382SOL    HW2 7898   2.525   3.409   3.239
 1383SOL     OW 7899   3.503   2.191   2.786
 1383SOL    HW1 7900   3.405   2.203   2.801
 1383SOL    HW2 7901   3.540   2.273   2.742
 1384SOL     OW 7902   1.822   2.895   2.217
 1384SOL    HW1 7903   1.853   2.848   2.300
 1384SOL    HW2 7904   1.767   2.834   2.161
 1385SOL     OW 7905   2.844   3.521   2.190
 1385SOL    HW1 7906   2.872   3.542   2.096
 1385SOL    HW2 7907   2.894   3.579   2.254
 1386SOL     OW 7908   2.128   2.513   3.848
 1386SOL    HW1 7909   2.031   2.508   3.873
 1386SOL    HW2 7910   2.140   2.483   3.754
 1387SOL     OW 7911   3.340   3.274   4.308
 1387SOL    HW1 7912   3.355   3.369   4.338
 1387SOL    HW2 7913   3.243   3.259   4.290
 1388SOL     OW 7914   2.949   2.523   4.415
 1388SOL    HW1 7915   2.981   2.617   4.405
 1388SOL    HW2 7916   2.960   2.475   4.327
 1389SOL     OW 7917   3.429   2.394   3.945
 1389SOL    HW1 7918   3.489   2.361   3.872
 1389SOL    HW2 7919   3.428   2.328   4.020
 1390SOL     OW 7920   2.630   3.020   4.830
 1390SOL    HW1 7921   2.724   3.047   4.851
 1390SOL    HW2 7922   2.595   3.077   4.756
 1391SOL     OW 7923   2.432   2.952   4.345
 1391SOL    HW1 7924   2.479   2.917   4.426
 1391SOL    HW2 7925   2.478   2.918   4.263
 1392SOL     OW 7926   3.370   2.369   4.416
 1392SOL    HW1 7927   3.283   2.382   4.463
 1392SOL    HW2 7928   3.426   2.451   4.425
 1393SOL     OW 7929   2.096   3.680   4.183
 1393SOL    HW1 7930   2.130   3.750   4.246
 1393SOL    HW2 7931   2.169   3.652   4.121
 1394SOL     OW 7932   2.187   3.429   4.271
 1394SOL    HW1 7933   2.140   3.515   4.254
 1394SOL    HW2 7934   2.210   3.422   4.368
 1395SOL     OW 7935   1.875   2.472   4.454
 1395SOL    HW1 7936   1.962   2.454   4.408
 1395SOL    HW2 7937   1.890   2.536   4.529
 1396SOL     OW 7938   3.519   2.606   4.415
 1396SOL    HW1 7939   3.613   2.630   4.439
 1396SOL    HW2 7940   3.510   2.599   4.316
 1397SOL     OW 7941   2.435   3.221   4.400
 1397SOL    HW1 7942   2.422   3.124   4.381
 1397SOL    HW2 7943   2.460   3.268   4.315
 1398SOL     OW 7944   2.693   1.755   4.171
 1398SOL    HW1 7945   2.624   1.814   4.129
 1398SOL    HW2 7946   2.648   1.694   4.237
 1399SOL     OW 7947   3.307   2.920   4.004
 1399SOL    HW1 7948   3.271   2.877   3.921
 1399SOL    HW2 7949   3.407   2.919   4.002
 1400SOL     OW 7950   3.054   2.174   4.701
 1400SOL    HW1 7951   3.024   2.084   4.670
 1400SOL    HW2 7952   3.140   2.165   4.751
 1401SOL     OW 7953   3.212   3.339   4.032
 1401SOL    HW1 7954   3.308   3.345   4.058
 1401SOL    HW2 7955   3.202   3.365   3.936
 1402SOL     OW 7956   1.938   2.652   4.652
 1402SOL    HW1 7957   2.037   2.648   4.668
 1402SOL    HW2 7958   1.912   2.747   4.635
 1403SOL     OW 7959   3.175   2.985   4.245
 1403SOL    HW1 7960   3.230   2.979   4.162
 1403SOL    HW2 7961   3.136   3.077   4.253
 1404SOL     OW 7962   2.390   2.222   4.761
 1404SOL    HW1 7963   2.359   2.274   4.841
 1404SOL    HW2 7964   2.334   2.247   4.682
 1405SOL     OW 7965   2.810   3.192   4.259
 1405SOL    HW1 7966   2.724   3.209   4.212
 1405SOL    HW2 7967   2.811   3.099   4.295
 1406SOL     OW 7968   2.199   3.650   4.558
 1406SOL    HW1 7969   2.224   3.553   4.552
 1406SOL    HW2 7970   2.268   3.699   4.612
 1407SOL     OW 7971   3.580   2.875   4.614
 1407SOL    HW1 7972   3.535   2.923   4.538
 1407SOL    HW2 7973   3.516   2.866   4.690
 1408SOL     OW 7974   2.289   2.823   3.910
 1408SOL    HW1 7975   2.293   2.888   3.986
 1408SOL    HW2 7976   2.291   2.730   3.946
 1409SOL     OW 7977   3.280   2.676   4.524
 1409SOL    HW1 7978   3.278   2.625   4.609
 1409SOL    HW2 7979   3.367   2.661   4.477
 1410SOL     OW 7980   2.303   3.614   4.019
 1410SOL    HW1 7981   2.358   3.682   4.068
 1410SOL    HW2 7982   2.364   3.547   3.976
 1411SOL     OW 7983   2.541   1.899   3.986
 1411SOL    HW1 7984   2.636   1.915   3.958
 1411SOL    HW2 7985   2.481   1.913   3.907
 1412SOL     OW 7986   2.603   3.151   4.598
 1412SOL    HW1 7987   2.696   3.184   4.582
 1412SOL    HW2 7988   2.542   3.193   4.531
 1413SOL     OW 7989   2.706   2.442   4.521
 1413SOL    HW1 7990   2.788   2.483   4.481
 1413SOL    HW2 7991   2.728   2.353   4.560
 1414SOL     OW 7992   3.265   3.114   3.787
 1414SOL    HW1 7993   3.259   3.070   3.876
 1414SOL    HW2 7994   3.237   3.209   3.794
 1415SOL     OW 7995   2.124   1.868   3.991
 1415SOL    HW1 7996   2.088   1.900   3.903
 1415SOL    HW2 7997   2.182   1.939   4.032
 1416SOL     OW 7998   2.992   2.353   3.884
 1416SOL    HW1 7999   2.920   2.403   3.836
 1416SOL    HW2 8000   3.071   2.412   3.898
 1417SOL     OW 8001   2.861   1.806   4.383
 1417SOL    HW1 8002   2.803   1.796   4.303
 1417SOL    HW2 8003   2.957   1.791   4.358
 1418SOL     OW 8004   3.232   2.928   4.599
 1418SOL    HW1 8005   3.242   2.833   4.571
 1418SOL    HW2 8006   3.289   2.986   4.541
 1419SOL     OW 8007   3.293   2.522   4.745
 1419SOL    HW1 8008   3.236   2.455   4.700
 1419SOL    HW2 8009   3.286   2.511   4.844
 1420SOL     OW 8010   2.388   3.174   3.822
 1420SOL    HW1 8011   2.347   3.151   3.910
 1420SOL    HW2 8012   2.337   3.129   3.749
 1421SOL     OW 8013   3.434   3.064   4.467
 1421SOL    HW1 8014   3.487   3.121   4.529
 1421SOL    HW2 8015   3.398   3.119   4.392
 1422SOL     OW 8016   2.302   2.055   4.061
 1422SOL    HW1 8017   2.396   2.023   4.051
 1422SOL    HW2 8018   2.291   2.141   4.012
 1423SOL     OW 8019   2.877   3.140   4.816
 1423SOL    HW1 8020   2.920   3.206   4.877
 1423SOL    HW2 8021   2.881   3.175   4.722
 1424SOL     OW 8022   3.394   2.882   4.812
 1424SOL    HW1 8023   3.364   2.920   4.898
 1424SOL    HW2 8024   3.325   2.899   4.741
 1425SOL     OW 8025   2.347   2.633   4.921
 1425SOL    HW1 8026   2.340   2.659   0.017
 1425SOL    HW2 8027   2.366   2.535   4.913
 1426SOL     OW 8028   2.297   3.010   4.108
 1426SOL    HW1 8029   2.263   3.102   4.095
 1426SOL    HW2 8030   2.310   2.992   4.206
 1427SOL     OW 8031   2.415   2.496   4.557
 1427SOL    HW1 8032   2.489   2.479   4.492
 1427SOL    HW2 8033   2.452   2.493   4.650
 1428SOL     OW 8034   3.077   3.241   4.243
 1428SOL    HW1 8035   3.107   3.283   4.158
 1428SOL    HW2 8036   2.977   3.233   4.242
 1429SOL     OW 8037   3.436   2.571   4.160
 1429SOL    HW1 8038   3.345   2.612   4.158
 1429SOL    HW2 8039   3.446   2.507   4.084
 1430SOL     OW 8040   2.544   2.770   4.786
 1430SOL    HW1 8041   2.574   2.860   4.818
 1430SOL    HW2 8042   2.465   2.741   4.840
 1431SOL     OW 8043   3.193   2.533   3.919
 1431SOL    HW1 8044   3.276   2.478   3.923
 1431SOL    HW2 8045   3.185   2.587   4.003
 1432SOL     OW 8046   2.596   2.507   4.765
 1432SOL    HW1 8047   2.647   2.492   4.680
 1432SOL    HW2 8048   2.590   2.605   4.782
 1433SOL     OW 8049   3.433   2.248   4.170
 1433SOL    HW1 8050   3.450   2.155   4.202
 1433SOL    HW2 8051   3.406   2.306   4.247
 1434SOL     OW 8052   3.208   2.786   3.792
 1434SOL    HW1 8053   3.194   2.690   3.818
 1434SOL    HW2 8054   3.169   2.801   3.701
 1435SOL     OW 8055   2.872   3.188   4.544
 1435SOL    HW1 8056   2.877   3.097   4.504
 1435SOL    HW2 8057   2.894   3.257   4.475
 1436SOL     OW 8058   2.214   2.655   4.684
 1436SOL    HW1 8059   2.252   2.662   4.776
 1436SOL    HW2 8060   2.281   2.610   4.624
 1437SOL     OW 8061   2.021   3.854   4.618
 1437SOL    HW1 8062   1.951   3.868   4.548
 1437SOL    HW2 8063   2.071   3.769   4.599
 1438SOL     OW 8064   2.265   3.385   4.533
 1438SOL    HW1 8065   2.215   3.329   4.599
 1438SOL    HW2 8066   2.336   3.329   4.489
 1439SOL     OW 8067   2.626   2.265   4.880
 1439SOL    HW1 8068   2.549   2.220   4.835
 1439SOL    HW2 8069   2.629   2.361   4.853
 1440SOL     OW 8070   2.274   2.308   3.945
 1440SOL    HW1 8071   2.264   2.313   4.045
 1440SOL    HW2 8072   2.219   2.380   3.903
 1441SOL     OW 8073   3.110   3.006   4.834
 1441SOL    HW1 8074   3.142   2.983   4.742
 1441SOL    HW2 8075   3.018   3.045   4.829
 1442SOL     OW 8076   3.194   2.696   4.134
 1442SOL    HW1 8077   3.139   2.713   4.216
 1442SOL    HW2 8078   3.224   2.783   4.095
 1443SOL     OW 8079   2.003   3.122   4.675
 1443SOL    HW1 8080   2.030   3.112   4.770
 1443SOL    HW2 8081   1.951   3.042   4.646
 1444SOL     OW 8082   3.495   2.030   4.322
 1444SOL    HW1 8083   3.593   2.045   4.339
 1444SOL    HW2 8084   3.444   2.048   4.406
 1445SOL     OW 8085   3.071   2.771   4.372
 1445SOL    HW1 8086   3.140   2.733   4.433
 1445SOL    HW2 8087   3.104   2.857   4.334
 1446SOL     OW 8088   2.461   3.428   3.892
 1446SOL    HW1 8089   2.535   3.463   3.834
 1446SOL    HW2 8090   2.434   3.337   3.861
 1447SOL     OW 8091   3.200   3.379   3.765
 1447SOL    HW1 8092   3.110   3.396   3.725
 1447SOL    HW2 8093   3.272   3.404   3.700
 1448SOL     OW 8094   2.838   2.949   4.399
 1448SOL    HW1 8095   2.760   2.909   4.446
 1448SOL    HW2 8096   2.911   2.881   4.391
 1449SOL     OW 8097   2.902   1.973   4.597
 1449SOL    HW1 8098   2.881   1.908   4.524
 1449SOL    HW2 8099   2.830   2.042   4.601
 1450SOL     OW 8100   2.490   3.320   4.157
 1450SOL    HW1 8101   2.398   3.299   4.124
 1450SOL    HW2 8102   2.533   3.386   4.097
 1451SOL     OW 8103   2.240   3.272   4.059
 1451SOL    HW1 8104   2.208   3.319   3.976
 1451SOL    HW2 8105   2.212   3.324   4.140
 1452SOL     OW 8106   1.943   2.200   3.832
 1452SOL    HW1 8107   1.854   2.156   3.842
 1452SOL    HW2 8108   1.930   2.290   3.788
 1453SOL     OW 8109   3.501   2.692   4.967
 1453SOL    HW1 8110   3.444   2.611   4.976
 1453SOL    HW2 8111   3.463   2.752   4.896
 1454SOL     OW 8112   3.541   2.860   0.177
 1454SOL    HW1 8113   3.629   2.906   0.169
 1454SOL    HW2 8114   3.526   2.803   0.096
 1455SOL     OW 8115   2.608   2.883   4.542
 1455SOL    HW1 8116   2.589   2.824   4.620
 1455SOL    HW2 8117   2.609   2.978   4.572
 1456SOL     OW 8118   2.240   2.310   4.208
 1456SOL    HW1 8119   2.260   2.227   4.260
 1456SOL    HW2 8120   2.229   2.387   4.271
 1457SOL     OW 8121   3.299   2.180   4.823
 1457SOL    HW1 8122   3.288   2.113   4.896
 1457SOL    HW2 8123   3.344   2.262   4.859
 1458SOL     OW 8124   3.141   2.383   4.557
 1458SOL    HW1 8125   3.066   2.434   4.516
 1458SOL    HW2 8126   3.105   2.302   4.603
 1459SOL     OW 8127   3.389   2.128   4.557
 1459SOL    HW1 8128   3.359   2.139   4.651
 1459SOL    HW2 8129   3.384   2.216   4.509
 1460SOL     OW 8130   2.073   4.006   0.926
 1460SOL    HW1 8131   2.103   3.989   1.020
 1460SOL    HW2 8132   2.016   3.930   0.895
 1461SOL     OW 8133   2.603   4.766   0.624
 1461SOL    HW1 8134   2.674   4.836   0.621
 1461SOL    HW2 8135   2.514   4.809   0.641
 1462SOL     OW 8136   2.599   4.894   1.848
 1462SOL    HW1 8137   2.630   4.939   1.932
 1462SOL    HW2 8138   2.552   4.960   1.790
 1463SOL     OW 8139   2.290   4.091   1.568
 1463SOL    HW1 8140   2.372   4.042   1.539
 1463SOL    HW2 8141   2.226   4.097   1.492
 1464SOL     OW 8142   3.509   4.113   0.742
 1464SOL    HW1 8143   3.411   4.109   0.722
 1464SOL    HW2 8144   3.522   4.147   0.836
 1465SOL     OW 8145   2.241   4.807   0.870
 1465SOL    HW1 8146   2.233   4.708   0.873
 1465SOL    HW2 8147   2.152   4.848   0.890
 1466SOL     OW 8148   2.474   4.672   0.129
 1466SOL    HW1 8149   2.489   4.719   0.042
 1466SOL    HW2 8150   2.506   4.731   0.204
 1467SOL     OW 8151   3.605   4.940   0.337
 1467SOL    HW1 8152   3.646   4.962   0.426
 1467SOL    HW2 8153   3.514   4.982   0.331
 1468SOL     OW 8154   2.100   3.973   1.723
 1468SOL    HW1 8155   2.174   4.016   1.670
 1468SOL    HW2 8156   2.073   4.034   1.798
 1469SOL     OW 8157   2.448   4.415   0.210
 1469SOL    HW1 8158   2.473   4.507   0.178
 1469SOL    HW2 8159   2.422   4.420   0.306
 1470SOL     OW 8160   3.217   4.093   1.020
 1470SOL    HW1 8161   3.133   4.043   0.999
 1470SOL    HW2 8162   3.285   4.029   1.058
 1471SOL     OW 8163   2.833   4.650   1.612
 1471SOL    HW1 8164   2.880   4.595   1.543
 1471SOL    HW2 8165   2.751   4.692   1.571
 1472SOL     OW 8166   1.989   4.674   0.755
 1472SOL    HW1 8167   2.071   4.619   0.771
 1472SOL    HW2 8168   1.937   4.683   0.840
 1473SOL     OW 8169   2.393   3.849   0.961
 1473SOL    HW1 8170   2.395   3.879   1.056
 1473SOL    HW2 8171   2.426   3.923   0.902
 1474SOL     OW 8172   3.750   4.853   0.789
 1474SOL    HW1 8173   3.727   4.761   0.760
 1474SOL    HW2 8174   3.709   4.872   0.878
 1475SOL     OW 8175   2.203   4.622   0.189
 1475SOL    HW1 8176   2.297   4.639   0.159
 1475SOL    HW2 8177   2.140   4.645   0.115
 1476SOL     OW 8178   2.105   4.108   1.375
 1476SOL    HW1 8179   2.133   4.163   1.296
 1476SOL    HW2 8180   2.025   4.150   1.418
 1477SOL     OW 8181   3.340   3.813   0.471
 1477SOL    HW1 8182   3.335   3.769   0.382
 1477SOL    HW2 8183   3.426   3.863   0.479
 1478SOL     OW 8184   2.377   4.424   0.476
 1478SOL    HW1 8185   2.324   4.357   0.528
 1478SOL    HW2 8186   2.326   4.510   0.472
 1479SOL     OW 8187   3.120   4.312   1.434
 1479SOL    HW1 8188   3.117   4.274   1.526
 1479SOL    HW2 8189   3.207   4.358   1.420
 1480SOL     OW 8190   2.892   4.018   0.576
 1480SOL    HW1 8191   2.839   3.992   0.495
 1480SOL    HW2 8192   2.989   4.023   0.553
 1481SOL     OW 8193   2.941   4.518   1.391
 1481SOL    HW1 8194   2.898   4.506   1.302
 1481SOL    HW2 8195   3.001   4.440   1.410
 1482SOL     OW 8196   2.349   4.864   0.637
 1482SOL    HW1 8197   2.312   4.853   0.729
 1482SOL    HW2 8198   2.306   4.799   0.575
 1483SOL     OW 8199   2.396   3.956   1.206
 1483SOL    HW1 8200   2.425   3.947   1.301
 1483SOL    HW2 8201   2.296   3.958   1.202
 1484SOL     OW 8202   2.786   4.259   0.645
 1484SOL    HW1 8203   2.725   4.280   0.569
 1484SOL    HW2 8204   2.818   4.165   0.637
 1485SOL     OW 8205   2.966   3.801   0.731
 1485SOL    HW1 8206   2.929   3.881   0.683
 1485SOL    HW2 8207   2.892   3.737   0.752
 1486SOL     OW 8208   3.482   4.210   0.994
 1486SOL    HW1 8209   3.384   4.207   1.011
 1486SOL    HW2 8210   3.529   4.241   1.077
 1487SOL     OW 8211   3.732   4.821   1.721
 1487SOL    HW1 8212   3.731   4.879   1.802
 1487SOL    HW2 8213   3.811   4.845   1.664
 1488SOL     OW 8214   3.671   4.933   1.036
 1488SOL    HW1 8215   3.654   0.027   1.006
 1488SOL    HW2 8216   3.630   4.919   1.126
 1489SOL     OW 8217   2.875   4.846   1.801
 1489SOL    HW1 8218   2.779   4.857   1.827
 1489SOL    HW2 8219   2.884   4.768   1.739
 1490SOL     OW 8220   2.531   4.804   0.360
 1490SOL    HW1 8221   2.580   4.764   0.438
 1490SOL    HW2 8222   2.519   4.902   0.374
 1491SOL     OW 8223   3.113   4.083   1.287
 1491SOL    HW1 8224   3.107   4.170   1.337
 1491SOL    HW2 8225   3.132   4.102   1.191
 1492SOL     OW 8226   2.296   4.682   0.436
 1492SOL    HW1 8227   2.379   4.728   0.404
 1492SOL    HW2 8228   2.236   4.664   0.358
 1493SOL     OW 8229   2.272   4.536   1.686
 1493SOL    HW1 8230   2.324   4.616   1.654
 1493SOL    HW2 8231   2.302   4.512   1.778
 1494SOL     OW 8232   2.885   3.618   1.666
 1494SOL    HW1 8233   2.951   3.569   1.609
 1494SOL    HW2 8234   2.915   3.616   1.761
 1495SOL     OW 8235   3.061   4.276   0.635
 1495SOL    HW1 8236   3.089   4.367   0.602
 1495SOL    HW2 8237   2.962   4.276   0.649
 1496SOL     OW 8238   2.130   3.922   1.177
 1496SOL    HW1 8239   2.102   3.975   1.258
 1496SOL    HW2 8240   2.139   3.826   1.202
 1497SOL     OW 8241   3.695   4.585   1.863
 1497SOL    HW1 8242   3.710   4.659   1.798
 1497SOL    HW2 8243   3.719   4.615   1.955
 1498SOL     OW 8244   2.179   3.811   0.520
 1498SOL    HW1 8245   2.145   3.905   0.532
 1498SOL    HW2 8246   2.203   3.773   0.610
 1499SOL     OW 8247   3.561   3.962   0.507
 1499SOL    HW1 8248   3.648   3.918   0.527
 1499SOL    HW2 8249   3.536   4.023   0.582
 1500SOL     OW 8250   2.749   4.491   0.793
 1500SOL    HW1 8251   2.650   4.506   0.788
 1500SOL    HW2 8252   2.771   4.404   0.750
 1501SOL     OW 8253   2.225   4.535   0.836
 1501SOL    HW1 8254   2.318   4.533   0.799
 1501SOL    HW2 8255   2.201   4.443   0.869
 1502SOL     OW 8256   2.175   4.261   0.886
 1502SOL    HW1 8257   2.126   4.175   0.901
 1502SOL    HW2 8258   2.219   4.259   0.796
 1503SOL     OW 8259   3.134   4.208   1.684
 1503SOL    HW1 8260   3.135   4.249   1.776
 1503SOL    HW2 8261   3.102   4.113   1.690
 1504SOL     OW 8262   3.014   3.864   1.415
 1504SOL    HW1 8263   3.023   3.878   1.514
 1504SOL    HW2 8264   3.054   3.942   1.367
 1505SOL     OW 8265   2.171   4.289   1.719
 1505SOL    HW1 8266   2.224   4.218   1.673
 1505SOL    HW2 8267   2.205   4.379   1.691
 1506SOL     OW 8268   3.212   4.786   1.717
 1506SOL    HW1 8269   3.301   4.832   1.716
 1506SOL    HW2 8270   3.165   4.802   1.630
 1507SOL     OW 8271   2.612   4.296   0.443
 1507SOL    HW1 8272   2.620   4.287   0.344
 1507SOL    HW2 8273   2.526   4.341   0.466
 1508SOL     OW 8274   3.621   4.282   1.219
 1508SOL    HW1 8275   3.616   4.296   1.318
 1508SOL    HW2 8276   3.709   4.241   1.196
 1509SOL     OW 8277   2.217   4.299   0.127
 1509SOL    HW1 8278   2.307   4.325   0.162
 1509SOL    HW2 8279   2.152   4.373   0.143
 1510SOL     OW 8280   2.005   4.931   0.941
 1510SOL    HW1 8281   2.027   4.946   1.037
 1510SOL    HW2 8282   1.920   4.878   0.933
 1511SOL     OW 8283   2.937   3.698   0.163
 1511SOL    HW1 8284   2.981   3.782   0.195
 1511SOL    HW2 8285   2.901   3.648   0.241
 1512SOL     OW 8286   3.809   3.876   0.565
 1512SOL    HW1 8287   3.836   3.839   0.476
 1512SOL    HW2 8288   3.873   3.843   0.635
 1513SOL     OW 8289   2.097   4.037   0.654
 1513SOL    HW1 8290   2.002   4.039   0.622
 1513SOL    HW2 8291   2.098   4.018   0.752
 1514SOL     OW 8292   2.638   4.788   1.468
 1514SOL    HW1 8293   2.635   4.756   1.374
 1514SOL    HW2 8294   2.652   4.887   1.469
 1515SOL     OW 8295   3.013   3.932   0.969
 1515SOL    HW1 8296   3.000   3.881   0.884
 1515SOL    HW2 8297   2.975   3.879   1.045
 1516SOL     OW 8298   2.472   3.911   1.465
 1516SOL    HW1 8299   2.571   3.898   1.457
 1516SOL    HW2 8300   2.433   3.838   1.521
 1517SOL     OW 8301   2.447   4.746   1.659
 1517SOL    HW1 8302   2.512   4.752   1.583
 1517SOL    HW2 8303   2.490   4.780   1.743
 1518SOL     OW 8304   3.458   4.892   1.758
 1518SOL    HW1 8305   3.475   4.964   1.825
 1518SOL    HW2 8306   3.545   4.852   1.728
 1519SOL     OW 8307   3.153   3.999   0.507
 1519SOL    HW1 8308   3.221   3.927   0.493
 1519SOL    HW2 8309   3.180   4.054   0.586
 1520SOL     OW 8310   2.479   4.536   0.706
 1520SOL    HW1 8311   2.530   4.619   0.683
 1520SOL    HW2 8312   2.453   4.488   0.622
 1521SOL     OW 8313   1.941   0.122   0.768
 1521SOL    HW1 8314   1.975   0.048   0.827
 1521SOL    HW2 8315   1.995   0.123   0.684
 1522SOL     OW 8316   2.296   4.221   0.639
 1522SOL    HW1 8317   2.384   4.179   0.666
 1522SOL    HW2 8318   2.228   4.149   0.628
 1523SOL     OW 8319   2.196   4.240   1.159
 1523SOL    HW1 8320   2.290   4.264   1.185
 1523SOL    HW2 8321   2.183   4.256   1.062
 1524SOL     OW 8322   2.937   3.767   1.172
 1524SOL    HW1 8323   2.942   3.797   1.267
 1524SOL    HW2 8324   3.019   3.715   1.149
 1525SOL     OW 8325   3.270   3.704   0.232
 1525SOL    HW1 8326   3.241   3.630   0.172
 1525SOL    HW2 8327   3.205   3.780   0.223
 1526SOL     OW 8328   3.238   4.115   0.743
 1526SOL    HW1 8329   3.172   4.183   0.711
 1526SOL    HW2 8330   3.230   4.106   0.843
 1527SOL     OW 8331   2.066   4.413   1.943
 1527SOL    HW1 8332   1.977   4.378   1.970
 1527SOL    HW2 8333   2.094   4.371   1.857
 1528SOL     OW 8334   1.972   4.084   2.814
 1528SOL    HW1 8335   2.035   4.037   2.876
 1528SOL    HW2 8336   1.887   4.032   2.807
 1529SOL     OW 8337   1.766   4.218   2.602
 1529SOL    HW1 8338   1.842   4.273   2.636
 1529SOL    HW2 8339   1.706   4.276   2.547
 1530SOL     OW 8340   2.945   4.564   2.529
 1530SOL    HW1 8341   3.030   4.611   2.555
 1530SOL    HW2 8342   2.902   4.526   2.611
 1531SOL     OW 8343   2.693   4.445   3.689
 1531SOL    HW1 8344   2.775   4.500   3.705
 1531SOL    HW2 8345   2.657   4.412   3.777
 1532SOL     OW 8346   2.583   4.936   3.554
 1532SOL    HW1 8347   2.651   0.009   3.552
 1532SOL    HW2 8348   2.491   4.977   3.552
 1533SOL     OW 8349   2.287   4.143   3.481
 1533SOL    HW1 8350   2.367   4.182   3.527
 1533SOL    HW2 8351   2.253   4.066   3.534
 1534SOL     OW 8352   3.621   4.273   2.652
 1534SOL    HW1 8353   3.563   4.303   2.576
 1534SOL    HW2 8354   3.666   4.353   2.694
 1535SOL     OW 8355   2.055   4.920   2.692
 1535SOL    HW1 8356   2.098   4.830   2.683
 1535SOL    HW2 8357   2.088   4.964   2.775
 1536SOL     OW 8358   2.521   4.693   2.026
 1536SOL    HW1 8359   2.547   4.753   1.950
 1536SOL    HW2 8360   2.578   4.714   2.105
 1537SOL     OW 8361   1.949   4.363   2.391
 1537SOL    HW1 8362   2.042   4.335   2.371
 1537SOL    HW2 8363   1.944   4.395   2.486
 1538SOL     OW 8364   3.686   4.586   2.517
 1538SOL    HW1 8365   3.719   4.531   2.594
 1538SOL    HW2 8366   3.737   4.672   2.514
 1539SOL     OW 8367   1.863   4.519   3.414
 1539SOL    HW1 8368   1.935   4.450   3.412
 1539SOL    HW2 8369   1.877   4.579   3.494
 1540SOL     OW 8370   3.499   4.813   2.045
 1540SOL    HW1 8371   3.426   4.759   2.004
 1540SOL    HW2 8372   3.569   4.751   2.082
 1541SOL     OW 8373   2.188   3.911   3.603
 1541SOL    HW1 8374   2.188   3.880   3.698
 1541SOL    HW2 8375   2.111   3.871   3.554
 1542SOL     OW 8376   2.349   4.496   1.948
 1542SOL    HW1 8377   2.412   4.565   1.982
 1542SOL    HW2 8378   2.256   4.517   1.980
 1543SOL     OW 8379   1.935   4.436   2.657
 1543SOL    HW1 8380   1.982   4.409   2.741
 1543SOL    HW2 8381   1.858   4.496   2.679
 1544SOL     OW 8382   3.463   4.245   3.681
 1544SOL    HW1 8383   3.478   4.333   3.636
 1544SOL    HW2 8384   3.435   4.177   3.613
 1545SOL     OW 8385   3.165   4.850   2.393
 1545SOL    HW1 8386   3.198   4.781   2.328
 1545SOL    HW2 8387   3.187   4.941   2.358
 1546SOL     OW 8388   3.655   4.750   2.780
 1546SOL    HW1 8389   3.704   4.793   2.704
 1546SOL    HW2 8390   3.559   4.777   2.777
 1547SOL     OW 8391   3.423   4.555   2.616
 1547SOL    HW1 8392   3.430   4.507   2.703
 1547SOL    HW2 8393   3.514   4.582   2.585
 1548SOL     OW 8394   3.301   3.906   2.278
 1548SOL    HW1 8395   3.258   3.916   2.188
 1548SOL    HW2 8396   3.356   3.988   2.297
 1549SOL     OW 8397   2.219   4.413   2.595
 1549SOL    HW1 8398   2.229   4.367   2.507
 1549SOL    HW2 8399   2.122   4.422   2.617
 1550SOL     OW 8400   2.665   4.006   3.581
 1550SOL    HW1 8401   2.581   3.950   3.581
 1550SOL    HW2 8402   2.684   4.037   3.674
 1551SOL     OW 8403   2.944   3.662   2.406
 1551SOL    HW1 8404   2.896   3.586   2.450
 1551SOL    HW2 8405   2.900   3.748   2.430
 1552SOL     OW 8406   3.396   4.840   2.740
 1552SOL    HW1 8407   3.322   4.777   2.715
 1552SOL    HW2 8408   3.381   4.929   2.696
 1553SOL     OW 8409   3.423   4.386   2.833
 1553SOL    HW1 8410   3.465   4.311   2.782
 1553SOL    HW2 8411   3.435   4.370   2.931
 1554SOL     OW 8412   3.699   4.443   2.279
 1554SOL    HW1 8413   3.677   4.495   2.361
 1554SOL    HW2 8414   3.722   4.349   2.304
 1555SOL     OW 8415   3.457   4.479   1.940
 1555SOL    HW1 8416   3.466   4.454   2.036
 1555SOL    HW2 8417   3.546   4.507   1.904
 1556SOL     OW 8418   3.556   4.997   3.634
 1556SOL    HW1 8419   3.595   4.920   3.585
 1556SOL    HW2 8420   3.478   0.034   3.583
 1557SOL     OW 8421   2.792   4.765   3.585
 1557SOL    HW1 8422   2.710   4.822   3.582
 1557SOL    HW2 8423   2.772   4.674   3.548
 1558SOL     OW 8424   2.686   4.790   2.228
 1558SOL    HW1 8425   2.660   4.746   2.315
 1558SOL    HW2 8426   2.784   4.808   2.228
 1559SOL     OW 8427   2.364   4.338   2.806
 1559SOL    HW1 8428   2.318   4.366   2.722
 1559SOL    HW2 8429   2.460   4.364   2.802
 1560SOL     OW 8430   3.459   4.348   2.446
 1560SOL    HW1 8431   3.422   4.419   2.505
 1560SOL    HW2 8432   3.448   4.375   2.350
 1561SOL     OW 8433   3.516   4.481   3.573
 1561SOL    HW1 8434   3.522   4.545   3.650
 1561SOL    HW2 8435   3.599   4.488   3.518
 1562SOL     OW 8436   2.748   3.758   3.679
 1562SOL    HW1 8437   2.732   3.846   3.634
 1562SOL    HW2 8438   2.818   3.707   3.629
 1563SOL     OW 8439   2.449   3.837   3.586
 1563SOL    HW1 8440   2.457   3.743   3.555
 1563SOL    HW2 8441   2.354   3.868   3.576
 1564SOL     OW 8442   3.148   4.530   2.833
 1564SOL    HW1 8443   3.158   4.595   2.758
 1564SOL    HW2 8444   3.233   4.480   2.846
 1565SOL     OW 8445   3.381   4.427   2.201
 1565SOL    HW1 8446   3.343   4.345   2.156
 1565SOL    HW2 8447   3.308   4.495   2.212
 1566SOL     OW 8448   2.157   3.992   2.981
 1566SOL    HW1 8449   2.141   4.005   3.079
 1566SOL    HW2 8450   2.246   4.031   2.957
 1567SOL     OW 8451   2.623   4.422   2.835
 1567SOL    HW1 8452   2.718   4.436   2.805
 1567SOL    HW2 8453   2.602   4.486   2.909
 1568SOL     OW 8454   3.493   4.687   3.761
 1568SOL    HW1 8455   3.411   4.696   3.704
 1568SOL    HW2 8456   3.467   4.680   3.857
 1569SOL     OW 8457   3.481   4.103   2.317
 1569SOL    HW1 8458   3.566   4.054   2.335
 1569SOL    HW2 8459   3.478   4.185   2.375
 1570SOL     OW 8460   2.890   4.451   2.786
 1570SOL    HW1 8461   2.975   4.492   2.819
 1570SOL    HW2 8462   2.903   4.353   2.774
 1571SOL     OW 8463   2.160   4.618   3.638
 1571SOL    HW1 8464   2.169   4.570   3.726
 1571SOL    HW2 8465   2.237   4.594   3.579
 1572SOL     OW 8466   3.366   4.175   2.083
 1572SOL    HW1 8467   3.425   4.162   2.004
 1572SOL    HW2 8468   3.415   4.146   2.166
 1573SOL     OW 8469   3.282   4.680   1.950
 1573SOL    HW1 8470   3.337   4.597   1.942
 1573SOL    HW2 8471   3.254   4.710   1.859
 1574SOL     OW 8472   2.077   4.331   2.856
 1574SOL    HW1 8473   2.044   4.237   2.853
 1574SOL    HW2 8474   2.177   4.332   2.857
 1575SOL     OW 8475   3.295   4.647   3.582
 1575SOL    HW1 8476   3.289   4.726   3.520
 1575SOL    HW2 8477   3.353   4.577   3.540
 1576SOL     OW 8478   3.506   4.281   3.084
 1576SOL    HW1 8479   3.537   4.321   3.170
 1576SOL    HW2 8480   3.585   4.251   3.030
 1577SOL     OW 8481   2.369   4.176   3.018
 1577SOL    HW1 8482   2.363   4.237   2.940
 1577SOL    HW2 8483   2.465   4.165   3.045
 1578SOL     OW 8484   2.236   4.257   2.081
 1578SOL    HW1 8485   2.329   4.278   2.051
 1578SOL    HW2 8486   2.173   4.323   2.042
 1579SOL     OW 8487   3.202   4.643   2.213
 1579SOL    HW1 8488   3.104   4.622   2.218
 1579SOL    HW2 8489   3.226   4.661   2.118
 1580SOL     OW 8490   3.703   3.943   2.370
 1580SOL    HW1 8491   3.787   3.898   2.340
 1580SOL    HW2 8492   3.632   3.875   2.386
 1581SOL     OW 8493   3.189   4.687   2.608
 1581SOL    HW1 8494   3.272   4.634   2.590
 1581SOL    HW2 8495   3.174   4.752   2.534
 1582SOL     OW 8496   2.068   4.133   2.564
 1582SOL    HW1 8497   1.980   4.131   2.516
 1582SOL    HW2 8498   2.054   4.113   2.661
 1583SOL     OW 8499   2.944   4.858   2.224
 1583SOL    HW1 8500   2.993   4.878   2.139
 1583SOL    HW2 8501   3.008   4.861   2.301
 1584SOL     OW 8502   1.897   4.687   3.618
 1584SOL    HW1 8503   1.850   4.678   3.705
 1584SOL    HW2 8504   1.995   4.672   3.632
 1585SOL     OW 8505   2.035   4.103   1.966
 1585SOL    HW1 8506   1.956   4.161   1.986
 1585SOL    HW2 8507   2.117   4.143   2.007
 1586SOL     OW 8508   2.514   4.240   3.613
 1586SOL    HW1 8509   2.570   4.322   3.622
 1586SOL    HW2 8510   2.571   4.163   3.585
 1587SOL     OW 8511   3.084   4.881   1.983
 1587SOL    HW1 8512   3.008   4.879   1.918
 1587SOL    HW2 8513   3.146   4.805   1.965
 1588SOL     OW 8514   1.847   4.950   2.521
 1588SOL    HW1 8515   1.921   4.931   2.586
 1588SOL    HW2 8516   1.835   0.048   2.511
 1589SOL     OW 8517   3.767   4.020   2.969
 1589SOL    HW1 8518   3.780   4.119   2.971
 1589SOL    HW2 8519   3.682   3.999   2.920
 1590SOL     OW 8520   2.201   4.269   2.357
 1590SOL    HW1 8521   2.223   4.246   2.263
 1590SOL    HW2 8522   2.186   4.185   2.410
 1591SOL     OW 8523   2.192   4.098   3.229
 1591SOL    HW1 8524   2.223   4.117   3.322
 1591SOL    HW2 8525   2.255   4.140   3.163
 1592SOL     OW 8526   2.833   3.480   2.982
 1592SOL    HW1 8527   2.861   3.496   2.887
 1592SOL    HW2 8528   2.913   3.478   3.041
 1593SOL     OW 8529   2.684   0.013   2.077
 1593SOL    HW1 8530   2.677   4.929   2.130
 1593SOL    HW2 8531   2.727   0.084   2.133
 1594SOL     OW 8532   2.172   4.463   3.866
 1594SOL    HW1 8533   2.247   4.398   3.860
 1594SOL    HW2 8534   2.085   4.414   3.877
 1595SOL     OW 8535   2.185   4.021   4.757
 1595SOL    HW1 8536   2.179   4.023   4.856
 1595SOL    HW2 8537   2.110   3.965   4.721
 1596SOL     OW 8538   2.975   4.512   4.523
 1596SOL    HW1 8539   3.015   4.500   4.432
 1596SOL    HW2 8540   2.929   4.600   4.528
 1597SOL     OW 8541   2.641   4.892   4.742
 1597SOL    HW1 8542   2.573   4.830   4.782
 1597SOL    HW2 8543   2.599   4.943   4.667
 1598SOL     OW 8544   2.612   4.644   4.416
 1598SOL    HW1 8545   2.695   4.663   4.469
 1598SOL    HW2 8546   2.538   4.704   4.447
 1599SOL     OW 8547   3.583   3.976   4.397
 1599SOL    HW1 8548   3.559   4.071   4.375
 1599SOL    HW2 8549   3.652   3.975   4.468
 1600SOL     OW 8550   2.233   4.809   4.707
 1600SOL    HW1 8551   2.216   4.714   4.680
 1600SOL    HW2 8552   2.146   4.854   4.729
 1601SOL     OW 8553   2.012   4.520   4.251
 1601SOL    HW1 8554   1.973   4.436   4.289
 1601SOL    HW2 8555   2.013   4.591   4.321
 1602SOL     OW 8556   2.084   4.676   4.951
 1602SOL    HW1 8557   2.155   4.618   4.910
 1602SOL    HW2 8558   2.041   4.731   4.880
 1603SOL     OW 8559   2.031   4.698   4.457
 1603SOL    HW1 8560   2.080   4.645   4.526
 1603SOL    HW2 8561   1.946   4.734   4.495
 1604SOL     OW 8562   2.738   4.107   3.824
 1604SOL    HW1 8563   2.823   4.158   3.811
 1604SOL    HW2 8564   2.743   4.053   3.908
 1605SOL     OW 8565   2.368   3.824   4.674
 1605SOL    HW1 8566   2.310   3.892   4.720
 1605SOL    HW2 8567   2.437   3.870   4.619
 1606SOL     OW 8568   2.239   4.575   4.117
 1606SOL    HW1 8569   2.233   4.550   4.020
 1606SOL    HW2 8570   2.156   4.545   4.164
 1607SOL     OW 8571   2.508   3.869   3.842
 1607SOL    HW1 8572   2.599   3.833   3.865
 1607SOL    HW2 8573   2.489   3.850   3.746
 1608SOL     OW 8574   2.399   3.830   4.157
 1608SOL    HW1 8575   2.341   3.838   4.239
 1608SOL    HW2 8576   2.414   3.921   4.118
 1609SOL     OW 8577   2.227   3.819   3.857
 1609SOL    HW1 8578   2.315   3.866   3.858
 1609SOL    HW2 8579   2.233   3.734   3.909
 1610SOL     OW 8580   2.716   3.978   4.063
 1610SOL    HW1 8581   2.624   4.018   4.067
 1610SOL    HW2 8582   2.729   3.915   4.140
 1611SOL     OW 8583   2.405   4.798   4.497
 1611SOL    HW1 8584   2.347   4.818   4.576
 1611SOL    HW2 8585   2.352   4.808   4.413
 1612SOL     OW 8586   2.955   4.273   3.804
 1612SOL    HW1 8587   2.923   4.364   3.779
 1612SOL    HW2 8588   3.054   4.272   3.808
 1613SOL     OW 8589   3.229   0.047   4.514
 1613SOL    HW1 8590   3.237   4.948   4.503
 1613SOL    HW2 8591   3.312   0.091   4.480
 1614SOL     OW 8592   3.234   4.294   3.830
 1614SOL    HW1 8593   3.231   4.234   3.910
 1614SOL    HW2 8594   3.317   4.276   3.778
 1615SOL     OW 8595   2.459   4.062   4.018
 1615SOL    HW1 8596   2.476   3.997   3.945
 1615SOL    HW2 8597   2.411   4.142   3.981
 1616SOL     OW 8598   2.308   4.495   4.920
 1616SOL    HW1 8599   2.341   4.456   0.006
 1616SOL    HW2 8600   2.269   4.422   4.864
 1617SOL     OW 8601   2.220   4.796   4.290
 1617SOL    HW1 8602   2.151   4.758   4.351
 1617SOL    HW2 8603   2.242   4.730   4.218
 1618SOL     OW 8604   2.362   4.354   4.550
 1618SOL    HW1 8605   2.370   4.394   4.458
 1618SOL    HW2 8606   2.436   4.389   4.607
 1619SOL     OW 8607   2.447   4.717   4.847
 1619SOL    HW1 8608   2.376   4.772   4.802
 1619SOL    HW2 8609   2.407   4.632   4.881
 1620SOL     OW 8610   2.178   4.049   0.023
 1620SOL    HW1 8611   2.195   4.142   0.055
 1620SOL    HW2 8612   2.134   3.996   0.096
 1621SOL     OW 8613   2.545   4.488   4.703
 1621SOL    HW1 8614   2.644   4.475   4.714
 1621SOL    HW2 8615   2.519   4.577   4.739
 1622SOL     OW 8616   2.229   3.844   4.367
 1622SOL    HW1 8617   2.241   3.933   4.411
 1622SOL    HW2 8618   2.218   3.774   4.436
 1623SOL     OW 8619   2.821   4.480   4.748
 1623SOL    HW1 8620   2.852   4.423   4.823
 1623SOL    HW2 8621   2.881   4.468   4.669
 1624SOL     OW 8622   3.185   4.565   3.816
 1624SOL    HW1 8623   3.202   4.467   3.827
 1624SOL    HW2 8624   3.217   4.594   3.726
 1625SOL     OW 8625   2.178   4.554   4.631
 1625SOL    HW1 8626   2.254   4.522   4.575
 1625SOL    HW2 8627   2.148   4.481   4.693
 1626SOL     OW 8628   2.197   4.306   4.758
 1626SOL    HW1 8629   2.173   4.210   4.776
 1626SOL    HW2 8630   2.259   4.310   4.680
 1627SOL     OW 8631   3.084   3.914   0.256
 1627SOL    HW1 8632   3.103   3.947   0.349
 1627SOL    HW2 8633   3.090   3.991   0.192
 1628SOL     OW 8634   2.625   4.332   3.926
 1628SOL    HW1 8635   2.655   4.245   3.888
 1628SOL    HW2 8636   2.685   4.357   4.002
 1629SOL     OW 8637   2.373   4.284   3.848
 1629SOL    HW1 8638   2.455   4.318   3.895
 1629SOL    HW2 8639   2.397   4.256   3.755
 1630SOL     OW 8640   1.966   4.849   4.762
 1630SOL    HW1 8641   1.945   4.938   4.801
 1630SOL    HW2 8642   1.899   4.827   4.691
 1631SOL     OW 8643   3.545   3.789   4.201
 1631SOL    HW1 8644   3.581   3.703   4.237
 1631SOL    HW2 8645   3.552   3.860   4.270
 1632SOL     OW 8646   2.279   4.078   4.505
 1632SOL    HW1 8647   2.314   4.172   4.501
 1632SOL    HW2 8648   2.240   4.062   4.596
 1633SOL     OW 8649   3.459   0.139   0.028
 1633SOL    HW1 8650   3.555   0.113   0.045
 1633SOL    HW2 8651   3.453   0.237   0.013
 1634SOL     OW 8652   3.747   3.976   0.248
 1634SOL    HW1 8653   3.668   3.984   0.308
 1634SOL    HW2 8654   3.796   3.890   0.267
 1635SOL     OW 8655   3.243   4.115   4.034
 1635SOL    HW1 8656   3.334   4.083   4.060
 1635SOL    HW2 8657   3.175   4.046   4.059
 1636SOL     OW 8658   2.393   4.502   4.331
 1636SOL    HW1 8659   2.479   4.550   4.346
 1636SOL    HW2 8660   2.354   4.529   4.243
 1637SOL     OW 8661   2.806   4.715   4.603
 1637SOL    HW1 8662   2.804   4.642   4.672
 1637SOL    HW2 8663   2.765   4.797   4.641
 1638SOL     OW 8664   2.914   4.584   3.763
 1638SOL    HW1 8665   2.888   4.672   3.723
 1638SOL    HW2 8666   3.009   4.589   3.796
 1639SOL     OW 8667   1.789   0.012   4.406
 1639SOL    HW1 8668   1.781   4.940   4.476
 1639SOL    HW2 8669   1.881   0.009   4.367
 1640SOL     OW 8670   3.874   0.273   1.035
 1640SOL    HW1 8671   3.915   0.232   1.117
 1640SOL    HW2 8672   3.781   0.238   1.024
 1641SOL     OW 8673   3.750   0.328   0.739
 1641SOL    HW1 8674   3.758   0.422   0.773
 1641SOL    HW2 8675   3.702   0.329   0.651
 1642SOL     OW 8676   4.145   1.266   1.013
 1642SOL    HW1 8677   4.085   1.196   0.975
 1642SOL    HW2 8678   4.238   1.230   1.022
 1643SOL     OW 8679   4.595   0.792   1.746
 1643SOL    HW1 8680   4.652   0.857   1.797
 1643SOL    HW2 8681   4.613   0.801   1.649
 1644SOL     OW 8682   4.460   0.939   0.700
 1644SOL    HW1 8683   4.526   0.981   0.762
 1644SOL    HW2 8684   4.374   0.991   0.702
 1645SOL     OW 8685   4.443   1.170   1.683
 1645SOL    HW1 8686   4.508   1.244   1.703
 1645SOL    HW2 8687   4.350   1.206   1.684
 1646SOL     OW 8688   3.879   1.532   1.034
 1646SOL    HW1 8689   3.789   1.489   1.030
 1646SOL    HW2 8690   3.931   1.508   0.952
 1647SOL     OW 8691   3.971   1.710   0.561
 1647SOL    HW1 8692   4.001   1.737   0.653
 1647SOL    HW2 8693   4.050   1.706   0.501
 1648SOL     OW 8694   4.807   1.304   1.544
 1648SOL    HW1 8695   4.755   1.361   1.607
 1648SOL    HW2 8696   4.782   1.208   1.556
 1649SOL     OW 8697   3.940   1.442   0.504
 1649SOL    HW1 8698   3.939   1.537   0.535
 1649SOL    HW2 8699   3.914   1.382   0.579
 1650SOL     OW 8700   4.003   1.055   0.881
 1650SOL    HW1 8701   4.017   0.957   0.868
 1650SOL    HW2 8702   3.914   1.070   0.925
 1651SOL     OW 8703   4.372   1.922   1.472
 1651SOL    HW1 8704   4.392   1.852   1.404
 1651SOL    HW2 8705   4.281   1.960   1.455
 1652SOL     OW 8706   4.146   1.070   0.150
 1652SOL    HW1 8707   4.222   1.014   0.182
 1652SOL    HW2 8708   4.060   1.031   0.182
 1653SOL     OW 8709   3.845   0.574   0.826
 1653SOL    HW1 8710   3.916   0.586   0.757
 1653SOL    HW2 8711   3.807   0.663   0.850
 1654SOL     OW 8712   3.711   1.763   0.096
 1654SOL    HW1 8713   3.665   1.683   0.057
 1654SOL    HW2 8714   3.739   1.743   0.189
 1655SOL     OW 8715   4.156   1.307   0.658
 1655SOL    HW1 8716   4.190   1.214   0.677
 1655SOL    HW2 8717   4.166   1.327   0.561
 1656SOL     OW 8718   4.626   4.993   0.502
 1656SOL    HW1 8719   4.631   0.093   0.504
 1656SOL    HW2 8720   4.536   4.964   0.532
 1657SOL     OW 8721   4.035   0.060   1.867
 1657SOL    HW1 8722   4.123   0.044   1.822
 1657SOL    HW2 8723   4.005   0.153   1.848
 1658SOL     OW 8724   4.455   0.715   0.145
 1658SOL    HW1 8725   4.484   0.709   0.050
 1658SOL    HW2 8726   4.440   0.811   0.170
 1659SOL     OW 8727   4.597   0.455   1.436
 1659SOL    HW1 8728   4.563   0.421   1.524
 1659SOL    HW2 8729   4.525   0.444   1.366
 1660SOL     OW 8730   4.674   0.820   1.483
 1660SOL    HW1 8731   4.737   0.742   1.488
 1660SOL    HW2 8732   4.624   0.817   1.396
 1661SOL     OW 8733   4.749   0.470   1.204
 1661SOL    HW1 8734   4.694   0.449   1.285
 1661SOL    HW2 8735   4.711   0.422   1.125
 1662SOL     OW 8736   4.760   0.456   0.355
 1662SOL    HW1 8737   4.809   0.504   0.427
 1662SOL    HW2 8738   4.670   0.497   0.342
 1663SOL     OW 8739   3.860   1.865   1.387
 1663SOL    HW1 8740   3.932   1.804   1.354
 1663SOL    HW2 8741   3.797   1.887   1.312
 1664SOL     OW 8742   4.558   0.304   0.166
 1664SOL    HW1 8743   4.582   0.368   0.093
 1664SOL    HW2 8744   4.636   0.244   0.185
 1665SOL     OW 8745   4.416   0.330   0.917
 1665SOL    HW1 8746   4.358   0.273   0.975
 1665SOL    HW2 8747   4.365   0.410   0.886
 1666SOL     OW 8748   4.071   1.738   0.821
 1666SOL    HW1 8749   4.071   1.639   0.831
 1666SOL    HW2 8750   4.164   1.774   0.831
 1667SOL     OW 8751   4.217   1.337   1.709
 1667SOL    HW1 8752   4.280   1.411   1.683
 1667SOL    HW2 8753   4.123   1.369   1.700
 1668SOL     OW 8754   4.685   1.668   0.119
 1668SOL    HW1 8755   4.626   1.699   0.193
 1668SOL    HW2 8756   4.764   1.619   0.156
 1669SOL     OW 8757   4.162   1.694   0.374
 1669SOL    HW1 8758   4.112   1.758   0.316
 1669SOL    HW2 8759   4.228   1.643   0.318
 1670SOL     OW 8760   4.076   1.753   1.253
 1670SOL    HW1 8761   4.105   1.657   1.246
 1670SOL    HW2 8762   4.025   1.778   1.171
 1671SOL     OW 8763   4.351   0.126   0.098
 1671SOL    HW1 8764   4.429   0.187   0.113
 1671SOL    HW2 8765   4.374   0.061   0.026
 1672SOL     OW 8766   4.655   0.577   0.844
 1672SOL    HW1 8767   4.614   0.565   0.754
 1672SOL    HW2 8768   4.672   0.488   0.886
 1673SOL     OW 8769   4.353   4.954   0.533
 1673SOL    HW1 8770   4.281   4.931   0.597
 1673SOL    HW2 8771   4.331   0.040   0.487
 1674SOL     OW 8772   3.980   0.111   0.283
 1674SOL    HW1 8773   3.999   0.108   0.382
 1674SOL    HW2 8774   3.934   0.027   0.255
 1675SOL     OW 8775   4.593   0.260   0.466
 1675SOL    HW1 8776   4.514   0.250   0.405
 1675SOL    HW2 8777   4.663   0.315   0.421
 1676SOL     OW 8778   4.832   0.596   1.479
 1676SOL    HW1 8779   4.750   0.539   1.474
 1676SOL    HW2 8780   4.910   0.544   1.446
 1677SOL     OW 8781   4.209   1.045   0.693
 1677SOL    HW1 8782   4.142   1.039   0.767
 1677SOL    HW2 8783   4.162   1.033   0.605
 1678SOL     OW 8784   4.663   0.480   4.987
 1678SOL    HW1 8785   4.633   0.573   4.965
 1678SOL    HW2 8786   4.756   0.484   0.022
 1679SOL     OW 8787   3.839   0.513   1.343
 1679SOL    HW1 8788   3.930   0.484   1.312
 1679SOL    HW2 8789   3.846   0.603   1.386
 1680SOL     OW 8790   4.284   0.198   1.119
 1680SOL    HW1 8791   4.315   0.104   1.128
 1680SOL    HW2 8792   4.188   0.205   1.147
 1681SOL     OW 8793   4.545   0.505   0.605
 1681SOL    HW1 8794   4.516   0.547   0.519
 1681SOL    HW2 8795   4.552   0.406   0.593
 1682SOL     OW 8796   4.265   1.314   0.118
 1682SOL    HW1 8797   4.213   1.230   0.136
 1682SOL    HW2 8798   4.292   1.316   0.022
 1683SOL     OW 8799   4.294   0.155   0.367
 1683SOL    HW1 8800   4.313   0.133   0.271
 1683SOL    HW2 8801   4.208   0.207   0.373
 1684SOL     OW 8802   4.845   1.447   1.318
 1684SOL    HW1 8803   4.825   1.390   1.397
 1684SOL    HW2 8804   4.932   1.419   1.277
 1685SOL     OW 8805   4.695   1.063   1.607
 1685SOL    HW1 8806   4.603   1.094   1.630
 1685SOL    HW2 8807   4.690   0.979   1.553
 1686SOL     OW 8808   4.416   0.836   0.437
 1686SOL    HW1 8809   4.455   0.881   0.517
 1686SOL    HW2 8810   4.425   0.895   0.357
 1687SOL     OW 8811   4.048   1.087   0.465
 1687SOL    HW1 8812   4.094   1.168   0.429
 1687SOL    HW2 8813   3.997   1.042   0.391
 1688SOL     OW 8814   4.295   0.570   0.885
 1688SOL    HW1 8815   4.295   0.619   0.797
 1688SOL    HW2 8816   4.362   0.612   0.946
 1689SOL     OW 8817   4.095   1.479   1.185
 1689SOL    HW1 8818   4.008   1.504   1.143
 1689SOL    HW2 8819   4.134   1.401   1.137
 1690SOL     OW 8820   4.731   0.134   1.841
 1690SOL    HW1 8821   4.763   0.208   1.782
 1690SOL    HW2 8822   4.682   0.066   1.785
 1691SOL     OW 8823   4.916   0.456   0.126
 1691SOL    HW1 8824   4.969   0.373   0.110
 1691SOL    HW2 8825   4.862   0.447   0.209
 1692SOL     OW 8826   4.029   0.177   1.239
 1692SOL    HW1 8827   4.040   0.275   1.255
 1692SOL    HW2 8828   4.071   0.125   1.314
 1693SOL     OW 8829   4.502   0.650   1.054
 1693SOL    HW1 8830   4.556   0.630   0.972
 1693SOL    HW2 8831   4.557   0.702   1.119
 1694SOL     OW 8832   4.016   0.113   0.555
 1694SOL    HW1 8833   4.018   0.182   0.627
 1694SOL    HW2 8834   4.067   0.032   0.584
 1695SOL     OW 8835   4.887   0.666   0.978
 1695SOL    HW1 8836   4.843   0.722   1.048
 1695SOL    HW2 8837   4.820   0.642   0.908
 1696SOL     OW 8838   4.731   1.600   1.647
 1696SOL    HW1 8839   4.666   1.676   1.636
 1696SOL    HW2 8840   4.789   1.595   1.566
 1697SOL     OW 8841   4.350   0.913   1.731
 1697SOL    HW1 8842   4.378   1.009   1.720
 1697SOL    HW2 8843   4.430   0.856   1.747
 1698SOL     OW 8844   4.058   0.794   0.828
 1698SOL    HW1 8845   4.131   0.772   0.763
 1698SOL    HW2 8846   4.060   0.728   0.903
 1699SOL     OW 8847   4.056   0.559   1.007
 1699SOL    HW1 8848   3.978   0.528   0.953
 1699SOL    HW2 8849   4.140   0.547   0.955
 1700SOL     OW 8850   4.811   0.365   1.716
 1700SOL    HW1 8851   4.762   0.445   1.751
 1700SOL    HW2 8852   4.908   0.372   1.737
 1701SOL     OW 8853   3.907   1.801   1.041
 1701SOL    HW1 8854   3.879   1.705   1.047
 1701SOL    HW2 8855   3.955   1.816   0.955
 1702SOL     OW 8856   4.069   1.469   0.849
 1702SOL    HW1 8857   4.100   1.410   0.924
 1702SOL    HW2 8858   4.092   1.427   0.761
 1703SOL     OW 8859   4.731   0.741   1.205
 1703SOL    HW1 8860   4.799   0.783   1.265
 1703SOL    HW2 8861   4.742   0.641   1.208
 1704SOL     OW 8862   3.650   0.509   1.153
 1704SOL    HW1 8863   3.689   0.471   1.069
 1704SOL    HW2 8864   3.717   0.503   1.226
 1705SOL     OW 8865   4.506   0.528   0.329
 1705SOL    HW1 8866   4.501   0.447   0.270
 1705SOL    HW2 8867   4.478   0.609   0.276
 1706SOL     OW 8868   3.988   1.472   1.652
 1706SOL    HW1 8869   3.984   1.572   1.646
 1706SOL    HW2 8870   3.985   1.432   1.561
 1707SOL     OW 8871   4.441   0.416   1.217
 1707SOL    HW1 8872   4.387   0.341   1.179
 1707SOL    HW2 8873   4.448   0.490   1.150
 1708SOL     OW 8874   4.478   1.791   1.690
 1708SOL    HW1 8875   4.539   1.855   1.737
 1708SOL    HW2 8876   4.433   1.838   1.614
 1709SOL     OW 8877   4.811   0.149   0.169
 1709SOL    HW1 8878   4.761   0.122   0.087
 1709SOL    HW2 8879   4.806   0.076   0.237
 1710SOL     OW 8880   4.336   1.585   0.198
 1710SOL    HW1 8881   4.340   1.650   0.123
 1710SOL    HW2 8882   4.325   1.492   0.161
 1711SOL     OW 8883   4.009   0.266   0.779
 1711SOL    HW1 8884   3.912   0.288   0.765
 1711SOL    HW2 8885   4.027   0.253   0.876
 1712SOL     OW 8886   4.011   1.358   1.412
 1712SOL    HW1 8887   4.045   1.408   1.332
 1712SOL    HW2 8888   4.058   1.270   1.419
 1713SOL     OW 8889   4.675   0.340   0.979
 1713SOL    HW1 8890   4.578   0.332   0.959
 1713SOL    HW2 8891   4.724   0.260   0.942
 1714SOL     OW 8892   4.161   1.328   0.387
 1714SOL    HW1 8893   4.202   1.351   0.298
 1714SOL    HW2 8894   4.082   1.386   0.402
 1715SOL     OW 8895   4.439   0.061   1.502
 1715SOL    HW1 8896   4.511   0.084   1.435
 1715SOL    HW2 8897   4.481   0.023   1.584
 1716SOL     OW 8898   3.789   0.308   0.266
 1716SOL    HW1 8899   3.799   0.393   0.215
 1716SOL    HW2 8900   3.877   0.260   0.267
 1717SOL     OW 8901   4.281   0.733   0.670
 1717SOL    HW1 8902   4.352   0.801   0.689
 1717SOL    HW2 8903   4.283   0.709   0.573
 1718SOL     OW 8904   3.878   1.201   0.663
 1718SOL    HW1 8905   3.926   1.168   0.744
 1718SOL    HW2 8906   3.925   1.167   0.581
 1719SOL     OW 8907   4.390   1.534   1.649
 1719SOL    HW1 8908   4.470   1.478   1.669
 1719SOL    HW2 8909   4.411   1.630   1.667
 1720SOL     OW 8910   4.080   0.440   1.245
 1720SOL    HW1 8911   4.160   0.475   1.292
 1720SOL    HW2 8912   4.070   0.485   1.157
 1721SOL     OW 8913   4.512   1.789   0.296
 1721SOL    HW1 8914   4.439   1.721   0.291
 1721SOL    HW2 8915   4.514   1.829   0.388
 1722SOL     OW 8916   3.909   0.556   1.937
 1722SOL    HW1 8917   3.961   0.631   1.978
 1722SOL    HW2 8918   3.813   0.583   1.927
 1723SOL     OW 8919   3.942   0.158   2.675
 1723SOL    HW1 8920   3.946   0.250   2.714
 1723SOL    HW2 8921   3.899   0.095   2.740
 1724SOL     OW 8922   3.616   0.400   2.345
 1724SOL    HW1 8923   3.601   0.450   2.259
 1724SOL    HW2 8924   3.701   0.348   2.339
 1725SOL     OW 8925   4.303   1.277   3.138
 1725SOL    HW1 8926   4.226   1.265   3.075
 1725SOL    HW2 8927   4.309   1.373   3.165
 1726SOL     OW 8928   4.420   1.119   2.933
 1726SOL    HW1 8929   4.373   1.168   3.006
 1726SOL    HW2 8930   4.511   1.158   2.919
 1727SOL     OW 8931   4.681   0.761   3.728
 1727SOL    HW1 8932   4.718   0.833   3.788
 1727SOL    HW2 8933   4.700   0.785   3.633
 1728SOL     OW 8934   4.114   1.283   2.947
 1728SOL    HW1 8935   4.075   1.218   2.881
 1728SOL    HW2 8936   4.151   1.361   2.898
 1729SOL     OW 8937   4.093   1.567   2.386
 1729SOL    HW1 8938   4.100   1.659   2.425
 1729SOL    HW2 8939   4.020   1.565   2.317
 1730SOL     OW 8940   4.003   1.082   2.783
 1730SOL    HW1 8941   4.067   1.007   2.799
 1730SOL    HW2 8942   3.910   1.051   2.799
 1731SOL     OW 8943   4.244   1.774   3.342
 1731SOL    HW1 8944   4.170   1.722   3.385
 1731SOL    HW2 8945   4.212   1.809   3.254
 1732SOL     OW 8946   4.303   1.416   2.606
 1732SOL    HW1 8947   4.249   1.332   2.600
 1732SOL    HW2 8948   4.282   1.475   2.528
 1733SOL     OW 8949   4.707   0.065   2.465
 1733SOL    HW1 8950   4.772   0.100   2.398
 1733SOL    HW2 8951   4.636   0.012   2.418
 1734SOL     OW 8952   4.587   0.601   3.270
 1734SOL    HW1 8953   4.584   0.605   3.370
 1734SOL    HW2 8954   4.568   0.508   3.240
 1735SOL     OW 8955   4.745   0.819   3.468
 1735SOL    HW1 8956   4.784   0.729   3.452
 1735SOL    HW2 8957   4.708   0.855   3.383
 1736SOL     OW 8958   4.841   0.438   3.224
 1736SOL    HW1 8959   4.744   0.425   3.202
 1736SOL    HW2 8960   4.875   0.521   3.180
 1737SOL     OW 8961   4.689   0.346   2.013
 1737SOL    HW1 8962   4.676   0.420   1.948
 1737SOL    HW2 8963   4.681   0.258   1.966
 1738SOL     OW 8964   4.105   1.727   2.727
 1738SOL    HW1 8965   4.127   1.645   2.779
 1738SOL    HW2 8966   4.159   1.804   2.761
 1739SOL     OW 8967   4.761   1.844   2.000
 1739SOL    HW1 8968   4.717   1.791   2.072
 1739SOL    HW2 8969   4.849   1.801   1.976
 1740SOL     OW 8970   4.047   0.263   3.247
 1740SOL    HW1 8971   3.978   0.285   3.315
 1740SOL    HW2 8972   4.138   0.287   3.282
 1741SOL     OW 8973   4.172   1.817   3.080
 1741SOL    HW1 8974   4.248   1.786   3.024
 1741SOL    HW2 8975   4.087   1.774   3.049
 1742SOL     OW 8976   4.592   1.664   2.770
 1742SOL    HW1 8977   4.680   1.660   2.818
 1742SOL    HW2 8978   4.560   1.571   2.753
 1743SOL     OW 8979   4.541   1.489   3.039
 1743SOL    HW1 8980   4.523   1.466   2.943
 1743SOL    HW2 8981   4.593   1.415   3.082
 1744SOL     OW 8982   4.519   1.408   2.777
 1744SOL    HW1 8983   4.574   1.328   2.797
 1744SOL    HW2 8984   4.450   1.384   2.708
 1745SOL     OW 8985   3.903   0.053   2.103
 1745SOL    HW1 8986   3.959   0.053   2.020
 1745SOL    HW2 8987   3.914   4.965   2.150
 1746SOL     OW 8988   4.889   0.579   3.455
 1746SOL    HW1 8989   4.871   0.530   3.370
 1746SOL    HW2 8990   4.978   0.626   3.448
 1747SOL     OW 8991   4.133   1.213   2.581
 1747SOL    HW1 8992   4.082   1.163   2.651
 1747SOL    HW2 8993   4.073   1.232   2.503
 1748SOL     OW 8994   4.699   0.569   1.856
 1748SOL    HW1 8995   4.646   0.645   1.816
 1748SOL    HW2 8996   4.764   0.605   1.922
 1749SOL     OW 8997   4.577   0.557   2.465
 1749SOL    HW1 8998   4.608   0.549   2.370
 1749SOL    HW2 8999   4.655   0.544   2.526
 1750SOL     OW 9000   4.782   0.085   2.734
 1750SOL    HW1 9001   4.727   0.082   2.651
 1750SOL    HW2 9002   4.878   0.076   2.710
 1751SOL     OW 9003   4.292   1.273   1.963
 1751SOL    HW1 9004   4.215   1.284   2.027
 1751SOL    HW2 9005   4.261   1.292   1.870
 1752SOL     OW 9006   4.699   1.307   3.171
 1752SOL    HW1 9007   4.627   1.248   3.208
 1752SOL    HW2 9008   4.730   1.370   3.242
 1753SOL     OW 9009   4.674   1.223   2.904
 1753SOL    HW1 9010   4.713   1.241   2.994
 1753SOL    HW2 9011   4.711   1.137   2.868
 1754SOL     OW 9012   4.650   0.098   3.253
 1754SOL    HW1 9013   4.685   0.082   3.160
 1754SOL    HW2 9014   4.726   0.122   3.313
 1755SOL     OW 9015   4.816   1.053   3.581
 1755SOL    HW1 9016   4.757   1.126   3.550
 1755SOL    HW2 9017   4.791   0.967   3.535
 1756SOL     OW 9018   3.950   1.680   3.003
 1756SOL    HW1 9019   3.851   1.692   2.996
 1756SOL    HW2 9020   3.970   1.598   3.058
 1757SOL     OW 9021   4.376   0.685   2.624
 1757SOL    HW1 9022   4.446   0.642   2.567
 1757SOL    HW2 9023   4.419   0.750   2.687
 1758SOL     OW 9024   4.052   1.466   3.145
 1758SOL    HW1 9025   4.060   1.396   3.074
 1758SOL    HW2 9026   4.142   1.507   3.162
 1759SOL     OW 9027   4.473   0.871   2.826
 1759SOL    HW1 9028   4.434   0.961   2.846
 1759SOL    HW2 9029   4.490   0.822   2.912
 1760SOL     OW 9030   0.057   0.790   2.908
 1760SOL    HW1 9031   4.962   0.799   2.939
 1760SOL    HW2 9032   0.074   0.854   2.833
 1761SOL     OW 9033   4.877   0.617   2.064
 1761SOL    HW1 9034   4.928   0.532   2.073
 1761SOL    HW2 9035   4.800   0.618   2.128
 1762SOL     OW 9036   3.988   0.155   3.003
 1762SOL    HW1 9037   3.999   0.196   3.093
 1762SOL    HW2 9038   4.078   0.144   2.960
 1763SOL     OW 9039   3.910   0.056   2.429
 1763SOL    HW1 9040   3.888   0.132   2.368
 1763SOL    HW2 9041   3.933   0.091   2.520
 1764SOL     OW 9042   4.681   1.496   3.386
 1764SOL    HW1 9043   4.606   1.556   3.358
 1764SOL    HW2 9044   4.768   1.543   3.374
 1765SOL     OW 9045   4.809   0.379   3.610
 1765SOL    HW1 9046   4.776   0.410   3.700
 1765SOL    HW2 9047   4.846   0.458   3.560
 1766SOL     OW 9048   4.855   0.221   3.388
 1766SOL    HW1 9049   4.836   0.261   3.478
 1766SOL    HW2 9050   4.862   0.294   3.320
 1767SOL     OW 9051   3.842   1.787   2.732
 1767SOL    HW1 9052   3.791   1.753   2.810
 1767SOL    HW2 9053   3.938   1.762   2.741
 1768SOL     OW 9054   4.226   1.510   2.849
 1768SOL    HW1 9055   4.284   1.583   2.884
 1768SOL    HW2 9056   4.262   1.478   2.761
 1769SOL     OW 9057   4.818   0.831   3.036
 1769SOL    HW1 9058   4.875   0.783   3.103
 1769SOL    HW2 9059   4.722   0.810   3.053
 1770SOL     OW 9060   4.646   0.547   2.197
 1770SOL    HW1 9061   4.655   0.459   2.149
 1770SOL    HW2 9062   4.559   0.589   2.172
 1771SOL     OW 9063   4.572   0.348   3.189
 1771SOL    HW1 9064   4.586   0.254   3.219
 1771SOL    HW2 9065   4.545   0.348   3.092
 1772SOL     OW 9066   4.616   1.701   3.188
 1772SOL    HW1 9067   4.584   1.627   3.130
 1772SOL    HW2 9068   4.620   1.786   3.135
 1773SOL     OW 9069   3.879   1.132   3.418
 1773SOL    HW1 9070   3.889   1.085   3.506
 1773SOL    HW2 9071   3.812   1.083   3.362
 1774SOL     OW 9072   4.813   1.630   2.935
 1774SOL    HW1 9073   4.911   1.647   2.924
 1774SOL    HW2 9074   4.799   1.548   2.991
 1775SOL     OW 9075   4.064   1.713   3.748
 1775SOL    HW1 9076   3.967   1.728   3.767
 1775SOL    HW2 9077   4.112   1.691   3.832
 1776SOL     OW 9078   4.500   1.170   3.285
 1776SOL    HW1 9079   4.500   1.197   3.381
 1776SOL    HW2 9080   4.415   1.201   3.242
 1777SOL     OW 9081   4.669   0.969   3.252
 1777SOL    HW1 9082   4.748   1.007   3.204
 1777SOL    HW2 9083   4.603   1.042   3.269
 1778SOL     OW 9084   3.998   1.379   3.400
 1778SOL    HW1 9085   4.012   1.406   3.305
 1778SOL    HW2 9086   3.964   1.285   3.403
 1779SOL     OW 9087   3.891   0.988   3.651
 1779SOL    HW1 9088   3.804   0.972   3.698
 1779SOL    HW2 9089   3.957   0.919   3.680
 1780SOL     OW 9090   3.858   0.272   2.260
 1780SOL    HW1 9091   3.902   0.355   2.226
 1780SOL    HW2 9092   3.868   0.199   2.192
 1781SOL     OW 9093   4.551   0.787   3.081
 1781SOL    HW1 9094   4.559   0.872   3.133
 1781SOL    HW2 9095   4.553   0.709   3.142
 1782SOL     OW 9096   4.593   0.571   3.538
 1782SOL    HW1 9097   4.599   0.635   3.614
 1782SOL    HW2 9098   4.640   0.486   3.561
 1783SOL     OW 9099   4.066   1.629   3.484
 1783SOL    HW1 9100   4.060   1.642   3.583
 1783SOL    HW2 9101   4.038   1.536   3.462
 1784SOL     OW 9102   4.605   1.384   1.734
 1784SOL    HW1 9103   4.600   1.360   1.831
 1784SOL    HW2 9104   4.656   1.469   1.723
 1785SOL     OW 9105   4.369   1.743   2.903
 1785SOL    HW1 9106   4.338   1.828   2.860
 1785SOL    HW2 9107   4.458   1.718   2.868
 1786SOL     OW 9108   4.732   0.975   2.820
 1786SOL    HW1 9109   4.779   0.921   2.890
 1786SOL    HW2 9110   4.644   0.933   2.798
 1787SOL     OW 9111   4.780   0.958   1.853
 1787SOL    HW1 9112   4.781   1.018   1.773
 1787SOL    HW2 9113   4.870   0.918   1.866
 1788SOL     OW 9114   4.764   0.109   3.007
 1788SOL    HW1 9115   4.752   0.094   2.909
 1788SOL    HW2 9116   4.847   0.162   3.023
 1789SOL     OW 9117   4.561   1.292   1.979
 1789SOL    HW1 9118   4.461   1.288   1.979
 1789SOL    HW2 9119   4.598   1.213   2.028
 1790SOL     OW 9120   4.311   1.548   3.185
 1790SOL    HW1 9121   4.306   1.630   3.241
 1790SOL    HW2 9122   4.391   1.552   3.126
 1791SOL     OW 9123   3.524   1.119   2.106
 1791SOL    HW1 9124   3.559   1.173   2.030
 1791SOL    HW2 9125   3.438   1.076   2.079
 1792SOL     OW 9126   3.979   0.224   4.798
 1792SOL    HW1 9127   4.018   0.191   4.884
 1792SOL    HW2 9128   3.880   0.234   4.807
 1793SOL     OW 9129   3.686   0.325   4.384
 1793SOL    HW1 9130   3.631   0.407   4.366
 1793SOL    HW2 9131   3.757   0.318   4.314
 1794SOL     OW 9132   4.278   1.280   4.843
 1794SOL    HW1 9133   4.178   1.282   4.839
 1794SOL    HW2 9134   4.315   1.354   4.787
 1795SOL     OW 9135   4.430   1.108   4.688
 1795SOL    HW1 9136   4.365   1.161   4.743
 1795SOL    HW2 9137   4.486   1.171   4.633
 1796SOL     OW 9138   4.347   0.965   4.338
 1796SOL    HW1 9139   4.428   0.927   4.383
 1796SOL    HW2 9140   4.310   1.039   4.394
 1797SOL     OW 9141   3.976   1.022   4.568
 1797SOL    HW1 9142   4.025   0.945   4.610
 1797SOL    HW2 9143   3.881   1.021   4.600
 1798SOL     OW 9144   4.379   1.345   4.345
 1798SOL    HW1 9145   4.309   1.290   4.390
 1798SOL    HW2 9146   4.339   1.393   4.267
 1799SOL     OW 9147   4.381   0.271   4.551
 1799SOL    HW1 9148   4.305   0.281   4.488
 1799SOL    HW2 9149   4.467   0.293   4.505
 1800SOL     OW 9150   3.812   1.013   0.004
 1800SOL    HW1 9151   3.829   1.086   4.938
 1800SOL    HW2 9152   3.738   0.955   4.970
 1801SOL     OW 9153   4.544   0.348   3.985
 1801SOL    HW1 9154   4.601   0.388   3.913
 1801SOL    HW2 9155   4.512   0.258   3.956
 1802SOL     OW 9156   4.230   0.114   4.712
 1802SOL    HW1 9157   4.141   0.157   4.731
 1802SOL    HW2 9158   4.286   0.177   4.658
 1803SOL     OW 9159   4.152   1.640   4.572
 1803SOL    HW1 9160   4.212   1.562   4.585
 1803SOL    HW2 9161   4.202   1.725   4.591
 1804SOL     OW 9162   4.185   1.698   3.999
 1804SOL    HW1 9163   4.116   1.754   4.044
 1804SOL    HW2 9164   4.255   1.758   3.958
 1805SOL     OW 9165   3.937   1.830   4.961
 1805SOL    HW1 9166   3.846   1.813   5.000
 1805SOL    HW2 9167   3.944   1.786   4.871
 1806SOL     OW 9168   4.442   0.098   3.939
 1806SOL    HW1 9169   4.408   0.074   4.030
 1806SOL    HW2 9170   4.454   0.015   3.885
 1807SOL     OW 9171   4.557   1.303   4.549
 1807SOL    HW1 9172   4.655   1.290   4.537
 1807SOL    HW2 9173   4.514   1.316   4.460
 1808SOL     OW 9174   4.533   0.657   4.619
 1808SOL    HW1 9175   4.498   0.644   4.526
 1808SOL    HW2 9176   4.561   0.569   4.657
 1809SOL     OW 9177   4.461   0.296   4.238
 1809SOL    HW1 9178   4.496   0.320   4.147
 1809SOL    HW2 9179   4.529   0.319   4.308
 1810SOL     OW 9180   0.086   1.331   4.437
 1810SOL    HW1 9181   0.138   1.362   4.357
 1810SOL    HW2 9182   0.113   1.384   4.517
 1811SOL     OW 9183   4.191   1.161   4.445
 1811SOL    HW1 9184   4.122   1.132   4.511
 1811SOL    HW2 9185   4.156   1.147   4.352
 1812SOL     OW 9186   4.709   0.505   3.830
 1812SOL    HW1 9187   4.691   0.597   3.795
 1812SOL    HW2 9188   4.781   0.508   3.898
 1813SOL     OW 9189   4.456   0.590   4.367
 1813SOL    HW1 9190   4.485   0.607   4.273
 1813SOL    HW2 9191   4.367   0.545   4.367
 1814SOL     OW 9192   4.287   1.465   4.112
 1814SOL    HW1 9193   4.240   1.547   4.079
 1814SOL    HW2 9194   4.366   1.446   4.054
 1815SOL     OW 9195   4.132   0.253   4.119
 1815SOL    HW1 9196   4.167   0.160   4.133
 1815SOL    HW2 9197   4.198   0.306   4.065
 1816SOL     OW 9198   4.137   1.057   4.189
 1816SOL    HW1 9199   4.166   1.108   4.108
 1816SOL    HW2 9200   4.215   1.005   4.225
 1817SOL     OW 9201   4.407   0.960   4.918
 1817SOL    HW1 9202   4.437   1.014   4.840
 1817SOL    HW2 9203   4.307   0.951   4.916
 1818SOL     OW 9204   0.112   1.101   4.762
 1818SOL    HW1 9205   0.129   1.058   4.851
 1818SOL    HW2 9206   0.189   1.085   4.701
 1819SOL     OW 9207   4.086   0.125   0.031
 1819SOL    HW1 9208   4.184   0.142   0.043
 1819SOL    HW2 9209   4.040   0.127   0.120
 1820SOL     OW 9210   4.540   0.722   4.886
 1820SOL    HW1 9211   4.540   0.697   4.789
 1820SOL    HW2 9212   4.504   0.815   4.897
 1821SOL     OW 9213   4.835   1.239   4.525
 1821SOL    HW1 9214   4.792   1.176   4.461
 1821SOL    HW2 9215   4.918   1.277   4.484
 1822SOL     OW 9216   3.937   1.715   4.718
 1822SOL    HW1 9217   3.855   1.690   4.667
 1822SOL    HW2 9218   4.018   1.684   4.667
 1823SOL     OW 9219   4.366   1.467   4.671
 1823SOL    HW1 9220   4.394   1.562   4.682
 1823SOL    HW2 9221   4.439   1.417   4.624
 1824SOL     OW 9222   4.516   0.598   4.101
 1824SOL    HW1 9223   4.525   0.507   4.060
 1824SOL    HW2 9224   4.508   0.666   4.029
 1825SOL     OW 9225   3.897   0.976   0.259
 1825SOL    HW1 9226   3.822   0.936   0.312
 1825SOL    HW2 9227   3.866   0.992   0.165
 1826SOL     OW 9228   3.930   0.306   4.537
 1826SOL    HW1 9229   3.831   0.305   4.519
 1826SOL    HW2 9230   3.946   0.279   4.632
 1827SOL     OW 9231   4.415   0.989   0.189
 1827SOL    HW1 9232   4.423   0.983   0.090
 1827SOL    HW2 9233   4.439   1.082   0.219
 1828SOL     OW 9234   4.713   1.080   4.352
 1828SOL    HW1 9235   4.655   1.009   4.391
 1828SOL    HW2 9236   4.751   1.048   4.265
 1829SOL     OW 9237   4.597   0.414   4.725
 1829SOL    HW1 9238   4.525   0.345   4.720
 1829SOL    HW2 9239   4.629   0.422   4.819
 1830SOL     OW 9240   3.685   0.361   3.941
 1830SOL    HW1 9241   3.632   0.293   3.992
 1830SOL    HW2 9242   3.681   0.342   3.843
 1831SOL     OW 9243   3.854   0.296   4.161
 1831SOL    HW1 9244   3.819   0.339   4.078
 1831SOL    HW2 9245   3.952   0.278   4.152
 1832SOL     OW 9246   4.636   1.256   3.521
 1832SOL    HW1 9247   4.595   1.275   3.610
 1832SOL    HW2 9248   4.656   1.342   3.474
 1833SOL     OW 9249   4.415   1.734   4.666
 1833SOL    HW1 9250   4.350   1.806   4.692
 1833SOL    HW2 9251   4.461   1.760   4.582
 1834SOL     OW 9252   4.548   0.916   4.518
 1834SOL    HW1 9253   4.557   0.826   4.560
 1834SOL    HW2 9254   4.510   0.981   4.584
 1835SOL     OW 9255   4.833   0.973   3.841
 1835SOL    HW1 9256   4.822   1.016   3.751
 1835SOL    HW2 9257   4.930   0.963   3.861
 1836SOL     OW 9258   3.901   0.978   4.300
 1836SOL    HW1 9259   3.920   0.994   4.397
 1836SOL    HW2 9260   3.979   1.005   4.245
 1837SOL     OW 9261   4.164   0.294   4.394
 1837SOL    HW1 9262   4.147   0.293   4.295
 1837SOL    HW2 9263   4.078   0.304   4.443
 1838SOL     OW 9264   4.624   0.053   4.998
 1838SOL    HW1 9265   4.555   0.022   4.933
 1838SOL    HW2 9266   4.614   0.004   0.084
 1839SOL     OW 9267   3.621   0.956   4.051
 1839SOL    HW1 9268   3.665   1.045   4.063
 1839SOL    HW2 9269   3.664   0.889   4.111
 1840SOL     OW 9270   3.941   2.175   1.293
 1840SOL    HW1 9271   4.018   2.121   1.326
 1840SOL    HW2 9272   3.869   2.114   1.259
 1841SOL     OW 9273   4.450   2.678   1.983
 1841SOL    HW1 9274   4.530   2.642   2.032
 1841SOL    HW2 9275   4.400   2.602   1.941
 1842SOL     OW 9276   4.035   3.621   0.536
 1842SOL    HW1 9277   4.022   3.693   0.605
 1842SOL    HW2 9278   4.113   3.564   0.562
 1843SOL     OW 9279   0.207   3.341   1.603
 1843SOL    HW1 9280   0.126   3.319   1.548
 1843SOL    HW2 9281   0.261   3.411   1.556
 1844SOL     OW 9282   3.979   3.360   0.667
 1844SOL    HW1 9283   3.956   3.426   0.596
 1844SOL    HW2 9284   3.946   3.269   0.641
 1845SOL     OW 9285   4.286   3.072   0.071
 1845SOL    HW1 9286   4.218   3.112   0.010
 1845SOL    HW2 9287   4.350   3.016   0.019
 1846SOL     OW 9288   4.534   1.943   0.522
 1846SOL    HW1 9289   4.601   2.009   0.487
 1846SOL    HW2 9290   4.452   1.992   0.550
 1847SOL     OW 9291   3.900   2.886   1.357
 1847SOL    HW1 9292   3.961   2.820   1.313
 1847SOL    HW2 9293   3.836   2.923   1.290
 1848SOL     OW 9294   4.671   2.415   1.022
 1848SOL    HW1 9295   4.633   2.436   1.112
 1848SOL    HW2 9296   4.673   2.316   1.009
 1849SOL     OW 9297   3.694   3.606   1.585
 1849SOL    HW1 9298   3.677   3.641   1.677
 1849SOL    HW2 9299   3.745   3.675   1.532
 1850SOL     OW 9300   4.738   2.173   0.185
 1850SOL    HW1 9301   4.828   2.174   0.141
 1850SOL    HW2 9302   4.682   2.101   0.145
 1851SOL     OW 9303   4.558   3.335   0.430
 1851SOL    HW1 9304   4.500   3.268   0.383
 1851SOL    HW2 9305   4.511   3.367   0.512
 1852SOL     OW 9306   4.113   3.776   0.990
 1852SOL    HW1 9307   4.131   3.691   1.039
 1852SOL    HW2 9308   4.193   3.801   0.935
 1853SOL     OW 9309   4.218   2.863   1.700
 1853SOL    HW1 9310   4.239   2.826   1.609
 1853SOL    HW2 9311   4.143   2.929   1.693
 1854SOL     OW 9312   4.669   3.565   0.341
 1854SOL    HW1 9313   4.619   3.482   0.367
 1854SOL    HW2 9314   4.748   3.540   0.285
 1855SOL     OW 9315   3.894   3.559   1.127
 1855SOL    HW1 9316   3.893   3.654   1.094
 1855SOL    HW2 9317   3.898   3.497   1.049
 1856SOL     OW 9318   4.620   3.520   0.873
 1856SOL    HW1 9319   4.691   3.451   0.892
 1856SOL    HW2 9320   4.573   3.496   0.788
 1857SOL     OW 9321   4.344   1.800   0.025
 1857SOL    HW1 9322   4.434   1.843   0.025
 1857SOL    HW2 9323   4.278   1.858   4.977
 1858SOL     OW 9324   4.806   2.412   0.782
 1858SOL    HW1 9325   4.734   2.414   0.712
 1858SOL    HW2 9326   4.764   2.411   0.872
 1859SOL     OW 9327   3.986   1.854   0.229
 1859SOL    HW1 9328   3.979   1.846   0.129
 1859SOL    HW2 9329   3.912   1.802   0.272
 1860SOL     OW 9330   4.716   2.122   0.452
 1860SOL    HW1 9331   4.730   2.147   0.356
 1860SOL    HW2 9332   4.793   2.157   0.507
 1861SOL     OW 9333   0.010   3.442   0.711
 1861SOL    HW1 9334   4.999   3.541   0.703
 1861SOL    HW2 9335   4.934   3.396   0.666
 1862SOL     OW 9336   4.962   3.715   0.693
 1862SOL    HW1 9337   4.985   3.762   0.607
 1862SOL    HW2 9338   4.868   3.734   0.718
 1863SOL     OW 9339   4.618   2.363   0.592
 1863SOL    HW1 9340   4.630   2.381   0.494
 1863SOL    HW2 9341   4.615   2.264   0.608
 1864SOL     OW 9342   4.681   2.051   0.745
 1864SOL    HW1 9343   4.643   1.989   0.676
 1864SOL    HW2 9344   4.766   2.092   0.710
 1865SOL     OW 9345   4.610   2.058   1.519
 1865SOL    HW1 9346   4.520   2.022   1.494
 1865SOL    HW2 9347   4.629   2.033   1.614
 1866SOL     OW 9348   4.082   2.694   1.263
 1866SOL    HW1 9349   4.157   2.714   1.326
 1866SOL    HW2 9350   4.051   2.600   1.277
 1867SOL     OW 9351   3.692   3.381   1.221
 1867SOL    HW1 9352   3.611   3.404   1.167
 1867SOL    HW2 9353   3.767   3.442   1.196
 1868SOL     OW 9354   4.793   3.338   0.582
 1868SOL    HW1 9355   4.718   3.341   0.516
 1868SOL    HW2 9356   4.779   3.260   0.643
 1869SOL     OW 9357   4.053   2.568   1.565
 1869SOL    HW1 9358   4.113   2.638   1.526
 1869SOL    HW2 9359   4.014   2.513   1.491
 1870SOL     OW 9360   4.654   1.977   1.788
 1870SOL    HW1 9361   4.694   2.069   1.789
 1870SOL    HW2 9362   4.690   1.924   1.865
 1871SOL     OW 9363   4.114   1.983   1.399
 1871SOL    HW1 9364   4.034   1.976   1.459
 1871SOL    HW2 9365   4.116   1.904   1.338
 1872SOL     OW 9366   3.703   3.113   1.306
 1872SOL    HW1 9367   3.742   3.108   1.398
 1872SOL    HW2 9368   3.717   3.206   1.270
 1873SOL     OW 9369   4.724   2.671   0.951
 1873SOL    HW1 9370   4.797   2.669   0.883
 1873SOL    HW2 9371   4.697   2.577   0.973
 1874SOL     OW 9372   4.049   2.684   1.814
 1874SOL    HW1 9373   4.127   2.743   1.793
 1874SOL    HW2 9374   4.033   2.621   1.739
 1875SOL     OW 9375   4.130   2.678   0.992
 1875SOL    HW1 9376   4.157   2.767   0.956
 1875SOL    HW2 9377   4.110   2.686   1.090
 1876SOL     OW 9378   4.779   2.215   1.803
 1876SOL    HW1 9379   4.745   2.280   1.871
 1876SOL    HW2 9380   4.849   2.259   1.747
 1877SOL     OW 9381   4.214   3.497   0.715
 1877SOL    HW1 9382   4.244   3.517   0.808
 1877SOL    HW2 9383   4.137   3.433   0.718
 1878SOL     OW 9384   4.645   2.764   1.198
 1878SOL    HW1 9385   4.733   2.784   1.240
 1878SOL    HW2 9386   4.658   2.732   1.104
 1879SOL     OW 9387   3.968   2.448   1.313
 1879SOL    HW1 9388   3.972   2.348   1.310
 1879SOL    HW2 9389   3.886   2.479   1.265
 1880SOL     OW 9390   4.628   2.394   0.325
 1880SOL    HW1 9391   4.667   2.324   0.265
 1880SOL    HW2 9392   4.591   2.468   0.269
 1881SOL     OW 9393   3.825   3.049   1.557
 1881SOL    HW1 9394   3.863   3.020   1.645
 1881SOL    HW2 9395   3.854   2.986   1.485
 1882SOL     OW 9396   4.983   3.646   1.087
 1882SOL    HW1 9397   0.039   3.666   1.006
 1882SOL    HW2 9398   0.028   3.575   1.141
 1883SOL     OW 9399   4.602   1.944   0.090
 1883SOL    HW1 9400   4.659   1.876   0.044
 1883SOL    HW2 9401   4.563   1.905   0.173
 1884SOL     OW 9402   4.533   3.126   1.479
 1884SOL    HW1 9403   4.465   3.143   1.550
 1884SOL    HW2 9404   4.541   3.207   1.420
 1885SOL     OW 9405   4.483   2.863   1.396
 1885SOL    HW1 9406   4.537   2.830   1.320
 1885SOL    HW2 9407   4.512   2.956   1.420
 1886SOL     OW 9408   4.765   3.133   0.753
 1886SOL    HW1 9409   4.721   3.059   0.805
 1886SOL    HW2 9410   4.864   3.118   0.753
 1887SOL     OW 9411   4.674   2.149   0.994
 1887SOL    HW1 9412   4.674   2.113   0.901
 1887SOL    HW2 9413   4.646   2.077   1.058
 1888SOL     OW 9414   3.936   2.939   1.778
 1888SOL    HW1 9415   3.941   2.966   1.874
 1888SOL    HW2 9416   3.943   2.840   1.770
 1889SOL     OW 9417   3.859   2.042   0.412
 1889SOL    HW1 9418   3.921   2.077   0.481
 1889SOL    HW2 9419   3.911   1.990   0.344
 1890SOL     OW 9420   4.271   2.717   1.470
 1890SOL    HW1 9421   4.344   2.778   1.438
 1890SOL    HW2 9422   4.311   2.631   1.500
 1891SOL     OW 9423   4.399   2.598   0.430
 1891SOL    HW1 9424   4.316   2.606   0.485
 1891SOL    HW2 9425   4.463   2.536   0.475
 1892SOL     OW 9426   4.360   3.599   0.935
 1892SOL    HW1 9427   4.358   3.690   0.894
 1892SOL    HW2 9428   4.453   3.562   0.931
 1893SOL     OW 9429   4.651   2.931   0.897
 1893SOL    HW1 9430   4.679   2.836   0.914
 1893SOL    HW2 9431   4.555   2.942   0.925
 1894SOL     OW 9432   3.880   3.115   0.587
 1894SOL    HW1 9433   3.801   3.055   0.582
 1894SOL    HW2 9434   3.948   3.087   0.519
 1895SOL     OW 9435   4.476   3.487   0.646
 1895SOL    HW1 9436   4.507   3.571   0.603
 1895SOL    HW2 9437   4.376   3.491   0.659
 1896SOL     OW 9438   4.393   3.145   0.310
 1896SOL    HW1 9439   4.355   3.124   0.219
 1896SOL    HW2 9440   4.401   3.060   0.363
 1897SOL     OW 9441   4.733   2.710   3.693
 1897SOL    HW1 9442   4.664   2.759   3.746
 1897SOL    HW2 9443   4.700   2.695   3.600
 1898SOL     OW 9444   4.209   2.341   3.406
 1898SOL    HW1 9445   4.245   2.261   3.453
 1898SOL    HW2 9446   4.129   2.376   3.455
 1899SOL     OW 9447   3.909   3.785   2.276
 1899SOL    HW1 9448   3.836   3.724   2.243
 1899SOL    HW2 9449   3.949   3.834   2.198
 1900SOL     OW 9450   4.614   3.770   3.376
 1900SOL    HW1 9451   4.588   3.826   3.455
 1900SOL    HW2 9452   4.704   3.799   3.343
 1901SOL     OW 9453   4.272   2.833   2.110
 1901SOL    HW1 9454   4.349   2.795   2.059
 1901SOL    HW2 9455   4.304   2.864   2.200
 1902SOL     OW 9456   3.873   2.731   3.045
 1902SOL    HW1 9457   3.964   2.706   3.079
 1902SOL    HW2 9458   3.860   2.694   2.953
 1903SOL     OW 9459   4.257   2.576   2.212
 1903SOL    HW1 9460   4.251   2.664   2.166
 1903SOL    HW2 9461   4.237   2.588   2.309
 1904SOL     OW 9462   4.440   2.479   3.348
 1904SOL    HW1 9463   4.351   2.442   3.374
 1904SOL    HW2 9464   4.502   2.403   3.328
 1905SOL     OW 9465   4.609   2.676   3.448
 1905SOL    HW1 9466   4.544   2.603   3.425
 1905SOL    HW2 9467   4.606   2.746   3.377
 1906SOL     OW 9468   4.778   2.610   2.346
 1906SOL    HW1 9469   4.869   2.574   2.364
 1906SOL    HW2 9470   4.717   2.590   2.423
 1907SOL     OW 9471   4.522   2.205   2.128
 1907SOL    HW1 9472   4.595   2.261   2.088
 1907SOL    HW2 9473   4.483   2.146   2.057
 1908SOL     OW 9474   4.252   1.952   2.773
 1908SOL    HW1 9475   4.223   2.040   2.812
 1908SOL    HW2 9476   4.280   1.965   2.678
 1909SOL     OW 9477   4.851   3.576   3.176
 1909SOL    HW1 9478   4.881   3.646   3.240
 1909SOL    HW2 9479   4.752   3.574   3.171
 1910SOL     OW 9480   4.013   2.830   2.048
 1910SOL    HW1 9481   4.109   2.850   2.067
 1910SOL    HW2 9482   4.007   2.764   1.973
 1911SOL     OW 9483   4.213   3.334   3.647
 1911SOL    HW1 9484   4.144   3.394   3.609
 1911SOL    HW2 9485   4.169   3.265   3.705
 1912SOL     OW 9486   4.235   3.755   2.134
 1912SOL    HW1 9487   4.213   3.757   2.231
 1912SOL    HW2 9488   4.312   3.694   2.118
 1913SOL     OW 9489   3.941   3.848   3.088
 1913SOL    HW1 9490   3.945   3.762   3.039
 1913SOL    HW2 9491   3.876   3.910   3.043
 1914SOL     OW 9492   4.645   3.617   2.746
 1914SOL    HW1 9493   4.729   3.626   2.800
 1914SOL    HW2 9494   4.636   3.522   2.713
 1915SOL     OW 9495   4.200   2.594   2.478
 1915SOL    HW1 9496   4.201   2.497   2.505
 1915SOL    HW2 9497   4.105   2.621   2.459
 1916SOL     OW 9498   4.302   2.136   3.557
 1916SOL    HW1 9499   4.373   2.159   3.624
 1916SOL    HW2 9500   4.277   2.040   3.567
 1917SOL     OW 9501   4.636   2.541   2.578
 1917SOL    HW1 9502   4.594   2.453   2.555
 1917SOL    HW2 9503   4.684   2.534   2.665
 1918SOL     OW 9504   4.297   1.959   2.503
 1918SOL    HW1 9505   4.213   1.907   2.486
 1918SOL    HW2 9506   4.305   2.032   2.434
 1919SOL     OW 9507   4.621   2.100   2.360
 1919SOL    HW1 9508   4.584   2.137   2.274
 1919SOL    HW2 9509   4.716   2.072   2.346
 1920SOL     OW 9510   0.151   3.476   2.622
 1920SOL    HW1 9511   0.191   3.536   2.552
 1920SOL    HW2 9512   0.148   3.382   2.588
 1921SOL     OW 9513   4.714   2.367   2.025
 1921SOL    HW1 9514   4.692   2.464   2.032
 1921SOL    HW2 9515   4.793   2.346   2.084
 1922SOL     OW 9516   3.832   2.467   3.292
 1922SOL    HW1 9517   3.916   2.430   3.252
 1922SOL    HW2 9518   3.800   2.544   3.237
 1923SOL     OW 9519   4.528   2.304   2.517
 1923SOL    HW1 9520   4.505   2.353   2.433
 1923SOL    HW2 9521   4.566   2.214   2.494
 1924SOL     OW 9522   4.541   1.900   2.638
 1924SOL    HW1 9523   4.464   1.911   2.576
 1924SOL    HW2 9524   4.549   1.804   2.666
 1925SOL     OW 9525   4.286   2.155   2.302
 1925SOL    HW1 9526   4.380   2.153   2.269
 1925SOL    HW2 9527   4.231   2.215   2.243
 1926SOL     OW 9528   4.309   2.870   2.376
 1926SOL    HW1 9529   4.214   2.838   2.383
 1926SOL    HW2 9530   4.363   2.833   2.452
 1927SOL     OW 9531   4.117   2.637   3.107
 1927SOL    HW1 9532   4.215   2.647   3.125
 1927SOL    HW2 9533   4.088   2.544   3.131
 1928SOL     OW 9534   4.021   2.765   2.320
 1928SOL    HW1 9535   3.941   2.804   2.365
 1928SOL    HW2 9536   4.016   2.782   2.222
 1929SOL     OW 9537   4.256   1.867   3.605
 1929SOL    HW1 9538   4.269   1.839   3.510
 1929SOL    HW2 9539   4.180   1.817   3.644
 1930SOL     OW 9540   4.166   2.754   2.862
 1930SOL    HW1 9541   4.240   2.821   2.862
 1930SOL    HW2 9542   4.154   2.717   2.954
 1931SOL     OW 9543   4.924   2.343   2.189
 1931SOL    HW1 9544   4.908   2.252   2.228
 1931SOL    HW2 9545   4.952   2.406   2.261
 1932SOL     OW 9546   3.705   3.226   3.197
 1932SOL    HW1 9547   3.715   3.127   3.207
 1932SOL    HW2 9548   3.770   3.259   3.128
 1933SOL     OW 9549   4.056   1.824   2.484
 1933SOL    HW1 9550   3.957   1.826   2.469
 1933SOL    HW2 9551   4.075   1.787   2.574
 1934SOL     OW 9552   0.221   2.197   2.147
 1934SOL    HW1 9553   0.171   2.258   2.086
 1934SOL    HW2 9554   0.216   2.231   2.241
 1935SOL     OW 9555   3.939   2.606   2.803
 1935SOL    HW1 9556   4.018   2.668   2.809
 1935SOL    HW2 9557   3.969   2.518   2.766
 1936SOL     OW 9558   4.567   2.770   2.975
 1936SOL    HW1 9559   4.665   2.786   2.967
 1936SOL    HW2 9560   4.526   2.766   2.885
 1937SOL     OW 9561   3.976   2.415   3.522
 1937SOL    HW1 9562   3.932   2.407   3.612
 1937SOL    HW2 9563   3.907   2.440   3.454
 1938SOL     OW 9564   4.474   2.426   2.286
 1938SOL    HW1 9565   4.486   2.354   2.218
 1938SOL    HW2 9566   4.401   2.488   2.256
 1939SOL     OW 9567   4.587   3.625   3.146
 1939SOL    HW1 9568   4.573   3.673   3.232
 1939SOL    HW2 9569   4.549   3.679   3.071
 1940SOL     OW 9570   4.160   2.334   2.142
 1940SOL    HW1 9571   4.197   2.424   2.164
 1940SOL    HW2 9572   4.067   2.345   2.106
 1941SOL     OW 9573   3.804   2.955   3.183
 1941SOL    HW1 9574   3.829   2.931   3.276
 1941SOL    HW2 9575   3.815   2.875   3.124
 1942SOL     OW 9576   4.855   3.639   2.913
 1942SOL    HW1 9577   4.950   3.633   2.883
 1942SOL    HW2 9578   4.847   3.603   3.006
 1943SOL     OW 9579   3.919   3.141   3.022
 1943SOL    HW1 9580   3.881   3.069   3.081
 1943SOL    HW2 9581   3.963   3.100   2.943
 1944SOL     OW 9582   4.571   2.852   3.239
 1944SOL    HW1 9583   4.563   2.827   3.143
 1944SOL    HW2 9584   4.544   2.947   3.251
 1945SOL     OW 9585   4.691   2.628   2.092
 1945SOL    HW1 9586   4.712   2.719   2.056
 1945SOL    HW2 9587   4.720   2.623   2.187
 1946SOL     OW 9588   3.997   1.934   2.240
 1946SOL    HW1 9589   4.054   2.008   2.203
 1946SOL    HW2 9590   4.036   1.903   2.327
 1947SOL     OW 9591   4.380   2.636   3.131
 1947SOL    HW1 9592   4.459   2.672   3.081
 1947SOL    HW2 9593   4.412   2.587   3.212
 1948SOL     OW 9594   4.421   2.719   2.584
 1948SOL    HW1 9595   4.501   2.660   2.574
 1948SOL    HW2 9596   4.339   2.669   2.556
 1949SOL     OW 9597   4.527   3.786   2.926
 1949SOL    HW1 9598   4.456   3.836   2.878
 1949SOL    HW2 9599   4.570   3.721   2.864
 1950SOL     OW 9600   4.655   2.863   1.946
 1950SOL    HW1 9601   4.568   2.813   1.949
 1950SOL    HW2 9602   4.661   2.914   1.861
 1951SOL     OW 9603   4.250   2.326   2.513
 1951SOL    HW1 9604   4.246   2.259   2.439
 1951SOL    HW2 9605   4.342   2.324   2.554
 1952SOL     OW 9606   4.066   2.384   3.179
 1952SOL    HW1 9607   4.125   2.366   3.258
 1952SOL    HW2 9608   4.071   2.306   3.116
 1953SOL     OW 9609   4.684   1.866   2.975
 1953SOL    HW1 9610   4.645   1.897   2.888
 1953SOL    HW2 9611   4.738   1.783   2.960
 1954SOL     OW 9612   3.608   2.918   2.098
 1954SOL    HW1 9613   3.705   2.896   2.085
 1954SOL    HW2 9614   3.574   2.871   2.180
 1955SOL     OW 9615   4.446   3.582   2.128
 1955SOL    HW1 9616   4.435   3.486   2.154
 1955SOL    HW2 9617   4.543   3.607   2.137
 1956SOL     OW 9618   4.116   3.171   4.884
 1956SOL    HW1 9619   4.040   3.236   4.877
 1956SOL    HW2 9620   4.093   3.089   4.831
 1957SOL     OW 9621   0.149   3.487   0.167
 1957SOL    HW1 9622   0.124   3.542   0.247
 1957SOL    HW2 9623   0.183   3.398   0.197
 1958SOL     OW 9624   4.042   2.951   4.747
 1958SOL    HW1 9625   4.063   2.877   4.682
 1958SOL    HW2 9626   3.945   2.950   4.769
 1959SOL     OW 9627   3.922   2.547   4.353
 1959SOL    HW1 9628   3.981   2.497   4.416
 1959SOL    HW2 9629   3.853   2.598   4.405
 1960SOL     OW 9630   3.766   2.744   4.992
 1960SOL    HW1 9631   3.822   2.672   0.032
 1960SOL    HW2 9632   3.672   2.711   4.981
 1961SOL     OW 9633   4.908   2.707   4.183
 1961SOL    HW1 9634   4.954   2.681   4.268
 1961SOL    HW2 9635   4.831   2.645   4.167
 1962SOL     OW 9636   3.773   2.704   4.520
 1962SOL    HW1 9637   3.864   2.735   4.549
 1962SOL    HW2 9638   3.704   2.764   4.560
 1963SOL     OW 9639   4.211   1.914   4.670
 1963SOL    HW1 9640   4.196   1.943   4.764
 1963SOL    HW2 9641   4.140   1.953   4.612
 1964SOL     OW 9642   4.819   3.426   4.225
 1964SOL    HW1 9643   4.865   3.414   4.136
 1964SOL    HW2 9644   4.722   3.441   4.210
 1965SOL     OW 9645   4.132   2.918   4.076
 1965SOL    HW1 9646   4.126   2.833   4.128
 1965SOL    HW2 9647   4.042   2.940   4.037
 1966SOL     OW 9648   4.095   2.675   4.193
 1966SOL    HW1 9649   4.097   2.622   4.108
 1966SOL    HW2 9650   4.024   2.637   4.253
 1967SOL     OW 9651   4.350   1.867   3.867
 1967SOL    HW1 9652   4.427   1.928   3.884
 1967SOL    HW2 9653   4.326   1.869   3.770
 1968SOL     OW 9654   4.892   3.395   4.488
 1968SOL    HW1 9655   4.861   3.416   4.395
 1968SOL    HW2 9656   4.991   3.407   4.493
 1969SOL     OW 9657   4.942   3.794   4.181
 1969SOL    HW1 9658   0.033   3.833   4.165
 1969SOL    HW2 9659   4.952   3.698   4.207
 1970SOL     OW 9660   4.844   2.494   3.820
 1970SOL    HW1 9661   4.802   2.565   3.764
 1970SOL    HW2 9662   4.921   2.533   3.870
 1971SOL     OW 9663   4.733   2.510   4.075
 1971SOL    HW1 9664   4.682   2.429   4.105
 1971SOL    HW2 9665   4.764   2.496   3.981
 1972SOL     OW 9666   4.926   3.024   4.784
 1972SOL    HW1 9667   4.876   3.055   4.865
 1972SOL    HW2 9668   4.884   3.063   4.702
 1973SOL     OW 9669   4.115   2.467   4.525
 1973SOL    HW1 9670   4.188   2.514   4.476
 1973SOL    HW2 9671   4.155   2.400   4.588
 1974SOL     OW 9672   4.989   3.202   4.249
 1974SOL    HW1 9673   0.075   3.254   4.251
 1974SOL    HW2 9674   4.912   3.266   4.244
 1975SOL     OW 9675   0.015   2.775   4.686
 1975SOL    HW1 9676   4.974   2.853   4.733
 1975SOL    HW2 9677   0.023   2.698   4.750
 1976SOL     OW 9678   0.039   2.604   3.969
 1976SOL    HW1 9679   0.107   2.559   4.027
 1976SOL    HW2 9680   4.976   2.656   4.026
 1977SOL     OW 9681   4.156   1.984   4.924
 1977SOL    HW1 9682   4.168   2.052   4.996
 1977SOL    HW2 9683   4.071   1.934   4.938
 1978SOL     OW 9684   0.332   2.296   3.779
 1978SOL    HW1 9685   0.233   2.307   3.776
 1978SOL    HW2 9686   0.358   2.254   3.867
 1979SOL     OW 9687   4.857   3.135   4.553
 1979SOL    HW1 9688   4.919   3.094   4.486
 1979SOL    HW2 9689   4.853   3.234   4.537
 1980SOL     OW 9690   4.055   2.742   4.562
 1980SOL    HW1 9691   4.124   2.779   4.501
 1980SOL    HW2 9692   4.065   2.643   4.569
 1981SOL     OW 9693   4.980   2.162   0.054
 1981SOL    HW1 9694   0.073   2.200   0.059
 1981SOL    HW2 9695   4.983   2.070   0.016
 1982SOL     OW 9696   4.299   3.258   4.402
 1982SOL    HW1 9697   4.267   3.297   4.488
 1982SOL    HW2 9698   4.306   3.330   4.333
 1983SOL     OW 9699   3.783   2.924   4.792
 1983SOL    HW1 9700   3.776   2.860   4.868
 1983SOL    HW2 9701   3.707   2.909   4.729
 1984SOL     OW 9702   4.359   3.554   3.716
 1984SOL    HW1 9703   4.444   3.561   3.663
 1984SOL    HW2 9704   4.314   3.467   3.693
 1985SOL     OW 9705   0.021   2.960   4.402
 1985SOL    HW1 9706   4.935   2.911   4.420
 1985SOL    HW2 9707   0.027   2.985   4.306
 1986SOL     OW 9708   4.285   3.428   4.190
 1986SOL    HW1 9709   4.260   3.338   4.152
 1986SOL    HW2 9710   4.304   3.491   4.115
 1987SOL     OW 9711   4.227   3.164   4.147
 1987SOL    HW1 9712   4.203   3.072   4.119
 1987SOL    HW2 9713   4.252   3.164   4.244
 1988SOL     OW 9714   3.847   2.391   3.767
 1988SOL    HW1 9715   3.749   2.388   3.749
 1988SOL    HW2 9716   3.863   2.370   3.864
 1989SOL     OW 9717   4.285   2.628   4.386
 1989SOL    HW1 9718   4.376   2.670   4.379
 1989SOL    HW2 9719   4.230   2.655   4.307
 1990SOL     OW 9720   4.940   2.892   3.783
 1990SOL    HW1 9721   4.868   2.833   3.745
 1990SOL    HW2 9722   0.028   2.847   3.775
 1991SOL     OW 9723   3.944   4.234   0.198
 1991SOL    HW1 9724   3.927   4.229   0.296
 1991SOL    HW2 9725   3.895   4.159   0.152
 1992SOL     OW 9726   4.060   4.053   1.022
 1992SOL    HW1 9727   4.068   3.954   1.031
 1992SOL    HW2 9728   3.980   4.086   1.072
 1993SOL     OW 9729   3.774   4.123   0.671
 1993SOL    HW1 9730   3.680   4.137   0.702
 1993SOL    HW2 9731   3.782   4.031   0.632
 1994SOL     OW 9732   4.966   4.480   0.713
 1994SOL    HW1 9733   0.047   4.538   0.719
 1994SOL    HW2 9734   4.910   4.493   0.795
 1995SOL     OW 9735   4.282   4.920   1.190
 1995SOL    HW1 9736   4.235   4.959   1.270
 1995SOL    HW2 9737   4.215   4.882   1.128
 1996SOL     OW 9738   4.553   4.641   1.868
 1996SOL    HW1 9739   4.555   4.728   1.916
 1996SOL    HW2 9740   4.549   4.657   1.769
 1997SOL     OW 9741   4.146   4.857   0.093
 1997SOL    HW1 9742   4.126   4.947   0.053
 1997SOL    HW2 9743   4.228   4.863   0.149
 1998SOL     OW 9744   3.934   4.215   0.468
 1998SOL    HW1 9745   3.865   4.186   0.534
 1998SOL    HW2 9746   3.986   4.292   0.506
 1999SOL     OW 9747   4.567   3.721   0.537
 1999SOL    HW1 9748   4.606   3.678   0.456
 1999SOL    HW2 9749   4.473   3.749   0.519
 2000SOL     OW 9750   4.578   4.429   1.479
 2000SOL    HW1 9751   4.482   4.419   1.504
 2000SOL    HW2 9752   4.609   4.347   1.431
 2001SOL     OW 9753   4.551   4.696   1.574
 2001SOL    HW1 9754   4.572   4.599   1.566
 2001SOL    HW2 9755   4.516   4.730   1.487
 2002SOL     OW 9756   4.718   4.221   1.302
 2002SOL    HW1 9757   4.738   4.126   1.327
 2002SOL    HW2 9758   4.702   4.228   1.204
 2003SOL     OW 9759   4.880   4.544   0.464
 2003SOL    HW1 9760   4.906   4.527   0.559
 2003SOL    HW2 9761   4.784   4.569   0.459
 2004SOL     OW 9762   4.317   3.835   0.810
 2004SOL    HW1 9763   4.334   3.933   0.801
 2004SOL    HW2 9764   4.311   3.793   0.720
 2005SOL     OW 9765   4.054   4.673   0.285
 2005SOL    HW1 9766   4.079   4.748   0.225
 2005SOL    HW2 9767   4.043   4.589   0.232
 2006SOL     OW 9768   4.692   4.226   1.028
 2006SOL    HW1 9769   4.731   4.296   0.968
 2006SOL    HW2 9770   4.717   4.135   0.994
 2007SOL     OW 9771   4.303   3.780   0.541
 2007SOL    HW1 9772   4.235   3.730   0.487
 2007SOL    HW2 9773   4.273   3.875   0.550
 2008SOL     OW 9774   4.828   4.466   1.347
 2008SOL    HW1 9775   4.772   4.491   1.426
 2008SOL    HW2 9776   4.816   4.369   1.326
 2009SOL     OW 9777   4.128   4.898   0.676
 2009SOL    HW1 9778   4.092   4.911   0.769
 2009SOL    HW2 9779   4.068   4.835   0.626
 2010SOL     OW 9780   4.837   4.368   0.028
 2010SOL    HW1 9781   4.897   4.324   4.962
 2010SOL    HW2 9782   4.882   4.373   0.117
 2011SOL     OW 9783   4.704   3.763   0.766
 2011SOL    HW1 9784   4.656   3.762   0.679
 2011SOL    HW2 9785   4.679   3.682   0.819
 2012SOL     OW 9786   4.315   4.087   0.336
 2012SOL    HW1 9787   4.410   4.057   0.322
 2012SOL    HW2 9788   4.287   4.145   0.260
 2013SOL     OW 9789   4.792   3.958   1.302
 2013SOL    HW1 9790   4.768   3.881   1.244
 2013SOL    HW2 9791   4.891   3.961   1.314
 2014SOL     OW 9792   4.572   4.940   1.713
 2014SOL    HW1 9793   4.555   4.922   1.810
 2014SOL    HW2 9794   4.577   4.853   1.665
 2015SOL     OW 9795   4.344   4.843   0.282
 2015SOL    HW1 9796   4.342   4.887   0.372
 2015SOL    HW2 9797   4.350   4.744   0.294
 2016SOL     OW 9798   3.949   4.775   0.512
 2016SOL    HW1 9799   3.868   4.826   0.484
 2016SOL    HW2 9800   3.991   4.731   0.433
 2017SOL     OW 9801   4.309   4.409   1.520
 2017SOL    HW1 9802   4.290   4.449   1.431
 2017SOL    HW2 9803   4.240   4.339   1.541
 2018SOL     OW 9804   4.099   3.943   1.664
 2018SOL    HW1 9805   4.075   3.895   1.749
 2018SOL    HW2 9806   4.146   3.880   1.602
 2019SOL     OW 9807   0.057   4.575   1.168
 2019SOL    HW1 9808   4.969   4.590   1.214
 2019SOL    HW2 9809   0.053   4.492   1.114
 2020SOL     OW 9810   4.984   4.389   0.269
 2020SOL    HW1 9811   0.078   4.421   0.256
 2020SOL    HW2 9812   4.935   4.452   0.329
 2021SOL     OW 9813   4.471   4.358   1.120
 2021SOL    HW1 9814   4.544   4.300   1.083
 2021SOL    HW2 9815   4.384   4.311   1.111
 2022SOL     OW 9816   4.021   3.815   0.725
 2022SOL    HW1 9817   4.047   3.911   0.719
 2022SOL    HW2 9818   4.039   3.781   0.817
 2023SOL     OW 9819   4.810   4.486   0.948
 2023SOL    HW1 9820   4.751   4.536   1.012
 2023SOL    HW2 9821   4.879   4.436   1.000
 2024SOL     OW 9822   4.216   4.266   1.099
 2024SOL    HW1 9823   4.170   4.183   1.069
 2024SOL    HW2 9824   4.172   4.346   1.057
 2025SOL     OW 9825   0.036   4.021   1.611
 2025SOL    HW1 9826   0.011   3.974   1.696
 2025SOL    HW2 9827   0.083   4.107   1.633
 2026SOL     OW 9828   0.062   4.004   1.346
 2026SOL    HW1 9829   0.047   3.998   1.445
 2026SOL    HW2 9830   0.078   4.100   1.321
 2027SOL     OW 9831   3.726   0.125   0.070
 2027SOL    HW1 9832   3.738   0.191   0.144
 2027SOL    HW2 9833   3.768   0.038   0.095
 2028SOL     OW 9834   4.641   4.569   1.170
 2028SOL    HW1 9835   4.707   4.537   1.238
 2028SOL    HW2 9836   4.575   4.496   1.150
 2029SOL     OW 9837   3.875   4.220   1.143
 2029SOL    HW1 9838   3.865   4.305   1.092
 2029SOL    HW2 9839   3.934   4.235   1.222
 2030SOL     OW 9840   4.122   4.217   1.602
 2030SOL    HW1 9841   4.114   4.119   1.619
 2030SOL    HW2 9842   4.121   4.267   1.688
 2031SOL     OW 9843   4.213   4.217   0.123
 2031SOL    HW1 9844   4.242   4.164   0.043
 2031SOL    HW2 9845   4.114   4.208   0.134
 2032SOL     OW 9846   3.986   4.943   0.909
 2032SOL    HW1 9847   3.960   0.004   0.984
 2032SOL    HW2 9848   3.904   4.908   0.864
 2033SOL     OW 9849   4.030   4.095   0.755
 2033SOL    HW1 9850   3.934   4.117   0.735
 2033SOL    HW2 9851   4.043   4.089   0.854
 2034SOL     OW 9852   4.458   4.743   1.314
 2034SOL    HW1 9853   4.530   4.704   1.257
 2034SOL    HW2 9854   4.408   4.812   1.263
 2035SOL     OW 9855   4.178   0.036   1.419
 2035SOL    HW1 9856   4.269   0.064   1.450
 2035SOL    HW2 9857   4.152   4.951   1.465
 2036SOL     OW 9858   4.776   3.970   0.942
 2036SOL    HW1 9859   4.750   3.920   0.860
 2036SOL    HW2 9860   4.765   3.911   1.022
 2037SOL     OW 9861   4.064   3.989   0.361
 2037SOL    HW1 9862   4.011   4.066   0.396
 2037SOL    HW2 9863   4.158   4.017   0.345
 2038SOL     OW 9864   4.311   4.516   1.276
 2038SOL    HW1 9865   4.357   4.602   1.297
 2038SOL    HW2 9866   4.371   4.460   1.218
 2039SOL     OW 9867   3.757   0.011   0.564
 2039SOL    HW1 9868   3.744   4.958   0.648
 2039SOL    HW2 9869   3.850   0.048   0.562
 2040SOL     OW 9870   4.246   4.037   0.602
 2040SOL    HW1 9871   4.263   4.081   0.514
 2040SOL    HW2 9872   4.166   4.078   0.645
 2041SOL     OW 9873   4.051   4.263   1.339
 2041SOL    HW1 9874   4.071   4.247   1.435
 2041SOL    HW2 9875   4.136   4.278   1.289
 2042SOL     OW 9876   4.745   3.761   1.115
 2042SOL    HW1 9877   4.673   3.698   1.084
 2042SOL    HW2 9878   4.834   3.716   1.107
 2043SOL     OW 9879   4.593   4.947   0.240
 2043SOL    HW1 9880   4.501   4.909   0.239
 2043SOL    HW2 9881   4.623   4.958   0.334
 2044SOL     OW 9882   3.749   4.206   2.420
 2044SOL    HW1 9883   3.718   4.221   2.514
 2044SOL    HW2 9884   3.747   4.108   2.399
 2045SOL     OW 9885   4.449   4.701   2.490
 2045SOL    HW1 9886   4.499   4.640   2.552
 2045SOL    HW2 9887   4.354   4.708   2.520
 2046SOL     OW 9888   4.015   4.802   2.766
 2046SOL    HW1 9889   4.015   4.718   2.821
 2046SOL    HW2 9890   3.961   4.872   2.812
 2047SOL     OW 9891   3.750   4.534   3.454
 2047SOL    HW1 9892   3.833   4.488   3.486
 2047SOL    HW2 9893   3.746   4.626   3.494
 2048SOL     OW 9894   4.681   4.156   3.377
 2048SOL    HW1 9895   4.707   4.085   3.443
 2048SOL    HW2 9896   4.583   4.175   3.386
 2049SOL     OW 9897   4.857   4.124   2.977
 2049SOL    HW1 9898   4.829   4.191   3.046
 2049SOL    HW2 9899   4.815   4.036   2.997
 2050SOL     OW 9900   3.753   4.490   2.766
 2050SOL    HW1 9901   3.853   4.497   2.767
 2050SOL    HW2 9902   3.713   4.577   2.793
 2051SOL     OW 9903   4.384   3.883   2.712
 2051SOL    HW1 9904   4.356   3.968   2.665
 2051SOL    HW2 9905   4.454   3.837   2.657
 2052SOL     OW 9906   4.032   3.915   2.059
 2052SOL    HW1 9907   4.068   4.008   2.059
 2052SOL    HW2 9908   4.107   3.850   2.074
 2053SOL     OW 9909   4.814   4.291   3.191
 2053SOL    HW1 9910   4.759   4.239   3.257
 2053SOL    HW2 9911   4.902   4.313   3.232
 2054SOL     OW 9912   4.183   4.696   2.586
 2054SOL    HW1 9913   4.125   4.750   2.646
 2054SOL    HW2 9914   4.143   4.692   2.494
 2055SOL     OW 9915   4.881   4.127   2.079
 2055SOL    HW1 9916   4.790   4.168   2.077
 2055SOL    HW2 9917   4.907   4.108   2.174
 2056SOL     OW 9918   3.759   4.393   3.222
 2056SOL    HW1 9919   3.854   4.362   3.231
 2056SOL    HW2 9920   3.737   4.455   3.297
 2057SOL     OW 9921   4.857   3.856   3.294
 2057SOL    HW1 9922   4.831   3.872   3.198
 2057SOL    HW2 9923   4.912   3.933   3.326
 2058SOL     OW 9924   4.548   4.889   2.317
 2058SOL    HW1 9925   4.508   4.822   2.380
 2058SOL    HW2 9926   4.620   4.845   2.264
 2059SOL     OW 9927   3.897   4.832   2.274
 2059SOL    HW1 9928   3.907   4.920   2.322
 2059SOL    HW2 9929   3.893   4.758   2.341
 2060SOL     OW 9930   4.744   3.965   3.561
 2060SOL    HW1 9931   4.802   4.015   3.625
 2060SOL    HW2 9932   4.798   3.893   3.516
 2061SOL     OW 9933   4.336   4.645   2.807
 2061SOL    HW1 9934   4.428   4.625   2.771
 2061SOL    HW2 9935   4.279   4.679   2.732
 2062SOL     OW 9936   4.338   4.405   2.925
 2062SOL    HW1 9937   4.425   4.364   2.895
 2062SOL    HW2 9938   4.334   4.500   2.895
 2063SOL     OW 9939   4.154   3.760   2.390
 2063SOL    HW1 9940   4.059   3.766   2.362
 2063SOL    HW2 9941   4.159   3.751   2.489
 2064SOL     OW 9942   4.589   4.324   2.836
 2064SOL    HW1 9943   4.623   4.374   2.916
 2064SOL    HW2 9944   4.635   4.235   2.830
 2065SOL     OW 9945   0.180   4.138   2.167
 2065SOL    HW1 9946   0.151   4.111   2.075
 2065SOL    HW2 9947   0.236   4.221   2.162
 2066SOL     OW 9948   4.023   4.513   2.775
 2066SOL    HW1 9949   4.103   4.522   2.716
 2066SOL    HW2 9950   4.046   4.457   2.855
 2067SOL     OW 9951   4.087   4.344   2.986
 2067SOL    HW1 9952   4.064   4.251   2.956
 2067SOL    HW2 9953   4.184   4.361   2.972
 2068SOL     OW 9954   4.925   4.134   3.692
 2068SOL    HW1 9955   4.864   4.203   3.732
 2068SOL    HW2 9956   0.017   4.172   3.684
 2069SOL     OW 9957   4.993   4.068   3.421
 2069SOL    HW1 9958   4.966   4.078   3.517
 2069SOL    HW2 9959   0.002   4.158   3.379
 2070SOL     OW 9960   3.700   4.963   1.943
 2070SOL    HW1 9961   3.628   4.915   1.993
 2070SOL    HW2 9962   3.762   0.007   2.008
 2071SOL     OW 9963   4.659   4.462   3.051
 2071SOL    HW1 9964   4.721   4.407   3.107
 2071SOL    HW2 9965   4.615   4.531   3.109
 2072SOL     OW 9966   3.761   4.292   2.968
 2072SOL    HW1 9967   3.758   4.359   2.894
 2072SOL    HW2 9968   3.765   4.339   3.056
 2073SOL     OW 9969   3.954   4.369   3.520
 2073SOL    HW1 9970   3.987   4.340   3.430
 2073SOL    HW2 9971   3.892   4.301   3.557
 2074SOL     OW 9972   3.836   4.987   2.857
 2074SOL    HW1 9973   3.877   0.047   2.926
 2074SOL    HW2 9974   3.754   4.944   2.894
 2075SOL     OW 9975   3.701   4.761   3.595
 2075SOL    HW1 9976   3.630   4.738   3.662
 2075SOL    HW2 9977   3.778   4.804   3.642
 2076SOL     OW 9978   3.755   3.910   2.056
 2076SOL    HW1 9979   3.721   4.002   2.075
 2076SOL    HW2 9980   3.854   3.913   2.042
 2077SOL     OW 9981   4.564   4.552   2.691
 2077SOL    HW1 9982   4.567   4.460   2.729
 2077SOL    HW2 9983   4.651   4.597   2.706
 2078SOL     OW 9984   3.850   4.803   2.554
 2078SOL    HW1 9985   3.914   4.798   2.631
 2078SOL    HW2 9986   3.855   4.895   2.514
 2079SOL     OW 9987   4.019   4.315   3.252
 2079SOL    HW1 9988   4.024   4.215   3.257
 2079SOL    HW2 9989   4.053   4.346   3.163
 2080SOL     OW 9990   4.769   3.874   3.029
 2080SOL    HW1 9991   4.671   3.866   3.009
 2080SOL    HW2 9992   4.819   3.800   2.984
 2081SOL     OW 9993   4.550   4.893   1.987
 2081SOL    HW1 9994   4.482   4.900   2.060
 2081SOL    HW2 9995   4.638   4.928   2.020
 2082SOL     OW 9996   3.718   4.666   2.125
 2082SOL    HW1 9997   3.787   4.726   2.168
 2082SOL    HW2 9998   3.713   4.580   2.176
 2083SOL     OW 9999   4.390   4.966   4.875
 2083SOL    HW110000   4.405   4.878   4.830
 2083SOL    HW210001   4.330   0.023   4.820
 2084SOL     OW10002   4.474   4.849   4.350
 2084SOL    HW110003   4.536   4.773   4.369
 2084SOL    HW210004   4.432   4.880   4.436
 2085SOL     OW10005   4.458   4.660   3.888
 2085SOL    HW110006   4.497   4.696   3.803
 2085SOL    HW210007   4.504   4.702   3.966
 2086SOL     OW10008   3.933   4.701   0.015
 2086SOL    HW110009   3.959   4.606   0.028
 2086SOL    HW210010   4.014   4.759   0.020
 2087SOL     OW10011   4.362   4.451   4.030
 2087SOL    HW110012   4.387   4.526   3.969
 2087SOL    HW210013   4.285   4.479   4.088
 2088SOL     OW10014   4.759   4.550   4.173
 2088SOL    HW110015   4.857   4.532   4.171
 2088SOL    HW210016   4.710   4.477   4.126
 2089SOL     OW10017   4.663   4.099   3.944
 2089SOL    HW110018   4.704   4.166   3.883
 2089SOL    HW210019   4.609   4.033   3.891
 2090SOL     OW10020   4.319   4.073   4.918
 2090SOL    HW110021   4.330   3.974   4.910
 2090SOL    HW210022   4.367   4.119   4.844
 2091SOL     OW10023   4.309   3.594   3.977
 2091SOL    HW110024   4.235   3.661   3.982
 2091SOL    HW210025   4.334   3.578   3.882
 2092SOL     OW10026   4.828   4.044   4.164
 2092SOL    HW110027   4.752   4.053   4.099
 2092SOL    HW210028   4.852   3.947   4.174
 2093SOL     OW10029   4.321   4.891   4.571
 2093SOL    HW110030   4.283   4.971   4.617
 2093SOL    HW210031   4.247   4.835   4.535
 2094SOL     OW10032   4.774   4.324   3.819
 2094SOL    HW110033   4.813   4.403   3.772
 2094SOL    HW210034   4.720   4.355   3.897
 2095SOL     OW10035   4.584   4.758   4.101
 2095SOL    HW110036   4.548   4.803   4.183
 2095SOL    HW210037   4.655   4.692   4.128
 2096SOL     OW10038   4.043   4.464   0.099
 2096SOL    HW110039   4.134   4.431   0.075
 2096SOL    HW210040   3.988   4.387   0.133
 2097SOL     OW10041   4.213   4.770   4.299
 2097SOL    HW110042   4.167   4.853   4.270
 2097SOL    HW210043   4.312   4.786   4.303
 2098SOL     OW10044   3.504   0.123   3.871
 2098SOL    HW110045   3.533   0.060   3.799
 2098SOL    HW210046   3.548   0.098   3.957
 2099SOL     OW10047   4.616   4.357   4.041
 2099SOL    HW110048   4.616   4.257   4.040
 2099SOL    HW210049   4.522   4.391   4.041
 2100SOL     OW10050   3.832   4.901   0.186
 2100SOL    HW110051   3.745   4.887   0.233
 2100SOL    HW210052   3.852   4.820   0.130
 2101SOL     OW10053   3.755   4.239   3.667
 2101SOL    HW110054   3.655   4.232   3.677
 2101SOL    HW210055   3.796   4.262   3.756
 2102SOL     OW10056   4.628   4.634   4.396
 2102SOL    HW110057   4.681   4.600   4.318
 2102SOL    HW210058   4.634   4.569   4.471
 2103SOL     OW10059   4.358   0.052   4.194
 2103SOL    HW110060   4.403   4.982   4.248
 2103SOL    HW210061   4.391   0.142   4.223
   5.00000   5.00000   5.00000
