KALATA B1 in water
 2665
    8ASN      N    1   0.824   1.653   1.866
    8ASN      H    2   0.911   1.697   1.840
    8ASN     CA    3   0.792   1.654   2.010
    8ASN     HA    4   0.861   1.725   2.055
    8ASN     CB    5   0.650   1.708   2.038
    8ASN    HB1    6   0.616   1.674   2.135
    8ASN    HB2    7   0.579   1.669   1.965
    8ASN     CG    8   0.645   1.859   2.041
    8ASN    OD1    9   0.716   1.926   2.113
    8ASN    ND2   10   0.558   1.919   1.964
    8ASN   HD21   11   0.517   1.870   1.885
    8ASN   HD22   12   0.547   2.018   1.974
    8ASN      C   13   0.823   1.524   2.089
    8ASN      O   14   0.790   1.514   2.206
    9GLY      N   15   0.893   1.427   2.030
    9GLY      H   16   0.931   1.444   1.938
    9GLY     CA   17   0.928   1.300   2.095
    9GLY    HA1   18   0.865   1.282   2.182
    9GLY    HA2   19   1.032   1.302   2.127
    9GLY      C   20   0.910   1.181   2.001
    9GLY      O   21   0.989   1.087   2.004
   10LEU      N   22   0.814   1.190   1.909
   10LEU      H   23   0.750   1.269   1.916
   10LEU     CA   24   0.790   1.090   1.805
   10LEU     HA   25   0.777   0.995   1.855
   10LEU     CB   26   0.658   1.125   1.735
   10LEU    HB1   27   0.650   1.069   1.642
   10LEU    HB2   28   0.658   1.232   1.710
   10LEU     CG   29   0.537   1.090   1.823
   10LEU     HG   30   0.555   1.119   1.927
   10LEU    CD1   31   0.415   1.164   1.773
   10LEU   HD11   32   0.331   1.139   1.839
   10LEU   HD12   33   0.433   1.272   1.777
   10LEU   HD13   34   0.392   1.136   1.671
   10LEU    CD2   35   0.508   0.941   1.815
   10LEU   HD21   36   0.417   0.917   1.870
   10LEU   HD22   37   0.493   0.913   1.711
   10LEU   HD23   38   0.590   0.883   1.856
   10LEU      C   39   0.907   1.081   1.705
   10LEU      O   40   0.933   1.180   1.636
   11PRO      N   41   0.976   0.966   1.693
   11PRO     CD   42   0.952   0.846   1.772
   11PRO    HD1   43   0.857   0.800   1.744
   11PRO    HD2   44   0.951   0.871   1.878
   11PRO     CG   45   1.067   0.750   1.746
   11PRO    HG1   46   1.034   0.668   1.682
   11PRO    HG2   47   1.109   0.715   1.840
   11PRO     CB   48   1.173   0.832   1.676
   11PRO    HB1   49   1.232   0.772   1.607
   11PRO    HB2   50   1.238   0.873   1.754
   11PRO     CA   51   1.096   0.946   1.610
   11PRO     HA   52   1.158   1.036   1.614
   11PRO      C   53   1.065   0.927   1.462
   11PRO      O   54   1.102   0.829   1.397
   12VAL      N   55   0.995   1.026   1.408
   12VAL      H   56   0.966   1.100   1.471
   12VAL     CA   57   0.940   1.030   1.272
   12VAL     HA   58   0.987   0.951   1.213
   12VAL     CB   59   0.789   1.002   1.276
   12VAL     HB   60   0.753   0.998   1.174
   12VAL    CG1   61   0.760   0.866   1.339
   12VAL   HG11   62   0.655   0.843   1.330
   12VAL   HG12   63   0.818   0.789   1.288
   12VAL   HG13   64   0.787   0.865   1.445
   12VAL    CG2   65   0.711   1.111   1.352
   12VAL   HG21   66   0.605   1.088   1.350
   12VAL   HG22   67   0.745   1.117   1.455
   12VAL   HG23   68   0.726   1.208   1.305
   12VAL      C   69   0.970   1.161   1.201
   12VAL      O   70   0.918   1.188   1.094
   13CYS      N   71   1.057   1.243   1.260
   13CYS      H   72   1.099   1.211   1.346
   13CYS     CA   73   1.106   1.368   1.204
   13CYS     HA   74   1.028   1.444   1.207
   13CYS     CB   75   1.220   1.410   1.298
   13CYS    HB1   76   1.286   1.324   1.313
   13CYS    HB2   77   1.176   1.437   1.393
   13CYS     SG   78   1.325   1.546   1.248
   13CYS      C   79   1.154   1.354   1.058
   13CYS      O   80   1.124   1.442   0.977
   14GLY      N   81   1.221   1.242   1.029
   14GLY      H   82   1.235   1.176   1.104
   14GLY     CA   83   1.288   1.209   0.902
   14GLY    HA1   84   1.241   1.264   0.821
   14GLY    HA2   85   1.277   1.102   0.883
   14GLY      C   86   1.437   1.243   0.905
   14GLY      O   87   1.521   1.173   0.847
   15GLU      N   88   1.472   1.345   0.984
   15GLU      H   89   1.395   1.397   1.025
   15GLU     CA   90   1.602   1.410   0.986
   15GLU     HA   91   1.659   1.378   0.898
   15GLU     CB   92   1.583   1.562   0.979
   15GLU    HB1   93   1.667   1.610   1.029
   15GLU    HB2   94   1.493   1.589   1.032
   15GLU     CG   95   1.578   1.616   0.837
   15GLU    HG1   96   1.680   1.614   0.798
   15GLU    HG2   97   1.547   1.720   0.841
   15GLU     CD   98   1.486   1.540   0.741
   15GLU    OE1   99   1.365   1.528   0.773
   15GLU    OE2  100   1.539   1.496   0.637
   15GLU      C  101   1.684   1.375   1.109
   15GLU      O  102   1.633   1.361   1.221
   16THR      N  103   1.815   1.368   1.090
   16THR      H  104   1.850   1.385   0.997
   16THR     CA  105   1.912   1.327   1.191
   16THR     HA  106   1.857   1.282   1.273
   16THR     CB  107   2.007   1.219   1.134
   16THR     HB  108   2.092   1.266   1.086
   16THR    CG2  109   2.055   1.117   1.236
   16THR   HG21  110   2.108   1.036   1.185
   16THR   HG22  111   2.123   1.163   1.306
   16THR   HG23  112   1.970   1.074   1.288
   16THR    OG1  113   1.940   1.141   1.038
   16THR    HG1  114   2.002   1.074   1.006
   16THR      C  115   1.984   1.449   1.248
   16THR      O  116   1.986   1.554   1.184
   17CYS      N  117   2.040   1.439   1.368
   17CYS      H  118   2.035   1.350   1.419
   17CYS     CA  119   2.113   1.549   1.431
   17CYS     HA  120   2.139   1.622   1.354
   17CYS     CB  121   2.025   1.621   1.533
   17CYS    HB1  122   1.939   1.662   1.482
   17CYS    HB2  123   2.082   1.705   1.572
   17CYS     SG  124   1.962   1.529   1.675
   17CYS      C  125   2.248   1.504   1.488
   17CYS      O  126   2.281   1.535   1.602
   18VAL      N  127   2.329   1.435   1.407
   18VAL      H  128   2.299   1.418   1.312
   18VAL     CA  129   2.457   1.377   1.453
   18VAL     HA  130   2.434   1.310   1.535
   18VAL     CB  131   2.523   1.293   1.342
   18VAL     HB  132   2.565   1.359   1.266
   18VAL    CG1  133   2.634   1.201   1.396
   18VAL   HG11  134   2.686   1.153   1.312
   18VAL   HG12  135   2.707   1.259   1.452
   18VAL   HG13  136   2.590   1.124   1.459
   18VAL    CG2  137   2.419   1.201   1.276
   18VAL   HG21  138   2.466   1.122   1.218
   18VAL   HG22  139   2.357   1.153   1.352
   18VAL   HG23  140   2.355   1.259   1.209
   18VAL      C  141   2.551   1.486   1.509
   18VAL      O  142   2.616   1.467   1.612
   19GLY      N  143   2.545   1.607   1.453
   19GLY      H  144   2.492   1.615   1.367
   19GLY     CA  145   2.611   1.728   1.502
   19GLY    HA1  146   2.607   1.798   1.420
   19GLY    HA2  147   2.716   1.708   1.524
   19GLY      C  148   2.548   1.800   1.623
   19GLY      O  149   2.612   1.885   1.684
   20GLY      N  150   2.423   1.768   1.658
   20GLY      H  151   2.381   1.687   1.614
   20GLY     CA  152   2.341   1.844   1.754
   20GLY    HA1  153   2.404   1.890   1.830
   20GLY    HA2  154   2.273   1.774   1.803
   20GLY      C  155   2.253   1.954   1.691
   20GLY      O  156   2.203   2.040   1.763
   21THR      N  157   2.233   1.950   1.559
   21THR      H  158   2.283   1.880   1.507
   21THR     CA  159   2.137   2.032   1.483
   21THR     HA  160   2.065   2.079   1.551
   21THR     CB  161   2.211   2.143   1.404
   21THR     HB  162   2.315   2.114   1.394
   21THR    CG2  163   2.164   2.178   1.263
   21THR   HG21  164   2.227   2.258   1.224
   21THR   HG22  165   2.173   2.093   1.196
   21THR   HG23  166   2.061   2.211   1.264
   21THR    OG1  167   2.205   2.265   1.475
   21THR    HG1  168   2.295   2.301   1.472
   21THR      C  169   2.063   1.936   1.392
   21THR      O  170   2.125   1.871   1.308
   22CYS      N  171   1.930   1.923   1.407
   22CYS      H  172   1.884   1.974   1.481
   22CYS     CA  173   1.848   1.842   1.315
   22CYS     HA  174   1.895   1.746   1.298
   22CYS     CB  175   1.711   1.820   1.376
   22CYS    HB1  176   1.722   1.770   1.472
   22CYS    HB2  177   1.651   1.757   1.311
   22CYS     SG  178   1.623   1.975   1.402
   22CYS      C  179   1.831   1.907   1.177
   22CYS      O  180   1.781   1.844   1.085
   23ASN      N  181   1.870   2.034   1.165
   23ASN      H  182   1.909   2.077   1.248
   23ASN     CA  183   1.861   2.119   1.046
   23ASN     HA  184   1.908   2.213   1.073
   23ASN     CB  185   1.946   2.054   0.935
   23ASN    HB1  186   1.881   2.008   0.861
   23ASN    HB2  187   2.007   1.974   0.978
   23ASN     CG  188   2.040   2.151   0.868
   23ASN    OD1  189   2.025   2.272   0.873
   23ASN    ND2  190   2.148   2.101   0.815
   23ASN   HD21  191   2.167   2.002   0.827
   23ASN   HD22  192   2.218   2.164   0.781
   23ASN      C  193   1.719   2.155   1.000
   23ASN      O  194   1.696   2.260   0.940
   24THR      N  195   1.621   2.072   1.036
   24THR      H  196   1.648   1.988   1.086
   24THR     CA  197   1.480   2.089   1.004
   24THR     HA  198   1.474   2.143   0.910
   24THR     CB  199   1.418   1.951   0.978
   24THR     HB  200   1.477   1.904   0.899
   24THR    CG2  201   1.417   1.860   1.100
   24THR   HG21  202   1.369   1.766   1.073
   24THR   HG22  203   1.518   1.840   1.135
   24THR   HG23  204   1.359   1.907   1.178
   24THR    OG1  205   1.286   1.959   0.935
   24THR    HG1  206   1.263   1.873   0.897
   24THR      C  207   1.409   2.170   1.113
   24THR      O  208   1.453   2.169   1.228
   25PRO      N  209   1.303   2.245   1.080
   25PRO     CD  210   1.253   2.270   0.945
   25PRO    HD1  211   1.199   2.183   0.908
   25PRO    HD2  212   1.334   2.295   0.877
   25PRO     CG  213   1.157   2.387   0.955
   25PRO    HG1  214   1.059   2.357   0.919
   25PRO    HG2  215   1.195   2.470   0.897
   25PRO     CB  216   1.150   2.425   1.104
   25PRO    HB1  217   1.047   2.436   1.136
   25PRO    HB2  218   1.205   2.517   1.121
   25PRO     CA  219   1.220   2.312   1.179
   25PRO     HA  220   1.282   2.355   1.257
   25PRO      C  221   1.118   2.217   1.244
   25PRO      O  222   1.104   2.102   1.204
   26GLY      N  223   1.047   2.269   1.345
   26GLY      H  224   1.065   2.364   1.371
   26GLY     CA  225   0.941   2.196   1.416
   26GLY    HA1  226   0.857   2.179   1.350
   26GLY    HA2  227   0.909   2.257   1.501
   26GLY      C  228   0.988   2.062   1.473
   26GLY      O  229   0.912   1.966   1.480
   27CYS      N  230   1.116   2.059   1.510
   27CYS      H  231   1.163   2.148   1.513
   27CYS     CA  232   1.196   1.942   1.538
   27CYS     HA  233   1.136   1.851   1.521
   27CYS     CB  234   1.315   1.941   1.442
   27CYS    HB1  235   1.319   2.035   1.387
   27CYS    HB2  236   1.298   1.862   1.369
   27CYS     SG  237   1.476   1.917   1.525
   27CYS      C  238   1.242   1.942   1.683
   27CYS      O  239   1.272   2.046   1.743
   28THR      N  240   1.259   1.823   1.738
   28THR      H  241   1.231   1.743   1.683
   28THR     CA  242   1.319   1.796   1.867
   28THR     HA  243   1.357   1.887   1.913
   28THR     CB  244   1.210   1.738   1.958
   28THR     HB  245   1.154   1.661   1.904
   28THR    CG2  246   1.256   1.680   2.092
   28THR   HG21  247   1.169   1.651   2.151
   28THR   HG22  248   1.315   1.591   2.074
   28THR   HG23  249   1.315   1.753   2.146
   28THR    OG1  250   1.119   1.841   1.989
   28THR    HG1  251   1.082   1.823   2.076
   28THR      C  252   1.437   1.704   1.840
   28THR      O  253   1.422   1.582   1.834
   29CYS      N  254   1.556   1.760   1.813
   29CYS      H  255   1.564   1.861   1.810
   29CYS     CA  256   1.678   1.679   1.816
   29CYS     HA  257   1.676   1.607   1.735
   29CYS     CB  258   1.804   1.765   1.797
   29CYS    HB1  259   1.802   1.846   1.870
   29CYS    HB2  260   1.802   1.810   1.697
   29CYS     SG  261   1.959   1.674   1.819
   29CYS      C  262   1.682   1.602   1.949
   29CYS      O  263   1.666   1.660   2.056
   30SER      N  264   1.691   1.470   1.938
   30SER      H  265   1.688   1.431   1.845
   30SER     CA  266   1.681   1.377   2.050
   30SER     HA  267   1.686   1.431   2.144
   30SER     CB  268   1.542   1.313   2.038
   30SER    HB1  269   1.538   1.252   1.948
   30SER    HB2  270   1.467   1.392   2.031
   30SER     OG  271   1.510   1.234   2.149
   30SER     HG  272   1.516   1.140   2.121
   30SER      C  273   1.796   1.275   2.049
   30SER      O  274   1.827   1.215   2.151
   31TRP      N  275   1.866   1.267   1.935
   31TRP      H  276   1.828   1.319   1.858
   31TRP     CA  277   1.986   1.189   1.905
   31TRP     HA  278   2.010   1.219   1.804
   31TRP     CB  279   2.107   1.238   1.988
   31TRP    HB1  280   2.122   1.170   2.071
   31TRP    HB2  281   2.082   1.335   2.031
   31TRP     CG  282   2.236   1.254   1.912
   31TRP    CD1  283   2.287   1.373   1.874
   31TRP    HD1  284   2.239   1.469   1.892
   31TRP    NE1  285   2.405   1.354   1.806
   31TRP    HE1  286   2.454   1.428   1.757
   31TRP    CE2  287   2.434   1.221   1.792
   31TRP    CZ2  288   2.536   1.154   1.724
   31TRP    HZ2  289   2.614   1.212   1.675
   31TRP    CH2  290   2.531   1.014   1.713
   31TRP    HH2  291   2.605   0.961   1.656
   31TRP    CZ3  292   2.427   0.944   1.774
   31TRP    HZ3  293   2.422   0.836   1.763
   31TRP    CE3  294   2.328   1.012   1.848
   31TRP    HE3  295   2.247   0.955   1.891
   31TRP    CD2  296   2.327   1.153   1.858
   31TRP      C  297   1.965   1.036   1.907
   31TRP      O  298   1.919   0.980   2.006
   32PRO      N  299   2.000   0.964   1.798
   32PRO     CD  300   1.968   0.824   1.785
   32PRO    HD1  301   1.864   0.813   1.754
   32PRO    HD2  302   1.983   0.772   1.879
   32PRO     CG  303   2.059   0.769   1.676
   32PRO    HG1  304   2.001   0.707   1.608
   32PRO    HG2  305   2.140   0.713   1.722
   32PRO     CB  306   2.118   0.889   1.602
   32PRO    HB1  307   2.086   0.889   1.498
   32PRO    HB2  308   2.226   0.884   1.606
   32PRO     CA  309   2.067   1.013   1.677
   32PRO     HA  310   2.151   1.077   1.700
   32PRO      C  311   1.976   1.095   1.589
   32PRO      O  312   2.019   1.193   1.528
   33VAL      N  313   1.849   1.058   1.587
   33VAL      H  314   1.815   0.993   1.658
   33VAL     CA  315   1.753   1.114   1.494
   33VAL     HA  316   1.808   1.168   1.419
   33VAL     CB  317   1.676   1.003   1.419
   33VAL     HB  318   1.593   0.974   1.480
   33VAL    CG1  319   1.624   1.053   1.284
   33VAL   HG11  320   1.577   0.972   1.229
   33VAL   HG12  321   1.549   1.131   1.300
   33VAL   HG13  322   1.706   1.093   1.224
   33VAL    CG2  323   1.758   0.875   1.393
   33VAL   HG21  324   1.696   0.803   1.339
   33VAL   HG22  325   1.846   0.897   1.333
   33VAL   HG23  326   1.788   0.829   1.487
   33VAL      C  327   1.669   1.218   1.568
   33VAL      O  328   1.652   1.213   1.690
   34CYS      N  329   1.622   1.319   1.498
   34CYS      H  330   1.635   1.321   1.397
   34CYS     CA  331   1.529   1.413   1.557
   34CYS     HA  332   1.562   1.436   1.658
   34CYS     CB  333   1.534   1.545   1.478
   34CYS    HB1  334   1.598   1.535   1.391
   34CYS    HB2  335   1.582   1.617   1.544
   34CYS     SG  336   1.379   1.622   1.428
   34CYS      C  337   1.391   1.348   1.574
   34CYS      O  338   1.363   1.238   1.525
   35THR      N  339   1.305   1.414   1.649
   35THR      H  340   1.337   1.498   1.696
   35THR     CA  341   1.168   1.374   1.676
   35THR     HA  342   1.139   1.297   1.605
   35THR     CB  343   1.155   1.317   1.817
   35THR     HB  344   1.055   1.278   1.827
   35THR    CG2  345   1.254   1.205   1.849
   35THR   HG21  346   1.240   1.169   1.951
   35THR   HG22  347   1.237   1.122   1.782
   35THR   HG23  348   1.356   1.239   1.837
   35THR    OG1  349   1.173   1.415   1.915
   35THR    HG1  350   1.213   1.373   1.992
   35THR      C  351   1.073   1.493   1.656
   35THR      O  352   1.117   1.607   1.649
   36ARG      N  353   0.942   1.469   1.647
   36ARG      H  354   0.911   1.372   1.648
   36ARG     CA  355   0.841   1.575   1.636
   36ARG     HA  356   0.892   1.671   1.624
   36ARG     CB  357   0.759   1.553   1.507
   36ARG    HB1  358   0.664   1.504   1.530
   36ARG    HB2  359   0.814   1.489   1.438
   36ARG     CG  360   0.735   1.687   1.435
   36ARG    HG1  361   0.831   1.721   1.395
   36ARG    HG2  362   0.698   1.762   1.505
   36ARG     CD  363   0.636   1.673   1.319
   36ARG    HD1  364   0.656   1.581   1.264
   36ARG    HD2  365   0.653   1.757   1.251
   36ARG     NE  366   0.497   1.675   1.367
   36ARG     HE  367   0.482   1.650   1.464
   36ARG     CZ  368   0.391   1.708   1.296
   36ARG    NH1  369   0.398   1.734   1.168
   36ARG   HH11  370   0.487   1.724   1.121
   36ARG   HH12  371   0.314   1.734   1.112
   36ARG    NH2  372   0.274   1.721   1.351
   36ARG   HH21  373   0.263   1.722   1.452
   36ARG   HH22  374   0.197   1.746   1.293
   36ARG      C  375   0.764   1.584   1.768
   36ARG      O  376   0.660   1.520   1.784
   37SOL     OW  377   0.243   0.666   0.111
   37SOL    HW1  378   0.172   0.619   0.156
   37SOL    HW2  379   0.254   0.619   0.029
   38SOL     OW  380   0.198   0.278   1.005
   38SOL    HW1  381   0.237   0.248   1.087
   38SOL    HW2  382   0.104   0.259   1.014
   39SOL     OW  383   0.006   0.392   0.662
   39SOL    HW1  384   2.921   0.432   0.680
   39SOL    HW2  385   2.985   0.319   0.604
   40SOL     OW  386   0.525   1.277   1.139
   40SOL    HW1  387   0.436   1.312   1.133
   40SOL    HW2  388   0.571   1.340   1.195
   41SOL     OW  389   1.130   0.695   0.700
   41SOL    HW1  390   1.178   0.776   0.689
   41SOL    HW2  391   1.074   0.711   0.776
   42SOL     OW  392   1.777   0.589   0.229
   42SOL    HW1  393   1.738   0.592   0.142
   42SOL    HW2  394   1.732   0.516   0.273
   43SOL     OW  395   0.683   1.131   0.973
   43SOL    HW1  396   0.617   1.181   1.022
   43SOL    HW2  397   0.764   1.180   0.986
   44SOL     OW  398   0.680   1.000   0.650
   44SOL    HW1  399   0.754   0.995   0.711
   44SOL    HW2  400   0.616   1.057   0.694
   45SOL     OW  401   0.315   1.451   1.070
   45SOL    HW1  402   0.260   1.384   1.028
   45SOL    HW2  403   0.377   1.477   1.002
   46SOL     OW  404   0.454   0.409   1.504
   46SOL    HW1  405   0.527   0.347   1.495
   46SOL    HW2  406   0.376   0.354   1.509
   47SOL     OW  407   1.610   0.458   0.739
   47SOL    HW1  408   1.537   0.477   0.680
   47SOL    HW2  409   1.619   0.537   0.792
   48SOL     OW  410   0.216   1.716   0.480
   48SOL    HW1  411   0.236   1.798   0.525
   48SOL    HW2  412   0.289   1.704   0.419
   49SOL     OW  413   0.252   1.451   0.524
   49SOL    HW1  414   0.215   1.539   0.520
   49SOL    HW2  415   0.192   1.403   0.581
   50SOL     OW  416   0.255   1.077   0.890
   50SOL    HW1  417   0.258   0.992   0.935
   50SOL    HW2  418   0.199   1.131   0.946
   51SOL     OW  419   0.585   0.976   0.155
   51SOL    HW1  420   0.596   1.050   0.095
   51SOL    HW2  421   0.627   1.005   0.236
   52SOL     OW  422   1.554   0.152   1.448
   52SOL    HW1  423   1.588   0.235   1.415
   52SOL    HW2  424   1.626   0.116   1.500
   53SOL     OW  425   0.117   0.629   0.567
   53SOL    HW1  426   0.085   0.549   0.609
   53SOL    HW2  427   0.117   0.695   0.637
   54SOL     OW  428   1.847   1.758   0.321
   54SOL    HW1  429   1.894   1.720   0.395
   54SOL    HW2  430   1.874   1.850   0.320
   55SOL     OW  431   0.024   1.603   0.119
   55SOL    HW1  432   0.025   1.507   0.124
   55SOL    HW2  433   2.985   1.631   0.202
   56SOL     OW  434   1.669   0.893   0.615
   56SOL    HW1  435   1.763   0.876   0.605
   56SOL    HW2  436   1.652   0.964   0.552
   57SOL     OW  437   1.652   1.118   0.442
   57SOL    HW1  438   1.737   1.118   0.397
   57SOL    HW2  439   1.652   1.199   0.493
   58SOL     OW  440   0.126   0.746   1.585
   58SOL    HW1  441   0.222   0.744   1.580
   58SOL    HW2  442   0.106   0.839   1.601
   59SOL     OW  443   0.605   1.385   0.732
   59SOL    HW1  444   0.563   1.300   0.739
   59SOL    HW2  445   0.592   1.410   0.640
   60SOL     OW  446   0.821   0.017   0.520
   60SOL    HW1  447   0.855   0.104   0.501
   60SOL    HW2  448   0.727   0.024   0.501
   61SOL     OW  449   0.184   0.958   1.279
   61SOL    HW1  450   0.268   0.916   1.264
   61SOL    HW2  451   0.124   0.915   1.218
   62SOL     OW  452   1.509   1.005   0.219
   62SOL    HW1  453   1.443   0.947   0.257
   62SOL    HW2  454   1.555   1.042   0.295
   63SOL     OW  455   0.339   0.250   1.800
   63SOL    HW1  456   0.386   0.330   1.825
   63SOL    HW2  457   0.253   0.259   1.841
   64SOL     OW  458   1.661   1.730   0.557
   64SOL    HW1  459   1.629   1.712   0.469
   64SOL    HW2  460   1.638   1.652   0.607
   65SOL     OW  461   0.592   0.717   0.270
   65SOL    HW1  462   0.600   0.802   0.225
   65SOL    HW2  463   0.530   0.734   0.341
   66SOL     OW  464   1.287   0.347   0.932
   66SOL    HW1  465   1.194   0.324   0.939
   66SOL    HW2  466   1.329   0.293   0.999
   67SOL     OW  467   1.587   1.677   0.301
   67SOL    HW1  468   1.678   1.703   0.290
   67SOL    HW2  469   1.559   1.649   0.214
   68SOL     OW  470   0.817   0.578   1.464
   68SOL    HW1  471   0.772   0.577   1.549
   68SOL    HW2  472   0.754   0.538   1.404
   69SOL     OW  473   1.386   0.480   1.681
   69SOL    HW1  474   1.394   0.524   1.766
   69SOL    HW2  475   1.445   0.405   1.687
   70SOL     OW  476   1.002   0.420   1.228
   70SOL    HW1  477   0.945   0.458   1.294
   70SOL    HW2  478   0.943   0.387   1.161
   71SOL     OW  479   1.051   0.705   0.424
   71SOL    HW1  480   1.068   0.696   0.518
   71SOL    HW2  481   0.969   0.658   0.410
   72SOL     OW  482   0.104   0.811   0.764
   72SOL    HW1  483   0.181   0.813   0.821
   72SOL    HW2  484   0.045   0.877   0.802
   73SOL     OW  485   0.137   1.831   1.571
   73SOL    HW1  486   0.128   1.809   1.663
   73SOL    HW2  487   0.062   1.888   1.552
   74SOL     OW  488   0.926   0.340   0.220
   74SOL    HW1  489   0.938   0.400   0.147
   74SOL    HW2  490   0.874   0.268   0.185
   75SOL     OW  491   1.716   0.576   1.820
   75SOL    HW1  492   1.665   0.643   1.774
   75SOL    HW2  493   1.728   0.506   1.756
   76SOL     OW  494   1.360   1.120   0.515
   76SOL    HW1  495   1.452   1.138   0.497
   76SOL    HW2  496   1.313   1.198   0.485
   77SOL     OW  497   0.499   0.206   0.922
   77SOL    HW1  498   0.537   0.218   1.009
   77SOL    HW2  499   0.551   0.262   0.865
   78SOL     OW  500   0.992   1.434   0.467
   78SOL    HW1  501   0.965   1.516   0.426
   78SOL    HW2  502   1.019   1.459   0.555
   79SOL     OW  503   0.358   1.814   0.868
   79SOL    HW1  504   0.407   1.732   0.865
   79SOL    HW2  505   0.424   1.882   0.876
   80SOL     OW  506   1.790   1.041   0.827
   80SOL    HW1  507   1.701   1.039   0.792
   80SOL    HW2  508   1.782   1.085   0.911
   81SOL     OW  509   0.317   0.945   0.234
   81SOL    HW1  510   0.408   0.953   0.208
   81SOL    HW2  511   0.291   0.858   0.205
   82SOL     OW  512   1.473   0.737   0.728
   82SOL    HW1  513   1.474   0.704   0.818
   82SOL    HW2  514   1.549   0.794   0.722
   83SOL     OW  515   1.112   1.780   0.217
   83SOL    HW1  516   1.068   1.733   0.288
   83SOL    HW2  517   1.149   1.710   0.162
   84SOL     OW  518   0.206   0.298   1.494
   84SOL    HW1  519   0.122   0.344   1.491
   84SOL    HW2  520   0.186   0.215   1.538
   85SOL     OW  521   1.626   1.359   0.085
   85SOL    HW1  522   1.599   1.451   0.078
   85SOL    HW2  523   1.544   1.310   0.083
   86SOL     OW  524   0.464   1.719   0.334
   86SOL    HW1  525   0.501   1.788   0.389
   86SOL    HW2  526   0.532   1.702   0.269
   87SOL     OW  527   1.411   0.109   0.439
   87SOL    HW1  528   1.395   0.085   0.347
   87SOL    HW2  529   1.505   0.127   0.443
   88SOL     OW  530   0.955   1.688   0.906
   88SOL    HW1  531   1.019   1.620   0.926
   88SOL    HW2  532   0.899   1.650   0.838
   89SOL     OW  533   0.395   0.689   0.472
   89SOL    HW1  534   0.424   0.600   0.494
   89SOL    HW2  535   0.301   0.689   0.494
   90SOL     OW  536   1.536   0.254   1.736
   90SOL    HW1  537   1.534   0.258   1.831
   90SOL    HW2  538   1.484   0.176   1.714
   91SOL     OW  539   0.607   0.110   0.105
   91SOL    HW1  540   0.702   0.106   0.115
   91SOL    HW2  541   0.594   0.155   0.022
   92SOL     OW  542   0.763   0.280   1.753
   92SOL    HW1  543   0.843   0.228   1.756
   92SOL    HW2  544   0.726   0.272   1.840
   93SOL     OW  545   1.365   0.576   1.424
   93SOL    HW1  546   1.379   0.549   1.515
   93SOL    HW2  547   1.355   0.671   1.428
   94SOL     OW  548   0.795   1.417   0.938
   94SOL    HW1  549   0.886   1.400   0.911
   94SOL    HW2  550   0.743   1.394   0.861
   95SOL     OW  551   0.930   0.510   0.903
   95SOL    HW1  552   0.906   0.504   0.811
   95SOL    HW2  553   0.962   0.422   0.925
   96SOL     OW  554   0.543   0.051   0.504
   96SOL    HW1  555   0.456   0.039   0.541
   96SOL    HW2  556   0.533   0.121   0.440
   97SOL     OW  557   1.408   1.206   0.052
   97SOL    HW1  558   1.425   1.132   0.111
   97SOL    HW2  559   1.323   1.240   0.080
   98SOL     OW  560   0.295   0.081   0.203
   98SOL    HW1  561   0.382   0.120   0.206
   98SOL    HW2  562   0.310   2.989   0.181
   99SOL     OW  563   0.951   0.254   0.475
   99SOL    HW1  564   0.931   0.290   0.388
   99SOL    HW2  565   1.046   0.266   0.484
  100SOL     OW  566   0.462   1.151   0.731
  100SOL    HW1  567   0.393   1.128   0.793
  100SOL    HW2  568   0.423   1.137   0.645
  101SOL     OW  569   1.265   1.809   0.597
  101SOL    HW1  570   1.309   1.876   0.544
  101SOL    HW2  571   1.201   1.858   0.649
  102SOL     OW  572   1.052   0.495   0.034
  102SOL    HW1  573   1.009   0.580   0.033
  102SOL    HW2  574   1.119   0.503   0.103
  103SOL     OW  575   0.083   0.563   1.390
  103SOL    HW1  576   0.173   0.560   1.358
  103SOL    HW2  577   0.084   0.630   1.458
  104SOL     OW  578   0.587   0.204   1.186
  104SOL    HW1  579   0.624   0.180   1.271
  104SOL    HW2  580   0.493   0.210   1.201
  105SOL     OW  581   0.873   0.473   0.639
  105SOL    HW1  582   0.826   0.521   0.571
  105SOL    HW2  583   0.886   0.386   0.603
  106SOL     OW  584   1.000   0.063   0.761
  106SOL    HW1  585   0.966   0.076   0.673
  106SOL    HW2  586   0.968   2.977   0.787
  107SOL     OW  587   1.466   0.611   0.977
  107SOL    HW1  588   1.413   0.532   0.981
  107SOL    HW2  589   1.525   0.604   1.052
  108SOL     OW  590   1.854   0.812   0.377
  108SOL    HW1  591   1.906   0.758   0.436
  108SOL    HW2  592   1.825   0.752   0.308
  109SOL     OW  593   0.489   1.410   0.147
  109SOL    HW1  594   0.428   1.373   0.211
  109SOL    HW2  595   0.436   1.421   0.068
  110SOL     OW  596   1.414   0.572   0.095
  110SOL    HW1  597   1.346   0.570   0.163
  110SOL    HW2  598   1.454   0.486   0.099
  111SOL     OW  599   0.523   0.258   0.323
  111SOL    HW1  600   0.570   0.215   0.252
  111SOL    HW2  601   0.496   0.342   0.286
  112SOL     OW  602   0.895   0.116   1.378
  112SOL    HW1  603   0.937   0.097   1.293
  112SOL    HW2  604   0.961   0.166   1.426
  113SOL     OW  605   0.704   1.063   0.381
  113SOL    HW1  606   0.691   1.048   0.475
  113SOL    HW2  607   0.785   1.016   0.361
  114SOL     OW  608   0.414   0.812   1.263
  114SOL    HW1  609   0.506   0.796   1.284
  114SOL    HW2  610   0.373   0.726   1.269
  115SOL     OW  611   1.268   0.377   1.269
  115SOL    HW1  612   1.302   0.452   1.318
  115SOL    HW2  613   1.177   0.399   1.251
  116SOL     OW  614   0.040   1.557   1.307
  116SOL    HW1  615   2.974   1.624   1.326
  116SOL    HW2  616   0.114   1.578   1.363
  117SOL     OW  617   0.347   1.115   0.487
  117SOL    HW1  618   0.343   1.187   0.423
  117SOL    HW2  619   0.351   1.036   0.434
  118SOL     OW  620   0.546   0.542   0.860
  118SOL    HW1  621   0.564   0.596   0.783
  118SOL    HW2  622   0.615   0.564   0.922
  119SOL     OW  623   1.241   1.340   0.392
  119SOL    HW1  624   1.288   1.421   0.410
  119SOL    HW2  625   1.153   1.355   0.429
  120SOL     OW  626   1.581   0.623   0.480
  120SOL    HW1  627   1.533   0.672   0.547
  120SOL    HW2  628   1.625   0.690   0.428
  121SOL     OW  629   0.394   0.710   1.588
  121SOL    HW1  630   0.447   0.778   1.547
  121SOL    HW2  631   0.452   0.635   1.597
  122SOL     OW  632   1.580   0.734   1.641
  122SOL    HW1  633   1.502   0.774   1.678
  122SOL    HW2  634   1.638   0.808   1.622
  123SOL     OW  635   1.008   0.119   1.757
  123SOL    HW1  636   1.055   0.199   1.733
  123SOL    HW2  637   1.022   0.061   1.683
  124SOL     OW  638   0.508   0.048   1.751
  124SOL    HW1  639   0.472   2.983   1.691
  124SOL    HW2  640   0.441   0.116   1.757
  125SOL     OW  641   0.580   0.875   1.026
  125SOL    HW1  642   0.609   0.962   0.999
  125SOL    HW2  643   0.517   0.892   1.096
  126SOL     OW  644   1.340   0.848   1.071
  126SOL    HW1  645   1.301   0.877   0.989
  126SOL    HW2  646   1.389   0.769   1.047
  127SOL     OW  647   1.203   0.527   0.269
  127SOL    HW1  648   1.213   0.450   0.325
  127SOL    HW2  649   1.163   0.593   0.325
  128SOL     OW  650   0.329   0.206   1.252
  128SOL    HW1  651   0.293   0.254   1.326
  128SOL    HW2  652   0.277   0.126   1.247
  129SOL     OW  653   0.013   1.289   1.284
  129SOL    HW1  654   0.061   1.246   1.354
  129SOL    HW2  655   0.029   1.382   1.297
  130SOL     OW  656   0.720   0.628   1.053
  130SOL    HW1  657   0.799   0.613   1.001
  130SOL    HW2  658   0.696   0.719   1.035
  131SOL     OW  659   1.663   0.950   1.812
  131SOL    HW1  660   1.581   0.982   1.774
  131SOL    HW2  661   1.648   0.955   1.907
  132SOL     OW  662   0.308   0.074   0.642
  132SOL    HW1  663   0.303   0.159   0.687
  132SOL    HW2  664   0.279   0.011   0.708
  133SOL     OW  665   1.619   0.377   0.363
  133SOL    HW1  666   1.646   0.313   0.428
  133SOL    HW2  667   1.593   0.454   0.414
  134SOL     OW  668   1.012   0.757   0.983
  134SOL    HW1  669   1.058   0.750   1.067
  134SOL    HW2  670   0.992   0.666   0.960
  135SOL     OW  671   1.493   0.306   0.125
  135SOL    HW1  672   1.458   0.218   0.139
  135SOL    HW2  673   1.550   0.322   0.200
  136SOL     OW  674   1.289   0.820   0.028
  136SOL    HW1  675   1.333   0.737   0.047
  136SOL    HW2  676   1.329   0.851   2.947
  137SOL     OW  677   0.310   0.805   0.952
  137SOL    HW1  678   0.403   0.822   0.938
  137SOL    HW2  679   0.306   0.714   0.982
  138SOL     OW  680   0.330   0.518   1.017
  138SOL    HW1  681   0.292   0.433   0.996
  138SOL    HW2  682   0.405   0.525   0.957
  139SOL     OW  683   1.139   0.368   1.713
  139SOL    HW1  684   1.096   0.416   1.784
  139SOL    HW2  685   1.221   0.415   1.698
  140SOL     OW  686   1.100   0.246   1.478
  140SOL    HW1  687   1.115   0.303   1.553
  140SOL    HW2  688   1.175   0.262   1.421
  141SOL     OW  689   0.011   1.316   0.169
  141SOL    HW1  690   2.918   1.331   0.148
  141SOL    HW2  691   0.009   1.242   0.230
  142SOL     OW  692   0.107   1.802   0.987
  142SOL    HW1  693   0.069   1.736   0.930
  142SOL    HW2  694   0.187   1.830   0.942
  143SOL     OW  695   0.502   1.575   0.901
  143SOL    HW1  696   0.577   1.629   0.923
  143SOL    HW2  697   0.538   1.505   0.846
  144SOL     OW  698   0.043   0.581   1.114
  144SOL    HW1  699   0.125   0.548   1.078
  144SOL    HW2  700   0.040   0.547   1.204
  145SOL     OW  701   0.189   0.520   1.723
  145SOL    HW1  702   0.263   0.493   1.669
  145SOL    HW2  703   0.157   0.600   1.682
  146SOL     OW  704   1.433   0.990   1.652
  146SOL    HW1  705   1.419   1.084   1.637
  146SOL    HW2  706   1.409   0.949   1.569
  147SOL     OW  707   0.817   0.574   0.358
  147SOL    HW1  708   0.823   0.498   0.300
  147SOL    HW2  709   0.739   0.621   0.327
  148SOL     OW  710   1.634   0.587   1.185
  148SOL    HW1  711   1.625   0.529   1.261
  148SOL    HW2  712   1.724   0.572   1.154
  149SOL     OW  713   0.274   1.575   1.714
  149SOL    HW1  714   0.228   1.642   1.765
  149SOL    HW2  715   0.249   1.492   1.755
  150SOL     OW  716   0.670   0.466   1.263
  150SOL    HW1  717   0.645   0.383   1.224
  150SOL    HW2  718   0.687   0.524   1.188
  151SOL     OW  719   0.453   0.496   0.201
  151SOL    HW1  720   0.511   0.568   0.226
  151SOL    HW2  721   0.369   0.537   0.183
  152SOL     OW  722   0.169   1.146   1.470
  152SOL    HW1  723   0.152   1.096   1.550
  152SOL    HW2  724   0.174   1.080   1.401
  153SOL     OW  725   1.315   0.839   0.309
  153SOL    HW1  726   1.239   0.833   0.366
  153SOL    HW2  727   1.279   0.838   0.220
  154SOL     OW  728   0.098   1.251   1.028
  154SOL    HW1  729   0.072   1.255   1.120
  154SOL    HW2  730   0.018   1.270   0.980
  155SOL     OW  731   0.873   0.078   0.150
  155SOL    HW1  732   0.945   0.069   0.087
  155SOL    HW2  733   0.896   0.021   0.222
  156SOL     OW  734   1.713   0.144   0.502
  156SOL    HW1  735   1.784   0.146   0.438
  156SOL    HW2  736   1.730   0.066   0.555
  157SOL     OW  737   1.340   1.589   0.424
  157SOL    HW1  738   1.435   1.595   0.416
  157SOL    HW2  739   1.320   1.630   0.508
  158SOL     OW  740   0.134   1.785   1.843
  158SOL    HW1  741   0.081   1.721   1.890
  158SOL    HW2  742   0.174   1.838   1.911
  159SOL     OW  743   1.272   0.922   0.672
  159SOL    HW1  744   1.349   0.865   0.680
  159SOL    HW2  745   1.302   0.995   0.618
  160SOL     OW  746   0.665   1.615   0.164
  160SOL    HW1  747   0.678   1.632   0.071
  160SOL    HW2  748   0.615   1.534   0.167
  161SOL     OW  749   1.849   0.153   0.966
  161SOL    HW1  750   1.851   0.070   0.918
  161SOL    HW2  751   1.768   0.195   0.937
  162SOL     OW  752   0.265   0.330   0.739
  162SOL    HW1  753   0.173   0.357   0.729
  162SOL    HW2  754   0.272   0.304   0.831
  163SOL     OW  755   1.211   1.597   0.035
  163SOL    HW1  756   1.202   1.509   0.070
  163SOL    HW2  757   1.157   1.597   2.955
  164SOL     OW  758   0.919   0.926   0.301
  164SOL    HW1  759   0.985   0.970   0.247
  164SOL    HW2  760   0.970   0.869   0.359
  165SOL     OW  761   1.488   1.599   0.046
  165SOL    HW1  762   1.393   1.602   0.060
  165SOL    HW2  763   1.503   1.648   2.965
  166SOL     OW  764   0.386   1.317   1.457
  166SOL    HW1  765   0.337   1.394   1.486
  166SOL    HW2  766   0.322   1.246   1.457
  167SOL     OW  767   1.034   1.093   0.676
  167SOL    HW1  768   0.978   1.047   0.738
  167SOL    HW2  769   1.114   1.041   0.673
  168SOL     OW  770   1.022   0.246   0.962
  168SOL    HW1  771   1.015   0.192   0.883
  168SOL    HW2  772   1.026   0.184   1.034
  169SOL     OW  773   0.601   1.487   0.479
  169SOL    HW1  774   0.647   1.439   0.410
  169SOL    HW2  775   0.537   1.541   0.433
  170SOL     OW  776   1.724   0.387   1.378
  170SOL    HW1  777   1.796   0.450   1.374
  170SOL    HW2  778   1.749   0.317   1.318
  171SOL     OW  779   0.271   1.327   0.291
  171SOL    HW1  780   0.182   1.332   0.258
  171SOL    HW2  781   0.268   1.375   0.374
  172SOL     OW  782   0.133   0.996   1.704
  172SOL    HW1  783   0.046   0.996   1.745
  172SOL    HW2  784   0.191   0.962   1.772
  173SOL     OW  785   0.662   0.215   1.490
  173SOL    HW1  786   0.744   0.183   1.452
  173SOL    HW2  787   0.683   0.231   1.583
  174SOL     OW  788   0.065   0.305   0.053
  174SOL    HW1  789   2.977   0.334   0.028
  174SOL    HW2  790   0.120   0.382   0.044
  175SOL     OW  791   1.392   0.856   1.391
  175SOL    HW1  792   1.329   0.860   1.319
  175SOL    HW2  793   1.473   0.826   1.350
  176SOL     OW  794   0.035   0.172   0.287
  176SOL    HW1  795   0.033   0.225   0.207
  176SOL    HW2  796   0.127   0.149   0.298
  177SOL     OW  797   1.182   1.342   0.125
  177SOL    HW1  798   1.086   1.341   0.116
  177SOL    HW2  799   1.197   1.337   0.219
  178SOL     OW  800   0.717   0.561   1.721
  178SOL    HW1  801   0.720   0.587   1.813
  178SOL    HW2  802   0.737   0.468   1.721
  179SOL     OW  803   1.225   0.316   0.456
  179SOL    HW1  804   1.286   0.243   0.456
  179SOL    HW2  805   1.250   0.368   0.533
  180SOL     OW  806   0.588   0.739   0.670
  180SOL    HW1  807   0.628   0.825   0.661
  180SOL    HW2  808   0.522   0.735   0.601
  181SOL     OW  809   1.760   0.361   1.646
  181SOL    HW1  810   1.741   0.378   1.553
  181SOL    HW2  811   1.680   0.322   1.680
  182SOL     OW  812   0.912   1.382   0.065
  182SOL    HW1  813   0.845   1.379   0.133
  182SOL    HW2  814   0.864   1.404   2.985
  183SOL     OW  815   0.654   1.794   0.977
  183SOL    HW1  816   0.638   1.880   0.937
  183SOL    HW2  817   0.748   1.780   0.966
  184SOL     OW  818   0.872   0.958   0.851
  184SOL    HW1  819   0.916   0.892   0.904
  184SOL    HW2  820   0.818   1.007   0.913
  185SOL     OW  821   1.096   1.008   0.105
  185SOL    HW1  822   1.075   1.069   0.034
  185SOL    HW2  823   1.166   0.954   0.069
  186SOL     OW  824   0.186   1.350   1.848
  186SOL    HW1  825   0.203   1.258   1.825
  186SOL    HW2  826   0.199   1.353   1.943
  187SOL     OW  827   0.131   1.254   0.663
  187SOL    HW1  828   0.083   1.184   0.709
  187SOL    HW2  829   0.188   1.207   0.602
  188SOL     OW  830   1.802   0.174   1.234
  188SOL    HW1  831   1.843   0.095   1.268
  188SOL    HW2  832   1.823   0.174   1.141
  189SOL     OW  833   0.461   0.433   0.549
  189SOL    HW1  834   0.452   0.367   0.480
  189SOL    HW2  835   0.409   0.398   0.621
  190SOL     OW  836   0.335   0.554   1.291
  190SOL    HW1  837   0.395   0.502   1.344
  190SOL    HW2  838   0.352   0.526   1.201
  191SOL     OW  839   0.812   1.596   0.688
  191SOL    HW1  840   0.819   1.630   0.599
  191SOL    HW2  841   0.745   1.527   0.683
  192SOL     OW  842   1.427   0.213   1.131
  192SOL    HW1  843   1.451   0.145   1.195
  192SOL    HW2  844   1.378   0.277   1.182
  193SOL     OW  845   1.012   0.024   1.142
  193SOL    HW1  846   0.927   0.002   1.103
  193SOL    HW2  847   1.065   2.945   1.130
  194SOL     OW  848   0.771   1.329   0.314
  194SOL    HW1  849   0.744   1.240   0.336
  194SOL    HW2  850   0.849   1.345   0.366
  195SOL     OW  851   1.362   0.058   0.167
  195SOL    HW1  852   1.417   2.980   0.160
  195SOL    HW2  853   1.274   0.027   0.145
  196SOL     OW  854   1.295   0.459   0.679
  196SOL    HW1  855   1.244   0.540   0.686
  196SOL    HW2  856   1.292   0.421   0.767
  197SOL     OW  857   1.602   0.229   0.888
  197SOL    HW1  858   1.529   0.239   0.949
  197SOL    HW2  859   1.596   0.307   0.832
  198SOL     OW  860   0.071   1.095   0.339
  198SOL    HW1  861   0.150   1.049   0.312
  198SOL    HW2  862   0.001   1.029   0.333
  199SOL     OW  863   0.883   1.655   0.347
  199SOL    HW1  864   0.811   1.637   0.287
  199SOL    HW2  865   0.853   1.730   0.398
  200SOL     OW  866   0.243   0.660   1.973
  200SOL    HW1  867   0.175   0.622   2.029
  200SOL    HW2  868   0.228   0.618   1.888
  201SOL     OW  869   0.238   0.252   2.850
  201SOL    HW1  870   0.254   0.225   2.941
  201SOL    HW2  871   0.143   0.243   2.839
  202SOL     OW  872   0.008   0.393   2.524
  202SOL    HW1  873   2.921   0.428   2.546
  202SOL    HW2  874   2.990   0.317   2.469
  203SOL     OW  875   1.566   1.513   2.572
  203SOL    HW1  876   1.519   1.494   2.653
  203SOL    HW2  877   1.497   1.516   2.505
  204SOL     OW  878   1.133   0.698   2.560
  204SOL    HW1  879   1.183   0.779   2.548
  204SOL    HW2  880   1.085   0.711   2.642
  205SOL     OW  881   1.794   0.589   2.079
  205SOL    HW1  882   1.759   0.591   1.990
  205SOL    HW2  883   1.738   0.526   2.126
  206SOL     OW  884   0.742   1.142   2.897
  206SOL    HW1  885   0.682   1.191   2.953
  206SOL    HW2  886   0.795   1.210   2.855
  207SOL     OW  887   0.682   1.003   2.509
  207SOL    HW1  888   0.750   0.993   2.576
  207SOL    HW2  889   0.614   1.054   2.551
  208SOL     OW  890   0.326   1.451   2.931
  208SOL    HW1  891   0.285   1.379   2.882
  208SOL    HW2  892   0.385   1.492   2.867
  209SOL     OW  893   1.614   0.460   2.595
  209SOL    HW1  894   1.541   0.480   2.536
  209SOL    HW2  895   1.602   0.519   2.669
  210SOL     OW  896   0.214   1.709   2.358
  210SOL    HW1  897   0.239   1.792   2.399
  210SOL    HW2  898   0.230   1.723   2.265
  211SOL     OW  899   0.251   1.442   2.375
  211SOL    HW1  900   0.225   1.534   2.386
  211SOL    HW2  901   0.198   1.394   2.438
  212SOL     OW  902   0.240   1.084   2.752
  212SOL    HW1  903   0.260   1.001   2.795
  212SOL    HW2  904   0.192   1.135   2.817
  213SOL     OW  905   0.135   0.624   2.435
  213SOL    HW1  906   0.093   0.548   2.475
  213SOL    HW2  907   0.127   0.693   2.501
  214SOL     OW  908   1.847   1.779   2.265
  214SOL    HW1  909   1.931   1.739   2.287
  214SOL    HW2  910   1.869   1.848   2.203
  215SOL     OW  911   0.023   1.600   2.009
  215SOL    HW1  912   0.021   1.505   2.013
  215SOL    HW2  913   2.963   1.628   2.078
  216SOL     OW  914   1.691   0.894   2.520
  216SOL    HW1  915   1.772   0.849   2.500
  216SOL    HW2  916   1.675   0.951   2.444
  217SOL     OW  917   1.671   1.077   2.326
  217SOL    HW1  918   1.735   1.107   2.261
  217SOL    HW2  919   1.666   1.148   2.390
  218SOL     OW  920   0.607   1.376   2.604
  218SOL    HW1  921   0.562   1.292   2.612
  218SOL    HW2  922   0.588   1.404   2.514
  219SOL     OW  923   0.822   0.017   2.380
  219SOL    HW1  924   0.857   0.102   2.353
  219SOL    HW2  925   0.729   0.022   2.360
  220SOL     OW  926   1.537   0.976   2.073
  220SOL    HW1  927   1.456   0.932   2.100
  220SOL    HW2  928   1.597   0.962   2.146
  221SOL     OW  929   1.427   1.422   2.794
  221SOL    HW1  930   1.423   1.426   2.890
  221SOL    HW2  931   1.433   1.329   2.774
  222SOL     OW  932   1.626   1.749   2.421
  222SOL    HW1  933   1.701   1.736   2.363
  222SOL    HW2  934   1.627   1.672   2.478
  223SOL     OW  935   0.596   0.734   2.128
  223SOL    HW1  936   0.644   0.816   2.134
  223SOL    HW2  937   0.531   0.738   2.198
  224SOL     OW  938   1.297   0.341   2.812
  224SOL    HW1  939   1.203   0.328   2.800
  224SOL    HW2  940   1.314   0.309   2.901
  225SOL     OW  941   1.052   0.696   2.292
  225SOL    HW1  942   1.070   0.691   2.386
  225SOL    HW2  943   0.969   0.650   2.281
  226SOL     OW  944   0.106   0.816   2.622
  226SOL    HW1  945   0.184   0.817   2.678
  226SOL    HW2  946   0.042   0.867   2.671
  227SOL     OW  947   0.864   0.336   2.057
  227SOL    HW1  948   0.908   0.403   2.005
  227SOL    HW2  949   0.921   0.259   2.051
  228SOL     OW  950   1.380   1.143   2.400
  228SOL    HW1  951   1.463   1.141   2.352
  228SOL    HW2  952   1.325   1.204   2.350
  229SOL     OW  953   0.564   0.205   2.847
  229SOL    HW1  954   0.504   0.279   2.863
  229SOL    HW2  955   0.588   0.213   2.755
  230SOL     OW  956   1.022   1.472   2.355
  230SOL    HW1  957   0.939   1.487   2.310
  230SOL    HW2  958   1.001   1.482   2.448
  231SOL     OW  959   0.355   1.807   2.718
  231SOL    HW1  960   0.400   1.723   2.731
  231SOL    HW2  961   0.418   1.873   2.746
  232SOL     OW  962   1.812   1.054   2.719
  232SOL    HW1  963   1.754   1.031   2.647
  232SOL    HW2  964   1.756   1.061   2.796
  233SOL     OW  965   0.306   0.944   2.107
  233SOL    HW1  966   0.396   0.963   2.080
  233SOL    HW2  967   0.293   0.852   2.083
  234SOL     OW  968   1.473   0.747   2.588
  234SOL    HW1  969   1.478   0.699   2.670
  234SOL    HW2  970   1.555   0.796   2.584
  235SOL     OW  971   1.409   0.115   2.297
  235SOL    HW1  972   1.395   0.079   2.210
  235SOL    HW2  973   1.504   0.128   2.303
  236SOL     OW  974   0.263   1.799   0.102
  236SOL    HW1  975   0.306   1.732   0.156
  236SOL    HW2  976   0.195   1.752   0.055
  237SOL     OW  977   0.943   1.690   2.753
  237SOL    HW1  978   1.026   1.642   2.755
  237SOL    HW2  979   0.891   1.644   2.687
  238SOL     OW  980   0.397   0.690   2.330
  238SOL    HW1  981   0.427   0.602   2.352
  238SOL    HW2  982   0.304   0.690   2.355
  239SOL     OW  983   0.633   0.118   1.974
  239SOL    HW1  984   0.723   0.088   1.963
  239SOL    HW2  985   0.591   0.100   1.890
  240SOL     OW  986   0.805   1.395   2.799
  240SOL    HW1  987   0.891   1.390   2.758
  240SOL    HW2  988   0.744   1.394   2.725
  241SOL     OW  989   0.921   0.519   2.757
  241SOL    HW1  990   0.901   0.499   2.666
  241SOL    HW2  991   0.952   0.436   2.794
  242SOL     OW  992   0.546   0.063   2.370
  242SOL    HW1  993   0.459   0.045   2.405
  242SOL    HW2  994   0.532   0.129   2.302
  243SOL     OW  995   0.284   0.031   2.059
  243SOL    HW1  996   0.335   0.106   2.028
  243SOL    HW2  997   0.350   2.968   2.088
  244SOL     OW  998   0.941   0.259   2.322
  244SOL    HW1  999   0.914   0.296   2.238
  244SOL    HW2 1000   1.037   0.269   2.322
  245SOL     OW 1001   1.215   1.587   2.678
  245SOL    HW1 1002   1.243   1.641   2.604
  245SOL    HW2 1003   1.297   1.558   2.719
  246SOL     OW 1004   0.461   1.143   2.601
  246SOL    HW1 1005   0.391   1.126   2.664
  246SOL    HW2 1006   0.421   1.132   2.515
  247SOL     OW 1007   1.268   1.793   2.463
  247SOL    HW1 1008   1.317   1.863   2.419
  247SOL    HW2 1009   1.197   1.838   2.508
  248SOL     OW 1010   1.015   0.505   1.921
  248SOL    HW1 1011   1.010   0.595   1.888
  248SOL    HW2 1012   1.083   0.509   1.988
  249SOL     OW 1013   0.867   0.465   2.497
  249SOL    HW1 1014   0.822   0.515   2.430
  249SOL    HW2 1015   0.891   0.383   2.453
  250SOL     OW 1016   0.996   0.051   2.622
  250SOL    HW1 1017   0.963   0.060   2.532
  250SOL    HW2 1018   0.972   2.962   2.647
  251SOL     OW 1019   1.441   1.158   2.710
  251SOL    HW1 1020   1.364   1.104   2.695
  251SOL    HW2 1021   1.478   1.172   2.623
  252SOL     OW 1022   1.487   0.583   2.816
  252SOL    HW1 1023   1.420   0.515   2.820
  252SOL    HW2 1024   1.503   0.607   2.907
  253SOL     OW 1025   1.819   0.796   2.274
  253SOL    HW1 1026   1.897   0.753   2.310
  253SOL    HW2 1027   1.827   0.783   2.180
  254SOL     OW 1028   0.509   1.394   2.027
  254SOL    HW1 1029   0.424   1.374   2.066
  254SOL    HW2 1030   0.488   1.428   1.940
  255SOL     OW 1031   1.669   1.264   2.520
  255SOL    HW1 1032   1.764   1.270   2.525
  255SOL    HW2 1033   1.639   1.354   2.534
  256SOL     OW 1034   1.391   0.570   1.937
  256SOL    HW1 1035   1.329   0.554   2.007
  256SOL    HW2 1036   1.476   0.548   1.974
  257SOL     OW 1037   0.522   0.262   2.179
  257SOL    HW1 1038   0.569   0.213   2.112
  257SOL    HW2 1039   0.502   0.346   2.139
  258SOL     OW 1040   1.653   1.110   2.929
  258SOL    HW1 1041   1.650   1.175   2.999
  258SOL    HW2 1042   1.567   1.114   2.887
  259SOL     OW 1043   0.683   1.027   2.229
  259SOL    HW1 1044   0.684   1.033   2.325
  259SOL    HW2 1045   0.766   0.984   2.207
  260SOL     OW 1046   0.338   1.115   2.357
  260SOL    HW1 1047   0.363   1.186   2.298
  260SOL    HW2 1048   0.349   1.036   2.305
  261SOL     OW 1049   0.538   0.547   2.729
  261SOL    HW1 1050   0.561   0.598   2.651
  261SOL    HW2 1051   0.609   0.563   2.790
  262SOL     OW 1052   1.244   1.351   2.255
  262SOL    HW1 1053   1.311   1.414   2.284
  262SOL    HW2 1054   1.162   1.386   2.292
  263SOL     OW 1055   1.586   0.633   2.332
  263SOL    HW1 1056   1.540   0.683   2.400
  263SOL    HW2 1057   1.655   0.691   2.302
  264SOL     OW 1058   0.579   0.878   2.881
  264SOL    HW1 1059   0.618   0.961   2.853
  264SOL    HW2 1060   0.564   0.889   2.975
  265SOL     OW 1061   1.199   0.531   2.130
  265SOL    HW1 1062   1.212   0.452   2.181
  265SOL    HW2 1063   1.157   0.592   2.191
  266SOL     OW 1064   0.724   0.636   2.912
  266SOL    HW1 1065   0.798   0.614   2.856
  266SOL    HW2 1066   0.698   0.724   2.884
  267SOL     OW 1067   0.305   0.073   2.503
  267SOL    HW1 1068   0.302   0.158   2.547
  267SOL    HW2 1069   0.279   0.010   2.570
  268SOL     OW 1070   1.608   0.380   2.229
  268SOL    HW1 1071   1.648   0.320   2.292
  268SOL    HW2 1072   1.592   0.460   2.278
  269SOL     OW 1073   1.017   0.762   2.816
  269SOL    HW1 1074   1.021   0.769   2.911
  269SOL    HW2 1075   0.991   0.672   2.799
  270SOL     OW 1076   1.526   0.269   1.998
  270SOL    HW1 1077   1.464   0.203   2.028
  270SOL    HW2 1078   1.560   0.308   2.079
  271SOL     OW 1079   1.044   1.353   2.687
  271SOL    HW1 1080   1.061   1.271   2.642
  271SOL    HW2 1081   1.124   1.404   2.674
  272SOL     OW 1082   0.312   0.811   2.809
  272SOL    HW1 1083   0.406   0.830   2.815
  272SOL    HW2 1084   0.304   0.721   2.841
  273SOL     OW 1085   0.313   0.525   2.876
  273SOL    HW1 1086   0.284   0.436   2.857
  273SOL    HW2 1087   0.393   0.536   2.824
  274SOL     OW 1088   2.984   1.324   2.059
  274SOL    HW1 1089   2.900   1.320   2.014
  274SOL    HW2 1090   2.993   1.238   2.101
  275SOL     OW 1091   0.094   1.829   2.810
  275SOL    HW1 1092   0.058   1.747   2.775
  275SOL    HW2 1093   0.186   1.827   2.786
  276SOL     OW 1094   0.501   1.576   2.760
  276SOL    HW1 1095   0.571   1.636   2.786
  276SOL    HW2 1096   0.545   1.509   2.709
  277SOL     OW 1097   0.967   0.743   0.086
  277SOL    HW1 1098   1.030   0.763   0.155
  277SOL    HW2 1099   0.885   0.782   0.117
  278SOL     OW 1100   0.816   0.566   2.218
  278SOL    HW1 1101   0.812   0.487   2.165
  278SOL    HW2 1102   0.741   0.618   2.190
  279SOL     OW 1103   0.691   0.428   0.083
  279SOL    HW1 1104   0.601   0.443   0.110
  279SOL    HW2 1105   0.711   0.502   0.026
  280SOL     OW 1106   0.469   0.499   2.046
  280SOL    HW1 1107   0.525   0.574   2.065
  280SOL    HW2 1108   0.380   0.536   2.040
  281SOL     OW 1109   1.300   0.853   2.150
  281SOL    HW1 1110   1.242   0.829   2.222
  281SOL    HW2 1111   1.277   0.793   2.079
  282SOL     OW 1112   1.744   1.777   2.973
  282SOL    HW1 1113   1.816   1.790   2.911
  282SOL    HW2 1114   1.769   1.701   0.025
  283SOL     OW 1115   0.067   1.245   2.904
  283SOL    HW1 1116   0.046   1.280   2.991
  283SOL    HW2 1117   0.003   1.286   2.846
  284SOL     OW 1118   1.719   0.148   2.363
  284SOL    HW1 1119   1.778   0.150   2.288
  284SOL    HW2 1120   1.740   0.066   2.408
  285SOL     OW 1121   1.395   1.564   2.355
  285SOL    HW1 1122   1.462   1.600   2.296
  285SOL    HW2 1123   1.347   1.641   2.386
  286SOL     OW 1124   1.276   0.929   2.528
  286SOL    HW1 1125   1.350   0.869   2.542
  286SOL    HW2 1126   1.313   1.000   2.476
  287SOL     OW 1127   1.853   0.162   2.813
  287SOL    HW1 1128   1.853   0.075   2.772
  287SOL    HW2 1129   1.767   0.199   2.791
  288SOL     OW 1130   0.269   0.333   2.595
  288SOL    HW1 1131   0.179   0.363   2.587
  288SOL    HW2 1132   0.278   0.304   2.685
  289SOL     OW 1133   0.899   0.883   2.151
  289SOL    HW1 1134   0.954   0.947   2.105
  289SOL    HW2 1135   0.961   0.830   2.201
  290SOL     OW 1136   1.057   1.105   2.569
  290SOL    HW1 1137   0.985   1.055   2.607
  290SOL    HW2 1138   1.121   1.039   2.543
  291SOL     OW 1139   1.027   0.253   2.805
  291SOL    HW1 1140   1.018   0.182   2.742
  291SOL    HW2 1141   1.047   0.209   2.888
  292SOL     OW 1142   0.576   1.479   2.362
  292SOL    HW1 1143   0.641   1.470   2.293
  292SOL    HW2 1144   0.512   1.542   2.327
  293SOL     OW 1145   0.251   1.351   2.126
  293SOL    HW1 1146   0.156   1.339   2.120
  293SOL    HW2 1147   0.265   1.384   2.215
  294SOL     OW 1148   0.103   0.322   1.909
  294SOL    HW1 1149   0.019   0.292   1.873
  294SOL    HW2 1150   0.113   0.411   1.874
  295SOL     OW 1151   0.003   0.214   2.135
  295SOL    HW1 1152   0.060   0.259   2.073
  295SOL    HW2 1153   0.048   0.133   2.156
  296SOL     OW 1154   1.510   1.778   2.832
  296SOL    HW1 1155   1.518   1.838   2.757
  296SOL    HW2 1156   1.593   1.788   2.879
  297SOL     OW 1157   1.703   0.841   0.055
  297SOL    HW1 1158   1.632   0.834   0.119
  297SOL    HW2 1159   1.701   0.933   0.028
  298SOL     OW 1160   1.222   0.321   2.318
  298SOL    HW1 1161   1.282   0.246   2.316
  298SOL    HW2 1162   1.247   0.369   2.397
  299SOL     OW 1163   0.593   0.737   2.527
  299SOL    HW1 1164   0.631   0.825   2.518
  299SOL    HW2 1165   0.522   0.734   2.463
  300SOL     OW 1166   0.666   1.792   2.823
  300SOL    HW1 1167   0.643   1.880   2.793
  300SOL    HW2 1168   0.759   1.782   2.804
  301SOL     OW 1169   0.864   0.968   2.714
  301SOL    HW1 1170   0.915   0.896   2.750
  301SOL    HW2 1171   0.832   1.016   2.790
  302SOL     OW 1172   1.851   1.555   2.711
  302SOL    HW1 1173   1.770   1.539   2.662
  302SOL    HW2 1174   1.867   1.474   2.759
  303SOL     OW 1175   0.135   1.247   2.522
  303SOL    HW1 1176   0.096   1.183   2.581
  303SOL    HW2 1177   0.198   1.197   2.470
  304SOL     OW 1178   1.810   0.179   0.084
  304SOL    HW1 1179   1.832   0.091   0.113
  304SOL    HW2 1180   1.827   0.179   2.990
  305SOL     OW 1181   0.463   0.436   2.405
  305SOL    HW1 1182   0.456   0.368   2.338
  305SOL    HW2 1183   0.415   0.401   2.480
  306SOL     OW 1184   0.819   1.584   2.536
  306SOL    HW1 1185   0.809   1.652   2.469
  306SOL    HW2 1186   0.743   1.527   2.523
  307SOL     OW 1187   1.347   0.046   2.031
  307SOL    HW1 1188   1.415   2.981   2.010
  307SOL    HW2 1189   1.265   2.995   2.028
  308SOL     OW 1190   1.295   0.456   2.547
  308SOL    HW1 1191   1.244   0.537   2.554
  308SOL    HW2 1192   1.293   0.418   2.635
  309SOL     OW 1193   1.596   0.235   2.746
  309SOL    HW1 1194   1.508   0.242   2.782
  309SOL    HW2 1195   1.604   0.309   2.686
  310SOL     OW 1196   0.061   1.074   2.144
  310SOL    HW1 1197   0.149   1.038   2.156
  310SOL    HW2 1198   0.007   1.026   2.208
  311SOL     OW 1199   0.242   2.520   0.099
  311SOL    HW1 1200   0.172   2.475   0.147
  311SOL    HW2 1201   0.253   2.469   0.019
  312SOL     OW 1202   0.207   2.139   0.989
  312SOL    HW1 1203   0.240   2.108   1.074
  312SOL    HW2 1204   0.115   2.112   0.988
  313SOL     OW 1205   0.014   2.250   0.648
  313SOL    HW1 1206   2.928   2.288   0.664
  313SOL    HW2 1207   2.996   2.170   0.598
  314SOL     OW 1208   1.112   2.601   0.681
  314SOL    HW1 1209   1.171   2.676   0.689
  314SOL    HW2 1210   1.053   2.609   0.756
  315SOL     OW 1211   1.770   2.447   0.225
  315SOL    HW1 1212   1.740   2.430   0.135
  315SOL    HW2 1213   1.731   2.376   0.276
  316SOL     OW 1214   0.756   0.017   1.031
  316SOL    HW1 1215   0.683   0.058   1.078
  316SOL    HW2 1216   0.773   0.076   0.957
  317SOL     OW 1217   0.872   2.629   1.827
  317SOL    HW1 1218   0.851   2.691   1.898
  317SOL    HW2 1219   0.893   2.685   1.752
  318SOL     OW 1220   0.639   2.854   0.709
  318SOL    HW1 1221   0.733   2.857   0.727
  318SOL    HW2 1222   0.625   2.923   0.645
  319SOL     OW 1223   0.475   2.285   1.505
  319SOL    HW1 1224   0.548   2.224   1.492
  319SOL    HW2 1225   0.397   2.229   1.506
  320SOL     OW 1226   1.603   2.317   0.692
  320SOL    HW1 1227   1.552   2.397   0.684
  320SOL    HW2 1228   1.629   2.313   0.784
  321SOL     OW 1229   0.209   0.324   0.455
  321SOL    HW1 1230   0.220   0.387   0.526
  321SOL    HW2 1231   0.213   0.238   0.498
  322SOL     OW 1232   0.223   2.937   0.875
  322SOL    HW1 1233   0.260   2.859   0.915
  322SOL    HW2 1234   0.217   0.001   0.946
  323SOL     OW 1235   0.621   2.832   0.151
  323SOL    HW1 1236   0.600   2.924   0.138
  323SOL    HW2 1237   0.698   2.832   0.209
  324SOL     OW 1238   0.110   2.498   0.561
  324SOL    HW1 1239   0.095   2.412   0.599
  324SOL    HW2 1240   0.112   2.558   0.636
  325SOL     OW 1241   1.703   2.796   0.626
  325SOL    HW1 1242   1.783   2.746   0.641
  325SOL    HW2 1243   1.699   2.808   0.532
  326SOL     OW 1244   0.134   2.609   1.584
  326SOL    HW1 1245   0.229   2.623   1.583
  326SOL    HW2 1246   0.098   2.694   1.611
  327SOL     OW 1247   0.656   0.246   0.698
  327SOL    HW1 1248   0.598   0.171   0.686
  327SOL    HW2 1249   0.626   0.310   0.633
  328SOL     OW 1250   1.320   0.026   1.471
  328SOL    HW1 1251   1.318   2.983   1.386
  328SOL    HW2 1252   1.395   0.085   1.467
  329SOL     OW 1253   0.814   1.865   0.504
  329SOL    HW1 1254   0.854   1.951   0.494
  329SOL    HW2 1255   0.720   1.884   0.514
  330SOL     OW 1256   0.188   2.837   1.259
  330SOL    HW1 1257   0.272   2.790   1.250
  330SOL    HW2 1258   0.123   2.774   1.229
  331SOL     OW 1259   1.521   2.843   0.211
  331SOL    HW1 1260   1.455   2.795   0.262
  331SOL    HW2 1261   1.594   2.854   0.272
  332SOL     OW 1262   0.340   2.109   1.818
  332SOL    HW1 1263   0.383   2.195   1.822
  332SOL    HW2 1264   0.251   2.125   1.849
  333SOL     OW 1265   0.591   2.581   0.274
  333SOL    HW1 1266   0.590   2.663   0.224
  333SOL    HW2 1267   0.523   2.594   0.341
  334SOL     OW 1268   0.782   2.484   1.450
  334SOL    HW1 1269   0.756   2.458   1.538
  334SOL    HW2 1270   0.741   2.420   1.392
  335SOL     OW 1271   1.402   2.333   1.685
  335SOL    HW1 1272   1.402   2.376   1.771
  335SOL    HW2 1273   1.469   2.265   1.693
  336SOL     OW 1274   0.955   2.764   1.600
  336SOL    HW1 1275   1.010   2.699   1.555
  336SOL    HW2 1276   0.899   2.799   1.531
  337SOL     OW 1277   1.051   2.569   0.415
  337SOL    HW1 1278   1.066   2.570   0.509
  337SOL    HW2 1279   0.969   2.521   0.404
  338SOL     OW 1280   0.103   2.666   0.770
  338SOL    HW1 1281   0.179   2.675   0.827
  338SOL    HW2 1282   0.052   2.745   0.787
  339SOL     OW 1283   0.930   2.191   0.224
  339SOL    HW1 1284   0.940   2.252   0.150
  339SOL    HW2 1285   0.903   2.109   0.183
  340SOL     OW 1286   1.699   2.432   1.827
  340SOL    HW1 1287   1.664   2.505   1.777
  340SOL    HW2 1288   1.739   2.375   1.762
  341SOL     OW 1289   0.537   2.037   0.892
  341SOL    HW1 1290   0.552   2.072   0.980
  341SOL    HW2 1291   0.555   2.111   0.834
  342SOL     OW 1292   1.795   2.903   0.867
  342SOL    HW1 1293   1.742   2.886   0.789
  342SOL    HW2 1294   1.731   2.910   0.938
  343SOL     OW 1295   1.497   2.597   0.725
  343SOL    HW1 1296   1.486   2.561   0.813
  343SOL    HW2 1297   1.567   2.660   0.734
  344SOL     OW 1298   0.240   2.159   1.497
  344SOL    HW1 1299   0.168   2.219   1.478
  344SOL    HW2 1300   0.204   2.095   1.558
  345SOL     OW 1301   1.406   1.985   0.427
  345SOL    HW1 1302   1.397   1.949   0.340
  345SOL    HW2 1303   1.498   1.969   0.451
  346SOL     OW 1304   0.390   2.555   0.473
  346SOL    HW1 1305   0.410   2.463   0.486
  346SOL    HW2 1306   0.297   2.563   0.490
  347SOL     OW 1307   1.547   2.101   1.753
  347SOL    HW1 1308   1.549   2.115   1.847
  347SOL    HW2 1309   1.456   2.079   1.734
  348SOL     OW 1310   0.628   1.984   0.117
  348SOL    HW1 1311   0.723   1.968   0.119
  348SOL    HW2 1312   0.597   1.928   0.046
  349SOL     OW 1313   0.746   2.146   1.749
  349SOL    HW1 1314   0.821   2.087   1.751
  349SOL    HW2 1315   0.711   2.142   1.838
  350SOL     OW 1316   1.327   2.477   1.468
  350SOL    HW1 1317   1.369   2.428   1.538
  350SOL    HW2 1318   1.385   2.551   1.452
  351SOL     OW 1319   0.546   1.924   0.502
  351SOL    HW1 1320   0.464   1.926   0.552
  351SOL    HW2 1321   0.540   2.000   0.444
  352SOL     OW 1322   0.943   2.107   0.476
  352SOL    HW1 1323   0.923   2.143   0.390
  352SOL    HW2 1324   1.038   2.116   0.484
  353SOL     OW 1325   1.074   2.555   1.457
  353SOL    HW1 1326   1.022   2.495   1.511
  353SOL    HW2 1327   1.164   2.525   1.469
  354SOL     OW 1328   1.054   2.351   0.030
  354SOL    HW1 1329   1.009   2.436   0.029
  354SOL    HW2 1330   1.116   2.358   0.103
  355SOL     OW 1331   0.096   2.408   1.402
  355SOL    HW1 1332   0.181   2.418   1.360
  355SOL    HW2 1333   0.091   2.482   1.463
  356SOL     OW 1334   0.564   2.095   1.160
  356SOL    HW1 1335   0.614   2.030   1.208
  356SOL    HW2 1336   0.475   2.087   1.194
  357SOL     OW 1337   0.871   2.333   0.637
  357SOL    HW1 1338   0.823   2.378   0.567
  357SOL    HW2 1339   0.891   2.247   0.601
  358SOL     OW 1340   1.024   1.907   0.752
  358SOL    HW1 1341   0.964   1.903   0.678
  358SOL    HW2 1342   1.004   1.829   0.803
  359SOL     OW 1343   1.427   2.985   0.874
  359SOL    HW1 1344   1.367   2.933   0.821
  359SOL    HW2 1345   1.450   0.060   0.819
  360SOL     OW 1346   1.481   2.492   0.979
  360SOL    HW1 1347   1.441   2.405   0.984
  360SOL    HW2 1348   1.546   2.492   1.049
  361SOL     OW 1349   1.825   2.656   0.393
  361SOL    HW1 1350   1.890   2.612   0.448
  361SOL    HW2 1351   1.815   2.597   0.317
  362SOL     OW 1352   1.414   2.433   0.096
  362SOL    HW1 1353   1.345   2.428   0.162
  362SOL    HW2 1354   1.457   2.347   0.101
  363SOL     OW 1355   0.513   2.123   0.321
  363SOL    HW1 1356   0.559   2.076   0.252
  363SOL    HW2 1357   0.494   2.209   0.284
  364SOL     OW 1358   1.778   0.077   1.583
  364SOL    HW1 1359   1.867   0.044   1.569
  364SOL    HW2 1360   1.789   0.152   1.640
  365SOL     OW 1361   1.620   2.953   1.070
  365SOL    HW1 1362   1.632   0.039   1.111
  365SOL    HW2 1363   1.545   2.965   1.012
  366SOL     OW 1364   0.414   2.680   1.254
  366SOL    HW1 1365   0.483   2.689   1.319
  366SOL    HW2 1366   0.382   2.591   1.264
  367SOL     OW 1367   0.546   2.400   0.866
  367SOL    HW1 1368   0.562   2.451   0.787
  367SOL    HW2 1369   0.621   2.419   0.923
  368SOL     OW 1370   1.565   2.506   0.456
  368SOL    HW1 1371   1.539   2.552   0.536
  368SOL    HW2 1372   1.643   2.553   0.425
  369SOL     OW 1373   0.416   2.591   1.604
  369SOL    HW1 1374   0.472   2.643   1.546
  369SOL    HW2 1375   0.465   2.510   1.617
  370SOL     OW 1376   1.600   2.638   1.680
  370SOL    HW1 1377   1.515   2.682   1.676
  370SOL    HW2 1378   1.653   2.681   1.613
  371SOL     OW 1379   0.961   1.993   1.784
  371SOL    HW1 1380   1.033   2.056   1.771
  371SOL    HW2 1381   1.003   1.907   1.777
  372SOL     OW 1382   0.469   1.893   1.700
  372SOL    HW1 1383   0.398   1.846   1.655
  372SOL    HW2 1384   0.430   1.976   1.726
  373SOL     OW 1385   0.596   2.726   1.044
  373SOL    HW1 1386   0.596   2.815   1.009
  373SOL    HW2 1387   0.527   2.726   1.110
  374SOL     OW 1388   1.344   2.721   1.031
  374SOL    HW1 1389   1.295   2.727   0.949
  374SOL    HW2 1390   1.396   2.641   1.022
  375SOL     OW 1391   1.202   2.393   0.266
  375SOL    HW1 1392   1.208   2.310   0.314
  375SOL    HW2 1393   1.154   2.451   0.325
  376SOL     OW 1394   0.301   2.065   1.245
  376SOL    HW1 1395   0.285   2.112   1.326
  376SOL    HW2 1396   0.281   1.974   1.266
  377SOL     OW 1397   0.054   0.173   1.261
  377SOL    HW1 1398   0.076   0.136   1.347
  377SOL    HW2 1399   0.001   0.250   1.281
  378SOL     OW 1400   0.741   2.498   1.047
  378SOL    HW1 1401   0.793   2.502   0.967
  378SOL    HW2 1402   0.692   2.580   1.048
  379SOL     OW 1403   1.738   2.818   1.846
  379SOL    HW1 1404   1.691   2.754   1.792
  379SOL    HW2 1405   1.678   2.835   1.919
  380SOL     OW 1406   0.301   1.929   0.626
  380SOL    HW1 1407   0.285   2.020   0.649
  380SOL    HW2 1408   0.311   1.884   0.710
  381SOL     OW 1409   1.625   2.241   0.368
  381SOL    HW1 1410   1.643   2.173   0.433
  381SOL    HW2 1411   1.590   2.314   0.419
  382SOL     OW 1412   0.998   2.640   0.962
  382SOL    HW1 1413   1.002   2.661   1.056
  382SOL    HW2 1414   1.005   2.545   0.959
  383SOL     OW 1415   0.361   2.785   1.795
  383SOL    HW1 1416   0.418   2.780   1.872
  383SOL    HW2 1417   0.387   2.710   1.741
  384SOL     OW 1418   1.498   2.172   0.128
  384SOL    HW1 1419   1.457   2.086   0.139
  384SOL    HW2 1420   1.553   2.183   0.206
  385SOL     OW 1421   1.295   2.680   0.039
  385SOL    HW1 1422   1.335   2.594   0.051
  385SOL    HW2 1423   1.326   2.710   2.954
  386SOL     OW 1424   0.316   2.677   0.949
  386SOL    HW1 1425   0.408   2.681   0.924
  386SOL    HW2 1426   0.304   2.588   0.984
  387SOL     OW 1427   0.327   2.383   1.016
  387SOL    HW1 1428   0.289   2.298   0.994
  387SOL    HW2 1429   0.404   2.390   0.960
  388SOL     OW 1430   1.121   2.304   1.668
  388SOL    HW1 1431   1.089   2.334   1.753
  388SOL    HW2 1432   1.217   2.301   1.678
  389SOL     OW 1433   0.971   2.676   1.233
  389SOL    HW1 1434   1.027   2.648   1.306
  389SOL    HW2 1435   0.891   2.625   1.244
  390SOL     OW 1436   0.043   2.443   1.121
  390SOL    HW1 1437   0.124   2.412   1.079
  390SOL    HW2 1438   0.042   2.398   1.206
  391SOL     OW 1439   0.198   2.383   1.717
  391SOL    HW1 1440   0.276   2.363   1.665
  391SOL    HW2 1441   0.165   2.465   1.680
  392SOL     OW 1442   1.380   2.806   1.661
  392SOL    HW1 1443   1.378   2.901   1.653
  392SOL    HW2 1444   1.376   2.774   1.570
  393SOL     OW 1445   0.819   2.440   0.351
  393SOL    HW1 1446   0.819   2.361   0.296
  393SOL    HW2 1447   0.739   2.486   0.327
  394SOL     OW 1448   1.641   2.480   1.193
  394SOL    HW1 1449   1.632   2.424   1.271
  394SOL    HW2 1450   1.729   2.463   1.161
  395SOL     OW 1451   0.667   2.334   1.256
  395SOL    HW1 1452   0.641   2.250   1.219
  395SOL    HW2 1453   0.696   2.386   1.180
  396SOL     OW 1454   0.440   2.357   0.207
  396SOL    HW1 1455   0.512   2.419   0.225
  396SOL    HW2 1456   0.367   2.413   0.182
  397SOL     OW 1457   0.152   0.014   1.468
  397SOL    HW1 1458   0.142   2.961   1.547
  397SOL    HW2 1459   0.168   2.950   1.399
  398SOL     OW 1460   1.338   2.912   1.220
  398SOL    HW1 1461   1.354   2.846   1.153
  398SOL    HW2 1462   1.287   2.979   1.176
  399SOL     OW 1463   1.295   2.723   0.318
  399SOL    HW1 1464   1.226   2.672   0.360
  399SOL    HW2 1465   1.288   2.701   0.225
  400SOL     OW 1466   0.900   1.936   0.120
  400SOL    HW1 1467   0.952   1.907   0.045
  400SOL    HW2 1468   0.941   1.896   0.196
  401SOL     OW 1469   1.717   2.001   0.514
  401SOL    HW1 1470   1.793   1.991   0.457
  401SOL    HW2 1471   1.700   1.913   0.547
  402SOL     OW 1472   1.304   2.799   0.691
  402SOL    HW1 1473   1.368   2.729   0.680
  402SOL    HW2 1474   1.303   2.844   0.607
  403SOL     OW 1475   0.266   2.178   0.721
  403SOL    HW1 1476   0.181   2.215   0.697
  403SOL    HW2 1477   0.261   2.166   0.816
  404SOL     OW 1478   0.813   2.860   1.380
  404SOL    HW1 1479   0.868   2.829   1.309
  404SOL    HW2 1480   0.833   2.954   1.387
  405SOL     OW 1481   0.897   2.801   0.278
  405SOL    HW1 1482   0.981   2.824   0.240
  405SOL    HW2 1483   0.919   2.755   0.359
  406SOL     OW 1484   0.957   2.094   0.962
  406SOL    HW1 1485   0.995   2.043   0.890
  406SOL    HW2 1486   1.011   2.072   1.038
  407SOL     OW 1487   1.726   2.285   1.394
  407SOL    HW1 1488   1.809   2.326   1.368
  407SOL    HW2 1489   1.703   2.229   1.319
  408SOL     OW 1490   0.122   2.864   1.691
  408SOL    HW1 1491   0.054   2.851   1.757
  408SOL    HW2 1492   0.204   2.850   1.738
  409SOL     OW 1493   0.655   2.068   1.492
  409SOL    HW1 1494   0.733   2.021   1.465
  409SOL    HW2 1495   0.668   2.087   1.585
  410SOL     OW 1496   0.043   2.155   0.059
  410SOL    HW1 1497   2.969   2.211   0.037
  410SOL    HW2 1498   0.119   2.202   0.027
  411SOL     OW 1499   1.440   2.723   1.403
  411SOL    HW1 1500   1.393   2.782   1.344
  411SOL    HW2 1501   1.531   2.725   1.372
  412SOL     OW 1502   0.058   2.060   0.321
  412SOL    HW1 1503   0.044   2.095   0.232
  412SOL    HW2 1504   0.122   1.990   0.309
  413SOL     OW 1505   1.136   0.207   0.087
  413SOL    HW1 1506   1.074   0.262   0.135
  413SOL    HW2 1507   1.217   0.214   0.136
  414SOL     OW 1508   0.610   2.692   1.437
  414SOL    HW1 1509   0.668   2.767   1.422
  414SOL    HW2 1510   0.669   2.617   1.444
  415SOL     OW 1511   0.715   2.430   1.704
  415SOL    HW1 1512   0.762   2.489   1.763
  415SOL    HW2 1513   0.740   2.342   1.733
  416SOL     OW 1514   1.678   2.751   1.253
  416SOL    HW1 1515   1.667   2.664   1.216
  416SOL    HW2 1516   1.657   2.811   1.181
  417SOL     OW 1517   1.219   2.182   0.456
  417SOL    HW1 1518   1.282   2.113   0.439
  417SOL    HW2 1519   1.247   2.220   0.539
  418SOL     OW 1520   0.585   2.589   0.673
  418SOL    HW1 1521   0.607   2.681   0.681
  418SOL    HW2 1522   0.524   2.585   0.599
  419SOL     OW 1523   1.771   2.206   1.649
  419SOL    HW1 1524   1.748   2.240   1.563
  419SOL    HW2 1525   1.692   2.161   1.680
  420SOL     OW 1526   1.741   2.795   1.514
  420SOL    HW1 1527   1.746   2.888   1.535
  420SOL    HW2 1528   1.729   2.792   1.419
  421SOL     OW 1529   0.877   2.844   0.851
  421SOL    HW1 1530   0.918   2.765   0.886
  421SOL    HW2 1531   0.820   2.874   0.922
  422SOL     OW 1532   1.111   2.884   0.088
  422SOL    HW1 1533   1.063   2.885   0.005
  422SOL    HW2 1534   1.174   2.812   0.078
  423SOL     OW 1535   0.428   2.296   0.528
  423SOL    HW1 1536   0.461   2.226   0.471
  423SOL    HW2 1537   0.384   2.250   0.600
  424SOL     OW 1538   0.341   2.418   1.290
  424SOL    HW1 1539   0.410   2.374   1.339
  424SOL    HW2 1540   0.355   2.392   1.199
  425SOL     OW 1541   0.972   1.825   1.158
  425SOL    HW1 1542   0.973   1.788   1.070
  425SOL    HW2 1543   1.044   1.888   1.158
  426SOL     OW 1544   1.353   1.919   0.160
  426SOL    HW1 1545   1.385   1.856   0.095
  426SOL    HW2 1546   1.269   1.883   0.188
  427SOL     OW 1547   2.994   2.876   0.283
  427SOL    HW1 1548   0.071   2.920   0.247
  427SOL    HW2 1549   0.019   2.852   0.372
  428SOL     OW 1550   0.240   2.491   1.975
  428SOL    HW1 1551   0.167   2.454   2.026
  428SOL    HW2 1552   0.222   2.465   1.885
  429SOL     OW 1553   0.231   2.127   2.837
  429SOL    HW1 1554   0.272   2.099   2.919
  429SOL    HW2 1555   0.148   2.079   2.834
  430SOL     OW 1556   0.014   2.249   2.504
  430SOL    HW1 1557   2.929   2.287   2.527
  430SOL    HW2 1558   2.995   2.160   2.475
  431SOL     OW 1559   1.138   2.570   2.561
  431SOL    HW1 1560   1.184   2.654   2.556
  431SOL    HW2 1561   1.086   2.577   2.641
  432SOL     OW 1562   1.762   2.464   2.089
  432SOL    HW1 1563   1.744   2.455   1.995
  432SOL    HW2 1564   1.737   2.379   2.126
  433SOL     OW 1565   0.773   0.009   2.867
  433SOL    HW1 1566   0.685   0.036   2.893
  433SOL    HW2 1567   0.808   0.085   2.819
  434SOL     OW 1568   0.647   2.846   2.572
  434SOL    HW1 1569   0.739   2.843   2.596
  434SOL    HW2 1570   0.638   2.924   2.518
  435SOL     OW 1571   1.615   2.310   2.597
  435SOL    HW1 1572   1.544   2.334   2.539
  435SOL    HW2 1573   1.607   2.369   2.671
  436SOL     OW 1574   0.207   0.318   2.315
  436SOL    HW1 1575   0.223   0.383   2.384
  436SOL    HW2 1576   0.218   0.234   2.358
  437SOL     OW 1577   0.234   2.943   2.742
  437SOL    HW1 1578   0.261   2.856   2.771
  437SOL    HW2 1579   0.221   2.992   2.824
  438SOL     OW 1580   0.601   2.821   1.999
  438SOL    HW1 1581   0.591   2.905   1.954
  438SOL    HW2 1582   0.675   2.834   2.058
  439SOL     OW 1583   0.122   2.497   2.420
  439SOL    HW1 1584   0.099   2.412   2.459
  439SOL    HW2 1585   0.121   2.558   2.493
  440SOL     OW 1586   1.706   2.801   2.485
  440SOL    HW1 1587   1.785   2.751   2.505
  440SOL    HW2 1588   1.705   2.807   2.390
  441SOL     OW 1589   0.614   0.234   2.580
  441SOL    HW1 1590   0.597   0.163   2.518
  441SOL    HW2 1591   0.621   0.312   2.525
  442SOL     OW 1592   0.821   1.865   2.406
  442SOL    HW1 1593   0.857   1.942   2.363
  442SOL    HW2 1594   0.726   1.872   2.394
  443SOL     OW 1595   0.221   2.806   0.106
  443SOL    HW1 1596   0.272   2.725   0.101
  443SOL    HW2 1597   0.131   2.778   0.091
  444SOL     OW 1598   1.537   2.847   2.050
  444SOL    HW1 1599   1.472   2.791   2.093
  444SOL    HW2 1600   1.604   2.861   2.118
  445SOL     OW 1601   0.596   2.574   2.130
  445SOL    HW1 1602   0.596   2.655   2.079
  445SOL    HW2 1603   0.532   2.589   2.199
  446SOL     OW 1604   1.302   2.204   2.813
  446SOL    HW1 1605   1.210   2.183   2.801
  446SOL    HW2 1606   1.322   2.178   2.903
  447SOL     OW 1607   1.055   2.563   2.288
  447SOL    HW1 1608   1.069   2.560   2.383
  447SOL    HW2 1609   0.971   2.518   2.275
  448SOL     OW 1610   0.109   2.670   2.622
  448SOL    HW1 1611   0.184   2.674   2.681
  448SOL    HW2 1612   0.041   2.722   2.665
  449SOL     OW 1613   0.878   2.208   2.050
  449SOL    HW1 1614   0.927   2.268   1.995
  449SOL    HW2 1615   0.899   2.121   2.017
  450SOL     OW 1616   0.547   2.043   2.771
  450SOL    HW1 1617   0.514   2.083   2.851
  450SOL    HW2 1618   0.561   2.116   2.711
  451SOL     OW 1619   1.797   2.906   2.729
  451SOL    HW1 1620   1.740   2.888   2.653
  451SOL    HW2 1621   1.736   2.911   2.803
  452SOL     OW 1622   1.488   2.607   2.584
  452SOL    HW1 1623   1.473   2.554   2.661
  452SOL    HW2 1624   1.565   2.660   2.605
  453SOL     OW 1625   1.408   1.976   2.283
  453SOL    HW1 1626   1.417   1.913   2.212
  453SOL    HW2 1627   1.496   1.985   2.319
  454SOL     OW 1628   0.399   2.554   2.330
  454SOL    HW1 1629   0.412   2.461   2.346
  454SOL    HW2 1630   0.307   2.569   2.354
  455SOL     OW 1631   0.924   2.381   2.754
  455SOL    HW1 1632   0.903   2.358   2.663
  455SOL    HW2 1633   0.961   2.301   2.791
  456SOL     OW 1634   0.548   1.913   2.372
  456SOL    HW1 1635   0.465   1.914   2.419
  456SOL    HW2 1636   0.541   1.986   2.310
  457SOL     OW 1637   0.272   1.906   2.058
  457SOL    HW1 1638   0.303   1.991   2.024
  457SOL    HW2 1639   0.352   1.860   2.082
  458SOL     OW 1640   0.941   2.108   2.317
  458SOL    HW1 1641   0.913   2.147   2.234
  458SOL    HW2 1642   1.034   2.128   2.323
  459SOL     OW 1643   1.019   2.404   1.903
  459SOL    HW1 1644   0.976   2.487   1.881
  459SOL    HW2 1645   1.084   2.428   1.969
  460SOL     OW 1646   0.868   2.316   2.497
  460SOL    HW1 1647   0.822   2.373   2.435
  460SOL    HW2 1648   0.887   2.237   2.447
  461SOL     OW 1649   1.014   1.907   2.606
  461SOL    HW1 1650   0.950   1.901   2.535
  461SOL    HW2 1651   0.995   1.832   2.662
  462SOL     OW 1652   1.422   2.987   2.738
  462SOL    HW1 1653   1.356   2.935   2.692
  462SOL    HW2 1654   1.449   0.053   2.674
  463SOL     OW 1655   1.482   2.446   2.814
  463SOL    HW1 1656   1.418   2.375   2.817
  463SOL    HW2 1657   1.499   2.466   2.906
  464SOL     OW 1658   1.832   2.663   2.254
  464SOL    HW1 1659   1.893   2.616   2.310
  464SOL    HW2 1660   1.812   2.601   2.184
  465SOL     OW 1661   1.395   2.435   1.937
  465SOL    HW1 1662   1.336   2.414   2.009
  465SOL    HW2 1663   1.482   2.410   1.969
  466SOL     OW 1664   0.524   2.121   2.187
  466SOL    HW1 1665   0.613   2.094   2.164
  466SOL    HW2 1666   0.511   2.203   2.139
  467SOL     OW 1667   1.623   2.965   2.932
  467SOL    HW1 1668   1.625   0.044   2.987
  467SOL    HW2 1669   1.547   2.977   2.875
  468SOL     OW 1670   0.547   2.390   2.725
  468SOL    HW1 1671   0.562   2.446   2.649
  468SOL    HW2 1672   0.611   2.419   2.790
  469SOL     OW 1673   1.574   2.484   2.340
  469SOL    HW1 1674   1.536   2.538   2.409
  469SOL    HW2 1675   1.633   2.543   2.292
  470SOL     OW 1676   0.578   2.732   2.888
  470SOL    HW1 1677   0.612   2.808   2.842
  470SOL    HW2 1678   0.578   2.757   2.980
  471SOL     OW 1679   1.204   2.392   2.131
  471SOL    HW1 1680   1.213   2.314   2.187
  471SOL    HW2 1681   1.159   2.456   2.187
  472SOL     OW 1682   0.328   2.062   0.075
  472SOL    HW1 1683   0.343   2.097   0.163
  472SOL    HW2 1684   0.309   1.969   0.090
  473SOL     OW 1685   0.723   2.496   2.907
  473SOL    HW1 1686   0.796   2.480   2.848
  473SOL    HW2 1687   0.692   2.583   2.884
  474SOL     OW 1688   0.299   1.930   2.484
  474SOL    HW1 1689   0.284   2.022   2.507
  474SOL    HW2 1690   0.309   1.885   2.568
  475SOL     OW 1691   1.620   2.240   2.232
  475SOL    HW1 1692   1.650   2.176   2.297
  475SOL    HW2 1693   1.597   2.318   2.283
  476SOL     OW 1694   1.026   2.618   2.823
  476SOL    HW1 1695   1.025   2.621   2.919
  476SOL    HW2 1696   0.996   2.530   2.802
  477SOL     OW 1697   1.521   2.129   2.011
  477SOL    HW1 1698   1.440   2.102   2.054
  477SOL    HW2 1699   1.571   2.172   2.080
  478SOL     OW 1700   1.288   2.685   1.893
  478SOL    HW1 1701   1.330   2.599   1.897
  478SOL    HW2 1702   1.323   2.724   1.812
  479SOL     OW 1703   0.313   2.675   2.807
  479SOL    HW1 1704   0.407   2.692   2.819
  479SOL    HW2 1705   0.301   2.586   2.838
  480SOL     OW 1706   0.315   2.390   2.867
  480SOL    HW1 1707   0.282   2.301   2.852
  480SOL    HW2 1708   0.396   2.394   2.816
  481SOL     OW 1709   0.977   2.606   0.090
  481SOL    HW1 1710   1.024   2.599   0.173
  481SOL    HW2 1711   0.890   2.639   0.114
  482SOL     OW 1712   0.819   2.432   2.221
  482SOL    HW1 1713   0.821   2.359   2.159
  482SOL    HW2 1714   0.744   2.484   2.194
  483SOL     OW 1715   0.704   2.313   0.101
  483SOL    HW1 1716   0.617   2.275   0.090
  483SOL    HW2 1717   0.708   2.382   0.035
  484SOL     OW 1718   0.470   2.348   2.041
  484SOL    HW1 1719   0.530   2.418   2.067
  484SOL    HW2 1720   0.386   2.392   2.031
  485SOL     OW 1721   1.307   2.725   2.169
  485SOL    HW1 1722   1.235   2.684   2.218
  485SOL    HW2 1723   1.287   2.704   2.078
  486SOL     OW 1724   1.713   2.017   2.373
  486SOL    HW1 1725   1.783   1.998   2.311
  486SOL    HW2 1726   1.691   1.933   2.412
  487SOL     OW 1727   1.297   2.800   2.545
  487SOL    HW1 1728   1.366   2.733   2.547
  487SOL    HW2 1729   1.307   2.842   2.459
  488SOL     OW 1730   1.841   2.044   2.820
  488SOL    HW1 1731   1.870   1.956   2.799
  488SOL    HW2 1732   1.750   2.047   2.789
  489SOL     OW 1733   0.268   2.181   2.575
  489SOL    HW1 1734   0.183   2.218   2.555
  489SOL    HW2 1735   0.267   2.168   2.670
  490SOL     OW 1736   0.899   2.763   2.099
  490SOL    HW1 1737   0.977   2.813   2.074
  490SOL    HW2 1738   0.925   2.717   2.179
  491SOL     OW 1739   1.042   2.111   2.794
  491SOL    HW1 1740   1.029   2.048   2.723
  491SOL    HW2 1741   1.003   2.069   2.871
  492SOL     OW 1742   0.091   2.167   1.918
  492SOL    HW1 1743   0.015   2.124   1.879
  492SOL    HW2 1744   0.080   2.260   1.897
  493SOL     OW 1745   0.056   2.066   2.178
  493SOL    HW1 1746   0.064   2.109   2.093
  493SOL    HW2 1747   0.120   1.995   2.175
  494SOL     OW 1748   1.115   0.222   2.016
  494SOL    HW1 1749   1.106   0.163   1.941
  494SOL    HW2 1750   1.206   0.211   2.044
  495SOL     OW 1751   1.733   2.715   0.049
  495SOL    HW1 1752   1.665   2.676   0.103
  495SOL    HW2 1753   1.698   2.801   0.025
  496SOL     OW 1754   1.218   2.182   2.318
  496SOL    HW1 1755   1.283   2.113   2.310
  496SOL    HW2 1756   1.243   2.230   2.397
  497SOL     OW 1757   0.593   2.580   2.530
  497SOL    HW1 1758   0.613   2.673   2.545
  497SOL    HW2 1759   0.527   2.581   2.460
  498SOL     OW 1760   0.887   2.821   2.709
  498SOL    HW1 1761   0.932   2.748   2.752
  498SOL    HW2 1762   0.848   2.870   2.782
  499SOL     OW 1763   1.110   2.882   1.953
  499SOL    HW1 1764   1.066   2.907   1.872
  499SOL    HW2 1765   1.164   2.807   1.929
  500SOL     OW 1766   1.823   2.041   0.098
  500SOL    HW1 1767   1.780   1.956   0.093
  500SOL    HW2 1768   1.834   2.067   0.006
  501SOL     OW 1769   0.424   2.294   2.381
  501SOL    HW1 1770   0.454   2.219   2.329
  501SOL    HW2 1771   0.381   2.255   2.457
  502SOL     OW 1772   1.294   2.319   2.547
  502SOL    HW1 1773   1.243   2.400   2.555
  502SOL    HW2 1774   1.293   2.282   2.635
  503SOL     OW 1775   1.579   2.071   2.734
  503SOL    HW1 1776   1.497   2.094   2.777
  503SOL    HW2 1777   1.597   2.144   2.675
  504SOL     OW 1778   0.014   2.933   2.158
  504SOL    HW1 1779   0.107   2.925   2.136
  504SOL    HW2 1780   0.004   2.880   2.237
  505SOL     OW 1781   2.093   0.636   0.125
  505SOL    HW1 1782   1.998   0.630   0.138
  505SOL    HW2 1783   2.106   0.610   0.033
  506SOL     OW 1784   2.076   0.289   1.013
  506SOL    HW1 1785   2.109   0.249   1.094
  506SOL    HW2 1786   1.994   0.244   0.995
  507SOL     OW 1787   1.863   0.384   0.642
  507SOL    HW1 1788   1.781   0.412   0.683
  507SOL    HW2 1789   1.839   0.307   0.591
  508SOL     OW 1790   2.620   1.146   1.021
  508SOL    HW1 1791   2.558   1.178   1.087
  508SOL    HW2 1792   2.658   1.225   0.984
  509SOL     OW 1793   2.727   0.764   1.829
  509SOL    HW1 1794   2.695   0.825   1.895
  509SOL    HW2 1795   2.752   0.819   1.755
  510SOL     OW 1796   2.546   1.004   0.647
  510SOL    HW1 1797   2.608   0.987   0.718
  510SOL    HW2 1798   2.476   1.055   0.688
  511SOL     OW 1799   2.241   1.455   1.079
  511SOL    HW1 1800   2.153   1.459   1.041
  511SOL    HW2 1801   2.295   1.504   1.017
  512SOL     OW 1802   2.314   0.397   1.473
  512SOL    HW1 1803   2.391   0.341   1.486
  512SOL    HW2 1804   2.240   0.342   1.496
  513SOL     OW 1805   2.082   1.699   0.456
  513SOL    HW1 1806   2.098   1.776   0.512
  513SOL    HW2 1807   2.162   1.690   0.405
  514SOL     OW 1808   2.974   1.355   1.680
  514SOL    HW1 1809   0.048   1.358   1.740
  514SOL    HW2 1810   2.938   1.268   1.691
  515SOL     OW 1811   2.092   1.436   0.539
  515SOL    HW1 1812   2.068   1.529   0.537
  515SOL    HW2 1813   2.033   1.398   0.604
  516SOL     OW 1814   2.449   0.980   0.149
  516SOL    HW1 1815   2.482   1.047   0.089
  516SOL    HW2 1816   2.481   1.007   0.235
  517SOL     OW 1817   1.983   0.644   0.561
  517SOL    HW1 1818   1.937   0.564   0.588
  517SOL    HW2 1819   1.975   0.702   0.637
  518SOL     OW 1820   1.884   1.590   0.114
  518SOL    HW1 1821   1.891   1.499   0.144
  518SOL    HW2 1822   1.879   1.641   0.195
  519SOL     OW 1823   2.474   1.383   0.733
  519SOL    HW1 1824   2.426   1.301   0.742
  519SOL    HW2 1825   2.458   1.411   0.643
  520SOL     OW 1826   2.683   0.018   0.529
  520SOL    HW1 1827   2.715   0.105   0.505
  520SOL    HW2 1828   2.590   0.020   0.507
  521SOL     OW 1829   2.194   0.242   1.819
  521SOL    HW1 1830   2.238   0.325   1.839
  521SOL    HW2 1831   2.105   0.254   1.851
  522SOL     OW 1832   2.450   0.721   0.270
  522SOL    HW1 1833   2.451   0.805   0.223
  522SOL    HW2 1834   2.387   0.734   0.341
  523SOL     OW 1835   2.646   0.632   1.454
  523SOL    HW1 1836   2.623   0.600   1.542
  523SOL    HW2 1837   2.617   0.562   1.395
  524SOL     OW 1838   2.830   0.887   1.558
  524SOL    HW1 1839   2.859   0.797   1.568
  524SOL    HW2 1840   2.826   0.900   1.463
  525SOL     OW 1841   2.847   0.369   1.258
  525SOL    HW1 1842   2.765   0.412   1.284
  525SOL    HW2 1843   2.848   0.373   1.163
  526SOL     OW 1844   2.893   0.718   0.402
  526SOL    HW1 1845   2.938   0.698   0.484
  526SOL    HW2 1846   2.816   0.660   0.402
  527SOL     OW 1847   1.952   0.818   0.768
  527SOL    HW1 1848   2.028   0.819   0.827
  527SOL    HW2 1849   1.897   0.890   0.799
  528SOL     OW 1850   2.773   0.344   0.222
  528SOL    HW1 1851   2.746   0.392   0.144
  528SOL    HW2 1852   2.772   0.252   0.196
  529SOL     OW 1853   2.389   0.204   0.912
  529SOL    HW1 1854   2.398   0.220   1.006
  529SOL    HW2 1855   2.397   0.290   0.872
  530SOL     OW 1856   2.852   1.436   0.466
  530SOL    HW1 1857   2.824   1.514   0.418
  530SOL    HW2 1858   2.853   1.464   0.558
  531SOL     OW 1859   2.239   1.823   0.858
  531SOL    HW1 1860   2.269   1.732   0.865
  531SOL    HW2 1861   2.318   1.875   0.874
  532SOL     OW 1862   2.178   0.953   0.250
  532SOL    HW1 1863   2.259   0.968   0.202
  532SOL    HW2 1864   2.148   0.867   0.218
  533SOL     OW 1865   2.064   0.288   1.498
  533SOL    HW1 1866   1.977   0.329   1.497
  533SOL    HW2 1867   2.049   0.204   1.541
  534SOL     OW 1868   2.332   1.717   0.335
  534SOL    HW1 1869   2.367   1.790   0.386
  534SOL    HW2 1870   2.397   1.702   0.266
  535SOL     OW 1871   2.799   1.693   0.895
  535SOL    HW1 1872   2.862   1.626   0.923
  535SOL    HW2 1873   2.753   1.652   0.822
  536SOL     OW 1874   2.261   0.686   0.477
  536SOL    HW1 1875   2.289   0.596   0.498
  536SOL    HW2 1876   2.167   0.686   0.494
  537SOL     OW 1877   2.481   0.110   0.103
  537SOL    HW1 1878   2.576   0.116   0.115
  537SOL    HW2 1879   2.464   0.160   0.023
  538SOL     OW 1880   2.629   0.280   1.755
  538SOL    HW1 1881   2.703   0.219   1.763
  538SOL    HW2 1882   2.582   0.271   1.838
  539SOL     OW 1883   2.757   1.524   1.183
  539SOL    HW1 1884   2.720   1.488   1.102
  539SOL    HW2 1885   2.824   1.460   1.209
  540SOL     OW 1886   2.668   1.402   0.939
  540SOL    HW1 1887   2.753   1.390   0.896
  540SOL    HW2 1888   2.604   1.401   0.868
  541SOL     OW 1889   2.787   0.505   0.904
  541SOL    HW1 1890   2.759   0.495   0.813
  541SOL    HW2 1891   2.824   0.419   0.927
  542SOL     OW 1892   2.404   0.042   0.497
  542SOL    HW1 1893   2.319   0.036   0.541
  542SOL    HW2 1894   2.397   0.120   0.443
  543SOL     OW 1895   0.322   1.148   0.041
  543SOL    HW1 1896   0.310   1.093   0.118
  543SOL    HW2 1897   0.264   1.223   0.056
  544SOL     OW 1898   2.151   0.094   0.188
  544SOL    HW1 1899   2.236   0.129   0.212
  544SOL    HW2 1900   2.165   2.999   0.183
  545SOL     OW 1901   2.837   0.244   0.465
  545SOL    HW1 1902   2.795   0.298   0.398
  545SOL    HW2 1903   2.911   0.204   0.421
  546SOL     OW 1904   0.086   1.588   0.801
  546SOL    HW1 1905   0.104   1.621   0.713
  546SOL    HW2 1906   0.166   1.542   0.827
  547SOL     OW 1907   2.325   1.146   0.736
  547SOL    HW1 1908   2.254   1.120   0.795
  547SOL    HW2 1909   2.288   1.136   0.648
  548SOL     OW 1910   2.896   0.506   0.025
  548SOL    HW1 1911   2.846   0.587   0.019
  548SOL    HW2 1912   2.941   0.512   0.109
  549SOL     OW 1913   1.941   0.554   1.401
  549SOL    HW1 1914   2.033   0.550   1.373
  549SOL    HW2 1915   1.925   0.648   1.416
  550SOL     OW 1916   2.426   0.216   1.189
  550SOL    HW1 1917   2.465   0.181   1.269
  550SOL    HW2 1918   2.332   0.216   1.207
  551SOL     OW 1919   2.742   0.470   0.636
  551SOL    HW1 1920   2.679   0.521   0.586
  551SOL    HW2 1921   2.723   0.379   0.612
  552SOL     OW 1922   2.857   0.065   0.761
  552SOL    HW1 1923   2.818   0.068   0.674
  552SOL    HW2 1924   2.835   2.979   0.795
  553SOL     OW 1925   2.353   1.404   0.150
  553SOL    HW1 1926   2.290   1.371   0.214
  553SOL    HW2 1927   2.303   1.411   0.069
  554SOL     OW 1928   2.388   0.256   0.319
  554SOL    HW1 1929   2.437   0.214   0.248
  554SOL    HW2 1930   2.360   0.340   0.283
  555SOL     OW 1931   2.775   0.118   1.399
  555SOL    HW1 1932   2.801   0.099   1.309
  555SOL    HW2 1933   2.829   0.192   1.425
  556SOL     OW 1934   2.857   1.106   1.729
  556SOL    HW1 1935   2.771   1.144   1.747
  556SOL    HW2 1936   2.841   1.042   1.659
  557SOL     OW 1937   2.565   1.065   0.379
  557SOL    HW1 1938   2.550   1.047   0.472
  557SOL    HW2 1939   2.650   1.026   0.361
  558SOL     OW 1940   2.278   0.822   1.250
  558SOL    HW1 1941   2.345   0.829   1.318
  558SOL    HW2 1942   2.239   0.736   1.263
  559SOL     OW 1943   2.213   1.110   0.489
  559SOL    HW1 1944   2.205   1.187   0.433
  559SOL    HW2 1945   2.207   1.036   0.430
  560SOL     OW 1946   2.416   0.539   0.864
  560SOL    HW1 1947   2.430   0.594   0.788
  560SOL    HW2 1948   2.483   0.566   0.926
  561SOL     OW 1949   2.864   0.122   1.761
  561SOL    HW1 1950   2.903   0.195   1.712
  561SOL    HW2 1951   2.895   0.044   1.716
  562SOL     OW 1952   2.371   0.052   1.745
  562SOL    HW1 1953   2.326   2.976   1.707
  562SOL    HW2 1954   2.301   0.116   1.759
  563SOL     OW 1955   2.439   0.869   1.029
  563SOL    HW1 1956   2.475   0.958   1.032
  563SOL    HW2 1957   2.384   0.863   1.107
  564SOL     OW 1958   0.064   0.527   0.264
  564SOL    HW1 1959   0.092   0.448   0.310
  564SOL    HW2 1960   0.037   0.587   0.334
  565SOL     OW 1961   2.158   0.189   1.254
  565SOL    HW1 1962   2.127   0.234   1.333
  565SOL    HW2 1963   2.138   0.096   1.271
  566SOL     OW 1964   2.589   0.633   1.059
  566SOL    HW1 1965   2.667   0.620   1.006
  566SOL    HW2 1966   2.559   0.721   1.036
  567SOL     OW 1967   2.174   0.063   0.643
  567SOL    HW1 1968   2.169   0.155   0.666
  567SOL    HW2 1969   2.155   0.017   0.725
  568SOL     OW 1970   2.859   0.764   0.982
  568SOL    HW1 1971   2.922   0.758   1.054
  568SOL    HW2 1972   2.858   0.676   0.944
  569SOL     OW 1973   2.854   1.594   1.703
  569SOL    HW1 1974   2.780   1.568   1.649
  569SOL    HW2 1975   2.913   1.520   1.701
  570SOL     OW 1976   2.907   1.342   0.834
  570SOL    HW1 1977   2.909   1.261   0.783
  570SOL    HW2 1978   2.978   1.395   0.799
  571SOL     OW 1979   2.171   0.808   0.938
  571SOL    HW1 1980   2.265   0.829   0.940
  571SOL    HW2 1981   2.166   0.720   0.975
  572SOL     OW 1982   2.196   0.530   1.019
  572SOL    HW1 1983   2.158   0.444   1.004
  572SOL    HW2 1984   2.270   0.535   0.959
  573SOL     OW 1985   2.963   0.363   1.664
  573SOL    HW1 1986   2.899   0.423   1.701
  573SOL    HW2 1987   0.047   0.408   1.672
  574SOL     OW 1988   1.876   1.316   0.178
  574SOL    HW1 1989   1.785   1.331   0.156
  574SOL    HW2 1990   1.876   1.233   0.226
  575SOL     OW 1991   1.969   1.736   0.837
  575SOL    HW1 1992   1.908   1.718   0.909
  575SOL    HW2 1993   2.053   1.753   0.879
  576SOL     OW 1994   2.375   1.587   0.890
  576SOL    HW1 1995   2.448   1.645   0.913
  576SOL    HW2 1996   2.414   1.521   0.833
  577SOL     OW 1997   2.854   0.797   1.288
  577SOL    HW1 1998   2.907   0.719   1.302
  577SOL    HW2 1999   2.777   0.766   1.241
  578SOL     OW 2000   1.895   0.536   1.120
  578SOL    HW1 2001   1.969   0.527   1.059
  578SOL    HW2 2002   1.936   0.543   1.206
  579SOL     OW 2003   2.044   0.478   1.725
  579SOL    HW1 2004   2.107   0.445   1.661
  579SOL    HW2 2005   1.976   0.520   1.673
  580SOL     OW 2006   2.671   0.574   0.354
  580SOL    HW1 2007   2.678   0.493   0.304
  580SOL    HW2 2008   2.590   0.614   0.324
  581SOL     OW 2009   2.573   0.455   1.260
  581SOL    HW1 2010   2.516   0.382   1.233
  581SOL    HW2 2011   2.567   0.518   1.189
  582SOL     OW 2012   2.318   0.494   0.200
  582SOL    HW1 2013   2.368   0.571   0.226
  582SOL    HW2 2014   2.230   0.528   0.181
  583SOL     OW 2015   2.766   0.085   0.145
  583SOL    HW1 2016   2.785   0.027   0.071
  583SOL    HW2 2017   2.818   0.050   0.217
  584SOL     OW 2018   2.528   1.612   0.162
  584SOL    HW1 2019   2.535   1.633   0.069
  584SOL    HW2 2020   2.476   1.532   0.165
  585SOL     OW 2021   2.141   0.350   0.757
  585SOL    HW1 2022   2.053   0.366   0.723
  585SOL    HW2 2023   2.127   0.318   0.846
  586SOL     OW 2024   2.800   0.956   0.310
  586SOL    HW1 2025   2.842   0.964   0.225
  586SOL    HW2 2026   2.831   0.872   0.345
  587SOL     OW 2027   2.920   1.082   0.725
  587SOL    HW1 2028   2.845   1.037   0.765
  587SOL    HW2 2029   2.926   1.044   0.637
  588SOL     OW 2030   2.882   0.240   0.974
  588SOL    HW1 2031   2.879   0.193   0.891
  588SOL    HW2 2032   2.867   0.173   1.041
  589SOL     OW 2033   2.465   1.489   0.484
  589SOL    HW1 2034   2.509   1.440   0.414
  589SOL    HW2 2035   2.400   1.543   0.438
  590SOL     OW 2036   2.137   1.326   0.301
  590SOL    HW1 2037   2.054   1.334   0.254
  590SOL    HW2 2038   2.122   1.371   0.384
  591SOL     OW 2039   2.528   0.213   1.489
  591SOL    HW1 2040   2.610   0.180   1.455
  591SOL    HW2 2041   2.545   0.228   1.582
  592SOL     OW 2042   1.919   0.199   0.332
  592SOL    HW1 2043   1.872   0.226   0.253
  592SOL    HW2 2044   2.000   0.160   0.299
  593SOL     OW 2045   2.485   0.845   1.418
  593SOL    HW1 2046   2.550   0.915   1.425
  593SOL    HW2 2047   2.535   0.765   1.433
  594SOL     OW 2048   2.587   0.556   1.703
  594SOL    HW1 2049   2.623   0.614   1.771
  594SOL    HW2 2050   2.605   0.468   1.735
  595SOL     OW 2051   2.457   0.738   0.669
  595SOL    HW1 2052   2.492   0.825   0.654
  595SOL    HW2 2053   2.387   0.728   0.604
  596SOL     OW 2054   2.766   1.379   0.066
  596SOL    HW1 2055   2.697   1.384   0.132
  596SOL    HW2 2056   2.724   1.409   2.985
  597SOL     OW 2057   2.537   1.801   0.952
  597SOL    HW1 2058   2.521   1.890   0.921
  597SOL    HW2 2059   2.629   1.785   0.935
  598SOL     OW 2060   2.719   0.957   0.853
  598SOL    HW1 2061   2.763   0.885   0.898
  598SOL    HW2 2062   2.688   1.014   0.924
  599SOL     OW 2063   2.950   1.012   0.077
  599SOL    HW1 2064   2.939   1.069   0.002
  599SOL    HW2 2065   0.016   0.947   0.049
  600SOL     OW 2066   1.965   1.230   0.686
  600SOL    HW1 2067   1.904   1.170   0.728
  600SOL    HW2 2068   2.006   1.179   0.617
  601SOL     OW 2069   2.345   0.431   0.558
  601SOL    HW1 2070   2.326   0.375   0.483
  601SOL    HW2 2071   2.276   0.411   0.621
  602SOL     OW 2072   2.187   0.560   1.294
  602SOL    HW1 2073   2.247   0.507   1.347
  602SOL    HW2 2074   2.208   0.537   1.204
  603SOL     OW 2075   2.683   1.585   0.676
  603SOL    HW1 2076   2.679   1.635   0.595
  603SOL    HW2 2077   2.611   1.522   0.669
  604SOL     OW 2078   2.850   0.013   1.149
  604SOL    HW1 2079   2.825   2.943   1.089
  604SOL    HW2 2080   2.944   0.001   1.164
  605SOL     OW 2081   2.630   1.331   0.317
  605SOL    HW1 2082   2.603   1.241   0.336
  605SOL    HW2 2083   2.713   1.341   0.365
  606SOL     OW 2084   1.904   1.073   0.309
  606SOL    HW1 2085   1.997   1.066   0.287
  606SOL    HW2 2086   1.877   0.983   0.328
  607SOL     OW 2087   2.740   1.653   0.345
  607SOL    HW1 2088   2.669   1.636   0.284
  607SOL    HW2 2089   2.711   1.730   0.395
  608SOL     OW 2090   2.093   0.590   1.995
  608SOL    HW1 2091   2.007   0.593   2.039
  608SOL    HW2 2092   2.073   0.558   1.907
  609SOL     OW 2093   2.090   0.277   2.886
  609SOL    HW1 2094   2.105   0.238   2.972
  609SOL    HW2 2095   2.005   0.242   2.858
  610SOL     OW 2096   1.864   0.382   2.500
  610SOL    HW1 2097   1.785   0.416   2.542
  610SOL    HW2 2098   1.835   0.304   2.453
  611SOL     OW 2099   2.602   1.146   2.902
  611SOL    HW1 2100   2.538   1.197   2.953
  611SOL    HW2 2101   2.655   1.212   2.858
  612SOL     OW 2102   2.546   1.001   2.511
  612SOL    HW1 2103   2.605   0.988   2.585
  612SOL    HW2 2104   2.473   1.053   2.548
  613SOL     OW 2105   2.202   1.429   2.930
  613SOL    HW1 2106   2.124   1.393   2.888
  613SOL    HW2 2107   2.244   1.483   2.862
  614SOL     OW 2108   2.098   1.706   2.335
  614SOL    HW1 2109   2.112   1.783   2.389
  614SOL    HW2 2110   2.165   1.711   2.267
  615SOL     OW 2111   2.110   1.429   2.385
  615SOL    HW1 2112   2.089   1.522   2.380
  615SOL    HW2 2113   2.042   1.393   2.442
  616SOL     OW 2114   2.126   1.095   2.762
  616SOL    HW1 2115   2.112   1.005   2.793
  616SOL    HW2 2116   2.062   1.146   2.810
  617SOL     OW 2117   2.533   0.946   2.039
  617SOL    HW1 2118   2.501   0.999   1.966
  617SOL    HW2 2119   2.545   1.008   2.111
  618SOL     OW 2120   1.992   0.638   2.430
  618SOL    HW1 2121   1.941   0.561   2.454
  618SOL    HW2 2122   1.982   0.698   2.503
  619SOL     OW 2123   2.473   1.385   2.597
  619SOL    HW1 2124   2.425   1.302   2.605
  619SOL    HW2 2125   2.456   1.413   2.507
  620SOL     OW 2126   2.684   0.019   2.385
  620SOL    HW1 2127   2.716   0.104   2.356
  620SOL    HW2 2128   2.591   0.020   2.364
  621SOL     OW 2129   2.455   0.709   2.138
  621SOL    HW1 2130   2.483   0.794   2.105
  621SOL    HW2 2131   2.388   0.730   2.204
  622SOL     OW 2132   2.889   0.701   2.281
  622SOL    HW1 2133   2.918   0.684   2.371
  622SOL    HW2 2134   2.812   0.646   2.269
  623SOL     OW 2135   1.955   0.817   2.634
  623SOL    HW1 2136   2.033   0.811   2.690
  623SOL    HW2 2137   1.907   0.893   2.668
  624SOL     OW 2138   2.743   0.344   2.046
  624SOL    HW1 2139   2.790   0.408   1.992
  624SOL    HW2 2140   2.799   0.267   2.047
  625SOL     OW 2141   2.425   0.210   2.844
  625SOL    HW1 2142   2.348   0.266   2.858
  625SOL    HW2 2143   2.450   0.227   2.753
  626SOL     OW 2144   2.840   1.433   2.326
  626SOL    HW1 2145   2.823   1.517   2.284
  626SOL    HW2 2146   2.856   1.455   2.418
  627SOL     OW 2147   2.217   1.808   2.721
  627SOL    HW1 2148   2.258   1.722   2.732
  627SOL    HW2 2149   2.284   1.871   2.748
  628SOL     OW 2150   2.216   0.936   2.144
  628SOL    HW1 2151   2.283   0.927   2.076
  628SOL    HW2 2152   2.147   0.875   2.118
  629SOL     OW 2153   2.331   1.747   2.173
  629SOL    HW1 2154   2.370   1.796   2.246
  629SOL    HW2 2155   2.405   1.704   2.131
  630SOL     OW 2156   2.130   1.800   0.103
  630SOL    HW1 2157   2.166   1.731   0.158
  630SOL    HW2 2158   2.070   1.755   0.044
  631SOL     OW 2159   2.792   1.702   2.757
  631SOL    HW1 2160   2.851   1.641   2.800
  631SOL    HW2 2161   2.756   1.652   2.684
  632SOL     OW 2162   2.262   0.681   2.344
  632SOL    HW1 2163   2.288   0.591   2.362
  632SOL    HW2 2164   2.168   0.682   2.364
  633SOL     OW 2165   2.497   0.115   1.970
  633SOL    HW1 2166   2.586   0.083   1.959
  633SOL    HW2 2167   2.455   0.099   1.886
  634SOL     OW 2168   2.665   1.397   2.798
  634SOL    HW1 2169   2.749   1.390   2.755
  634SOL    HW2 2170   2.601   1.396   2.727
  635SOL     OW 2171   2.784   0.526   2.755
  635SOL    HW1 2172   2.758   0.500   2.666
  635SOL    HW2 2173   2.815   0.445   2.795
  636SOL     OW 2174   2.408   0.060   2.370
  636SOL    HW1 2175   2.321   0.045   2.406
  636SOL    HW2 2176   2.396   0.129   2.305
  637SOL     OW 2177   2.142   0.030   2.064
  637SOL    HW1 2178   2.182   0.107   2.023
  637SOL    HW2 2179   2.217   2.978   2.094
  638SOL     OW 2180   2.807   0.256   2.316
  638SOL    HW1 2181   2.757   0.303   2.250
  638SOL    HW2 2182   2.887   0.229   2.271
  639SOL     OW 2183   0.086   1.576   2.658
  639SOL    HW1 2184   0.115   1.624   2.581
  639SOL    HW2 2185   0.167   1.553   2.704
  640SOL     OW 2186   2.333   1.148   2.598
  640SOL    HW1 2187   2.263   1.132   2.662
  640SOL    HW2 2188   2.292   1.132   2.513
  641SOL     OW 2189   2.885   0.543   1.887
  641SOL    HW1 2190   2.838   0.623   1.867
  641SOL    HW2 2191   2.939   0.565   1.963
  642SOL     OW 2192   2.739   0.466   2.494
  642SOL    HW1 2193   2.674   0.518   2.446
  642SOL    HW2 2194   2.739   0.381   2.451
  643SOL     OW 2195   2.855   0.059   2.610
  643SOL    HW1 2196   2.814   0.058   2.523
  643SOL    HW2 2197   2.835   2.973   2.647
  644SOL     OW 2198   2.396   0.258   2.180
  644SOL    HW1 2199   2.436   0.209   2.108
  644SOL    HW2 2200   2.370   0.341   2.140
  645SOL     OW 2201   2.597   1.088   2.256
  645SOL    HW1 2202   2.568   1.061   2.344
  645SOL    HW2 2203   2.674   1.033   2.239
  646SOL     OW 2204   2.219   1.109   2.357
  646SOL    HW1 2205   2.194   1.186   2.306
  646SOL    HW2 2206   2.217   1.036   2.294
  647SOL     OW 2207   2.407   0.545   2.729
  647SOL    HW1 2208   2.427   0.597   2.652
  647SOL    HW2 2209   2.478   0.563   2.790
  648SOL     OW 2210   2.441   0.874   2.880
  648SOL    HW1 2211   2.475   0.957   2.848
  648SOL    HW2 2212   2.424   0.888   2.973
  649SOL     OW 2213   0.059   0.536   2.129
  649SOL    HW1 2214   0.088   0.460   2.178
  649SOL    HW2 2215   0.020   0.594   2.195
  650SOL     OW 2216   2.597   0.646   2.916
  650SOL    HW1 2217   2.664   0.624   2.851
  650SOL    HW2 2218   2.558   0.727   2.884
  651SOL     OW 2219   2.173   0.068   2.509
  651SOL    HW1 2220   2.166   0.158   2.541
  651SOL    HW2 2221   2.154   0.014   2.586
  652SOL     OW 2222   2.876   0.780   2.831
  652SOL    HW1 2223   2.877   0.771   2.927
  652SOL    HW2 2224   2.867   0.690   2.799
  653SOL     OW 2225   2.908   1.346   2.694
  653SOL    HW1 2226   2.917   1.268   2.639
  653SOL    HW2 2227   2.975   1.406   2.662
  654SOL     OW 2228   2.170   0.811   2.810
  654SOL    HW1 2229   2.264   0.830   2.811
  654SOL    HW2 2230   2.164   0.719   2.835
  655SOL     OW 2231   2.177   0.540   2.871
  655SOL    HW1 2232   2.145   0.450   2.873
  655SOL    HW2 2233   2.256   0.537   2.818
  656SOL     OW 2234   1.950   1.795   2.792
  656SOL    HW1 2235   1.921   1.710   2.757
  656SOL    HW2 2236   2.042   1.800   2.769
  657SOL     OW 2237   2.364   1.580   2.763
  657SOL    HW1 2238   2.435   1.640   2.787
  657SOL    HW2 2239   2.405   1.513   2.708
  658SOL     OW 2240   2.835   0.750   0.108
  658SOL    HW1 2241   2.876   0.735   0.193
  658SOL    HW2 2242   2.743   0.769   0.128
  659SOL     OW 2243   2.669   0.559   2.217
  659SOL    HW1 2244   2.668   0.485   2.155
  659SOL    HW2 2245   2.592   0.611   2.193
  660SOL     OW 2246   2.555   0.434   0.076
  660SOL    HW1 2247   2.465   0.445   0.108
  660SOL    HW2 2248   2.570   0.510   0.019
  661SOL     OW 2249   2.337   0.485   2.043
  661SOL    HW1 2250   2.388   0.560   2.072
  661SOL    HW2 2251   2.248   0.519   2.035
  662SOL     OW 2252   1.943   1.270   2.888
  662SOL    HW1 2253   1.927   1.285   2.981
  662SOL    HW2 2254   1.869   1.217   2.860
  663SOL     OW 2255   2.524   1.611   2.027
  663SOL    HW1 2256   2.549   1.627   1.936
  663SOL    HW2 2257   2.505   1.517   2.031
  664SOL     OW 2258   2.132   0.325   2.615
  664SOL    HW1 2259   2.046   0.360   2.591
  664SOL    HW2 2260   2.126   0.310   2.710
  665SOL     OW 2261   2.808   0.933   2.173
  665SOL    HW1 2262   2.835   0.925   2.082
  665SOL    HW2 2263   2.829   0.848   2.212
  666SOL     OW 2264   2.914   1.082   2.585
  666SOL    HW1 2265   2.838   1.042   2.628
  666SOL    HW2 2266   2.927   1.030   2.506
  667SOL     OW 2267   2.885   0.239   2.812
  667SOL    HW1 2268   2.879   0.187   2.733
  667SOL    HW2 2269   2.872   0.177   2.884
  668SOL     OW 2270   2.466   1.496   2.346
  668SOL    HW1 2271   2.506   1.442   2.278
  668SOL    HW2 2272   2.380   1.519   2.311
  669SOL     OW 2273   1.932   0.316   1.907
  669SOL    HW1 2274   1.838   0.308   1.892
  669SOL    HW2 2275   1.961   0.383   1.845
  670SOL     OW 2276   1.894   0.208   2.162
  670SOL    HW1 2277   1.914   0.264   2.086
  670SOL    HW2 2278   1.956   0.136   2.155
  671SOL     OW 2279   2.461   0.735   2.529
  671SOL    HW1 2280   2.492   0.825   2.517
  671SOL    HW2 2281   2.389   0.726   2.466
  672SOL     OW 2282   2.750   1.356   1.905
  672SOL    HW1 2283   2.696   1.377   1.980
  672SOL    HW2 2284   2.760   1.439   1.858
  673SOL     OW 2285   2.530   1.796   2.825
  673SOL    HW1 2286   2.509   1.884   2.795
  673SOL    HW2 2287   2.622   1.784   2.804
  674SOL     OW 2288   2.713   0.965   2.723
  674SOL    HW1 2289   2.766   0.895   2.761
  674SOL    HW2 2290   2.683   1.016   2.799
  675SOL     OW 2291   2.950   0.949   1.929
  675SOL    HW1 2292   2.912   1.022   1.880
  675SOL    HW2 2293   0.004   0.992   1.996
  676SOL     OW 2294   1.945   1.241   2.530
  676SOL    HW1 2295   1.941   1.185   2.607
  676SOL    HW2 2296   2.001   1.194   2.468
  677SOL     OW 2297   2.341   0.424   2.419
  677SOL    HW1 2298   2.321   0.371   2.341
  677SOL    HW2 2299   2.271   0.401   2.481
  678SOL     OW 2300   2.685   1.582   2.538
  678SOL    HW1 2301   2.674   1.629   2.455
  678SOL    HW2 2302   2.611   1.521   2.541
  679SOL     OW 2303   2.628   1.345   2.166
  679SOL    HW1 2304   2.606   1.254   2.190
  679SOL    HW2 2305   2.705   1.365   2.219
  680SOL     OW 2306   2.745   1.655   2.202
  680SOL    HW1 2307   2.667   1.642   2.149
  680SOL    HW2 2308   2.725   1.732   2.256
  681SOL     OW 2309   2.089   2.500   0.112
  681SOL    HW1 2310   1.999   2.475   0.130
  681SOL    HW2 2311   2.107   2.465   0.025
  682SOL     OW 2312   1.860   2.243   0.608
  682SOL    HW1 2313   1.779   2.274   0.650
  682SOL    HW2 2314   1.835   2.160   0.569
  683SOL     OW 2315   2.582   2.998   1.020
  683SOL    HW1 2316   2.513   0.052   1.058
  683SOL    HW2 2317   2.631   0.057   0.963
  684SOL     OW 2318   2.728   2.630   1.824
  684SOL    HW1 2319   2.725   2.689   1.899
  684SOL    HW2 2320   2.758   2.684   1.751
  685SOL     OW 2321   2.512   2.847   0.710
  685SOL    HW1 2322   2.607   2.860   0.716
  685SOL    HW2 2323   2.481   2.919   0.655
  686SOL     OW 2324   2.111   0.314   0.479
  686SOL    HW1 2325   2.055   0.391   0.488
  686SOL    HW2 2326   2.052   0.242   0.459
  687SOL     OW 2327   2.109   2.947   0.885
  687SOL    HW1 2328   2.129   2.858   0.914
  687SOL    HW2 2329   2.055   2.984   0.955
  688SOL     OW 2330   2.484   2.832   0.149
  688SOL    HW1 2331   2.464   2.925   0.142
  688SOL    HW2 2332   2.561   2.828   0.206
  689SOL     OW 2333   1.980   2.504   0.563
  689SOL    HW1 2334   1.949   2.415   0.581
  689SOL    HW2 2335   1.968   2.551   0.646
  690SOL     OW 2336   1.987   2.599   1.583
  690SOL    HW1 2337   2.078   2.623   1.598
  690SOL    HW2 2338   1.938   2.679   1.603
  691SOL     OW 2339   2.534   0.256   0.670
  691SOL    HW1 2340   2.479   0.192   0.714
  691SOL    HW2 2341   2.473   0.317   0.630
  692SOL     OW 2342   2.681   1.865   0.514
  692SOL    HW1 2343   2.720   1.950   0.494
  692SOL    HW2 2344   2.587   1.882   0.518
  693SOL     OW 2345   2.054   2.846   1.256
  693SOL    HW1 2346   2.135   2.796   1.249
  693SOL    HW2 2347   1.986   2.786   1.224
  694SOL     OW 2348   2.451   2.581   0.275
  694SOL    HW1 2349   2.457   2.662   0.224
  694SOL    HW2 2350   2.385   2.599   0.342
  695SOL     OW 2351   2.658   2.485   1.448
  695SOL    HW1 2352   2.635   2.459   1.537
  695SOL    HW2 2353   2.614   2.420   1.393
  696SOL     OW 2354   2.820   2.741   1.585
  696SOL    HW1 2355   2.851   2.662   1.541
  696SOL    HW2 2356   2.771   2.789   1.518
  697SOL     OW 2357   2.858   2.230   1.258
  697SOL    HW1 2358   2.784   2.281   1.290
  697SOL    HW2 2359   2.851   2.236   1.162
  698SOL     OW 2360   2.885   2.583   0.406
  698SOL    HW1 2361   2.934   2.562   0.486
  698SOL    HW2 2362   2.813   2.520   0.404
  699SOL     OW 2363   1.945   2.685   0.775
  699SOL    HW1 2364   2.029   2.674   0.819
  699SOL    HW2 2365   1.909   2.766   0.811
  700SOL     OW 2366   2.781   2.190   0.221
  700SOL    HW1 2367   2.779   2.257   0.153
  700SOL    HW2 2368   2.761   2.109   0.174
  701SOL     OW 2369   2.436   2.052   0.887
  701SOL    HW1 2370   2.440   2.074   0.980
  701SOL    HW2 2371   2.449   2.136   0.842
  702SOL     OW 2372   2.254   2.552   0.476
  702SOL    HW1 2373   2.275   2.460   0.491
  702SOL    HW2 2374   2.160   2.558   0.493
  703SOL     OW 2375   2.488   1.975   0.120
  703SOL    HW1 2376   2.583   1.965   0.118
  703SOL    HW2 2377   2.457   1.931   0.041
  704SOL     OW 2378   2.639   2.163   1.765
  704SOL    HW1 2379   2.690   2.082   1.768
  704SOL    HW2 2380   2.559   2.142   1.814
  705SOL     OW 2381   2.788   2.361   0.901
  705SOL    HW1 2382   2.761   2.352   0.810
  705SOL    HW2 2383   2.828   2.278   0.924
  706SOL     OW 2384   2.416   1.926   0.500
  706SOL    HW1 2385   2.332   1.920   0.545
  706SOL    HW2 2386   2.407   2.002   0.443
  707SOL     OW 2387   2.821   2.099   0.465
  707SOL    HW1 2388   2.785   2.145   0.390
  707SOL    HW2 2389   2.907   2.069   0.435
  708SOL     OW 2390   2.886   2.374   0.043
  708SOL    HW1 2391   2.843   2.457   0.026
  708SOL    HW2 2392   2.944   2.391   0.118
  709SOL     OW 2393   1.971   2.418   1.383
  709SOL    HW1 2394   2.054   2.380   1.412
  709SOL    HW2 2395   1.954   2.488   1.446
  710SOL     OW 2396   2.450   2.080   1.157
  710SOL    HW1 2397   2.493   2.008   1.203
  710SOL    HW2 2398   2.361   2.082   1.191
  711SOL     OW 2399   2.742   2.317   0.634
  711SOL    HW1 2400   2.687   2.377   0.583
  711SOL    HW2 2401   2.746   2.238   0.580
  712SOL     OW 2402   2.852   1.926   0.761
  712SOL    HW1 2403   2.812   1.911   0.675
  712SOL    HW2 2404   2.844   1.842   0.806
  713SOL     OW 2405   2.373   2.123   0.319
  713SOL    HW1 2406   2.419   2.074   0.251
  713SOL    HW2 2407   2.357   2.209   0.280
  714SOL     OW 2408   2.755   1.968   1.362
  714SOL    HW1 2409   2.793   1.939   1.279
  714SOL    HW2 2410   2.830   2.000   1.412
  715SOL     OW 2411   2.275   2.684   1.255
  715SOL    HW1 2412   2.345   2.690   1.319
  715SOL    HW2 2413   2.259   2.590   1.246
  716SOL     OW 2414   2.421   2.384   0.862
  716SOL    HW1 2415   2.429   2.442   0.786
  716SOL    HW2 2416   2.486   2.418   0.924
  717SOL     OW 2417   2.279   2.598   1.605
  717SOL    HW1 2418   2.341   2.641   1.546
  717SOL    HW2 2419   2.329   2.528   1.646
  718SOL     OW 2420   2.881   2.001   1.794
  718SOL    HW1 2421   2.894   2.045   1.711
  718SOL    HW2 2422   2.881   1.908   1.772
  719SOL     OW 2423   2.454   2.731   1.035
  719SOL    HW1 2424   2.474   2.821   1.012
  719SOL    HW2 2425   2.390   2.738   1.106
  720SOL     OW 2426   0.059   2.400   0.264
  720SOL    HW1 2427   0.076   2.318   0.311
  720SOL    HW2 2428   0.036   2.463   0.332
  721SOL     OW 2429   2.586   2.490   1.059
  721SOL    HW1 2430   2.667   2.482   1.007
  721SOL    HW2 2431   2.557   2.580   1.043
  722SOL     OW 2432   2.164   1.908   0.603
  722SOL    HW1 2433   2.105   1.981   0.625
  722SOL    HW2 2434   2.169   1.857   0.684
  723SOL     OW 2435   2.853   2.617   0.985
  723SOL    HW1 2436   2.915   2.610   1.057
  723SOL    HW2 2437   2.857   2.532   0.941
  724SOL     OW 2438   2.231   2.792   1.798
  724SOL    HW1 2439   2.287   2.775   1.873
  724SOL    HW2 2440   2.246   2.718   1.739
  725SOL     OW 2441   2.174   2.679   0.943
  725SOL    HW1 2442   2.267   2.696   0.925
  725SOL    HW2 2443   2.173   2.589   0.977
  726SOL     OW 2444   2.195   2.414   1.011
  726SOL    HW1 2445   2.134   2.363   0.958
  726SOL    HW2 2446   2.280   2.402   0.968
  727SOL     OW 2447   2.966   2.247   1.664
  727SOL    HW1 2448   2.903   2.297   1.716
  727SOL    HW2 2449   0.049   2.293   1.677
  728SOL     OW 2450   2.976   2.069   1.468
  728SOL    HW1 2451   2.967   2.136   1.536
  728SOL    HW2 2452   2.964   2.117   1.386
  729SOL     OW 2453   2.862   2.665   1.273
  729SOL    HW1 2454   2.913   2.590   1.304
  729SOL    HW2 2455   2.780   2.627   1.241
  730SOL     OW 2456   1.897   2.449   1.125
  730SOL    HW1 2457   1.967   2.438   1.060
  730SOL    HW2 2458   1.943   2.448   1.209
  731SOL     OW 2459   2.052   2.371   1.729
  731SOL    HW1 2460   2.104   2.322   1.665
  731SOL    HW2 2461   2.013   2.442   1.679
  732SOL     OW 2462   2.666   2.425   0.362
  732SOL    HW1 2463   2.669   2.356   0.295
  732SOL    HW2 2464   2.593   2.481   0.335
  733SOL     OW 2465   2.538   2.325   1.266
  733SOL    HW1 2466   2.517   2.240   1.228
  733SOL    HW2 2467   2.548   2.383   1.191
  734SOL     OW 2468   2.305   2.357   0.210
  734SOL    HW1 2469   2.368   2.427   0.227
  734SOL    HW2 2470   2.225   2.403   0.184
  735SOL     OW 2471   2.024   2.998   1.480
  735SOL    HW1 2472   2.022   2.940   1.556
  735SOL    HW2 2473   2.035   2.939   1.405
  736SOL     OW 2474   2.762   1.930   0.124
  736SOL    HW1 2475   2.816   1.900   0.050
  736SOL    HW2 2476   2.803   1.890   0.201
  737SOL     OW 2477   2.675   2.866   1.380
  737SOL    HW1 2478   2.732   2.839   1.308
  737SOL    HW2 2479   2.698   2.958   1.396
  738SOL     OW 2480   2.734   2.792   0.282
  738SOL    HW1 2481   2.817   2.839   0.278
  738SOL    HW2 2482   2.747   2.725   0.349
  739SOL     OW 2483   2.887   2.103   0.970
  739SOL    HW1 2484   2.878   2.056   0.887
  739SOL    HW2 2485   2.870   2.037   1.037
  740SOL     OW 2486   1.976   2.862   1.708
  740SOL    HW1 2487   1.900   2.855   1.766
  740SOL    HW2 2488   2.051   2.847   1.766
  741SOL     OW 2489   2.535   2.074   1.479
  741SOL    HW1 2490   2.614   2.043   1.435
  741SOL    HW2 2491   2.563   2.091   1.569
  742SOL     OW 2492   1.939   2.015   0.342
  742SOL    HW1 2493   1.897   2.053   0.265
  742SOL    HW2 2494   2.028   1.995   0.313
  743SOL     OW 2495   2.477   2.689   1.435
  743SOL    HW1 2496   2.530   2.767   1.421
  743SOL    HW2 2497   2.540   2.618   1.441
  744SOL     OW 2498   2.575   2.428   1.699
  744SOL    HW1 2499   2.616   2.493   1.757
  744SOL    HW2 2500   2.605   2.344   1.734
  745SOL     OW 2501   2.450   2.583   0.673
  745SOL    HW1 2502   2.474   2.675   0.685
  745SOL    HW2 2503   2.387   2.585   0.601
  746SOL     OW 2504   2.759   2.841   0.870
  746SOL    HW1 2505   2.787   2.755   0.902
  746SOL    HW2 2506   2.679   2.860   0.919
  747SOL     OW 2507   2.295   2.285   0.540
  747SOL    HW1 2508   2.328   2.231   0.468
  747SOL    HW2 2509   2.208   2.250   0.558
  748SOL     OW 2510   2.877   1.869   1.134
  748SOL    HW1 2511   2.818   1.799   1.107
  748SOL    HW2 2512   2.959   1.850   1.089
  749SOL     OW 2513   1.863   2.910   0.299
  749SOL    HW1 2514   1.947   2.911   0.254
  749SOL    HW2 2515   1.856   2.821   0.335
  750SOL     OW 2516   2.098   2.472   1.980
  750SOL    HW1 2517   2.011   2.480   2.018
  750SOL    HW2 2518   2.082   2.441   1.890
  751SOL     OW 2519   2.090   2.147   2.844
  751SOL    HW1 2520   2.117   2.118   2.931
  751SOL    HW2 2521   2.000   2.115   2.835
  752SOL     OW 2522   1.868   2.248   2.496
  752SOL    HW1 2523   1.785   2.273   2.538
  752SOL    HW2 2524   1.847   2.167   2.449
  753SOL     OW 2525   2.641   0.018   2.874
  753SOL    HW1 2526   2.552   0.028   2.909
  753SOL    HW2 2527   2.651   0.092   2.814
  754SOL     OW 2528   2.507   2.843   2.572
  754SOL    HW1 2529   2.600   2.846   2.596
  754SOL    HW2 2530   2.494   2.922   2.518
  755SOL     OW 2531   2.106   0.312   2.325
  755SOL    HW1 2532   2.044   0.382   2.348
  755SOL    HW2 2533   2.062   0.232   2.353
  756SOL     OW 2534   2.114   2.948   2.751
  756SOL    HW1 2535   2.133   2.858   2.775
  756SOL    HW2 2536   2.056   2.980   2.820
  757SOL     OW 2537   2.462   2.821   2.000
  757SOL    HW1 2538   2.453   2.907   1.959
  757SOL    HW2 2539   2.540   2.830   2.056
  758SOL     OW 2540   1.979   2.511   2.425
  758SOL    HW1 2541   1.951   2.422   2.447
  758SOL    HW2 2542   1.970   2.559   2.507
  759SOL     OW 2543   2.492   0.242   2.574
  759SOL    HW1 2544   2.464   0.166   2.522
  759SOL    HW2 2545   2.463   0.318   2.524
  760SOL     OW 2546   2.678   1.864   2.369
  760SOL    HW1 2547   2.717   1.949   2.351
  760SOL    HW2 2548   2.585   1.881   2.381
  761SOL     OW 2549   2.059   2.805   0.119
  761SOL    HW1 2550   2.121   2.731   0.113
  761SOL    HW2 2551   1.976   2.769   0.088
  762SOL     OW 2552   2.457   2.578   2.134
  762SOL    HW1 2553   2.456   2.657   2.080
  762SOL    HW2 2554   2.390   2.594   2.201
  763SOL     OW 2555   2.892   2.579   2.270
  763SOL    HW1 2556   2.925   2.570   2.359
  763SOL    HW2 2557   2.813   2.524   2.268
  764SOL     OW 2558   1.945   2.685   2.638
  764SOL    HW1 2559   2.027   2.673   2.685
  764SOL    HW2 2560   1.907   2.764   2.677
  765SOL     OW 2561   2.746   2.203   2.054
  765SOL    HW1 2562   2.783   2.270   1.996
  765SOL    HW2 2563   2.759   2.121   2.007
  766SOL     OW 2564   2.410   2.046   2.769
  766SOL    HW1 2565   2.369   2.085   2.847
  766SOL    HW2 2566   2.424   2.119   2.709
  767SOL     OW 2567   2.254   2.554   2.334
  767SOL    HW1 2568   2.274   2.461   2.348
  767SOL    HW2 2569   2.161   2.562   2.354
  768SOL     OW 2570   2.789   2.378   2.755
  768SOL    HW1 2571   2.763   2.355   2.666
  768SOL    HW2 2572   2.816   2.296   2.795
  769SOL     OW 2573   2.412   1.925   2.366
  769SOL    HW1 2574   2.332   1.923   2.418
  769SOL    HW2 2575   2.404   2.004   2.312
  770SOL     OW 2576   2.143   1.908   2.051
  770SOL    HW1 2577   2.188   1.972   1.996
  770SOL    HW2 2578   2.212   1.853   2.087
  771SOL     OW 2579   2.807   2.102   2.307
  771SOL    HW1 2580   2.772   2.149   2.232
  771SOL    HW2 2581   2.896   2.079   2.282
  772SOL     OW 2582   2.888   2.411   1.885
  772SOL    HW1 2583   2.838   2.489   1.860
  772SOL    HW2 2584   2.931   2.435   1.967
  773SOL     OW 2585   2.742   2.316   2.492
  773SOL    HW1 2586   2.682   2.376   2.448
  773SOL    HW2 2587   2.742   2.237   2.438
  774SOL     OW 2588   2.851   1.925   2.605
  774SOL    HW1 2589   2.802   1.896   2.528
  774SOL    HW2 2590   2.849   1.851   2.665
  775SOL     OW 2591   2.390   2.123   2.181
  775SOL    HW1 2592   2.435   2.080   2.109
  775SOL    HW2 2593   2.364   2.208   2.146
  776SOL     OW 2594   2.413   2.388   2.724
  776SOL    HW1 2595   2.427   2.444   2.648
  776SOL    HW2 2596   2.476   2.419   2.789
  777SOL     OW 2597   2.436   2.730   2.889
  777SOL    HW1 2598   2.471   2.805   2.840
  777SOL    HW2 2599   2.440   2.757   2.980
  778SOL     OW 2600   0.048   2.390   2.134
  778SOL    HW1 2601   0.080   2.321   2.192
  778SOL    HW2 2602   0.005   2.453   2.193
  779SOL     OW 2603   2.165   2.068   0.088
  779SOL    HW1 2604   2.202   2.097   0.172
  779SOL    HW2 2605   2.157   1.973   0.097
  780SOL     OW 2606   2.589   2.497   2.908
  780SOL    HW1 2607   2.663   2.484   2.849
  780SOL    HW2 2608   2.557   2.584   2.887
  781SOL     OW 2609   2.167   1.926   2.483
  781SOL    HW1 2610   2.144   2.016   2.505
  781SOL    HW2 2611   2.172   1.881   2.568
  782SOL     OW 2612   2.878   2.632   2.824
  782SOL    HW1 2613   2.892   2.631   2.918
  782SOL    HW2 2614   2.868   2.540   2.800
  783SOL     OW 2615   2.171   2.674   2.806
  783SOL    HW1 2616   2.264   2.694   2.818
  783SOL    HW2 2617   2.163   2.582   2.831
  784SOL     OW 2618   2.179   2.402   2.865
  784SOL    HW1 2619   2.143   2.314   2.858
  784SOL    HW2 2620   2.261   2.398   2.815
  785SOL     OW 2621   2.875   2.643   0.097
  785SOL    HW1 2622   2.923   2.636   0.180
  785SOL    HW2 2623   2.792   2.685   0.121
  786SOL     OW 2624   2.673   2.428   2.221
  786SOL    HW1 2625   2.670   2.352   2.163
  786SOL    HW2 2626   2.598   2.481   2.195
  787SOL     OW 2627   2.564   2.311   0.099
  787SOL    HW1 2628   2.471   2.287   0.094
  787SOL    HW2 2629   2.574   2.380   0.033
  788SOL     OW 2630   2.334   2.350   2.052
  788SOL    HW1 2631   2.384   2.428   2.078
  788SOL    HW2 2632   2.247   2.384   2.031
  789SOL     OW 2633   0.162   2.698   2.152
  789SOL    HW1 2634   0.118   2.643   2.217
  789SOL    HW2 2635   0.208   2.637   2.095
  790SOL     OW 2636   2.124   2.178   2.574
  790SOL    HW1 2637   2.037   2.213   2.551
  790SOL    HW2 2638   2.123   2.172   2.669
  791SOL     OW 2639   2.753   2.767   2.102
  791SOL    HW1 2640   2.828   2.826   2.096
  791SOL    HW2 2641   2.778   2.704   2.169
  792SOL     OW 2642   2.875   2.106   2.810
  792SOL    HW1 2643   2.868   2.053   2.731
  792SOL    HW2 2644   2.910   2.047   2.876
  793SOL     OW 2645   1.916   2.198   1.914
  793SOL    HW1 2646   1.849   2.186   1.846
  793SOL    HW2 2647   1.984   2.249   1.870
  794SOL     OW 2648   1.926   2.030   2.160
  794SOL    HW1 2649   1.914   2.103   2.101
  794SOL    HW2 2650   2.006   1.987   2.131
  795SOL     OW 2651   2.456   2.578   2.527
  795SOL    HW1 2652   2.476   2.671   2.543
  795SOL    HW2 2653   2.388   2.579   2.461
  796SOL     OW 2654   2.747   2.832   2.709
  796SOL    HW1 2655   2.791   2.757   2.748
  796SOL    HW2 2656   2.711   2.881   2.784
  797SOL     OW 2657   2.956   2.844   1.898
  797SOL    HW1 2658   2.916   2.930   1.915
  797SOL    HW2 2659   0.007   2.826   1.977
  798SOL     OW 2660   2.295   2.294   2.390
  798SOL    HW1 2661   2.317   2.221   2.332
  798SOL    HW2 2662   2.242   2.254   2.459
  799SOL     OW 2663   1.884   2.919   2.179
  799SOL    HW1 2664   1.966   2.930   2.131
  799SOL    HW2 2665   1.879   2.826   2.199
   3.00000   3.00000   3.00000
