S5R7 in water
 2643
    1S5R7    O6    1   1.092   1.415   1.472
    1S5R7    C6    2   1.191   1.458   1.532
    1S5R7    H9    3   1.208   1.420   1.633
    1S5R7    C4    4   1.265   1.584   1.483
    1S5R7    H4    5   1.214   1.669   1.531
    1S5R7    O4    6   1.257   1.596   1.338
    1S5R7   H11    7   1.161   1.585   1.317
    1S5R7    C2    8   1.411   1.594   1.532
    1S5R7    H2    9   1.450   1.686   1.484
    1S5R7    O2   10   1.404   1.615   1.676
    1S5R7    H8   11   1.387   1.526   1.713
    1S5R7    C1   12   1.517   1.484   1.501
    1S5R7    H1   13   1.504   1.456   1.396
    1S5R7    O1   14   1.482   1.363   1.573
    1S5R7    H7   15   1.532   1.356   1.657
    1S5R7    C3   16   1.667   1.519   1.518
    1S5R7    H3   17   1.683   1.549   1.622
    1S5R7    O3   18   1.709   1.625   1.427
    1S5R7   H10   19   1.678   1.607   1.335
    1S5R7    C5   20   1.758   1.399   1.490
    1S5R7    H5   21   1.745   1.368   1.386
    1S5R7    H6   22   1.727   1.314   1.551
    1S5R7    O5   23   1.898   1.424   1.511
    1S5R7   H12   24   1.907   1.490   1.583
    2SOL     OW   25   0.237   0.658   0.107
    2SOL    HW1   26   0.167   0.611   0.160
    2SOL    HW2   27   0.256   0.607   0.023
    3SOL     OW   28   0.204   0.272   1.002
    3SOL    HW1   29   0.244   0.248   1.090
    3SOL    HW2   30   0.105   0.258   1.005
    4SOL     OW   31   0.009   0.392   0.660
    4SOL    HW1   32   2.923   0.433   0.688
    4SOL    HW2   33   2.990   0.316   0.597
    5SOL     OW   34   0.567   1.285   1.175
    5SOL    HW1   35   0.474   1.276   1.139
    5SOL    HW2   36   0.581   1.377   1.211
    6SOL     OW   37   1.557   1.510   0.704
    6SOL    HW1   38   1.516   1.493   0.794
    6SOL    HW2   39   1.485   1.519   0.636
    7SOL     OW   40   1.132   0.702   0.700
    7SOL    HW1   41   1.184   0.786   0.684
    7SOL    HW2   42   1.080   0.710   0.785
    8SOL     OW   43   1.764   0.593   0.231
    8SOL    HW1   44   1.746   0.584   0.133
    8SOL    HW2   45   1.725   0.515   0.280
    9SOL     OW   46   0.759   1.146   1.036
    9SOL    HW1   47   0.687   1.175   1.099
    9SOL    HW2   48   0.794   1.226   0.987
   10SOL     OW   49   0.862   0.781   1.818
   10SOL    HW1   50   0.852   0.851   1.888
   10SOL    HW2   51   0.890   0.824   1.732
   11SOL     OW   52   0.684   1.005   0.654
   11SOL    HW1   53   0.754   0.991   0.724
   11SOL    HW2   54   0.608   1.057   0.692
   12SOL     OW   55   0.705   1.156   1.812
   12SOL    HW1   56   0.759   1.236   1.837
   12SOL    HW2   57   0.617   1.185   1.775
   13SOL     OW   58   0.327   1.432   1.070
   13SOL    HW1   59   0.259   1.375   1.022
   13SOL    HW2   60   0.384   1.479   1.003
   14SOL     OW   61   0.451   0.402   1.492
   14SOL    HW1   62   0.530   0.340   1.494
   14SOL    HW2   63   0.367   0.349   1.505
   15SOL     OW   64   1.612   0.458   0.737
   15SOL    HW1   65   1.533   0.479   0.680
   15SOL    HW2   66   1.630   0.535   0.799
   16SOL     OW   67   0.220   1.717   0.479
   16SOL    HW1   68   0.239   1.801   0.530
   16SOL    HW2   69   0.292   1.702   0.412
   17SOL     OW   70   0.250   1.453   0.532
   17SOL    HW1   71   0.215   1.546   0.525
   17SOL    HW2   72   0.189   1.398   0.589
   18SOL     OW   73   0.263   1.083   0.900
   18SOL    HW1   74   0.258   0.988   0.932
   18SOL    HW2   75   0.197   1.139   0.950
   19SOL     OW   76   0.616   1.791   1.435
   19SOL    HW1   77   0.528   1.768   1.477
   19SOL    HW2   78   0.639   1.886   1.457
   20SOL     OW   79   0.588   0.975   0.153
   20SOL    HW1   80   0.597   1.047   0.085
   20SOL    HW2   81   0.632   1.004   0.239
   21SOL     OW   82   1.552   0.146   1.466
   21SOL    HW1   83   1.585   0.220   1.407
   21SOL    HW2   84   1.627   0.113   1.523
   22SOL     OW   85   0.119   0.631   0.572
   22SOL    HW1   86   0.081   0.546   0.608
   22SOL    HW2   87   0.117   0.701   0.643
   23SOL     OW   88   1.846   1.759   0.335
   23SOL    HW1   89   1.903   1.720   0.407
   23SOL    HW2   90   1.868   1.856   0.322
   24SOL     OW   91   0.020   1.598   0.115
   24SOL    HW1   92   0.022   1.499   0.129
   24SOL    HW2   93   2.990   1.642   0.200
   25SOL     OW   94   1.691   0.921   0.641
   25SOL    HW1   95   1.778   0.874   0.624
   25SOL    HW2   96   1.666   0.974   0.560
   26SOL     OW   97   1.648   1.108   0.433
   26SOL    HW1   98   1.737   1.110   0.386
   26SOL    HW2   99   1.651   1.172   0.510
   27SOL     OW  100   0.130   0.747   1.590
   27SOL    HW1  101   0.229   0.754   1.591
   27SOL    HW2  102   0.090   0.839   1.591
   28SOL     OW  103   0.609   1.384   0.734
   28SOL    HW1  104   0.562   1.297   0.747
   28SOL    HW2  105   0.595   1.416   0.641
   29SOL     OW  106   1.312   1.194   1.440
   29SOL    HW1  107   1.344   1.142   1.360
   29SOL    HW2  108   1.390   1.241   1.482
   30SOL     OW  109   0.818   0.016   0.512
   30SOL    HW1  110   0.854   0.108   0.497
   30SOL    HW2  111   0.719   0.017   0.499
   31SOL     OW  112   0.189   0.956   1.274
   31SOL    HW1  113   0.277   0.914   1.253
   31SOL    HW2  114   0.118   0.915   1.216
   32SOL     OW  115   1.506   1.008   0.214
   32SOL    HW1  116   1.436   0.945   0.250
   32SOL    HW2  117   1.564   1.040   0.289
   33SOL     OW  118   0.333   0.253   1.800
   33SOL    HW1  119   0.390   0.331   1.822
   33SOL    HW2  120   0.244   0.262   1.846
   34SOL     OW  121   1.478   1.411   0.953
   34SOL    HW1  122   1.406   1.431   1.018
   34SOL    HW2  123   1.466   1.319   0.916
   35SOL     OW  124   1.659   1.733   0.577
   35SOL    HW1  125   1.635   1.709   0.483
   35SOL    HW2  126   1.632   1.659   0.638
   36SOL     OW  127   0.592   0.720   0.270
   36SOL    HW1  128   0.602   0.805   0.218
   36SOL    HW2  129   0.525   0.733   0.343
   37SOL     OW  130   1.285   0.342   0.930
   37SOL    HW1  131   1.188   0.317   0.935
   37SOL    HW2  132   1.336   0.292   1.001
   38SOL     OW  133   1.586   1.667   0.309
   38SOL    HW1  134   1.679   1.702   0.305
   38SOL    HW2  135   1.554   1.646   0.216
   39SOL     OW  136   0.793   0.614   1.455
   39SOL    HW1  137   0.765   0.594   1.549
   39SOL    HW2  138   0.749   0.549   1.393
   40SOL     OW  139   1.396   0.477   1.678
   40SOL    HW1  140   1.393   0.525   1.766
   40SOL    HW2  141   1.455   0.397   1.686
   41SOL     OW  142   0.958   0.888   1.579
   41SOL    HW1  143   1.015   0.813   1.544
   41SOL    HW2  144   0.907   0.929   1.504
   42SOL     OW  145   0.997   0.418   1.226
   42SOL    HW1  146   0.920   0.437   1.287
   42SOL    HW2  147   0.964   0.367   1.147
   43SOL     OW  148   1.047   0.705   0.425
   43SOL    HW1  149   1.068   0.697   0.522
   43SOL    HW2  150   0.964   0.654   0.404
   44SOL     OW  151   0.105   0.819   0.763
   44SOL    HW1  152   0.187   0.813   0.821
   44SOL    HW2  153   0.034   0.870   0.810
   45SOL     OW  154   0.142   1.844   1.575
   45SOL    HW1  155   0.128   1.817   1.671
   45SOL    HW2  156   0.054   1.870   1.535
   46SOL     OW  157   0.926   0.339   0.221
   46SOL    HW1  158   0.939   0.403   0.145
   46SOL    HW2  159   0.879   0.257   0.187
   47SOL     OW  160   1.711   0.578   1.826
   47SOL    HW1  161   1.671   0.657   1.779
   47SOL    HW2  162   1.737   0.509   1.758
   48SOL     OW  163   1.375   1.142   0.538
   48SOL    HW1  164   1.459   1.125   0.486
   48SOL    HW2  165   1.319   1.209   0.490
   49SOL     OW  166   0.513   0.200   0.917
   49SOL    HW1  167   0.537   0.211   1.013
   49SOL    HW2  168   0.551   0.277   0.864
   50SOL     OW  169   1.003   1.446   0.470
   50SOL    HW1  170   0.962   1.522   0.419
   50SOL    HW2  171   0.991   1.462   0.568
   51SOL     OW  172   0.356   1.808   0.857
   51SOL    HW1  173   0.402   1.719   0.869
   51SOL    HW2  174   0.421   1.881   0.876
   52SOL     OW  175   1.797   1.059   0.868
   52SOL    HW1  176   1.745   1.041   0.784
   52SOL    HW2  177   1.735   1.062   0.946
   53SOL     OW  178   0.321   0.947   0.232
   53SOL    HW1  179   0.417   0.958   0.209
   53SOL    HW2  180   0.290   0.856   0.203
   54SOL     OW  181   1.477   0.743   0.727
   54SOL    HW1  182   1.465   0.693   0.813
   54SOL    HW2  183   1.557   0.802   0.733
   55SOL     OW  184   0.464   1.260   1.731
   55SOL    HW1  185   0.437   1.268   1.635
   55SOL    HW2  186   0.383   1.266   1.789
   56SOL     OW  187   1.110   1.774   0.224
   56SOL    HW1  188   1.046   1.727   0.286
   56SOL    HW2  189   1.146   1.708   0.157
   57SOL     OW  190   0.203   0.299   1.498
   57SOL    HW1  191   0.116   0.347   1.483
   57SOL    HW2  192   0.186   0.216   1.551
   58SOL     OW  193   1.624   1.361   0.085
   58SOL    HW1  194   1.600   1.457   0.077
   58SOL    HW2  195   1.541   1.305   0.079
   59SOL     OW  196   0.467   1.722   0.333
   59SOL    HW1  197   0.498   1.796   0.393
   59SOL    HW2  198   0.536   1.707   0.262
   60SOL     OW  199   1.410   0.109   0.433
   60SOL    HW1  200   1.390   0.081   0.339
   60SOL    HW2  201   1.508   0.127   0.442
   61SOL     OW  202   0.266   1.798   1.231
   61SOL    HW1  203   0.306   1.722   1.283
   61SOL    HW2  204   0.222   1.763   1.149
   62SOL     OW  205   0.936   1.700   0.900
   62SOL    HW1  206   1.019   1.652   0.927
   62SOL    HW2  207   0.890   1.649   0.827
   63SOL     OW  208   0.392   0.687   0.475
   63SOL    HW1  209   0.426   0.595   0.492
   63SOL    HW2  210   0.295   0.692   0.500
   64SOL     OW  211   1.537   0.252   1.739
   64SOL    HW1  212   1.538   0.258   1.839
   64SOL    HW2  213   1.483   0.172   1.711
   65SOL     OW  214   0.609   0.107   0.101
   65SOL    HW1  215   0.708   0.108   0.118
   65SOL    HW2  216   0.591   0.146   0.011
   66SOL     OW  217   0.765   0.271   1.751
   66SOL    HW1  218   0.845   0.212   1.761
   66SOL    HW2  219   0.717   0.278   1.838
   67SOL     OW  220   0.883   1.517   1.194
   67SOL    HW1  221   0.862   1.486   1.102
   67SOL    HW2  222   0.915   1.440   1.249
   68SOL     OW  223   1.345   0.589   1.434
   68SOL    HW1  224   1.373   0.552   1.523
   68SOL    HW2  225   1.377   0.683   1.425
   69SOL     OW  226   0.815   1.397   0.935
   69SOL    HW1  227   0.905   1.386   0.891
   69SOL    HW2  228   0.744   1.396   0.865
   70SOL     OW  229   0.926   0.510   0.901
   70SOL    HW1  230   0.902   0.504   0.804
   70SOL    HW2  231   0.961   0.421   0.932
   71SOL     OW  232   0.538   0.047   0.497
   71SOL    HW1  233   0.450   0.038   0.543
   71SOL    HW2  234   0.537   0.128   0.438
   72SOL     OW  235   1.409   1.206   0.052
   72SOL    HW1  236   1.433   1.128   0.109
   72SOL    HW2  237   1.318   1.239   0.076
   73SOL     OW  238   0.298   0.081   0.200
   73SOL    HW1  239   0.379   0.139   0.200
   73SOL    HW2  240   0.325   2.985   0.200
   74SOL     OW  241   0.950   0.253   0.475
   74SOL    HW1  242   0.921   0.291   0.387
   74SOL    HW2  243   1.049   0.261   0.484
   75SOL     OW  244   1.080   0.679   1.457
   75SOL    HW1  245   1.002   0.617   1.465
   75SOL    HW2  246   1.165   0.625   1.452
   76SOL     OW  247   1.226   1.566   0.792
   76SOL    HW1  248   1.240   1.637   0.724
   76SOL    HW2  249   1.287   1.582   0.870
   77SOL     OW  250   0.466   1.147   0.736
   77SOL    HW1  251   0.394   1.128   0.803
   77SOL    HW2  252   0.429   1.136   0.644
   78SOL     OW  253   1.269   1.794   0.604
   78SOL    HW1  254   1.318   1.857   0.543
   78SOL    HW2  255   1.200   1.845   0.655
   79SOL     OW  256   1.042   0.498   0.034
   79SOL    HW1  257   0.999   0.588   0.021
   79SOL    HW2  258   1.115   0.506   0.102
   80SOL     OW  259   0.084   0.566   1.390
   80SOL    HW1  260   0.176   0.559   1.351
   80SOL    HW2  261   0.085   0.633   1.465
   81SOL     OW  262   0.580   0.211   1.181
   81SOL    HW1  263   0.624   0.167   1.259
   81SOL    HW2  264   0.482   0.221   1.200
   82SOL     OW  265   0.875   0.471   0.638
   82SOL    HW1  266   0.819   0.525   0.574
   82SOL    HW2  267   0.888   0.379   0.601
   83SOL     OW  268   0.995   0.056   0.764
   83SOL    HW1  269   0.959   0.069   0.671
   83SOL    HW2  270   0.973   2.964   0.796
   84SOL     OW  271   1.441   1.159   0.856
   84SOL    HW1  272   1.366   1.093   0.858
   84SOL    HW2  273   1.467   1.177   0.761
   85SOL     OW  274   1.469   0.601   0.980
   85SOL    HW1  275   1.412   0.518   0.982
   85SOL    HW2  276   1.533   0.600   1.057
   86SOL     OW  277   1.846   0.816   0.381
   86SOL    HW1  278   1.903   0.761   0.442
   86SOL    HW2  279   1.817   0.761   0.303
   87SOL     OW  280   0.487   1.407   0.153
   87SOL    HW1  281   0.421   1.374   0.221
   87SOL    HW2  282   0.441   1.417   0.065
   88SOL     OW  283   1.669   1.266   0.649
   88SOL    HW1  284   1.769   1.267   0.659
   88SOL    HW2  285   1.633   1.357   0.669
   89SOL     OW  286   1.412   0.575   0.101
   89SOL    HW1  287   1.337   0.569   0.168
   89SOL    HW2  288   1.463   0.489   0.100
   90SOL     OW  289   0.527   0.262   0.322
   90SOL    HW1  290   0.572   0.207   0.251
   90SOL    HW2  291   0.500   0.350   0.284
   91SOL     OW  292   1.123   1.213   1.115
   91SOL    HW1  293   1.045   1.208   1.178
   91SOL    HW2  294   1.090   1.237   1.024
   92SOL     OW  295   1.629   1.096   1.076
   92SOL    HW1  296   1.629   1.167   1.147
   92SOL    HW2  297   1.547   1.107   1.019
   93SOL     OW  298   0.901   0.113   1.384
   93SOL    HW1  299   0.939   0.088   1.295
   93SOL    HW2  300   0.967   0.168   1.435
   94SOL     OW  301   0.981   1.109   1.734
   94SOL    HW1  302   0.885   1.132   1.746
   94SOL    HW2  303   0.989   1.036   1.666
   95SOL     OW  304   0.706   1.061   0.380
   95SOL    HW1  305   0.687   1.049   0.478
   95SOL    HW2  306   0.790   1.013   0.356
   96SOL     OW  307   0.421   0.811   1.250
   96SOL    HW1  308   0.493   0.826   1.318
   96SOL    HW2  309   0.381   0.721   1.264
   97SOL     OW  310   1.271   0.389   1.262
   97SOL    HW1  311   1.304   0.463   1.321
   97SOL    HW2  312   1.172   0.400   1.247
   98SOL     OW  313   0.068   1.571   1.310
   98SOL    HW1  314   0.020   1.653   1.339
   98SOL    HW2  315   0.161   1.571   1.346
   99SOL     OW  316   0.361   1.113   0.487
   99SOL    HW1  317   0.347   1.191   0.426
   99SOL    HW2  318   0.355   1.028   0.435
  100SOL     OW  319   0.552   0.546   0.863
  100SOL    HW1  320   0.570   0.602   0.782
  100SOL    HW2  321   0.619   0.568   0.934
  101SOL     OW  322   1.247   1.349   0.398
  101SOL    HW1  323   1.307   1.424   0.425
  101SOL    HW2  324   1.153   1.371   0.427
  102SOL     OW  325   1.284   1.431   1.131
  102SOL    HW1  326   1.295   1.463   1.225
  102SOL    HW2  327   1.226   1.349   1.130
  103SOL     OW  328   1.582   0.626   0.478
  103SOL    HW1  329   1.534   0.681   0.547
  103SOL    HW2  330   1.632   0.686   0.416
  104SOL     OW  331   0.353   1.528   1.319
  104SOL    HW1  332   0.328   1.486   1.232
  104SOL    HW2  333   0.452   1.541   1.324
  105SOL     OW  334   0.412   0.740   1.600
  105SOL    HW1  335   0.470   0.795   1.540
  105SOL    HW2  336   0.458   0.654   1.622
  106SOL     OW  337   1.602   0.781   1.679
  106SOL    HW1  338   1.509   0.817   1.679
  106SOL    HW2  339   1.656   0.826   1.609
  107SOL     OW  340   1.006   0.113   1.762
  107SOL    HW1  341   1.050   0.200   1.739
  107SOL    HW2  342   1.024   0.046   1.689
  108SOL     OW  343   0.503   0.052   1.751
  108SOL    HW1  344   0.475   2.984   1.683
  108SOL    HW2  345   0.431   0.121   1.760
  109SOL     OW  346   0.584   0.870   1.033
  109SOL    HW1  347   0.614   0.965   1.025
  109SOL    HW2  348   0.523   0.861   1.112
  110SOL     OW  349   1.358   0.855   1.026
  110SOL    HW1  350   1.270   0.850   0.978
  110SOL    HW2  351   1.401   0.764   1.026
  111SOL     OW  352   1.203   0.530   0.273
  111SOL    HW1  353   1.215   0.445   0.324
  111SOL    HW2  354   1.158   0.598   0.331
  112SOL     OW  355   0.324   0.208   1.247
  112SOL    HW1  356   0.291   0.257   1.327
  112SOL    HW2  357   0.275   0.121   1.238
  113SOL     OW  358   0.036   1.304   1.280
  113SOL    HW1  359   0.071   1.253   1.359
  113SOL    HW2  360   0.046   1.402   1.298
  114SOL     OW  361   0.727   0.632   1.059
  114SOL    HW1  362   0.802   0.610   0.997
  114SOL    HW2  363   0.693   0.724   1.038
  115SOL     OW  364   1.730   0.960   1.851
  115SOL    HW1  365   1.685   0.898   1.786
  115SOL    HW2  366   1.671   0.974   1.930
  116SOL     OW  367   0.309   0.073   0.645
  116SOL    HW1  368   0.306   0.165   0.683
  116SOL    HW2  369   0.283   0.006   0.715
  117SOL     OW  370   1.621   0.377   0.366
  117SOL    HW1  371   1.650   0.305   0.429
  117SOL    HW2  372   1.591   0.457   0.419
  118SOL     OW  373   1.025   0.757   0.962
  118SOL    HW1  374   1.025   0.778   1.060
  118SOL    HW2  375   0.996   0.662   0.949
  119SOL     OW  376   0.989   1.571   1.713
  119SOL    HW1  377   0.965   1.623   1.631
  119SOL    HW2  378   0.983   1.473   1.693
  120SOL     OW  379   0.357   0.915   1.805
  120SOL    HW1  380   0.437   0.937   1.860
  120SOL    HW2  381   0.381   0.849   1.735
  121SOL     OW  382   1.499   0.301   0.128
  121SOL    HW1  383   1.457   0.211   0.139
  121SOL    HW2  384   1.558   0.320   0.206
  122SOL     OW  385   1.293   0.822   0.035
  122SOL    HW1  386   1.336   0.733   0.051
  122SOL    HW2  387   1.321   0.856   2.946
  123SOL     OW  388   1.066   1.335   0.852
  123SOL    HW1  389   1.067   1.257   0.788
  123SOL    HW2  390   1.130   1.405   0.819
  124SOL     OW  391   0.313   0.807   0.946
  124SOL    HW1  392   0.410   0.831   0.942
  124SOL    HW2  393   0.303   0.716   0.985
  125SOL     OW  394   0.334   0.513   1.016
  125SOL    HW1  395   0.290   0.426   0.995
  125SOL    HW2  396   0.412   0.527   0.955
  126SOL     OW  397   1.141   0.383   1.703
  126SOL    HW1  398   1.091   0.440   1.769
  126SOL    HW2  399   1.233   0.420   1.691
  127SOL     OW  400   1.098   0.256   1.477
  127SOL    HW1  401   1.118   0.311   1.558
  127SOL    HW2  402   1.184   0.235   1.429
  128SOL     OW  403   0.009   1.313   0.169
  128SOL    HW1  404   2.914   1.333   0.145
  128SOL    HW2  405   0.011   1.235   0.232
  129SOL     OW  406   0.103   1.803   0.969
  129SOL    HW1  407   0.054   1.737   0.912
  129SOL    HW2  408   0.193   1.822   0.930
  130SOL     OW  409   0.497   1.574   0.903
  130SOL    HW1  410   0.566   1.640   0.932
  130SOL    HW2  411   0.539   1.504   0.844
  131SOL     OW  412   0.986   0.798   1.229
  131SOL    HW1  413   1.042   0.770   1.306
  131SOL    HW2  414   0.895   0.757   1.236
  132SOL     OW  415   0.045   0.556   1.107
  132SOL    HW1  416   0.139   0.535   1.077
  132SOL    HW2  417   0.039   0.543   1.206
  133SOL     OW  418   0.193   0.519   1.721
  133SOL    HW1  419   0.267   0.486   1.663
  133SOL    HW2  420   0.154   0.602   1.682
  134SOL     OW  421   1.380   0.941   1.665
  134SOL    HW1  422   1.384   1.039   1.681
  134SOL    HW2  423   1.375   0.923   1.567
  135SOL     OW  424   0.819   0.578   0.348
  135SOL    HW1  425   0.827   0.494   0.294
  135SOL    HW2  426   0.735   0.626   0.323
  136SOL     OW  427   1.645   0.605   1.188
  136SOL    HW1  428   1.624   0.544   1.265
  136SOL    HW2  429   1.735   0.582   1.151
  137SOL     OW  430   0.285   1.559   1.749
  137SOL    HW1  431   0.224   1.625   1.793
  137SOL    HW2  432   0.255   1.466   1.770
  138SOL     OW  433   0.694   0.458   1.262
  138SOL    HW1  434   0.646   0.375   1.232
  138SOL    HW2  435   0.698   0.523   1.186
  139SOL     OW  436   0.935   1.694   1.471
  139SOL    HW1  437   0.901   1.642   1.392
  139SOL    HW2  438   0.925   1.792   1.453
  140SOL     OW  439   0.449   0.495   0.202
  140SOL    HW1  440   0.518   0.565   0.222
  140SOL    HW2  441   0.360   0.540   0.189
  141SOL     OW  442   0.160   1.140   1.466
  141SOL    HW1  443   0.144   1.095   1.553
  141SOL    HW2  444   0.170   1.071   1.394
  142SOL     OW  445   1.341   1.048   1.212
  142SOL    HW1  446   1.356   0.977   1.143
  142SOL    HW2  447   1.261   1.102   1.187
  143SOL     OW  448   1.306   0.851   0.309
  143SOL    HW1  449   1.227   0.823   0.364
  143SOL    HW2  450   1.285   0.838   0.212
  144SOL     OW  451   1.742   1.757   1.122
  144SOL    HW1  452   1.825   1.776   1.069
  144SOL    HW2  453   1.729   1.658   1.129
  145SOL     OW  454   1.241   1.739   1.088
  145SOL    HW1  455   1.329   1.765   1.048
  145SOL    HW2  456   1.253   1.655   1.142
  146SOL     OW  457   0.093   1.248   1.026
  146SOL    HW1  458   0.076   1.261   1.124
  146SOL    HW2  459   0.009   1.267   0.975
  147SOL     OW  460   0.682   1.671   1.725
  147SOL    HW1  461   0.618   1.747   1.731
  147SOL    HW2  462   0.735   1.678   1.640
  148SOL     OW  463   0.876   0.082   0.147
  148SOL    HW1  464   0.932   0.066   0.066
  148SOL    HW2  465   0.909   0.025   0.222
  149SOL     OW  466   1.711   0.140   0.501
  149SOL    HW1  467   1.785   0.141   0.434
  149SOL    HW2  468   1.724   0.063   0.564
  150SOL     OW  469   1.392   1.570   0.482
  150SOL    HW1  470   1.458   1.601   0.413
  150SOL    HW2  471   1.340   1.649   0.516
  151SOL     OW  472   0.126   1.793   1.845
  151SOL    HW1  473   0.079   1.720   1.894
  151SOL    HW2  474   0.187   1.842   1.907
  152SOL     OW  475   1.280   0.925   0.667
  152SOL    HW1  476   1.355   0.859   0.679
  152SOL    HW2  477   1.313   1.003   0.615
  153SOL     OW  478   0.810   1.274   1.408
  153SOL    HW1  479   0.812   1.312   1.500
  153SOL    HW2  480   0.720   1.293   1.367
  154SOL     OW  481   0.669   1.608   0.161
  154SOL    HW1  482   0.677   1.633   0.064
  154SOL    HW2  483   0.612   1.526   0.170
  155SOL     OW  484   1.848   0.156   0.964
  155SOL    HW1  485   1.856   0.068   0.917
  155SOL    HW2  486   1.762   0.200   0.937
  156SOL     OW  487   0.267   0.332   0.741
  156SOL    HW1  488   0.174   0.364   0.722
  156SOL    HW2  489   0.273   0.301   0.835
  157SOL     OW  490   1.207   1.602   0.036
  157SOL    HW1  491   1.199   1.509   0.070
  157SOL    HW2  492   1.154   1.611   2.952
  158SOL     OW  493   0.824   1.007   1.374
  158SOL    HW1  494   0.872   0.989   1.288
  158SOL    HW2  495   0.824   1.106   1.392
  159SOL     OW  496   0.924   0.929   0.304
  159SOL    HW1  497   0.989   0.967   0.239
  159SOL    HW2  498   0.968   0.857   0.358
  160SOL     OW  499   1.486   1.601   0.050
  160SOL    HW1  500   1.386   1.609   0.057
  160SOL    HW2  501   1.516   1.642   2.964
  161SOL     OW  502   0.372   1.304   1.487
  161SOL    HW1  503   0.359   1.388   1.435
  161SOL    HW2  504   0.293   1.244   1.475
  162SOL     OW  505   1.051   1.104   0.709
  162SOL    HW1  506   0.976   1.053   0.752
  162SOL    HW2  507   1.117   1.040   0.670
  163SOL     OW  508   1.018   0.242   0.966
  163SOL    HW1  509   1.010   0.192   0.880
  163SOL    HW2  510   1.022   0.178   1.042
  164SOL     OW  511   0.602   1.490   0.483
  164SOL    HW1  512   0.646   1.435   0.412
  164SOL    HW2  513   0.535   1.551   0.442
  165SOL     OW  514   1.725   0.391   1.378
  165SOL    HW1  515   1.797   0.460   1.376
  165SOL    HW2  516   1.748   0.316   1.317
  166SOL     OW  517   0.265   1.335   0.297
  166SOL    HW1  518   0.174   1.337   0.255
  166SOL    HW2  519   0.263   1.383   0.384
  167SOL     OW  520   0.126   1.016   1.711
  167SOL    HW1  521   0.045   0.977   1.754
  167SOL    HW2  522   0.209   0.978   1.753
  168SOL     OW  523   0.667   0.212   1.494
  168SOL    HW1  524   0.751   0.180   1.449
  168SOL    HW2  525   0.686   0.229   1.590
  169SOL     OW  526   0.069   0.317   0.054
  169SOL    HW1  527   2.972   0.331   0.032
  169SOL    HW2  528   0.122   0.397   0.026
  170SOL     OW  529   1.430   0.859   1.401
  170SOL    HW1  530   1.377   0.918   1.339
  170SOL    HW2  531   1.526   0.859   1.373
  171SOL     OW  532   0.035   0.183   0.288
  171SOL    HW1  533   0.036   0.243   0.208
  171SOL    HW2  534   0.127   0.145   0.302
  172SOL     OW  535   1.183   1.348   0.127
  172SOL    HW1  536   1.085   1.338   0.111
  172SOL    HW2  537   1.203   1.339   0.224
  173SOL     OW  538   0.620   0.832   1.432
  173SOL    HW1  539   0.676   0.913   1.418
  173SOL    HW2  540   0.679   0.752   1.443
  174SOL     OW  541   1.493   1.778   0.979
  174SOL    HW1  542   1.515   1.836   0.901
  174SOL    HW2  543   1.575   1.765   1.035
  175SOL     OW  544   0.717   0.565   1.708
  175SOL    HW1  545   0.758   0.636   1.766
  175SOL    HW2  546   0.756   0.476   1.734
  176SOL     OW  547   0.386   1.735   1.564
  176SOL    HW1  548   0.299   1.781   1.549
  176SOL    HW2  549   0.372   1.651   1.615
  177SOL     OW  550   1.674   0.879   1.254
  177SOL    HW1  551   1.664   0.787   1.218
  177SOL    HW2  552   1.661   0.945   1.180
  178SOL     OW  553   1.228   0.316   0.457
  178SOL    HW1  554   1.291   0.238   0.451
  178SOL    HW2  555   1.250   0.371   0.537
  179SOL     OW  556   0.592   0.740   0.663
  179SOL    HW1  557   0.633   0.831   0.655
  179SOL    HW2  558   0.516   0.732   0.599
  180SOL     OW  559   1.761   0.354   1.646
  180SOL    HW1  560   1.744   0.377   1.550
  180SOL    HW2  561   1.677   0.317   1.686
  181SOL     OW  562   1.742   0.937   1.511
  181SOL    HW1  563   1.793   1.022   1.526
  181SOL    HW2  564   1.729   0.923   1.412
  182SOL     OW  565   0.908   1.389   0.061
  182SOL    HW1  566   0.835   1.382   0.130
  182SOL    HW2  567   0.868   1.412   2.973
  183SOL     OW  568   0.661   1.793   0.949
  183SOL    HW1  569   0.634   1.886   0.922
  183SOL    HW2  570   0.759   1.781   0.935
  184SOL     OW  571   0.867   0.966   0.858
  184SOL    HW1  572   0.918   0.889   0.897
  184SOL    HW2  573   0.829   1.022   0.931
  185SOL     OW  574   1.099   1.019   0.099
  185SOL    HW1  575   1.060   1.062   0.018
  185SOL    HW2  576   1.169   0.953   0.072
  186SOL     OW  577   1.850   1.559   0.853
  186SOL    HW1  578   1.776   1.544   0.787
  186SOL    HW2  579   1.868   1.474   0.902
  187SOL     OW  580   0.223   1.302   1.853
  187SOL    HW1  581   0.177   1.218   1.824
  187SOL    HW2  582   0.214   1.313   1.952
  188SOL     OW  583   0.131   1.249   0.661
  188SOL    HW1  584   0.078   1.185   0.716
  188SOL    HW2  585   0.182   1.198   0.592
  189SOL     OW  586   0.682   1.406   1.627
  189SOL    HW1  587   0.602   1.351   1.651
  189SOL    HW2  588   0.673   1.497   1.668
  190SOL     OW  589   1.791   0.173   1.232
  190SOL    HW1  590   1.842   0.102   1.280
  190SOL    HW2  591   1.821   0.178   1.137
  191SOL     OW  592   0.461   0.430   0.547
  191SOL    HW1  593   0.457   0.364   0.472
  191SOL    HW2  594   0.404   0.398   0.623
  192SOL     OW  595   1.672   1.491   1.144
  192SOL    HW1  596   1.614   1.463   1.068
  192SOL    HW2  597   1.751   1.429   1.149
  193SOL     OW  598   0.333   0.553   1.289
  193SOL    HW1  599   0.392   0.499   1.349
  193SOL    HW2  600   0.351   0.526   1.194
  194SOL     OW  601   0.825   1.579   0.680
  194SOL    HW1  602   0.822   1.630   0.594
  194SOL    HW2  603   0.745   1.520   0.687
  195SOL     OW  604   1.427   0.218   1.127
  195SOL    HW1  605   1.451   0.137   1.182
  195SOL    HW2  606   1.375   0.282   1.183
  196SOL     OW  607   1.010   0.028   1.147
  196SOL    HW1  608   0.924   2.998   1.105
  196SOL    HW2  609   1.080   2.958   1.134
  197SOL     OW  610   0.767   1.327   0.313
  197SOL    HW1  611   0.733   1.235   0.331
  197SOL    HW2  612   0.856   1.338   0.358
  198SOL     OW  613   0.625   1.561   1.286
  198SOL    HW1  614   0.623   1.646   1.339
  198SOL    HW2  615   0.715   1.551   1.242
  199SOL     OW  616   1.357   0.056   0.167
  199SOL    HW1  617   1.420   2.980   0.149
  199SOL    HW2  618   1.263   0.025   0.151
  200SOL     OW  619   1.295   0.462   0.683
  200SOL    HW1  620   1.239   0.544   0.688
  200SOL    HW2  621   1.294   0.416   0.772
  201SOL     OW  622   1.603   0.232   0.887
  201SOL    HW1  623   1.524   0.229   0.948
  201SOL    HW2  624   1.596   0.312   0.828
  202SOL     OW  625   0.070   1.091   0.341
  202SOL    HW1  626   0.152   1.048   0.303
  202SOL    HW2  627   2.994   1.026   0.338
  203SOL     OW  628   0.880   1.655   0.345
  203SOL    HW1  629   0.809   1.629   0.281
  203SOL    HW2  630   0.849   1.733   0.400
  204SOL     OW  631   0.240   0.643   1.975
  204SOL    HW1  632   0.169   0.606   2.034
  204SOL    HW2  633   0.228   0.607   1.882
  205SOL     OW  634   0.234   0.250   2.850
  205SOL    HW1  635   0.251   0.230   2.947
  205SOL    HW2  636   0.136   0.241   2.832
  206SOL     OW  637   0.008   0.391   2.523
  206SOL    HW1  638   2.920   0.430   2.549
  206SOL    HW2  639   2.994   0.315   2.460
  207SOL     OW  640   1.556   1.509   2.568
  207SOL    HW1  641   1.511   1.490   2.655
  207SOL    HW2  642   1.487   1.519   2.496
  208SOL     OW  643   1.133   0.701   2.562
  208SOL    HW1  644   1.186   0.784   2.544
  208SOL    HW2  645   1.082   0.712   2.647
  209SOL     OW  646   1.763   0.606   2.091
  209SOL    HW1  647   1.744   0.599   1.992
  209SOL    HW2  648   1.730   0.523   2.136
  210SOL     OW  649   0.749   1.146   2.893
  210SOL    HW1  650   0.679   1.185   2.952
  210SOL    HW2  651   0.800   1.220   2.849
  211SOL     OW  652   0.683   1.007   2.512
  211SOL    HW1  653   0.754   0.991   2.581
  211SOL    HW2  654   0.607   1.058   2.553
  212SOL     OW  655   0.332   1.451   2.930
  212SOL    HW1  656   0.275   1.382   2.886
  212SOL    HW2  657   0.391   1.494   2.862
  213SOL     OW  658   1.616   0.458   2.595
  213SOL    HW1  659   1.538   0.477   2.535
  213SOL    HW2  660   1.615   0.522   2.672
  214SOL     OW  661   0.222   1.712   2.347
  214SOL    HW1  662   0.241   1.799   2.393
  214SOL    HW2  663   0.281   1.703   2.267
  215SOL     OW  664   0.253   1.448   2.388
  215SOL    HW1  665   0.222   1.543   2.386
  215SOL    HW2  666   0.191   1.394   2.446
  216SOL     OW  667   0.241   1.085   2.753
  216SOL    HW1  668   0.259   0.995   2.793
  216SOL    HW2  669   0.191   1.141   2.818
  217SOL     OW  670   0.587   0.983   1.996
  217SOL    HW1  671   0.631   1.035   1.922
  217SOL    HW2  672   0.629   1.009   2.084
  218SOL     OW  673   0.124   0.627   2.436
  218SOL    HW1  674   0.083   0.543   2.472
  218SOL    HW2  675   0.121   0.699   2.507
  219SOL     OW  676   1.844   1.761   2.199
  219SOL    HW1  677   1.906   1.728   2.270
  219SOL    HW2  678   1.867   1.856   2.176
  220SOL     OW  679   0.026   1.596   1.999
  220SOL    HW1  680   0.021   1.497   2.007
  220SOL    HW2  681   2.974   1.638   2.073
  221SOL     OW  682   1.690   0.920   2.501
  221SOL    HW1  683   1.778   0.874   2.486
  221SOL    HW2  684   1.666   0.973   2.419
  222SOL     OW  685   1.647   1.108   2.292
  222SOL    HW1  686   1.735   1.111   2.245
  222SOL    HW2  687   1.649   1.172   2.370
  223SOL     OW  688   0.607   1.382   2.593
  223SOL    HW1  689   0.559   1.295   2.605
  223SOL    HW2  690   0.594   1.414   2.499
  224SOL     OW  691   0.819   0.015   2.372
  224SOL    HW1  692   0.857   0.105   2.350
  224SOL    HW2  693   0.720   0.016   2.359
  225SOL     OW  694   1.533   0.994   2.060
  225SOL    HW1  695   1.459   0.933   2.085
  225SOL    HW2  696   1.575   1.032   2.143
  226SOL     OW  697   1.431   1.422   2.799
  226SOL    HW1  698   1.420   1.430   2.898
  226SOL    HW2  699   1.439   1.326   2.774
  227SOL     OW  700   1.657   1.735   2.442
  227SOL    HW1  701   1.635   1.709   2.348
  227SOL    HW2  702   1.633   1.660   2.503
  228SOL     OW  703   0.597   0.724   2.128
  228SOL    HW1  704   0.606   0.806   2.070
  228SOL    HW2  705   0.528   0.740   2.198
  229SOL     OW  706   1.294   0.337   2.808
  229SOL    HW1  707   1.195   0.323   2.797
  229SOL    HW2  708   1.323   0.302   2.897
  230SOL     OW  709   1.589   1.669   2.179
  230SOL    HW1  710   1.682   1.705   2.175
  230SOL    HW2  711   1.557   1.651   2.086
  231SOL     OW  712   1.047   0.698   2.290
  231SOL    HW1  713   1.066   0.692   2.388
  231SOL    HW2  714   0.962   0.649   2.270
  232SOL     OW  715   0.107   0.817   2.625
  232SOL    HW1  716   0.189   0.813   2.682
  232SOL    HW2  717   0.040   0.879   2.666
  233SOL     OW  718   0.872   0.357   2.049
  233SOL    HW1  719   0.931   0.419   1.998
  233SOL    HW2  720   0.904   0.263   2.038
  234SOL     OW  721   1.377   1.144   2.401
  234SOL    HW1  722   1.459   1.124   2.348
  234SOL    HW2  723   1.320   1.209   2.351
  235SOL     OW  724   0.558   0.203   2.837
  235SOL    HW1  725   0.502   0.276   2.876
  235SOL    HW2  726   0.581   0.226   2.742
  236SOL     OW  727   1.003   1.444   2.333
  236SOL    HW1  728   0.964   1.522   2.283
  236SOL    HW2  729   0.992   1.459   2.431
  237SOL     OW  730   0.356   1.803   2.715
  237SOL    HW1  731   0.402   1.716   2.729
  237SOL    HW2  732   0.417   1.878   2.739
  238SOL     OW  733   1.804   1.060   2.719
  238SOL    HW1  734   1.747   1.039   2.640
  238SOL    HW2  735   1.748   1.062   2.801
  239SOL     OW  736   0.316   0.948   2.107
  239SOL    HW1  737   0.403   0.979   2.069
  239SOL    HW2  738   0.293   0.859   2.068
  240SOL     OW  739   1.476   0.747   2.587
  240SOL    HW1  740   1.471   0.689   2.669
  240SOL    HW2  741   1.560   0.801   2.590
  241SOL     OW  742   1.121   1.774   2.090
  241SOL    HW1  743   1.045   1.737   2.144
  241SOL    HW2  744   1.145   1.710   2.017
  242SOL     OW  745   1.630   1.377   1.933
  242SOL    HW1  746   1.587   1.466   1.946
  242SOL    HW2  747   1.558   1.307   1.924
  243SOL     OW  748   0.467   1.738   2.181
  243SOL    HW1  749   0.505   1.799   2.251
  243SOL    HW2  750   0.541   1.705   2.122
  244SOL     OW  751   1.410   0.111   2.293
  244SOL    HW1  752   1.391   0.076   2.202
  244SOL    HW2  753   1.508   0.130   2.303
  245SOL     OW  754   0.264   1.799   0.098
  245SOL    HW1  755   0.307   1.729   0.156
  245SOL    HW2  756   0.200   1.755   0.035
  246SOL     OW  757   0.942   1.691   2.755
  246SOL    HW1  758   1.028   1.640   2.761
  246SOL    HW2  759   0.884   1.649   2.685
  247SOL     OW  760   0.393   0.688   2.339
  247SOL    HW1  761   0.428   0.596   2.353
  247SOL    HW2  762   0.295   0.691   2.361
  248SOL     OW  763   0.627   0.120   1.975
  248SOL    HW1  764   0.720   0.083   1.976
  248SOL    HW2  765   0.584   0.101   1.886
  249SOL     OW  766   0.807   1.395   2.789
  249SOL    HW1  767   0.899   1.388   2.750
  249SOL    HW2  768   0.739   1.391   2.716
  250SOL     OW  769   0.920   0.517   2.757
  250SOL    HW1  770   0.900   0.499   2.661
  250SOL    HW2  771   0.953   0.433   2.800
  251SOL     OW  772   0.543   0.060   2.366
  251SOL    HW1  773   0.452   0.042   2.405
  251SOL    HW2  774   0.536   0.133   2.299
  252SOL     OW  775   1.430   1.199   1.898
  252SOL    HW1  776   1.461   1.119   1.950
  252SOL    HW2  777   1.337   1.223   1.927
  253SOL     OW  778   0.290   0.031   2.054
  253SOL    HW1  779   0.338   0.113   2.020
  253SOL    HW2  780   0.357   2.967   2.091
  254SOL     OW  781   0.942   0.255   2.323
  254SOL    HW1  782   0.906   0.303   2.243
  254SOL    HW2  783   1.041   0.266   2.327
  255SOL     OW  784   1.219   1.584   2.673
  255SOL    HW1  785   1.243   1.645   2.596
  255SOL    HW2  786   1.303   1.557   2.720
  256SOL     OW  787   0.461   1.145   2.600
  256SOL    HW1  788   0.388   1.129   2.666
  256SOL    HW2  789   0.426   1.131   2.508
  257SOL     OW  790   1.270   1.794   2.466
  257SOL    HW1  791   1.319   1.857   2.405
  257SOL    HW2  792   1.199   1.845   2.516
  258SOL     OW  793   1.021   0.548   1.888
  258SOL    HW1  794   0.978   0.636   1.864
  258SOL    HW2  795   1.091   0.563   1.957
  259SOL     OW  796   0.872   0.468   2.497
  259SOL    HW1  797   0.821   0.523   2.430
  259SOL    HW2  798   0.890   0.377   2.458
  260SOL     OW  799   0.996   0.050   2.622
  260SOL    HW1  800   0.961   0.062   2.529
  260SOL    HW2  801   0.974   2.958   2.654
  261SOL     OW  802   1.440   1.161   2.711
  261SOL    HW1  803   1.361   1.099   2.710
  261SOL    HW2  804   1.471   1.177   2.618
  262SOL     OW  805   1.487   0.584   2.818
  262SOL    HW1  806   1.419   0.511   2.821
  262SOL    HW2  807   1.510   0.613   2.911
  263SOL     OW  808   1.849   0.815   2.242
  263SOL    HW1  809   1.907   0.764   2.306
  263SOL    HW2  810   1.814   0.754   2.172
  264SOL     OW  811   0.490   1.413   2.025
  264SOL    HW1  812   0.410   1.385   2.077
  264SOL    HW2  813   0.474   1.400   1.927
  265SOL     OW  814   1.670   1.267   2.508
  265SOL    HW1  815   1.769   1.268   2.520
  265SOL    HW2  816   1.633   1.357   2.530
  266SOL     OW  817   1.392   0.573   1.934
  266SOL    HW1  818   1.328   0.553   2.009
  266SOL    HW2  819   1.483   0.539   1.958
  267SOL     OW  820   0.527   0.265   2.181
  267SOL    HW1  821   0.567   0.207   2.110
  267SOL    HW2  822   0.505   0.354   2.143
  268SOL     OW  823   1.650   1.106   2.932
  268SOL    HW1  824   1.656   1.176   0.003
  268SOL    HW2  825   1.562   1.112   2.886
  269SOL     OW  826   0.709   1.057   2.234
  269SOL    HW1  827   0.693   1.045   2.332
  269SOL    HW2  828   0.789   1.004   2.207
  270SOL     OW  829   0.352   1.110   2.352
  270SOL    HW1  830   0.355   1.189   2.291
  270SOL    HW2  831   0.355   1.026   2.298
  271SOL     OW  832   0.544   0.552   2.732
  271SOL    HW1  833   0.564   0.601   2.647
  271SOL    HW2  834   0.617   0.567   2.798
  272SOL     OW  835   1.247   1.350   2.258
  272SOL    HW1  836   1.308   1.424   2.286
  272SOL    HW2  837   1.154   1.370   2.287
  273SOL     OW  838   1.582   0.626   2.340
  273SOL    HW1  839   1.533   0.682   2.406
  273SOL    HW2  840   1.628   0.685   2.273
  274SOL     OW  841   0.579   0.872   2.880
  274SOL    HW1  842   0.622   0.957   2.849
  274SOL    HW2  843   0.550   0.882   2.975
  275SOL     OW  844   1.207   0.534   2.133
  275SOL    HW1  845   1.215   0.448   2.183
  275SOL    HW2  846   1.160   0.601   2.190
  276SOL     OW  847   0.731   0.641   2.915
  276SOL    HW1  848   0.801   0.611   2.851
  276SOL    HW2  849   0.693   0.728   2.884
  277SOL     OW  850   0.309   0.072   2.507
  277SOL    HW1  851   0.304   0.164   2.546
  277SOL    HW2  852   0.281   0.005   2.577
  278SOL     OW  853   1.613   0.377   2.231
  278SOL    HW1  854   1.652   0.308   2.292
  278SOL    HW2  855   1.590   0.459   2.284
  279SOL     OW  856   1.018   0.760   2.816
  279SOL    HW1  857   1.022   0.773   2.915
  279SOL    HW2  858   0.989   0.666   2.796
  280SOL     OW  859   1.528   0.271   1.999
  280SOL    HW1  860   1.461   0.202   2.024
  280SOL    HW2  861   1.565   0.313   2.082
  281SOL     OW  862   1.295   0.826   1.896
  281SOL    HW1  863   1.335   0.735   1.903
  281SOL    HW2  864   1.324   0.868   1.810
  282SOL     OW  865   1.051   1.349   2.693
  282SOL    HW1  866   1.063   1.262   2.646
  282SOL    HW2  867   1.131   1.408   2.675
  283SOL     OW  868   0.313   0.811   2.809
  283SOL    HW1  869   0.411   0.832   2.808
  283SOL    HW2  870   0.300   0.718   2.844
  284SOL     OW  871   0.319   0.519   2.874
  284SOL    HW1  872   0.283   0.428   2.852
  284SOL    HW2  873   0.402   0.536   2.820
  285SOL     OW  874   2.993   1.318   2.043
  285SOL    HW1  875   2.899   1.326   2.010
  285SOL    HW2  876   0.005   1.233   2.094
  286SOL     OW  877   0.097   1.817   2.810
  286SOL    HW1  878   0.054   1.737   2.769
  286SOL    HW2  879   0.192   1.823   2.781
  287SOL     OW  880   0.504   1.576   2.760
  287SOL    HW1  881   0.574   1.642   2.787
  287SOL    HW2  882   0.545   1.505   2.703
  288SOL     OW  883   0.975   0.752   0.084
  288SOL    HW1  884   1.033   0.754   0.166
  288SOL    HW2  885   0.881   0.772   0.109
  289SOL     OW  886   0.814   0.571   2.216
  289SOL    HW1  887   0.822   0.493   2.154
  289SOL    HW2  888   0.738   0.629   2.187
  290SOL     OW  889   0.695   0.438   0.087
  290SOL    HW1  890   0.597   0.429   0.102
  290SOL    HW2  891   0.713   0.518   0.029
  291SOL     OW  892   0.465   0.497   2.052
  291SOL    HW1  893   0.532   0.569   2.071
  291SOL    HW2  894   0.375   0.538   2.038
  292SOL     OW  895   1.309   0.856   2.167
  292SOL    HW1  896   1.230   0.828   2.223
  292SOL    HW2  897   1.287   0.843   2.071
  293SOL     OW  898   1.738   1.766   2.971
  293SOL    HW1  899   1.814   1.793   2.912
  293SOL    HW2  900   1.766   1.688   0.027
  294SOL     OW  901   0.073   1.251   2.903
  294SOL    HW1  902   0.046   1.275   2.996
  294SOL    HW2  903   0.003   1.282   2.838
  295SOL     OW  904   1.718   0.144   2.361
  295SOL    HW1  905   1.783   0.141   2.285
  295SOL    HW2  906   1.730   0.063   2.419
  296SOL     OW  907   1.392   1.570   2.346
  296SOL    HW1  908   1.459   1.600   2.278
  296SOL    HW2  909   1.339   1.649   2.378
  297SOL     OW  910   1.280   0.927   2.528
  297SOL    HW1  911   1.353   0.861   2.542
  297SOL    HW2  912   1.314   1.004   2.475
  298SOL     OW  913   0.672   1.615   2.016
  298SOL    HW1  914   0.683   1.631   1.918
  298SOL    HW2  915   0.615   1.533   2.030
  299SOL     OW  916   1.852   0.161   2.812
  299SOL    HW1  917   1.855   0.069   2.772
  299SOL    HW2  918   1.763   0.203   2.792
  300SOL     OW  919   0.270   0.333   2.598
  300SOL    HW1  920   0.177   0.367   2.583
  300SOL    HW2  921   0.279   0.300   2.692
  301SOL     OW  922   1.199   1.600   1.894
  301SOL    HW1  923   1.198   1.508   1.932
  301SOL    HW2  924   1.126   1.609   1.826
  302SOL     OW  925   0.918   0.910   2.150
  302SOL    HW1  926   0.981   0.946   2.081
  302SOL    HW2  927   0.962   0.837   2.201
  303SOL     OW  928   1.495   1.624   1.928
  303SOL    HW1  929   1.395   1.620   1.928
  303SOL    HW2  930   1.528   1.647   1.836
  304SOL     OW  931   1.053   1.103   2.573
  304SOL    HW1  932   0.976   1.053   2.613
  304SOL    HW2  933   1.118   1.039   2.533
  305SOL     OW  934   1.022   0.248   2.809
  305SOL    HW1  935   1.012   0.178   2.738
  305SOL    HW2  936   1.050   0.204   2.895
  306SOL     OW  937   0.603   1.488   2.342
  306SOL    HW1  938   0.646   1.434   2.270
  306SOL    HW2  939   0.530   1.543   2.303
  307SOL     OW  940   0.251   1.347   2.144
  307SOL    HW1  941   0.154   1.341   2.123
  307SOL    HW2  942   0.263   1.387   2.235
  308SOL     OW  943   0.098   0.327   1.911
  308SOL    HW1  944   0.011   0.292   1.876
  308SOL    HW2  945   0.118   0.415   1.868
  309SOL     OW  946   0.016   0.215   2.141
  309SOL    HW1  947   0.060   0.267   2.068
  309SOL    HW2  948   0.072   0.136   2.165
  310SOL     OW  949   1.187   1.348   1.987
  310SOL    HW1  950   1.098   1.305   1.969
  310SOL    HW2  951   1.209   1.339   2.084
  311SOL     OW  952   1.507   1.782   2.832
  311SOL    HW1  953   1.515   1.834   2.747
  311SOL    HW2  954   1.593   1.788   2.883
  312SOL     OW  955   1.713   0.847   0.059
  312SOL    HW1  956   1.636   0.809   0.110
  312SOL    HW2  957   1.695   0.943   0.037
  313SOL     OW  958   1.225   0.316   2.319
  313SOL    HW1  959   1.289   0.239   2.314
  313SOL    HW2  960   1.246   0.372   2.399
  314SOL     OW  961   0.590   0.741   2.526
  314SOL    HW1  962   0.633   0.831   2.515
  314SOL    HW2  963   0.516   0.731   2.460
  315SOL     OW  964   0.859   1.373   1.895
  315SOL    HW1  965   0.820   1.381   1.987
  315SOL    HW2  966   0.875   1.464   1.858
  316SOL     OW  967   0.665   1.795   2.821
  316SOL    HW1  968   0.637   1.886   2.790
  316SOL    HW2  969   0.762   1.782   2.804
  317SOL     OW  970   0.863   0.966   2.717
  317SOL    HW1  971   0.916   0.890   2.754
  317SOL    HW2  972   0.830   1.023   2.792
  318SOL     OW  973   1.082   0.989   1.952
  318SOL    HW1  974   1.051   1.041   1.872
  318SOL    HW2  975   1.160   0.932   1.927
  319SOL     OW  976   1.853   1.558   2.714
  319SOL    HW1  977   1.776   1.545   2.652
  319SOL    HW2  978   1.865   1.475   2.769
  320SOL     OW  979   0.131   1.246   2.518
  320SOL    HW1  980   0.091   1.184   2.586
  320SOL    HW2  981   0.192   1.195   2.458
  321SOL     OW  982   1.807   0.185   0.080
  321SOL    HW1  983   1.835   0.101   0.127
  321SOL    HW2  984   1.828   0.177   2.982
  322SOL     OW  985   0.461   0.432   2.404
  322SOL    HW1  986   0.459   0.365   2.330
  322SOL    HW2  987   0.409   0.397   2.482
  323SOL     OW  988   0.818   1.586   2.539
  323SOL    HW1  989   0.820   1.629   2.449
  323SOL    HW2  990   0.741   1.522   2.544
  324SOL     OW  991   0.774   1.330   2.171
  324SOL    HW1  992   0.737   1.238   2.179
  324SOL    HW2  993   0.859   1.337   2.224
  325SOL     OW  994   1.347   0.046   2.029
  325SOL    HW1  995   1.419   2.983   1.998
  325SOL    HW2  996   1.260   2.997   2.033
  326SOL     OW  997   1.296   0.458   2.549
  326SOL    HW1  998   1.239   0.541   2.553
  326SOL    HW2  999   1.295   0.413   2.638
  327SOL     OW 1000   1.599   0.237   2.749
  327SOL    HW1 1001   1.506   0.225   2.784
  327SOL    HW2 1002   1.602   0.315   2.686
  328SOL     OW 1003   0.065   1.080   2.159
  328SOL    HW1 1004   0.158   1.042   2.161
  328SOL    HW2 1005   0.002   1.015   2.200
  329SOL     OW 1006   0.880   1.654   2.207
  329SOL    HW1 1007   0.808   1.630   2.142
  329SOL    HW2 1008   0.852   1.733   2.261
  330SOL     OW 1009   0.239   2.513   0.099
  330SOL    HW1 1010   0.167   2.470   0.154
  330SOL    HW2 1011   0.254   2.459   0.016
  331SOL     OW 1012   0.211   2.137   0.991
  331SOL    HW1 1013   0.246   2.106   1.080
  331SOL    HW2 1014   0.119   2.100   0.978
  332SOL     OW 1015   0.016   2.250   0.644
  332SOL    HW1 1016   2.928   2.290   0.669
  332SOL    HW2 1017   0.002   2.163   0.598
  333SOL     OW 1018   1.134   2.570   0.700
  333SOL    HW1 1019   1.184   2.656   0.690
  333SOL    HW2 1020   1.079   2.574   0.783
  334SOL     OW 1021   1.759   2.455   0.225
  334SOL    HW1 1022   1.749   2.437   0.128
  334SOL    HW2 1023   1.724   2.377   0.277
  335SOL     OW 1024   0.760   0.012   1.029
  335SOL    HW1 1025   0.673   0.040   1.071
  335SOL    HW2 1026   0.786   0.078   0.959
  336SOL     OW 1027   0.867   2.637   1.822
  336SOL    HW1 1028   0.845   2.699   1.897
  336SOL    HW2 1029   0.892   2.690   1.740
  337SOL     OW 1030   0.652   2.851   0.713
  337SOL    HW1 1031   0.751   2.852   0.728
  337SOL    HW2 1032   0.626   2.930   0.659
  338SOL     OW 1033   0.474   2.271   1.487
  338SOL    HW1 1034   0.549   2.205   1.488
  338SOL    HW2 1035   0.388   2.223   1.503
  339SOL     OW 1036   1.614   2.311   0.740
  339SOL    HW1 1037   1.534   2.333   0.685
  339SOL    HW2 1038   1.636   2.388   0.801
  340SOL     OW 1039   0.211   0.316   0.461
  340SOL    HW1 1040   0.227   0.394   0.522
  340SOL    HW2 1041   0.204   0.232   0.514
  341SOL     OW 1042   0.234   2.941   0.877
  341SOL    HW1 1043   0.259   2.855   0.921
  341SOL    HW2 1044   0.203   0.007   0.946
  342SOL     OW 1045   0.617   2.832   0.151
  342SOL    HW1 1046   0.595   2.927   0.129
  342SOL    HW2 1047   0.685   2.830   0.225
  343SOL     OW 1048   1.585   1.982   1.474
  343SOL    HW1 1049   1.598   2.054   1.406
  343SOL    HW2 1050   1.589   2.021   1.566
  344SOL     OW 1051   0.114   2.499   0.566
  344SOL    HW1 1052   0.092   2.407   0.599
  344SOL    HW2 1053   0.114   2.563   0.643
  345SOL     OW 1054   1.702   2.806   0.626
  345SOL    HW1 1055   1.783   2.748   0.637
  345SOL    HW2 1056   1.685   2.822   0.529
  346SOL     OW 1057   0.129   2.609   1.589
  346SOL    HW1 1058   0.229   2.616   1.591
  346SOL    HW2 1059   0.089   2.698   1.610
  347SOL     OW 1060   0.658   0.244   0.686
  347SOL    HW1 1061   0.594   0.174   0.717
  347SOL    HW2 1062   0.611   0.307   0.624
  348SOL     OW 1063   1.306   0.053   1.442
  348SOL    HW1 1064   1.324   2.988   1.369
  348SOL    HW2 1065   1.390   0.101   1.466
  349SOL     OW 1066   0.813   1.865   0.506
  349SOL    HW1 1067   0.858   1.953   0.490
  349SOL    HW2 1068   0.714   1.879   0.515
  350SOL     OW 1069   0.191   2.835   1.258
  350SOL    HW1 1070   0.279   2.787   1.251
  350SOL    HW2 1071   0.117   2.774   1.230
  351SOL     OW 1072   1.522   2.845   0.208
  351SOL    HW1 1073   1.450   2.796   0.257
  351SOL    HW2 1074   1.597   2.864   0.271
  352SOL     OW 1075   0.338   2.112   1.813
  352SOL    HW1 1076   0.391   2.195   1.827
  352SOL    HW2 1077   0.246   2.123   1.851
  353SOL     OW 1078   0.594   2.583   0.273
  353SOL    HW1 1079   0.597   2.665   0.216
  353SOL    HW2 1080   0.522   2.593   0.343
  354SOL     OW 1081   1.279   2.210   0.933
  354SOL    HW1 1082   1.185   2.177   0.938
  354SOL    HW2 1083   1.336   2.158   0.997
  355SOL     OW 1084   0.792   2.475   1.454
  355SOL    HW1 1085   0.765   2.455   1.548
  355SOL    HW2 1086   0.749   2.409   1.392
  356SOL     OW 1087   1.393   2.334   1.679
  356SOL    HW1 1088   1.391   2.382   1.766
  356SOL    HW2 1089   1.460   2.259   1.683
  357SOL     OW 1090   0.959   2.757   1.590
  357SOL    HW1 1091   1.015   2.683   1.553
  357SOL    HW2 1092   0.902   2.795   1.518
  358SOL     OW 1093   0.993   2.275   1.234
  358SOL    HW1 1094   0.909   2.299   1.282
  358SOL    HW2 1095   0.971   2.221   1.153
  359SOL     OW 1096   1.049   2.566   0.423
  359SOL    HW1 1097   1.067   2.561   0.522
  359SOL    HW2 1098   0.965   2.518   0.402
  360SOL     OW 1099   0.105   2.671   0.769
  360SOL    HW1 1100   0.185   2.674   0.828
  360SOL    HW2 1101   0.042   2.744   0.794
  361SOL     OW 1102   0.926   2.194   0.223
  361SOL    HW1 1103   0.939   2.260   0.149
  361SOL    HW2 1104   0.896   2.107   0.185
  362SOL     OW 1105   1.708   2.437   1.825
  362SOL    HW1 1106   1.670   2.517   1.778
  362SOL    HW2 1107   1.737   2.369   1.758
  363SOL     OW 1108   0.545   2.043   0.895
  363SOL    HW1 1109   0.551   2.070   0.991
  363SOL    HW2 1110   0.550   2.125   0.837
  364SOL     OW 1111   1.795   2.905   0.867
  364SOL    HW1 1112   1.742   2.888   0.784
  364SOL    HW2 1113   1.733   2.915   0.945
  365SOL     OW 1114   1.484   2.601   0.726
  365SOL    HW1 1115   1.462   2.548   0.807
  365SOL    HW2 1116   1.560   2.664   0.747
  366SOL     OW 1117   0.233   2.166   1.508
  366SOL    HW1 1118   0.152   2.215   1.475
  366SOL    HW2 1119   0.204   2.083   1.555
  367SOL     OW 1120   1.403   1.967   0.429
  367SOL    HW1 1121   1.391   1.946   0.332
  367SOL    HW2 1122   1.501   1.979   0.448
  368SOL     OW 1123   0.389   2.551   0.475
  368SOL    HW1 1124   0.414   2.455   0.485
  368SOL    HW2 1125   0.292   2.562   0.496
  369SOL     OW 1126   1.539   2.091   1.730
  369SOL    HW1 1127   1.544   2.111   1.827
  369SOL    HW2 1128   1.470   2.020   1.713
  370SOL     OW 1129   0.627   1.982   0.119
  370SOL    HW1 1130   0.725   1.962   0.121
  370SOL    HW2 1131   0.585   1.933   0.042
  371SOL     OW 1132   0.764   2.139   1.754
  371SOL    HW1 1133   0.844   2.079   1.757
  371SOL    HW2 1134   0.709   2.126   1.836
  372SOL     OW 1135   1.341   2.451   1.435
  372SOL    HW1 1136   1.371   2.414   1.523
  372SOL    HW2 1137   1.378   2.543   1.423
  373SOL     OW 1138   0.927   2.370   0.900
  373SOL    HW1 1139   0.901   2.362   0.803
  373SOL    HW2 1140   0.961   2.282   0.933
  374SOL     OW 1141   0.545   1.924   0.503
  374SOL    HW1 1142   0.462   1.924   0.558
  374SOL    HW2 1143   0.545   2.004   0.443
  375SOL     OW 1144   0.946   2.104   0.474
  375SOL    HW1 1145   0.916   2.143   0.386
  375SOL    HW2 1146   1.045   2.116   0.483
  376SOL     OW 1147   1.078   2.546   1.458
  376SOL    HW1 1148   1.001   2.484   1.466
  376SOL    HW2 1149   1.163   2.493   1.453
  377SOL     OW 1150   1.049   2.357   0.031
  377SOL    HW1 1151   0.999   2.442   0.016
  377SOL    HW2 1152   1.114   2.368   0.106
  378SOL     OW 1153   0.091   2.415   1.401
  378SOL    HW1 1154   0.178   2.419   1.352
  378SOL    HW2 1155   0.087   2.489   1.468
  379SOL     OW 1156   0.561   2.087   1.166
  379SOL    HW1 1157   0.605   2.004   1.200
  379SOL    HW2 1158   0.465   2.087   1.194
  380SOL     OW 1159   0.870   2.322   0.638
  380SOL    HW1 1160   0.817   2.383   0.577
  380SOL    HW2 1161   0.893   2.238   0.589
  381SOL     OW 1162   1.015   1.913   0.751
  381SOL    HW1 1163   0.954   1.913   0.672
  381SOL    HW2 1164   0.993   1.836   0.811
  382SOL     OW 1165   1.429   2.991   0.874
  382SOL    HW1 1166   1.360   2.931   0.834
  382SOL    HW2 1167   1.453   0.063   0.809
  383SOL     OW 1168   1.468   2.463   0.981
  383SOL    HW1 1169   1.413   2.379   0.981
  383SOL    HW2 1170   1.532   2.461   1.058
  384SOL     OW 1171   1.830   2.663   0.389
  384SOL    HW1 1172   1.894   2.616   0.450
  384SOL    HW2 1173   1.812   2.605   0.309
  385SOL     OW 1174   1.411   2.436   0.102
  385SOL    HW1 1175   1.336   2.428   0.168
  385SOL    HW2 1176   1.464   2.351   0.103
  386SOL     OW 1177   0.522   2.126   0.323
  386SOL    HW1 1178   0.561   2.070   0.250
  386SOL    HW2 1179   0.498   2.216   0.287
  387SOL     OW 1180   1.782   0.078   1.589
  387SOL    HW1 1181   1.873   0.042   1.570
  387SOL    HW2 1182   1.790   0.168   1.633
  388SOL     OW 1183   1.626   2.955   1.076
  388SOL    HW1 1184   1.648   0.041   1.122
  388SOL    HW2 1185   1.548   2.970   1.015
  389SOL     OW 1186   0.921   1.960   1.396
  389SOL    HW1 1187   0.940   1.937   1.301
  389SOL    HW2 1188   1.001   2.005   1.436
  390SOL     OW 1189   0.416   2.678   1.254
  390SOL    HW1 1190   0.491   2.688   1.321
  390SOL    HW2 1191   0.378   2.586   1.261
  391SOL     OW 1192   1.266   2.241   1.274
  391SOL    HW1 1193   1.302   2.319   1.324
  391SOL    HW2 1194   1.171   2.260   1.248
  392SOL     OW 1195   0.555   2.403   0.863
  392SOL    HW1 1196   0.570   2.459   0.782
  392SOL    HW2 1197   0.621   2.429   0.933
  393SOL     OW 1198   1.578   2.487   0.475
  393SOL    HW1 1199   1.535   2.540   0.549
  393SOL    HW2 1200   1.639   2.546   0.423
  394SOL     OW 1201   0.412   2.598   1.602
  394SOL    HW1 1202   0.471   2.651   1.541
  394SOL    HW2 1203   0.456   2.511   1.624
  395SOL     OW 1204   1.599   2.640   1.679
  395SOL    HW1 1205   1.506   2.678   1.676
  395SOL    HW2 1206   1.655   2.683   1.609
  396SOL     OW 1207   0.993   1.991   1.759
  396SOL    HW1 1208   1.050   2.066   1.727
  396SOL    HW2 1209   1.032   1.904   1.730
  397SOL     OW 1210   0.497   1.902   1.746
  397SOL    HW1 1211   0.456   1.843   1.676
  397SOL    HW2 1212   0.436   1.980   1.762
  398SOL     OW 1213   0.592   2.727   1.040
  398SOL    HW1 1214   0.599   2.820   1.005
  398SOL    HW2 1215   0.523   2.723   1.112
  399SOL     OW 1216   1.349   2.712   1.032
  399SOL    HW1 1217   1.274   2.710   0.965
  399SOL    HW2 1218   1.398   2.624   1.031
  400SOL     OW 1219   1.202   2.393   0.273
  400SOL    HW1 1220   1.212   2.305   0.319
  400SOL    HW2 1221   1.154   2.457   0.332
  401SOL     OW 1222   0.300   2.065   1.243
  401SOL    HW1 1223   0.281   2.100   1.334
  401SOL    HW2 1224   0.286   1.966   1.242
  402SOL     OW 1225   0.054   0.169   1.269
  402SOL    HW1 1226   0.084   0.131   1.357
  402SOL    HW2 1227   0.004   0.254   1.286
  403SOL     OW 1228   0.731   2.493   1.061
  403SOL    HW1 1229   0.802   2.472   0.994
  403SOL    HW2 1230   0.693   2.584   1.042
  404SOL     OW 1231   1.733   2.819   1.843
  404SOL    HW1 1232   1.687   2.756   1.781
  404SOL    HW2 1233   1.677   2.832   1.925
  405SOL     OW 1234   0.301   1.930   0.625
  405SOL    HW1 1235   0.284   2.026   0.649
  405SOL    HW2 1236   0.312   1.877   0.709
  406SOL     OW 1237   1.622   2.237   0.368
  406SOL    HW1 1238   1.647   2.165   0.433
  406SOL    HW2 1239   1.591   2.318   0.419
  407SOL     OW 1240   1.026   2.614   0.967
  407SOL    HW1 1241   1.027   2.634   1.065
  407SOL    HW2 1242   0.997   2.520   0.952
  408SOL     OW 1243   0.358   2.786   1.794
  408SOL    HW1 1244   0.419   2.786   1.873
  408SOL    HW2 1245   0.382   2.711   1.733
  409SOL     OW 1246   1.503   2.165   0.129
  409SOL    HW1 1247   1.459   2.076   0.139
  409SOL    HW2 1248   1.559   2.184   0.209
  410SOL     OW 1249   1.296   2.682   0.039
  410SOL    HW1 1250   1.337   2.592   0.053
  410SOL    HW2 1251   1.324   2.718   2.950
  411SOL     OW 1252   0.315   2.676   0.950
  411SOL    HW1 1253   0.412   2.688   0.932
  411SOL    HW2 1254   0.299   2.584   0.986
  412SOL     OW 1255   0.335   2.377   1.014
  412SOL    HW1 1256   0.291   2.289   0.995
  412SOL    HW2 1257   0.414   2.389   0.953
  413SOL     OW 1258   1.136   2.240   1.688
  413SOL    HW1 1259   1.084   2.298   1.751
  413SOL    HW2 1260   1.229   2.275   1.679
  414SOL     OW 1261   1.151   2.075   1.474
  414SOL    HW1 1262   1.146   2.140   1.550
  414SOL    HW2 1263   1.199   2.118   1.397
  415SOL     OW 1264   0.980   2.669   1.233
  415SOL    HW1 1265   1.037   2.638   1.309
  415SOL    HW2 1266   0.895   2.616   1.231
  416SOL     OW 1267   0.049   2.441   1.118
  416SOL    HW1 1268   0.124   2.394   1.072
  416SOL    HW2 1269   0.031   2.397   1.207
  417SOL     OW 1270   0.196   2.381   1.722
  417SOL    HW1 1271   0.265   2.343   1.660
  417SOL    HW2 1272   0.157   2.464   1.682
  418SOL     OW 1273   1.377   2.803   1.660
  418SOL    HW1 1274   1.401   2.900   1.665
  418SOL    HW2 1275   1.372   2.775   1.565
  419SOL     OW 1276   0.821   2.440   0.348
  419SOL    HW1 1277   0.824   2.356   0.293
  419SOL    HW2 1278   0.737   2.491   0.327
  420SOL     OW 1279   1.645   2.466   1.189
  420SOL    HW1 1280   1.627   2.403   1.265
  420SOL    HW2 1281   1.735   2.447   1.150
  421SOL     OW 1282   0.699   2.314   1.259
  421SOL    HW1 1283   0.645   2.235   1.232
  421SOL    HW2 1284   0.700   2.381   1.185
  422SOL     OW 1285   0.440   2.359   0.211
  422SOL    HW1 1286   0.518   2.419   0.223
  422SOL    HW2 1287   0.359   2.413   0.186
  423SOL     OW 1288   0.158   0.007   1.469
  423SOL    HW1 1289   0.146   2.956   1.554
  423SOL    HW2 1290   0.174   2.943   1.394
  424SOL     OW 1291   1.345   2.905   1.220
  424SOL    HW1 1292   1.362   2.839   1.146
  424SOL    HW2 1293   1.275   2.970   1.191
  425SOL     OW 1294   1.299   2.722   0.312
  425SOL    HW1 1295   1.224   2.678   0.362
  425SOL    HW2 1296   1.291   2.700   0.215
  426SOL     OW 1297   0.898   1.938   0.127
  426SOL    HW1 1298   0.944   1.920   0.040
  426SOL    HW2 1299   0.950   1.895   0.201
  427SOL     OW 1300   1.712   2.003   0.507
  427SOL    HW1 1301   1.795   2.000   0.453
  427SOL    HW2 1302   1.698   1.915   0.552
  428SOL     OW 1303   1.295   2.794   0.683
  428SOL    HW1 1304   1.366   2.723   0.684
  428SOL    HW2 1305   1.303   2.849   0.601
  429SOL     OW 1306   1.840   2.036   0.964
  429SOL    HW1 1307   1.875   1.945   0.942
  429SOL    HW2 1308   1.748   2.046   0.926
  430SOL     OW 1309   0.267   2.180   0.722
  430SOL    HW1 1310   0.180   2.219   0.691
  430SOL    HW2 1311   0.263   2.165   0.821
  431SOL     OW 1312   0.814   2.860   1.375
  431SOL    HW1 1313   0.872   2.824   1.302
  431SOL    HW2 1314   0.837   2.957   1.391
  432SOL     OW 1315   0.903   2.795   0.285
  432SOL    HW1 1316   0.983   2.820   0.230
  432SOL    HW2 1317   0.932   2.738   0.362
  433SOL     OW 1318   1.019   2.101   0.966
  433SOL    HW1 1319   1.014   2.055   0.877
  433SOL    HW2 1320   1.016   2.033   1.039
  434SOL     OW 1321   1.725   2.256   1.380
  434SOL    HW1 1322   1.797   2.325   1.379
  434SOL    HW2 1323   1.752   2.179   1.321
  435SOL     OW 1324   0.118   2.866   1.696
  435SOL    HW1 1325   0.044   2.847   1.761
  435SOL    HW2 1326   0.206   2.850   1.741
  436SOL     OW 1327   0.678   2.059   1.498
  436SOL    HW1 1328   0.765   2.038   1.452
  436SOL    HW2 1329   0.697   2.087   1.593
  437SOL     OW 1330   0.052   2.170   0.057
  437SOL    HW1 1331   2.962   2.205   0.031
  437SOL    HW2 1332   0.123   2.230   0.020
  438SOL     OW 1333   1.432   2.717   1.402
  438SOL    HW1 1334   1.385   2.778   1.339
  438SOL    HW2 1335   1.530   2.715   1.380
  439SOL     OW 1336   0.062   2.061   0.320
  439SOL    HW1 1337   0.047   2.102   0.230
  439SOL    HW2 1338   0.129   1.987   0.312
  440SOL     OW 1339   1.138   0.212   0.093
  440SOL    HW1 1340   1.064   0.256   0.143
  440SOL    HW2 1341   1.222   0.217   0.146
  441SOL     OW 1342   0.615   2.690   1.435
  441SOL    HW1 1343   0.674   2.769   1.417
  441SOL    HW2 1344   0.672   2.608   1.445
  442SOL     OW 1345   0.719   2.426   1.707
  442SOL    HW1 1346   0.759   2.495   1.767
  442SOL    HW2 1347   0.750   2.336   1.735
  443SOL     OW 1348   1.677   2.744   1.254
  443SOL    HW1 1349   1.667   2.651   1.217
  443SOL    HW2 1350   1.657   2.810   1.182
  444SOL     OW 1351   1.223   2.179   0.462
  444SOL    HW1 1352   1.288   2.104   0.448
  444SOL    HW2 1353   1.251   2.233   0.541
  445SOL     OW 1354   0.590   2.589   0.663
  445SOL    HW1 1355   0.617   2.684   0.676
  445SOL    HW2 1356   0.517   2.583   0.595
  446SOL     OW 1357   1.760   2.226   1.649
  446SOL    HW1 1358   1.747   2.239   1.551
  446SOL    HW2 1359   1.687   2.167   1.684
  447SOL     OW 1360   1.737   2.796   1.513
  447SOL    HW1 1361   1.751   2.892   1.538
  447SOL    HW2 1362   1.728   2.788   1.414
  448SOL     OW 1363   0.891   2.830   0.865
  448SOL    HW1 1364   0.930   2.745   0.900
  448SOL    HW2 1365   0.827   2.868   0.931
  449SOL     OW 1366   1.111   2.886   0.085
  449SOL    HW1 1367   1.057   2.892   0.001
  449SOL    HW2 1368   1.177   2.811   0.077
  450SOL     OW 1369   1.808   2.047   1.236
  450SOL    HW1 1370   1.804   1.950   1.261
  450SOL    HW2 1371   1.822   2.055   1.137
  451SOL     OW 1372   0.432   2.292   0.529
  451SOL    HW1 1373   0.465   2.221   0.467
  451SOL    HW2 1374   0.381   2.250   0.604
  452SOL     OW 1375   0.336   2.417   1.287
  452SOL    HW1 1376   0.399   2.364   1.345
  452SOL    HW2 1377   0.349   2.390   1.192
  453SOL     OW 1378   1.432   2.087   1.118
  453SOL    HW1 1379   1.470   2.005   1.161
  453SOL    HW2 1380   1.377   2.138   1.184
  454SOL     OW 1381   1.007   1.881   1.144
  454SOL    HW1 1382   0.944   1.815   1.102
  454SOL    HW2 1383   1.100   1.847   1.138
  455SOL     OW 1384   1.352   1.914   0.162
  455SOL    HW1 1385   1.386   1.863   0.083
  455SOL    HW2 1386   1.263   1.877   0.190
  456SOL     OW 1387   1.297   2.326   0.685
  456SOL    HW1 1388   1.240   2.407   0.689
  456SOL    HW2 1389   1.294   2.279   0.774
  457SOL     OW 1390   1.587   2.069   0.878
  457SOL    HW1 1391   1.523   2.083   0.954
  457SOL    HW2 1392   1.588   2.151   0.821
  458SOL     OW 1393   2.999   2.883   0.283
  458SOL    HW1 1394   0.086   2.917   0.249
  458SOL    HW2 1395   0.010   2.849   0.376
  459SOL     OW 1396   0.232   2.500   1.972
  459SOL    HW1 1397   0.162   2.457   2.030
  459SOL    HW2 1398   0.224   2.465   1.879
  460SOL     OW 1399   0.234   2.125   2.839
  460SOL    HW1 1400   0.273   2.099   2.927
  460SOL    HW2 1401   0.143   2.087   2.830
  461SOL     OW 1402   0.016   2.249   2.503
  461SOL    HW1 1403   2.929   2.288   2.532
  461SOL    HW2 1404   0.001   2.158   2.465
  462SOL     OW 1405   1.136   2.570   2.563
  462SOL    HW1 1406   1.187   2.655   2.550
  462SOL    HW2 1407   1.082   2.576   2.646
  463SOL     OW 1408   1.760   2.466   2.088
  463SOL    HW1 1409   1.743   2.458   1.990
  463SOL    HW2 1410   1.728   2.382   2.134
  464SOL     OW 1411   0.784   0.012   2.876
  464SOL    HW1 1412   0.695   0.021   2.922
  464SOL    HW2 1413   0.800   0.092   2.819
  465SOL     OW 1414   0.651   2.847   2.572
  465SOL    HW1 1415   0.748   2.847   2.596
  465SOL    HW2 1416   0.630   2.931   2.522
  466SOL     OW 1417   1.618   2.312   2.595
  466SOL    HW1 1418   1.539   2.332   2.539
  466SOL    HW2 1419   1.623   2.377   2.671
  467SOL     OW 1420   0.208   0.314   2.323
  467SOL    HW1 1421   0.232   0.391   2.382
  467SOL    HW2 1422   0.207   0.230   2.378
  468SOL     OW 1423   0.235   2.943   2.743
  468SOL    HW1 1424   0.259   2.853   2.779
  468SOL    HW2 1425   0.212   0.004   2.819
  469SOL     OW 1426   0.607   2.823   1.994
  469SOL    HW1 1427   0.594   2.908   1.943
  469SOL    HW2 1428   0.671   2.839   2.069
  470SOL     OW 1429   0.116   2.498   2.427
  470SOL    HW1 1430   0.093   2.407   2.461
  470SOL    HW2 1431   0.118   2.563   2.502
  471SOL     OW 1432   1.701   2.805   2.487
  471SOL    HW1 1433   1.783   2.749   2.501
  471SOL    HW2 1434   1.687   2.819   2.390
  472SOL     OW 1435   0.623   0.244   2.574
  472SOL    HW1 1436   0.592   0.154   2.541
  472SOL    HW2 1437   0.615   0.311   2.500
  473SOL     OW 1438   0.813   1.865   2.366
  473SOL    HW1 1439   0.858   1.952   2.348
  473SOL    HW2 1440   0.715   1.880   2.378
  474SOL     OW 1441   0.216   2.804   0.104
  474SOL    HW1 1442   0.279   2.727   0.099
  474SOL    HW2 1443   0.122   2.771   0.093
  475SOL     OW 1444   1.539   2.844   2.049
  475SOL    HW1 1445   1.467   2.787   2.089
  475SOL    HW2 1446   1.602   2.874   2.120
  476SOL     OW 1447   0.597   2.580   2.130
  476SOL    HW1 1448   0.602   2.660   2.071
  476SOL    HW2 1449   0.528   2.595   2.201
  477SOL     OW 1450   1.298   2.199   2.809
  477SOL    HW1 1451   1.201   2.179   2.798
  477SOL    HW2 1452   1.328   2.171   2.901
  478SOL     OW 1453   1.051   2.561   2.289
  478SOL    HW1 1454   1.067   2.559   2.388
  478SOL    HW2 1455   0.965   2.514   2.268
  479SOL     OW 1456   0.109   2.673   2.626
  479SOL    HW1 1457   0.189   2.673   2.686
  479SOL    HW2 1458   0.040   2.736   2.661
  480SOL     OW 1459   0.888   2.211   2.056
  480SOL    HW1 1460   0.931   2.277   1.995
  480SOL    HW2 1461   0.903   2.118   2.021
  481SOL     OW 1462   0.549   2.045   2.768
  481SOL    HW1 1463   0.515   2.078   2.856
  481SOL    HW2 1464   0.560   2.122   2.705
  482SOL     OW 1465   1.796   2.907   2.728
  482SOL    HW1 1466   1.740   2.887   2.648
  482SOL    HW2 1467   1.737   2.914   2.809
  483SOL     OW 1468   1.484   2.604   2.584
  483SOL    HW1 1469   1.468   2.546   2.663
  483SOL    HW2 1470   1.563   2.663   2.601
  484SOL     OW 1471   1.403   1.968   2.292
  484SOL    HW1 1472   1.389   1.943   2.196
  484SOL    HW2 1473   1.500   1.979   2.310
  485SOL     OW 1474   0.396   2.551   2.335
  485SOL    HW1 1475   0.414   2.453   2.350
  485SOL    HW2 1476   0.300   2.570   2.353
  486SOL     OW 1477   0.629   1.985   1.967
  486SOL    HW1 1478   0.708   1.926   1.985
  486SOL    HW2 1479   0.580   1.951   1.887
  487SOL     OW 1480   0.922   2.379   2.756
  487SOL    HW1 1481   0.900   2.358   2.660
  487SOL    HW2 1482   0.961   2.298   2.799
  488SOL     OW 1483   0.546   1.926   2.364
  488SOL    HW1 1484   0.462   1.924   2.419
  488SOL    HW2 1485   0.546   2.006   2.305
  489SOL     OW 1486   0.291   1.904   2.042
  489SOL    HW1 1487   0.346   1.981   2.008
  489SOL    HW2 1488   0.351   1.838   2.087
  490SOL     OW 1489   0.940   2.106   2.323
  490SOL    HW1 1490   0.904   2.152   2.242
  490SOL    HW2 1491   1.039   2.120   2.329
  491SOL     OW 1492   1.023   2.406   1.884
  491SOL    HW1 1493   0.977   2.491   1.861
  491SOL    HW2 1494   1.091   2.424   1.956
  492SOL     OW 1495   0.868   2.318   2.498
  492SOL    HW1 1496   0.819   2.381   2.438
  492SOL    HW2 1497   0.891   2.235   2.448
  493SOL     OW 1498   1.013   1.909   2.611
  493SOL    HW1 1499   0.953   1.910   2.531
  493SOL    HW2 1500   0.991   1.829   2.667
  494SOL     OW 1501   1.424   2.997   2.736
  494SOL    HW1 1502   1.353   2.937   2.699
  494SOL    HW2 1503   1.455   0.060   2.665
  495SOL     OW 1504   1.485   2.447   2.817
  495SOL    HW1 1505   1.417   2.374   2.823
  495SOL    HW2 1506   1.511   2.476   2.909
  496SOL     OW 1507   1.837   2.664   2.251
  496SOL    HW1 1508   1.898   2.616   2.313
  496SOL    HW2 1509   1.812   2.603   2.175
  497SOL     OW 1510   1.391   2.435   1.934
  497SOL    HW1 1511   1.330   2.413   2.010
  497SOL    HW2 1512   1.484   2.406   1.957
  498SOL     OW 1513   0.530   2.126   2.179
  498SOL    HW1 1514   0.569   2.070   2.106
  498SOL    HW2 1515   0.507   2.217   2.143
  499SOL     OW 1516   1.626   2.966   2.935
  499SOL    HW1 1517   1.638   0.047   2.993
  499SOL    HW2 1518   1.548   2.981   2.874
  500SOL     OW 1519   0.552   2.400   2.726
  500SOL    HW1 1520   0.566   2.457   2.645
  500SOL    HW2 1521   0.616   2.427   2.798
  501SOL     OW 1522   1.576   2.486   2.334
  501SOL    HW1 1523   1.535   2.539   2.408
  501SOL    HW2 1524   1.637   2.545   2.280
  502SOL     OW 1525   0.578   2.726   2.884
  502SOL    HW1 1526   0.616   2.807   2.839
  502SOL    HW2 1527   0.563   2.746   2.981
  503SOL     OW 1528   1.204   2.391   2.132
  503SOL    HW1 1529   1.216   2.307   2.186
  503SOL    HW2 1530   1.157   2.460   2.187
  504SOL     OW 1531   0.328   2.060   0.078
  504SOL    HW1 1532   0.320   2.109   0.165
  504SOL    HW2 1533   0.304   1.964   0.092
  505SOL     OW 1534   0.729   2.500   2.912
  505SOL    HW1 1535   0.799   2.475   2.846
  505SOL    HW2 1536   0.689   2.588   2.886
  506SOL     OW 1537   0.302   1.930   2.485
  506SOL    HW1 1538   0.284   2.026   2.509
  506SOL    HW2 1539   0.310   1.876   2.569
  507SOL     OW 1540   1.618   2.236   2.230
  507SOL    HW1 1541   1.646   2.167   2.296
  507SOL    HW2 1542   1.591   2.319   2.279
  508SOL     OW 1543   1.023   2.616   2.821
  508SOL    HW1 1544   1.025   2.628   2.920
  508SOL    HW2 1545   0.992   2.524   2.798
  509SOL     OW 1546   1.529   2.132   1.993
  509SOL    HW1 1547   1.459   2.065   2.017
  509SOL    HW2 1548   1.566   2.174   2.077
  510SOL     OW 1549   1.293   2.687   1.895
  510SOL    HW1 1550   1.333   2.596   1.903
  510SOL    HW2 1551   1.322   2.729   1.809
  511SOL     OW 1552   0.314   2.673   2.807
  511SOL    HW1 1553   0.412   2.693   2.810
  511SOL    HW2 1554   0.298   2.581   2.843
  512SOL     OW 1555   0.320   2.385   2.867
  512SOL    HW1 1556   0.285   2.292   2.853
  512SOL    HW2 1557   0.404   2.397   2.814
  513SOL     OW 1558   0.981   2.615   0.086
  513SOL    HW1 1559   1.032   2.605   0.172
  513SOL    HW2 1560   0.885   2.635   0.106
  514SOL     OW 1561   0.818   2.433   2.216
  514SOL    HW1 1562   0.823   2.353   2.156
  514SOL    HW2 1563   0.740   2.489   2.189
  515SOL     OW 1564   0.702   2.313   0.100
  515SOL    HW1 1565   0.615   2.263   0.091
  515SOL    HW2 1566   0.705   2.386   0.033
  516SOL     OW 1567   0.463   2.358   2.050
  516SOL    HW1 1568   0.530   2.428   2.073
  516SOL    HW2 1569   0.373   2.400   2.039
  517SOL     OW 1570   1.303   2.725   2.168
  517SOL    HW1 1571   1.228   2.686   2.221
  517SOL    HW2 1572   1.289   2.705   2.071
  518SOL     OW 1573   1.716   2.003   2.368
  518SOL    HW1 1574   1.795   1.996   2.307
  518SOL    HW2 1575   1.701   1.916   2.414
  519SOL     OW 1576   1.295   2.796   2.544
  519SOL    HW1 1577   1.365   2.725   2.547
  519SOL    HW2 1578   1.305   2.848   2.459
  520SOL     OW 1579   1.841   2.040   2.819
  520SOL    HW1 1580   1.876   1.949   2.797
  520SOL    HW2 1581   1.747   2.049   2.786
  521SOL     OW 1582   0.269   2.181   2.577
  521SOL    HW1 1583   0.181   2.221   2.550
  521SOL    HW2 1584   0.270   2.165   2.675
  522SOL     OW 1585   0.906   2.759   2.110
  522SOL    HW1 1586   0.983   2.811   2.073
  522SOL    HW2 1587   0.936   2.708   2.191
  523SOL     OW 1588   1.038   2.109   2.802
  523SOL    HW1 1589   1.023   2.047   2.724
  523SOL    HW2 1590   1.010   2.063   2.886
  524SOL     OW 1591   0.093   2.180   1.918
  524SOL    HW1 1592   0.008   2.144   1.880
  524SOL    HW2 1593   0.111   2.271   1.880
  525SOL     OW 1594   0.065   2.060   2.176
  525SOL    HW1 1595   0.068   2.112   2.090
  525SOL    HW2 1596   0.134   1.988   2.173
  526SOL     OW 1597   1.126   0.239   2.005
  526SOL    HW1 1598   1.102   0.161   1.948
  526SOL    HW2 1599   1.214   0.222   2.050
  527SOL     OW 1600   1.728   2.710   0.051
  527SOL    HW1 1601   1.658   2.662   0.104
  527SOL    HW2 1602   1.698   2.804   0.034
  528SOL     OW 1603   1.221   2.179   2.321
  528SOL    HW1 1604   1.286   2.104   2.309
  528SOL    HW2 1605   1.246   2.233   2.401
  529SOL     OW 1606   0.593   2.585   2.525
  529SOL    HW1 1607   0.619   2.681   2.539
  529SOL    HW2 1608   0.520   2.580   2.457
  530SOL     OW 1609   0.886   2.824   2.717
  530SOL    HW1 1610   0.931   2.744   2.758
  530SOL    HW2 1611   0.846   2.880   2.790
  531SOL     OW 1612   1.105   2.876   1.953
  531SOL    HW1 1613   1.057   2.907   1.871
  531SOL    HW2 1614   1.164   2.799   1.930
  532SOL     OW 1615   1.825   2.051   0.093
  532SOL    HW1 1616   1.792   1.958   0.108
  532SOL    HW2 1617   1.832   2.069   2.995
  533SOL     OW 1618   0.428   2.290   2.383
  533SOL    HW1 1619   0.463   2.217   2.325
  533SOL    HW2 1620   0.380   2.251   2.461
  534SOL     OW 1621   1.349   1.916   2.028
  534SOL    HW1 1622   1.386   1.858   1.954
  534SOL    HW2 1623   1.259   1.881   2.056
  535SOL     OW 1624   1.295   2.321   2.549
  535SOL    HW1 1625   1.240   2.404   2.554
  535SOL    HW2 1626   1.296   2.276   2.639
  536SOL     OW 1627   1.585   2.076   2.736
  536SOL    HW1 1628   1.498   2.088   2.785
  536SOL    HW2 1629   1.599   2.154   2.675
  537SOL     OW 1630   0.018   2.932   2.156
  537SOL    HW1 1631   0.117   2.922   2.140
  537SOL    HW2 1632   2.991   2.875   2.234
  538SOL     OW 1633   2.092   0.632   0.121
  538SOL    HW1 1634   1.994   0.628   0.140
  538SOL    HW2 1635   2.109   0.601   0.027
  539SOL     OW 1636   2.077   0.286   1.009
  539SOL    HW1 1637   2.112   0.251   1.095
  539SOL    HW2 1638   1.989   0.243   0.989
  540SOL     OW 1639   1.864   0.384   0.640
  540SOL    HW1 1640   1.780   0.413   0.685
  540SOL    HW2 1641   1.846   0.306   0.581
  541SOL     OW 1642   2.427   1.284   1.174
  541SOL    HW1 1643   2.335   1.285   1.134
  541SOL    HW2 1644   2.447   1.374   1.213
  542SOL     OW 1645   2.614   1.145   1.033
  542SOL    HW1 1646   2.544   1.177   1.097
  542SOL    HW2 1647   2.659   1.223   0.991
  543SOL     OW 1648   2.720   0.777   1.815
  543SOL    HW1 1649   2.714   0.845   1.888
  543SOL    HW2 1650   2.746   0.822   1.729
  544SOL     OW 1651   2.545   1.005   0.653
  544SOL    HW1 1652   2.612   0.988   0.725
  544SOL    HW2 1653   2.469   1.059   0.690
  545SOL     OW 1654   2.569   1.156   1.813
  545SOL    HW1 1655   2.621   1.237   1.840
  545SOL    HW2 1656   2.481   1.185   1.773
  546SOL     OW 1657   2.194   1.424   1.066
  546SOL    HW1 1658   2.114   1.394   1.015
  546SOL    HW2 1659   2.251   1.482   1.007
  547SOL     OW 1660   2.313   0.401   1.487
  547SOL    HW1 1661   2.393   0.340   1.491
  547SOL    HW2 1662   2.230   0.347   1.502
  548SOL     OW 1663   2.085   1.714   0.475
  548SOL    HW1 1664   2.102   1.793   0.533
  548SOL    HW2 1665   2.162   1.701   0.412
  549SOL     OW 1666   2.979   1.347   1.693
  549SOL    HW1 1667   0.045   1.348   1.768
  549SOL    HW2 1668   2.932   1.258   1.692
  550SOL     OW 1669   2.084   1.443   0.535
  550SOL    HW1 1670   2.076   1.542   0.540
  550SOL    HW2 1671   2.024   1.401   0.604
  551SOL     OW 1672   2.118   1.088   0.892
  551SOL    HW1 1673   2.119   0.997   0.934
  551SOL    HW2 1674   2.061   1.150   0.946
  552SOL     OW 1675   2.475   1.791   1.435
  552SOL    HW1 1676   2.388   1.769   1.477
  552SOL    HW2 1677   2.499   1.886   1.455
  553SOL     OW 1678   2.452   0.977   0.150
  553SOL    HW1 1679   2.472   1.048   0.083
  553SOL    HW2 1680   2.490   1.003   0.239
  554SOL     OW 1681   1.977   0.648   0.564
  554SOL    HW1 1682   1.933   0.561   0.584
  554SOL    HW2 1683   1.972   0.707   0.645
  555SOL     OW 1684   1.871   1.587   0.123
  555SOL    HW1 1685   1.888   1.492   0.149
  555SOL    HW2 1686   1.877   1.645   0.205
  556SOL     OW 1687   1.986   0.743   1.586
  556SOL    HW1 1688   2.084   0.758   1.595
  556SOL    HW2 1689   1.938   0.830   1.600
  557SOL     OW 1690   2.471   1.385   0.734
  557SOL    HW1 1691   2.425   1.297   0.747
  557SOL    HW2 1692   2.458   1.416   0.640
  558SOL     OW 1693   2.681   0.018   0.518
  558SOL    HW1 1694   2.715   0.110   0.497
  558SOL    HW2 1695   2.582   0.015   0.501
  559SOL     OW 1696   2.054   0.962   1.264
  559SOL    HW1 1697   2.144   0.919   1.252
  559SOL    HW2 1698   1.983   0.904   1.224
  560SOL     OW 1699   2.187   0.254   1.804
  560SOL    HW1 1700   2.244   0.333   1.825
  560SOL    HW2 1701   2.096   0.267   1.844
  561SOL     OW 1702   2.453   0.721   0.269
  561SOL    HW1 1703   2.461   0.806   0.217
  561SOL    HW2 1704   2.385   0.733   0.342
  562SOL     OW 1705   2.649   0.625   1.454
  562SOL    HW1 1706   2.625   0.599   1.547
  562SOL    HW2 1707   2.611   0.557   1.390
  563SOL     OW 1708   2.830   0.881   1.573
  563SOL    HW1 1709   2.858   0.789   1.543
  563SOL    HW2 1710   2.779   0.926   1.499
  564SOL     OW 1711   2.848   0.373   1.260
  564SOL    HW1 1712   2.771   0.428   1.294
  564SOL    HW2 1713   2.846   0.372   1.160
  565SOL     OW 1714   2.892   0.714   0.407
  565SOL    HW1 1715   2.938   0.700   0.495
  565SOL    HW2 1716   2.812   0.654   0.401
  566SOL     OW 1717   1.953   0.823   0.775
  566SOL    HW1 1718   2.039   0.811   0.825
  566SOL    HW2 1719   1.905   0.903   0.810
  567SOL     OW 1720   1.990   1.848   1.578
  567SOL    HW1 1721   1.989   1.824   1.675
  567SOL    HW2 1722   1.898   1.837   1.540
  568SOL     OW 1723   2.777   0.343   0.220
  568SOL    HW1 1724   2.769   0.402   0.139
  568SOL    HW2 1725   2.772   0.247   0.192
  569SOL     OW 1726   2.379   0.201   0.913
  569SOL    HW1 1727   2.398   0.213   1.011
  569SOL    HW2 1728   2.407   0.283   0.864
  570SOL     OW 1729   2.853   1.441   0.465
  570SOL    HW1 1730   2.822   1.523   0.418
  570SOL    HW2 1731   2.862   1.460   0.563
  571SOL     OW 1732   2.218   1.807   0.857
  571SOL    HW1 1733   2.261   1.718   0.870
  571SOL    HW2 1734   2.283   1.879   0.879
  572SOL     OW 1735   2.181   0.951   0.243
  572SOL    HW1 1736   2.271   0.970   0.202
  572SOL    HW2 1737   2.148   0.863   0.211
  573SOL     OW 1738   2.325   1.259   1.732
  573SOL    HW1 1739   2.298   1.266   1.636
  573SOL    HW2 1740   2.244   1.262   1.790
  574SOL     OW 1741   2.064   0.294   1.498
  574SOL    HW1 1742   1.979   0.347   1.494
  574SOL    HW2 1743   2.054   0.219   1.563
  575SOL     OW 1744   2.328   1.723   0.332
  575SOL    HW1 1745   2.360   1.796   0.392
  575SOL    HW2 1746   2.398   1.705   0.262
  576SOL     OW 1747   2.137   1.800   1.227
  576SOL    HW1 1748   2.175   1.730   1.287
  576SOL    HW2 1749   2.087   1.757   1.153
  577SOL     OW 1750   2.799   1.696   0.899
  577SOL    HW1 1751   2.863   1.629   0.937
  577SOL    HW2 1752   2.750   1.655   0.822
  578SOL     OW 1753   2.256   0.686   0.477
  578SOL    HW1 1754   2.290   0.594   0.495
  578SOL    HW2 1755   2.159   0.690   0.498
  579SOL     OW 1756   2.478   0.105   0.101
  579SOL    HW1 1757   2.576   0.114   0.119
  579SOL    HW2 1758   2.457   0.147   0.012
  580SOL     OW 1759   2.632   0.277   1.755
  580SOL    HW1 1760   2.706   0.211   1.763
  580SOL    HW2 1761   2.574   0.273   1.837
  581SOL     OW 1762   2.740   1.514   1.191
  581SOL    HW1 1763   2.716   1.480   1.100
  581SOL    HW2 1764   2.806   1.451   1.233
  582SOL     OW 1765   2.671   1.401   0.937
  582SOL    HW1 1766   2.759   1.388   0.893
  582SOL    HW2 1767   2.598   1.397   0.868
  583SOL     OW 1768   2.784   0.504   0.904
  583SOL    HW1 1769   2.754   0.496   0.809
  583SOL    HW2 1770   2.828   0.419   0.932
  584SOL     OW 1771   2.400   0.047   0.496
  584SOL    HW1 1772   2.312   0.036   0.542
  584SOL    HW2 1773   2.398   0.130   0.440
  585SOL     OW 1774   0.321   1.151   0.045
  585SOL    HW1 1775   0.311   1.088   0.123
  585SOL    HW2 1776   0.254   1.224   0.054
  586SOL     OW 1777   2.159   0.089   0.188
  586SOL    HW1 1778   2.242   0.142   0.205
  586SOL    HW2 1779   2.179   2.992   0.200
  587SOL     OW 1780   2.827   0.246   0.466
  587SOL    HW1 1781   2.780   0.300   0.396
  587SOL    HW2 1782   2.908   0.203   0.426
  588SOL     OW 1783   0.081   1.577   0.798
  588SOL    HW1 1784   0.104   1.619   0.710
  588SOL    HW2 1785   0.165   1.549   0.845
  589SOL     OW 1786   2.327   1.147   0.733
  589SOL    HW1 1787   2.257   1.128   0.801
  589SOL    HW2 1788   2.289   1.134   0.641
  590SOL     OW 1789   2.887   0.507   0.027
  590SOL    HW1 1790   2.840   0.593   0.007
  590SOL    HW2 1791   2.944   0.518   0.108
  591SOL     OW 1792   1.941   0.558   1.390
  591SOL    HW1 1793   2.035   0.551   1.359
  591SOL    HW2 1794   1.934   0.630   1.459
  592SOL     OW 1795   2.427   0.214   1.183
  592SOL    HW1 1796   2.472   0.167   1.259
  592SOL    HW2 1797   2.330   0.224   1.203
  593SOL     OW 1798   2.743   0.469   0.636
  593SOL    HW1 1799   2.676   0.525   0.587
  593SOL    HW2 1800   2.739   0.375   0.601
  594SOL     OW 1801   2.858   0.058   0.759
  594SOL    HW1 1802   2.818   0.066   0.667
  594SOL    HW2 1803   2.835   2.969   0.798
  595SOL     OW 1804   2.350   1.401   0.151
  595SOL    HW1 1805   2.284   1.371   0.220
  595SOL    HW2 1806   2.304   1.411   0.063
  596SOL     OW 1807   2.392   0.260   0.320
  596SOL    HW1 1808   2.438   0.208   0.249
  596SOL    HW2 1809   2.362   0.348   0.282
  597SOL     OW 1810   2.776   0.114   1.399
  597SOL    HW1 1811   2.805   0.097   1.305
  597SOL    HW2 1812   2.838   0.181   1.441
  598SOL     OW 1813   2.837   1.108   1.728
  598SOL    HW1 1814   2.742   1.134   1.743
  598SOL    HW2 1815   2.842   1.037   1.657
  599SOL     OW 1816   2.567   1.060   0.380
  599SOL    HW1 1817   2.547   1.048   0.477
  599SOL    HW2 1818   2.655   1.019   0.358
  600SOL     OW 1819   2.281   0.811   1.252
  600SOL    HW1 1820   2.354   0.827   1.319
  600SOL    HW2 1821   2.242   0.720   1.266
  601SOL     OW 1822   1.947   1.577   1.265
  601SOL    HW1 1823   1.884   1.641   1.309
  601SOL    HW2 1824   2.028   1.565   1.323
  602SOL     OW 1825   2.216   1.111   0.487
  602SOL    HW1 1826   2.213   1.191   0.428
  602SOL    HW2 1827   2.212   1.028   0.430
  603SOL     OW 1828   2.417   0.547   0.864
  603SOL    HW1 1829   2.433   0.603   0.783
  603SOL    HW2 1830   2.484   0.570   0.934
  604SOL     OW 1831   2.218   1.520   1.319
  604SOL    HW1 1832   2.195   1.480   1.230
  604SOL    HW2 1833   2.316   1.537   1.324
  605SOL     OW 1834   2.274   0.744   1.600
  605SOL    HW1 1835   2.336   0.795   1.541
  605SOL    HW2 1836   2.314   0.654   1.620
  606SOL     OW 1837   2.867   0.120   1.758
  606SOL    HW1 1838   2.902   0.201   1.711
  606SOL    HW2 1839   2.902   0.038   1.713
  607SOL     OW 1840   2.364   0.056   1.749
  607SOL    HW1 1841   2.333   2.982   1.689
  607SOL    HW2 1842   2.291   0.123   1.760
  608SOL     OW 1843   2.442   0.873   1.032
  608SOL    HW1 1844   2.480   0.965   1.027
  608SOL    HW2 1845   2.384   0.864   1.113
  609SOL     OW 1846   0.063   0.532   0.269
  609SOL    HW1 1847   0.088   0.445   0.312
  609SOL    HW2 1848   0.027   0.594   0.339
  610SOL     OW 1849   2.159   0.197   1.251
  610SOL    HW1 1850   2.129   0.241   1.335
  610SOL    HW2 1851   2.141   0.099   1.256
  611SOL     OW 1852   1.935   1.299   1.252
  611SOL    HW1 1853   1.957   1.247   1.335
  611SOL    HW2 1854   1.942   1.397   1.272
  612SOL     OW 1855   2.590   0.634   1.059
  612SOL    HW1 1856   2.669   0.613   1.002
  612SOL    HW2 1857   2.557   0.726   1.038
  613SOL     OW 1858   2.169   0.063   0.644
  613SOL    HW1 1859   2.173   0.160   0.669
  613SOL    HW2 1860   2.151   0.008   0.725
  614SOL     OW 1861   2.866   0.769   0.970
  614SOL    HW1 1862   2.893   0.779   1.066
  614SOL    HW2 1863   2.870   0.672   0.945
  615SOL     OW 1864   2.829   1.567   1.700
  615SOL    HW1 1865   2.824   1.612   1.611
  615SOL    HW2 1866   2.889   1.487   1.694
  616SOL     OW 1867   2.215   0.915   1.806
  616SOL    HW1 1868   2.298   0.940   1.857
  616SOL    HW2 1869   2.239   0.851   1.733
  617SOL     OW 1870   2.908   1.343   0.834
  617SOL    HW1 1871   2.909   1.260   0.778
  617SOL    HW2 1872   2.980   1.405   0.804
  618SOL     OW 1873   2.174   0.807   0.945
  618SOL    HW1 1874   2.270   0.836   0.942
  618SOL    HW2 1875   2.168   0.714   0.981
  619SOL     OW 1876   2.196   0.525   1.014
  619SOL    HW1 1877   2.155   0.435   1.001
  619SOL    HW2 1878   2.275   0.534   0.953
  620SOL     OW 1879   2.962   0.367   1.667
  620SOL    HW1 1880   2.902   0.432   1.715
  620SOL    HW2 1881   0.055   0.402   1.665
  621SOL     OW 1882   1.873   1.314   0.179
  621SOL    HW1 1883   1.778   1.334   0.153
  621SOL    HW2 1884   1.876   1.227   0.229
  622SOL     OW 1885   1.955   1.792   0.937
  622SOL    HW1 1886   1.917   1.708   0.898
  622SOL    HW2 1887   2.050   1.803   0.907
  623SOL     OW 1888   2.361   1.575   0.906
  623SOL    HW1 1889   2.430   1.642   0.933
  623SOL    HW2 1890   2.402   1.506   0.847
  624SOL     OW 1891   2.862   0.794   1.248
  624SOL    HW1 1892   2.916   0.732   1.305
  624SOL    HW2 1893   2.768   0.760   1.241
  625SOL     OW 1894   1.898   0.543   1.118
  625SOL    HW1 1895   1.980   0.526   1.063
  625SOL    HW2 1896   1.923   0.553   1.214
  626SOL     OW 1897   2.050   0.520   1.726
  626SOL    HW1 1898   2.110   0.474   1.660
  626SOL    HW2 1899   2.005   0.598   1.682
  627SOL     OW 1900   2.673   0.573   0.349
  627SOL    HW1 1901   2.683   0.489   0.296
  627SOL    HW2 1902   2.589   0.620   0.323
  628SOL     OW 1903   2.127   1.555   1.735
  628SOL    HW1 1904   2.084   1.624   1.793
  628SOL    HW2 1905   2.111   1.464   1.774
  629SOL     OW 1906   2.557   0.460   1.262
  629SOL    HW1 1907   2.509   0.377   1.233
  629SOL    HW2 1908   2.560   0.524   1.185
  630SOL     OW 1909   2.802   1.690   1.458
  630SOL    HW1 1910   2.769   1.633   1.383
  630SOL    HW2 1911   2.773   1.785   1.443
  631SOL     OW 1912   2.316   0.494   0.202
  631SOL    HW1 1913   2.378   0.569   0.224
  631SOL    HW2 1914   2.225   0.531   0.184
  632SOL     OW 1915   2.008   1.131   1.466
  632SOL    HW1 1916   2.010   1.086   1.555
  632SOL    HW2 1917   2.032   1.065   1.394
  633SOL     OW 1918   1.936   1.275   0.991
  633SOL    HW1 1919   1.941   1.277   1.091
  633SOL    HW2 1920   1.874   1.202   0.962
  634SOL     OW 1921   2.539   1.667   1.731
  634SOL    HW1 1922   2.481   1.748   1.723
  634SOL    HW2 1923   2.609   1.669   1.661
  635SOL     OW 1924   2.762   0.085   0.144
  635SOL    HW1 1925   2.792   0.037   0.061
  635SOL    HW2 1926   2.809   0.048   0.223
  636SOL     OW 1927   1.998   1.789   1.845
  636SOL    HW1 1928   1.942   1.722   1.894
  636SOL    HW2 1929   2.051   1.843   1.910
  637SOL     OW 1930   2.676   1.271   1.427
  637SOL    HW1 1931   2.663   1.318   1.514
  637SOL    HW2 1932   2.602   1.297   1.364
  638SOL     OW 1933   2.527   1.609   0.161
  638SOL    HW1 1934   2.540   1.633   0.064
  638SOL    HW2 1935   2.473   1.525   0.167
  639SOL     OW 1936   2.134   0.345   0.751
  639SOL    HW1 1937   2.041   0.368   0.722
  639SOL    HW2 1938   2.133   0.312   0.845
  640SOL     OW 1939   2.690   1.008   1.377
  640SOL    HW1 1940   2.738   0.994   1.290
  640SOL    HW2 1941   2.688   1.106   1.399
  641SOL     OW 1942   2.798   0.948   0.310
  641SOL    HW1 1943   2.841   0.960   0.220
  641SOL    HW2 1944   2.827   0.861   0.350
  642SOL     OW 1945   2.227   1.298   1.489
  642SOL    HW1 1946   2.220   1.382   1.436
  642SOL    HW2 1947   2.143   1.244   1.477
  643SOL     OW 1948   2.915   1.085   0.724
  643SOL    HW1 1949   2.837   1.041   0.769
  643SOL    HW2 1950   2.936   1.038   0.638
  644SOL     OW 1951   2.881   0.237   0.971
  644SOL    HW1 1952   2.877   0.188   0.884
  644SOL    HW2 1953   2.870   0.172   1.046
  645SOL     OW 1954   2.460   1.486   0.482
  645SOL    HW1 1955   2.509   1.434   0.412
  645SOL    HW2 1956   2.400   1.553   0.438
  646SOL     OW 1957   2.130   1.333   0.300
  646SOL    HW1 1958   2.044   1.336   0.249
  646SOL    HW2 1959   2.118   1.379   0.387
  647SOL     OW 1960   1.972   1.011   1.717
  647SOL    HW1 1961   1.892   0.994   1.775
  647SOL    HW2 1962   2.054   0.979   1.764
  648SOL     OW 1963   2.530   0.212   1.492
  648SOL    HW1 1964   2.615   0.181   1.449
  648SOL    HW2 1965   2.546   0.227   1.590
  649SOL     OW 1966   1.910   0.197   0.329
  649SOL    HW1 1967   1.876   0.236   0.243
  649SOL    HW2 1968   2.002   0.161   0.314
  650SOL     OW 1969   2.480   0.836   1.432
  650SOL    HW1 1970   2.537   0.917   1.417
  650SOL    HW2 1971   2.539   0.755   1.440
  651SOL     OW 1972   2.581   0.562   1.705
  651SOL    HW1 1973   2.617   0.632   1.767
  651SOL    HW2 1974   2.613   0.472   1.734
  652SOL     OW 1975   2.243   1.740   1.564
  652SOL    HW1 1976   2.155   1.786   1.550
  652SOL    HW2 1977   2.227   1.652   1.610
  653SOL     OW 1978   2.456   0.740   0.662
  653SOL    HW1 1979   2.495   0.832   0.655
  653SOL    HW2 1980   2.380   0.731   0.598
  654SOL     OW 1981   2.765   1.380   0.065
  654SOL    HW1 1982   2.693   1.382   0.135
  654SOL    HW2 1983   2.731   1.421   2.981
  655SOL     OW 1984   2.523   1.795   0.949
  655SOL    HW1 1985   2.496   1.887   0.922
  655SOL    HW2 1986   2.622   1.783   0.934
  656SOL     OW 1987   2.718   0.963   0.859
  656SOL    HW1 1988   2.768   0.886   0.899
  656SOL    HW2 1989   2.683   1.022   0.932
  657SOL     OW 1990   2.953   1.016   0.076
  657SOL    HW1 1991   2.927   1.065   2.993
  657SOL    HW2 1992   0.018   0.943   0.052
  658SOL     OW 1993   2.088   1.304   1.855
  658SOL    HW1 1994   2.019   1.241   1.819
  658SOL    HW2 1995   2.074   1.316   1.953
  659SOL     OW 1996   1.944   1.234   0.663
  659SOL    HW1 1997   1.949   1.186   0.750
  659SOL    HW2 1998   2.015   1.199   0.601
  660SOL     OW 1999   2.541   1.404   1.631
  660SOL    HW1 2000   2.459   1.353   1.655
  660SOL    HW2 2001   2.536   1.496   1.669
  661SOL     OW 2002   2.340   0.430   0.553
  661SOL    HW1 2003   2.327   0.371   0.473
  661SOL    HW2 2004   2.271   0.409   0.622
  662SOL     OW 2005   2.189   0.551   1.290
  662SOL    HW1 2006   2.250   0.499   1.350
  662SOL    HW2 2007   2.210   0.529   1.194
  663SOL     OW 2008   2.683   1.585   0.681
  663SOL    HW1 2009   2.685   1.622   0.588
  663SOL    HW2 2010   2.606   1.522   0.690
  664SOL     OW 2011   2.851   0.021   1.149
  664SOL    HW1 2012   2.813   2.947   1.094
  664SOL    HW2 2013   2.948   0.002   1.167
  665SOL     OW 2014   2.630   1.329   0.315
  665SOL    HW1 2015   2.600   1.235   0.334
  665SOL    HW2 2016   2.716   1.346   0.363
  666SOL     OW 2017   2.488   1.560   1.287
  666SOL    HW1 2018   2.487   1.646   1.339
  666SOL    HW2 2019   2.577   1.548   1.244
  667SOL     OW 2020   1.904   1.072   0.306
  667SOL    HW1 2021   2.002   1.072   0.286
  667SOL    HW2 2022   1.874   0.980   0.329
  668SOL     OW 2023   2.736   1.654   0.347
  668SOL    HW1 2024   2.664   1.632   0.281
  668SOL    HW2 2025   2.708   1.735   0.400
  669SOL     OW 2026   2.090   0.621   1.984
  669SOL    HW1 2027   1.998   0.622   2.024
  669SOL    HW2 2028   2.085   0.596   1.888
  670SOL     OW 2029   2.086   0.277   2.880
  670SOL    HW1 2030   2.108   0.238   2.969
  670SOL    HW2 2031   1.997   0.242   2.850
  671SOL     OW 2032   1.865   0.384   2.501
  671SOL    HW1 2033   1.782   0.417   2.545
  671SOL    HW2 2034   1.844   0.305   2.444
  672SOL     OW 2035   2.611   1.149   2.893
  672SOL    HW1 2036   2.548   1.187   2.960
  672SOL    HW2 2037   2.660   1.223   2.846
  673SOL     OW 2038   2.546   1.006   2.511
  673SOL    HW1 2039   2.611   0.988   2.584
  673SOL    HW2 2040   2.469   1.059   2.548
  674SOL     OW 2041   2.204   1.432   2.928
  674SOL    HW1 2042   2.122   1.394   2.885
  674SOL    HW2 2043   2.254   1.488   2.862
  675SOL     OW 2044   2.084   1.712   2.337
  675SOL    HW1 2045   2.103   1.793   2.394
  675SOL    HW2 2046   2.154   1.703   2.267
  676SOL     OW 2047   2.092   1.441   2.397
  676SOL    HW1 2048   2.079   1.540   2.399
  676SOL    HW2 2049   2.029   1.397   2.462
  677SOL     OW 2050   2.121   1.092   2.761
  677SOL    HW1 2051   2.114   0.998   2.793
  677SOL    HW2 2052   2.058   1.150   2.813
  678SOL     OW 2053   2.453   0.982   1.996
  678SOL    HW1 2054   2.494   1.036   1.922
  678SOL    HW2 2055   2.491   1.010   2.084
  679SOL     OW 2056   1.978   0.648   2.427
  679SOL    HW1 2057   1.932   0.562   2.446
  679SOL    HW2 2058   1.972   0.708   2.507
  680SOL     OW 2059   1.880   1.596   1.986
  680SOL    HW1 2060   1.875   1.498   2.008
  680SOL    HW2 2061   1.866   1.649   2.070
  681SOL     OW 2062   2.468   1.383   2.593
  681SOL    HW1 2063   2.420   1.296   2.605
  681SOL    HW2 2064   2.456   1.415   2.498
  682SOL     OW 2065   2.682   0.018   2.379
  682SOL    HW1 2066   2.718   0.107   2.353
  682SOL    HW2 2067   2.583   0.015   2.362
  683SOL     OW 2068   2.458   0.726   2.128
  683SOL    HW1 2069   2.465   0.807   2.070
  683SOL    HW2 2070   2.388   0.740   2.198
  684SOL     OW 2071   2.890   0.707   2.280
  684SOL    HW1 2072   2.930   0.691   2.370
  684SOL    HW2 2073   2.810   0.648   2.268
  685SOL     OW 2074   1.953   0.824   2.636
  685SOL    HW1 2075   2.037   0.811   2.689
  685SOL    HW2 2076   1.903   0.902   2.672
  686SOL     OW 2077   2.739   0.350   2.051
  686SOL    HW1 2078   2.789   0.414   1.994
  686SOL    HW2 2079   2.778   0.258   2.042
  687SOL     OW 2080   2.418   0.206   2.832
  687SOL    HW1 2081   2.359   0.273   2.878
  687SOL    HW2 2082   2.437   0.237   2.739
  688SOL     OW 2083   2.854   1.439   2.329
  688SOL    HW1 2084   2.821   1.520   2.281
  688SOL    HW2 2085   2.866   1.460   2.426
  689SOL     OW 2086   2.218   1.806   2.718
  689SOL    HW1 2087   2.262   1.717   2.731
  689SOL    HW2 2088   2.283   1.878   2.739
  690SOL     OW 2089   2.187   0.954   2.111
  690SOL    HW1 2090   2.273   0.978   2.067
  690SOL    HW2 2091   2.149   0.871   2.070
  691SOL     OW 2092   2.329   1.737   2.182
  691SOL    HW1 2093   2.367   1.798   2.251
  691SOL    HW2 2094   2.402   1.704   2.122
  692SOL     OW 2095   2.126   1.800   0.103
  692SOL    HW1 2096   2.174   1.734   0.160
  692SOL    HW2 2097   2.077   1.753   0.030
  693SOL     OW 2098   2.793   1.700   2.759
  693SOL    HW1 2099   2.859   1.639   2.804
  693SOL    HW2 2100   2.751   1.652   2.682
  694SOL     OW 2101   2.257   0.686   2.342
  694SOL    HW1 2102   2.289   0.593   2.356
  694SOL    HW2 2103   2.159   0.690   2.361
  695SOL     OW 2104   2.490   0.123   1.972
  695SOL    HW1 2105   2.581   0.082   1.975
  695SOL    HW2 2106   2.447   0.101   1.884
  696SOL     OW 2107   2.664   1.398   2.789
  696SOL    HW1 2108   2.755   1.390   2.748
  696SOL    HW2 2109   2.595   1.394   2.716
  697SOL     OW 2110   2.783   0.520   2.755
  697SOL    HW1 2111   2.754   0.498   2.662
  697SOL    HW2 2112   2.815   0.437   2.800
  698SOL     OW 2113   2.404   0.059   2.364
  698SOL    HW1 2114   2.314   0.042   2.405
  698SOL    HW2 2115   2.397   0.135   2.299
  699SOL     OW 2116   2.148   0.032   2.062
  699SOL    HW1 2117   2.187   0.113   2.018
  699SOL    HW2 2118   2.222   2.971   2.089
  700SOL     OW 2119   2.812   0.250   2.318
  700SOL    HW1 2120   2.755   0.301   2.253
  700SOL    HW2 2121   2.896   0.221   2.273
  701SOL     OW 2122   0.081   1.573   2.661
  701SOL    HW1 2123   0.107   1.621   2.577
  701SOL    HW2 2124   0.163   1.552   2.714
  702SOL     OW 2125   2.327   1.145   2.596
  702SOL    HW1 2126   2.256   1.129   2.665
  702SOL    HW2 2127   2.289   1.130   2.505
  703SOL     OW 2128   2.882   0.550   1.881
  703SOL    HW1 2129   2.835   0.635   1.858
  703SOL    HW2 2130   2.941   0.565   1.961
  704SOL     OW 2131   2.742   0.467   2.494
  704SOL    HW1 2132   2.677   0.524   2.443
  704SOL    HW2 2133   2.743   0.375   2.454
  705SOL     OW 2134   2.856   0.055   2.614
  705SOL    HW1 2135   2.816   0.057   2.523
  705SOL    HW2 2136   2.836   2.967   2.657
  706SOL     OW 2137   2.352   1.414   2.023
  706SOL    HW1 2138   2.273   1.384   2.077
  706SOL    HW2 2139   2.338   1.392   1.927
  707SOL     OW 2140   2.396   0.267   2.180
  707SOL    HW1 2141   2.431   0.208   2.108
  707SOL    HW2 2142   2.369   0.355   2.141
  708SOL     OW 2143   2.571   1.058   2.234
  708SOL    HW1 2144   2.552   1.045   2.331
  708SOL    HW2 2145   2.653   1.007   2.209
  709SOL     OW 2146   2.216   1.108   2.351
  709SOL    HW1 2147   2.220   1.190   2.293
  709SOL    HW2 2148   2.213   1.026   2.294
  710SOL     OW 2149   2.411   0.548   2.730
  710SOL    HW1 2150   2.430   0.600   2.646
  710SOL    HW2 2151   2.481   0.569   2.798
  711SOL     OW 2152   2.439   0.871   2.880
  711SOL    HW1 2153   2.485   0.955   2.848
  711SOL    HW2 2154   2.414   0.881   2.976
  712SOL     OW 2155   0.054   0.533   2.133
  712SOL    HW1 2156   0.084   0.450   2.181
  712SOL    HW2 2157   0.017   0.598   2.199
  713SOL     OW 2158   2.597   0.646   2.916
  713SOL    HW1 2159   2.665   0.616   2.848
  713SOL    HW2 2160   2.554   0.731   2.884
  714SOL     OW 2161   2.174   0.064   2.510
  714SOL    HW1 2162   2.167   0.161   2.535
  714SOL    HW2 2163   2.152   0.007   2.589
  715SOL     OW 2164   2.873   0.775   2.829
  715SOL    HW1 2165   2.880   0.773   2.929
  715SOL    HW2 2166   2.864   0.682   2.794
  716SOL     OW 2167   2.910   1.343   2.697
  716SOL    HW1 2168   2.913   1.262   2.638
  716SOL    HW2 2169   2.978   1.410   2.667
  717SOL     OW 2170   2.172   0.809   2.808
  717SOL    HW1 2171   2.269   0.834   2.807
  717SOL    HW2 2172   2.163   0.714   2.838
  718SOL     OW 2173   2.182   0.535   2.870
  718SOL    HW1 2174   2.143   0.443   2.868
  718SOL    HW2 2175   2.264   0.537   2.813
  719SOL     OW 2176   1.863   1.321   2.057
  719SOL    HW1 2177   1.775   1.336   2.011
  719SOL    HW2 2178   1.866   1.227   2.092
  720SOL     OW 2179   1.952   1.795   2.794
  720SOL    HW1 2180   1.917   1.708   2.759
  720SOL    HW2 2181   2.049   1.804   2.768
  721SOL     OW 2182   2.366   1.579   2.764
  721SOL    HW1 2183   2.437   1.645   2.788
  721SOL    HW2 2184   2.405   1.507   2.706
  722SOL     OW 2185   2.845   0.758   0.102
  722SOL    HW1 2186   2.890   0.741   0.190
  722SOL    HW2 2187   2.747   0.769   0.117
  723SOL     OW 2188   2.669   0.565   2.215
  723SOL    HW1 2189   2.675   0.486   2.154
  723SOL    HW2 2190   2.593   0.623   2.186
  724SOL     OW 2191   2.556   0.437   0.078
  724SOL    HW1 2192   2.460   0.434   0.108
  724SOL    HW2 2193   2.571   0.520   0.023
  725SOL     OW 2194   2.327   0.497   2.052
  725SOL    HW1 2195   2.389   0.573   2.072
  725SOL    HW2 2196   2.235   0.532   2.037
  726SOL     OW 2197   1.942   1.268   2.885
  726SOL    HW1 2198   1.930   1.279   2.984
  726SOL    HW2 2199   1.869   1.212   2.849
  727SOL     OW 2200   2.531   1.616   2.016
  727SOL    HW1 2201   2.545   1.632   1.918
  727SOL    HW2 2202   2.475   1.535   2.029
  728SOL     OW 2203   2.130   0.331   2.613
  728SOL    HW1 2204   2.040   0.365   2.586
  728SOL    HW2 2205   2.130   0.309   2.710
  729SOL     OW 2206   2.789   0.922   2.155
  729SOL    HW1 2207   2.838   0.933   2.068
  729SOL    HW2 2208   2.821   0.839   2.201
  730SOL     OW 2209   2.913   1.081   2.588
  730SOL    HW1 2210   2.833   1.037   2.627
  730SOL    HW2 2211   2.935   1.038   2.500
  731SOL     OW 2212   2.885   0.236   2.818
  731SOL    HW1 2213   2.875   0.186   2.732
  731SOL    HW2 2214   2.879   0.171   2.894
  732SOL     OW 2215   2.460   1.485   2.342
  732SOL    HW1 2216   2.510   1.434   2.272
  732SOL    HW2 2217   2.395   1.547   2.298
  733SOL     OW 2218   2.115   1.347   2.149
  733SOL    HW1 2219   2.019   1.343   2.123
  733SOL    HW2 2220   2.123   1.385   2.242
  734SOL     OW 2221   1.940   0.337   1.898
  734SOL    HW1 2222   1.847   0.311   1.874
  734SOL    HW2 2223   1.969   0.414   1.842
  735SOL     OW 2224   1.897   0.206   2.157
  735SOL    HW1 2225   1.915   0.272   2.084
  735SOL    HW2 2226   1.970   0.138   2.160
  736SOL     OW 2227   2.456   0.740   2.525
  736SOL    HW1 2228   2.495   0.832   2.514
  736SOL    HW2 2229   2.381   0.728   2.461
  737SOL     OW 2230   2.732   1.368   1.901
  737SOL    HW1 2231   2.679   1.399   1.980
  737SOL    HW2 2232   2.749   1.446   1.841
  738SOL     OW 2233   2.528   1.797   2.822
  738SOL    HW1 2234   2.502   1.887   2.789
  738SOL    HW2 2235   2.625   1.781   2.803
  739SOL     OW 2236   2.713   0.962   2.721
  739SOL    HW1 2237   2.768   0.888   2.760
  739SOL    HW2 2238   2.684   1.024   2.794
  740SOL     OW 2239   2.935   0.953   1.928
  740SOL    HW1 2240   2.902   1.029   1.873
  740SOL    HW2 2241   0.029   0.972   1.959
  741SOL     OW 2242   1.946   1.235   2.526
  741SOL    HW1 2243   1.940   1.181   2.610
  741SOL    HW2 2244   2.016   1.197   2.466
  742SOL     OW 2245   2.334   0.428   2.411
  742SOL    HW1 2246   2.324   0.369   2.330
  742SOL    HW2 2247   2.267   0.401   2.480
  743SOL     OW 2248   2.683   1.584   2.539
  743SOL    HW1 2249   2.688   1.622   2.447
  743SOL    HW2 2250   2.604   1.523   2.546
  744SOL     OW 2251   2.634   1.333   2.177
  744SOL    HW1 2252   2.603   1.238   2.185
  744SOL    HW2 2253   2.719   1.345   2.228
  745SOL     OW 2254   1.906   1.071   2.167
  745SOL    HW1 2255   2.004   1.069   2.148
  745SOL    HW2 2256   1.875   0.979   2.191
  746SOL     OW 2257   2.735   1.649   2.210
  746SOL    HW1 2258   2.665   1.632   2.141
  746SOL    HW2 2259   2.713   1.734   2.259
  747SOL     OW 2260   2.090   2.496   0.112
  747SOL    HW1 2261   1.995   2.477   0.137
  747SOL    HW2 2262   2.109   2.457   0.022
  748SOL     OW 2263   2.084   2.143   0.993
  748SOL    HW1 2264   2.118   2.110   1.081
  748SOL    HW2 2265   1.991   2.109   0.978
  749SOL     OW 2266   1.868   2.247   0.636
  749SOL    HW1 2267   1.782   2.272   0.680
  749SOL    HW2 2268   1.856   2.163   0.583
  750SOL     OW 2269   2.596   0.001   1.018
  750SOL    HW1 2270   2.520   0.043   1.068
  750SOL    HW2 2271   2.645   0.071   0.967
  751SOL     OW 2272   2.723   2.637   1.819
  751SOL    HW1 2273   2.719   2.696   1.899
  751SOL    HW2 2274   2.753   2.690   1.740
  752SOL     OW 2275   2.515   2.848   0.711
  752SOL    HW1 2276   2.614   2.852   0.728
  752SOL    HW2 2277   2.486   2.930   0.662
  753SOL     OW 2278   2.308   2.261   1.491
  753SOL    HW1 2279   2.389   2.201   1.491
  753SOL    HW2 2280   2.226   2.205   1.501
  754SOL     OW 2281   2.111   0.305   0.474
  754SOL    HW1 2282   2.067   0.392   0.499
  754SOL    HW2 2283   2.053   0.229   0.502
  755SOL     OW 2284   2.109   2.945   0.883
  755SOL    HW1 2285   2.126   2.853   0.918
  755SOL    HW2 2286   2.066   3.000   0.954
  756SOL     OW 2287   2.480   2.831   0.150
  756SOL    HW1 2288   2.458   2.926   0.131
  756SOL    HW2 2289   2.552   2.826   0.220
  757SOL     OW 2290   1.975   2.513   0.563
  757SOL    HW1 2291   1.947   2.419   0.581
  757SOL    HW2 2292   1.968   2.566   0.648
  758SOL     OW 2293   1.984   2.604   1.585
  758SOL    HW1 2294   2.082   2.617   1.597
  758SOL    HW2 2295   1.937   2.690   1.604
  759SOL     OW 2296   2.523   0.249   0.679
  759SOL    HW1 2297   2.466   0.179   0.721
  759SOL    HW2 2298   2.466   0.311   0.625
  760SOL     OW 2299   2.673   1.867   0.505
  760SOL    HW1 2300   2.717   1.956   0.490
  760SOL    HW2 2301   2.575   1.880   0.516
  761SOL     OW 2302   2.058   2.842   1.256
  761SOL    HW1 2303   2.143   2.790   1.250
  761SOL    HW2 2304   1.981   2.783   1.232
  762SOL     OW 2305   2.194   2.113   1.816
  762SOL    HW1 2306   2.245   2.198   1.824
  762SOL    HW2 2307   2.099   2.128   1.844
  763SOL     OW 2308   2.454   2.581   0.273
  763SOL    HW1 2309   2.463   2.663   0.217
  763SOL    HW2 2310   2.384   2.595   0.343
  764SOL     OW 2311   2.647   2.485   1.452
  764SOL    HW1 2312   2.625   2.460   1.546
  764SOL    HW2 2313   2.610   2.417   1.390
  765SOL     OW 2314   2.825   2.745   1.581
  765SOL    HW1 2315   2.858   2.656   1.549
  765SOL    HW2 2316   2.770   2.788   1.510
  766SOL     OW 2317   2.849   2.238   1.256
  766SOL    HW1 2318   2.769   2.285   1.291
  766SOL    HW2 2319   2.840   2.226   1.157
  767SOL     OW 2320   2.889   2.579   0.410
  767SOL    HW1 2321   2.938   2.561   0.495
  767SOL    HW2 2322   2.811   2.516   0.403
  768SOL     OW 2323   1.948   2.685   0.778
  768SOL    HW1 2324   2.036   2.670   0.823
  768SOL    HW2 2325   1.906   2.769   0.812
  769SOL     OW 2326   2.786   2.195   0.218
  769SOL    HW1 2327   2.784   2.266   0.148
  769SOL    HW2 2328   2.760   2.107   0.177
  770SOL     OW 2329   2.409   2.044   0.895
  770SOL    HW1 2330   2.413   2.070   0.992
  770SOL    HW2 2331   2.412   2.127   0.839
  771SOL     OW 2332   2.063   2.147   1.502
  771SOL    HW1 2333   1.978   2.197   1.489
  771SOL    HW2 2334   2.047   2.070   1.564
  772SOL     OW 2335   2.250   2.551   0.476
  772SOL    HW1 2336   2.276   2.455   0.486
  772SOL    HW2 2337   2.153   2.562   0.496
  773SOL     OW 2338   2.487   1.979   0.116
  773SOL    HW1 2339   2.586   1.966   0.120
  773SOL    HW2 2340   2.450   1.932   0.037
  774SOL     OW 2341   2.630   2.142   1.758
  774SOL    HW1 2342   2.707   2.079   1.764
  774SOL    HW2 2343   2.565   2.124   1.832
  775SOL     OW 2344   2.787   2.365   0.901
  775SOL    HW1 2345   2.757   2.356   0.806
  775SOL    HW2 2346   2.827   2.278   0.931
  776SOL     OW 2347   2.406   1.923   0.502
  776SOL    HW1 2348   2.324   1.923   0.560
  776SOL    HW2 2349   2.405   2.004   0.443
  777SOL     OW 2350   2.813   2.099   0.465
  777SOL    HW1 2351   2.773   2.151   0.389
  777SOL    HW2 2352   2.905   2.069   0.439
  778SOL     OW 2353   2.881   2.378   0.037
  778SOL    HW1 2354   2.839   2.465   0.010
  778SOL    HW2 2355   2.944   2.393   0.113
  779SOL     OW 2356   1.942   2.420   1.389
  779SOL    HW1 2357   2.036   2.413   1.358
  779SOL    HW2 2358   1.935   2.492   1.459
  780SOL     OW 2359   2.423   2.087   1.166
  780SOL    HW1 2360   2.468   2.003   1.199
  780SOL    HW2 2361   2.328   2.088   1.197
  781SOL     OW 2362   2.742   2.320   0.634
  781SOL    HW1 2363   2.683   2.384   0.585
  781SOL    HW2 2364   2.748   2.234   0.583
  782SOL     OW 2365   2.855   1.923   0.756
  782SOL    HW1 2366   2.806   1.908   0.670
  782SOL    HW2 2367   2.849   1.842   0.813
  783SOL     OW 2368   2.380   2.123   0.321
  783SOL    HW1 2369   2.423   2.069   0.249
  783SOL    HW2 2370   2.361   2.215   0.287
  784SOL     OW 2371   2.754   1.950   1.387
  784SOL    HW1 2372   2.779   1.930   1.292
  784SOL    HW2 2373   2.831   1.995   1.432
  785SOL     OW 2374   2.276   2.678   1.255
  785SOL    HW1 2375   2.351   2.688   1.320
  785SOL    HW2 2376   2.238   2.585   1.263
  786SOL     OW 2377   2.418   2.403   0.862
  786SOL    HW1 2378   2.432   2.461   0.782
  786SOL    HW2 2379   2.484   2.428   0.933
  787SOL     OW 2380   2.275   2.603   1.602
  787SOL    HW1 2381   2.338   2.651   1.541
  787SOL    HW2 2382   2.311   2.512   1.622
  788SOL     OW 2383   2.857   1.991   1.771
  788SOL    HW1 2384   2.901   2.051   1.704
  788SOL    HW2 2385   2.899   1.900   1.766
  789SOL     OW 2386   2.357   1.906   1.746
  789SOL    HW1 2387   2.317   1.846   1.677
  789SOL    HW2 2388   2.295   1.983   1.763
  790SOL     OW 2389   2.450   2.728   1.037
  790SOL    HW1 2390   2.470   2.823   1.012
  790SOL    HW2 2391   2.384   2.726   1.112
  791SOL     OW 2392   0.060   2.400   0.269
  791SOL    HW1 2393   0.078   2.313   0.315
  791SOL    HW2 2394   0.027   2.467   0.335
  792SOL     OW 2395   2.164   2.066   1.245
  792SOL    HW1 2396   2.125   2.100   1.331
  792SOL    HW2 2397   2.152   1.967   1.239
  793SOL     OW 2398   2.589   2.492   1.060
  793SOL    HW1 2399   2.669   2.475   1.002
  793SOL    HW2 2400   2.554   2.584   1.042
  794SOL     OW 2401   2.161   1.928   0.625
  794SOL    HW1 2402   2.144   2.023   0.648
  794SOL    HW2 2403   2.173   1.875   0.709
  795SOL     OW 2404   2.858   2.622   0.980
  795SOL    HW1 2405   2.908   2.624   1.066
  795SOL    HW2 2406   2.861   2.530   0.941
  796SOL     OW 2407   2.225   2.787   1.798
  796SOL    HW1 2408   2.289   2.781   1.875
  796SOL    HW2 2409   2.244   2.713   1.733
  797SOL     OW 2410   2.176   2.672   0.945
  797SOL    HW1 2411   2.272   2.693   0.932
  797SOL    HW2 2412   2.166   2.579   0.982
  798SOL     OW 2413   2.195   2.385   1.010
  798SOL    HW1 2414   2.155   2.294   0.998
  798SOL    HW2 2415   2.275   2.395   0.952
  799SOL     OW 2416   2.966   2.243   1.669
  799SOL    HW1 2417   2.905   2.302   1.722
  799SOL    HW2 2418   0.059   2.279   1.672
  800SOL     OW 2419   2.974   2.068   1.470
  800SOL    HW1 2420   2.963   2.140   1.538
  800SOL    HW2 2421   2.975   2.108   1.379
  801SOL     OW 2422   2.855   2.667   1.262
  801SOL    HW1 2423   2.914   2.601   1.307
  801SOL    HW2 2424   2.771   2.623   1.232
  802SOL     OW 2425   1.898   2.411   1.116
  802SOL    HW1 2426   1.978   2.387   1.063
  802SOL    HW2 2427   1.922   2.414   1.213
  803SOL     OW 2428   2.053   2.381   1.724
  803SOL    HW1 2429   2.109   2.333   1.656
  803SOL    HW2 2430   2.004   2.456   1.681
  804SOL     OW 2431   2.670   2.428   0.356
  804SOL    HW1 2432   2.677   2.353   0.290
  804SOL    HW2 2433   2.593   2.487   0.331
  805SOL     OW 2434   2.557   2.317   1.262
  805SOL    HW1 2435   2.507   2.235   1.233
  805SOL    HW2 2436   2.560   2.382   1.186
  806SOL     OW 2437   2.305   2.356   0.210
  806SOL    HW1 2438   2.378   2.423   0.224
  806SOL    HW2 2439   2.221   2.404   0.185
  807SOL     OW 2440   2.018   2.993   1.477
  807SOL    HW1 2441   2.021   2.937   1.560
  807SOL    HW2 2442   2.036   2.935   1.397
  808SOL     OW 2443   2.761   1.935   0.128
  808SOL    HW1 2444   2.812   1.904   0.048
  808SOL    HW2 2445   2.800   1.894   0.210
  809SOL     OW 2446   2.123   2.179   0.719
  809SOL    HW1 2447   2.036   2.217   0.690
  809SOL    HW2 2448   2.124   2.167   0.818
  810SOL     OW 2449   2.675   2.866   1.377
  810SOL    HW1 2450   2.734   2.829   1.304
  810SOL    HW2 2451   2.702   2.961   1.396
  811SOL     OW 2452   2.742   2.785   0.288
  811SOL    HW1 2453   2.824   2.837   0.266
  811SOL    HW2 2454   2.764   2.715   0.356
  812SOL     OW 2455   2.881   2.101   0.969
  812SOL    HW1 2456   2.875   2.054   0.881
  812SOL    HW2 2457   2.869   2.035   1.043
  813SOL     OW 2458   1.975   2.865   1.711
  813SOL    HW1 2459   1.894   2.858   1.770
  813SOL    HW2 2460   2.057   2.843   1.764
  814SOL     OW 2461   2.531   2.063   1.501
  814SOL    HW1 2462   2.613   2.038   1.450
  814SOL    HW2 2463   2.556   2.093   1.593
  815SOL     OW 2464   1.933   2.019   0.339
  815SOL    HW1 2465   1.899   2.065   0.257
  815SOL    HW2 2466   2.030   1.996   0.327
  816SOL     OW 2467   2.476   2.694   1.434
  816SOL    HW1 2468   2.535   2.774   1.417
  816SOL    HW2 2469   2.533   2.613   1.443
  817SOL     OW 2470   2.581   2.424   1.704
  817SOL    HW1 2471   2.617   2.495   1.765
  817SOL    HW2 2472   2.610   2.334   1.736
  818SOL     OW 2473   2.453   2.587   0.662
  818SOL    HW1 2474   2.481   2.682   0.676
  818SOL    HW2 2475   2.380   2.583   0.594
  819SOL     OW 2476   2.754   2.838   0.865
  819SOL    HW1 2477   2.785   2.750   0.901
  819SOL    HW2 2478   2.680   2.872   0.923
  820SOL     OW 2479   2.294   2.292   0.530
  820SOL    HW1 2480   2.325   2.221   0.467
  820SOL    HW2 2481   2.242   2.250   0.604
  821SOL     OW 2482   2.191   2.414   1.288
  821SOL    HW1 2483   2.249   2.360   1.350
  821SOL    HW2 2484   2.210   2.388   1.194
  822SOL     OW 2485   2.866   1.879   1.143
  822SOL    HW1 2486   2.807   1.810   1.102
  822SOL    HW2 2487   2.962   1.859   1.120
  823SOL     OW 2488   1.870   2.913   0.300
  823SOL    HW1 2489   1.958   2.921   0.254
  823SOL    HW2 2490   1.860   2.820   0.338
  824SOL     OW 2491   2.092   2.467   1.983
  824SOL    HW1 2492   2.003   2.491   2.021
  824SOL    HW2 2493   2.083   2.450   1.885
  825SOL     OW 2494   2.088   2.143   2.847
  825SOL    HW1 2495   2.120   2.115   2.937
  825SOL    HW2 2496   1.994   2.111   2.833
  826SOL     OW 2497   1.869   2.247   2.494
  826SOL    HW1 2498   1.784   2.277   2.538
  826SOL    HW2 2499   1.854   2.160   2.448
  827SOL     OW 2500   2.646   0.017   2.879
  827SOL    HW1 2501   2.562   0.018   2.934
  827SOL    HW2 2502   2.646   0.095   2.817
  828SOL     OW 2503   2.513   2.844   2.569
  828SOL    HW1 2504   2.609   2.846   2.597
  828SOL    HW2 2505   2.489   2.930   2.525
  829SOL     OW 2506   2.101   0.299   2.331
  829SOL    HW1 2507   2.061   0.387   2.358
  829SOL    HW2 2508   2.050   0.225   2.375
  830SOL     OW 2509   2.112   2.948   2.749
  830SOL    HW1 2510   2.128   2.854   2.780
  830SOL    HW2 2511   2.060   2.997   2.819
  831SOL     OW 2512   2.465   2.824   1.997
  831SOL    HW1 2513   2.458   2.907   1.942
  831SOL    HW2 2514   2.534   2.836   2.068
  832SOL     OW 2515   1.976   2.513   2.426
  832SOL    HW1 2516   1.947   2.419   2.444
  832SOL    HW2 2517   1.969   2.566   2.511
  833SOL     OW 2518   2.498   0.249   2.567
  833SOL    HW1 2519   2.460   0.159   2.548
  833SOL    HW2 2520   2.465   0.314   2.498
  834SOL     OW 2521   2.674   1.867   2.366
  834SOL    HW1 2522   2.718   1.955   2.349
  834SOL    HW2 2523   2.576   1.881   2.379
  835SOL     OW 2524   2.062   2.806   0.115
  835SOL    HW1 2525   2.133   2.735   0.106
  835SOL    HW2 2526   1.973   2.767   0.091
  836SOL     OW 2527   2.458   2.581   2.131
  836SOL    HW1 2528   2.464   2.660   2.070
  836SOL    HW2 2529   2.389   2.597   2.201
  837SOL     OW 2530   2.894   2.577   2.273
  837SOL    HW1 2531   2.934   2.565   2.364
  837SOL    HW2 2532   2.812   2.521   2.265
  838SOL     OW 2533   1.948   2.686   2.640
  838SOL    HW1 2534   2.035   2.669   2.687
  838SOL    HW2 2535   1.905   2.768   2.677
  839SOL     OW 2536   2.750   2.209   2.059
  839SOL    HW1 2537   2.789   2.276   1.996
  839SOL    HW2 2538   2.750   2.119   2.016
  840SOL     OW 2539   2.408   2.046   2.766
  840SOL    HW1 2540   2.380   2.080   2.856
  840SOL    HW2 2541   2.420   2.123   2.703
  841SOL     OW 2542   2.251   2.551   2.337
  841SOL    HW1 2543   2.277   2.455   2.348
  841SOL    HW2 2544   2.154   2.562   2.359
  842SOL     OW 2545   2.495   1.985   1.965
  842SOL    HW1 2546   2.567   1.919   1.987
  842SOL    HW2 2547   2.442   1.952   1.887
  843SOL     OW 2548   2.786   2.376   2.755
  843SOL    HW1 2549   2.759   2.356   2.661
  843SOL    HW2 2550   2.817   2.291   2.800
  844SOL     OW 2551   2.407   1.925   2.364
  844SOL    HW1 2552   2.324   1.924   2.420
  844SOL    HW2 2553   2.406   2.007   2.306
  845SOL     OW 2554   2.154   1.908   2.046
  845SOL    HW1 2555   2.207   1.981   2.002
  845SOL    HW2 2556   2.216   1.843   2.088
  846SOL     OW 2557   2.807   2.102   2.314
  846SOL    HW1 2558   2.764   2.153   2.240
  846SOL    HW2 2559   2.899   2.075   2.287
  847SOL     OW 2560   2.882   2.413   1.882
  847SOL    HW1 2561   2.833   2.496   1.857
  847SOL    HW2 2562   2.938   2.430   1.963
  848SOL     OW 2563   2.741   2.318   2.494
  848SOL    HW1 2564   2.681   2.382   2.447
  848SOL    HW2 2565   2.747   2.233   2.441
  849SOL     OW 2566   2.853   1.924   2.609
  849SOL    HW1 2567   2.802   1.901   2.527
  849SOL    HW2 2568   2.850   1.846   2.672
  850SOL     OW 2569   2.392   2.125   2.179
  850SOL    HW1 2570   2.432   2.070   2.106
  850SOL    HW2 2571   2.368   2.216   2.144
  851SOL     OW 2572   2.416   2.398   2.724
  851SOL    HW1 2573   2.429   2.456   2.644
  851SOL    HW2 2574   2.479   2.427   2.797
  852SOL     OW 2575   2.436   2.729   2.885
  852SOL    HW1 2576   2.481   2.806   2.841
  852SOL    HW2 2577   2.427   2.747   2.983
  853SOL     OW 2578   0.052   2.392   2.136
  853SOL    HW1 2579   0.088   2.314   2.188
  853SOL    HW2 2580   0.008   2.456   2.199
  854SOL     OW 2581   2.164   2.068   0.090
  854SOL    HW1 2582   2.193   2.108   0.177
  854SOL    HW2 2583   2.152   1.969   0.101
  855SOL     OW 2584   2.591   2.499   2.911
  855SOL    HW1 2585   2.665   2.477   2.848
  855SOL    HW2 2586   2.553   2.589   2.887
  856SOL     OW 2587   2.162   1.927   2.486
  856SOL    HW1 2588   2.144   2.023   2.509
  856SOL    HW2 2589   2.171   1.874   2.571
  857SOL     OW 2590   2.873   2.630   2.824
  857SOL    HW1 2591   2.894   2.636   2.922
  857SOL    HW2 2592   2.865   2.534   2.797
  858SOL     OW 2593   2.173   2.671   2.806
  858SOL    HW1 2594   2.270   2.696   2.811
  858SOL    HW2 2595   2.163   2.576   2.836
  859SOL     OW 2596   2.182   2.396   2.864
  859SOL    HW1 2597   2.143   2.304   2.859
  859SOL    HW2 2598   2.267   2.399   2.812
  860SOL     OW 2599   2.878   2.645   0.093
  860SOL    HW1 2600   2.924   2.636   0.181
  860SOL    HW2 2601   2.783   2.673   0.109
  861SOL     OW 2602   2.674   2.430   2.217
  861SOL    HW1 2603   2.679   2.349   2.158
  861SOL    HW2 2604   2.597   2.487   2.189
  862SOL     OW 2605   2.565   2.310   0.098
  862SOL    HW1 2606   2.474   2.268   0.093
  862SOL    HW2 2607   2.571   2.385   0.032
  863SOL     OW 2608   2.329   2.355   2.052
  863SOL    HW1 2609   2.390   2.431   2.076
  863SOL    HW2 2610   2.237   2.389   2.036
  864SOL     OW 2611   0.166   2.700   2.160
  864SOL    HW1 2612   0.104   2.648   2.218
  864SOL    HW2 2613   0.203   2.640   2.088
  865SOL     OW 2614   2.124   2.179   2.577
  865SOL    HW1 2615   2.037   2.218   2.549
  865SOL    HW2 2616   2.126   2.170   2.677
  866SOL     OW 2617   2.759   2.763   2.110
  866SOL    HW1 2618   2.837   2.818   2.078
  866SOL    HW2 2619   2.790   2.701   2.183
  867SOL     OW 2620   2.878   2.102   2.816
  867SOL    HW1 2621   2.870   2.053   2.730
  867SOL    HW2 2622   2.903   2.037   2.889
  868SOL     OW 2623   1.940   2.195   1.894
  868SOL    HW1 2624   1.848   2.172   1.861
  868SOL    HW2 2625   1.974   2.275   1.845
  869SOL     OW 2626   1.930   2.020   2.173
  869SOL    HW1 2627   1.913   2.104   2.123
  869SOL    HW2 2628   2.019   1.982   2.145
  870SOL     OW 2629   2.455   2.583   2.522
  870SOL    HW1 2630   2.482   2.678   2.537
  870SOL    HW2 2631   2.379   2.580   2.456
  871SOL     OW 2632   2.744   2.831   2.715
  871SOL    HW1 2633   2.789   2.750   2.753
  871SOL    HW2 2634   2.708   2.887   2.789
  872SOL     OW 2635   2.948   2.839   1.900
  872SOL    HW1 2636   2.913   2.932   1.908
  872SOL    HW2 2637   0.013   2.821   1.974
  873SOL     OW 2638   2.295   2.291   2.388
  873SOL    HW1 2639   2.324   2.219   2.325
  873SOL    HW2 2640   2.242   2.251   2.463
  874SOL     OW 2641   1.887   2.917   2.175
  874SOL    HW1 2642   1.974   2.933   2.128
  874SOL    HW2 2643   1.879   2.820   2.198
   3.00000   3.00000   3.00000
