UNNAMED in water
 2645
    1MET      N    1   1.238   1.425   1.574
    1MET     H1    2   1.186   1.421   1.484
    1MET     H2    3   1.217   1.339   1.629
    1MET     H3    4   1.202   1.503   1.633
    1MET     CA    5   1.387   1.435   1.561
    1MET     HA    6   1.420   1.344   1.514
    1MET     CB    7   1.427   1.558   1.475
    1MET    HB1    8   1.376   1.553   1.376
    1MET    HB2    9   1.395   1.651   1.526
    1MET     CG   10   1.580   1.569   1.450
    1MET    HG1   11   1.629   1.596   1.546
    1MET    HG2   12   1.620   1.470   1.422
    1MET     SD   13   1.628   1.690   1.324
    1MET     CE   14   1.803   1.641   1.328
    1MET    HE1   15   1.865   1.704   1.261
    1MET    HE2   16   1.846   1.647   1.431
    1MET    HE3   17   1.814   1.536   1.294
    1MET      C   18   1.451   1.443   1.702
    1MET    OT1   19   1.377   1.459   1.801
    1MET    OT2   20   1.577   1.432   1.713
    2SOL     OW   21   0.239   0.662   0.108
    2SOL    HW1   22   0.171   0.616   0.155
    2SOL    HW2   23   0.252   0.612   0.028
    3SOL     OW   24   0.203   0.272   1.002
    3SOL    HW1   25   0.240   0.247   1.086
    3SOL    HW2   26   0.109   0.256   1.012
    4SOL     OW   27   0.008   0.388   0.659
    4SOL    HW1   28   2.925   0.429   0.684
    4SOL    HW2   29   2.983   0.316   0.602
    5SOL     OW   30   0.570   1.285   1.174
    5SOL    HW1   31   0.480   1.281   1.141
    5SOL    HW2   32   0.579   1.374   1.208
    6SOL     OW   33   1.558   1.512   0.705
    6SOL    HW1   34   1.515   1.493   0.788
    6SOL    HW2   35   1.487   1.517   0.641
    7SOL     OW   36   1.131   0.699   0.700
    7SOL    HW1   37   1.180   0.780   0.690
    7SOL    HW2   38   1.082   0.711   0.782
    8SOL     OW   39   1.768   0.592   0.232
    8SOL    HW1   40   1.743   0.581   0.140
    8SOL    HW2   41   1.728   0.517   0.277
    9SOL     OW   42   0.766   1.147   1.044
    9SOL    HW1   43   0.693   1.178   1.097
    9SOL    HW2   44   0.792   1.224   0.993
   10SOL     OW   45   0.860   0.780   1.820
   10SOL    HW1   46   0.858   0.851   1.885
   10SOL    HW2   47   0.888   0.823   1.739
   11SOL     OW   48   0.686   1.005   0.650
   11SOL    HW1   49   0.749   0.992   0.720
   11SOL    HW2   50   0.615   1.055   0.690
   12SOL     OW   51   0.709   1.154   1.810
   12SOL    HW1   52   0.754   1.235   1.833
   12SOL    HW2   53   0.624   1.182   1.777
   13SOL     OW   54   0.333   1.427   1.072
   13SOL    HW1   55   0.266   1.379   1.023
   13SOL    HW2   56   0.382   1.474   1.005
   14SOL     OW   57   0.452   0.403   1.492
   14SOL    HW1   58   0.526   0.342   1.495
   14SOL    HW2   59   0.375   0.348   1.505
   15SOL     OW   60   1.611   0.457   0.736
   15SOL    HW1   61   1.536   0.480   0.681
   15SOL    HW2   62   1.625   0.534   0.791
   16SOL     OW   63   0.218   1.716   0.480
   16SOL    HW1   64   0.238   1.798   0.524
   16SOL    HW2   65   0.289   1.704   0.417
   17SOL     OW   66   0.251   1.450   0.530
   17SOL    HW1   67   0.213   1.538   0.524
   17SOL    HW2   68   0.190   1.401   0.585
   18SOL     OW   69   0.263   1.082   0.896
   18SOL    HW1   70   0.254   0.994   0.933
   18SOL    HW2   71   0.199   1.135   0.944
   19SOL     OW   72   0.623   1.787   1.439
   19SOL    HW1   73   0.536   1.769   1.477
   19SOL    HW2   74   0.638   1.879   1.457
   20SOL     OW   75   0.588   0.976   0.151
   20SOL    HW1   76   0.602   1.048   0.090
   20SOL    HW2   77   0.629   1.005   0.232
   21SOL     OW   78   1.552   0.146   1.458
   21SOL    HW1   79   1.590   0.222   1.413
   21SOL    HW2   80   1.622   0.114   1.514
   22SOL     OW   81   0.123   0.628   0.570
   22SOL    HW1   82   0.084   0.550   0.611
   22SOL    HW2   83   0.119   0.695   0.638
   23SOL     OW   84   1.845   1.758   0.336
   23SOL    HW1   85   1.904   1.725   0.403
   23SOL    HW2   86   1.869   1.850   0.325
   24SOL     OW   87   0.023   1.600   0.118
   24SOL    HW1   88   0.022   1.505   0.129
   24SOL    HW2   89   2.986   1.634   0.200
   25SOL     OW   90   1.688   0.917   0.638
   25SOL    HW1   91   1.773   0.878   0.620
   25SOL    HW2   92   1.667   0.969   0.560
   26SOL     OW   93   1.647   1.108   0.432
   26SOL    HW1   94   1.733   1.113   0.390
   26SOL    HW2   95   1.653   1.169   0.505
   27SOL     OW   96   0.131   0.747   1.589
   27SOL    HW1   97   0.226   0.760   1.591
   27SOL    HW2   98   0.095   0.836   1.591
   28SOL     OW   99   0.612   1.383   0.736
   28SOL    HW1  100   0.565   1.300   0.744
   28SOL    HW2  101   0.595   1.411   0.646
   29SOL     OW  102   0.819   0.013   0.516
   29SOL    HW1  103   0.851   0.102   0.500
   29SOL    HW2  104   0.725   0.017   0.499
   30SOL     OW  105   0.187   0.955   1.276
   30SOL    HW1  106   0.271   0.916   1.253
   30SOL    HW2  107   0.124   0.912   1.218
   31SOL     OW  108   1.506   1.007   0.211
   31SOL    HW1  109   1.441   0.949   0.250
   31SOL    HW2  110   1.560   1.036   0.285
   32SOL     OW  111   1.190   1.814   1.616
   32SOL    HW1  112   1.199   1.885   1.552
   32SOL    HW2  113   1.159   1.740   1.564
   33SOL     OW  114   0.333   0.253   1.796
   33SOL    HW1  115   0.383   0.330   1.824
   33SOL    HW2  116   0.249   0.261   1.841
   34SOL     OW  117   1.458   1.421   0.947
   34SOL    HW1  118   1.390   1.433   1.013
   34SOL    HW2  119   1.449   1.329   0.921
   35SOL     OW  120   1.660   1.736   0.578
   35SOL    HW1  121   1.639   1.707   0.489
   35SOL    HW2  122   1.635   1.662   0.633
   36SOL     OW  123   0.592   0.719   0.267
   36SOL    HW1  124   0.599   0.802   0.220
   36SOL    HW2  125   0.529   0.737   0.337
   37SOL     OW  126   1.286   0.344   0.930
   37SOL    HW1  127   1.194   0.318   0.938
   37SOL    HW2  128   1.330   0.292   0.998
   38SOL     OW  129   1.583   1.667   0.310
   38SOL    HW1  130   1.672   1.701   0.303
   38SOL    HW2  131   1.557   1.647   0.220
   39SOL     OW  132   0.792   0.619   1.454
   39SOL    HW1  133   0.764   0.595   1.543
   39SOL    HW2  134   0.751   0.553   1.398
   40SOL     OW  135   1.397   0.479   1.677
   40SOL    HW1  136   1.399   0.523   1.763
   40SOL    HW2  137   1.453   0.403   1.688
   41SOL     OW  138   0.959   0.889   1.583
   41SOL    HW1  139   1.013   0.817   1.549
   41SOL    HW2  140   0.908   0.919   1.508
   42SOL     OW  141   0.995   0.424   1.228
   42SOL    HW1  142   0.917   0.435   1.282
   42SOL    HW2  143   0.966   0.373   1.152
   43SOL     OW  144   1.049   0.706   0.424
   43SOL    HW1  145   1.066   0.695   0.518
   43SOL    HW2  146   0.969   0.656   0.409
   44SOL     OW  147   0.104   0.817   0.762
   44SOL    HW1  148   0.180   0.814   0.819
   44SOL    HW2  149   0.038   0.865   0.812
   45SOL     OW  150   0.139   1.836   1.571
   45SOL    HW1  151   0.125   1.816   1.663
   45SOL    HW2  152   0.054   1.865   1.539
   46SOL     OW  153   0.929   0.339   0.220
   46SOL    HW1  154   0.937   0.399   0.146
   46SOL    HW2  155   0.879   0.265   0.185
   47SOL     OW  156   1.711   0.577   1.828
   47SOL    HW1  157   1.673   0.653   1.784
   47SOL    HW2  158   1.736   0.518   1.757
   48SOL     OW  159   1.376   1.140   0.540
   48SOL    HW1  160   1.456   1.130   0.489
   48SOL    HW2  161   1.324   1.204   0.491
   49SOL     OW  162   0.512   0.198   0.915
   49SOL    HW1  163   0.536   0.212   1.007
   49SOL    HW2  164   0.549   0.272   0.868
   50SOL     OW  165   1.008   1.448   0.475
   50SOL    HW1  166   0.967   1.517   0.423
   50SOL    HW2  167   0.986   1.470   0.565
   51SOL     OW  168   0.354   1.808   0.856
   51SOL    HW1  169   0.399   1.724   0.868
   51SOL    HW2  170   0.420   1.874   0.875
   52SOL     OW  171   1.800   1.055   0.865
   52SOL    HW1  172   1.743   1.042   0.789
   52SOL    HW2  173   1.740   1.061   0.939
   53SOL     OW  174   0.319   0.948   0.234
   53SOL    HW1  175   0.410   0.956   0.206
   53SOL    HW2  176   0.292   0.861   0.204
   54SOL     OW  177   1.476   0.741   0.729
   54SOL    HW1  178   1.467   0.697   0.813
   54SOL    HW2  179   1.554   0.796   0.738
   55SOL     OW  180   0.467   1.261   1.734
   55SOL    HW1  181   0.438   1.268   1.642
   55SOL    HW2  182   0.387   1.267   1.785
   56SOL     OW  183   1.111   1.776   0.224
   56SOL    HW1  184   1.051   1.728   0.281
   56SOL    HW2  185   1.142   1.710   0.161
   57SOL     OW  186   0.202   0.298   1.495
   57SOL    HW1  187   0.118   0.343   1.492
   57SOL    HW2  188   0.186   0.221   1.550
   58SOL     OW  189   1.626   1.362   0.085
   58SOL    HW1  190   1.600   1.453   0.076
   58SOL    HW2  191   1.545   1.312   0.079
   59SOL     OW  192   0.466   1.722   0.335
   59SOL    HW1  193   0.500   1.792   0.391
   59SOL    HW2  194   0.532   1.714   0.266
   60SOL     OW  195   1.409   0.108   0.437
   60SOL    HW1  196   1.392   0.083   0.346
   60SOL    HW2  197   1.503   0.126   0.439
   61SOL     OW  198   0.268   1.797   1.233
   61SOL    HW1  199   0.302   1.721   1.280
   61SOL    HW2  200   0.225   1.760   1.156
   62SOL     OW  201   0.939   1.697   0.900
   62SOL    HW1  202   1.019   1.647   0.913
   62SOL    HW2  203   0.892   1.649   0.831
   63SOL     OW  204   0.393   0.691   0.474
   63SOL    HW1  205   0.423   0.601   0.492
   63SOL    HW2  206   0.301   0.690   0.497
   64SOL     OW  207   1.538   0.251   1.735
   64SOL    HW1  208   1.540   0.258   1.831
   64SOL    HW2  209   1.485   0.173   1.718
   65SOL     OW  210   0.609   0.110   0.106
   65SOL    HW1  211   0.704   0.108   0.117
   65SOL    HW2  212   0.596   0.149   0.019
   66SOL     OW  213   0.765   0.271   1.749
   66SOL    HW1  214   0.841   0.215   1.763
   66SOL    HW2  215   0.725   0.279   1.836
   67SOL     OW  216   0.877   1.521   1.192
   67SOL    HW1  217   0.857   1.490   1.104
   67SOL    HW2  218   0.951   1.468   1.220
   68SOL     OW  219   1.341   0.588   1.432
   68SOL    HW1  220   1.371   0.557   1.517
   68SOL    HW2  221   1.377   0.676   1.425
   69SOL     OW  222   0.815   1.397   0.936
   69SOL    HW1  223   0.898   1.388   0.889
   69SOL    HW2  224   0.748   1.397   0.868
   70SOL     OW  225   0.927   0.511   0.903
   70SOL    HW1  226   0.905   0.504   0.810
   70SOL    HW2  227   0.959   0.424   0.927
   71SOL     OW  228   0.541   0.047   0.498
   71SOL    HW1  229   0.455   0.039   0.539
   71SOL    HW2  230   0.534   0.123   0.441
   72SOL     OW  231   1.410   1.208   0.049
   72SOL    HW1  232   1.429   1.133   0.104
   72SOL    HW2  233   1.322   1.235   0.075
   73SOL     OW  234   0.298   0.082   0.199
   73SOL    HW1  235   0.382   0.128   0.196
   73SOL    HW2  236   0.321   2.989   0.194
   74SOL     OW  237   0.947   0.252   0.474
   74SOL    HW1  238   0.925   0.289   0.389
   74SOL    HW2  239   1.042   0.263   0.481
   75SOL     OW  240   1.080   0.680   1.458
   75SOL    HW1  241   1.011   0.614   1.466
   75SOL    HW2  242   1.161   0.629   1.452
   76SOL     OW  243   1.222   1.574   0.797
   76SOL    HW1  244   1.237   1.637   0.728
   76SOL    HW2  245   1.297   1.584   0.856
   77SOL     OW  246   0.468   1.148   0.737
   77SOL    HW1  247   0.397   1.128   0.798
   77SOL    HW2  248   0.430   1.135   0.650
   78SOL     OW  249   1.269   1.794   0.605
   78SOL    HW1  250   1.316   1.856   0.549
   78SOL    HW2  251   1.205   1.849   0.651
   79SOL     OW  252   1.046   0.498   0.031
   79SOL    HW1  253   1.003   0.583   0.024
   79SOL    HW2  254   1.114   0.510   0.098
   80SOL     OW  255   0.081   0.566   1.390
   80SOL    HW1  256   0.171   0.561   1.356
   80SOL    HW2  257   0.086   0.630   1.461
   81SOL     OW  258   0.581   0.211   1.180
   81SOL    HW1  259   0.617   0.171   1.259
   81SOL    HW2  260   0.487   0.220   1.198
   82SOL     OW  261   0.877   0.472   0.638
   82SOL    HW1  262   0.821   0.517   0.575
   82SOL    HW2  263   0.885   0.383   0.604
   83SOL     OW  264   0.997   0.057   0.765
   83SOL    HW1  265   0.962   0.066   0.677
   83SOL    HW2  266   0.974   2.968   0.792
   84SOL     OW  267   1.433   1.163   0.858
   84SOL    HW1  268   1.370   1.092   0.851
   84SOL    HW2  269   1.463   1.177   0.768
   85SOL     OW  270   1.468   0.604   0.978
   85SOL    HW1  271   1.417   0.523   0.985
   85SOL    HW2  272   1.528   0.600   1.053
   86SOL     OW  273   1.845   0.816   0.383
   86SOL    HW1  274   1.901   0.761   0.436
   86SOL    HW2  275   1.820   0.761   0.309
   87SOL     OW  276   0.489   1.407   0.152
   87SOL    HW1  277   0.425   1.375   0.215
   87SOL    HW2  278   0.440   1.416   0.070
   88SOL     OW  279   1.668   1.265   0.651
   88SOL    HW1  280   1.763   1.267   0.663
   88SOL    HW2  281   1.639   1.354   0.670
   89SOL     OW  282   1.414   0.574   0.098
   89SOL    HW1  283   1.343   0.568   0.162
   89SOL    HW2  284   1.459   0.490   0.103
   90SOL     OW  285   0.527   0.262   0.325
   90SOL    HW1  286   0.570   0.214   0.254
   90SOL    HW2  287   0.500   0.344   0.285
   91SOL     OW  288   1.745   1.231   1.565
   91SOL    HW1  289   1.839   1.212   1.572
   91SOL    HW2  290   1.731   1.303   1.627
   92SOL     OW  291   1.076   1.340   1.368
   92SOL    HW1  292   0.984   1.327   1.391
   92SOL    HW2  293   1.110   1.251   1.355
   93SOL     OW  294   1.121   1.219   1.107
   93SOL    HW1  295   1.034   1.219   1.148
   93SOL    HW2  296   1.104   1.234   1.014
   94SOL     OW  297   1.628   1.092   1.072
   94SOL    HW1  298   1.625   1.156   1.143
   94SOL    HW2  299   1.549   1.110   1.021
   95SOL     OW  300   0.899   0.111   1.385
   95SOL    HW1  301   0.940   0.092   1.300
   95SOL    HW2  302   0.963   0.165   1.431
   96SOL     OW  303   0.986   1.126   1.710
   96SOL    HW1  304   0.895   1.136   1.740
   96SOL    HW2  305   0.987   1.042   1.664
   97SOL     OW  306   0.704   1.063   0.379
   97SOL    HW1  307   0.690   1.049   0.472
   97SOL    HW2  308   0.784   1.015   0.359
   98SOL     OW  309   0.421   0.813   1.248
   98SOL    HW1  310   0.487   0.824   1.316
   98SOL    HW2  311   0.384   0.726   1.264
   99SOL     OW  312   1.272   0.388   1.259
   99SOL    HW1  313   1.300   0.459   1.316
   99SOL    HW2  314   1.177   0.401   1.249
  100SOL     OW  315   0.067   1.573   1.310
  100SOL    HW1  316   0.024   1.652   1.343
  100SOL    HW2  317   0.155   1.575   1.348
  101SOL     OW  318   0.360   1.111   0.489
  101SOL    HW1  319   0.347   1.184   0.428
  101SOL    HW2  320   0.353   1.033   0.434
  102SOL     OW  321   0.552   0.541   0.862
  102SOL    HW1  322   0.570   0.596   0.786
  102SOL    HW2  323   0.618   0.567   0.926
  103SOL     OW  324   1.247   1.346   0.397
  103SOL    HW1  325   1.303   1.419   0.423
  103SOL    HW2  326   1.160   1.370   0.428
  104SOL     OW  327   1.271   1.449   1.144
  104SOL    HW1  328   1.306   1.434   1.231
  104SOL    HW2  329   1.214   1.374   1.127
  105SOL     OW  330   1.583   0.626   0.479
  105SOL    HW1  331   1.538   0.682   0.541
  105SOL    HW2  332   1.630   0.686   0.422
  106SOL     OW  333   0.349   1.529   1.320
  106SOL    HW1  334   0.331   1.487   1.236
  106SOL    HW2  335   0.444   1.539   1.322
  107SOL     OW  336   0.412   0.740   1.602
  107SOL    HW1  337   0.469   0.790   1.543
  107SOL    HW2  338   0.460   0.658   1.618
  108SOL     OW  339   1.600   0.778   1.681
  108SOL    HW1  340   1.511   0.812   1.673
  108SOL    HW2  341   1.650   0.823   1.612
  109SOL     OW  342   1.005   0.112   1.761
  109SOL    HW1  343   1.049   0.194   1.738
  109SOL    HW2  344   1.024   0.053   1.689
  110SOL     OW  345   0.504   0.051   1.750
  110SOL    HW1  346   0.471   2.988   1.686
  110SOL    HW2  347   0.436   0.117   1.757
  111SOL     OW  348   0.586   0.871   1.032
  111SOL    HW1  349   0.606   0.964   1.027
  111SOL    HW2  350   0.526   0.863   1.107
  112SOL     OW  351   1.357   0.862   1.034
  112SOL    HW1  352   1.277   0.850   0.984
  112SOL    HW2  353   1.399   0.776   1.034
  113SOL     OW  354   1.205   0.531   0.271
  113SOL    HW1  355   1.214   0.450   0.322
  113SOL    HW2  356   1.162   0.592   0.330
  114SOL     OW  357   0.326   0.206   1.249
  114SOL    HW1  358   0.291   0.252   1.326
  114SOL    HW2  359   0.274   0.126   1.244
  115SOL     OW  360   0.031   1.305   1.279
  115SOL    HW1  361   0.066   1.259   1.356
  115SOL    HW2  362   0.042   1.398   1.299
  116SOL     OW  363   0.726   0.631   1.059
  116SOL    HW1  364   0.799   0.614   1.000
  116SOL    HW2  365   0.698   0.720   1.037
  117SOL     OW  366   1.734   0.960   1.852
  117SOL    HW1  367   1.685   0.904   1.792
  117SOL    HW2  368   1.675   0.973   1.926
  118SOL     OW  369   0.308   0.072   0.642
  118SOL    HW1  370   0.304   0.157   0.685
  118SOL    HW2  371   0.283   0.010   0.710
  119SOL     OW  372   1.616   0.375   0.367
  119SOL    HW1  373   1.646   0.310   0.431
  119SOL    HW2  374   1.591   0.451   0.419
  120SOL     OW  375   1.027   0.760   0.962
  120SOL    HW1  376   1.026   0.776   1.057
  120SOL    HW2  377   1.001   0.668   0.954
  121SOL     OW  378   1.013   1.547   1.687
  121SOL    HW1  379   0.974   1.603   1.620
  121SOL    HW2  380   0.950   1.475   1.697
  122SOL     OW  381   0.356   0.916   1.808
  122SOL    HW1  382   0.438   0.934   1.856
  122SOL    HW2  383   0.381   0.851   1.742
  123SOL     OW  384   1.498   0.304   0.125
  123SOL    HW1  385   1.461   0.217   0.140
  123SOL    HW2  386   1.556   0.318   0.200
  124SOL     OW  387   1.292   0.822   0.034
  124SOL    HW1  388   1.335   0.738   0.048
  124SOL    HW2  389   1.323   0.850   2.948
  125SOL     OW  390   1.070   1.333   0.854
  125SOL    HW1  391   1.069   1.262   0.790
  125SOL    HW2  392   1.128   1.399   0.816
  126SOL     OW  393   0.310   0.807   0.948
  126SOL    HW1  394   0.404   0.826   0.942
  126SOL    HW2  395   0.306   0.719   0.986
  127SOL     OW  396   0.334   0.514   1.017
  127SOL    HW1  397   0.294   0.431   0.993
  127SOL    HW2  398   0.408   0.524   0.957
  128SOL     OW  399   1.141   0.381   1.702
  128SOL    HW1  400   1.095   0.436   1.765
  128SOL    HW2  401   1.227   0.421   1.693
  129SOL     OW  402   1.099   0.255   1.472
  129SOL    HW1  403   1.120   0.307   1.550
  129SOL    HW2  404   1.184   0.232   1.435
  130SOL     OW  405   0.009   1.315   0.171
  130SOL    HW1  406   2.917   1.330   0.149
  130SOL    HW2  407   0.007   1.240   0.231
  131SOL     OW  408   0.099   1.806   0.971
  131SOL    HW1  409   0.058   1.741   0.914
  131SOL    HW2  410   0.185   1.822   0.931
  132SOL     OW  411   0.495   1.573   0.902
  132SOL    HW1  412   0.564   1.634   0.929
  132SOL    HW2  413   0.540   1.509   0.847
  133SOL     OW  414   0.984   0.798   1.229
  133SOL    HW1  415   1.040   0.770   1.302
  133SOL    HW2  416   0.901   0.754   1.244
  134SOL     OW  417   0.044   0.560   1.107
  134SOL    HW1  418   0.133   0.536   1.083
  134SOL    HW2  419   0.040   0.543   1.201
  135SOL     OW  420   0.191   0.519   1.720
  135SOL    HW1  421   0.265   0.492   1.664
  135SOL    HW2  422   0.159   0.600   1.681
  136SOL     OW  423   1.361   0.914   1.655
  136SOL    HW1  424   1.397   1.002   1.659
  136SOL    HW2  425   1.362   0.892   1.561
  137SOL     OW  426   0.819   0.578   0.348
  137SOL    HW1  427   0.822   0.498   0.296
  137SOL    HW2  428   0.738   0.621   0.323
  138SOL     OW  429   1.643   0.603   1.187
  138SOL    HW1  430   1.630   0.544   1.262
  138SOL    HW2  431   1.730   0.580   1.154
  139SOL     OW  432   0.284   1.560   1.747
  139SOL    HW1  433   0.222   1.617   1.792
  139SOL    HW2  434   0.254   1.471   1.768
  140SOL     OW  435   0.697   0.456   1.263
  140SOL    HW1  436   0.650   0.379   1.230
  140SOL    HW2  437   0.697   0.517   1.190
  141SOL     OW  438   0.943   1.683   1.461
  141SOL    HW1  439   0.905   1.648   1.380
  141SOL    HW2  440   0.927   1.777   1.455
  142SOL     OW  441   0.450   0.495   0.200
  142SOL    HW1  442   0.511   0.565   0.221
  142SOL    HW2  443   0.366   0.539   0.187
  143SOL     OW  444   0.161   1.144   1.465
  143SOL    HW1  445   0.143   1.097   1.546
  143SOL    HW2  446   0.168   1.076   1.398
  144SOL     OW  447   1.326   1.056   1.225
  144SOL    HW1  448   1.351   0.991   1.160
  144SOL    HW2  449   1.255   1.105   1.184
  145SOL     OW  450   1.306   0.852   0.312
  145SOL    HW1  451   1.230   0.819   0.360
  145SOL    HW2  452   1.284   0.839   0.220
  146SOL     OW  453   1.243   1.731   1.120
  146SOL    HW1  454   1.323   1.756   1.074
  146SOL    HW2  455   1.247   1.635   1.125
  147SOL     OW  456   0.093   1.246   1.026
  147SOL    HW1  457   0.075   1.259   1.119
  147SOL    HW2  458   0.010   1.265   0.982
  148SOL     OW  459   0.686   1.670   1.721
  148SOL    HW1  460   0.623   1.740   1.733
  148SOL    HW2  461   0.724   1.685   1.635
  149SOL     OW  462   0.877   0.080   0.146
  149SOL    HW1  463   0.939   0.065   0.074
  149SOL    HW2  464   0.910   0.026   0.217
  150SOL     OW  465   1.713   0.141   0.505
  150SOL    HW1  466   1.784   0.142   0.440
  150SOL    HW2  467   1.729   0.062   0.557
  151SOL     OW  468   1.389   1.569   0.483
  151SOL    HW1  469   1.451   1.600   0.418
  151SOL    HW2  470   1.343   1.647   0.512
  152SOL     OW  471   0.122   1.798   1.843
  152SOL    HW1  472   0.081   1.729   1.894
  152SOL    HW2  473   0.180   1.842   1.905
  153SOL     OW  474   1.278   0.926   0.672
  153SOL    HW1  475   1.350   0.864   0.677
  153SOL    HW2  476   1.311   0.998   0.619
  154SOL     OW  477   0.817   1.279   1.421
  154SOL    HW1  478   0.789   1.311   1.507
  154SOL    HW2  479   0.742   1.295   1.364
  155SOL     OW  480   0.671   1.610   0.160
  155SOL    HW1  481   0.672   1.629   0.067
  155SOL    HW2  482   0.617   1.531   0.168
  156SOL     OW  483   1.850   0.155   0.967
  156SOL    HW1  484   1.853   0.073   0.918
  156SOL    HW2  485   1.768   0.196   0.939
  157SOL     OW  486   0.267   0.333   0.742
  157SOL    HW1  487   0.176   0.362   0.728
  157SOL    HW2  488   0.269   0.302   0.832
  158SOL     OW  489   1.206   1.603   0.034
  158SOL    HW1  490   1.199   1.513   0.066
  158SOL    HW2  491   1.154   1.603   2.953
  159SOL     OW  492   0.822   1.006   1.375
  159SOL    HW1  493   0.860   0.998   1.288
  159SOL    HW2  494   0.822   1.100   1.393
  160SOL     OW  495   0.922   0.928   0.305
  160SOL    HW1  496   0.987   0.965   0.245
  160SOL    HW2  497   0.970   0.863   0.355
  161SOL     OW  498   1.486   1.601   0.050
  161SOL    HW1  499   1.391   1.610   0.053
  161SOL    HW2  500   1.512   1.641   2.967
  162SOL     OW  501   0.376   1.304   1.488
  162SOL    HW1  502   0.356   1.384   1.439
  162SOL    HW2  503   0.299   1.249   1.475
  163SOL     OW  504   1.615   1.278   1.269
  163SOL    HW1  505   1.685   1.259   1.332
  163SOL    HW2  506   1.552   1.330   1.319
  164SOL     OW  507   1.050   1.106   0.707
  164SOL    HW1  508   0.979   1.054   0.745
  164SOL    HW2  509   1.112   1.042   0.673
  165SOL     OW  510   1.019   0.244   0.965
  165SOL    HW1  511   1.011   0.193   0.885
  165SOL    HW2  512   1.022   0.179   1.035
  166SOL     OW  513   0.603   1.492   0.485
  166SOL    HW1  514   0.642   1.441   0.414
  166SOL    HW2  515   0.537   1.546   0.442
  167SOL     OW  516   1.720   0.392   1.379
  167SOL    HW1  517   1.793   0.454   1.376
  167SOL    HW2  518   1.747   0.321   1.320
  168SOL     OW  519   0.267   1.332   0.293
  168SOL    HW1  520   0.178   1.337   0.258
  168SOL    HW2  521   0.263   1.378   0.377
  169SOL     OW  522   0.125   1.011   1.706
  169SOL    HW1  523   0.052   0.972   1.754
  169SOL    HW2  524   0.203   0.978   1.751
  170SOL     OW  525   0.663   0.211   1.492
  170SOL    HW1  526   0.745   0.180   1.453
  170SOL    HW2  527   0.685   0.227   1.584
  171SOL     OW  528   0.069   0.312   0.052
  171SOL    HW1  529   2.977   0.327   0.032
  171SOL    HW2  530   0.113   0.394   0.029
  172SOL     OW  531   1.429   0.857   1.396
  172SOL    HW1  532   1.384   0.925   1.347
  172SOL    HW2  533   1.520   0.861   1.366
  173SOL     OW  534   0.037   0.182   0.290
  173SOL    HW1  535   0.040   0.238   0.212
  173SOL    HW2  536   0.127   0.150   0.301
  174SOL     OW  537   1.183   1.347   0.125
  174SOL    HW1  538   1.089   1.336   0.114
  174SOL    HW2  539   1.198   1.337   0.219
  175SOL     OW  540   0.617   0.831   1.434
  175SOL    HW1  541   0.673   0.907   1.421
  175SOL    HW2  542   0.678   0.757   1.442
  176SOL     OW  543   1.482   1.771   0.975
  176SOL    HW1  544   1.508   1.833   0.907
  176SOL    HW2  545   1.565   1.744   1.016
  177SOL     OW  546   0.715   0.566   1.707
  177SOL    HW1  547   0.755   0.631   1.765
  177SOL    HW2  548   0.753   0.483   1.735
  178SOL     OW  549   1.487   1.147   1.640
  178SOL    HW1  550   1.470   1.172   1.730
  178SOL    HW2  551   1.575   1.181   1.622
  179SOL     OW  552   0.388   1.736   1.563
  179SOL    HW1  553   0.302   1.776   1.548
  179SOL    HW2  554   0.369   1.657   1.613
  180SOL     OW  555   1.671   0.882   1.255
  180SOL    HW1  556   1.664   0.795   1.214
  180SOL    HW2  557   1.662   0.943   1.182
  181SOL     OW  558   1.226   0.317   0.454
  181SOL    HW1  559   1.287   0.243   0.454
  181SOL    HW2  560   1.250   0.367   0.532
  182SOL     OW  561   0.592   0.740   0.667
  182SOL    HW1  562   0.630   0.827   0.653
  182SOL    HW2  563   0.521   0.735   0.603
  183SOL     OW  564   1.765   0.354   1.646
  183SOL    HW1  565   1.745   0.377   1.555
  183SOL    HW2  566   1.683   0.319   1.681
  184SOL     OW  567   1.745   0.933   1.512
  184SOL    HW1  568   1.744   1.028   1.526
  184SOL    HW2  569   1.730   0.923   1.418
  185SOL     OW  570   0.908   1.388   0.062
  185SOL    HW1  571   0.835   1.387   0.125
  185SOL    HW2  572   0.868   1.411   2.979
  186SOL     OW  573   0.659   1.792   0.947
  186SOL    HW1  574   0.636   1.882   0.923
  186SOL    HW2  575   0.754   1.788   0.938
  187SOL     OW  576   0.866   0.966   0.857
  187SOL    HW1  577   0.915   0.893   0.895
  187SOL    HW2  578   0.833   1.015   0.932
  188SOL     OW  579   1.099   1.017   0.102
  188SOL    HW1  580   1.065   1.057   0.021
  188SOL    HW2  581   1.166   0.955   0.072
  189SOL     OW  582   1.861   1.552   0.844
  189SOL    HW1  583   1.783   1.550   0.788
  189SOL    HW2  584   1.834   1.508   0.924
  190SOL     OW  585   0.226   1.302   1.855
  190SOL    HW1  586   0.177   1.224   1.830
  190SOL    HW2  587   0.211   1.312   1.949
  191SOL     OW  588   0.129   1.251   0.665
  191SOL    HW1  589   0.077   1.186   0.711
  191SOL    HW2  590   0.177   1.201   0.599
  192SOL     OW  591   0.684   1.404   1.624
  192SOL    HW1  592   0.606   1.355   1.650
  192SOL    HW2  593   0.675   1.489   1.665
  193SOL     OW  594   1.797   0.176   1.235
  193SOL    HW1  595   1.843   0.101   1.272
  193SOL    HW2  596   1.822   0.178   1.143
  194SOL     OW  597   0.463   0.432   0.547
  194SOL    HW1  598   0.453   0.370   0.475
  194SOL    HW2  599   0.405   0.399   0.616
  195SOL     OW  600   1.709   1.464   1.061
  195SOL    HW1  601   1.620   1.453   1.029
  195SOL    HW2  602   1.713   1.411   1.140
  196SOL     OW  603   0.333   0.555   1.291
  196SOL    HW1  604   0.389   0.500   1.346
  196SOL    HW2  605   0.351   0.526   1.202
  197SOL     OW  606   0.827   1.577   0.678
  197SOL    HW1  607   0.817   1.631   0.599
  197SOL    HW2  608   0.748   1.522   0.679
  198SOL     OW  609   1.428   0.214   1.128
  198SOL    HW1  610   1.450   0.145   1.190
  198SOL    HW2  611   1.379   0.278   1.180
  199SOL     OW  612   1.013   0.026   1.147
  199SOL    HW1  613   0.932   2.996   1.107
  199SOL    HW2  614   1.075   2.954   1.133
  200SOL     OW  615   0.765   1.329   0.314
  200SOL    HW1  616   0.733   1.240   0.330
  200SOL    HW2  617   0.852   1.331   0.355
  201SOL     OW  618   0.621   1.557   1.285
  201SOL    HW1  619   0.623   1.638   1.336
  201SOL    HW2  620   0.708   1.552   1.245
  202SOL     OW  621   1.359   0.056   0.169
  202SOL    HW1  622   1.414   2.981   0.149
  202SOL    HW2  623   1.270   0.027   0.151
  203SOL     OW  624   1.297   0.460   0.681
  203SOL    HW1  625   1.242   0.538   0.689
  203SOL    HW2  626   1.294   0.419   0.768
  204SOL     OW  627   1.605   0.230   0.887
  204SOL    HW1  628   1.526   0.231   0.942
  204SOL    HW2  629   1.595   0.306   0.830
  205SOL     OW  630   0.072   1.090   0.343
  205SOL    HW1  631   0.149   1.048   0.304
  205SOL    HW2  632   0.003   1.025   0.336
  206SOL     OW  633   0.883   1.653   0.344
  206SOL    HW1  634   0.812   1.631   0.284
  206SOL    HW2  635   0.849   1.726   0.395
  207SOL     OW  636   0.242   0.646   1.974
  207SOL    HW1  637   0.173   0.609   2.029
  207SOL    HW2  638   0.226   0.608   1.888
  208SOL     OW  639   0.237   0.249   2.850
  208SOL    HW1  640   0.251   0.231   2.943
  208SOL    HW2  641   0.142   0.240   2.839
  209SOL     OW  642   0.007   0.388   2.523
  209SOL    HW1  643   2.922   0.425   2.545
  209SOL    HW2  644   2.987   0.315   2.465
  210SOL     OW  645   1.559   1.510   2.568
  210SOL    HW1  646   1.512   1.492   2.649
  210SOL    HW2  647   1.491   1.516   2.501
  211SOL     OW  648   1.133   0.698   2.564
  211SOL    HW1  649   1.183   0.778   2.549
  211SOL    HW2  650   1.084   0.713   2.644
  212SOL     OW  651   1.766   0.606   2.093
  212SOL    HW1  652   1.746   0.599   1.999
  212SOL    HW2  653   1.732   0.525   2.131
  213SOL     OW  654   0.748   1.144   2.897
  213SOL    HW1  655   0.681   1.192   2.946
  213SOL    HW2  656   0.800   1.213   2.855
  214SOL     OW  657   0.684   1.007   2.508
  214SOL    HW1  658   0.749   0.993   2.577
  214SOL    HW2  659   0.614   1.056   2.552
  215SOL     OW  660   0.330   1.451   2.933
  215SOL    HW1  661   0.279   1.385   2.885
  215SOL    HW2  662   0.386   1.491   2.866
  216SOL     OW  663   1.615   0.457   2.594
  216SOL    HW1  664   1.542   0.479   2.537
  216SOL    HW2  665   1.611   0.521   2.665
  217SOL     OW  666   0.220   1.711   2.347
  217SOL    HW1  667   0.240   1.795   2.388
  217SOL    HW2  668   0.280   1.707   2.272
  218SOL     OW  669   0.253   1.446   2.387
  218SOL    HW1  670   0.220   1.536   2.386
  218SOL    HW2  671   0.192   1.399   2.444
  219SOL     OW  672   0.240   1.084   2.750
  219SOL    HW1  673   0.258   1.002   2.796
  219SOL    HW2  674   0.193   1.137   2.814
  220SOL     OW  675   0.586   0.982   1.995
  220SOL    HW1  676   0.631   1.031   1.927
  220SOL    HW2  677   0.627   1.011   2.077
  221SOL     OW  678   0.130   0.624   2.435
  221SOL    HW1  679   0.087   0.548   2.475
  221SOL    HW2  680   0.123   0.693   2.501
  222SOL     OW  681   1.843   1.760   2.199
  222SOL    HW1  682   1.905   1.732   2.265
  222SOL    HW2  683   1.868   1.850   2.179
  223SOL     OW  684   0.030   1.598   2.000
  223SOL    HW1  685   0.021   1.503   2.007
  223SOL    HW2  686   2.975   1.632   2.071
  224SOL     OW  687   1.688   0.917   2.499
  224SOL    HW1  688   1.774   0.878   2.479
  224SOL    HW2  689   1.667   0.969   2.422
  225SOL     OW  690   1.645   1.106   2.294
  225SOL    HW1  691   1.729   1.116   2.248
  225SOL    HW2  692   1.650   1.168   2.366
  226SOL     OW  693   0.609   1.381   2.593
  226SOL    HW1  694   0.562   1.298   2.602
  226SOL    HW2  695   0.594   1.408   2.502
  227SOL     OW  696   0.820   0.013   2.378
  227SOL    HW1  697   0.853   0.100   2.353
  227SOL    HW2  698   0.727   0.016   2.359
  228SOL     OW  699   1.536   0.985   2.066
  228SOL    HW1  700   1.463   0.931   2.097
  228SOL    HW2  701   1.573   1.023   2.146
  229SOL     OW  702   1.432   1.421   2.799
  229SOL    HW1  703   1.417   1.421   2.893
  229SOL    HW2  704   1.439   1.329   2.775
  230SOL     OW  705   1.659   1.737   2.441
  230SOL    HW1  706   1.637   1.708   2.352
  230SOL    HW2  707   1.635   1.663   2.497
  231SOL     OW  708   0.597   0.722   2.126
  231SOL    HW1  709   0.604   0.803   2.075
  231SOL    HW2  710   0.532   0.742   2.193
  232SOL     OW  711   1.295   0.337   2.810
  232SOL    HW1  712   1.200   0.325   2.801
  232SOL    HW2  713   1.315   0.300   2.896
  233SOL     OW  714   1.582   1.672   2.175
  233SOL    HW1  715   1.673   1.703   2.169
  233SOL    HW2  716   1.554   1.661   2.084
  234SOL     OW  717   1.049   0.698   2.290
  234SOL    HW1  718   1.065   0.691   2.384
  234SOL    HW2  719   0.967   0.651   2.275
  235SOL     OW  720   0.105   0.816   2.623
  235SOL    HW1  721   0.183   0.814   2.679
  235SOL    HW2  722   0.045   0.876   2.667
  236SOL     OW  723   0.872   0.354   2.044
  236SOL    HW1  724   0.928   0.416   1.998
  236SOL    HW2  725   0.916   0.270   2.035
  237SOL     OW  726   1.377   1.143   2.404
  237SOL    HW1  727   1.455   1.129   2.350
  237SOL    HW2  728   1.324   1.205   2.354
  238SOL     OW  729   0.561   0.201   2.841
  238SOL    HW1  730   0.503   0.272   2.867
  238SOL    HW2  731   0.582   0.219   2.749
  239SOL     OW  732   1.005   1.444   2.336
  239SOL    HW1  733   0.968   1.517   2.287
  239SOL    HW2  734   0.991   1.466   2.428
  240SOL     OW  735   0.353   1.802   2.715
  240SOL    HW1  736   0.400   1.719   2.729
  240SOL    HW2  737   0.416   1.869   2.741
  241SOL     OW  738   1.807   1.057   2.719
  241SOL    HW1  739   1.747   1.040   2.646
  241SOL    HW2  740   1.750   1.060   2.796
  242SOL     OW  741   0.315   0.949   2.109
  242SOL    HW1  742   0.397   0.975   2.067
  242SOL    HW2  743   0.295   0.864   2.069
  243SOL     OW  744   1.475   0.746   2.588
  243SOL    HW1  745   1.473   0.693   2.668
  243SOL    HW2  746   1.556   0.795   2.594
  244SOL     OW  747   1.117   1.784   2.101
  244SOL    HW1  748   1.047   1.741   2.150
  244SOL    HW2  749   1.140   1.723   2.031
  245SOL     OW  750   1.616   1.371   1.980
  245SOL    HW1  751   1.604   1.445   1.921
  245SOL    HW2  752   1.557   1.304   1.947
  246SOL     OW  753   0.466   1.739   2.182
  246SOL    HW1  754   0.507   1.795   2.248
  246SOL    HW2  755   0.539   1.710   2.127
  247SOL     OW  756   1.409   0.111   2.296
  247SOL    HW1  757   1.393   0.079   2.208
  247SOL    HW2  758   1.503   0.128   2.299
  248SOL     OW  759   0.264   1.799   0.099
  248SOL    HW1  760   0.301   1.728   0.153
  248SOL    HW2  761   0.200   1.755   0.043
  249SOL     OW  762   0.943   1.691   2.755
  249SOL    HW1  763   1.024   1.640   2.757
  249SOL    HW2  764   0.888   1.647   2.690
  250SOL     OW  765   0.394   0.692   2.337
  250SOL    HW1  766   0.425   0.603   2.353
  250SOL    HW2  767   0.301   0.689   2.360
  251SOL     OW  768   0.627   0.118   1.976
  251SOL    HW1  769   0.718   0.089   1.966
  251SOL    HW2  770   0.588   0.102   1.890
  252SOL     OW  771   0.805   1.397   2.793
  252SOL    HW1  772   0.892   1.390   2.754
  252SOL    HW2  773   0.745   1.393   2.719
  253SOL     OW  774   0.920   0.519   2.758
  253SOL    HW1  775   0.902   0.500   2.666
  253SOL    HW2  776   0.951   0.436   2.795
  254SOL     OW  777   0.545   0.061   2.369
  254SOL    HW1  778   0.457   0.044   2.402
  254SOL    HW2  779   0.533   0.130   2.303
  255SOL     OW  780   1.426   1.178   1.899
  255SOL    HW1  781   1.447   1.114   1.966
  255SOL    HW2  782   1.351   1.227   1.935
  256SOL     OW  783   0.288   0.034   2.054
  256SOL    HW1  784   0.340   0.108   2.023
  256SOL    HW2  785   0.353   2.971   2.085
  257SOL     OW  786   0.939   0.256   2.322
  257SOL    HW1  787   0.912   0.300   2.242
  257SOL    HW2  788   1.034   0.266   2.325
  258SOL     OW  789   1.218   1.586   2.672
  258SOL    HW1  790   1.243   1.643   2.599
  258SOL    HW2  791   1.300   1.566   2.716
  259SOL     OW  792   0.462   1.146   2.601
  259SOL    HW1  793   0.390   1.129   2.661
  259SOL    HW2  794   0.425   1.130   2.514
  260SOL     OW  795   1.271   1.795   2.468
  260SOL    HW1  796   1.315   1.856   2.409
  260SOL    HW2  797   1.205   1.848   2.512
  261SOL     OW  798   1.022   0.549   1.887
  261SOL    HW1  799   0.982   0.634   1.868
  261SOL    HW2  800   1.088   0.567   1.953
  262SOL     OW  801   0.871   0.467   2.497
  262SOL    HW1  802   0.823   0.515   2.430
  262SOL    HW2  803   0.888   0.381   2.457
  263SOL     OW  804   0.998   0.050   2.623
  263SOL    HW1  805   0.964   0.058   2.533
  263SOL    HW2  806   0.974   2.961   2.650
  264SOL     OW  807   1.439   1.159   2.711
  264SOL    HW1  808   1.363   1.101   2.703
  264SOL    HW2  809   1.468   1.174   2.621
  265SOL     OW  810   1.487   0.585   2.818
  265SOL    HW1  811   1.423   0.514   2.822
  265SOL    HW2  812   1.505   0.606   2.910
  266SOL     OW  813   1.849   0.817   2.245
  266SOL    HW1  814   1.906   0.763   2.301
  266SOL    HW2  815   1.818   0.756   2.178
  267SOL     OW  816   0.492   1.414   2.024
  267SOL    HW1  817   0.415   1.385   2.074
  267SOL    HW2  818   0.469   1.397   1.932
  268SOL     OW  819   1.669   1.264   2.510
  268SOL    HW1  820   1.764   1.270   2.522
  268SOL    HW2  821   1.637   1.353   2.529
  269SOL     OW  822   1.394   0.570   1.934
  269SOL    HW1  823   1.333   0.553   2.005
  269SOL    HW2  824   1.478   0.537   1.966
  270SOL     OW  825   0.525   0.263   2.182
  270SOL    HW1  826   0.566   0.212   2.112
  270SOL    HW2  827   0.505   0.347   2.142
  271SOL     OW  828   1.649   1.106   2.930
  271SOL    HW1  829   1.648   1.172   3.000
  271SOL    HW2  830   1.563   1.113   2.889
  272SOL     OW  831   0.708   1.061   2.234
  272SOL    HW1  832   0.695   1.046   2.327
  272SOL    HW2  833   0.784   1.008   2.211
  273SOL     OW  834   0.348   1.109   2.353
  273SOL    HW1  835   0.355   1.181   2.291
  273SOL    HW2  836   0.354   1.030   2.299
  274SOL     OW  837   0.543   0.547   2.731
  274SOL    HW1  838   0.565   0.595   2.651
  274SOL    HW2  839   0.616   0.565   2.791
  275SOL     OW  840   1.247   1.346   2.259
  275SOL    HW1  841   1.303   1.420   2.284
  275SOL    HW2  842   1.160   1.370   2.290
  276SOL     OW  843   1.583   0.626   2.340
  276SOL    HW1  844   1.537   0.682   2.401
  276SOL    HW2  845   1.625   0.686   2.279
  277SOL     OW  846   0.577   0.873   2.880
  277SOL    HW1  847   0.617   0.956   2.854
  277SOL    HW2  848   0.556   0.885   2.972
  278SOL     OW  849   1.209   0.534   2.132
  278SOL    HW1  850   1.214   0.453   2.183
  278SOL    HW2  851   1.164   0.596   2.190
  279SOL     OW  852   0.730   0.641   2.917
  279SOL    HW1  853   0.799   0.615   2.855
  279SOL    HW2  854   0.698   0.725   2.884
  280SOL     OW  855   0.307   0.070   2.505
  280SOL    HW1  856   0.302   0.156   2.548
  280SOL    HW2  857   0.281   0.008   2.572
  281SOL     OW  858   1.608   0.374   2.232
  281SOL    HW1  859   1.648   0.314   2.294
  281SOL    HW2  860   1.590   0.453   2.283
  282SOL     OW  861   1.020   0.763   2.818
  282SOL    HW1  862   1.023   0.770   2.914
  282SOL    HW2  863   0.993   0.673   2.801
  283SOL     OW  864   1.528   0.273   1.996
  283SOL    HW1  865   1.465   0.207   2.026
  283SOL    HW2  866   1.563   0.310   2.077
  284SOL     OW  867   1.291   0.824   1.900
  284SOL    HW1  868   1.335   0.739   1.903
  284SOL    HW2  869   1.316   0.860   1.814
  285SOL     OW  870   1.050   1.349   2.696
  285SOL    HW1  871   1.062   1.267   2.648
  285SOL    HW2  872   1.127   1.401   2.674
  286SOL     OW  873   0.311   0.811   2.811
  286SOL    HW1  874   0.405   0.829   2.810
  286SOL    HW2  875   0.304   0.721   2.845
  287SOL     OW  876   0.318   0.521   2.874
  287SOL    HW1  877   0.288   0.432   2.852
  287SOL    HW2  878   0.397   0.534   2.822
  288SOL     OW  879   2.994   1.319   2.039
  288SOL    HW1  880   2.901   1.322   2.015
  288SOL    HW2  881   0.002   1.238   2.090
  289SOL     OW  882   0.094   1.822   2.811
  289SOL    HW1  883   0.057   1.742   2.772
  289SOL    HW2  884   0.185   1.823   2.782
  290SOL     OW  885   0.503   1.575   2.761
  290SOL    HW1  886   0.573   1.635   2.785
  290SOL    HW2  887   0.546   1.508   2.707
  291SOL     OW  888   0.974   0.749   0.087
  291SOL    HW1  889   1.026   0.752   0.168
  291SOL    HW2  890   0.886   0.774   0.114
  292SOL     OW  891   0.815   0.568   2.218
  292SOL    HW1  892   0.816   0.495   2.156
  292SOL    HW2  893   0.741   0.623   2.189
  293SOL     OW  894   0.697   0.435   0.088
  293SOL    HW1  895   0.602   0.435   0.102
  293SOL    HW2  896   0.713   0.511   0.033
  294SOL     OW  897   0.466   0.494   2.049
  294SOL    HW1  898   0.528   0.564   2.068
  294SOL    HW2  899   0.382   0.538   2.038
  295SOL     OW  900   1.310   0.856   2.171
  295SOL    HW1  901   1.232   0.826   2.219
  295SOL    HW2  902   1.288   0.843   2.079
  296SOL     OW  903   1.738   1.769   2.971
  296SOL    HW1  904   1.813   1.789   2.915
  296SOL    HW2  905   1.767   1.694   0.023
  297SOL     OW  906   0.072   1.247   2.904
  297SOL    HW1  907   0.046   1.277   2.991
  297SOL    HW2  908   0.003   1.281   2.845
  298SOL     OW  909   1.721   0.145   2.366
  298SOL    HW1  910   1.782   0.141   2.292
  298SOL    HW2  911   1.735   0.063   2.413
  299SOL     OW  912   1.391   1.567   2.348
  299SOL    HW1  913   1.451   1.596   2.280
  299SOL    HW2  914   1.343   1.647   2.373
  300SOL     OW  915   1.277   0.927   2.532
  300SOL    HW1  916   1.350   0.866   2.540
  300SOL    HW2  917   1.311   0.999   2.479
  301SOL     OW  918   0.671   1.618   2.018
  301SOL    HW1  919   0.681   1.628   1.923
  301SOL    HW2  920   0.618   1.539   2.028
  302SOL     OW  921   1.853   0.162   2.814
  302SOL    HW1  922   1.852   0.075   2.772
  302SOL    HW2  923   1.767   0.199   2.793
  303SOL     OW  924   0.270   0.333   2.598
  303SOL    HW1  925   0.180   0.365   2.589
  303SOL    HW2  926   0.275   0.302   2.688
  304SOL     OW  927   1.175   1.611   1.908
  304SOL    HW1  928   1.224   1.529   1.906
  304SOL    HW2  929   1.122   1.608   1.828
  305SOL     OW  930   0.915   0.910   2.152
  305SOL    HW1  931   0.975   0.940   2.084
  305SOL    HW2  932   0.963   0.840   2.197
  306SOL     OW  933   1.500   1.666   1.909
  306SOL    HW1  934   1.421   1.613   1.906
  306SOL    HW2  935   1.555   1.632   1.839
  307SOL     OW  936   1.052   1.105   2.571
  307SOL    HW1  937   0.979   1.053   2.606
  307SOL    HW2  938   1.113   1.040   2.536
  308SOL     OW  939   1.020   0.249   2.808
  308SOL    HW1  940   1.013   0.182   2.740
  308SOL    HW2  941   1.044   0.201   2.887
  309SOL     OW  942   0.603   1.489   2.341
  309SOL    HW1  943   0.641   1.440   2.268
  309SOL    HW2  944   0.531   1.538   2.302
  310SOL     OW  945   0.254   1.344   2.143
  310SOL    HW1  946   0.159   1.343   2.128
  310SOL    HW2  947   0.263   1.383   2.230
  311SOL     OW  948   0.099   0.325   1.911
  311SOL    HW1  949   0.015   0.295   1.875
  311SOL    HW2  950   0.112   0.412   1.873
  312SOL     OW  951   0.014   0.216   2.142
  312SOL    HW1  952   0.062   0.261   2.074
  312SOL    HW2  953   0.069   0.140   2.164
  313SOL     OW  954   1.179   1.323   1.990
  313SOL    HW1  955   1.086   1.301   1.995
  313SOL    HW2  956   1.206   1.333   2.081
  314SOL     OW  957   1.505   1.780   2.831
  314SOL    HW1  958   1.516   1.834   2.753
  314SOL    HW2  959   1.588   1.789   2.878
  315SOL     OW  960   1.715   0.848   0.061
  315SOL    HW1  961   1.636   0.817   0.105
  315SOL    HW2  962   1.697   0.940   0.041
  316SOL     OW  963   1.222   0.318   2.318
  316SOL    HW1  964   1.284   0.244   2.317
  316SOL    HW2  965   1.246   0.368   2.396
  317SOL     OW  966   0.592   0.740   2.529
  317SOL    HW1  967   0.631   0.826   2.514
  317SOL    HW2  968   0.522   0.734   2.464
  318SOL     OW  969   0.848   1.382   1.892
  318SOL    HW1  970   0.818   1.373   1.983
  318SOL    HW2  971   0.891   1.468   1.889
  319SOL     OW  972   0.663   1.795   2.822
  319SOL    HW1  973   0.640   1.883   2.792
  319SOL    HW2  974   0.757   1.787   2.805
  320SOL     OW  975   0.862   0.966   2.715
  320SOL    HW1  976   0.913   0.894   2.753
  320SOL    HW2  977   0.832   1.016   2.791
  321SOL     OW  978   1.071   0.983   1.943
  321SOL    HW1  979   1.065   1.046   1.871
  321SOL    HW2  980   1.152   0.934   1.926
  322SOL     OW  981   1.855   1.556   2.710
  322SOL    HW1  982   1.777   1.544   2.657
  322SOL    HW2  983   1.862   1.476   2.762
  323SOL     OW  984   0.129   1.249   2.522
  323SOL    HW1  985   0.090   1.184   2.581
  323SOL    HW2  986   0.188   1.198   2.466
  324SOL     OW  987   1.811   0.186   0.083
  324SOL    HW1  988   1.833   0.100   0.119
  324SOL    HW2  989   1.829   0.179   2.989
  325SOL     OW  990   0.462   0.435   2.404
  325SOL    HW1  991   0.455   0.370   2.334
  325SOL    HW2  992   0.410   0.399   2.475
  326SOL     OW  993   0.819   1.583   2.538
  326SOL    HW1  994   0.815   1.628   2.453
  326SOL    HW2  995   0.744   1.524   2.537
  327SOL     OW  996   0.779   1.328   2.164
  327SOL    HW1  997   0.743   1.241   2.178
  327SOL    HW2  998   0.855   1.333   2.222
  328SOL     OW  999   1.346   0.047   2.029
  328SOL    HW1 1000   1.413   2.985   1.999
  328SOL    HW2 1001   1.266   2.995   2.033
  329SOL     OW 1002   1.297   0.456   2.548
  329SOL    HW1 1003   1.243   0.535   2.554
  329SOL    HW2 1004   1.294   0.417   2.635
  330SOL     OW 1005   1.599   0.235   2.750
  330SOL    HW1 1006   1.508   0.233   2.780
  330SOL    HW2 1007   1.602   0.309   2.689
  331SOL     OW 1008   0.064   1.079   2.156
  331SOL    HW1 1009   0.153   1.043   2.162
  331SOL    HW2 1010   0.010   1.016   2.203
  332SOL     OW 1011   0.880   1.650   2.209
  332SOL    HW1 1012   0.809   1.634   2.147
  332SOL    HW2 1013   0.851   1.728   2.257
  333SOL     OW 1014   0.238   2.518   0.100
  333SOL    HW1 1015   0.170   2.473   0.150
  333SOL    HW2 1016   0.250   2.464   0.021
  334SOL     OW 1017   0.211   2.137   0.990
  334SOL    HW1 1018   0.244   2.107   1.075
  334SOL    HW2 1019   0.123   2.099   0.983
  335SOL     OW 1020   0.015   2.249   0.647
  335SOL    HW1 1021   2.929   2.285   0.667
  335SOL    HW2 1022   2.996   2.166   0.602
  336SOL     OW 1023   1.134   2.569   0.701
  336SOL    HW1 1024   1.180   2.653   0.694
  336SOL    HW2 1025   1.082   2.577   0.781
  337SOL     OW 1026   1.763   2.453   0.227
  337SOL    HW1 1027   1.745   2.434   0.135
  337SOL    HW2 1028   1.727   2.378   0.274
  338SOL     OW 1029   0.759   0.012   1.032
  338SOL    HW1 1030   0.678   0.047   1.070
  338SOL    HW2 1031   0.781   0.074   0.962
  339SOL     OW 1032   0.868   2.635   1.823
  339SOL    HW1 1033   0.845   2.699   1.891
  339SOL    HW2 1034   0.891   2.689   1.747
  340SOL     OW 1035   0.649   2.852   0.712
  340SOL    HW1 1036   0.744   2.855   0.724
  340SOL    HW2 1037   0.629   2.929   0.659
  341SOL     OW 1038   0.475   2.273   1.487
  341SOL    HW1 1039   0.544   2.207   1.491
  341SOL    HW2 1040   0.394   2.223   1.503
  342SOL     OW 1041   1.612   2.309   0.740
  342SOL    HW1 1042   1.536   2.334   0.687
  342SOL    HW2 1043   1.632   2.387   0.792
  343SOL     OW 1044   0.215   0.318   0.460
  343SOL    HW1 1045   0.214   0.387   0.527
  343SOL    HW2 1046   0.204   0.237   0.509
  344SOL     OW 1047   0.230   2.942   0.876
  344SOL    HW1 1048   0.259   2.862   0.919
  344SOL    HW2 1049   0.205   0.000   0.948
  345SOL     OW 1050   0.616   2.833   0.150
  345SOL    HW1 1051   0.599   2.925   0.131
  345SOL    HW2 1052   0.684   2.834   0.217
  346SOL     OW 1053   1.584   1.989   1.472
  346SOL    HW1 1054   1.601   2.066   1.417
  346SOL    HW2 1055   1.579   2.023   1.561
  347SOL     OW 1056   0.117   2.496   0.564
  347SOL    HW1 1057   0.095   2.411   0.602
  347SOL    HW2 1058   0.115   2.557   0.638
  348SOL     OW 1059   1.702   2.805   0.623
  348SOL    HW1 1060   1.779   2.750   0.635
  348SOL    HW2 1061   1.695   2.816   0.528
  349SOL     OW 1062   0.130   2.609   1.587
  349SOL    HW1 1063   0.225   2.622   1.591
  349SOL    HW2 1064   0.093   2.694   1.609
  350SOL     OW 1065   0.661   0.244   0.686
  350SOL    HW1 1066   0.597   0.177   0.710
  350SOL    HW2 1067   0.614   0.301   0.626
  351SOL     OW 1068   1.305   0.052   1.449
  351SOL    HW1 1069   1.321   2.993   1.375
  351SOL    HW2 1070   1.389   0.097   1.463
  352SOL     OW 1071   0.814   1.861   0.510
  352SOL    HW1 1072   0.853   1.947   0.493
  352SOL    HW2 1073   0.720   1.879   0.516
  353SOL     OW 1074   0.189   2.835   1.257
  353SOL    HW1 1075   0.273   2.789   1.249
  353SOL    HW2 1076   0.124   2.771   1.230
  354SOL     OW 1077   1.522   2.842   0.206
  354SOL    HW1 1078   1.453   2.797   0.256
  354SOL    HW2 1079   1.590   2.859   0.271
  355SOL     OW 1080   0.339   2.111   1.809
  355SOL    HW1 1081   0.384   2.193   1.828
  355SOL    HW2 1082   0.252   2.122   1.847
  356SOL     OW 1083   0.592   2.582   0.271
  356SOL    HW1 1084   0.595   2.662   0.219
  356SOL    HW2 1085   0.526   2.598   0.337
  357SOL     OW 1086   1.279   2.213   0.933
  357SOL    HW1 1087   1.190   2.179   0.941
  357SOL    HW2 1088   1.330   2.160   0.994
  358SOL     OW 1089   0.792   2.478   1.453
  358SOL    HW1 1090   0.765   2.456   1.542
  358SOL    HW2 1091   0.751   2.412   1.398
  359SOL     OW 1092   1.393   2.335   1.678
  359SOL    HW1 1093   1.396   2.380   1.763
  359SOL    HW2 1094   1.455   2.263   1.687
  360SOL     OW 1095   0.961   2.759   1.593
  360SOL    HW1 1096   1.013   2.688   1.554
  360SOL    HW2 1097   0.907   2.791   1.521
  361SOL     OW 1098   0.992   2.276   1.239
  361SOL    HW1 1099   0.907   2.297   1.278
  361SOL    HW2 1100   0.970   2.229   1.158
  362SOL     OW 1101   1.050   2.568   0.423
  362SOL    HW1 1102   1.064   2.560   0.517
  362SOL    HW2 1103   0.969   2.520   0.407
  363SOL     OW 1104   0.103   2.669   0.768
  363SOL    HW1 1105   0.179   2.675   0.826
  363SOL    HW2 1106   0.047   2.742   0.794
  364SOL     OW 1107   0.929   2.193   0.222
  364SOL    HW1 1108   0.938   2.255   0.150
  364SOL    HW2 1109   0.895   2.113   0.181
  365SOL     OW 1110   1.710   2.437   1.827
  365SOL    HW1 1111   1.672   2.511   1.781
  365SOL    HW2 1112   1.736   2.376   1.758
  366SOL     OW 1113   0.548   2.044   0.893
  366SOL    HW1 1114   0.552   2.073   0.984
  366SOL    HW2 1115   0.550   2.124   0.841
  367SOL     OW 1116   1.796   2.906   0.867
  367SOL    HW1 1117   1.741   2.890   0.790
  367SOL    HW2 1118   1.734   2.914   0.939
  368SOL     OW 1119   1.484   2.601   0.727
  368SOL    HW1 1120   1.463   2.551   0.806
  368SOL    HW2 1121   1.556   2.659   0.753
  369SOL     OW 1122   0.235   2.161   1.505
  369SOL    HW1 1123   0.156   2.209   1.480
  369SOL    HW2 1124   0.204   2.086   1.554
  370SOL     OW 1125   1.403   1.968   0.431
  370SOL    HW1 1126   1.394   1.948   0.338
  370SOL    HW2 1127   1.497   1.978   0.445
  371SOL     OW 1128   0.389   2.555   0.473
  371SOL    HW1 1129   0.412   2.463   0.485
  371SOL    HW2 1130   0.296   2.560   0.494
  372SOL     OW 1131   1.537   2.091   1.728
  372SOL    HW1 1132   1.544   2.112   1.821
  372SOL    HW2 1133   1.474   2.019   1.724
  373SOL     OW 1134   0.627   1.981   0.120
  373SOL    HW1 1135   0.721   1.962   0.118
  373SOL    HW2 1136   0.593   1.937   0.042
  374SOL     OW 1137   0.766   2.139   1.752
  374SOL    HW1 1138   0.841   2.078   1.757
  374SOL    HW2 1139   0.717   2.123   1.833
  375SOL     OW 1140   1.339   2.451   1.433
  375SOL    HW1 1141   1.371   2.417   1.517
  375SOL    HW2 1142   1.378   2.538   1.426
  376SOL     OW 1143   0.929   2.371   0.902
  376SOL    HW1 1144   0.905   2.362   0.809
  376SOL    HW2 1145   0.959   2.284   0.927
  377SOL     OW 1146   0.549   1.924   0.504
  377SOL    HW1 1147   0.467   1.926   0.554
  377SOL    HW2 1148   0.544   2.001   0.447
  378SOL     OW 1149   0.944   2.104   0.474
  378SOL    HW1 1150   0.920   2.141   0.388
  378SOL    HW2 1151   1.038   2.117   0.480
  379SOL     OW 1152   1.078   2.547   1.458
  379SOL    HW1 1153   1.008   2.482   1.467
  379SOL    HW2 1154   1.158   2.495   1.454
  380SOL     OW 1155   1.052   2.356   0.028
  380SOL    HW1 1156   1.003   2.438   0.021
  380SOL    HW2 1157   1.113   2.370   0.101
  381SOL     OW 1158   0.089   2.413   1.402
  381SOL    HW1 1159   0.174   2.420   1.358
  381SOL    HW2 1160   0.088   2.486   1.464
  382SOL     OW 1161   0.560   2.089   1.164
  382SOL    HW1 1162   0.598   2.010   1.201
  382SOL    HW2 1163   0.469   2.088   1.191
  383SOL     OW 1164   0.870   2.322   0.639
  383SOL    HW1 1165   0.820   2.376   0.578
  383SOL    HW2 1166   0.890   2.242   0.590
  384SOL     OW 1167   1.015   1.915   0.753
  384SOL    HW1 1168   0.957   1.910   0.677
  384SOL    HW2 1169   0.992   1.838   0.806
  385SOL     OW 1170   1.426   2.990   0.873
  385SOL    HW1 1171   1.361   2.935   0.830
  385SOL    HW2 1172   1.448   0.057   0.808
  386SOL     OW 1173   1.466   2.465   0.979
  386SOL    HW1 1174   1.418   2.383   0.983
  386SOL    HW2 1175   1.527   2.461   1.053
  387SOL     OW 1176   1.829   2.664   0.390
  387SOL    HW1 1177   1.893   2.617   0.445
  387SOL    HW2 1178   1.815   2.606   0.315
  388SOL     OW 1179   1.414   2.436   0.099
  388SOL    HW1 1180   1.342   2.428   0.162
  388SOL    HW2 1181   1.459   2.352   0.104
  389SOL     OW 1182   0.519   2.124   0.325
  389SOL    HW1 1183   0.557   2.074   0.253
  389SOL    HW2 1184   0.499   2.209   0.286
  390SOL     OW 1185   1.780   0.076   1.589
  390SOL    HW1 1186   1.868   0.043   1.575
  390SOL    HW2 1187   1.792   0.159   1.635
  391SOL     OW 1188   1.623   2.955   1.073
  391SOL    HW1 1189   1.638   0.039   1.117
  391SOL    HW2 1190   1.548   2.970   1.016
  392SOL     OW 1191   0.919   1.957   1.399
  392SOL    HW1 1192   0.940   1.941   1.307
  392SOL    HW2 1193   0.997   2.000   1.435
  393SOL     OW 1194   0.415   2.680   1.253
  393SOL    HW1 1195   0.485   2.686   1.318
  393SOL    HW2 1196   0.381   2.591   1.263
  394SOL     OW 1197   1.265   2.239   1.274
  394SOL    HW1 1198   1.298   2.316   1.321
  394SOL    HW2 1199   1.176   2.262   1.251
  395SOL     OW 1200   0.555   2.397   0.861
  395SOL    HW1 1201   0.570   2.451   0.784
  395SOL    HW2 1202   0.619   2.427   0.925
  396SOL     OW 1203   1.580   2.486   0.477
  396SOL    HW1 1204   1.539   2.541   0.543
  396SOL    HW2 1205   1.636   2.545   0.428
  397SOL     OW 1206   0.413   2.597   1.603
  397SOL    HW1 1207   0.470   2.647   1.545
  397SOL    HW2 1208   0.460   2.515   1.619
  398SOL     OW 1209   1.597   2.636   1.680
  398SOL    HW1 1210   1.510   2.677   1.673
  398SOL    HW2 1211   1.650   2.679   1.613
  399SOL     OW 1212   0.996   1.984   1.755
  399SOL    HW1 1213   1.049   2.059   1.728
  399SOL    HW2 1214   1.051   1.908   1.735
  400SOL     OW 1215   0.500   1.901   1.747
  400SOL    HW1 1216   0.458   1.847   1.680
  400SOL    HW2 1217   0.441   1.975   1.759
  401SOL     OW 1218   0.594   2.729   1.039
  401SOL    HW1 1219   0.596   2.820   1.010
  401SOL    HW2 1220   0.527   2.727   1.108
  402SOL     OW 1221   1.348   2.713   1.034
  402SOL    HW1 1222   1.279   2.706   0.968
  402SOL    HW2 1223   1.393   2.628   1.030
  403SOL     OW 1224   1.204   2.394   0.270
  403SOL    HW1 1225   1.210   2.310   0.316
  403SOL    HW2 1226   1.158   2.452   0.332
  404SOL     OW 1227   0.300   2.065   1.243
  404SOL    HW1 1228   0.280   2.094   1.332
  404SOL    HW2 1229   0.285   1.970   1.245
  405SOL     OW 1230   0.055   0.171   1.266
  405SOL    HW1 1231   0.081   0.137   1.351
  405SOL    HW2 1232   0.008   0.252   1.286
  406SOL     OW 1233   0.729   2.492   1.061
  406SOL    HW1 1234   0.799   2.477   0.997
  406SOL    HW2 1235   0.697   2.581   1.041
  407SOL     OW 1236   1.736   2.818   1.845
  407SOL    HW1 1237   1.688   2.759   1.787
  407SOL    HW2 1238   1.679   2.830   1.921
  408SOL     OW 1239   0.302   1.931   0.622
  408SOL    HW1 1240   0.285   2.022   0.648
  408SOL    HW2 1241   0.310   1.883   0.704
  409SOL     OW 1242   1.620   2.235   0.368
  409SOL    HW1 1243   1.644   2.170   0.433
  409SOL    HW2 1244   1.592   2.311   0.419
  410SOL     OW 1245   1.028   2.617   0.966
  410SOL    HW1 1246   1.027   2.632   1.060
  410SOL    HW2 1247   1.002   2.525   0.956
  411SOL     OW 1248   0.358   2.787   1.797
  411SOL    HW1 1249   0.419   2.782   1.870
  411SOL    HW2 1250   0.382   2.713   1.741
  412SOL     OW 1251   1.502   2.169   0.126
  412SOL    HW1 1252   1.465   2.081   0.137
  412SOL    HW2 1253   1.557   2.182   0.203
  413SOL     OW 1254   1.295   2.683   0.038
  413SOL    HW1 1255   1.336   2.597   0.049
  413SOL    HW2 1256   1.325   2.713   2.952
  414SOL     OW 1257   0.313   2.678   0.951
  414SOL    HW1 1258   0.407   2.685   0.933
  414SOL    HW2 1259   0.302   2.589   0.986
  415SOL     OW 1260   0.335   2.379   1.015
  415SOL    HW1 1261   0.295   2.295   0.993
  415SOL    HW2 1262   0.410   2.386   0.955
  416SOL     OW 1263   1.134   2.238   1.681
  416SOL    HW1 1264   1.088   2.294   1.743
  416SOL    HW2 1265   1.222   2.275   1.677
  417SOL     OW 1266   1.161   2.064   1.471
  417SOL    HW1 1267   1.151   2.127   1.542
  417SOL    HW2 1268   1.201   2.114   1.400
  418SOL     OW 1269   0.981   2.667   1.232
  418SOL    HW1 1270   1.036   2.639   1.304
  418SOL    HW2 1271   0.900   2.618   1.242
  419SOL     OW 1272   0.047   2.444   1.119
  419SOL    HW1 1273   0.120   2.397   1.077
  419SOL    HW2 1274   0.032   2.397   1.201
  420SOL     OW 1275   0.195   2.381   1.722
  420SOL    HW1 1276   0.265   2.352   1.663
  420SOL    HW2 1277   0.163   2.462   1.681
  421SOL     OW 1278   1.379   2.806   1.661
  421SOL    HW1 1279   1.397   2.900   1.656
  421SOL    HW2 1280   1.372   2.778   1.570
  422SOL     OW 1281   0.820   2.438   0.350
  422SOL    HW1 1282   0.818   2.361   0.293
  422SOL    HW2 1283   0.740   2.486   0.327
  423SOL     OW 1284   1.642   2.465   1.188
  423SOL    HW1 1285   1.632   2.404   1.262
  423SOL    HW2 1286   1.729   2.445   1.153
  424SOL     OW 1287   0.702   2.312   1.260
  424SOL    HW1 1288   0.648   2.239   1.230
  424SOL    HW2 1289   0.699   2.375   1.188
  425SOL     OW 1290   0.441   2.358   0.207
  425SOL    HW1 1291   0.512   2.421   0.223
  425SOL    HW2 1292   0.365   2.412   0.186
  426SOL     OW 1293   0.158   0.010   1.468
  426SOL    HW1 1294   0.146   2.957   1.548
  426SOL    HW2 1295   0.172   2.945   1.399
  427SOL     OW 1296   1.346   2.908   1.221
  427SOL    HW1 1297   1.364   2.844   1.151
  427SOL    HW2 1298   1.280   2.966   1.184
  428SOL     OW 1299   1.299   2.723   0.315
  428SOL    HW1 1300   1.228   2.676   0.359
  428SOL    HW2 1301   1.289   2.700   0.222
  429SOL     OW 1302   0.899   1.936   0.122
  429SOL    HW1 1303   0.955   1.919   0.047
  429SOL    HW2 1304   0.945   1.897   0.197
  430SOL     OW 1305   1.712   2.005   0.511
  430SOL    HW1 1306   1.792   1.997   0.459
  430SOL    HW2 1307   1.700   1.919   0.552
  431SOL     OW 1308   1.294   2.796   0.684
  431SOL    HW1 1309   1.362   2.729   0.681
  431SOL    HW2 1310   1.304   2.844   0.602
  432SOL     OW 1311   1.840   2.033   0.970
  432SOL    HW1 1312   1.871   1.946   0.945
  432SOL    HW2 1313   1.754   2.041   0.927
  433SOL     OW 1314   0.267   2.179   0.722
  433SOL    HW1 1315   0.183   2.216   0.695
  433SOL    HW2 1316   0.258   2.167   0.817
  434SOL     OW 1317   0.814   2.858   1.375
  434SOL    HW1 1318   0.868   2.833   1.301
  434SOL    HW2 1319   0.833   2.950   1.390
  435SOL     OW 1320   0.900   2.793   0.283
  435SOL    HW1 1321   0.981   2.821   0.241
  435SOL    HW2 1322   0.928   2.744   0.361
  436SOL     OW 1323   1.020   2.103   0.966
  436SOL    HW1 1324   1.015   2.055   0.883
  436SOL    HW2 1325   1.015   2.035   1.033
  437SOL     OW 1326   1.719   2.256   1.380
  437SOL    HW1 1327   1.792   2.317   1.379
  437SOL    HW2 1328   1.748   2.184   1.324
  438SOL     OW 1329   0.118   2.865   1.694
  438SOL    HW1 1330   0.049   2.846   1.757
  438SOL    HW2 1331   0.200   2.851   1.742
  439SOL     OW 1332   0.674   2.058   1.498
  439SOL    HW1 1333   0.759   2.039   1.458
  439SOL    HW2 1334   0.696   2.086   1.587
  440SOL     OW 1335   0.051   2.165   0.056
  440SOL    HW1 1336   2.967   2.202   0.031
  440SOL    HW2 1337   0.116   2.227   0.022
  441SOL     OW 1338   1.434   2.717   1.404
  441SOL    HW1 1339   1.391   2.776   1.342
  441SOL    HW2 1340   1.526   2.718   1.378
  442SOL     OW 1341   0.060   2.061   0.321
  442SOL    HW1 1342   0.048   2.099   0.233
  442SOL    HW2 1343   0.123   1.990   0.307
  443SOL     OW 1344   1.139   0.210   0.092
  443SOL    HW1 1345   1.071   0.257   0.140
  443SOL    HW2 1346   1.218   0.218   0.146
  444SOL     OW 1347   0.613   2.688   1.436
  444SOL    HW1 1348   0.670   2.763   1.420
  444SOL    HW2 1349   0.673   2.614   1.445
  445SOL     OW 1350   0.717   2.427   1.706
  445SOL    HW1 1351   0.757   2.490   1.766
  445SOL    HW2 1352   0.748   2.342   1.736
  446SOL     OW 1353   1.675   2.745   1.254
  446SOL    HW1 1354   1.666   2.658   1.215
  446SOL    HW2 1355   1.658   2.806   1.182
  447SOL     OW 1356   1.220   2.180   0.460
  447SOL    HW1 1357   1.285   2.110   0.450
  447SOL    HW2 1358   1.251   2.230   0.536
  448SOL     OW 1359   0.592   2.587   0.666
  448SOL    HW1 1360   0.614   2.680   0.676
  448SOL    HW2 1361   0.524   2.586   0.598
  449SOL     OW 1362   1.764   2.223   1.649
  449SOL    HW1 1363   1.745   2.237   1.556
  449SOL    HW2 1364   1.693   2.167   1.680
  450SOL     OW 1365   1.733   2.796   1.515
  450SOL    HW1 1366   1.749   2.889   1.534
  450SOL    HW2 1367   1.727   2.792   1.420
  451SOL     OW 1368   0.890   2.831   0.862
  451SOL    HW1 1369   0.927   2.750   0.898
  451SOL    HW2 1370   0.827   2.859   0.929
  452SOL     OW 1371   1.110   2.886   0.086
  452SOL    HW1 1372   1.062   2.887   0.003
  452SOL    HW2 1373   1.173   2.814   0.077
  453SOL     OW 1374   1.809   2.048   1.239
  453SOL    HW1 1375   1.832   1.959   1.262
  453SOL    HW2 1376   1.821   2.052   1.144
  454SOL     OW 1377   0.430   2.296   0.528
  454SOL    HW1 1378   0.460   2.225   0.471
  454SOL    HW2 1379   0.384   2.251   0.599
  455SOL     OW 1380   0.336   2.419   1.290
  455SOL    HW1 1381   0.396   2.365   1.342
  455SOL    HW2 1382   0.349   2.390   1.200
  456SOL     OW 1383   1.430   2.085   1.118
  456SOL    HW1 1384   1.468   2.012   1.168
  456SOL    HW2 1385   1.379   2.134   1.183
  457SOL     OW 1386   1.008   1.882   1.144
  457SOL    HW1 1387   0.955   1.814   1.101
  457SOL    HW2 1388   1.097   1.845   1.147
  458SOL     OW 1389   1.355   1.915   0.163
  458SOL    HW1 1390   1.380   1.864   0.086
  458SOL    HW2 1391   1.269   1.880   0.187
  459SOL     OW 1392   1.300   2.325   0.684
  459SOL    HW1 1393   1.243   2.402   0.691
  459SOL    HW2 1394   1.294   2.283   0.770
  460SOL     OW 1395   1.585   2.064   0.877
  460SOL    HW1 1396   1.524   2.084   0.947
  460SOL    HW2 1397   1.587   2.143   0.823
  461SOL     OW 1398   2.998   2.882   0.285
  461SOL    HW1 1399   0.080   2.918   0.251
  461SOL    HW2 1400   0.019   2.852   0.373
  462SOL     OW 1401   0.233   2.502   1.973
  462SOL    HW1 1402   0.165   2.458   2.024
  462SOL    HW2 1403   0.222   2.467   1.884
  463SOL     OW 1404   0.234   2.125   2.837
  463SOL    HW1 1405   0.272   2.100   2.922
  463SOL    HW2 1406   0.147   2.085   2.836
  464SOL     OW 1407   0.015   2.248   2.506
  464SOL    HW1 1408   2.929   2.283   2.530
  464SOL    HW2 1409   2.995   2.162   2.469
  465SOL     OW 1410   1.137   2.569   2.564
  465SOL    HW1 1411   1.183   2.652   2.556
  465SOL    HW2 1412   1.084   2.578   2.644
  466SOL     OW 1413   1.762   2.465   2.091
  466SOL    HW1 1414   1.745   2.457   1.997
  466SOL    HW2 1415   1.730   2.384   2.128
  467SOL     OW 1416   0.775   0.011   2.873
  467SOL    HW1 1417   0.685   0.031   2.896
  467SOL    HW2 1418   0.804   0.087   2.823
  468SOL     OW 1419   0.648   2.848   2.571
  468SOL    HW1 1420   0.741   2.847   2.592
  468SOL    HW2 1421   0.634   2.930   2.523
  469SOL     OW 1422   1.617   2.310   2.595
  469SOL    HW1 1423   1.541   2.334   2.542
  469SOL    HW2 1424   1.618   2.375   2.666
  470SOL     OW 1425   0.210   0.315   2.322
  470SOL    HW1 1426   0.221   0.385   2.386
  470SOL    HW2 1427   0.208   0.235   2.374
  471SOL     OW 1428   0.232   2.945   2.743
  471SOL    HW1 1429   0.258   2.859   2.778
  471SOL    HW2 1430   0.213   2.997   2.821
  472SOL     OW 1431   0.605   2.823   1.994
  472SOL    HW1 1432   0.594   2.907   1.950
  472SOL    HW2 1433   0.670   2.840   2.062
  473SOL     OW 1434   0.121   2.495   2.424
  473SOL    HW1 1435   0.097   2.411   2.464
  473SOL    HW2 1436   0.120   2.557   2.497
  474SOL     OW 1437   1.702   2.804   2.484
  474SOL    HW1 1438   1.780   2.751   2.499
  474SOL    HW2 1439   1.697   2.814   2.389
  475SOL     OW 1440   0.620   0.239   2.576
  475SOL    HW1 1441   0.595   0.158   2.531
  475SOL    HW2 1442   0.617   0.306   2.508
  476SOL     OW 1443   0.813   1.862   2.368
  476SOL    HW1 1444   0.854   1.947   2.351
  476SOL    HW2 1445   0.720   1.882   2.379
  477SOL     OW 1446   0.216   2.805   0.104
  477SOL    HW1 1447   0.275   2.729   0.099
  477SOL    HW2 1448   0.129   2.769   0.092
  478SOL     OW 1449   1.536   2.843   2.047
  478SOL    HW1 1450   1.470   2.788   2.088
  478SOL    HW2 1451   1.596   2.866   2.118
  479SOL     OW 1452   0.597   2.578   2.128
  479SOL    HW1 1453   0.600   2.658   2.075
  479SOL    HW2 1454   0.532   2.597   2.196
  480SOL     OW 1455   1.299   2.200   2.810
  480SOL    HW1 1456   1.206   2.182   2.801
  480SOL    HW2 1457   1.321   2.169   2.898
  481SOL     OW 1458   1.052   2.562   2.288
  481SOL    HW1 1459   1.065   2.557   2.383
  481SOL    HW2 1460   0.969   2.517   2.273
  482SOL     OW 1461   0.108   2.671   2.624
  482SOL    HW1 1462   0.183   2.674   2.683
  482SOL    HW2 1463   0.045   2.732   2.662
  483SOL     OW 1464   0.889   2.208   2.055
  483SOL    HW1 1465   0.931   2.270   1.996
  483SOL    HW2 1466   0.909   2.122   2.019
  484SOL     OW 1467   0.551   2.046   2.768
  484SOL    HW1 1468   0.515   2.083   2.849
  484SOL    HW2 1469   0.561   2.122   2.710
  485SOL     OW 1470   1.797   2.908   2.728
  485SOL    HW1 1471   1.739   2.890   2.654
  485SOL    HW2 1472   1.739   2.912   2.804
  486SOL     OW 1473   1.483   2.604   2.585
  486SOL    HW1 1474   1.468   2.549   2.662
  486SOL    HW2 1475   1.559   2.657   2.608
  487SOL     OW 1476   1.401   1.970   2.292
  487SOL    HW1 1477   1.389   1.944   2.201
  487SOL    HW2 1478   1.496   1.975   2.304
  488SOL     OW 1479   0.396   2.555   2.334
  488SOL    HW1 1480   0.412   2.462   2.349
  488SOL    HW2 1481   0.304   2.567   2.354
  489SOL     OW 1482   0.632   1.987   1.968
  489SOL    HW1 1483   0.704   1.925   1.980
  489SOL    HW2 1484   0.584   1.953   1.892
  490SOL     OW 1485   0.923   2.381   2.756
  490SOL    HW1 1486   0.902   2.358   2.665
  490SOL    HW2 1487   0.959   2.301   2.794
  491SOL     OW 1488   0.549   1.925   2.366
  491SOL    HW1 1489   0.467   1.926   2.416
  491SOL    HW2 1490   0.544   2.003   2.311
  492SOL     OW 1491   0.290   1.905   2.042
  492SOL    HW1 1492   0.349   1.974   2.013
  492SOL    HW2 1493   0.346   1.842   2.086
  493SOL     OW 1494   0.937   2.106   2.323
  493SOL    HW1 1495   0.909   2.149   2.242
  493SOL    HW2 1496   1.032   2.120   2.326
  494SOL     OW 1497   1.025   2.405   1.882
  494SOL    HW1 1498   0.981   2.488   1.863
  494SOL    HW2 1499   1.088   2.427   1.951
  495SOL     OW 1500   0.869   2.318   2.499
  495SOL    HW1 1501   0.821   2.375   2.438
  495SOL    HW2 1502   0.888   2.239   2.448
  496SOL     OW 1503   1.012   1.911   2.611
  496SOL    HW1 1504   0.955   1.904   2.535
  496SOL    HW2 1505   0.992   1.833   2.663
  497SOL     OW 1506   1.421   2.995   2.737
  497SOL    HW1 1507   1.355   2.939   2.696
  497SOL    HW2 1508   1.448   0.055   2.667
  498SOL     OW 1509   1.485   2.448   2.818
  498SOL    HW1 1510   1.421   2.377   2.824
  498SOL    HW2 1511   1.506   2.469   2.909
  499SOL     OW 1512   1.836   2.666   2.253
  499SOL    HW1 1513   1.896   2.618   2.309
  499SOL    HW2 1514   1.814   2.604   2.182
  500SOL     OW 1515   1.394   2.435   1.934
  500SOL    HW1 1516   1.334   2.413   2.006
  500SOL    HW2 1517   1.479   2.400   1.963
  501SOL     OW 1518   0.527   2.124   2.181
  501SOL    HW1 1519   0.568   2.076   2.110
  501SOL    HW2 1520   0.506   2.210   2.144
  502SOL     OW 1521   1.625   2.966   2.934
  502SOL    HW1 1522   1.629   0.044   2.989
  502SOL    HW2 1523   1.549   2.981   2.877
  503SOL     OW 1524   0.552   2.394   2.726
  503SOL    HW1 1525   0.567   2.449   2.649
  503SOL    HW2 1526   0.614   2.425   2.791
  504SOL     OW 1527   1.577   2.485   2.336
  504SOL    HW1 1528   1.539   2.540   2.403
  504SOL    HW2 1529   1.634   2.544   2.286
  505SOL     OW 1530   0.576   2.727   2.886
  505SOL    HW1 1531   0.612   2.807   2.847
  505SOL    HW2 1532   0.566   2.748   2.979
  506SOL     OW 1533   1.206   2.392   2.131
  506SOL    HW1 1534   1.215   2.313   2.184
  506SOL    HW2 1535   1.160   2.454   2.187
  507SOL     OW 1536   0.329   2.061   0.078
  507SOL    HW1 1537   0.320   2.103   0.163
  507SOL    HW2 1538   0.307   1.969   0.093
  508SOL     OW 1539   0.728   2.499   2.913
  508SOL    HW1 1540   0.797   2.480   2.850
  508SOL    HW2 1541   0.694   2.585   2.886
  509SOL     OW 1542   0.303   1.931   2.482
  509SOL    HW1 1543   0.285   2.021   2.508
  509SOL    HW2 1544   0.308   1.883   2.565
  510SOL     OW 1545   1.615   2.234   2.230
  510SOL    HW1 1546   1.643   2.171   2.297
  510SOL    HW2 1547   1.592   2.312   2.280
  511SOL     OW 1548   1.025   2.620   2.822
  511SOL    HW1 1549   1.026   2.624   2.918
  511SOL    HW2 1550   0.996   2.531   2.803
  512SOL     OW 1551   1.528   2.138   1.990
  512SOL    HW1 1552   1.466   2.069   2.015
  512SOL    HW2 1553   1.561   2.171   2.074
  513SOL     OW 1554   1.291   2.686   1.895
  513SOL    HW1 1555   1.334   2.600   1.899
  513SOL    HW2 1556   1.324   2.724   1.813
  514SOL     OW 1557   0.312   2.675   2.809
  514SOL    HW1 1558   0.406   2.691   2.812
  514SOL    HW2 1559   0.301   2.586   2.842
  515SOL     OW 1560   0.319   2.387   2.867
  515SOL    HW1 1561   0.288   2.297   2.852
  515SOL    HW2 1562   0.399   2.393   2.816
  516SOL     OW 1563   0.980   2.611   0.088
  516SOL    HW1 1564   1.025   2.604   0.173
  516SOL    HW2 1565   0.891   2.639   0.111
  517SOL     OW 1566   0.818   2.431   2.219
  517SOL    HW1 1567   0.818   2.356   2.159
  517SOL    HW2 1568   0.743   2.484   2.191
  518SOL     OW 1569   0.704   2.309   0.101
  518SOL    HW1 1570   0.616   2.273   0.092
  518SOL    HW2 1571   0.707   2.381   0.038
  519SOL     OW 1572   0.463   2.355   2.047
  519SOL    HW1 1573   0.526   2.423   2.069
  519SOL    HW2 1574   0.379   2.401   2.041
  520SOL     OW 1575   1.304   2.725   2.170
  520SOL    HW1 1576   1.232   2.684   2.218
  520SOL    HW2 1577   1.287   2.704   2.079
  521SOL     OW 1578   1.718   2.006   2.373
  521SOL    HW1 1579   1.792   1.993   2.313
  521SOL    HW2 1580   1.703   1.920   2.413
  522SOL     OW 1581   1.295   2.799   2.545
  522SOL    HW1 1582   1.362   2.730   2.545
  522SOL    HW2 1583   1.306   2.842   2.460
  523SOL     OW 1584   1.840   2.042   2.822
  523SOL    HW1 1585   1.870   1.954   2.798
  523SOL    HW2 1586   1.750   2.047   2.789
  524SOL     OW 1587   0.269   2.181   2.576
  524SOL    HW1 1588   0.184   2.218   2.554
  524SOL    HW2 1589   0.266   2.167   2.671
  525SOL     OW 1590   0.902   2.761   2.110
  525SOL    HW1 1591   0.979   2.810   2.080
  525SOL    HW2 1592   0.934   2.712   2.186
  526SOL     OW 1593   1.037   2.108   2.803
  526SOL    HW1 1594   1.025   2.050   2.727
  526SOL    HW2 1595   1.003   2.057   2.877
  527SOL     OW 1596   0.093   2.178   1.918
  527SOL    HW1 1597   0.011   2.148   1.879
  527SOL    HW2 1598   0.105   2.267   1.884
  528SOL     OW 1599   0.063   2.061   2.175
  528SOL    HW1 1600   0.071   2.107   2.092
  528SOL    HW2 1601   0.129   1.992   2.171
  529SOL     OW 1602   1.122   0.235   2.009
  529SOL    HW1 1603   1.107   0.158   1.955
  529SOL    HW2 1604   1.209   0.223   2.045
  530SOL     OW 1605   1.730   2.711   0.051
  530SOL    HW1 1606   1.658   2.670   0.099
  530SOL    HW2 1607   1.700   2.800   0.036
  531SOL     OW 1608   1.218   2.182   2.320
  531SOL    HW1 1609   1.281   2.111   2.310
  531SOL    HW2 1610   1.247   2.229   2.397
  532SOL     OW 1611   0.594   2.583   2.528
  532SOL    HW1 1612   0.616   2.676   2.539
  532SOL    HW2 1613   0.526   2.583   2.460
  533SOL     OW 1614   0.884   2.823   2.714
  533SOL    HW1 1615   0.928   2.749   2.756
  533SOL    HW2 1616   0.846   2.872   2.787
  534SOL     OW 1617   1.107   2.878   1.953
  534SOL    HW1 1618   1.062   2.901   1.872
  534SOL    HW2 1619   1.161   2.803   1.930
  535SOL     OW 1620   1.823   2.049   0.096
  535SOL    HW1 1621   1.791   1.959   0.099
  535SOL    HW2 1622   1.831   2.069   0.003
  536SOL     OW 1623   0.426   2.294   2.382
  536SOL    HW1 1624   0.459   2.221   2.330
  536SOL    HW2 1625   0.382   2.253   2.456
  537SOL     OW 1626   1.355   1.913   2.025
  537SOL    HW1 1627   1.391   1.843   1.971
  537SOL    HW2 1628   1.267   1.884   2.048
  538SOL     OW 1629   1.298   2.320   2.548
  538SOL    HW1 1630   1.244   2.399   2.556
  538SOL    HW2 1631   1.296   2.281   2.636
  539SOL     OW 1632   1.582   2.074   2.738
  539SOL    HW1 1633   1.498   2.095   2.779
  539SOL    HW2 1634   1.597   2.146   2.677
  540SOL     OW 1635   0.017   2.932   2.155
  540SOL    HW1 1636   0.111   2.926   2.138
  540SOL    HW2 1637   0.002   2.875   2.231
  541SOL     OW 1638   2.093   0.636   0.122
  541SOL    HW1 1639   1.998   0.629   0.136
  541SOL    HW2 1640   2.106   0.606   0.032
  542SOL     OW 1641   2.079   0.287   1.009
  542SOL    HW1 1642   2.110   0.249   1.092
  542SOL    HW2 1643   1.995   0.243   0.994
  543SOL     OW 1644   1.865   0.381   0.642
  543SOL    HW1 1645   1.783   0.408   0.684
  543SOL    HW2 1646   1.841   0.306   0.588
  544SOL     OW 1647   2.426   1.284   1.172
  544SOL    HW1 1648   2.339   1.291   1.134
  544SOL    HW2 1649   2.443   1.371   1.208
  545SOL     OW 1650   2.616   1.143   1.037
  545SOL    HW1 1651   2.548   1.177   1.095
  545SOL    HW2 1652   2.655   1.221   0.997
  546SOL     OW 1653   2.720   0.776   1.817
  546SOL    HW1 1654   2.714   0.845   1.882
  546SOL    HW2 1655   2.746   0.821   1.736
  547SOL     OW 1656   2.547   1.006   0.649
  547SOL    HW1 1657   2.608   0.990   0.721
  547SOL    HW2 1658   2.476   1.057   0.689
  548SOL     OW 1659   2.570   1.153   1.812
  548SOL    HW1 1660   2.618   1.232   1.837
  548SOL    HW2 1661   2.487   1.184   1.777
  549SOL     OW 1662   2.192   1.427   1.066
  549SOL    HW1 1663   2.120   1.392   1.014
  549SOL    HW2 1664   2.243   1.479   1.004
  550SOL     OW 1665   2.314   0.402   1.486
  550SOL    HW1 1666   2.388   0.341   1.492
  550SOL    HW2 1667   2.237   0.347   1.503
  551SOL     OW 1668   2.083   1.715   0.472
  551SOL    HW1 1669   2.103   1.790   0.527
  551SOL    HW2 1670   2.160   1.705   0.416
  552SOL     OW 1671   2.981   1.347   1.688
  552SOL    HW1 1672   0.031   1.347   1.770
  552SOL    HW2 1673   2.935   1.263   1.688
  553SOL     OW 1674   2.083   1.442   0.534
  553SOL    HW1 1675   2.073   1.537   0.542
  553SOL    HW2 1676   2.026   1.406   0.603
  554SOL     OW 1677   2.117   1.088   0.888
  554SOL    HW1 1678   2.116   1.003   0.931
  554SOL    HW2 1679   2.061   1.144   0.943
  555SOL     OW 1680   2.479   1.788   1.435
  555SOL    HW1 1681   2.394   1.770   1.476
  555SOL    HW2 1682   2.496   1.880   1.455
  556SOL     OW 1683   2.453   0.978   0.147
  556SOL    HW1 1684   2.479   1.049   0.088
  556SOL    HW2 1685   2.487   1.004   0.233
  557SOL     OW 1686   1.980   0.645   0.563
  557SOL    HW1 1687   1.936   0.564   0.588
  557SOL    HW2 1688   1.973   0.701   0.640
  558SOL     OW 1689   1.875   1.590   0.120
  558SOL    HW1 1690   1.889   1.499   0.147
  558SOL    HW2 1691   1.878   1.640   0.202
  559SOL     OW 1692   1.984   0.742   1.586
  559SOL    HW1 1693   2.076   0.767   1.597
  559SOL    HW2 1694   1.936   0.825   1.593
  560SOL     OW 1695   2.474   1.384   0.735
  560SOL    HW1 1696   2.428   1.300   0.744
  560SOL    HW2 1697   2.458   1.411   0.645
  561SOL     OW 1698   2.682   0.016   0.521
  561SOL    HW1 1699   2.709   0.105   0.502
  561SOL    HW2 1700   2.588   0.015   0.502
  562SOL     OW 1701   2.052   0.967   1.268
  562SOL    HW1 1702   2.137   0.926   1.254
  562SOL    HW2 1703   1.990   0.909   1.225
  563SOL     OW 1704   2.188   0.253   1.802
  563SOL    HW1 1705   2.237   0.332   1.826
  563SOL    HW2 1706   2.101   0.266   1.842
  564SOL     OW 1707   2.452   0.721   0.267
  564SOL    HW1 1708   2.457   0.804   0.219
  564SOL    HW2 1709   2.389   0.738   0.337
  565SOL     OW 1710   2.655   0.628   1.453
  565SOL    HW1 1711   2.629   0.600   1.541
  565SOL    HW2 1712   2.617   0.561   1.395
  566SOL     OW 1713   2.829   0.881   1.574
  566SOL    HW1 1714   2.853   0.795   1.540
  566SOL    HW2 1715   2.781   0.923   1.502
  567SOL     OW 1716   2.846   0.372   1.260
  567SOL    HW1 1717   2.770   0.424   1.288
  567SOL    HW2 1718   2.843   0.376   1.165
  568SOL     OW 1719   2.892   0.716   0.407
  568SOL    HW1 1720   2.930   0.699   0.493
  568SOL    HW2 1721   2.816   0.658   0.403
  569SOL     OW 1722   1.952   0.820   0.774
  569SOL    HW1 1723   2.032   0.812   0.825
  569SOL    HW2 1724   1.909   0.899   0.808
  570SOL     OW 1725   1.990   1.848   1.577
  570SOL    HW1 1726   1.989   1.825   1.670
  570SOL    HW2 1727   1.898   1.844   1.551
  571SOL     OW 1728   2.780   0.344   0.219
  571SOL    HW1 1729   2.759   0.395   0.141
  571SOL    HW2 1730   2.773   0.253   0.191
  572SOL     OW 1731   2.382   0.199   0.910
  572SOL    HW1 1732   2.397   0.213   1.003
  572SOL    HW2 1733   2.402   0.283   0.869
  573SOL     OW 1734   2.860   1.440   0.469
  573SOL    HW1 1735   2.828   1.517   0.421
  573SOL    HW2 1736   2.857   1.466   0.561
  574SOL     OW 1737   2.219   1.806   0.855
  574SOL    HW1 1738   2.262   1.721   0.868
  574SOL    HW2 1739   2.287   1.870   0.877
  575SOL     OW 1740   2.180   0.952   0.244
  575SOL    HW1 1741   2.263   0.968   0.200
  575SOL    HW2 1742   2.151   0.867   0.212
  576SOL     OW 1743   2.327   1.261   1.739
  576SOL    HW1 1744   2.300   1.267   1.647
  576SOL    HW2 1745   2.245   1.263   1.788
  577SOL     OW 1746   2.063   0.295   1.498
  577SOL    HW1 1747   1.980   0.342   1.500
  577SOL    HW2 1748   2.052   0.223   1.560
  578SOL     OW 1749   2.328   1.723   0.334
  578SOL    HW1 1750   2.362   1.792   0.390
  578SOL    HW2 1751   2.395   1.711   0.266
  579SOL     OW 1752   2.121   1.794   1.235
  579SOL    HW1 1753   2.152   1.720   1.287
  579SOL    HW2 1754   2.097   1.755   1.151
  580SOL     OW 1755   2.800   1.695   0.899
  580SOL    HW1 1756   2.862   1.628   0.928
  580SOL    HW2 1757   2.752   1.654   0.827
  581SOL     OW 1758   2.257   0.689   0.476
  581SOL    HW1 1759   2.287   0.600   0.495
  581SOL    HW2 1760   2.164   0.689   0.496
  582SOL     OW 1761   2.477   0.109   0.105
  582SOL    HW1 1762   2.572   0.113   0.118
  582SOL    HW2 1763   2.462   0.151   0.021
  583SOL     OW 1764   2.632   0.278   1.753
  583SOL    HW1 1765   2.702   0.214   1.766
  583SOL    HW2 1766   2.580   0.273   1.833
  584SOL     OW 1767   2.740   1.517   1.194
  584SOL    HW1 1768   2.719   1.483   1.107
  584SOL    HW2 1769   2.804   1.454   1.229
  585SOL     OW 1770   2.669   1.402   0.940
  585SOL    HW1 1771   2.753   1.389   0.895
  585SOL    HW2 1772   2.604   1.398   0.871
  586SOL     OW 1773   2.785   0.504   0.905
  586SOL    HW1 1774   2.758   0.494   0.814
  586SOL    HW2 1775   2.824   0.420   0.928
  587SOL     OW 1776   2.402   0.046   0.496
  587SOL    HW1 1777   2.316   0.037   0.538
  587SOL    HW2 1778   2.395   0.125   0.443
  588SOL     OW 1779   0.321   1.151   0.043
  588SOL    HW1 1780   0.309   1.097   0.121
  588SOL    HW2 1781   0.256   1.221   0.052
  589SOL     OW 1782   2.158   0.091   0.185
  589SOL    HW1 1783   2.243   0.132   0.201
  589SOL    HW2 1784   2.175   2.997   0.194
  590SOL     OW 1785   2.829   0.247   0.466
  590SOL    HW1 1786   2.788   0.298   0.397
  590SOL    HW2 1787   2.905   0.206   0.425
  591SOL     OW 1788   0.084   1.583   0.797
  591SOL    HW1 1789   0.108   1.620   0.712
  591SOL    HW2 1790   0.167   1.551   0.833
  592SOL     OW 1791   2.329   1.148   0.734
  592SOL    HW1 1792   2.259   1.129   0.796
  592SOL    HW2 1793   2.289   1.133   0.648
  593SOL     OW 1794   2.896   0.510   0.022
  593SOL    HW1 1795   2.844   0.590   0.011
  593SOL    HW2 1796   2.942   0.522   0.105
  594SOL     OW 1797   1.938   0.556   1.391
  594SOL    HW1 1798   2.030   0.553   1.365
  594SOL    HW2 1799   1.934   0.626   1.456
  595SOL     OW 1800   2.427   0.214   1.182
  595SOL    HW1 1801   2.464   0.171   1.259
  595SOL    HW2 1802   2.334   0.222   1.202
  596SOL     OW 1803   2.744   0.469   0.636
  596SOL    HW1 1804   2.677   0.519   0.589
  596SOL    HW2 1805   2.734   0.380   0.603
  597SOL     OW 1806   2.861   0.059   0.760
  597SOL    HW1 1807   2.822   0.062   0.672
  597SOL    HW2 1808   2.835   2.973   0.794
  598SOL     OW 1809   2.353   1.402   0.150
  598SOL    HW1 1810   2.288   1.372   0.214
  598SOL    HW2 1811   2.304   1.410   0.068
  599SOL     OW 1812   2.391   0.260   0.322
  599SOL    HW1 1813   2.436   0.214   0.251
  599SOL    HW2 1814   2.363   0.343   0.283
  600SOL     OW 1815   2.778   0.114   1.400
  600SOL    HW1 1816   2.805   0.099   1.309
  600SOL    HW2 1817   2.838   0.182   1.432
  601SOL     OW 1818   2.840   1.109   1.730
  601SOL    HW1 1819   2.747   1.131   1.741
  601SOL    HW2 1820   2.841   1.042   1.662
  602SOL     OW 1821   2.563   1.063   0.379
  602SOL    HW1 1822   2.549   1.048   0.473
  602SOL    HW2 1823   2.647   1.021   0.361
  603SOL     OW 1824   2.279   0.814   1.251
  603SOL    HW1 1825   2.348   0.825   1.317
  603SOL    HW2 1826   2.244   0.726   1.267
  604SOL     OW 1827   2.214   1.109   0.488
  604SOL    HW1 1828   2.212   1.184   0.429
  604SOL    HW2 1829   2.211   1.033   0.431
  605SOL     OW 1830   2.417   0.541   0.863
  605SOL    HW1 1831   2.434   0.596   0.786
  605SOL    HW2 1832   2.483   0.569   0.927
  606SOL     OW 1833   2.210   1.515   1.318
  606SOL    HW1 1834   2.198   1.481   1.229
  606SOL    HW2 1835   2.304   1.534   1.323
  607SOL     OW 1836   2.275   0.745   1.602
  607SOL    HW1 1837   2.336   0.791   1.544
  607SOL    HW2 1838   2.316   0.659   1.616
  608SOL     OW 1839   2.866   0.118   1.761
  608SOL    HW1 1840   2.901   0.193   1.712
  608SOL    HW2 1841   2.900   0.041   1.716
  609SOL     OW 1842   2.366   0.055   1.749
  609SOL    HW1 1843   2.330   2.987   1.692
  609SOL    HW2 1844   2.296   0.119   1.757
  610SOL     OW 1845   2.442   0.874   1.030
  610SOL    HW1 1846   2.476   0.964   1.030
  610SOL    HW2 1847   2.388   0.869   1.109
  611SOL     OW 1848   0.063   0.532   0.268
  611SOL    HW1 1849   0.086   0.449   0.311
  611SOL    HW2 1850   0.035   0.589   0.339
  612SOL     OW 1851   2.160   0.196   1.253
  612SOL    HW1 1852   2.129   0.239   1.333
  612SOL    HW2 1853   2.139   0.103   1.266
  613SOL     OW 1854   1.909   1.312   1.285
  613SOL    HW1 1855   1.941   1.250   1.350
  613SOL    HW2 1856   1.960   1.392   1.301
  614SOL     OW 1857   2.589   0.634   1.060
  614SOL    HW1 1858   2.666   0.618   1.005
  614SOL    HW2 1859   2.562   0.723   1.037
  615SOL     OW 1860   2.168   0.063   0.641
  615SOL    HW1 1861   2.171   0.154   0.671
  615SOL    HW2 1862   2.152   0.012   0.721
  616SOL     OW 1863   2.868   0.770   0.972
  616SOL    HW1 1864   2.895   0.774   1.063
  616SOL    HW2 1865   2.873   0.677   0.950
  617SOL     OW 1866   2.830   1.569   1.704
  617SOL    HW1 1867   2.826   1.610   1.617
  617SOL    HW2 1868   2.887   1.493   1.692
  618SOL     OW 1869   2.214   0.914   1.809
  618SOL    HW1 1870   2.297   0.937   1.851
  618SOL    HW2 1871   2.238   0.853   1.740
  619SOL     OW 1872   2.906   1.344   0.833
  619SOL    HW1 1873   2.910   1.265   0.779
  619SOL    HW2 1874   2.979   1.398   0.802
  620SOL     OW 1875   2.172   0.808   0.947
  620SOL    HW1 1876   2.264   0.832   0.943
  620SOL    HW2 1877   2.171   0.719   0.981
  621SOL     OW 1878   2.197   0.527   1.015
  621SOL    HW1 1879   2.159   0.441   0.999
  621SOL    HW2 1880   2.271   0.532   0.955
  622SOL     OW 1881   2.965   0.365   1.665
  622SOL    HW1 1882   2.905   0.428   1.706
  622SOL    HW2 1883   0.050   0.407   1.670
  623SOL     OW 1884   1.874   1.318   0.183
  623SOL    HW1 1885   1.783   1.332   0.158
  623SOL    HW2 1886   1.873   1.234   0.228
  624SOL     OW 1887   1.955   1.794   0.926
  624SOL    HW1 1888   1.923   1.710   0.893
  624SOL    HW2 1889   2.046   1.799   0.898
  625SOL     OW 1890   2.361   1.573   0.906
  625SOL    HW1 1891   2.429   1.635   0.931
  625SOL    HW2 1892   2.405   1.509   0.851
  626SOL     OW 1893   2.864   0.791   1.252
  626SOL    HW1 1894   2.910   0.724   1.304
  626SOL    HW2 1895   2.773   0.760   1.249
  627SOL     OW 1896   1.897   0.540   1.117
  627SOL    HW1 1897   1.978   0.527   1.067
  627SOL    HW2 1898   1.926   0.549   1.208
  628SOL     OW 1899   2.050   0.519   1.726
  628SOL    HW1 1900   2.108   0.482   1.660
  628SOL    HW2 1901   2.009   0.594   1.682
  629SOL     OW 1902   2.673   0.573   0.350
  629SOL    HW1 1903   2.678   0.493   0.298
  629SOL    HW2 1904   2.591   0.614   0.322
  630SOL     OW 1905   2.136   1.557   1.740
  630SOL    HW1 1906   2.083   1.617   1.792
  630SOL    HW2 1907   2.112   1.470   1.773
  631SOL     OW 1908   2.559   0.459   1.263
  631SOL    HW1 1909   2.512   0.382   1.232
  631SOL    HW2 1910   2.559   0.519   1.189
  632SOL     OW 1911   2.804   1.689   1.458
  632SOL    HW1 1912   2.772   1.638   1.384
  632SOL    HW2 1913   2.772   1.778   1.442
  633SOL     OW 1914   2.317   0.494   0.199
  633SOL    HW1 1915   2.370   0.569   0.223
  633SOL    HW2 1916   2.230   0.530   0.183
  634SOL     OW 1917   2.012   1.139   1.471
  634SOL    HW1 1918   2.013   1.087   1.551
  634SOL    HW2 1919   2.029   1.075   1.401
  635SOL     OW 1920   1.952   1.257   1.019
  635SOL    HW1 1921   1.931   1.273   1.112
  635SOL    HW2 1922   1.872   1.217   0.984
  636SOL     OW 1923   2.538   1.665   1.732
  636SOL    HW1 1924   2.483   1.743   1.719
  636SOL    HW2 1925   2.604   1.671   1.664
  637SOL     OW 1926   2.765   0.086   0.143
  637SOL    HW1 1927   2.798   0.036   0.069
  637SOL    HW2 1928   2.810   0.048   0.219
  638SOL     OW 1929   1.996   1.795   1.842
  638SOL    HW1 1930   1.946   1.730   1.891
  638SOL    HW2 1931   2.045   1.842   1.909
  639SOL     OW 1932   2.676   1.270   1.426
  639SOL    HW1 1933   2.664   1.315   1.509
  639SOL    HW2 1934   2.604   1.300   1.371
  640SOL     OW 1935   2.529   1.611   0.161
  640SOL    HW1 1936   2.535   1.629   0.067
  640SOL    HW2 1937   2.477   1.531   0.166
  641SOL     OW 1938   2.137   0.348   0.754
  641SOL    HW1 1939   2.047   0.367   0.727
  641SOL    HW2 1940   2.130   0.315   0.843
  642SOL     OW 1941   2.689   1.006   1.375
  642SOL    HW1 1942   2.735   1.001   1.291
  642SOL    HW2 1943   2.687   1.100   1.396
  643SOL     OW 1944   2.792   0.948   0.309
  643SOL    HW1 1945   2.840   0.957   0.227
  643SOL    HW2 1946   2.826   0.866   0.347
  644SOL     OW 1947   2.234   1.300   1.493
  644SOL    HW1 1948   2.222   1.378   1.439
  644SOL    HW2 1949   2.156   1.246   1.475
  645SOL     OW 1950   2.917   1.084   0.721
  645SOL    HW1 1951   2.841   1.043   0.764
  645SOL    HW2 1952   2.930   1.032   0.642
  646SOL     OW 1953   2.880   0.239   0.970
  646SOL    HW1 1954   2.877   0.189   0.889
  646SOL    HW2 1955   2.870   0.174   1.039
  647SOL     OW 1956   2.461   1.488   0.483
  647SOL    HW1 1957   2.504   1.440   0.413
  647SOL    HW2 1958   2.401   1.547   0.437
  648SOL     OW 1959   2.133   1.332   0.298
  648SOL    HW1 1960   2.048   1.337   0.253
  648SOL    HW2 1961   2.118   1.376   0.382
  649SOL     OW 1962   1.974   1.021   1.720
  649SOL    HW1 1963   1.898   0.997   1.772
  649SOL    HW2 1964   2.048   0.984   1.767
  650SOL     OW 1965   2.528   0.210   1.491
  650SOL    HW1 1966   2.610   0.181   1.453
  650SOL    HW2 1967   2.548   0.225   1.583
  651SOL     OW 1968   1.914   0.200   0.332
  651SOL    HW1 1969   1.880   0.231   0.249
  651SOL    HW2 1970   1.999   0.162   0.311
  652SOL     OW 1971   2.479   0.835   1.432
  652SOL    HW1 1972   2.534   0.911   1.418
  652SOL    HW2 1973   2.540   0.761   1.439
  653SOL     OW 1974   2.579   0.563   1.703
  653SOL    HW1 1975   2.614   0.627   1.765
  653SOL    HW2 1976   2.610   0.478   1.735
  654SOL     OW 1977   2.244   1.740   1.564
  654SOL    HW1 1978   2.158   1.779   1.548
  654SOL    HW2 1979   2.226   1.659   1.611
  655SOL     OW 1980   2.458   0.739   0.665
  655SOL    HW1 1981   2.493   0.827   0.654
  655SOL    HW2 1982   2.386   0.733   0.602
  656SOL     OW 1983   2.766   1.379   0.064
  656SOL    HW1 1984   2.695   1.385   0.128
  656SOL    HW2 1985   2.729   1.419   2.985
  657SOL     OW 1986   2.522   1.794   0.947
  657SOL    HW1 1987   2.500   1.884   0.922
  657SOL    HW2 1988   2.617   1.789   0.936
  658SOL     OW 1989   2.718   0.963   0.857
  658SOL    HW1 1990   2.765   0.890   0.898
  658SOL    HW2 1991   2.686   1.015   0.930
  659SOL     OW 1992   2.955   1.014   0.078
  659SOL    HW1 1993   2.932   1.059   2.998
  659SOL    HW2 1994   0.014   0.943   0.050
  660SOL     OW 1995   2.084   1.303   1.854
  660SOL    HW1 1996   2.017   1.238   1.828
  660SOL    HW2 1997   2.067   1.319   1.946
  661SOL     OW 1998   1.943   1.231   0.663
  661SOL    HW1 1999   1.952   1.184   0.746
  661SOL    HW2 2000   2.015   1.198   0.609
  662SOL     OW 2001   2.543   1.403   1.628
  662SOL    HW1 2002   2.462   1.359   1.654
  662SOL    HW2 2003   2.536   1.490   1.666
  663SOL     OW 2004   2.341   0.433   0.553
  663SOL    HW1 2005   2.325   0.376   0.477
  663SOL    HW2 2006   2.272   0.410   0.615
  664SOL     OW 2007   2.189   0.553   1.292
  664SOL    HW1 2008   2.247   0.501   1.346
  664SOL    HW2 2009   2.211   0.529   1.202
  665SOL     OW 2010   2.685   1.583   0.679
  665SOL    HW1 2011   2.678   1.623   0.592
  665SOL    HW2 2012   2.609   1.524   0.683
  666SOL     OW 2013   2.852   0.017   1.148
  666SOL    HW1 2014   2.822   2.943   1.095
  666SOL    HW2 2015   2.944   2.997   1.165
  667SOL     OW 2016   2.630   1.330   0.314
  667SOL    HW1 2017   2.601   1.241   0.333
  667SOL    HW2 2018   2.712   1.339   0.362
  668SOL     OW 2019   2.482   1.557   1.284
  668SOL    HW1 2020   2.485   1.639   1.334
  668SOL    HW2 2021   2.570   1.550   1.246
  669SOL     OW 2022   1.902   1.073   0.305
  669SOL    HW1 2023   1.996   1.067   0.287
  669SOL    HW2 2024   1.876   0.984   0.327
  670SOL     OW 2025   2.739   1.651   0.346
  670SOL    HW1 2026   2.668   1.634   0.284
  670SOL    HW2 2027   2.710   1.728   0.395
  671SOL     OW 2028   2.092   0.623   1.984
  671SOL    HW1 2029   2.003   0.622   2.018
  671SOL    HW2 2030   2.083   0.597   1.892
  672SOL     OW 2031   2.088   0.277   2.883
  672SOL    HW1 2032   2.105   0.237   2.968
  672SOL    HW2 2033   2.004   0.242   2.855
  673SOL     OW 2034   1.865   0.381   2.502
  673SOL    HW1 2035   1.785   0.412   2.544
  673SOL    HW2 2036   1.838   0.304   2.452
  674SOL     OW 2037   2.610   1.147   2.897
  674SOL    HW1 2038   2.549   1.194   2.954
  674SOL    HW2 2039   2.660   1.216   2.853
  675SOL     OW 2040   2.547   1.006   2.507
  675SOL    HW1 2041   2.607   0.990   2.580
  675SOL    HW2 2042   2.475   1.057   2.545
  676SOL     OW 2043   2.202   1.432   2.931
  676SOL    HW1 2044   2.125   1.398   2.885
  676SOL    HW2 2045   2.247   1.484   2.864
  677SOL     OW 2046   2.082   1.713   2.336
  677SOL    HW1 2047   2.104   1.790   2.388
  677SOL    HW2 2048   2.153   1.707   2.272
  678SOL     OW 2049   2.092   1.440   2.396
  678SOL    HW1 2050   2.076   1.535   2.400
  678SOL    HW2 2051   2.031   1.403   2.459
  679SOL     OW 2052   2.118   1.092   2.755
  679SOL    HW1 2053   2.111   1.005   2.792
  679SOL    HW2 2054   2.059   1.146   2.807
  680SOL     OW 2055   2.452   0.980   1.995
  680SOL    HW1 2056   2.493   1.032   1.926
  680SOL    HW2 2057   2.489   1.012   2.076
  681SOL     OW 2058   1.980   0.645   2.425
  681SOL    HW1 2059   1.935   0.565   2.449
  681SOL    HW2 2060   1.973   0.701   2.502
  682SOL     OW 2061   1.889   1.595   1.986
  682SOL    HW1 2062   1.876   1.503   2.007
  682SOL    HW2 2063   1.867   1.642   2.066
  683SOL     OW 2064   2.471   1.382   2.593
  683SOL    HW1 2065   2.424   1.300   2.601
  683SOL    HW2 2066   2.455   1.410   2.502
  684SOL     OW 2067   2.683   0.016   2.382
  684SOL    HW1 2068   2.712   0.103   2.357
  684SOL    HW2 2069   2.590   0.014   2.362
  685SOL     OW 2070   2.458   0.724   2.127
  685SOL    HW1 2071   2.461   0.804   2.074
  685SOL    HW2 2072   2.392   0.743   2.194
  686SOL     OW 2073   2.890   0.708   2.282
  686SOL    HW1 2074   2.920   0.691   2.371
  686SOL    HW2 2075   2.814   0.651   2.270
  687SOL     OW 2076   1.953   0.820   2.635
  687SOL    HW1 2077   2.032   0.812   2.689
  687SOL    HW2 2078   1.907   0.896   2.671
  688SOL     OW 2079   2.739   0.345   2.050
  688SOL    HW1 2080   2.790   0.407   1.998
  688SOL    HW2 2081   2.785   0.261   2.039
  689SOL     OW 2082   2.421   0.204   2.837
  689SOL    HW1 2083   2.357   0.268   2.868
  689SOL    HW2 2084   2.440   0.230   2.747
  690SOL     OW 2085   2.861   1.438   2.331
  690SOL    HW1 2086   2.827   1.514   2.284
  690SOL    HW2 2087   2.862   1.465   2.423
  691SOL     OW 2088   2.217   1.805   2.718
  691SOL    HW1 2089   2.260   1.721   2.730
  691SOL    HW2 2090   2.284   1.870   2.741
  692SOL     OW 2091   2.184   0.955   2.112
  692SOL    HW1 2092   2.264   0.976   2.065
  692SOL    HW2 2093   2.151   0.875   2.070
  693SOL     OW 2094   2.328   1.738   2.183
  693SOL    HW1 2095   2.370   1.794   2.248
  693SOL    HW2 2096   2.400   1.708   2.128
  694SOL     OW 2097   2.127   1.800   0.103
  694SOL    HW1 2098   2.168   1.732   0.156
  694SOL    HW2 2099   2.079   1.752   0.036
  695SOL     OW 2100   2.793   1.700   2.757
  695SOL    HW1 2101   2.856   1.639   2.796
  695SOL    HW2 2102   2.754   1.650   2.685
  696SOL     OW 2103   2.258   0.690   2.340
  696SOL    HW1 2104   2.286   0.599   2.356
  696SOL    HW2 2105   2.164   0.689   2.359
  697SOL     OW 2106   2.491   0.122   1.973
  697SOL    HW1 2107   2.579   0.085   1.966
  697SOL    HW2 2108   2.450   0.102   1.888
  698SOL     OW 2109   2.663   1.401   2.793
  698SOL    HW1 2110   2.748   1.392   2.751
  698SOL    HW2 2111   2.600   1.396   2.720
  699SOL     OW 2112   2.782   0.521   2.756
  699SOL    HW1 2113   2.757   0.497   2.667
  699SOL    HW2 2114   2.813   0.440   2.795
  700SOL     OW 2115   2.407   0.060   2.367
  700SOL    HW1 2116   2.319   0.043   2.402
  700SOL    HW2 2117   2.394   0.131   2.304
  701SOL     OW 2118   2.148   0.034   2.061
  701SOL    HW1 2119   2.191   0.109   2.020
  701SOL    HW2 2120   2.220   2.975   2.085
  702SOL     OW 2121   2.811   0.252   2.319
  702SOL    HW1 2122   2.761   0.298   2.251
  702SOL    HW2 2123   2.891   0.223   2.275
  703SOL     OW 2124   0.084   1.577   2.660
  703SOL    HW1 2125   0.112   1.622   2.580
  703SOL    HW2 2126   0.166   1.555   2.705
  704SOL     OW 2127   2.329   1.146   2.597
  704SOL    HW1 2128   2.259   1.129   2.660
  704SOL    HW2 2129   2.289   1.130   2.511
  705SOL     OW 2130   2.885   0.549   1.880
  705SOL    HW1 2131   2.840   0.631   1.859
  705SOL    HW2 2132   2.937   0.570   1.958
  706SOL     OW 2133   2.742   0.467   2.494
  706SOL    HW1 2134   2.678   0.518   2.445
  706SOL    HW2 2135   2.740   0.380   2.453
  707SOL     OW 2136   2.858   0.056   2.615
  707SOL    HW1 2137   2.819   0.054   2.527
  707SOL    HW2 2138   2.836   2.970   2.652
  708SOL     OW 2139   2.354   1.415   2.022
  708SOL    HW1 2140   2.279   1.386   2.073
  708SOL    HW2 2141   2.333   1.390   1.932
  709SOL     OW 2142   2.394   0.265   2.182
  709SOL    HW1 2143   2.431   0.213   2.110
  709SOL    HW2 2144   2.369   0.348   2.141
  710SOL     OW 2145   2.570   1.062   2.233
  710SOL    HW1 2146   2.554   1.046   2.326
  710SOL    HW2 2147   2.648   1.011   2.212
  711SOL     OW 2148   2.215   1.107   2.352
  711SOL    HW1 2149   2.217   1.182   2.292
  711SOL    HW2 2150   2.211   1.030   2.295
  712SOL     OW 2151   2.411   0.543   2.729
  712SOL    HW1 2152   2.430   0.594   2.650
  712SOL    HW2 2153   2.480   0.568   2.791
  713SOL     OW 2154   2.438   0.872   2.880
  713SOL    HW1 2155   2.479   0.954   2.852
  713SOL    HW2 2156   2.420   0.884   2.973
  714SOL     OW 2157   0.054   0.533   2.132
  714SOL    HW1 2158   0.084   0.456   2.180
  714SOL    HW2 2159   0.023   0.593   2.199
  715SOL     OW 2160   2.598   0.646   2.918
  715SOL    HW1 2161   2.662   0.622   2.852
  715SOL    HW2 2162   2.559   0.728   2.885
  716SOL     OW 2163   2.172   0.064   2.507
  716SOL    HW1 2164   2.165   0.154   2.538
  716SOL    HW2 2165   2.152   0.011   2.585
  717SOL     OW 2166   2.874   0.778   2.831
  717SOL    HW1 2167   2.880   0.770   2.926
  717SOL    HW2 2168   2.867   0.688   2.799
  718SOL     OW 2169   2.908   1.344   2.697
  718SOL    HW1 2170   2.915   1.268   2.639
  718SOL    HW2 2171   2.975   1.404   2.665
  719SOL     OW 2172   2.170   0.811   2.810
  719SOL    HW1 2173   2.264   0.831   2.810
  719SOL    HW2 2174   2.166   0.719   2.838
  720SOL     OW 2175   2.181   0.537   2.870
  720SOL    HW1 2176   2.148   0.447   2.869
  720SOL    HW2 2177   2.260   0.534   2.815
  721SOL     OW 2178   1.866   1.321   2.057
  721SOL    HW1 2179   1.775   1.336   2.032
  721SOL    HW2 2180   1.867   1.231   2.090
  722SOL     OW 2181   1.951   1.794   2.794
  722SOL    HW1 2182   1.921   1.711   2.758
  722SOL    HW2 2183   2.043   1.801   2.768
  723SOL     OW 2184   2.365   1.577   2.764
  723SOL    HW1 2185   2.436   1.638   2.786
  723SOL    HW2 2186   2.407   1.511   2.710
  724SOL     OW 2187   2.843   0.755   0.106
  724SOL    HW1 2188   2.883   0.738   0.191
  724SOL    HW2 2189   2.751   0.771   0.125
  725SOL     OW 2190   2.670   0.564   2.215
  725SOL    HW1 2191   2.669   0.489   2.156
  725SOL    HW2 2192   2.596   0.618   2.187
  726SOL     OW 2193   2.558   0.436   0.080
  726SOL    HW1 2194   2.466   0.439   0.107
  726SOL    HW2 2195   2.571   0.514   0.026
  727SOL     OW 2196   2.329   0.494   2.049
  727SOL    HW1 2197   2.385   0.569   2.070
  727SOL    HW2 2198   2.241   0.532   2.037
  728SOL     OW 2199   1.942   1.269   2.886
  728SOL    HW1 2200   1.929   1.279   2.980
  728SOL    HW2 2201   1.869   1.214   2.857
  729SOL     OW 2202   2.532   1.619   2.016
  729SOL    HW1 2203   2.541   1.631   1.922
  729SOL    HW2 2204   2.478   1.541   2.026
  730SOL     OW 2205   2.132   0.329   2.615
  730SOL    HW1 2206   2.046   0.363   2.592
  730SOL    HW2 2207   2.126   0.310   2.709
  731SOL     OW 2208   2.787   0.922   2.155
  731SOL    HW1 2209   2.836   0.928   2.073
  731SOL    HW2 2210   2.819   0.843   2.197
  732SOL     OW 2211   2.914   1.079   2.585
  732SOL    HW1 2212   2.836   1.039   2.623
  732SOL    HW2 2213   2.929   1.030   2.504
  733SOL     OW 2214   2.882   0.237   2.817
  733SOL    HW1 2215   2.876   0.188   2.735
  733SOL    HW2 2216   2.874   0.171   2.886
  734SOL     OW 2217   2.462   1.488   2.342
  734SOL    HW1 2218   2.506   1.439   2.272
  734SOL    HW2 2219   2.395   1.539   2.296
  735SOL     OW 2220   2.121   1.345   2.150
  735SOL    HW1 2221   2.028   1.343   2.127
  735SOL    HW2 2222   2.123   1.382   2.238
  736SOL     OW 2223   1.940   0.336   1.899
  736SOL    HW1 2224   1.850   0.317   1.872
  736SOL    HW2 2225   1.966   0.410   1.844
  737SOL     OW 2226   1.898   0.209   2.159
  737SOL    HW1 2227   1.919   0.266   2.086
  737SOL    HW2 2228   1.966   0.141   2.157
  738SOL     OW 2229   2.458   0.739   2.528
  738SOL    HW1 2230   2.493   0.827   2.513
  738SOL    HW2 2231   2.386   0.730   2.466
  739SOL     OW 2232   2.732   1.369   1.900
  739SOL    HW1 2233   2.682   1.402   1.974
  739SOL    HW2 2234   2.747   1.446   1.844
  740SOL     OW 2235   2.527   1.797   2.823
  740SOL    HW1 2236   2.506   1.885   2.791
  740SOL    HW2 2237   2.620   1.786   2.804
  741SOL     OW 2238   2.712   0.962   2.720
  741SOL    HW1 2239   2.765   0.893   2.759
  741SOL    HW2 2240   2.685   1.017   2.794
  742SOL     OW 2241   2.939   0.949   1.928
  742SOL    HW1 2242   2.906   1.024   1.877
  742SOL    HW2 2243   0.023   0.979   1.964
  743SOL     OW 2244   1.946   1.237   2.528
  743SOL    HW1 2245   1.944   1.182   2.606
  743SOL    HW2 2246   2.013   1.198   2.473
  744SOL     OW 2247   2.335   0.430   2.411
  744SOL    HW1 2248   2.321   0.374   2.334
  744SOL    HW2 2249   2.267   0.402   2.473
  745SOL     OW 2250   2.684   1.581   2.536
  745SOL    HW1 2251   2.681   1.622   2.450
  745SOL    HW2 2252   2.607   1.524   2.539
  746SOL     OW 2253   2.634   1.333   2.175
  746SOL    HW1 2254   2.605   1.242   2.184
  746SOL    HW2 2255   2.714   1.338   2.227
  747SOL     OW 2256   1.906   1.072   2.168
  747SOL    HW1 2257   2.000   1.062   2.151
  747SOL    HW2 2258   1.877   0.984   2.191
  748SOL     OW 2259   2.739   1.646   2.209
  748SOL    HW1 2260   2.669   1.634   2.145
  748SOL    HW2 2261   2.715   1.727   2.254
  749SOL     OW 2262   2.089   2.501   0.112
  749SOL    HW1 2263   1.999   2.475   0.132
  749SOL    HW2 2264   2.106   2.462   0.026
  750SOL     OW 2265   2.085   2.143   0.992
  750SOL    HW1 2266   2.115   2.109   1.076
  750SOL    HW2 2267   1.997   2.108   0.981
  751SOL     OW 2268   1.868   2.246   0.639
  751SOL    HW1 2269   1.784   2.266   0.680
  751SOL    HW2 2270   1.852   2.168   0.587
  752SOL     OW 2271   2.592   0.000   1.022
  752SOL    HW1 2272   2.523   0.051   1.065
  752SOL    HW2 2273   2.641   0.065   0.971
  753SOL     OW 2274   2.724   2.635   1.820
  753SOL    HW1 2275   2.722   2.696   1.894
  753SOL    HW2 2276   2.754   2.689   1.747
  754SOL     OW 2277   2.513   2.848   0.709
  754SOL    HW1 2278   2.608   2.856   0.723
  754SOL    HW2 2279   2.489   2.928   0.664
  755SOL     OW 2280   2.309   2.261   1.490
  755SOL    HW1 2281   2.384   2.202   1.493
  755SOL    HW2 2282   2.232   2.204   1.501
  756SOL     OW 2283   2.112   0.311   0.478
  756SOL    HW1 2284   2.057   0.387   0.499
  756SOL    HW2 2285   2.054   0.235   0.491
  757SOL     OW 2286   2.108   2.947   0.883
  757SOL    HW1 2287   2.127   2.860   0.917
  757SOL    HW2 2288   2.060   2.990   0.954
  758SOL     OW 2289   2.479   2.832   0.149
  758SOL    HW1 2290   2.462   2.925   0.134
  758SOL    HW2 2291   2.550   2.830   0.213
  759SOL     OW 2292   1.977   2.510   0.561
  759SOL    HW1 2293   1.949   2.421   0.583
  759SOL    HW2 2294   1.969   2.559   0.643
  760SOL     OW 2295   1.986   2.605   1.584
  760SOL    HW1 2296   2.079   2.622   1.597
  760SOL    HW2 2297   1.942   2.687   1.606
  761SOL     OW 2298   2.528   0.249   0.675
  761SOL    HW1 2299   2.470   0.185   0.717
  761SOL    HW2 2300   2.468   0.307   0.628
  762SOL     OW 2301   2.675   1.864   0.506
  762SOL    HW1 2302   2.713   1.951   0.493
  762SOL    HW2 2303   2.581   1.880   0.516
  763SOL     OW 2304   2.056   2.842   1.256
  763SOL    HW1 2305   2.138   2.793   1.249
  763SOL    HW2 2306   1.988   2.779   1.230
  764SOL     OW 2307   2.194   2.113   1.811
  764SOL    HW1 2308   2.238   2.197   1.826
  764SOL    HW2 2309   2.104   2.127   1.842
  765SOL     OW 2310   2.453   2.580   0.270
  765SOL    HW1 2311   2.460   2.661   0.219
  765SOL    HW2 2312   2.388   2.600   0.338
  766SOL     OW 2313   2.653   2.489   1.451
  766SOL    HW1 2314   2.630   2.462   1.540
  766SOL    HW2 2315   2.617   2.420   1.395
  767SOL     OW 2316   2.826   2.745   1.582
  767SOL    HW1 2317   2.853   2.661   1.545
  767SOL    HW2 2318   2.774   2.786   1.513
  768SOL     OW 2319   2.849   2.237   1.257
  768SOL    HW1 2320   2.769   2.282   1.286
  768SOL    HW2 2321   2.838   2.229   1.162
  769SOL     OW 2322   2.887   2.581   0.409
  769SOL    HW1 2323   2.929   2.563   0.494
  769SOL    HW2 2324   2.815   2.519   0.405
  770SOL     OW 2325   1.946   2.682   0.777
  770SOL    HW1 2326   2.030   2.672   0.822
  770SOL    HW2 2327   1.911   2.765   0.810
  771SOL     OW 2328   2.788   2.192   0.218
  771SOL    HW1 2329   2.781   2.260   0.151
  771SOL    HW2 2330   2.759   2.112   0.174
  772SOL     OW 2331   2.412   2.046   0.893
  772SOL    HW1 2332   2.414   2.073   0.984
  772SOL    HW2 2333   2.412   2.127   0.843
  773SOL     OW 2334   2.062   2.144   1.501
  773SOL    HW1 2335   1.979   2.193   1.498
  773SOL    HW2 2336   2.046   2.075   1.565
  774SOL     OW 2337   2.251   2.555   0.474
  774SOL    HW1 2338   2.274   2.463   0.486
  774SOL    HW2 2339   2.157   2.560   0.494
  775SOL     OW 2340   2.486   1.980   0.115
  775SOL    HW1 2341   2.581   1.966   0.117
  775SOL    HW2 2342   2.457   1.934   0.036
  776SOL     OW 2343   2.629   2.144   1.757
  776SOL    HW1 2344   2.702   2.082   1.765
  776SOL    HW2 2345   2.570   2.121   1.829
  777SOL     OW 2346   2.788   2.365   0.902
  777SOL    HW1 2347   2.761   2.355   0.811
  777SOL    HW2 2348   2.825   2.280   0.927
  778SOL     OW 2349   2.410   1.924   0.504
  778SOL    HW1 2350   2.330   1.925   0.557
  778SOL    HW2 2351   2.403   2.001   0.448
  779SOL     OW 2352   2.813   2.100   0.465
  779SOL    HW1 2353   2.779   2.148   0.390
  779SOL    HW2 2354   2.900   2.071   0.438
  780SOL     OW 2355   2.887   2.377   0.035
  780SOL    HW1 2356   2.844   2.461   0.016
  780SOL    HW2 2357   2.943   2.395   0.110
  781SOL     OW 2358   1.939   2.417   1.391
  781SOL    HW1 2359   2.031   2.414   1.364
  781SOL    HW2 2360   1.936   2.488   1.456
  782SOL     OW 2361   2.423   2.089   1.165
  782SOL    HW1 2362   2.461   2.009   1.200
  782SOL    HW2 2363   2.331   2.087   1.195
  783SOL     OW 2364   2.742   2.320   0.635
  783SOL    HW1 2365   2.685   2.379   0.586
  783SOL    HW2 2366   2.744   2.239   0.583
  784SOL     OW 2367   2.856   1.924   0.757
  784SOL    HW1 2368   2.811   1.905   0.675
  784SOL    HW2 2369   2.849   1.844   0.808
  785SOL     OW 2370   2.377   2.121   0.322
  785SOL    HW1 2371   2.421   2.074   0.251
  785SOL    HW2 2372   2.362   2.209   0.286
  786SOL     OW 2373   2.752   1.950   1.387
  786SOL    HW1 2374   2.778   1.934   1.297
  786SOL    HW2 2375   2.828   1.991   1.427
  787SOL     OW 2376   2.275   2.679   1.254
  787SOL    HW1 2377   2.346   2.686   1.318
  787SOL    HW2 2378   2.242   2.590   1.264
  788SOL     OW 2379   2.418   2.397   0.861
  788SOL    HW1 2380   2.432   2.453   0.785
  788SOL    HW2 2381   2.482   2.426   0.925
  789SOL     OW 2382   2.275   2.602   1.604
  789SOL    HW1 2383   2.336   2.647   1.545
  789SOL    HW2 2384   2.315   2.517   1.619
  790SOL     OW 2385   2.856   1.990   1.773
  790SOL    HW1 2386   2.901   2.042   1.706
  790SOL    HW2 2387   2.898   1.904   1.769
  791SOL     OW 2388   2.360   1.906   1.746
  791SOL    HW1 2389   2.318   1.850   1.681
  791SOL    HW2 2390   2.299   1.979   1.758
  792SOL     OW 2391   2.450   2.730   1.035
  792SOL    HW1 2392   2.468   2.822   1.017
  792SOL    HW2 2393   2.388   2.731   1.108
  793SOL     OW 2394   0.061   2.399   0.269
  793SOL    HW1 2395   0.076   2.318   0.318
  793SOL    HW2 2396   0.034   2.462   0.335
  794SOL     OW 2397   2.162   2.063   1.246
  794SOL    HW1 2398   2.125   2.093   1.328
  794SOL    HW2 2399   2.147   1.968   1.246
  795SOL     OW 2400   2.588   2.492   1.059
  795SOL    HW1 2401   2.666   2.481   1.005
  795SOL    HW2 2402   2.559   2.581   1.042
  796SOL     OW 2403   2.163   1.928   0.622
  796SOL    HW1 2404   2.145   2.018   0.648
  796SOL    HW2 2405   2.171   1.881   0.704
  797SOL     OW 2406   2.857   2.623   0.982
  797SOL    HW1 2407   2.912   2.617   1.061
  797SOL    HW2 2408   2.862   2.535   0.944
  798SOL     OW 2409   2.225   2.787   1.801
  798SOL    HW1 2410   2.289   2.777   1.871
  798SOL    HW2 2411   2.245   2.716   1.740
  799SOL     OW 2412   2.174   2.674   0.946
  799SOL    HW1 2413   2.267   2.690   0.934
  799SOL    HW2 2414   2.169   2.585   0.981
  800SOL     OW 2415   2.194   2.388   1.011
  800SOL    HW1 2416   2.159   2.300   0.996
  800SOL    HW2 2417   2.271   2.392   0.954
  801SOL     OW 2418   2.967   2.242   1.668
  801SOL    HW1 2419   2.908   2.301   1.716
  801SOL    HW2 2420   0.053   2.283   1.675
  802SOL     OW 2421   2.975   2.067   1.468
  802SOL    HW1 2422   2.962   2.137   1.532
  802SOL    HW2 2423   2.972   2.112   1.384
  803SOL     OW 2424   2.859   2.666   1.267
  803SOL    HW1 2425   2.910   2.595   1.306
  803SOL    HW2 2426   2.777   2.625   1.240
  804SOL     OW 2427   1.897   2.409   1.116
  804SOL    HW1 2428   1.977   2.389   1.067
  804SOL    HW2 2429   1.925   2.411   1.207
  805SOL     OW 2430   2.051   2.380   1.724
  805SOL    HW1 2431   2.109   2.343   1.657
  805SOL    HW2 2432   2.007   2.452   1.680
  806SOL     OW 2433   2.669   2.427   0.357
  806SOL    HW1 2434   2.671   2.357   0.291
  806SOL    HW2 2435   2.595   2.482   0.332
  807SOL     OW 2436   2.560   2.316   1.263
  807SOL    HW1 2437   2.510   2.241   1.233
  807SOL    HW2 2438   2.559   2.377   1.190
  808SOL     OW 2439   2.307   2.356   0.206
  808SOL    HW1 2440   2.371   2.424   0.224
  808SOL    HW2 2441   2.226   2.403   0.185
  809SOL     OW 2442   2.021   2.996   1.475
  809SOL    HW1 2443   2.023   2.939   1.552
  809SOL    HW2 2444   2.035   2.938   1.401
  810SOL     OW 2445   2.761   1.933   0.124
  810SOL    HW1 2446   2.818   1.905   0.053
  810SOL    HW2 2447   2.801   1.895   0.203
  811SOL     OW 2448   2.125   2.178   0.718
  811SOL    HW1 2449   2.040   2.215   0.694
  811SOL    HW2 2450   2.121   2.169   0.814
  812SOL     OW 2451   2.674   2.866   1.377
  812SOL    HW1 2452   2.730   2.839   1.305
  812SOL    HW2 2453   2.700   2.956   1.395
  813SOL     OW 2454   2.741   2.788   0.285
  813SOL    HW1 2455   2.822   2.837   0.274
  813SOL    HW2 2456   2.761   2.722   0.352
  814SOL     OW 2457   2.881   2.103   0.968
  814SOL    HW1 2458   2.876   2.055   0.886
  814SOL    HW2 2459   2.869   2.037   1.036
  815SOL     OW 2460   1.975   2.864   1.708
  815SOL    HW1 2461   1.899   2.856   1.766
  815SOL    HW2 2462   2.050   2.846   1.764
  816SOL     OW 2463   2.526   2.063   1.501
  816SOL    HW1 2464   2.607   2.040   1.454
  816SOL    HW2 2465   2.556   2.093   1.587
  817SOL     OW 2466   1.934   2.018   0.341
  817SOL    HW1 2467   1.900   2.060   0.263
  817SOL    HW2 2468   2.027   2.002   0.321
  818SOL     OW 2469   2.475   2.693   1.435
  818SOL    HW1 2470   2.532   2.768   1.419
  818SOL    HW2 2471   2.535   2.618   1.442
  819SOL     OW 2472   2.578   2.425   1.702
  819SOL    HW1 2473   2.614   2.490   1.762
  819SOL    HW2 2474   2.607   2.341   1.737
  820SOL     OW 2475   2.455   2.585   0.664
  820SOL    HW1 2476   2.479   2.677   0.676
  820SOL    HW2 2477   2.386   2.587   0.597
  821SOL     OW 2478   2.753   2.838   0.864
  821SOL    HW1 2479   2.782   2.754   0.899
  821SOL    HW2 2480   2.680   2.863   0.921
  822SOL     OW 2481   2.293   2.295   0.529
  822SOL    HW1 2482   2.320   2.224   0.471
  822SOL    HW2 2483   2.244   2.251   0.599
  823SOL     OW 2484   2.191   2.416   1.290
  823SOL    HW1 2485   2.246   2.361   1.346
  823SOL    HW2 2486   2.211   2.388   1.201
  824SOL     OW 2487   2.867   1.879   1.142
  824SOL    HW1 2488   2.814   1.809   1.103
  824SOL    HW2 2489   2.957   1.857   1.117
  825SOL     OW 2490   1.869   2.915   0.301
  825SOL    HW1 2491   1.953   2.917   0.257
  825SOL    HW2 2492   1.862   2.826   0.336
  826SOL     OW 2493   2.094   2.471   1.982
  826SOL    HW1 2494   2.006   2.488   2.016
  826SOL    HW2 2495   2.080   2.451   1.890
  827SOL     OW 2496   2.090   2.143   2.846
  827SOL    HW1 2497   2.116   2.116   2.933
  827SOL    HW2 2498   2.000   2.112   2.837
  828SOL     OW 2499   1.869   2.246   2.498
  828SOL    HW1 2500   1.786   2.271   2.538
  828SOL    HW2 2501   1.849   2.164   2.452
  829SOL     OW 2502   2.639   0.017   2.877
  829SOL    HW1 2503   2.549   0.025   2.908
  829SOL    HW2 2504   2.651   0.092   2.819
  830SOL     OW 2505   2.510   2.844   2.568
  830SOL    HW1 2506   2.602   2.847   2.593
  830SOL    HW2 2507   2.494   2.929   2.527
  831SOL     OW 2508   2.102   0.305   2.332
  831SOL    HW1 2509   2.051   0.382   2.357
  831SOL    HW2 2510   2.052   0.231   2.367
  832SOL     OW 2511   2.112   2.951   2.750
  832SOL    HW1 2512   2.128   2.861   2.779
  832SOL    HW2 2513   2.055   2.988   2.818
  833SOL     OW 2514   2.463   2.824   1.998
  833SOL    HW1 2515   2.458   2.906   1.949
  833SOL    HW2 2516   2.533   2.837   2.061
  834SOL     OW 2517   1.978   2.510   2.424
  834SOL    HW1 2518   1.949   2.421   2.446
  834SOL    HW2 2519   1.970   2.559   2.506
  835SOL     OW 2520   2.498   0.245   2.568
  835SOL    HW1 2521   2.461   0.163   2.537
  835SOL    HW2 2522   2.467   0.311   2.505
  836SOL     OW 2523   2.675   1.863   2.367
  836SOL    HW1 2524   2.714   1.949   2.352
  836SOL    HW2 2525   2.582   1.881   2.379
  837SOL     OW 2526   2.061   2.806   0.117
  837SOL    HW1 2527   2.127   2.737   0.108
  837SOL    HW2 2528   1.979   2.764   0.090
  838SOL     OW 2529   2.458   2.579   2.130
  838SOL    HW1 2530   2.462   2.657   2.075
  838SOL    HW2 2531   2.392   2.599   2.196
  839SOL     OW 2532   2.894   2.579   2.273
  839SOL    HW1 2533   2.924   2.568   2.363
  839SOL    HW2 2534   2.816   2.524   2.267
  840SOL     OW 2535   1.946   2.683   2.638
  840SOL    HW1 2536   2.028   2.671   2.686
  840SOL    HW2 2537   1.909   2.764   2.675
  841SOL     OW 2538   2.750   2.206   2.059
  841SOL    HW1 2539   2.789   2.269   1.998
  841SOL    HW2 2540   2.754   2.122   2.013
  842SOL     OW 2541   2.411   2.047   2.766
  842SOL    HW1 2542   2.379   2.085   2.848
  842SOL    HW2 2543   2.421   2.123   2.708
  843SOL     OW 2544   2.251   2.555   2.335
  843SOL    HW1 2545   2.274   2.463   2.347
  843SOL    HW2 2546   2.158   2.560   2.356
  844SOL     OW 2547   2.498   1.987   1.965
  844SOL    HW1 2548   2.561   1.917   1.982
  844SOL    HW2 2549   2.446   1.955   1.890
  845SOL     OW 2550   2.786   2.377   2.756
  845SOL    HW1 2551   2.761   2.354   2.666
  845SOL    HW2 2552   2.814   2.295   2.795
  846SOL     OW 2553   2.410   1.926   2.366
  846SOL    HW1 2554   2.329   1.926   2.417
  846SOL    HW2 2555   2.404   2.004   2.311
  847SOL     OW 2556   2.153   1.909   2.046
  847SOL    HW1 2557   2.211   1.974   2.007
  847SOL    HW2 2558   2.212   1.845   2.087
  848SOL     OW 2559   2.806   2.103   2.314
  848SOL    HW1 2560   2.769   2.150   2.239
  848SOL    HW2 2561   2.894   2.077   2.285
  849SOL     OW 2562   2.885   2.413   1.880
  849SOL    HW1 2563   2.838   2.492   1.857
  849SOL    HW2 2564   2.933   2.435   1.960
  850SOL     OW 2565   2.742   2.317   2.494
  850SOL    HW1 2566   2.683   2.377   2.447
  850SOL    HW2 2567   2.742   2.238   2.440
  851SOL     OW 2568   2.854   1.925   2.609
  851SOL    HW1 2569   2.806   1.897   2.531
  851SOL    HW2 2570   2.851   1.849   2.668
  852SOL     OW 2571   2.390   2.124   2.181
  852SOL    HW1 2572   2.431   2.076   2.109
  852SOL    HW2 2573   2.368   2.209   2.144
  853SOL     OW 2574   2.416   2.392   2.724
  853SOL    HW1 2575   2.430   2.449   2.648
  853SOL    HW2 2576   2.477   2.425   2.790
  854SOL     OW 2577   2.434   2.729   2.887
  854SOL    HW1 2578   2.477   2.806   2.849
  854SOL    HW2 2579   2.430   2.748   2.980
  855SOL     OW 2580   0.053   2.392   2.137
  855SOL    HW1 2581   0.085   2.319   2.190
  855SOL    HW2 2582   0.013   2.451   2.200
  856SOL     OW 2583   2.158   2.070   0.093
  856SOL    HW1 2584   2.197   2.100   0.175
  856SOL    HW2 2585   2.153   1.975   0.102
  857SOL     OW 2586   2.591   2.499   2.912
  857SOL    HW1 2587   2.663   2.481   2.852
  857SOL    HW2 2588   2.559   2.586   2.887
  858SOL     OW 2589   2.164   1.927   2.483
  858SOL    HW1 2590   2.145   2.018   2.508
  858SOL    HW2 2591   2.169   1.881   2.567
  859SOL     OW 2592   2.874   2.633   2.824
  859SOL    HW1 2593   2.893   2.632   2.918
  859SOL    HW2 2594   2.867   2.540   2.801
  860SOL     OW 2595   2.170   2.673   2.808
  860SOL    HW1 2596   2.264   2.694   2.814
  860SOL    HW2 2597   2.165   2.582   2.836
  861SOL     OW 2598   2.182   2.398   2.865
  861SOL    HW1 2599   2.147   2.310   2.859
  861SOL    HW2 2600   2.263   2.396   2.814
  862SOL     OW 2601   2.876   2.641   0.096
  862SOL    HW1 2602   2.919   2.635   0.182
  862SOL    HW2 2603   2.789   2.676   0.116
  863SOL     OW 2604   2.674   2.429   2.219
  863SOL    HW1 2605   2.673   2.353   2.161
  863SOL    HW2 2606   2.599   2.482   2.191
  864SOL     OW 2607   2.567   2.308   0.099
  864SOL    HW1 2608   2.476   2.278   0.094
  864SOL    HW2 2609   2.572   2.380   0.036
  865SOL     OW 2610   2.330   2.352   2.049
  865SOL    HW1 2611   2.385   2.427   2.073
  865SOL    HW2 2612   2.243   2.389   2.036
  866SOL     OW 2613   0.163   2.701   2.159
  866SOL    HW1 2614   0.110   2.645   2.215
  866SOL    HW2 2615   0.201   2.642   2.094
  867SOL     OW 2616   2.126   2.179   2.577
  867SOL    HW1 2617   2.041   2.215   2.553
  867SOL    HW2 2618   2.123   2.172   2.672
  868SOL     OW 2619   2.756   2.765   2.109
  868SOL    HW1 2620   2.834   2.818   2.090
  868SOL    HW2 2621   2.785   2.705   2.178
  869SOL     OW 2622   2.876   2.103   2.816
  869SOL    HW1 2623   2.870   2.055   2.733
  869SOL    HW2 2624   2.900   2.036   2.880
  870SOL     OW 2625   1.939   2.195   1.897
  870SOL    HW1 2626   1.852   2.176   1.862
  870SOL    HW2 2627   1.969   2.271   1.847
  871SOL     OW 2628   1.931   2.019   2.174
  871SOL    HW1 2629   1.917   2.099   2.123
  871SOL    HW2 2630   2.016   1.986   2.144
  872SOL     OW 2631   2.456   2.581   2.524
  872SOL    HW1 2632   2.480   2.673   2.537
  872SOL    HW2 2633   2.385   2.583   2.460
  873SOL     OW 2634   2.743   2.832   2.712
  873SOL    HW1 2635   2.786   2.755   2.749
  873SOL    HW2 2636   2.709   2.880   2.787
  874SOL     OW 2637   2.952   2.837   1.900
  874SOL    HW1 2638   2.916   2.925   1.911
  874SOL    HW2 2639   0.009   2.825   1.975
  875SOL     OW 2640   2.293   2.295   2.387
  875SOL    HW1 2641   2.319   2.222   2.330
  875SOL    HW2 2642   2.244   2.253   2.458
  876SOL     OW 2643   1.885   2.920   2.177
  876SOL    HW1 2644   1.969   2.930   2.132
  876SOL    HW2 2645   1.880   2.827   2.197
   3.00000   3.00000   3.00000
