PNI in water
33614
    1PNI    CH1    1   0.742   3.149   3.482
    1PNI    CH2    2   0.763   3.284   3.415
    1PNI    CH1    3   0.881   3.365   3.471
    1PNI    CH2    4   0.934   3.490   3.401
    1PNI    CH1    5   1.014   3.583   3.493
    1PNI    CH2    6   1.141   3.650   3.440
    1PNI    CH1    7   1.241   3.712   3.541
    1PNI    CH2    8   1.390   3.705   3.508
    1PNI    CH1    9   1.495   3.796   3.579
    1PNI    CH2   10   1.629   3.730   3.609
    1PNI    CH1   11   1.777   3.778   3.610
    1PNI    CH2   12   1.875   3.675   3.555
    1PNI    CH1   13   2.027   3.679   3.587
    1PNI    CH2   14   2.100   3.548   3.618
    1PNI    CH1   15   2.243   3.517   3.571
    1PNI    CH2   16   2.347   3.483   3.678
    1PNI    CH1   17   2.494   3.521   3.651
    1PNI    CH2   18   2.611   3.465   3.734
    1PNI    CH1   19   2.748   3.499   3.673
    1PNI    CH2   20   2.858   3.393   3.658
    1PNI    CH1   21   2.996   3.457   3.639
    1PNI    CH2   22   3.113   3.389   3.566
    1PNI    CH1   23   3.195   3.430   3.443
    1PNI    CH2   24   3.333   3.366   3.464
    1PNI    CH1   25   3.470   3.396   3.404
    1PNI    CH2   26   3.575   3.381   3.515
    1PNI    CH1   27   3.701   3.467   3.519
    1PNI    CH2   28   3.833   3.401   3.559
    1PNI    CH1   29   3.918   3.495   3.646
    1PNI    CH2   30   4.042   3.425   3.701
    1PNI    CH1   31   4.174   3.497   3.730
    1PNI    CH2   32   4.293   3.432   3.657
    1PNI    CH1   33   4.430   3.499   3.670
    1PNI    CH2   34   4.508   3.460   3.544
    1PNI    CH1   35   4.641   3.536   3.535
    1PNI    CH2   36   4.706   3.511   3.399
    1PNI    CH1   37   4.852   3.558   3.398
    1PNI    CH2   38   4.949   3.459   3.333
    1PNI    CH1   39   5.078   3.532   3.295
    1PNI    CH2   40   5.217   3.469   3.291
    1PNI    CH1   41   5.310   3.557   3.375
    1PNI    CH2   42   5.436   3.619   3.314
    1PNI    CH1   43   5.533   3.674   3.420
    1PNI    CH2   44   5.670   3.710   3.363
    1PNI    CH1   45   5.794   3.641   3.420
    1PNI    CH2   46   5.936   3.678   3.375
    1PNI    CH1   47   6.045   3.577   3.413
    1PNI    CH2   48   6.179   3.624   3.356
    1PNI    CH1   49   6.311   3.595   3.428
    1PNI    CH2   50   6.422   3.567   3.327
    2SOL     OW   51   0.220   0.662   0.125
    2SOL    HW1   52   0.151   0.599   0.159
    2SOL    HW2   53   0.251   0.632   0.035
    3SOL     OW   54   0.220   0.290   0.986
    3SOL    HW1   55   0.280   0.247   1.053
    3SOL    HW2   56   0.126   0.262   1.003
    4SOL     OW   57   6.994   0.391   0.657
    4SOL    HW1   58   6.938   0.408   0.739
    4SOL    HW2   59   0.024   0.296   0.657
    5SOL     OW   60   0.570   1.298   1.188
    5SOL    HW1   61   0.480   1.295   1.144
    5SOL    HW2   62   0.587   1.391   1.222
    6SOL     OW   63   1.564   1.515   0.707
    6SOL    HW1   64   1.523   1.489   0.794
    6SOL    HW2   65   1.494   1.519   0.636
    7SOL     OW   66   1.133   0.701   0.694
    7SOL    HW1   67   1.186   0.785   0.679
    7SOL    HW2   68   1.082   0.710   0.780
    8SOL     OW   69   1.786   0.582   0.198
    8SOL    HW1   70   1.720   0.635   0.145
    8SOL    HW2   71   1.738   0.516   0.254
    9SOL     OW   72   0.742   1.140   1.042
    9SOL    HW1   73   0.674   1.175   1.106
    9SOL    HW2   74   0.787   1.217   0.996
   10SOL     OW   75   0.872   0.764   1.820
   10SOL    HW1   76   0.864   0.832   1.893
   10SOL    HW2   77   0.898   0.809   1.735
   11SOL     OW   78   0.682   0.999   0.651
   11SOL    HW1   79   0.754   0.989   0.719
   11SOL    HW2   80   0.608   1.055   0.688
   12SOL     OW   81   0.713   1.152   1.820
   12SOL    HW1   82   0.766   1.231   1.854
   12SOL    HW2   83   0.629   1.185   1.776
   13SOL     OW   84   0.333   1.420   1.065
   13SOL    HW1   85   0.256   1.377   1.017
   13SOL    HW2   86   0.384   1.477   1.000
   14SOL     OW   87   1.457   1.502   1.359
   14SOL    HW1   88   1.515   1.583   1.366
   14SOL    HW2   89   1.386   1.506   1.429
   15SOL     OW   90   0.451   0.405   1.490
   15SOL    HW1   91   0.536   0.352   1.492
   15SOL    HW2   92   0.374   0.343   1.502
   16SOL     OW   93   1.616   0.461   0.733
   16SOL    HW1   94   1.556   0.487   0.658
   16SOL    HW2   95   1.621   0.535   0.799
   17SOL     OW   96   0.196   1.755   0.463
   17SOL    HW1   97   0.239   1.818   0.528
   17SOL    HW2   98   0.267   1.706   0.412
   18SOL     OW   99   1.138   1.340   1.698
   18SOL    HW1  100   1.184   1.338   1.786
   18SOL    HW2  101   1.082   1.258   1.687
   19SOL     OW  102   0.268   1.467   0.541
   19SOL    HW1  103   0.241   1.559   0.568
   19SOL    HW2  104   0.228   1.401   0.604
   20SOL     OW  105   0.275   1.083   0.911
   20SOL    HW1  106   0.268   0.987   0.937
   20SOL    HW2  107   0.199   1.134   0.953
   21SOL     OW  108   0.600   1.797   1.426
   21SOL    HW1  109   0.515   1.774   1.473
   21SOL    HW2  110   0.630   1.888   1.455
   22SOL     OW  111   0.585   0.966   0.148
   22SOL    HW1  112   0.642   0.988   0.069
   22SOL    HW2  113   0.621   1.011   0.229
   23SOL     OW  114   1.578   0.133   1.446
   23SOL    HW1  115   1.593   0.227   1.415
   23SOL    HW2  116   1.601   0.125   1.543
   24SOL     OW  117   0.134   0.618   0.568
   24SOL    HW1  118   0.070   0.545   0.593
   24SOL    HW2  119   0.124   0.693   0.633
   25SOL     OW  120   1.848   1.761   0.343
   25SOL    HW1  121   1.917   1.729   0.409
   25SOL    HW2  122   1.845   1.861   0.344
   26SOL     OW  123   6.973   1.551   0.121
   26SOL    HW1  124   6.966   1.455   0.149
   26SOL    HW2  125   0.028   1.600   0.188
   27SOL     OW  126   1.691   0.916   0.649
   27SOL    HW1  127   1.774   0.864   0.630
   27SOL    HW2  128   1.669   0.973   0.570
   28SOL     OW  129   1.653   1.100   0.444
   28SOL    HW1  130   1.725   1.116   0.377
   28SOL    HW2  131   1.660   1.167   0.518
   29SOL     OW  132   0.149   0.734   1.574
   29SOL    HW1  133   0.247   0.741   1.558
   29SOL    HW2  134   0.113   0.821   1.607
   30SOL     OW  135   0.612   1.390   0.737
   30SOL    HW1  136   0.565   1.303   0.750
   30SOL    HW2  137   0.602   1.419   0.642
   31SOL     OW  138   1.287   1.234   1.422
   31SOL    HW1  139   1.314   1.164   1.356
   31SOL    HW2  140   1.348   1.230   1.501
   32SOL     OW  141   0.834   0.029   0.521
   32SOL    HW1  142   0.876   0.118   0.501
   32SOL    HW2  143   0.734   0.038   0.519
   33SOL     OW  144   0.203   0.959   1.263
   33SOL    HW1  145   0.287   0.908   1.246
   33SOL    HW2  146   0.133   0.933   1.197
   34SOL     OW  147   1.487   1.018   0.209
   34SOL    HW1  148   1.421   0.952   0.247
   34SOL    HW2  149   1.574   1.009   0.258
   35SOL     OW  150   1.182   1.813   1.623
   35SOL    HW1  151   1.189   1.881   1.550
   35SOL    HW2  152   1.201   1.722   1.585
   36SOL     OW  153   0.330   0.268   1.809
   36SOL    HW1  154   0.389   0.333   1.857
   36SOL    HW2  155   0.239   0.269   1.851
   37SOL     OW  156   1.464   1.421   0.945
   37SOL    HW1  157   1.398   1.440   1.018
   37SOL    HW2  158   1.457   1.325   0.918
   38SOL     OW  159   1.647   1.751   0.580
   38SOL    HW1  160   1.625   1.725   0.486
   38SOL    HW2  161   1.627   1.676   0.642
   39SOL     OW  162   0.594   0.715   0.263
   39SOL    HW1  163   0.599   0.806   0.221
   39SOL    HW2  164   0.529   0.717   0.339
   40SOL     OW  165   1.283   0.368   0.949
   40SOL    HW1  166   1.186   0.344   0.952
   40SOL    HW2  167   1.332   0.317   1.019
   41SOL     OW  168   1.582   1.679   0.318
   41SOL    HW1  169   1.681   1.692   0.312
   41SOL    HW2  170   1.543   1.677   0.226
   42SOL     OW  171   0.792   0.616   1.457
   42SOL    HW1  172   0.765   0.589   1.549
   42SOL    HW2  173   0.756   0.551   1.390
   43SOL     OW  174   1.394   0.474   1.681
   43SOL    HW1  175   1.393   0.520   1.769
   43SOL    HW2  176   1.450   0.392   1.686
   44SOL     OW  177   0.952   0.885   1.583
   44SOL    HW1  178   1.011   0.814   1.544
   44SOL    HW2  179   0.899   0.927   1.510
   45SOL     OW  180   0.995   0.411   1.226
   45SOL    HW1  181   0.908   0.434   1.270
   45SOL    HW2  182   0.978   0.362   1.141
   46SOL     OW  183   1.053   0.700   0.426
   46SOL    HW1  184   1.076   0.697   0.524
   46SOL    HW2  185   0.965   0.655   0.412
   47SOL     OW  186   0.104   0.815   0.773
   47SOL    HW1  187   0.196   0.806   0.812
   47SOL    HW2  188   0.043   0.852   0.842
   48SOL     OW  189   0.119   1.871   1.592
   48SOL    HW1  190   0.131   1.846   1.688
   48SOL    HW2  191   0.028   1.844   1.561
   49SOL     OW  192   0.886   0.371   0.210
   49SOL    HW1  193   0.930   0.424   0.138
   49SOL    HW2  194   0.871   0.277   0.177
   50SOL     OW  195   1.700   0.572   1.825
   50SOL    HW1  196   1.664   0.652   1.776
   50SOL    HW2  197   1.728   0.502   1.759
   51SOL     OW  198   1.382   1.142   0.547
   51SOL    HW1  199   1.467   1.131   0.496
   51SOL    HW2  200   1.324   1.210   0.503
   52SOL     OW  201   0.505   0.196   0.909
   52SOL    HW1  202   0.549   0.222   0.995
   52SOL    HW2  203   0.530   0.261   0.837
   53SOL     OW  204   0.988   1.439   0.471
   53SOL    HW1  205   0.959   1.521   0.421
   53SOL    HW2  206   0.970   1.451   0.568
   54SOL     OW  207   0.358   1.818   0.868
   54SOL    HW1  208   0.397   1.726   0.879
   54SOL    HW2  209   0.427   1.886   0.892
   55SOL     OW  210   1.800   1.053   0.874
   55SOL    HW1  211   1.749   1.033   0.791
   55SOL    HW2  212   1.736   1.060   0.951
   56SOL     OW  213   1.226   1.536   1.514
   56SOL    HW1  214   1.214   1.462   1.580
   56SOL    HW2  215   1.158   1.528   1.442
   57SOL     OW  216   0.308   0.938   0.223
   57SOL    HW1  217   0.400   0.957   0.191
   57SOL    HW2  218   0.282   0.845   0.196
   58SOL     OW  219   1.484   0.749   0.724
   58SOL    HW1  220   1.479   0.708   0.815
   58SOL    HW2  221   1.563   0.809   0.719
   59SOL     OW  222   0.473   1.261   1.728
   59SOL    HW1  223   0.445   1.271   1.632
   59SOL    HW2  224   0.391   1.262   1.786
   60SOL     OW  225   1.119   1.767   0.235
   60SOL    HW1  226   1.049   1.722   0.292
   60SOL    HW2  227   1.157   1.701   0.171
   61SOL     OW  228   0.204   0.279   1.512
   61SOL    HW1  229   0.147   0.360   1.503
   61SOL    HW2  230   0.209   0.251   1.608
   62SOL     OW  231   1.623   1.430   0.074
   62SOL    HW1  232   1.585   1.522   0.085
   62SOL    HW2  233   1.561   1.363   0.116
   63SOL     OW  234   0.481   1.713   0.352
   63SOL    HW1  235   0.514   1.787   0.411
   63SOL    HW2  236   0.558   1.678   0.298
   64SOL     OW  237   1.427   0.134   0.425
   64SOL    HW1  238   1.412   0.061   0.358
   64SOL    HW2  239   1.525   0.143   0.443
   65SOL     OW  240   0.258   1.793   1.221
   65SOL    HW1  241   0.309   1.719   1.264
   65SOL    HW2  242   0.211   1.759   1.140
   66SOL     OW  243   0.937   1.702   0.897
   66SOL    HW1  244   1.019   1.656   0.927
   66SOL    HW2  245   0.894   1.650   0.823
   67SOL     OW  246   0.403   0.686   0.467
   67SOL    HW1  247   0.428   0.591   0.486
   67SOL    HW2  248   0.306   0.699   0.488
   68SOL     OW  249   1.528   0.230   1.727
   68SOL    HW1  250   1.543   0.234   1.825
   68SOL    HW2  251   1.441   0.184   1.709
   69SOL     OW  252   0.625   0.121   0.106
   69SOL    HW1  253   0.724   0.111   0.115
   69SOL    HW2  254   0.601   0.132   0.009
   70SOL     OW  255   0.763   0.277   1.767
   70SOL    HW1  256   0.852   0.233   1.759
   70SOL    HW2  257   0.709   0.232   1.839
   71SOL     OW  258   0.876   1.516   1.192
   71SOL    HW1  259   0.856   1.478   1.101
   71SOL    HW2  260   0.948   1.461   1.235
   72SOL     OW  261   1.342   0.591   1.437
   72SOL    HW1  262   1.371   0.556   1.526
   72SOL    HW2  263   1.376   0.684   1.424
   73SOL     OW  264   0.820   1.388   0.943
   73SOL    HW1  265   0.910   1.377   0.900
   73SOL    HW2  266   0.750   1.394   0.872
   74SOL     OW  267   0.927   0.510   0.895
   74SOL    HW1  268   0.899   0.504   0.800
   74SOL    HW2  269   0.960   0.421   0.926
   75SOL     OW  270   0.572   0.067   0.489
   75SOL    HW1  271   0.493   0.056   0.550
   75SOL    HW2  272   0.552   0.138   0.421
   76SOL     OW  273   1.416   1.212   0.012
   76SOL    HW1  274   1.447   1.134   0.066
   76SOL    HW2  275   1.334   1.251   0.054
   77SOL     OW  276   0.306   0.089   0.171
   77SOL    HW1  277   0.368   0.160   0.204
   77SOL    HW2  278   0.298   0.017   0.240
   78SOL     OW  279   0.953   0.267   0.458
   78SOL    HW1  280   0.921   0.306   0.372
   78SOL    HW2  281   1.053   0.274   0.462
   79SOL     OW  282   1.080   0.684   1.453
   79SOL    HW1  283   1.006   0.619   1.465
   79SOL    HW2  284   1.168   0.636   1.453
   80SOL     OW  285   1.218   1.570   0.795
   80SOL    HW1  286   1.233   1.638   0.724
   80SOL    HW2  287   1.291   1.576   0.863
   81SOL     OW  288   0.469   1.152   0.734
   81SOL    HW1  289   0.402   1.131   0.806
   81SOL    HW2  290   0.429   1.136   0.645
   82SOL     OW  291   1.262   1.792   0.610
   82SOL    HW1  292   1.316   1.855   0.555
   82SOL    HW2  293   1.188   1.842   0.656
   83SOL     OW  294   1.052   0.555   0.036
   83SOL    HW1  295   0.965   0.604   0.049
   83SOL    HW2  296   1.109   0.565   0.117
   84SOL     OW  297   0.082   0.539   1.381
   84SOL    HW1  298   0.176   0.540   1.347
   84SOL    HW2  299   0.070   0.612   1.448
   85SOL     OW  300   0.582   0.241   1.170
   85SOL    HW1  301   0.633   0.166   1.213
   85SOL    HW2  302   0.486   0.235   1.200
   86SOL     OW  303   0.865   0.463   0.637
   86SOL    HW1  304   0.818   0.525   0.573
   86SOL    HW2  305   0.894   0.381   0.588
   87SOL     OW  306   0.959   0.026   0.772
   87SOL    HW1  307   0.904   0.028   0.689
   87SOL    HW2  308   1.032   6.957   0.762
   88SOL     OW  309   1.448   1.161   0.860
   88SOL    HW1  310   1.370   1.098   0.860
   88SOL    HW2  311   1.482   1.171   0.767
   89SOL     OW  312   1.467   0.609   0.970
   89SOL    HW1  313   1.405   0.531   0.971
   89SOL    HW2  314   1.529   0.604   1.047
   90SOL     OW  315   1.826   0.802   0.393
   90SOL    HW1  316   1.888   0.744   0.444
   90SOL    HW2  317   1.821   0.771   0.298
   91SOL     OW  318   0.477   1.419   0.173
   91SOL    HW1  319   0.438   1.353   0.237
   91SOL    HW2  320   0.424   1.418   0.088
   92SOL     OW  321   1.672   1.265   0.654
   92SOL    HW1  322   1.772   1.263   0.662
   92SOL    HW2  323   1.640   1.359   0.666
   93SOL     OW  324   1.389   0.555   0.065
   93SOL    HW1  325   1.334   0.547   0.148
   93SOL    HW2  326   1.462   0.487   0.067
   94SOL     OW  327   0.508   0.258   0.302
   94SOL    HW1  328   0.562   0.204   0.237
   94SOL    HW2  329   0.491   0.349   0.264
   95SOL     OW  330   1.752   1.241   1.559
   95SOL    HW1  331   1.842   1.199   1.545
   95SOL    HW2  332   1.764   1.334   1.593
   96SOL     OW  333   1.052   1.350   1.336
   96SOL    HW1  334   0.971   1.320   1.386
   96SOL    HW2  335   1.134   1.310   1.378
   97SOL     OW  336   1.614   1.630   1.658
   97SOL    HW1  337   1.598   1.665   1.565
   97SOL    HW2  338   1.699   1.578   1.659
   98SOL     OW  339   1.138   1.221   1.105
   98SOL    HW1  340   1.078   1.255   1.177
   98SOL    HW2  341   1.104   1.252   1.016
   99SOL     OW  342   1.623   1.096   1.079
   99SOL    HW1  343   1.618   1.162   1.154
   99SOL    HW2  344   1.549   1.113   1.015
  100SOL     OW  345   0.893   0.151   1.387
  100SOL    HW1  346   0.910   0.118   1.294
  100SOL    HW2  347   0.980   0.178   1.429
  101SOL     OW  348   0.980   1.115   1.721
  101SOL    HW1  349   0.885   1.134   1.748
  101SOL    HW2  350   0.981   1.032   1.665
  102SOL     OW  351   0.713   1.058   0.376
  102SOL    HW1  352   0.695   1.041   0.473
  102SOL    HW2  353   0.793   1.005   0.347
  103SOL     OW  354   0.431   0.807   1.248
  103SOL    HW1  355   0.501   0.822   1.318
  103SOL    HW2  356   0.389   0.717   1.262
  104SOL     OW  357   1.260   0.377   1.287
  104SOL    HW1  358   1.297   0.457   1.336
  104SOL    HW2  359   1.165   0.396   1.261
  105SOL     OW  360   0.068   1.564   1.319
  105SOL    HW1  361   0.018   1.648   1.337
  105SOL    HW2  362   0.165   1.579   1.338
  106SOL     OW  363   0.354   1.099   0.495
  106SOL    HW1  364   0.335   1.173   0.431
  106SOL    HW2  365   0.360   1.012   0.446
  107SOL     OW  366   0.550   0.548   0.863
  107SOL    HW1  367   0.565   0.606   0.783
  107SOL    HW2  368   0.621   0.567   0.931
  108SOL     OW  369   1.238   1.343   0.408
  108SOL    HW1  370   1.300   1.417   0.434
  108SOL    HW2  371   1.145   1.367   0.437
  109SOL     OW  372   1.289   1.462   1.147
  109SOL    HW1  373   1.347   1.468   1.229
  109SOL    HW2  374   1.235   1.378   1.151
  110SOL     OW  375   1.584   0.633   0.485
  110SOL    HW1  376   1.527   0.681   0.552
  110SOL    HW2  377   1.645   0.698   0.441
  111SOL     OW  378   0.351   1.534   1.308
  111SOL    HW1  379   0.332   1.486   1.222
  111SOL    HW2  380   0.450   1.546   1.318
  112SOL     OW  381   0.428   0.733   1.598
  112SOL    HW1  382   0.486   0.787   1.538
  112SOL    HW2  383   0.473   0.647   1.621
  113SOL     OW  384   1.609   0.786   1.686
  113SOL    HW1  385   1.518   0.827   1.682
  113SOL    HW2  386   1.666   0.826   1.614
  114SOL     OW  387   0.998   0.137   1.733
  114SOL    HW1  388   1.043   0.179   1.654
  114SOL    HW2  389   0.998   0.037   1.722
  115SOL     OW  390   0.471   0.039   1.759
  115SOL    HW1  391   0.411   6.967   1.725
  115SOL    HW2  392   0.419   0.123   1.771
  116SOL     OW  393   0.588   0.873   1.031
  116SOL    HW1  394   0.620   0.968   1.029
  116SOL    HW2  395   0.529   0.860   1.111
  117SOL     OW  396   1.350   0.857   1.024
  117SOL    HW1  397   1.259   0.849   0.982
  117SOL    HW2  398   1.398   0.770   1.015
  118SOL     OW  399   1.199   0.523   0.272
  118SOL    HW1  400   1.217   0.444   0.331
  118SOL    HW2  401   1.156   0.596   0.326
  119SOL     OW  402   0.325   0.210   1.246
  119SOL    HW1  403   0.271   0.230   1.328
  119SOL    HW2  404   0.299   0.120   1.211
  120SOL     OW  405   0.097   1.305   1.263
  120SOL    HW1  406   0.106   1.242   1.340
  120SOL    HW2  407   0.088   1.399   1.296
  121SOL     OW  408   0.729   0.636   1.054
  121SOL    HW1  409   0.804   0.615   0.991
  121SOL    HW2  410   0.693   0.727   1.033
  122SOL     OW  411   1.737   0.961   1.857
  122SOL    HW1  412   1.694   0.892   1.799
  122SOL    HW2  413   1.677   0.981   1.935
  123SOL     OW  414   0.345   0.064   0.625
  123SOL    HW1  415   0.313   0.147   0.670
  123SOL    HW2  416   0.290   6.986   0.656
  124SOL     OW  417   1.628   0.400   0.352
  124SOL    HW1  418   1.659   0.324   0.410
  124SOL    HW2  419   1.602   0.477   0.410
  125SOL     OW  420   1.025   0.756   0.957
  125SOL    HW1  421   1.019   0.778   1.055
  125SOL    HW2  422   0.997   0.661   0.943
  126SOL     OW  423   0.983   1.563   1.718
  126SOL    HW1  424   0.964   1.610   1.632
  126SOL    HW2  425   1.030   1.477   1.700
  127SOL     OW  426   1.854   1.503   1.603
  127SOL    HW1  427   1.873   1.529   1.509
  127SOL    HW2  428   1.937   1.514   1.658
  128SOL     OW  429   0.366   0.916   1.797
  128SOL    HW1  430   0.442   0.942   1.856
  128SOL    HW2  431   0.396   0.848   1.731
  129SOL     OW  432   1.521   0.268   0.138
  129SOL    HW1  433   1.450   0.202   0.160
  129SOL    HW2  434   1.552   0.313   0.222
  130SOL     OW  435   1.288   0.818   0.032
  130SOL    HW1  436   1.339   0.732   0.023
  130SOL    HW2  437   1.315   0.880   6.958
  131SOL     OW  438   1.070   1.338   0.855
  131SOL    HW1  439   1.075   1.260   0.793
  131SOL    HW2  440   1.128   1.412   0.821
  132SOL     OW  441   0.322   0.803   0.941
  132SOL    HW1  442   0.419   0.829   0.940
  132SOL    HW2  443   0.313   0.709   0.975
  133SOL     OW  444   0.330   0.530   1.012
  133SOL    HW1  445   0.286   0.441   0.996
  133SOL    HW2  446   0.411   0.538   0.955
  134SOL     OW  447   1.125   0.414   1.672
  134SOL    HW1  448   1.077   0.455   1.750
  134SOL    HW2  449   1.223   0.435   1.679
  135SOL     OW  450   1.133   0.226   1.488
  135SOL    HW1  451   1.132   0.302   1.553
  135SOL    HW2  452   1.190   0.249   1.410
  136SOL     OW  453   6.993   1.297   0.222
  136SOL    HW1  454   6.925   1.322   0.291
  136SOL    HW2  455   0.024   1.203   0.238
  137SOL     OW  456   0.098   1.756   0.951
  137SOL    HW1  457   0.076   1.682   0.887
  137SOL    HW2  458   0.184   1.799   0.924
  138SOL     OW  459   0.493   1.578   0.903
  138SOL    HW1  460   0.563   1.644   0.930
  138SOL    HW2  461   0.533   1.509   0.843
  139SOL     OW  462   0.974   0.794   1.223
  139SOL    HW1  463   1.033   0.769   1.299
  139SOL    HW2  464   0.884   0.751   1.235
  140SOL     OW  465   0.052   0.602   1.108
  140SOL    HW1  466   0.134   0.568   1.062
  140SOL    HW2  467   0.058   0.581   1.206
  141SOL     OW  468   0.203   0.522   1.728
  141SOL    HW1  469   0.290   0.481   1.699
  141SOL    HW2  470   0.187   0.606   1.676
  142SOL     OW  471   1.381   0.935   1.654
  142SOL    HW1  472   1.404   1.032   1.655
  142SOL    HW2  473   1.377   0.902   1.560
  143SOL     OW  474   0.814   0.579   0.374
  143SOL    HW1  475   0.828   0.500   0.315
  143SOL    HW2  476   0.734   0.630   0.344
  144SOL     OW  477   1.642   0.605   1.180
  144SOL    HW1  478   1.623   0.544   1.257
  144SOL    HW2  479   1.733   0.586   1.144
  145SOL     OW  480   0.285   1.560   1.740
  145SOL    HW1  481   0.230   1.628   1.789
  145SOL    HW2  482   0.267   1.469   1.777
  146SOL     OW  483   0.711   0.462   1.255
  146SOL    HW1  484   0.659   0.381   1.228
  146SOL    HW2  485   0.710   0.529   1.181
  147SOL     OW  486   0.920   1.681   1.472
  147SOL    HW1  487   0.894   1.634   1.388
  147SOL    HW2  488   0.919   1.779   1.457
  148SOL     OW  489   0.453   0.492   0.182
  148SOL    HW1  490   0.511   0.571   0.203
  148SOL    HW2  491   0.357   0.515   0.203
  149SOL     OW  492   0.165   1.123   1.470
  149SOL    HW1  493   0.153   1.063   1.549
  149SOL    HW2  494   0.178   1.067   1.388
  150SOL     OW  495   1.314   1.043   1.218
  150SOL    HW1  496   1.342   0.976   1.150
  150SOL    HW2  497   1.248   1.106   1.178
  151SOL     OW  498   1.300   0.844   0.306
  151SOL    HW1  499   1.219   0.815   0.357
  151SOL    HW2  500   1.288   0.824   0.209
  152SOL     OW  501   1.782   1.728   1.158
  152SOL    HW1  502   1.843   1.762   1.086
  152SOL    HW2  503   1.749   1.637   1.134
  153SOL     OW  504   1.241   1.733   1.105
  153SOL    HW1  505   1.327   1.762   1.063
  153SOL    HW2  506   1.247   1.636   1.128
  154SOL     OW  507   0.070   1.244   1.004
  154SOL    HW1  508   0.088   1.263   1.100
  154SOL    HW2  509   6.972   1.230   0.990
  155SOL     OW  510   0.682   1.675   1.738
  155SOL    HW1  511   0.617   1.750   1.733
  155SOL    HW2  512   0.754   1.688   1.670
  156SOL     OW  513   0.893   0.111   0.130
  156SOL    HW1  514   0.983   0.137   0.095
  156SOL    HW2  515   0.902   0.031   0.190
  157SOL     OW  516   1.718   0.177   0.482
  157SOL    HW1  517   1.795   0.148   0.424
  157SOL    HW2  518   1.703   0.110   0.554
  158SOL     OW  519   1.390   1.566   0.492
  158SOL    HW1  520   1.455   1.592   0.421
  158SOL    HW2  521   1.338   1.646   0.522
  159SOL     OW  522   0.140   1.784   1.854
  159SOL    HW1  523   0.094   1.711   1.904
  159SOL    HW2  524   0.194   1.839   1.917
  160SOL     OW  525   1.282   0.925   0.669
  160SOL    HW1  526   1.357   0.860   0.685
  160SOL    HW2  527   1.316   1.003   0.617
  161SOL     OW  528   0.801   1.280   1.425
  161SOL    HW1  529   0.773   1.323   1.510
  161SOL    HW2  530   0.731   1.294   1.355
  162SOL     OW  531   0.674   1.606   0.192
  162SOL    HW1  532   0.680   1.653   0.104
  162SOL    HW2  533   0.617   1.524   0.183
  163SOL     OW  534   1.616   1.729   1.388
  163SOL    HW1  535   1.674   1.729   1.306
  163SOL    HW2  536   1.602   1.823   1.418
  164SOL     OW  537   1.867   0.160   0.956
  164SOL    HW1  538   1.865   0.060   0.949
  164SOL    HW2  539   1.776   0.196   0.939
  165SOL     OW  540   0.286   0.335   0.717
  165SOL    HW1  541   0.200   0.378   0.690
  165SOL    HW2  542   0.281   0.310   0.814
  166SOL     OW  543   1.217   1.595   0.038
  166SOL    HW1  544   1.211   1.500   0.070
  166SOL    HW2  545   1.130   1.620   6.996
  167SOL     OW  546   0.823   1.011   1.379
  167SOL    HW1  547   0.873   0.995   1.294
  167SOL    HW2  548   0.819   1.109   1.397
  168SOL     OW  549   0.924   0.915   0.293
  168SOL    HW1  550   0.978   0.943   0.214
  168SOL    HW2  551   0.972   0.842   0.343
  169SOL     OW  552   1.478   1.673   0.050
  169SOL    HW1  553   1.383   1.642   0.043
  169SOL    HW2  554   1.522   1.666   6.960
  170SOL     OW  555   0.372   1.307   1.485
  170SOL    HW1  556   0.359   1.388   1.428
  170SOL    HW2  557   0.302   1.239   1.463
  171SOL     OW  558   1.613   1.285   1.284
  171SOL    HW1  559   1.676   1.265   1.360
  171SOL    HW2  560   1.547   1.354   1.314
  172SOL     OW  561   1.063   1.107   0.716
  172SOL    HW1  562   0.986   1.057   0.756
  172SOL    HW2  563   1.131   1.041   0.682
  173SOL     OW  564   1.024   0.249   0.952
  173SOL    HW1  565   1.003   0.202   0.867
  173SOL    HW2  566   1.014   0.186   1.029
  174SOL     OW  567   0.612   1.482   0.483
  174SOL    HW1  568   0.655   1.430   0.409
  174SOL    HW2  569   0.538   1.537   0.446
  175SOL     OW  570   1.734   0.392   1.376
  175SOL    HW1  571   1.803   0.464   1.381
  175SOL    HW2  572   1.770   0.314   1.324
  176SOL     OW  573   0.284   1.301   0.333
  176SOL    HW1  574   0.197   1.299   0.285
  176SOL    HW2  575   0.279   1.367   0.409
  177SOL     OW  576   0.121   0.973   1.703
  177SOL    HW1  577   0.067   1.024   1.770
  177SOL    HW2  578   0.212   0.955   1.740
  178SOL     OW  579   0.671   0.240   1.510
  178SOL    HW1  580   0.751   0.214   1.456
  178SOL    HW2  581   0.700   0.270   1.601
  179SOL     OW  582   0.064   0.428   0.049
  179SOL    HW1  583   6.982   0.376   0.072
  179SOL    HW2  584   0.102   0.396   6.962
  180SOL     OW  585   1.423   0.857   1.395
  180SOL    HW1  586   1.367   0.920   1.341
  180SOL    HW2  587   1.517   0.858   1.360
  181SOL     OW  588   0.021   0.180   0.327
  181SOL    HW1  589   0.083   0.258   0.317
  181SOL    HW2  590   0.058   0.101   0.278
  182SOL     OW  591   1.186   1.342   0.130
  182SOL    HW1  592   1.088   1.329   0.114
  182SOL    HW2  593   1.205   1.334   0.228
  183SOL     OW  594   0.625   0.830   1.434
  183SOL    HW1  595   0.681   0.912   1.419
  183SOL    HW2  596   0.685   0.751   1.445
  184SOL     OW  597   1.485   1.791   0.989
  184SOL    HW1  598   1.507   1.853   0.914
  184SOL    HW2  599   1.569   1.752   1.027
  185SOL     OW  600   0.716   0.559   1.708
  185SOL    HW1  601   0.764   0.629   1.761
  185SOL    HW2  602   0.738   0.468   1.744
  186SOL     OW  603   1.474   1.195   1.634
  186SOL    HW1  604   1.459   1.209   1.732
  186SOL    HW2  605   1.570   1.214   1.612
  187SOL     OW  606   0.370   1.747   1.563
  187SOL    HW1  607   0.283   1.793   1.548
  187SOL    HW2  608   0.354   1.663   1.615
  188SOL     OW  609   1.665   0.878   1.256
  188SOL    HW1  610   1.660   0.787   1.214
  188SOL    HW2  611   1.652   0.948   1.185
  189SOL     OW  612   1.227   0.317   0.454
  189SOL    HW1  613   1.296   0.247   0.443
  189SOL    HW2  614   1.246   0.372   0.536
  190SOL     OW  615   0.588   0.737   0.667
  190SOL    HW1  616   0.628   0.828   0.660
  190SOL    HW2  617   0.519   0.725   0.596
  191SOL     OW  618   1.748   0.369   1.648
  191SOL    HW1  619   1.741   0.384   1.550
  191SOL    HW2  620   1.675   0.308   1.679
  192SOL     OW  621   1.753   0.932   1.509
  192SOL    HW1  622   1.740   1.029   1.531
  192SOL    HW2  623   1.732   0.916   1.413
  193SOL     OW  624   0.907   1.383   0.056
  193SOL    HW1  625   0.843   1.359   0.129
  193SOL    HW2  626   0.907   1.482   0.044
  194SOL     OW  627   0.666   1.785   0.941
  194SOL    HW1  628   0.645   1.881   0.919
  194SOL    HW2  629   0.765   1.770   0.930
  195SOL     OW  630   0.869   0.971   0.856
  195SOL    HW1  631   0.921   0.893   0.893
  195SOL    HW2  632   0.826   1.021   0.932
  196SOL     OW  633   1.079   0.983   0.077
  196SOL    HW1  634   1.084   1.048   0.002
  196SOL    HW2  635   1.157   0.921   0.074
  197SOL     OW  636   1.845   1.557   0.846
  197SOL    HW1  637   1.768   1.544   0.783
  197SOL    HW2  638   1.845   1.485   0.915
  198SOL     OW  639   0.242   1.308   1.865
  198SOL    HW1  640   0.150   1.277   1.844
  198SOL    HW2  641   0.253   1.318   1.964
  199SOL     OW  642   0.151   1.276   0.693
  199SOL    HW1  643   0.097   1.232   0.765
  199SOL    HW2  644   0.184   1.207   0.629
  200SOL     OW  645   0.686   1.410   1.636
  200SOL    HW1  646   0.604   1.360   1.664
  200SOL    HW2  647   0.682   1.503   1.672
  201SOL     OW  648   1.850   0.183   1.245
  201SOL    HW1  649   1.770   0.124   1.236
  201SOL    HW2  650   1.883   0.209   1.155
  202SOL     OW  651   0.453   0.431   0.523
  202SOL    HW1  652   0.489   0.355   0.469
  202SOL    HW2  653   0.408   0.395   0.605
  203SOL     OW  654   1.691   1.483   1.095
  203SOL    HW1  655   1.612   1.465   1.037
  203SOL    HW2  656   1.698   1.411   1.164
  204SOL     OW  657   0.334   0.553   1.289
  204SOL    HW1  658   0.395   0.500   1.349
  204SOL    HW2  659   0.352   0.528   1.194
  205SOL     OW  660   0.827   1.579   0.681
  205SOL    HW1  661   0.814   1.638   0.601
  205SOL    HW2  662   0.751   1.515   0.688
  206SOL     OW  663   1.414   0.217   1.129
  206SOL    HW1  664   1.495   0.172   1.167
  206SOL    HW2  665   1.365   0.265   1.202
  207SOL     OW  666   0.974   0.056   1.138
  207SOL    HW1  667   0.920   6.993   1.082
  207SOL    HW2  668   1.029   0.004   1.203
  208SOL     OW  669   0.782   1.320   0.311
  208SOL    HW1  670   0.750   1.227   0.330
  208SOL    HW2  671   0.860   1.341   0.369
  209SOL     OW  672   0.626   1.559   1.290
  209SOL    HW1  673   0.623   1.646   1.340
  209SOL    HW2  674   0.716   1.547   1.249
  210SOL     OW  675   1.346   0.058   0.155
  210SOL    HW1  676   1.358   6.960   0.136
  210SOL    HW2  677   1.253   0.085   0.133
  211SOL     OW  678   1.266   0.452   0.686
  211SOL    HW1  679   1.222   0.542   0.683
  211SOL    HW2  680   1.286   0.429   0.782
  212SOL     OW  681   1.620   0.255   0.913
  212SOL    HW1  682   1.532   0.240   0.958
  212SOL    HW2  683   1.608   0.322   0.839
  213SOL     OW  684   0.075   1.052   0.311
  213SOL    HW1  685   0.164   1.010   0.298
  213SOL    HW2  686   0.004   0.981   0.311
  214SOL     OW  687   0.890   1.664   0.353
  214SOL    HW1  688   0.815   1.636   0.294
  214SOL    HW2  689   0.862   1.743   0.408
  215SOL     OW  690   0.190   0.649   1.991
  215SOL    HW1  691   0.170   0.580   2.061
  215SOL    HW2  692   0.217   0.603   1.906
  216SOL     OW  693   0.220   0.290   2.848
  216SOL    HW1  694   0.280   0.247   2.915
  216SOL    HW2  695   0.125   0.262   2.865
  217SOL     OW  696   6.996   0.391   2.519
  217SOL    HW1  697   6.940   0.408   2.600
  217SOL    HW2  698   0.024   0.295   2.517
  218SOL     OW  699   0.570   1.299   3.050
  218SOL    HW1  700   0.480   1.297   3.006
  218SOL    HW2  701   0.588   1.391   3.084
  219SOL     OW  702   1.566   1.514   2.569
  219SOL    HW1  703   1.523   1.489   2.656
  219SOL    HW2  704   1.496   1.521   2.499
  220SOL     OW  705   1.134   0.703   2.556
  220SOL    HW1  706   1.186   0.787   2.539
  220SOL    HW2  707   1.083   0.712   2.642
  221SOL     OW  708   1.770   0.601   2.083
  221SOL    HW1  709   1.748   0.598   1.985
  221SOL    HW2  710   1.732   0.521   2.128
  222SOL     OW  711   0.741   1.140   2.903
  222SOL    HW1  712   0.674   1.175   2.968
  222SOL    HW2  713   0.786   1.217   2.857
  223SOL     OW  714   0.873   0.764   3.682
  223SOL    HW1  715   0.864   0.832   3.755
  223SOL    HW2  716   0.898   0.809   3.597
  224SOL     OW  717   0.683   1.000   2.512
  224SOL    HW1  718   0.755   0.990   2.580
  224SOL    HW2  719   0.609   1.056   2.549
  225SOL     OW  720   0.713   1.152   3.682
  225SOL    HW1  721   0.765   1.230   3.716
  225SOL    HW2  722   0.629   1.185   3.638
  226SOL     OW  723   0.334   1.420   2.926
  226SOL    HW1  724   0.255   1.380   2.879
  226SOL    HW2  725   0.385   1.478   2.863
  227SOL     OW  726   1.457   1.502   3.221
  227SOL    HW1  727   1.515   1.583   3.228
  227SOL    HW2  728   1.386   1.506   3.291
  228SOL     OW  729   0.451   0.405   3.353
  228SOL    HW1  730   0.536   0.352   3.354
  228SOL    HW2  731   0.373   0.343   3.363
  229SOL     OW  732   1.617   0.457   2.591
  229SOL    HW1  733   1.559   0.487   2.515
  229SOL    HW2  734   1.622   0.530   2.660
  230SOL     OW  735   0.226   1.710   2.328
  230SOL    HW1  736   0.241   1.789   2.387
  230SOL    HW2  737   0.297   1.707   2.258
  231SOL     OW  738   1.138   1.340   3.560
  231SOL    HW1  739   1.184   1.338   3.648
  231SOL    HW2  740   1.081   1.258   3.549
  232SOL     OW  741   0.279   1.443   2.382
  232SOL    HW1  742   0.255   1.540   2.387
  232SOL    HW2  743   0.230   1.393   2.453
  233SOL     OW  744   0.272   1.083   2.770
  233SOL    HW1  745   0.268   0.986   2.797
  233SOL    HW2  746   0.199   1.133   2.815
  234SOL     OW  747   0.600   1.797   3.289
  234SOL    HW1  748   0.515   1.774   3.335
  234SOL    HW2  749   0.630   1.888   3.317
  235SOL     OW  750   0.580   0.988   2.004
  235SOL    HW1  751   0.628   1.035   1.930
  235SOL    HW2  752   0.619   1.016   2.092
  236SOL     OW  753   1.578   0.132   3.308
  236SOL    HW1  754   1.592   0.226   3.277
  236SOL    HW2  755   1.602   0.125   3.405
  237SOL     OW  756   0.131   0.619   2.430
  237SOL    HW1  757   0.071   0.544   2.457
  237SOL    HW2  758   0.121   0.695   2.494
  238SOL     OW  759   1.847   1.755   2.194
  238SOL    HW1  760   1.917   1.725   2.258
  238SOL    HW2  761   1.862   1.851   2.170
  239SOL     OW  762   0.034   1.592   2.010
  239SOL    HW1  763   0.025   1.493   2.024
  239SOL    HW2  764   6.957   1.638   2.053
  240SOL     OW  765   1.690   0.920   2.510
  240SOL    HW1  766   1.776   0.870   2.494
  240SOL    HW2  767   1.668   0.974   2.428
  241SOL     OW  768   1.653   1.104   2.294
  241SOL    HW1  769   1.743   1.100   2.249
  241SOL    HW2  770   1.657   1.171   2.368
  242SOL     OW  771   0.149   0.734   3.436
  242SOL    HW1  772   0.247   0.741   3.420
  242SOL    HW2  773   0.114   0.821   3.469
  243SOL     OW  774   0.612   1.391   2.597
  243SOL    HW1  775   0.565   1.304   2.610
  243SOL    HW2  776   0.599   1.422   2.502
  244SOL     OW  777   1.288   1.234   3.283
  244SOL    HW1  778   1.314   1.164   3.218
  244SOL    HW2  779   1.348   1.230   3.363
  245SOL     OW  780   0.834   0.028   2.381
  245SOL    HW1  781   0.874   0.118   2.360
  245SOL    HW2  782   0.734   0.035   2.379
  246SOL     OW  783   0.204   0.960   3.125
  246SOL    HW1  784   0.288   0.908   3.108
  246SOL    HW2  785   0.134   0.933   3.059
  247SOL     OW  786   1.532   1.001   2.067
  247SOL    HW1  787   1.458   0.941   2.096
  247SOL    HW2  788   1.579   1.038   2.147
  248SOL     OW  789   1.182   1.813   3.485
  248SOL    HW1  790   1.189   1.881   3.412
  248SOL    HW2  791   1.202   1.722   3.447
  249SOL     OW  792   0.329   0.268   3.671
  249SOL    HW1  793   0.389   0.333   3.719
  249SOL    HW2  794   0.239   0.269   3.713
  250SOL     OW  795   1.465   1.420   2.808
  250SOL    HW1  796   1.399   1.440   2.880
  250SOL    HW2  797   1.457   1.325   2.780
  251SOL     OW  798   1.649   1.751   2.437
  251SOL    HW1  799   1.632   1.722   2.343
  251SOL    HW2  800   1.629   1.676   2.500
  252SOL     OW  801   0.590   0.717   2.127
  252SOL    HW1  802   0.600   0.805   2.081
  252SOL    HW2  803   0.525   0.725   2.203
  253SOL     OW  804   1.282   0.369   2.811
  253SOL    HW1  805   1.185   0.344   2.814
  253SOL    HW2  806   1.332   0.317   2.881
  254SOL     OW  807   1.583   1.673   2.170
  254SOL    HW1  808   1.679   1.700   2.166
  254SOL    HW2  809   1.550   1.656   2.077
  255SOL     OW  810   0.792   0.616   3.319
  255SOL    HW1  811   0.765   0.589   3.411
  255SOL    HW2  812   0.756   0.551   3.253
  256SOL     OW  813   1.394   0.474   3.543
  256SOL    HW1  814   1.393   0.520   3.631
  256SOL    HW2  815   1.450   0.392   3.548
  257SOL     OW  816   0.952   0.885   3.445
  257SOL    HW1  817   1.011   0.813   3.406
  257SOL    HW2  818   0.898   0.927   3.373
  258SOL     OW  819   0.995   0.411   3.088
  258SOL    HW1  820   0.908   0.434   3.132
  258SOL    HW2  821   0.978   0.362   3.003
  259SOL     OW  822   1.051   0.698   2.286
  259SOL    HW1  823   1.072   0.694   2.384
  259SOL    HW2  824   0.964   0.652   2.270
  260SOL     OW  825   0.101   0.817   2.637
  260SOL    HW1  826   0.194   0.808   2.672
  260SOL    HW2  827   0.041   0.848   2.711
  261SOL     OW  828   0.119   1.872   3.454
  261SOL    HW1  829   0.131   1.846   3.550
  261SOL    HW2  830   0.028   1.844   3.423
  262SOL     OW  831   0.889   0.356   2.062
  262SOL    HW1  832   0.936   0.416   1.998
  262SOL    HW2  833   0.863   0.271   2.016
  263SOL     OW  834   1.700   0.572   3.687
  263SOL    HW1  835   1.664   0.652   3.638
  263SOL    HW2  836   1.728   0.502   3.622
  264SOL     OW  837   1.380   1.143   2.395
  264SOL    HW1  838   1.465   1.128   2.344
  264SOL    HW2  839   1.324   1.210   2.347
  265SOL     OW  840   0.505   0.196   2.772
  265SOL    HW1  841   0.550   0.223   2.857
  265SOL    HW2  842   0.529   0.260   2.699
  266SOL     OW  843   0.994   1.443   2.326
  266SOL    HW1  844   0.963   1.524   2.275
  266SOL    HW2  845   0.977   1.456   2.423
  267SOL     OW  846   0.357   1.819   2.730
  267SOL    HW1  847   0.397   1.729   2.741
  267SOL    HW2  848   0.425   1.889   2.751
  268SOL     OW  849   1.798   1.056   2.735
  268SOL    HW1  850   1.747   1.033   2.652
  268SOL    HW2  851   1.735   1.062   2.812
  269SOL     OW  852   1.226   1.536   3.376
  269SOL    HW1  853   1.214   1.462   3.442
  269SOL    HW2  854   1.157   1.529   3.304
  270SOL     OW  855   0.317   0.945   2.113
  270SOL    HW1  856   0.404   0.970   2.071
  270SOL    HW2  857   0.288   0.856   2.079
  271SOL     OW  858   1.484   0.751   2.585
  271SOL    HW1  859   1.477   0.708   2.675
  271SOL    HW2  860   1.563   0.811   2.582
  272SOL     OW  861   0.473   1.262   3.590
  272SOL    HW1  862   0.445   1.272   3.494
  272SOL    HW2  863   0.391   1.262   3.648
  273SOL     OW  864   1.122   1.776   2.088
  273SOL    HW1  865   1.042   1.739   2.136
  273SOL    HW2  866   1.151   1.711   2.018
  274SOL     OW  867   0.204   0.278   3.374
  274SOL    HW1  868   0.147   0.360   3.366
  274SOL    HW2  869   0.209   0.251   3.470
  275SOL     OW  870   1.624   1.382   1.951
  275SOL    HW1  871   1.586   1.473   1.935
  275SOL    HW2  872   1.555   1.313   1.932
  276SOL     OW  873   0.468   1.734   2.178
  276SOL    HW1  874   0.509   1.795   2.246
  276SOL    HW2  875   0.540   1.698   2.119
  277SOL     OW  876   1.425   0.133   2.287
  277SOL    HW1  877   1.405   0.089   2.199
  277SOL    HW2  878   1.524   0.139   2.298
  278SOL     OW  879   0.257   1.793   3.084
  278SOL    HW1  880   0.309   1.719   3.127
  278SOL    HW2  881   0.212   1.759   3.001
  279SOL     OW  882   0.936   1.703   2.758
  279SOL    HW1  883   1.018   1.656   2.789
  279SOL    HW2  884   0.894   1.650   2.683
  280SOL     OW  885   0.400   0.687   2.332
  280SOL    HW1  886   0.427   0.592   2.349
  280SOL    HW2  887   0.303   0.698   2.355
  281SOL     OW  888   1.528   0.230   3.589
  281SOL    HW1  889   1.543   0.234   3.687
  281SOL    HW2  890   1.441   0.183   3.570
  282SOL     OW  891   0.646   0.109   1.965
  282SOL    HW1  892   0.685   0.035   2.019
  282SOL    HW2  893   0.584   0.072   1.896
  283SOL     OW  894   0.763   0.277   3.629
  283SOL    HW1  895   0.852   0.233   3.621
  283SOL    HW2  896   0.709   0.232   3.701
  284SOL     OW  897   0.876   1.515   3.054
  284SOL    HW1  898   0.856   1.478   2.963
  284SOL    HW2  899   0.948   1.461   3.097
  285SOL     OW  900   1.342   0.591   3.299
  285SOL    HW1  901   1.371   0.556   3.388
  285SOL    HW2  902   1.376   0.684   3.287
  286SOL     OW  903   0.820   1.388   2.804
  286SOL    HW1  904   0.910   1.377   2.761
  286SOL    HW2  905   0.751   1.395   2.733
  287SOL     OW  906   0.927   0.511   2.757
  287SOL    HW1  907   0.899   0.505   2.661
  287SOL    HW2  908   0.959   0.421   2.787
  288SOL     OW  909   0.569   0.064   2.345
  288SOL    HW1  910   0.493   0.055   2.409
  288SOL    HW2  911   0.553   0.140   2.283
  289SOL     OW  912   1.425   1.199   1.905
  289SOL    HW1  913   1.459   1.122   1.959
  289SOL    HW2  914   1.337   1.229   1.940
  290SOL     OW  915   0.309   0.045   2.059
  290SOL    HW1  916   0.336   0.140   2.048
  290SOL    HW2  917   0.371   6.999   2.122
  291SOL     OW  918   0.952   0.268   2.317
  291SOL    HW1  919   0.921   0.302   2.229
  291SOL    HW2  920   1.051   0.276   2.324
  292SOL     OW  921   1.080   0.684   3.315
  292SOL    HW1  922   1.006   0.619   3.327
  292SOL    HW2  923   1.168   0.636   3.315
  293SOL     OW  924   1.219   1.570   2.656
  293SOL    HW1  925   1.233   1.639   2.586
  293SOL    HW2  926   1.291   1.578   2.726
  294SOL     OW  927   0.468   1.151   2.594
  294SOL    HW1  928   0.402   1.130   2.667
  294SOL    HW2  929   0.424   1.138   2.505
  295SOL     OW  930   1.262   1.791   2.473
  295SOL    HW1  931   1.314   1.853   2.414
  295SOL    HW2  932   1.189   1.842   2.518
  296SOL     OW  933   1.017   0.536   1.896
  296SOL    HW1  934   0.974   0.623   1.872
  296SOL    HW2  935   1.089   0.552   1.964
  297SOL     OW  936   0.082   0.540   3.242
  297SOL    HW1  937   0.176   0.540   3.209
  297SOL    HW2  938   0.070   0.612   3.310
  298SOL     OW  939   0.582   0.241   3.033
  298SOL    HW1  940   0.633   0.165   3.073
  298SOL    HW2  941   0.486   0.236   3.062
  299SOL     OW  942   0.865   0.465   2.497
  299SOL    HW1  943   0.813   0.525   2.436
  299SOL    HW2  944   0.894   0.384   2.447
  300SOL     OW  945   0.959   0.026   2.633
  300SOL    HW1  946   0.904   0.028   2.550
  300SOL    HW2  947   1.031   6.958   2.624
  301SOL     OW  948   1.446   1.161   2.720
  301SOL    HW1  949   1.369   1.097   2.725
  301SOL    HW2  950   1.476   1.171   2.626
  302SOL     OW  951   1.466   0.609   2.831
  302SOL    HW1  952   1.405   0.530   2.832
  302SOL    HW2  953   1.529   0.604   2.908
  303SOL     OW  954   1.841   0.809   2.242
  303SOL    HW1  955   1.899   0.761   2.308
  303SOL    HW2  956   1.812   0.745   2.171
  304SOL     OW  957   0.496   1.422   2.014
  304SOL    HW1  958   0.415   1.396   2.066
  304SOL    HW2  959   0.486   1.391   1.920
  305SOL     OW  960   1.676   1.267   2.505
  305SOL    HW1  961   1.775   1.264   2.517
  305SOL    HW2  962   1.642   1.359   2.525
  306SOL     OW  963   1.391   0.576   1.933
  306SOL    HW1  964   1.328   0.552   2.007
  306SOL    HW2  965   1.485   0.562   1.964
  307SOL     OW  966   0.525   0.261   2.162
  307SOL    HW1  967   0.580   0.210   2.095
  307SOL    HW2  968   0.502   0.351   2.124
  308SOL     OW  969   1.752   1.241   3.420
  308SOL    HW1  970   1.842   1.199   3.407
  308SOL    HW2  971   1.764   1.334   3.455
  309SOL     OW  972   1.053   1.349   3.198
  309SOL    HW1  973   0.971   1.320   3.248
  309SOL    HW2  974   1.134   1.309   3.240
  310SOL     OW  975   1.614   1.630   3.520
  310SOL    HW1  976   1.598   1.665   3.427
  310SOL    HW2  977   1.699   1.578   3.521
  311SOL     OW  978   1.138   1.221   2.967
  311SOL    HW1  979   1.078   1.255   3.039
  311SOL    HW2  980   1.104   1.252   2.878
  312SOL     OW  981   1.623   1.096   2.941
  312SOL    HW1  982   1.619   1.162   3.017
  312SOL    HW2  983   1.548   1.114   2.878
  313SOL     OW  984   0.893   0.151   3.249
  313SOL    HW1  985   0.910   0.117   3.156
  313SOL    HW2  986   0.980   0.178   3.291
  314SOL     OW  987   0.980   1.115   3.583
  314SOL    HW1  988   0.885   1.134   3.610
  314SOL    HW2  989   0.981   1.032   3.527
  315SOL     OW  990   0.711   1.057   2.236
  315SOL    HW1  991   0.696   1.041   2.334
  315SOL    HW2  992   0.791   1.004   2.206
  316SOL     OW  993   0.431   0.807   3.110
  316SOL    HW1  994   0.501   0.822   3.180
  316SOL    HW2  995   0.389   0.717   3.124
  317SOL     OW  996   1.260   0.378   3.149
  317SOL    HW1  997   1.297   0.457   3.198
  317SOL    HW2  998   1.165   0.397   3.123
  318SOL     OW  999   0.068   1.564   3.181
  318SOL    HW1 1000   0.018   1.648   3.199
  318SOL    HW2 1001   0.165   1.578   3.199
  319SOL     OW 1002   0.339   1.117   2.354
  319SOL    HW1 1003   0.349   1.197   2.294
  319SOL    HW2 1004   0.338   1.034   2.299
  320SOL     OW 1005   0.550   0.548   2.726
  320SOL    HW1 1006   0.564   0.607   2.646
  320SOL    HW2 1007   0.621   0.567   2.794
  321SOL     OW 1008   1.246   1.355   2.255
  321SOL    HW1 1009   1.307   1.427   2.286
  321SOL    HW2 1010   1.152   1.375   2.285
  322SOL     OW 1011   1.289   1.462   3.009
  322SOL    HW1 1012   1.347   1.468   3.091
  322SOL    HW2 1013   1.235   1.379   3.013
  323SOL     OW 1014   1.572   0.622   2.348
  323SOL    HW1 1015   1.523   0.676   2.417
  323SOL    HW2 1016   1.624   0.683   2.289
  324SOL     OW 1017   0.351   1.534   3.170
  324SOL    HW1 1018   0.332   1.486   3.084
  324SOL    HW2 1019   0.450   1.546   3.180
  325SOL     OW 1020   0.428   0.733   3.460
  325SOL    HW1 1021   0.487   0.787   3.400
  325SOL    HW2 1022   0.473   0.646   3.482
  326SOL     OW 1023   1.609   0.786   3.548
  326SOL    HW1 1024   1.518   0.827   3.545
  326SOL    HW2 1025   1.666   0.826   3.476
  327SOL     OW 1026   0.998   0.137   3.595
  327SOL    HW1 1027   1.043   0.178   3.516
  327SOL    HW2 1028   0.997   0.037   3.585
  328SOL     OW 1029   0.471   0.039   3.621
  328SOL    HW1 1030   0.411   6.967   3.586
  328SOL    HW2 1031   0.419   0.123   3.634
  329SOL     OW 1032   0.588   0.874   2.894
  329SOL    HW1 1033   0.621   0.968   2.892
  329SOL    HW2 1034   0.529   0.860   2.973
  330SOL     OW 1035   1.349   0.858   2.884
  330SOL    HW1 1036   1.257   0.848   2.846
  330SOL    HW2 1037   1.398   0.771   2.876
  331SOL     OW 1038   1.197   0.527   2.125
  331SOL    HW1 1039   1.210   0.444   2.180
  331SOL    HW2 1040   1.153   0.597   2.181
  332SOL     OW 1041   0.325   0.209   3.109
  332SOL    HW1 1042   0.271   0.229   3.190
  332SOL    HW2 1043   0.299   0.120   3.072
  333SOL     OW 1044   0.098   1.305   3.124
  333SOL    HW1 1045   0.106   1.242   3.202
  333SOL    HW2 1046   0.088   1.398   3.158
  334SOL     OW 1047   0.730   0.637   2.916
  334SOL    HW1 1048   0.804   0.615   2.853
  334SOL    HW2 1049   0.693   0.727   2.895
  335SOL     OW 1050   1.737   0.961   3.719
  335SOL    HW1 1051   1.694   0.892   3.661
  335SOL    HW2 1052   1.677   0.981   3.797
  336SOL     OW 1053   0.349   0.063   2.492
  336SOL    HW1 1054   0.315   0.147   2.533
  336SOL    HW2 1055   0.292   6.986   2.521
  337SOL     OW 1056   1.627   0.394   2.204
  337SOL    HW1 1057   1.656   0.316   2.259
  337SOL    HW2 1058   1.595   0.467   2.265
  338SOL     OW 1059   1.026   0.756   2.819
  338SOL    HW1 1060   1.019   0.778   2.917
  338SOL    HW2 1061   0.998   0.662   2.804
  339SOL     OW 1062   0.983   1.563   3.580
  339SOL    HW1 1063   0.965   1.610   3.494
  339SOL    HW2 1064   1.030   1.477   3.562
  340SOL     OW 1065   1.854   1.503   3.465
  340SOL    HW1 1066   1.873   1.529   3.371
  340SOL    HW2 1067   1.937   1.514   3.520
  341SOL     OW 1068   0.366   0.916   3.659
  341SOL    HW1 1069   0.442   0.942   3.718
  341SOL    HW2 1070   0.396   0.848   3.593
  342SOL     OW 1071   1.539   0.233   1.997
  342SOL    HW1 1072   1.439   0.232   2.003
  342SOL    HW2 1073   1.577   0.292   2.068
  343SOL     OW 1074   1.288   0.826   1.887
  343SOL    HW1 1075   1.328   0.735   1.895
  343SOL    HW2 1076   1.319   0.869   1.802
  344SOL     OW 1077   1.071   1.338   2.717
  344SOL    HW1 1078   1.075   1.260   2.655
  344SOL    HW2 1079   1.129   1.412   2.683
  345SOL     OW 1080   0.323   0.803   2.802
  345SOL    HW1 1081   0.419   0.829   2.802
  345SOL    HW2 1082   0.313   0.710   2.836
  346SOL     OW 1083   0.329   0.531   2.874
  346SOL    HW1 1084   0.286   0.442   2.858
  346SOL    HW2 1085   0.411   0.539   2.817
  347SOL     OW 1086   1.125   0.415   3.534
  347SOL    HW1 1087   1.077   0.455   3.612
  347SOL    HW2 1088   1.223   0.435   3.541
  348SOL     OW 1089   1.133   0.226   3.350
  348SOL    HW1 1090   1.132   0.302   3.415
  348SOL    HW2 1091   1.191   0.249   3.272
  349SOL     OW 1092   6.992   1.322   2.082
  349SOL    HW1 1093   6.920   1.347   2.146
  349SOL    HW2 1094   0.020   1.227   2.099
  350SOL     OW 1095   0.098   1.755   2.813
  350SOL    HW1 1096   0.077   1.680   2.749
  350SOL    HW2 1097   0.184   1.799   2.786
  351SOL     OW 1098   0.493   1.579   2.766
  351SOL    HW1 1099   0.563   1.645   2.793
  351SOL    HW2 1100   0.533   1.511   2.705
  352SOL     OW 1101   0.974   0.794   3.085
  352SOL    HW1 1102   1.033   0.769   3.161
  352SOL    HW2 1103   0.884   0.751   3.096
  353SOL     OW 1104   0.053   0.605   2.971
  353SOL    HW1 1105   0.133   0.568   2.924
  353SOL    HW2 1106   0.057   0.582   3.068
  354SOL     OW 1107   0.203   0.521   3.589
  354SOL    HW1 1108   0.290   0.481   3.561
  354SOL    HW2 1109   0.187   0.605   3.538
  355SOL     OW 1110   1.381   0.935   3.516
  355SOL    HW1 1111   1.404   1.032   3.517
  355SOL    HW2 1112   1.377   0.902   3.422
  356SOL     OW 1113   0.816   0.577   2.222
  356SOL    HW1 1114   0.828   0.496   2.164
  356SOL    HW2 1115   0.737   0.629   2.190
  357SOL     OW 1116   1.641   0.605   3.041
  357SOL    HW1 1117   1.622   0.545   3.118
  357SOL    HW2 1118   1.733   0.586   3.006
  358SOL     OW 1119   0.285   1.560   3.602
  358SOL    HW1 1120   0.230   1.628   3.651
  358SOL    HW2 1121   0.267   1.469   3.639
  359SOL     OW 1122   0.711   0.462   3.118
  359SOL    HW1 1123   0.659   0.381   3.091
  359SOL    HW2 1124   0.710   0.529   3.043
  360SOL     OW 1125   0.920   1.681   3.334
  360SOL    HW1 1126   0.894   1.634   3.250
  360SOL    HW2 1127   0.919   1.779   3.319
  361SOL     OW 1128   0.455   0.491   2.037
  361SOL    HW1 1129   0.518   0.567   2.054
  361SOL    HW2 1130   0.366   0.512   2.079
  362SOL     OW 1131   0.165   1.123   3.332
  362SOL    HW1 1132   0.153   1.063   3.411
  362SOL    HW2 1133   0.179   1.068   3.249
  363SOL     OW 1134   1.315   1.043   3.080
  363SOL    HW1 1135   1.342   0.975   3.012
  363SOL    HW2 1136   1.248   1.106   3.040
  364SOL     OW 1137   1.317   0.856   2.160
  364SOL    HW1 1138   1.240   0.830   2.219
  364SOL    HW2 1139   1.291   0.844   2.064
  365SOL     OW 1140   1.781   1.728   3.020
  365SOL    HW1 1141   1.842   1.762   2.948
  365SOL    HW2 1142   1.749   1.636   2.995
  366SOL     OW 1143   1.241   1.733   2.966
  366SOL    HW1 1144   1.327   1.762   2.924
  366SOL    HW2 1145   1.247   1.636   2.990
  367SOL     OW 1146   0.070   1.243   2.866
  367SOL    HW1 1147   0.088   1.263   2.962
  367SOL    HW2 1148   6.972   1.231   2.852
  368SOL     OW 1149   0.682   1.675   3.600
  368SOL    HW1 1150   0.617   1.750   3.595
  368SOL    HW2 1151   0.754   1.688   3.532
  369SOL     OW 1152   1.705   0.167   2.330
  369SOL    HW1 1153   1.790   0.150   2.281
  369SOL    HW2 1154   1.702   0.110   2.412
  370SOL     OW 1155   1.396   1.570   2.350
  370SOL    HW1 1156   1.458   1.603   2.279
  370SOL    HW2 1157   1.340   1.647   2.383
  371SOL     OW 1158   0.140   1.784   3.716
  371SOL    HW1 1159   0.094   1.711   3.766
  371SOL    HW2 1160   0.194   1.839   3.779
  372SOL     OW 1161   1.282   0.929   2.527
  372SOL    HW1 1162   1.357   0.865   2.545
  372SOL    HW2 1163   1.316   1.005   2.472
  373SOL     OW 1164   0.802   1.280   3.287
  373SOL    HW1 1165   0.774   1.323   3.373
  373SOL    HW2 1166   0.731   1.294   3.218
  374SOL     OW 1167   0.673   1.624   2.016
  374SOL    HW1 1168   0.688   1.643   1.919
  374SOL    HW2 1169   0.616   1.543   2.025
  375SOL     OW 1170   1.616   1.729   3.249
  375SOL    HW1 1171   1.674   1.729   3.168
  375SOL    HW2 1172   1.602   1.823   3.280
  376SOL     OW 1173   1.867   0.160   2.819
  376SOL    HW1 1174   1.865   0.060   2.810
  376SOL    HW2 1175   1.776   0.197   2.802
  377SOL     OW 1176   0.286   0.335   2.581
  377SOL    HW1 1177   0.199   0.374   2.552
  377SOL    HW2 1178   0.282   0.310   2.677
  378SOL     OW 1179   1.209   1.600   1.895
  378SOL    HW1 1180   1.199   1.506   1.928
  378SOL    HW2 1181   1.141   1.617   1.823
  379SOL     OW 1182   0.823   1.011   3.241
  379SOL    HW1 1183   0.874   0.994   3.156
  379SOL    HW2 1184   0.819   1.109   3.259
  380SOL     OW 1185   0.919   0.910   2.149
  380SOL    HW1 1186   0.980   0.946   2.078
  380SOL    HW2 1187   0.966   0.839   2.201
  381SOL     OW 1188   1.488   1.631   1.904
  381SOL    HW1 1189   1.389   1.619   1.893
  381SOL    HW2 1190   1.532   1.636   1.815
  382SOL     OW 1191   0.372   1.307   3.347
  382SOL    HW1 1192   0.359   1.388   3.290
  382SOL    HW2 1193   0.302   1.239   3.325
  383SOL     OW 1194   1.613   1.285   3.147
  383SOL    HW1 1195   1.676   1.265   3.222
  383SOL    HW2 1196   1.547   1.354   3.176
  384SOL     OW 1197   1.063   1.107   2.578
  384SOL    HW1 1198   0.986   1.057   2.617
  384SOL    HW2 1199   1.131   1.042   2.545
  385SOL     OW 1200   1.024   0.249   2.814
  385SOL    HW1 1201   1.002   0.202   2.728
  385SOL    HW2 1202   1.014   0.186   2.890
  386SOL     OW 1203   0.608   1.487   2.343
  386SOL    HW1 1204   0.659   1.433   2.275
  386SOL    HW2 1205   0.529   1.529   2.299
  387SOL     OW 1206   1.734   0.392   3.238
  387SOL    HW1 1207   1.803   0.464   3.243
  387SOL    HW2 1208   1.770   0.314   3.185
  388SOL     OW 1209   0.257   1.351   2.136
  388SOL    HW1 1210   0.158   1.350   2.119
  388SOL    HW2 1211   0.276   1.388   2.227
  389SOL     OW 1212   0.121   0.973   3.565
  389SOL    HW1 1213   0.067   1.024   3.631
  389SOL    HW2 1214   0.212   0.955   3.602
  390SOL     OW 1215   0.671   0.240   3.372
  390SOL    HW1 1216   0.751   0.214   3.318
  390SOL    HW2 1217   0.700   0.270   3.463
  391SOL     OW 1218   0.081   0.314   1.912
  391SOL    HW1 1219   6.989   0.274   1.906
  391SOL    HW2 1220   0.081   0.405   1.870
  392SOL     OW 1221   1.423   0.857   3.257
  392SOL    HW1 1222   1.367   0.921   3.203
  392SOL    HW2 1223   1.517   0.859   3.222
  393SOL     OW 1224   0.037   0.184   2.185
  393SOL    HW1 1225   0.064   0.257   2.121
  393SOL    HW2 1226   0.069   0.096   2.151
  394SOL     OW 1227   1.180   1.337   1.983
  394SOL    HW1 1228   1.083   1.310   1.975
  394SOL    HW2 1229   1.207   1.338   2.079
  395SOL     OW 1230   0.625   0.831   3.296
  395SOL    HW1 1231   0.681   0.912   3.281
  395SOL    HW2 1232   0.685   0.751   3.307
  396SOL     OW 1233   1.485   1.790   2.851
  396SOL    HW1 1234   1.506   1.853   2.776
  396SOL    HW2 1235   1.570   1.754   2.889
  397SOL     OW 1236   0.716   0.559   3.570
  397SOL    HW1 1237   0.764   0.628   3.624
  397SOL    HW2 1238   0.738   0.468   3.607
  398SOL     OW 1239   1.474   1.195   3.496
  398SOL    HW1 1240   1.459   1.209   3.594
  398SOL    HW2 1241   1.570   1.215   3.474
  399SOL     OW 1242   0.370   1.747   3.425
  399SOL    HW1 1243   0.283   1.793   3.410
  399SOL    HW2 1244   0.354   1.662   3.477
  400SOL     OW 1245   1.665   0.878   3.118
  400SOL    HW1 1246   1.660   0.787   3.077
  400SOL    HW2 1247   1.652   0.948   3.047
  401SOL     OW 1248   1.225   0.319   2.317
  401SOL    HW1 1249   1.295   0.248   2.310
  401SOL    HW2 1250   1.244   0.376   2.398
  402SOL     OW 1251   0.588   0.738   2.530
  402SOL    HW1 1252   0.628   0.829   2.521
  402SOL    HW2 1253   0.519   0.725   2.459
  403SOL     OW 1254   1.748   0.369   3.510
  403SOL    HW1 1255   1.740   0.384   3.412
  403SOL    HW2 1256   1.676   0.308   3.541
  404SOL     OW 1257   1.753   0.932   3.371
  404SOL    HW1 1258   1.740   1.029   3.393
  404SOL    HW2 1259   1.731   0.916   3.275
  405SOL     OW 1260   0.871   1.363   1.909
  405SOL    HW1 1261   0.826   1.387   1.995
  405SOL    HW2 1262   0.882   1.445   1.853
  406SOL     OW 1263   0.667   1.785   2.804
  406SOL    HW1 1264   0.643   1.879   2.782
  406SOL    HW2 1265   0.765   1.770   2.792
  407SOL     OW 1266   0.869   0.971   2.718
  407SOL    HW1 1267   0.921   0.894   2.754
  407SOL    HW2 1268   0.826   1.021   2.793
  408SOL     OW 1269   1.076   0.987   1.945
  408SOL    HW1 1270   1.049   1.043   1.867
  408SOL    HW2 1271   1.154   0.930   1.921
  409SOL     OW 1272   1.845   1.556   2.709
  409SOL    HW1 1273   1.768   1.544   2.646
  409SOL    HW2 1274   1.839   1.488   2.781
  410SOL     OW 1275   0.242   1.308   3.727
  410SOL    HW1 1276   0.150   1.276   3.707
  410SOL    HW2 1277   0.253   1.319   3.826
  411SOL     OW 1278   0.153   1.274   2.554
  411SOL    HW1 1279   0.105   1.228   2.629
  411SOL    HW2 1280   0.197   1.206   2.496
  412SOL     OW 1281   0.686   1.410   3.498
  412SOL    HW1 1282   0.604   1.360   3.526
  412SOL    HW2 1283   0.682   1.503   3.534
  413SOL     OW 1284   1.850   0.183   3.107
  413SOL    HW1 1285   1.770   0.124   3.098
  413SOL    HW2 1286   1.882   0.209   3.016
  414SOL     OW 1287   0.454   0.432   2.386
  414SOL    HW1 1288   0.489   0.356   2.331
  414SOL    HW2 1289   0.405   0.396   2.465
  415SOL     OW 1290   1.693   1.481   2.955
  415SOL    HW1 1291   1.612   1.464   2.899
  415SOL    HW2 1292   1.700   1.411   3.026
  416SOL     OW 1293   0.334   0.553   3.151
  416SOL    HW1 1294   0.394   0.500   3.211
  416SOL    HW2 1295   0.351   0.528   3.056
  417SOL     OW 1296   0.829   1.579   2.540
  417SOL    HW1 1297   0.814   1.642   2.463
  417SOL    HW2 1298   0.752   1.516   2.546
  418SOL     OW 1299   1.413   0.217   2.991
  418SOL    HW1 1300   1.494   0.172   3.029
  418SOL    HW2 1301   1.365   0.265   3.064
  419SOL     OW 1302   0.974   0.056   3.000
  419SOL    HW1 1303   0.920   6.993   2.944
  419SOL    HW2 1304   1.029   0.004   3.065
  420SOL     OW 1305   0.775   1.331   2.184
  420SOL    HW1 1306   0.748   1.235   2.193
  420SOL    HW2 1307   0.860   1.346   2.235
  421SOL     OW 1308   0.626   1.559   3.152
  421SOL    HW1 1309   0.623   1.646   3.202
  421SOL    HW2 1310   0.716   1.547   3.111
  422SOL     OW 1311   1.320   0.013   2.055
  422SOL    HW1 1312   1.367   6.944   2.001
  422SOL    HW2 1313   1.243   6.972   2.104
  423SOL     OW 1314   1.266   0.454   2.549
  423SOL    HW1 1315   1.222   0.544   2.546
  423SOL    HW2 1316   1.286   0.430   2.644
  424SOL     OW 1317   1.620   0.257   2.777
  424SOL    HW1 1318   1.532   0.239   2.820
  424SOL    HW2 1319   1.608   0.321   2.701
  425SOL     OW 1320   0.070   1.063   2.138
  425SOL    HW1 1321   0.163   1.027   2.138
  425SOL    HW2 1322   0.006   0.990   2.159
  426SOL     OW 1323   0.885   1.664   2.202
  426SOL    HW1 1324   0.811   1.643   2.139
  426SOL    HW2 1325   0.859   1.741   2.260
  427SOL     OW 1326   0.188   0.649   3.852
  427SOL    HW1 1327   0.170   0.580   3.923
  427SOL    HW2 1328   0.217   0.604   3.768
  428SOL     OW 1329   0.220   0.290   4.710
  428SOL    HW1 1330   0.280   0.247   4.777
  428SOL    HW2 1331   0.125   0.262   4.727
  429SOL     OW 1332   6.996   0.391   4.381
  429SOL    HW1 1333   6.940   0.408   4.462
  429SOL    HW2 1334   0.024   0.295   4.379
  430SOL     OW 1335   0.570   1.299   4.912
  430SOL    HW1 1336   0.480   1.297   4.868
  430SOL    HW2 1337   0.588   1.391   4.946
  431SOL     OW 1338   1.566   1.514   4.431
  431SOL    HW1 1339   1.523   1.489   4.518
  431SOL    HW2 1340   1.496   1.521   4.361
  432SOL     OW 1341   1.134   0.703   4.418
  432SOL    HW1 1342   1.186   0.787   4.401
  432SOL    HW2 1343   1.083   0.712   4.504
  433SOL     OW 1344   1.770   0.601   3.945
  433SOL    HW1 1345   1.747   0.598   3.848
  433SOL    HW2 1346   1.731   0.521   3.991
  434SOL     OW 1347   0.741   1.140   4.765
  434SOL    HW1 1348   0.674   1.175   4.830
  434SOL    HW2 1349   0.786   1.217   4.719
  435SOL     OW 1350   0.873   0.764   5.544
  435SOL    HW1 1351   0.864   0.832   5.617
  435SOL    HW2 1352   0.898   0.809   5.459
  436SOL     OW 1353   0.683   1.000   4.374
  436SOL    HW1 1354   0.755   0.990   4.442
  436SOL    HW2 1355   0.609   1.056   4.411
  437SOL     OW 1356   0.713   1.152   5.544
  437SOL    HW1 1357   0.766   1.231   5.578
  437SOL    HW2 1358   0.629   1.185   5.500
  438SOL     OW 1359   0.334   1.420   4.788
  438SOL    HW1 1360   0.255   1.380   4.741
  438SOL    HW2 1361   0.385   1.478   4.725
  439SOL     OW 1362   1.457   1.502   5.083
  439SOL    HW1 1363   1.515   1.583   5.090
  439SOL    HW2 1364   1.386   1.506   5.152
  440SOL     OW 1365   0.451   0.405   5.215
  440SOL    HW1 1366   0.536   0.352   5.216
  440SOL    HW2 1367   0.373   0.343   5.225
  441SOL     OW 1368   1.617   0.457   4.453
  441SOL    HW1 1369   1.559   0.487   4.377
  441SOL    HW2 1370   1.622   0.530   4.522
  442SOL     OW 1371   0.226   1.710   4.190
  442SOL    HW1 1372   0.241   1.789   4.249
  442SOL    HW2 1373   0.297   1.707   4.120
  443SOL     OW 1374   1.138   1.340   5.422
  443SOL    HW1 1375   1.184   1.338   5.510
  443SOL    HW2 1376   1.081   1.258   5.411
  444SOL     OW 1377   0.279   1.443   4.244
  444SOL    HW1 1378   0.255   1.540   4.249
  444SOL    HW2 1379   0.230   1.392   4.314
  445SOL     OW 1380   0.272   1.083   4.632
  445SOL    HW1 1381   0.268   0.986   4.659
  445SOL    HW2 1382   0.199   1.133   4.677
  446SOL     OW 1383   0.600   1.797   5.151
  446SOL    HW1 1384   0.515   1.774   5.197
  446SOL    HW2 1385   0.630   1.888   5.179
  447SOL     OW 1386   0.580   0.988   3.866
  447SOL    HW1 1387   0.628   1.035   3.792
  447SOL    HW2 1388   0.619   1.016   3.954
  448SOL     OW 1389   1.578   0.132   5.170
  448SOL    HW1 1390   1.592   0.226   5.139
  448SOL    HW2 1391   1.602   0.125   5.267
  449SOL     OW 1392   0.131   0.619   4.292
  449SOL    HW1 1393   0.071   0.544   4.319
  449SOL    HW2 1394   0.121   0.695   4.356
  450SOL     OW 1395   1.847   1.755   4.056
  450SOL    HW1 1396   1.917   1.725   4.120
  450SOL    HW2 1397   1.862   1.851   4.032
  451SOL     OW 1398   0.034   1.592   3.872
  451SOL    HW1 1399   0.026   1.493   3.886
  451SOL    HW2 1400   6.958   1.638   3.916
  452SOL     OW 1401   1.690   0.920   4.372
  452SOL    HW1 1402   1.776   0.870   4.356
  452SOL    HW2 1403   1.668   0.974   4.290
  453SOL     OW 1404   1.654   1.104   4.156
  453SOL    HW1 1405   1.743   1.100   4.111
  453SOL    HW2 1406   1.657   1.171   4.230
  454SOL     OW 1407   0.149   0.734   5.298
  454SOL    HW1 1408   0.247   0.741   5.283
  454SOL    HW2 1409   0.114   0.821   5.331
  455SOL     OW 1410   0.612   1.391   4.459
  455SOL    HW1 1411   0.565   1.304   4.472
  455SOL    HW2 1412   0.599   1.421   4.364
  456SOL     OW 1413   1.288   1.234   5.145
  456SOL    HW1 1414   1.314   1.164   5.080
  456SOL    HW2 1415   1.348   1.230   5.225
  457SOL     OW 1416   0.834   0.028   4.243
  457SOL    HW1 1417   0.874   0.118   4.222
  457SOL    HW2 1418   0.734   0.035   4.241
  458SOL     OW 1419   0.204   0.960   4.987
  458SOL    HW1 1420   0.288   0.908   4.970
  458SOL    HW2 1421   0.134   0.933   4.921
  459SOL     OW 1422   1.532   1.001   3.929
  459SOL    HW1 1423   1.458   0.941   3.958
  459SOL    HW2 1424   1.579   1.038   4.009
  460SOL     OW 1425   1.182   1.813   5.347
  460SOL    HW1 1426   1.189   1.881   5.274
  460SOL    HW2 1427   1.202   1.722   5.309
  461SOL     OW 1428   0.329   0.268   5.534
  461SOL    HW1 1429   0.389   0.333   5.581
  461SOL    HW2 1430   0.238   0.269   5.575
  462SOL     OW 1431   1.465   1.420   4.670
  462SOL    HW1 1432   1.399   1.440   4.742
  462SOL    HW2 1433   1.457   1.325   4.642
  463SOL     OW 1434   1.649   1.751   4.299
  463SOL    HW1 1435   1.632   1.722   4.206
  463SOL    HW2 1436   1.629   1.676   4.362
  464SOL     OW 1437   0.590   0.717   3.989
  464SOL    HW1 1438   0.600   0.805   3.943
  464SOL    HW2 1439   0.525   0.725   4.065
  465SOL     OW 1440   1.282   0.368   4.673
  465SOL    HW1 1441   1.185   0.344   4.676
  465SOL    HW2 1442   1.332   0.317   4.743
  466SOL     OW 1443   1.583   1.673   4.032
  466SOL    HW1 1444   1.680   1.700   4.028
  466SOL    HW2 1445   1.550   1.656   3.939
  467SOL     OW 1446   0.792   0.616   5.181
  467SOL    HW1 1447   0.765   0.589   5.273
  467SOL    HW2 1448   0.756   0.551   5.115
  468SOL     OW 1449   1.394   0.474   5.405
  468SOL    HW1 1450   1.393   0.520   5.493
  468SOL    HW2 1451   1.450   0.392   5.411
  469SOL     OW 1452   0.952   0.885   5.307
  469SOL    HW1 1453   1.011   0.813   5.268
  469SOL    HW2 1454   0.899   0.927   5.235
  470SOL     OW 1455   0.995   0.411   4.950
  470SOL    HW1 1456   0.908   0.434   4.994
  470SOL    HW2 1457   0.978   0.362   4.865
  471SOL     OW 1458   1.051   0.698   4.149
  471SOL    HW1 1459   1.072   0.694   4.246
  471SOL    HW2 1460   0.964   0.652   4.132
  472SOL     OW 1461   0.101   0.817   4.499
  472SOL    HW1 1462   0.194   0.808   4.534
  472SOL    HW2 1463   0.041   0.847   4.573
  473SOL     OW 1464   0.119   1.871   5.317
  473SOL    HW1 1465   0.131   1.846   5.412
  473SOL    HW2 1466   0.028   1.844   5.286
  474SOL     OW 1467   0.889   0.356   3.924
  474SOL    HW1 1468   0.936   0.416   3.860
  474SOL    HW2 1469   0.863   0.271   3.878
  475SOL     OW 1470   1.700   0.572   5.549
  475SOL    HW1 1471   1.664   0.652   5.500
  475SOL    HW2 1472   1.728   0.502   5.483
  476SOL     OW 1473   1.380   1.143   4.257
  476SOL    HW1 1474   1.465   1.128   4.206
  476SOL    HW2 1475   1.324   1.210   4.209
  477SOL     OW 1476   0.505   0.196   4.634
  477SOL    HW1 1477   0.550   0.223   4.719
  477SOL    HW2 1478   0.529   0.260   4.561
  478SOL     OW 1479   0.994   1.443   4.188
  478SOL    HW1 1480   0.963   1.524   4.137
  478SOL    HW2 1481   0.977   1.456   4.285
  479SOL     OW 1482   0.357   1.819   4.592
  479SOL    HW1 1483   0.397   1.729   4.603
  479SOL    HW2 1484   0.425   1.889   4.613
  480SOL     OW 1485   1.798   1.056   4.597
  480SOL    HW1 1486   1.747   1.033   4.514
  480SOL    HW2 1487   1.735   1.062   4.674
  481SOL     OW 1488   1.226   1.536   5.238
  481SOL    HW1 1489   1.214   1.462   5.304
  481SOL    HW2 1490   1.157   1.529   5.166
  482SOL     OW 1491   0.317   0.945   3.975
  482SOL    HW1 1492   0.404   0.970   3.933
  482SOL    HW2 1493   0.288   0.856   3.941
  483SOL     OW 1494   1.484   0.751   4.447
  483SOL    HW1 1495   1.477   0.708   4.537
  483SOL    HW2 1496   1.563   0.811   4.444
  484SOL     OW 1497   0.473   1.262   5.452
  484SOL    HW1 1498   0.445   1.272   5.356
  484SOL    HW2 1499   0.391   1.262   5.510
  485SOL     OW 1500   1.122   1.776   3.950
  485SOL    HW1 1501   1.042   1.739   3.998
  485SOL    HW2 1502   1.151   1.711   3.879
  486SOL     OW 1503   0.204   0.278   5.236
  486SOL    HW1 1504   0.147   0.360   5.228
  486SOL    HW2 1505   0.209   0.251   5.332
  487SOL     OW 1506   1.624   1.382   3.813
  487SOL    HW1 1507   1.586   1.473   3.797
  487SOL    HW2 1508   1.555   1.313   3.794
  488SOL     OW 1509   0.468   1.734   4.040
  488SOL    HW1 1510   0.509   1.795   4.108
  488SOL    HW2 1511   0.540   1.698   3.981
  489SOL     OW 1512   1.425   0.133   4.148
  489SOL    HW1 1513   1.405   0.088   4.061
  489SOL    HW2 1514   1.524   0.139   4.160
  490SOL     OW 1515   0.258   1.793   4.946
  490SOL    HW1 1516   0.309   1.719   4.989
  490SOL    HW2 1517   0.212   1.759   4.863
  491SOL     OW 1518   0.936   1.703   4.620
  491SOL    HW1 1519   1.018   1.656   4.652
  491SOL    HW2 1520   0.894   1.650   4.545
  492SOL     OW 1521   0.400   0.687   4.194
  492SOL    HW1 1522   0.427   0.592   4.211
  492SOL    HW2 1523   0.303   0.698   4.218
  493SOL     OW 1524   1.528   0.230   5.451
  493SOL    HW1 1525   1.543   0.235   5.549
  493SOL    HW2 1526   1.441   0.183   5.432
  494SOL     OW 1527   0.646   0.109   3.827
  494SOL    HW1 1528   0.685   0.035   3.881
  494SOL    HW2 1529   0.584   0.072   3.758
  495SOL     OW 1530   0.763   0.277   5.491
  495SOL    HW1 1531   0.852   0.233   5.483
  495SOL    HW2 1532   0.709   0.232   5.563
  496SOL     OW 1533   0.876   1.515   4.916
  496SOL    HW1 1534   0.856   1.478   4.825
  496SOL    HW2 1535   0.948   1.461   4.959
  497SOL     OW 1536   1.342   0.591   5.161
  497SOL    HW1 1537   1.371   0.556   5.250
  497SOL    HW2 1538   1.376   0.684   5.149
  498SOL     OW 1539   0.821   1.388   4.666
  498SOL    HW1 1540   0.910   1.377   4.623
  498SOL    HW2 1541   0.751   1.395   4.595
  499SOL     OW 1542   0.927   0.511   4.619
  499SOL    HW1 1543   0.899   0.505   4.523
  499SOL    HW2 1544   0.959   0.421   4.649
  500SOL     OW 1545   0.570   0.064   4.208
  500SOL    HW1 1546   0.493   0.055   4.271
  500SOL    HW2 1547   0.553   0.140   4.145
  501SOL     OW 1548   1.425   1.199   3.767
  501SOL    HW1 1549   1.459   1.122   3.821
  501SOL    HW2 1550   1.337   1.229   3.803
  502SOL     OW 1551   0.308   0.045   3.921
  502SOL    HW1 1552   0.337   0.140   3.910
  502SOL    HW2 1553   0.371   6.999   3.984
  503SOL     OW 1554   0.952   0.268   4.179
  503SOL    HW1 1555   0.921   0.302   4.091
  503SOL    HW2 1556   1.051   0.276   4.186
  504SOL     OW 1557   1.080   0.684   5.177
  504SOL    HW1 1558   1.006   0.619   5.189
  504SOL    HW2 1559   1.168   0.636   5.177
  505SOL     OW 1560   1.219   1.569   4.518
  505SOL    HW1 1561   1.233   1.639   4.448
  505SOL    HW2 1562   1.291   1.578   4.588
  506SOL     OW 1563   0.468   1.151   4.456
  506SOL    HW1 1564   0.402   1.130   4.529
  506SOL    HW2 1565   0.424   1.138   4.367
  507SOL     OW 1566   1.262   1.791   4.335
  507SOL    HW1 1567   1.314   1.853   4.276
  507SOL    HW2 1568   1.189   1.842   4.380
  508SOL     OW 1569   1.017   0.536   3.758
  508SOL    HW1 1570   0.974   0.623   3.734
  508SOL    HW2 1571   1.089   0.552   3.826
  509SOL     OW 1572   0.082   0.540   5.104
  509SOL    HW1 1573   0.176   0.540   5.071
  509SOL    HW2 1574   0.070   0.612   5.172
  510SOL     OW 1575   0.582   0.241   4.895
  510SOL    HW1 1576   0.633   0.166   4.935
  510SOL    HW2 1577   0.486   0.236   4.924
  511SOL     OW 1578   0.865   0.465   4.359
  511SOL    HW1 1579   0.813   0.525   4.298
  511SOL    HW2 1580   0.894   0.384   4.309
  512SOL     OW 1581   0.959   0.026   4.495
  512SOL    HW1 1582   0.904   0.028   4.412
  512SOL    HW2 1583   1.031   6.958   4.486
  513SOL     OW 1584   1.446   1.161   4.583
  513SOL    HW1 1585   1.369   1.097   4.587
  513SOL    HW2 1586   1.476   1.171   4.488
  514SOL     OW 1587   1.466   0.609   4.693
  514SOL    HW1 1588   1.405   0.530   4.694
  514SOL    HW2 1589   1.529   0.604   4.770
  515SOL     OW 1590   1.841   0.809   4.104
  515SOL    HW1 1591   1.899   0.761   4.170
  515SOL    HW2 1592   1.812   0.745   4.033
  516SOL     OW 1593   0.496   1.422   3.876
  516SOL    HW1 1594   0.415   1.396   3.928
  516SOL    HW2 1595   0.487   1.391   3.782
  517SOL     OW 1596   1.676   1.267   4.367
  517SOL    HW1 1597   1.775   1.264   4.379
  517SOL    HW2 1598   1.642   1.359   4.387
  518SOL     OW 1599   1.391   0.576   3.795
  518SOL    HW1 1600   1.328   0.552   3.869
  518SOL    HW2 1601   1.485   0.562   3.826
  519SOL     OW 1602   0.525   0.261   4.024
  519SOL    HW1 1603   0.580   0.210   3.957
  519SOL    HW2 1604   0.502   0.351   3.986
  520SOL     OW 1605   1.752   1.241   5.282
  520SOL    HW1 1606   1.842   1.199   5.269
  520SOL    HW2 1607   1.764   1.334   5.317
  521SOL     OW 1608   1.053   1.349   5.059
  521SOL    HW1 1609   0.971   1.320   5.110
  521SOL    HW2 1610   1.134   1.309   5.102
  522SOL     OW 1611   1.614   1.630   5.382
  522SOL    HW1 1612   1.598   1.665   5.289
  522SOL    HW2 1613   1.699   1.578   5.383
  523SOL     OW 1614   1.138   1.221   4.829
  523SOL    HW1 1615   1.078   1.255   4.901
  523SOL    HW2 1616   1.104   1.252   4.740
  524SOL     OW 1617   1.623   1.096   4.803
  524SOL    HW1 1618   1.619   1.162   4.879
  524SOL    HW2 1619   1.548   1.114   4.740
  525SOL     OW 1620   0.893   0.151   5.111
  525SOL    HW1 1621   0.910   0.117   5.018
  525SOL    HW2 1622   0.980   0.178   5.153
  526SOL     OW 1623   0.980   1.115   5.445
  526SOL    HW1 1624   0.885   1.134   5.472
  526SOL    HW2 1625   0.981   1.032   5.389
  527SOL     OW 1626   0.711   1.057   4.098
  527SOL    HW1 1627   0.696   1.041   4.196
  527SOL    HW2 1628   0.791   1.004   4.068
  528SOL     OW 1629   0.431   0.807   4.972
  528SOL    HW1 1630   0.501   0.822   5.042
  528SOL    HW2 1631   0.389   0.717   4.986
  529SOL     OW 1632   1.260   0.378   5.011
  529SOL    HW1 1633   1.297   0.457   5.060
  529SOL    HW2 1634   1.165   0.397   4.985
  530SOL     OW 1635   0.068   1.564   5.042
  530SOL    HW1 1636   0.018   1.648   5.062
  530SOL    HW2 1637   0.165   1.578   5.061
  531SOL     OW 1638   0.339   1.117   4.216
  531SOL    HW1 1639   0.349   1.197   4.156
  531SOL    HW2 1640   0.338   1.034   4.161
  532SOL     OW 1641   0.550   0.548   4.588
  532SOL    HW1 1642   0.564   0.607   4.508
  532SOL    HW2 1643   0.621   0.567   4.656
  533SOL     OW 1644   1.246   1.355   4.117
  533SOL    HW1 1645   1.307   1.427   4.148
  533SOL    HW2 1646   1.152   1.375   4.147
  534SOL     OW 1647   1.289   1.462   4.871
  534SOL    HW1 1648   1.347   1.468   4.953
  534SOL    HW2 1649   1.235   1.378   4.875
  535SOL     OW 1650   1.572   0.622   4.210
  535SOL    HW1 1651   1.523   0.676   4.279
  535SOL    HW2 1652   1.624   0.683   4.151
  536SOL     OW 1653   0.351   1.534   5.032
  536SOL    HW1 1654   0.332   1.486   4.946
  536SOL    HW2 1655   0.450   1.546   5.042
  537SOL     OW 1656   0.428   0.733   5.322
  537SOL    HW1 1657   0.486   0.787   5.262
  537SOL    HW2 1658   0.473   0.646   5.344
  538SOL     OW 1659   1.609   0.786   5.410
  538SOL    HW1 1660   1.518   0.827   5.407
  538SOL    HW2 1661   1.666   0.826   5.338
  539SOL     OW 1662   0.998   0.137   5.457
  539SOL    HW1 1663   1.043   0.179   5.378
  539SOL    HW2 1664   0.998   0.037   5.447
  540SOL     OW 1665   0.471   0.039   5.483
  540SOL    HW1 1666   0.412   6.968   5.446
  540SOL    HW2 1667   0.418   0.123   5.496
  541SOL     OW 1668   0.588   0.874   4.756
  541SOL    HW1 1669   0.621   0.968   4.754
  541SOL    HW2 1670   0.529   0.860   4.835
  542SOL     OW 1671   1.349   0.858   4.746
  542SOL    HW1 1672   1.257   0.848   4.708
  542SOL    HW2 1673   1.398   0.771   4.738
  543SOL     OW 1674   1.197   0.527   3.987
  543SOL    HW1 1675   1.210   0.444   4.042
  543SOL    HW2 1676   1.153   0.597   4.043
  544SOL     OW 1677   0.325   0.209   4.971
  544SOL    HW1 1678   0.271   0.229   5.052
  544SOL    HW2 1679   0.299   0.120   4.934
  545SOL     OW 1680   0.098   1.305   4.986
  545SOL    HW1 1681   0.106   1.242   5.064
  545SOL    HW2 1682   0.088   1.398   5.020
  546SOL     OW 1683   0.730   0.637   4.778
  546SOL    HW1 1684   0.804   0.615   4.715
  546SOL    HW2 1685   0.693   0.727   4.757
  547SOL     OW 1686   1.737   0.961   5.581
  547SOL    HW1 1687   1.694   0.892   5.523
  547SOL    HW2 1688   1.677   0.981   5.659
  548SOL     OW 1689   0.349   0.063   4.354
  548SOL    HW1 1690   0.314   0.147   4.395
  548SOL    HW2 1691   0.292   6.986   4.383
  549SOL     OW 1692   1.627   0.394   4.066
  549SOL    HW1 1693   1.656   0.316   4.121
  549SOL    HW2 1694   1.595   0.467   4.127
  550SOL     OW 1695   1.026   0.756   4.681
  550SOL    HW1 1696   1.019   0.778   4.779
  550SOL    HW2 1697   0.998   0.662   4.666
  551SOL     OW 1698   0.983   1.563   5.442
  551SOL    HW1 1699   0.965   1.610   5.356
  551SOL    HW2 1700   1.030   1.477   5.424
  552SOL     OW 1701   1.854   1.503   5.327
  552SOL    HW1 1702   1.873   1.529   5.233
  552SOL    HW2 1703   1.937   1.514   5.382
  553SOL     OW 1704   0.366   0.916   5.521
  553SOL    HW1 1705   0.442   0.942   5.580
  553SOL    HW2 1706   0.396   0.848   5.455
  554SOL     OW 1707   1.539   0.233   3.859
  554SOL    HW1 1708   1.439   0.232   3.865
  554SOL    HW2 1709   1.576   0.292   3.930
  555SOL     OW 1710   1.288   0.826   3.749
  555SOL    HW1 1711   1.328   0.735   3.757
  555SOL    HW2 1712   1.319   0.869   3.664
  556SOL     OW 1713   1.071   1.338   4.579
  556SOL    HW1 1714   1.075   1.260   4.517
  556SOL    HW2 1715   1.129   1.412   4.545
  557SOL     OW 1716   0.323   0.803   4.664
  557SOL    HW1 1717   0.419   0.829   4.664
  557SOL    HW2 1718   0.313   0.710   4.698
  558SOL     OW 1719   0.329   0.531   4.736
  558SOL    HW1 1720   0.286   0.442   4.720
  558SOL    HW2 1721   0.411   0.539   4.679
  559SOL     OW 1722   1.125   0.415   5.395
  559SOL    HW1 1723   1.077   0.455   5.474
  559SOL    HW2 1724   1.223   0.435   5.403
  560SOL     OW 1725   1.133   0.226   5.212
  560SOL    HW1 1726   1.132   0.302   5.277
  560SOL    HW2 1727   1.190   0.248   5.134
  561SOL     OW 1728   6.992   1.322   3.944
  561SOL    HW1 1729   6.920   1.347   4.008
  561SOL    HW2 1730   0.020   1.227   3.961
  562SOL     OW 1731   0.098   1.755   4.674
  562SOL    HW1 1732   0.078   1.680   4.611
  562SOL    HW2 1733   0.184   1.799   4.648
  563SOL     OW 1734   0.493   1.578   4.628
  563SOL    HW1 1735   0.563   1.645   4.655
  563SOL    HW2 1736   0.533   1.510   4.567
  564SOL     OW 1737   0.974   0.794   4.947
  564SOL    HW1 1738   1.033   0.769   5.023
  564SOL    HW2 1739   0.884   0.751   4.958
  565SOL     OW 1740   0.053   0.605   4.833
  565SOL    HW1 1741   0.133   0.569   4.786
  565SOL    HW2 1742   0.057   0.582   4.930
  566SOL     OW 1743   0.203   0.521   5.452
  566SOL    HW1 1744   0.290   0.481   5.423
  566SOL    HW2 1745   0.187   0.605   5.400
  567SOL     OW 1746   1.381   0.935   5.378
  567SOL    HW1 1747   1.404   1.032   5.379
  567SOL    HW2 1748   1.377   0.902   5.284
  568SOL     OW 1749   0.816   0.577   4.084
  568SOL    HW1 1750   0.828   0.496   4.026
  568SOL    HW2 1751   0.737   0.629   4.052
  569SOL     OW 1752   1.641   0.605   4.903
  569SOL    HW1 1753   1.622   0.545   4.980
  569SOL    HW2 1754   1.733   0.586   4.868
  570SOL     OW 1755   0.285   1.560   5.464
  570SOL    HW1 1756   0.230   1.628   5.513
  570SOL    HW2 1757   0.267   1.469   5.501
  571SOL     OW 1758   0.711   0.462   4.980
  571SOL    HW1 1759   0.659   0.381   4.953
  571SOL    HW2 1760   0.710   0.529   4.905
  572SOL     OW 1761   0.921   1.680   5.196
  572SOL    HW1 1762   0.893   1.634   5.112
  572SOL    HW2 1763   0.919   1.779   5.181
  573SOL     OW 1764   0.454   0.491   3.899
  573SOL    HW1 1765   0.517   0.567   3.916
  573SOL    HW2 1766   0.366   0.511   3.942
  574SOL     OW 1767   0.165   1.123   5.194
  574SOL    HW1 1768   0.153   1.063   5.273
  574SOL    HW2 1769   0.179   1.068   5.112
  575SOL     OW 1770   1.315   1.043   4.942
  575SOL    HW1 1771   1.342   0.976   4.874
  575SOL    HW2 1772   1.248   1.106   4.902
  576SOL     OW 1773   1.317   0.856   4.022
  576SOL    HW1 1774   1.240   0.830   4.081
  576SOL    HW2 1775   1.291   0.844   3.926
  577SOL     OW 1776   1.781   1.728   4.882
  577SOL    HW1 1777   1.842   1.762   4.810
  577SOL    HW2 1778   1.749   1.636   4.857
  578SOL     OW 1779   1.241   1.733   4.828
  578SOL    HW1 1780   1.327   1.762   4.786
  578SOL    HW2 1781   1.247   1.636   4.852
  579SOL     OW 1782   0.070   1.243   4.728
  579SOL    HW1 1783   0.088   1.263   4.824
  579SOL    HW2 1784   6.972   1.231   4.714
  580SOL     OW 1785   0.682   1.675   5.462
  580SOL    HW1 1786   0.617   1.750   5.457
  580SOL    HW2 1787   0.754   1.688   5.394
  581SOL     OW 1788   1.705   0.167   4.192
  581SOL    HW1 1789   1.790   0.150   4.142
  581SOL    HW2 1790   1.702   0.110   4.274
  582SOL     OW 1791   1.396   1.570   4.212
  582SOL    HW1 1792   1.458   1.603   4.141
  582SOL    HW2 1793   1.340   1.647   4.245
  583SOL     OW 1794   0.140   1.784   5.578
  583SOL    HW1 1795   0.094   1.711   5.628
  583SOL    HW2 1796   0.194   1.839   5.641
  584SOL     OW 1797   1.282   0.929   4.389
  584SOL    HW1 1798   1.357   0.865   4.407
  584SOL    HW2 1799   1.316   1.005   4.334
  585SOL     OW 1800   0.802   1.280   5.149
  585SOL    HW1 1801   0.774   1.323   5.235
  585SOL    HW2 1802   0.731   1.294   5.080
  586SOL     OW 1803   0.673   1.624   3.878
  586SOL    HW1 1804   0.688   1.644   3.781
  586SOL    HW2 1805   0.616   1.543   3.887
  587SOL     OW 1806   1.616   1.729   5.111
  587SOL    HW1 1807   1.674   1.729   5.030
  587SOL    HW2 1808   1.602   1.823   5.142
  588SOL     OW 1809   1.867   0.160   4.681
  588SOL    HW1 1810   1.865   0.060   4.672
  588SOL    HW2 1811   1.776   0.197   4.664
  589SOL     OW 1812   0.286   0.335   4.443
  589SOL    HW1 1813   0.199   0.374   4.414
  589SOL    HW2 1814   0.282   0.310   4.539
  590SOL     OW 1815   1.209   1.600   3.757
  590SOL    HW1 1816   1.199   1.506   3.790
  590SOL    HW2 1817   1.141   1.617   3.685
  591SOL     OW 1818   0.823   1.011   5.103
  591SOL    HW1 1819   0.874   0.994   5.018
  591SOL    HW2 1820   0.819   1.109   5.121
  592SOL     OW 1821   0.919   0.910   4.011
  592SOL    HW1 1822   0.980   0.946   3.940
  592SOL    HW2 1823   0.966   0.839   4.063
  593SOL     OW 1824   1.488   1.631   3.766
  593SOL    HW1 1825   1.389   1.619   3.755
  593SOL    HW2 1826   1.532   1.636   3.677
  594SOL     OW 1827   0.372   1.307   5.209
  594SOL    HW1 1828   0.359   1.388   5.152
  594SOL    HW2 1829   0.302   1.239   5.187
  595SOL     OW 1830   1.613   1.285   5.009
  595SOL    HW1 1831   1.676   1.265   5.084
  595SOL    HW2 1832   1.547   1.354   5.038
  596SOL     OW 1833   1.063   1.107   4.440
  596SOL    HW1 1834   0.986   1.057   4.479
  596SOL    HW2 1835   1.132   1.041   4.407
  597SOL     OW 1836   1.024   0.249   4.676
  597SOL    HW1 1837   1.002   0.202   4.590
  597SOL    HW2 1838   1.014   0.186   4.752
  598SOL     OW 1839   0.608   1.487   4.204
  598SOL    HW1 1840   0.659   1.433   4.137
  598SOL    HW2 1841   0.529   1.529   4.161
  599SOL     OW 1842   1.734   0.392   5.100
  599SOL    HW1 1843   1.803   0.464   5.105
  599SOL    HW2 1844   1.770   0.314   5.047
  600SOL     OW 1845   0.257   1.351   3.998
  600SOL    HW1 1846   0.158   1.350   3.981
  600SOL    HW2 1847   0.276   1.388   4.089
  601SOL     OW 1848   0.121   0.972   5.427
  601SOL    HW1 1849   0.067   1.024   5.493
  601SOL    HW2 1850   0.212   0.955   5.464
  602SOL     OW 1851   0.671   0.240   5.234
  602SOL    HW1 1852   0.751   0.214   5.180
  602SOL    HW2 1853   0.700   0.270   5.325
  603SOL     OW 1854   0.081   0.314   3.775
  603SOL    HW1 1855   6.989   0.274   3.768
  603SOL    HW2 1856   0.081   0.405   3.733
  604SOL     OW 1857   1.423   0.857   5.119
  604SOL    HW1 1858   1.367   0.921   5.065
  604SOL    HW2 1859   1.517   0.859   5.084
  605SOL     OW 1860   0.038   0.185   4.047
  605SOL    HW1 1861   0.064   0.256   3.983
  605SOL    HW2 1862   0.070   0.096   4.013
  606SOL     OW 1863   1.180   1.337   3.845
  606SOL    HW1 1864   1.083   1.310   3.837
  606SOL    HW2 1865   1.207   1.338   3.941
  607SOL     OW 1866   0.625   0.831   5.158
  607SOL    HW1 1867   0.681   0.912   5.143
  607SOL    HW2 1868   0.685   0.751   5.169
  608SOL     OW 1869   1.485   1.790   4.713
  608SOL    HW1 1870   1.506   1.854   4.638
  608SOL    HW2 1871   1.570   1.754   4.751
  609SOL     OW 1872   0.716   0.559   5.432
  609SOL    HW1 1873   0.764   0.628   5.486
  609SOL    HW2 1874   0.738   0.468   5.469
  610SOL     OW 1875   1.474   1.195   5.358
  610SOL    HW1 1876   1.459   1.209   5.456
  610SOL    HW2 1877   1.570   1.215   5.336
  611SOL     OW 1878   0.370   1.747   5.287
  611SOL    HW1 1879   0.283   1.793   5.272
  611SOL    HW2 1880   0.354   1.662   5.339
  612SOL     OW 1881   1.665   0.878   4.980
  612SOL    HW1 1882   1.660   0.787   4.939
  612SOL    HW2 1883   1.652   0.948   4.909
  613SOL     OW 1884   1.225   0.319   4.179
  613SOL    HW1 1885   1.295   0.248   4.172
  613SOL    HW2 1886   1.244   0.376   4.260
  614SOL     OW 1887   0.588   0.738   4.392
  614SOL    HW1 1888   0.628   0.829   4.383
  614SOL    HW2 1889   0.519   0.725   4.321
  615SOL     OW 1890   1.748   0.369   5.372
  615SOL    HW1 1891   1.740   0.384   5.274
  615SOL    HW2 1892   1.676   0.308   5.403
  616SOL     OW 1893   1.753   0.932   5.233
  616SOL    HW1 1894   1.740   1.029   5.255
  616SOL    HW2 1895   1.731   0.916   5.137
  617SOL     OW 1896   0.870   1.363   3.771
  617SOL    HW1 1897   0.826   1.386   3.857
  617SOL    HW2 1898   0.882   1.445   3.715
  618SOL     OW 1899   0.667   1.785   4.666
  618SOL    HW1 1900   0.643   1.879   4.644
  618SOL    HW2 1901   0.765   1.771   4.654
  619SOL     OW 1902   0.869   0.971   4.580
  619SOL    HW1 1903   0.921   0.894   4.616
  619SOL    HW2 1904   0.826   1.021   4.655
  620SOL     OW 1905   1.076   0.987   3.807
  620SOL    HW1 1906   1.049   1.043   3.728
  620SOL    HW2 1907   1.154   0.930   3.783
  621SOL     OW 1908   1.845   1.556   4.571
  621SOL    HW1 1909   1.768   1.544   4.508
  621SOL    HW2 1910   1.840   1.488   4.643
  622SOL     OW 1911   0.242   1.308   5.589
  622SOL    HW1 1912   0.150   1.276   5.569
  622SOL    HW2 1913   0.253   1.318   5.688
  623SOL     OW 1914   0.153   1.274   4.416
  623SOL    HW1 1915   0.105   1.228   4.491
  623SOL    HW2 1916   0.198   1.205   4.358
  624SOL     OW 1917   0.686   1.410   5.360
  624SOL    HW1 1918   0.604   1.360   5.388
  624SOL    HW2 1919   0.682   1.503   5.396
  625SOL     OW 1920   1.850   0.183   4.969
  625SOL    HW1 1921   1.770   0.124   4.961
  625SOL    HW2 1922   1.882   0.208   4.878
  626SOL     OW 1923   0.454   0.432   4.248
  626SOL    HW1 1924   0.490   0.356   4.193
  626SOL    HW2 1925   0.405   0.396   4.327
  627SOL     OW 1926   1.693   1.482   4.817
  627SOL    HW1 1927   1.612   1.464   4.761
  627SOL    HW2 1928   1.700   1.411   4.888
  628SOL     OW 1929   0.334   0.553   5.013
  628SOL    HW1 1930   0.394   0.500   5.073
  628SOL    HW2 1931   0.351   0.528   4.918
  629SOL     OW 1932   0.829   1.579   4.402
  629SOL    HW1 1933   0.814   1.642   4.325
  629SOL    HW2 1934   0.752   1.516   4.409
  630SOL     OW 1935   1.413   0.217   4.853
  630SOL    HW1 1936   1.494   0.172   4.891
  630SOL    HW2 1937   1.365   0.265   4.926
  631SOL     OW 1938   0.974   0.056   4.862
  631SOL    HW1 1939   0.920   6.993   4.806
  631SOL    HW2 1940   1.029   0.004   4.927
  632SOL     OW 1941   0.775   1.331   4.046
  632SOL    HW1 1942   0.748   1.235   4.055
  632SOL    HW2 1943   0.860   1.346   4.097
  633SOL     OW 1944   0.626   1.559   5.014
  633SOL    HW1 1945   0.623   1.645   5.064
  633SOL    HW2 1946   0.716   1.547   4.973
  634SOL     OW 1947   1.320   0.013   3.917
  634SOL    HW1 1948   1.367   6.943   3.863
  634SOL    HW2 1949   1.243   6.972   3.966
  635SOL     OW 1950   1.266   0.454   4.411
  635SOL    HW1 1951   1.222   0.544   4.408
  635SOL    HW2 1952   1.286   0.430   4.506
  636SOL     OW 1953   1.620   0.257   4.639
  636SOL    HW1 1954   1.532   0.239   4.682
  636SOL    HW2 1955   1.608   0.321   4.563
  637SOL     OW 1956   0.070   1.063   4.000
  637SOL    HW1 1957   0.163   1.027   4.000
  637SOL    HW2 1958   0.006   0.990   4.021
  638SOL     OW 1959   0.885   1.664   4.064
  638SOL    HW1 1960   0.811   1.643   4.001
  638SOL    HW2 1961   0.859   1.741   4.122
  639SOL     OW 1962   0.189   0.649   5.715
  639SOL    HW1 1963   0.170   0.580   5.785
  639SOL    HW2 1964   0.217   0.603   5.630
  640SOL     OW 1965   0.218   0.292   6.572
  640SOL    HW1 1966   0.280   0.247   6.636
  640SOL    HW2 1967   0.124   0.266   6.593
  641SOL     OW 1968   6.996   0.391   6.244
  641SOL    HW1 1969   6.940   0.406   6.326
  641SOL    HW2 1970   0.025   0.295   6.241
  642SOL     OW 1971   0.561   1.284   6.759
  642SOL    HW1 1972   0.473   1.304   6.715
  642SOL    HW2 1973   0.587   1.362   6.817
  643SOL     OW 1974   1.565   1.513   6.294
  643SOL    HW1 1975   1.520   1.490   6.380
  643SOL    HW2 1976   1.496   1.521   6.222
  644SOL     OW 1977   1.133   0.703   6.281
  644SOL    HW1 1978   1.185   0.787   6.265
  644SOL    HW2 1979   1.081   0.711   6.365
  645SOL     OW 1980   1.771   0.601   5.807
  645SOL    HW1 1981   1.748   0.598   5.709
  645SOL    HW2 1982   1.732   0.521   5.853
  646SOL     OW 1983   0.755   1.143   6.628
  646SOL    HW1 1984   0.682   1.170   6.691
  646SOL    HW2 1985   0.788   1.223   6.580
  647SOL     OW 1986   0.683   1.000   6.236
  647SOL    HW1 1987   0.755   0.989   6.305
  647SOL    HW2 1988   0.609   1.056   6.273
  648SOL     OW 1989   0.337   1.404   6.639
  648SOL    HW1 1990   0.255   1.370   6.592
  648SOL    HW2 1991   0.385   1.468   6.580
  649SOL     OW 1992   1.619   0.460   6.314
  649SOL    HW1 1993   1.559   0.488   6.238
  649SOL    HW2 1994   1.616   0.530   6.385
  650SOL     OW 1995   0.226   1.710   6.052
  650SOL    HW1 1996   0.241   1.789   6.111
  650SOL    HW2 1997   0.297   1.707   5.981
  651SOL     OW 1998   0.280   1.444   6.105
  651SOL    HW1 1999   0.255   1.540   6.111
  651SOL    HW2 2000   0.231   1.393   6.176
  652SOL     OW 2001   0.271   1.081   6.491
  652SOL    HW1 2002   0.269   0.985   6.521
  652SOL    HW2 2003   0.196   1.131   6.535
  653SOL     OW 2004   0.610   1.805   6.985
  653SOL    HW1 2005   0.517   1.785   0.013
  653SOL    HW2 2006   0.636   1.896   0.017
  654SOL     OW 2007   0.580   0.988   5.728
  654SOL    HW1 2008   0.628   1.035   5.654
  654SOL    HW2 2009   0.619   1.016   5.816
  655SOL     OW 2010   0.131   0.618   6.154
  655SOL    HW1 2011   0.070   0.544   6.180
  655SOL    HW2 2012   0.122   0.694   6.218
  656SOL     OW 2013   1.846   1.755   5.918
  656SOL    HW1 2014   1.917   1.725   5.982
  656SOL    HW2 2015   1.862   1.851   5.894
  657SOL     OW 2016   0.034   1.592   5.734
  657SOL    HW1 2017   0.025   1.493   5.748
  657SOL    HW2 2018   6.958   1.639   5.778
  658SOL     OW 2019   1.691   0.920   6.232
  658SOL    HW1 2020   1.775   0.869   6.215
  658SOL    HW2 2021   1.668   0.974   6.150
  659SOL     OW 2022   1.654   1.104   6.018
  659SOL    HW1 2023   1.743   1.100   5.972
  659SOL    HW2 2024   1.656   1.171   6.092
  660SOL     OW 2025   0.612   1.391   6.320
  660SOL    HW1 2026   0.564   1.304   6.334
  660SOL    HW2 2027   0.598   1.421   6.226
  661SOL     OW 2028   0.833   0.027   6.100
  661SOL    HW1 2029   0.873   0.117   6.082
  661SOL    HW2 2030   0.734   0.035   6.100
  662SOL     OW 2031   0.203   0.951   6.829
  662SOL    HW1 2032   0.292   0.906   6.822
  662SOL    HW2 2033   0.143   0.917   6.757
  663SOL     OW 2034   1.532   1.001   5.790
  663SOL    HW1 2035   1.458   0.941   5.820
  663SOL    HW2 2036   1.579   1.038   5.870
  664SOL     OW 2037   1.454   1.423   6.532
  664SOL    HW1 2038   1.396   1.437   6.612
  664SOL    HW2 2039   1.451   1.327   6.504
  665SOL     OW 2040   1.649   1.751   6.161
  665SOL    HW1 2041   1.631   1.722   6.068
  665SOL    HW2 2042   1.629   1.677   6.225
  666SOL     OW 2043   0.590   0.717   5.851
  666SOL    HW1 2044   0.600   0.805   5.805
  666SOL    HW2 2045   0.525   0.725   5.927
  667SOL     OW 2046   1.282   0.367   6.537
  667SOL    HW1 2047   1.185   0.342   6.537
  667SOL    HW2 2048   1.330   0.316   6.608
  668SOL     OW 2049   1.583   1.673   5.894
  668SOL    HW1 2050   1.679   1.700   5.890
  668SOL    HW2 2051   1.550   1.656   5.801
  669SOL     OW 2052   0.793   0.627   0.040
  669SOL    HW1 2053   0.733   0.655   0.115
  669SOL    HW2 2054   0.743   0.564   6.980
  670SOL     OW 2055   1.006   0.392   6.793
  670SOL    HW1 2056   0.962   0.449   6.861
  670SOL    HW2 2057   0.937   0.353   6.732
  671SOL     OW 2058   1.051   0.698   6.011
  671SOL    HW1 2059   1.073   0.694   6.108
  671SOL    HW2 2060   0.964   0.652   5.994
  672SOL     OW 2061   0.103   0.815   6.360
  672SOL    HW1 2062   0.197   0.808   6.395
  672SOL    HW2 2063   0.042   0.846   6.433
  673SOL     OW 2064   0.109   1.834   0.174
  673SOL    HW1 2065   0.100   1.800   0.268
  673SOL    HW2 2066   0.017   1.852   0.137
  674SOL     OW 2067   0.889   0.356   5.787
  674SOL    HW1 2068   0.936   0.417   5.722
  674SOL    HW2 2069   0.864   0.271   5.741
  675SOL     OW 2070   1.380   1.143   6.119
  675SOL    HW1 2071   1.465   1.128   6.068
  675SOL    HW2 2072   1.324   1.210   6.071
  676SOL     OW 2073   0.505   0.202   6.499
  676SOL    HW1 2074   0.558   0.239   6.576
  676SOL    HW2 2075   0.523   0.257   6.417
  677SOL     OW 2076   0.994   1.443   6.049
  677SOL    HW1 2077   0.964   1.524   5.998
  677SOL    HW2 2078   0.976   1.456   6.147
  678SOL     OW 2079   0.357   1.819   6.451
  678SOL    HW1 2080   0.396   1.729   6.466
  678SOL    HW2 2081   0.425   1.889   6.474
  679SOL     OW 2082   1.803   1.057   6.450
  679SOL    HW1 2083   1.753   1.032   6.367
  679SOL    HW2 2084   1.741   1.056   6.529
  680SOL     OW 2085   0.317   0.945   5.837
  680SOL    HW1 2086   0.404   0.970   5.795
  680SOL    HW2 2087   0.288   0.856   5.803
  681SOL     OW 2088   1.483   0.751   6.307
  681SOL    HW1 2089   1.476   0.706   6.396
  681SOL    HW2 2090   1.563   0.811   6.306
  682SOL     OW 2091   1.122   1.776   5.812
  682SOL    HW1 2092   1.042   1.739   5.860
  682SOL    HW2 2093   1.151   1.711   5.741
  683SOL     OW 2094   1.624   1.382   5.675
  683SOL    HW1 2095   1.586   1.473   5.659
  683SOL    HW2 2096   1.555   1.313   5.656
  684SOL     OW 2097   0.468   1.734   5.902
  684SOL    HW1 2098   0.509   1.795   5.970
  684SOL    HW2 2099   0.540   1.698   5.843
  685SOL     OW 2100   1.425   0.133   6.009
  685SOL    HW1 2101   1.405   0.089   5.922
  685SOL    HW2 2102   1.525   0.139   6.021
  686SOL     OW 2103   0.254   1.809   6.777
  686SOL    HW1 2104   0.306   1.734   6.818
  686SOL    HW2 2105   0.187   1.772   6.712
  687SOL     OW 2106   0.936   1.701   6.480
  687SOL    HW1 2107   1.020   1.655   6.510
  687SOL    HW2 2108   0.894   1.649   6.406
  688SOL     OW 2109   0.400   0.687   6.056
  688SOL    HW1 2110   0.427   0.592   6.073
  688SOL    HW2 2111   0.303   0.699   6.079
  689SOL     OW 2112   0.646   0.109   5.689
  689SOL    HW1 2113   0.685   0.035   5.743
  689SOL    HW2 2114   0.584   0.072   5.620
  690SOL     OW 2115   0.875   1.516   6.760
  690SOL    HW1 2116   0.853   1.482   6.668
  690SOL    HW2 2117   0.913   1.442   6.815
  691SOL     OW 2118   0.819   1.387   6.520
  691SOL    HW1 2119   0.909   1.377   6.477
  691SOL    HW2 2120   0.749   1.394   6.449
  692SOL     OW 2121   0.929   0.510   6.482
  692SOL    HW1 2122   0.900   0.505   6.386
  692SOL    HW2 2123   0.966   0.422   6.510
  693SOL     OW 2124   0.569   0.064   6.069
  693SOL    HW1 2125   0.493   0.055   6.134
  693SOL    HW2 2126   0.552   0.140   6.007
  694SOL     OW 2127   1.425   1.199   5.629
  694SOL    HW1 2128   1.459   1.122   5.682
  694SOL    HW2 2129   1.337   1.229   5.664
  695SOL     OW 2130   0.308   0.045   5.783
  695SOL    HW1 2131   0.336   0.140   5.771
  695SOL    HW2 2132   0.372   6.998   5.844
  696SOL     OW 2133   0.952   0.268   6.042
  696SOL    HW1 2134   0.922   0.303   5.953
  696SOL    HW2 2135   1.051   0.277   6.049
  697SOL     OW 2136   1.219   1.570   6.380
  697SOL    HW1 2137   1.232   1.641   6.311
  697SOL    HW2 2138   1.296   1.570   6.444
  698SOL     OW 2139   0.468   1.151   6.317
  698SOL    HW1 2140   0.403   1.129   6.390
  698SOL    HW2 2141   0.425   1.138   6.228
  699SOL     OW 2142   1.261   1.791   6.197
  699SOL    HW1 2143   1.313   1.854   6.139
  699SOL    HW2 2144   1.187   1.841   6.241
  700SOL     OW 2145   1.017   0.536   5.620
  700SOL    HW1 2146   0.974   0.623   5.596
  700SOL    HW2 2147   1.089   0.552   5.688
  701SOL     OW 2148   0.593   0.217   6.769
  701SOL    HW1 2149   0.613   0.122   6.744
  701SOL    HW2 2150   0.496   0.226   6.792
  702SOL     OW 2151   0.864   0.466   6.221
  702SOL    HW1 2152   0.813   0.525   6.159
  702SOL    HW2 2153   0.894   0.384   6.173
  703SOL     OW 2154   0.957   0.029   6.350
  703SOL    HW1 2155   0.904   0.026   6.265
  703SOL    HW2 2156   1.028   6.959   6.347
  704SOL     OW 2157   1.440   1.160   6.442
  704SOL    HW1 2158   1.370   1.089   6.445
  704SOL    HW2 2159   1.470   1.173   6.347
  705SOL     OW 2160   1.465   0.606   6.549
  705SOL    HW1 2161   1.404   0.528   6.555
  705SOL    HW2 2162   1.530   0.604   6.625
  706SOL     OW 2163   1.841   0.809   5.966
  706SOL    HW1 2164   1.900   0.761   6.032
  706SOL    HW2 2165   1.813   0.745   5.895
  707SOL     OW 2166   0.496   1.421   5.738
  707SOL    HW1 2167   0.415   1.396   5.790
  707SOL    HW2 2168   0.486   1.391   5.644
  708SOL     OW 2169   1.676   1.268   6.227
  708SOL    HW1 2170   1.775   1.265   6.241
  708SOL    HW2 2171   1.642   1.359   6.249
  709SOL     OW 2172   1.391   0.576   5.657
  709SOL    HW1 2173   1.327   0.552   5.731
  709SOL    HW2 2174   1.485   0.562   5.689
  710SOL     OW 2175   0.524   0.261   5.886
  710SOL    HW1 2176   0.580   0.210   5.820
  710SOL    HW2 2177   0.502   0.351   5.848
  711SOL     OW 2178   1.752   1.195   0.182
  711SOL    HW1 2179   1.850   1.175   0.184
  711SOL    HW2 2180   1.738   1.290   0.154
  712SOL     OW 2181   1.118   1.240   6.694
  712SOL    HW1 2182   1.035   1.194   6.727
  712SOL    HW2 2183   1.105   1.265   6.598
  713SOL     OW 2184   1.620   1.078   6.646
  713SOL    HW1 2185   1.622   1.147   6.718
  713SOL    HW2 2186   1.546   1.097   6.583
  714SOL     OW 2187   0.711   1.057   5.960
  714SOL    HW1 2188   0.696   1.041   6.058
  714SOL    HW2 2189   0.791   1.004   5.930
  715SOL     OW 2190   0.439   0.808   6.847
  715SOL    HW1 2191   0.491   0.835   6.928
  715SOL    HW2 2192   0.398   0.718   6.861
  716SOL     OW 2193   1.264   0.383   6.873
  716SOL    HW1 2194   1.295   0.460   6.928
  716SOL    HW2 2195   1.173   0.400   6.837
  717SOL     OW 2196   0.083   1.568   6.858
  717SOL    HW1 2197   0.037   1.599   6.941
  717SOL    HW2 2198   0.182   1.575   6.872
  718SOL     OW 2199   0.339   1.117   6.077
  718SOL    HW1 2200   0.349   1.197   6.018
  718SOL    HW2 2201   0.338   1.034   6.022
  719SOL     OW 2202   0.549   0.548   6.449
  719SOL    HW1 2203   0.563   0.607   6.369
  719SOL    HW2 2204   0.619   0.567   6.517
  720SOL     OW 2205   1.246   1.355   5.979
  720SOL    HW1 2206   1.307   1.427   6.010
  720SOL    HW2 2207   1.152   1.375   6.009
  721SOL     OW 2208   1.284   1.450   6.747
  721SOL    HW1 2209   1.317   1.441   6.841
  721SOL    HW2 2210   1.221   1.375   6.727
  722SOL     OW 2211   1.571   0.623   6.070
  722SOL    HW1 2212   1.523   0.675   6.141
  722SOL    HW2 2213   1.623   0.685   6.012
  723SOL     OW 2214   0.364   1.572   6.849
  723SOL    HW1 2215   0.343   1.501   6.781
  723SOL    HW2 2216   0.460   1.567   6.873
  724SOL     OW 2217   0.588   0.871   6.622
  724SOL    HW1 2218   0.620   0.966   6.618
  724SOL    HW2 2219   0.533   0.857   6.704
  725SOL     OW 2220   1.344   0.856   6.592
  725SOL    HW1 2221   1.253   0.839   6.555
  725SOL    HW2 2222   1.398   0.772   6.589
  726SOL     OW 2223   1.197   0.527   5.849
  726SOL    HW1 2224   1.211   0.445   5.904
  726SOL    HW2 2225   1.153   0.597   5.905
  727SOL     OW 2226   0.331   0.209   6.828
  727SOL    HW1 2227   0.273   0.216   6.910
  727SOL    HW2 2228   0.319   0.119   6.787
  728SOL     OW 2229   0.054   1.298   6.831
  728SOL    HW1 2230   0.087   1.233   6.901
  728SOL    HW2 2231   0.086   1.390   6.854
  729SOL     OW 2232   0.726   0.627   6.640
  729SOL    HW1 2233   0.805   0.607   6.581
  729SOL    HW2 2234   0.696   0.721   6.624
  730SOL     OW 2235   0.352   0.063   6.222
  730SOL    HW1 2236   0.311   0.147   6.257
  730SOL    HW2 2237   0.294   6.985   6.245
  731SOL     OW 2238   1.627   0.395   5.928
  731SOL    HW1 2239   1.656   0.316   5.983
  731SOL    HW2 2240   1.595   0.468   5.988
  732SOL     OW 2241   1.023   0.757   6.550
  732SOL    HW1 2242   1.015   0.777   6.647
  732SOL    HW2 2243   0.997   0.662   6.533
  733SOL     OW 2244   1.921   1.474   0.195
  733SOL    HW1 2245   1.901   1.507   0.102
  733SOL    HW2 2246   1.919   1.551   0.258
  734SOL     OW 2247   1.539   0.233   5.721
  734SOL    HW1 2248   1.439   0.232   5.728
  734SOL    HW2 2249   1.577   0.292   5.792
  735SOL     OW 2250   1.287   0.826   5.611
  735SOL    HW1 2251   1.328   0.735   5.619
  735SOL    HW2 2252   1.319   0.869   5.526
  736SOL     OW 2253   1.073   1.338   6.438
  736SOL    HW1 2254   1.077   1.260   6.376
  736SOL    HW2 2255   1.130   1.412   6.403
  737SOL     OW 2256   0.323   0.803   6.530
  737SOL    HW1 2257   0.419   0.829   6.530
  737SOL    HW2 2258   0.313   0.709   6.563
  738SOL     OW 2259   0.332   0.530   6.603
  738SOL    HW1 2260   0.289   0.442   6.586
  738SOL    HW2 2261   0.413   0.539   6.544
  739SOL     OW 2262   1.135   0.220   0.067
  739SOL    HW1 2263   1.156   0.287   0.138
  739SOL    HW2 2264   1.166   0.255   6.979
  740SOL     OW 2265   6.992   1.322   5.806
  740SOL    HW1 2266   6.919   1.347   5.870
  740SOL    HW2 2267   0.020   1.227   5.823
  741SOL     OW 2268   0.098   1.757   6.534
  741SOL    HW1 2269   0.078   1.682   6.470
  741SOL    HW2 2270   0.185   1.799   6.510
  742SOL     OW 2271   0.493   1.578   6.491
  742SOL    HW1 2272   0.562   1.644   6.519
  742SOL    HW2 2273   0.534   1.511   6.429
  743SOL     OW 2274   0.976   0.794   6.822
  743SOL    HW1 2275   1.057   0.781   6.879
  743SOL    HW2 2276   0.898   0.749   6.864
  744SOL     OW 2277   0.066   0.613   6.699
  744SOL    HW1 2278   0.122   0.567   6.630
  744SOL    HW2 2279   0.100   0.590   6.791
  745SOL     OW 2280   0.816   0.577   5.946
  745SOL    HW1 2281   0.828   0.496   5.889
  745SOL    HW2 2282   0.737   0.629   5.914
  746SOL     OW 2283   1.648   0.611   6.750
  746SOL    HW1 2284   1.634   0.554   6.831
  746SOL    HW2 2285   1.742   0.602   6.719
  747SOL     OW 2286   0.676   0.468   6.853
  747SOL    HW1 2287   0.650   0.376   6.823
  747SOL    HW2 2288   0.688   0.527   6.773
  748SOL     OW 2289   0.943   1.662   6.995
  748SOL    HW1 2290   0.913   1.649   6.901
  748SOL    HW2 2291   0.924   1.755   0.025
  749SOL     OW 2292   0.454   0.491   5.761
  749SOL    HW1 2293   0.518   0.567   5.777
  749SOL    HW2 2294   0.366   0.511   5.804
  750SOL     OW 2295   0.162   1.124   0.027
  750SOL    HW1 2296   0.182   1.076   0.112
  750SOL    HW2 2297   0.177   1.062   6.949
  751SOL     OW 2298   1.281   1.002   6.813
  751SOL    HW1 2299   1.319   0.952   6.735
  751SOL    HW2 2300   1.260   1.096   6.785
  752SOL     OW 2301   1.316   0.856   5.884
  752SOL    HW1 2302   1.240   0.829   5.943
  752SOL    HW2 2303   1.290   0.844   5.788
  753SOL     OW 2304   1.785   1.745   6.743
  753SOL    HW1 2305   1.847   1.770   6.668
  753SOL    HW2 2306   1.745   1.656   6.725
  754SOL     OW 2307   1.246   1.724   6.698
  754SOL    HW1 2308   1.330   1.754   6.652
  754SOL    HW2 2309   1.252   1.627   6.719
  755SOL     OW 2310   0.060   1.240   6.572
  755SOL    HW1 2311   0.068   1.261   6.670
  755SOL    HW2 2312   6.964   1.229   6.547
  756SOL     OW 2313   1.705   0.168   6.055
  756SOL    HW1 2314   1.790   0.149   6.005
  756SOL    HW2 2315   1.701   0.110   6.136
  757SOL     OW 2316   1.396   1.571   6.075
  757SOL    HW1 2317   1.458   1.603   6.003
  757SOL    HW2 2318   1.340   1.647   6.107
  758SOL     OW 2319   1.282   0.929   6.252
  758SOL    HW1 2320   1.357   0.865   6.269
  758SOL    HW2 2321   1.315   1.005   6.197
  759SOL     OW 2322   0.673   1.624   5.740
  759SOL    HW1 2323   0.688   1.643   5.643
  759SOL    HW2 2324   0.616   1.543   5.749
  760SOL     OW 2325   1.866   0.162   6.537
  760SOL    HW1 2326   1.863   0.062   6.533
  760SOL    HW2 2327   1.774   0.199   6.520
  761SOL     OW 2328   0.286   0.336   6.305
  761SOL    HW1 2329   0.199   0.374   6.274
  761SOL    HW2 2330   0.280   0.312   6.402
  762SOL     OW 2331   1.209   1.600   5.619
  762SOL    HW1 2332   1.199   1.506   5.652
  762SOL    HW2 2333   1.141   1.617   5.547
  763SOL     OW 2334   0.774   1.025   6.954
  763SOL    HW1 2335   0.833   0.979   6.887
  763SOL    HW2 2336   0.822   1.105   6.991
  764SOL     OW 2337   0.919   0.910   5.873
  764SOL    HW1 2338   0.980   0.946   5.802
  764SOL    HW2 2339   0.967   0.839   5.925
  765SOL     OW 2340   1.488   1.631   5.628
  765SOL    HW1 2341   1.389   1.619   5.617
  765SOL    HW2 2342   1.532   1.636   5.539
  766SOL     OW 2343   1.618   1.268   6.832
  766SOL    HW1 2344   1.703   1.282   6.883
  766SOL    HW2 2345   1.543   1.252   6.896
  767SOL     OW 2346   1.063   1.106   6.301
  767SOL    HW1 2347   0.986   1.056   6.340
  767SOL    HW2 2348   1.132   1.041   6.268
  768SOL     OW 2349   1.026   0.246   6.522
  768SOL    HW1 2350   0.999   0.193   6.442
  768SOL    HW2 2351   1.024   0.187   6.603
  769SOL     OW 2352   0.608   1.487   6.067
  769SOL    HW1 2353   0.659   1.433   5.999
  769SOL    HW2 2354   0.528   1.529   6.023
  770SOL     OW 2355   1.700   0.432   6.948
  770SOL    HW1 2356   1.761   0.441   0.027
  770SOL    HW2 2357   1.716   0.343   6.904
  771SOL     OW 2358   0.257   1.351   5.860
  771SOL    HW1 2359   0.158   1.350   5.843
  771SOL    HW2 2360   0.276   1.388   5.951
  772SOL     OW 2361   0.081   0.314   5.637
  772SOL    HW1 2362   6.989   0.275   5.630
  772SOL    HW2 2363   0.081   0.405   5.595
  773SOL     OW 2364   0.037   0.185   5.909
  773SOL    HW1 2365   0.063   0.256   5.844
  773SOL    HW2 2366   0.071   0.096   5.876
  774SOL     OW 2367   1.180   1.337   5.706
  774SOL    HW1 2368   1.083   1.310   5.699
  774SOL    HW2 2369   1.207   1.338   5.803
  775SOL     OW 2370   1.487   1.785   6.576
  775SOL    HW1 2371   1.502   1.850   6.502
  775SOL    HW2 2372   1.576   1.756   6.613
  776SOL     OW 2373   1.495   1.299   0.284
  776SOL    HW1 2374   1.409   1.255   0.308
  776SOL    HW2 2375   1.565   1.229   0.269
  777SOL     OW 2376   0.375   1.764   0.102
  777SOL    HW1 2377   0.286   1.811   0.102
  777SOL    HW2 2378   0.401   1.745   0.196
  778SOL     OW 2379   1.701   0.877   6.829
  778SOL    HW1 2380   1.669   0.786   6.801
  778SOL    HW2 2381   1.666   0.945   6.765
  779SOL     OW 2382   1.226   0.320   6.041
  779SOL    HW1 2383   1.295   0.248   6.034
  779SOL    HW2 2384   1.244   0.376   6.122
  780SOL     OW 2385   0.587   0.739   6.254
  780SOL    HW1 2386   0.628   0.829   6.245
  780SOL    HW2 2387   0.519   0.725   6.182
  781SOL     OW 2388   1.770   0.910   0.094
  781SOL    HW1 2389   1.759   1.007   0.118
  781SOL    HW2 2390   1.744   0.897   6.998
  782SOL     OW 2391   0.871   1.363   5.633
  782SOL    HW1 2392   0.826   1.387   5.719
  782SOL    HW2 2393   0.882   1.445   5.577
  783SOL     OW 2394   0.668   1.784   6.532
  783SOL    HW1 2395   0.644   1.877   6.506
  783SOL    HW2 2396   0.766   1.770   6.518
  784SOL     OW 2397   0.870   0.971   6.442
  784SOL    HW1 2398   0.919   0.892   6.480
  784SOL    HW2 2399   0.828   1.023   6.517
  785SOL     OW 2400   1.076   0.987   5.669
  785SOL    HW1 2401   1.049   1.043   5.590
  785SOL    HW2 2402   1.154   0.930   5.645
  786SOL     OW 2403   1.848   1.556   6.432
  786SOL    HW1 2404   1.769   1.544   6.371
  786SOL    HW2 2405   1.849   1.484   6.501
  787SOL     OW 2406   0.155   1.274   6.278
  787SOL    HW1 2407   0.112   1.230   6.356
  787SOL    HW2 2408   0.196   1.205   6.219
  788SOL     OW 2409   1.848   0.190   6.848
  788SOL    HW1 2410   1.775   0.122   6.861
  788SOL    HW2 2411   1.859   0.208   6.750
  789SOL     OW 2412   0.454   0.432   6.110
  789SOL    HW1 2413   0.489   0.356   6.055
  789SOL    HW2 2414   0.405   0.397   6.189
  790SOL     OW 2415   1.676   1.503   6.683
  790SOL    HW1 2416   1.603   1.484   6.618
  790SOL    HW2 2417   1.685   1.427   6.747
  791SOL     OW 2418   0.326   0.556   6.880
  791SOL    HW1 2419   0.390   0.496   6.929
  791SOL    HW2 2420   0.333   0.538   6.782
  792SOL     OW 2421   0.829   1.579   6.262
  792SOL    HW1 2422   0.816   1.643   6.186
  792SOL    HW2 2423   0.752   1.516   6.267
  793SOL     OW 2424   1.411   0.215   6.719
  793SOL    HW1 2425   1.499   0.180   6.753
  793SOL    HW2 2426   1.367   0.269   6.791
  794SOL     OW 2427   0.995   0.053   6.711
  794SOL    HW1 2428   0.913   6.999   6.692
  794SOL    HW2 2429   1.037   0.020   6.796
  795SOL     OW 2430   0.775   1.331   5.908
  795SOL    HW1 2431   0.748   1.235   5.917
  795SOL    HW2 2432   0.860   1.346   5.959
  796SOL     OW 2433   0.634   1.561   6.874
  796SOL    HW1 2434   0.629   1.657   6.901
  796SOL    HW2 2435   0.719   1.544   6.824
  797SOL     OW 2436   1.320   0.013   5.778
  797SOL    HW1 2437   1.366   6.943   5.724
  797SOL    HW2 2438   1.244   6.973   5.828
  798SOL     OW 2439   1.267   0.454   6.274
  798SOL    HW1 2440   1.222   0.543   6.272
  798SOL    HW2 2441   1.286   0.429   6.369
  799SOL     OW 2442   1.618   0.259   6.497
  799SOL    HW1 2443   1.527   0.240   6.535
  799SOL    HW2 2444   1.609   0.324   6.421
  800SOL     OW 2445   0.070   1.063   5.862
  800SOL    HW1 2446   0.163   1.027   5.862
  800SOL    HW2 2447   0.006   0.990   5.883
  801SOL     OW 2448   0.885   1.664   5.926
  801SOL    HW1 2449   0.811   1.643   5.862
  801SOL    HW2 2450   0.859   1.741   5.984
  802SOL     OW 2451   0.231   2.513   0.129
  802SOL    HW1 2452   0.155   2.461   0.167
  802SOL    HW2 2453   0.250   2.481   0.036
  803SOL     OW 2454   0.230   2.134   0.989
  803SOL    HW1 2455   0.282   2.100   1.068
  803SOL    HW2 2456   0.133   2.118   1.004
  804SOL     OW 2457   6.987   2.249   0.657
  804SOL    HW1 2458   6.939   2.246   0.745
  804SOL    HW2 2459   0.004   2.155   0.626
  805SOL     OW 2460   0.570   3.160   1.188
  805SOL    HW1 2461   0.480   3.157   1.144
  805SOL    HW2 2462   0.588   3.253   1.222
  806SOL     OW 2463   1.564   3.377   0.707
  806SOL    HW1 2464   1.523   3.351   0.794
  806SOL    HW2 2465   1.494   3.381   0.636
  807SOL     OW 2466   1.132   2.564   0.695
  807SOL    HW1 2467   1.185   2.647   0.679
  807SOL    HW2 2468   1.082   2.573   0.781
  808SOL     OW 2469   1.787   2.437   0.194
  808SOL    HW1 2470   1.721   2.493   0.144
  808SOL    HW2 2471   1.739   2.378   0.259
  809SOL     OW 2472   0.742   3.002   1.041
  809SOL    HW1 2473   0.674   3.037   1.106
  809SOL    HW2 2474   0.787   3.079   0.996
  810SOL     OW 2475   0.874   2.625   1.821
  810SOL    HW1 2476   0.865   2.693   1.893
  810SOL    HW2 2477   0.898   2.671   1.735
  811SOL     OW 2478   0.682   2.859   0.651
  811SOL    HW1 2479   0.754   2.851   0.720
  811SOL    HW2 2480   0.608   2.916   0.688
  812SOL     OW 2481   0.713   3.014   1.820
  812SOL    HW1 2482   0.765   3.093   1.854
  812SOL    HW2 2483   0.629   3.047   1.776
  813SOL     OW 2484   0.334   3.282   1.065
  813SOL    HW1 2485   0.256   3.240   1.017
  813SOL    HW2 2486   0.384   3.339   1.001
  814SOL     OW 2487   1.457   3.364   1.359
  814SOL    HW1 2488   1.515   3.445   1.366
  814SOL    HW2 2489   1.386   3.368   1.429
  815SOL     OW 2490   0.443   2.255   1.491
  815SOL    HW1 2491   0.526   2.199   1.494
  815SOL    HW2 2492   0.362   2.196   1.500
  816SOL     OW 2493   1.610   2.309   0.745
  816SOL    HW1 2494   1.533   2.327   0.684
  816SOL    HW2 2495   1.616   2.383   0.812
  817SOL     OW 2496   0.197   3.617   0.463
  817SOL    HW1 2497   0.239   3.680   0.528
  817SOL    HW2 2498   0.268   3.568   0.412
  818SOL     OW 2499   1.138   3.202   1.698
  818SOL    HW1 2500   1.184   3.200   1.786
  818SOL    HW2 2501   1.081   3.120   1.688
  819SOL     OW 2502   0.269   3.329   0.541
  819SOL    HW1 2503   0.241   3.421   0.568
  819SOL    HW2 2504   0.228   3.263   0.604
  820SOL     OW 2505   0.274   2.945   0.910
  820SOL    HW1 2506   0.268   2.849   0.937
  820SOL    HW2 2507   0.200   2.996   0.953
  821SOL     OW 2508   0.600   3.659   1.426
  821SOL    HW1 2509   0.515   3.636   1.473
  821SOL    HW2 2510   0.630   3.750   1.455
  822SOL     OW 2511   0.586   2.829   0.148
  822SOL    HW1 2512   0.643   2.851   0.069
  822SOL    HW2 2513   0.622   2.875   0.229
  823SOL     OW 2514   1.597   1.987   1.469
  823SOL    HW1 2515   1.618   2.067   1.413
  823SOL    HW2 2516   1.581   2.016   1.563
  824SOL     OW 2517   0.129   2.481   0.572
  824SOL    HW1 2518   0.062   2.410   0.597
  824SOL    HW2 2519   0.121   2.557   0.636
  825SOL     OW 2520   1.848   3.623   0.343
  825SOL    HW1 2521   1.917   3.591   0.408
  825SOL    HW2 2522   1.845   3.722   0.344
  826SOL     OW 2523   6.973   3.413   0.121
  826SOL    HW1 2524   6.966   3.317   0.149
  826SOL    HW2 2525   0.028   3.463   0.188
  827SOL     OW 2526   1.692   2.779   0.649
  827SOL    HW1 2527   1.775   2.727   0.629
  827SOL    HW2 2528   1.669   2.836   0.570
  828SOL     OW 2529   1.654   2.962   0.444
  828SOL    HW1 2530   1.725   2.979   0.376
  828SOL    HW2 2531   1.660   3.029   0.517
  829SOL     OW 2532   0.148   2.593   1.579
  829SOL    HW1 2533   0.247   2.600   1.563
  829SOL    HW2 2534   0.113   2.681   1.612
  830SOL     OW 2535   0.612   3.251   0.737
  830SOL    HW1 2536   0.565   3.164   0.750
  830SOL    HW2 2537   0.602   3.280   0.642
  831SOL     OW 2538   1.287   3.096   1.421
  831SOL    HW1 2539   1.314   3.026   1.356
  831SOL    HW2 2540   1.348   3.092   1.501
  832SOL     OW 2541   0.821   1.876   0.514
  832SOL    HW1 2542   0.867   1.961   0.490
  832SOL    HW2 2543   0.723   1.891   0.521
  833SOL     OW 2544   0.204   2.823   1.262
  833SOL    HW1 2545   0.287   2.770   1.246
  833SOL    HW2 2546   0.133   2.794   1.198
  834SOL     OW 2547   1.488   2.880   0.210
  834SOL    HW1 2548   1.421   2.814   0.245
  834SOL    HW2 2549   1.573   2.873   0.262
  835SOL     OW 2550   1.182   3.675   1.623
  835SOL    HW1 2551   1.189   3.743   1.550
  835SOL    HW2 2552   1.202   3.584   1.585
  836SOL     OW 2553   0.356   2.113   1.836
  836SOL    HW1 2554   0.403   2.196   1.865
  836SOL    HW2 2555   0.258   2.122   1.855
  837SOL     OW 2556   1.464   3.283   0.946
  837SOL    HW1 2557   1.398   3.302   1.018
  837SOL    HW2 2558   1.457   3.187   0.918
  838SOL     OW 2559   1.648   3.613   0.580
  838SOL    HW1 2560   1.625   3.587   0.486
  838SOL    HW2 2561   1.627   3.538   0.642
  839SOL     OW 2562   0.600   2.580   0.266
  839SOL    HW1 2563   0.605   2.670   0.223
  839SOL    HW2 2564   0.535   2.582   0.341
  840SOL     OW 2565   1.277   2.222   0.933
  840SOL    HW1 2566   1.183   2.187   0.940
  840SOL    HW2 2567   1.337   2.170   0.994
  841SOL     OW 2568   1.582   3.541   0.318
  841SOL    HW1 2569   1.681   3.555   0.312
  841SOL    HW2 2570   1.543   3.539   0.226
  842SOL     OW 2571   0.789   2.474   1.450
  842SOL    HW1 2572   0.764   2.450   1.543
  842SOL    HW2 2573   0.753   2.406   1.386
  843SOL     OW 2574   1.391   2.332   1.679
  843SOL    HW1 2575   1.392   2.381   1.766
  843SOL    HW2 2576   1.451   2.252   1.686
  844SOL     OW 2577   0.952   2.746   1.583
  844SOL    HW1 2578   1.010   2.675   1.545
  844SOL    HW2 2579   0.899   2.789   1.510
  845SOL     OW 2580   0.994   2.267   1.228
  845SOL    HW1 2581   0.904   2.289   1.265
  845SOL    HW2 2582   0.984   2.218   1.142
  846SOL     OW 2583   1.052   2.562   0.428
  846SOL    HW1 2584   1.075   2.560   0.525
  846SOL    HW2 2585   0.965   2.514   0.413
  847SOL     OW 2586   0.104   2.677   0.774
  847SOL    HW1 2587   0.196   2.669   0.813
  847SOL    HW2 2588   0.042   2.712   0.844
  848SOL     OW 2589   0.119   3.733   1.592
  848SOL    HW1 2590   0.131   3.707   1.688
  848SOL    HW2 2591   0.028   3.706   1.562
  849SOL     OW 2592   0.890   2.206   0.208
  849SOL    HW1 2593   0.940   2.266   0.146
  849SOL    HW2 2594   0.905   2.110   0.183
  850SOL     OW 2595   1.700   2.434   1.826
  850SOL    HW1 2596   1.665   2.514   1.776
  850SOL    HW2 2597   1.730   2.364   1.762
  851SOL     OW 2598   1.382   3.004   0.548
  851SOL    HW1 2599   1.467   2.993   0.496
  851SOL    HW2 2600   1.324   3.072   0.503
  852SOL     OW 2601   0.552   2.039   0.901
  852SOL    HW1 2602   0.557   2.064   0.998
  852SOL    HW2 2603   0.559   2.122   0.845
  853SOL     OW 2604   0.988   3.301   0.471
  853SOL    HW1 2605   0.959   3.383   0.421
  853SOL    HW2 2606   0.970   3.313   0.568
  854SOL     OW 2607   0.358   3.680   0.868
  854SOL    HW1 2608   0.397   3.588   0.879
  854SOL    HW2 2609   0.427   3.748   0.892
  855SOL     OW 2610   1.800   2.915   0.874
  855SOL    HW1 2611   1.749   2.894   0.791
  855SOL    HW2 2612   1.736   2.922   0.951
  856SOL     OW 2613   1.226   3.398   1.514
  856SOL    HW1 2614   1.214   3.324   1.580
  856SOL    HW2 2615   1.157   3.390   1.442
  857SOL     OW 2616   0.310   2.799   0.226
  857SOL    HW1 2617   0.402   2.822   0.192
  857SOL    HW2 2618   0.287   2.706   0.199
  858SOL     OW 2619   1.485   2.609   0.722
  858SOL    HW1 2620   1.480   2.568   0.813
  858SOL    HW2 2621   1.564   2.670   0.716
  859SOL     OW 2622   0.473   3.124   1.728
  859SOL    HW1 2623   0.446   3.134   1.632
  859SOL    HW2 2624   0.391   3.124   1.786
  860SOL     OW 2625   1.119   3.629   0.235
  860SOL    HW1 2626   1.049   3.584   0.292
  860SOL    HW2 2627   1.157   3.563   0.171
  861SOL     OW 2628   0.195   2.128   1.489
  861SOL    HW1 2629   0.113   2.182   1.474
  861SOL    HW2 2630   0.171   2.043   1.536
  862SOL     OW 2631   1.623   3.291   0.075
  862SOL    HW1 2632   1.586   3.384   0.085
  862SOL    HW2 2633   1.561   3.225   0.116
  863SOL     OW 2634   0.481   3.575   0.352
  863SOL    HW1 2635   0.513   3.649   0.411
  863SOL    HW2 2636   0.558   3.540   0.298
  864SOL     OW 2637   1.405   1.968   0.445
  864SOL    HW1 2638   1.397   1.939   0.349
  864SOL    HW2 2639   1.502   1.978   0.468
  865SOL     OW 2640   0.258   3.655   1.221
  865SOL    HW1 2641   0.309   3.581   1.265
  865SOL    HW2 2642   0.211   3.621   1.140
  866SOL     OW 2643   0.936   3.565   0.897
  866SOL    HW1 2644   1.019   3.518   0.927
  866SOL    HW2 2645   0.894   3.512   0.823
  867SOL     OW 2646   0.403   2.548   0.468
  867SOL    HW1 2647   0.423   2.452   0.487
  867SOL    HW2 2648   0.307   2.567   0.488
  868SOL     OW 2649   1.527   2.085   1.728
  868SOL    HW1 2650   1.538   2.105   1.825
  868SOL    HW2 2651   1.454   2.016   1.716
  869SOL     OW 2652   0.763   2.139   1.757
  869SOL    HW1 2653   0.848   2.087   1.750
  869SOL    HW2 2654   0.711   2.107   1.837
  870SOL     OW 2655   0.876   3.378   1.192
  870SOL    HW1 2656   0.856   3.340   1.101
  870SOL    HW2 2657   0.948   3.323   1.235
  871SOL     OW 2658   1.339   2.451   1.436
  871SOL    HW1 2659   1.369   2.416   1.524
  871SOL    HW2 2660   1.375   2.543   1.422
  872SOL     OW 2661   0.820   3.250   0.943
  872SOL    HW1 2662   0.910   3.239   0.900
  872SOL    HW2 2663   0.750   3.256   0.872
  873SOL     OW 2664   0.927   2.368   0.898
  873SOL    HW1 2665   0.900   2.360   0.802
  873SOL    HW2 2666   0.960   2.279   0.931
  874SOL     OW 2667   0.552   1.930   0.501
  874SOL    HW1 2668   0.471   1.929   0.560
  874SOL    HW2 2669   0.546   2.005   0.436
  875SOL     OW 2670   1.417   3.075   0.013
  875SOL    HW1 2671   1.447   2.995   0.066
  875SOL    HW2 2672   1.334   3.112   0.054
  876SOL     OW 2673   0.950   2.113   0.462
  876SOL    HW1 2674   0.918   2.153   0.376
  876SOL    HW2 2675   1.049   2.127   0.470
  877SOL     OW 2676   1.080   2.545   1.454
  877SOL    HW1 2677   1.005   2.478   1.460
  877SOL    HW2 2678   1.167   2.498   1.451
  878SOL     OW 2679   1.218   3.432   0.795
  878SOL    HW1 2680   1.233   3.500   0.724
  878SOL    HW2 2681   1.291   3.438   0.863
  879SOL     OW 2682   0.469   3.014   0.734
  879SOL    HW1 2683   0.402   2.993   0.805
  879SOL    HW2 2684   0.429   2.998   0.644
  880SOL     OW 2685   1.262   3.654   0.610
  880SOL    HW1 2686   1.316   3.717   0.555
  880SOL    HW2 2687   1.188   3.704   0.656
  881SOL     OW 2688   1.061   2.438   0.033
  881SOL    HW1 2689   0.966   2.465   0.052
  881SOL    HW2 2690   1.111   2.428   0.119
  882SOL     OW 2691   0.073   2.414   1.375
  882SOL    HW1 2692   0.169   2.406   1.346
  882SOL    HW2 2693   0.066   2.482   1.448
  883SOL     OW 2694   0.566   2.084   1.172
  883SOL    HW1 2695   0.616   2.008   1.214
  883SOL    HW2 2696   0.471   2.082   1.203
  884SOL     OW 2697   0.864   2.318   0.638
  884SOL    HW1 2698   0.823   2.381   0.573
  884SOL    HW2 2699   0.895   2.236   0.590
  885SOL     OW 2700   1.016   1.914   0.744
  885SOL    HW1 2701   0.954   1.912   0.665
  885SOL    HW2 2702   0.993   1.839   0.806
  886SOL     OW 2703   1.448   3.023   0.860
  886SOL    HW1 2704   1.371   2.959   0.861
  886SOL    HW2 2705   1.482   3.033   0.767
  887SOL     OW 2706   1.468   2.470   0.969
  887SOL    HW1 2707   1.405   2.393   0.969
  887SOL    HW2 2708   1.529   2.464   1.049
  888SOL     OW 2709   1.825   2.665   0.391
  888SOL    HW1 2710   1.888   2.604   0.441
  888SOL    HW2 2711   1.823   2.637   0.295
  889SOL     OW 2712   0.477   3.281   0.173
  889SOL    HW1 2713   0.438   3.215   0.237
  889SOL    HW2 2714   0.424   3.280   0.088
  890SOL     OW 2715   1.672   3.127   0.654
  890SOL    HW1 2716   1.772   3.125   0.662
  890SOL    HW2 2717   1.639   3.221   0.666
  891SOL     OW 2718   1.389   2.413   0.067
  891SOL    HW1 2719   1.329   2.412   0.146
  891SOL    HW2 2720   1.452   2.334   0.071
  892SOL     OW 2721   0.513   2.121   0.312
  892SOL    HW1 2722   0.517   2.055   0.237
  892SOL    HW2 2723   0.491   2.212   0.275
  893SOL     OW 2724   1.752   3.103   1.558
  893SOL    HW1 2725   1.842   3.061   1.545
  893SOL    HW2 2726   1.764   3.196   1.593
  894SOL     OW 2727   1.052   3.211   1.336
  894SOL    HW1 2728   0.971   3.182   1.386
  894SOL    HW2 2729   1.134   3.172   1.378
  895SOL     OW 2730   1.614   3.492   1.658
  895SOL    HW1 2731   1.598   3.527   1.566
  895SOL    HW2 2732   1.699   3.440   1.659
  896SOL     OW 2733   1.138   3.083   1.105
  896SOL    HW1 2734   1.078   3.117   1.177
  896SOL    HW2 2735   1.104   3.114   1.016
  897SOL     OW 2736   1.623   2.958   1.079
  897SOL    HW1 2737   1.619   3.024   1.155
  897SOL    HW2 2738   1.549   2.976   1.015
  898SOL     OW 2739   0.923   1.956   1.391
  898SOL    HW1 2740   0.945   1.933   1.296
  898SOL    HW2 2741   1.003   1.999   1.433
  899SOL     OW 2742   0.980   2.976   1.721
  899SOL    HW1 2743   0.885   2.996   1.749
  899SOL    HW2 2744   0.981   2.894   1.665
  900SOL     OW 2745   0.713   2.920   0.376
  900SOL    HW1 2746   0.695   2.902   0.473
  900SOL    HW2 2747   0.793   2.867   0.347
  901SOL     OW 2748   0.430   2.667   1.249
  901SOL    HW1 2749   0.499   2.683   1.318
  901SOL    HW2 2750   0.387   2.578   1.264
  902SOL     OW 2751   1.262   2.238   1.281
  902SOL    HW1 2752   1.299   2.317   1.330
  902SOL    HW2 2753   1.167   2.255   1.256
  903SOL     OW 2754   0.068   3.426   1.318
  903SOL    HW1 2755   0.017   3.510   1.339
  903SOL    HW2 2756   0.165   3.441   1.338
  904SOL     OW 2757   0.354   2.960   0.495
  904SOL    HW1 2758   0.335   3.035   0.431
  904SOL    HW2 2759   0.361   2.874   0.444
  905SOL     OW 2760   0.549   2.402   0.858
  905SOL    HW1 2761   0.562   2.464   0.781
  905SOL    HW2 2762   0.616   2.423   0.930
  906SOL     OW 2763   1.238   3.206   0.408
  906SOL    HW1 2764   1.300   3.280   0.434
  906SOL    HW2 2765   1.145   3.229   0.437
  907SOL     OW 2766   1.289   3.324   1.147
  907SOL    HW1 2767   1.347   3.330   1.229
  907SOL    HW2 2768   1.235   3.240   1.151
  908SOL     OW 2769   1.588   2.492   0.479
  908SOL    HW1 2770   1.529   2.531   0.550
  908SOL    HW2 2771   1.645   2.564   0.439
  909SOL     OW 2772   0.351   3.396   1.308
  909SOL    HW1 2773   0.332   3.348   1.222
  909SOL    HW2 2774   0.450   3.408   1.318
  910SOL     OW 2775   0.426   2.596   1.598
  910SOL    HW1 2776   0.487   2.648   1.538
  910SOL    HW2 2777   0.469   2.509   1.622
  911SOL     OW 2778   1.609   2.647   1.685
  911SOL    HW1 2779   1.518   2.689   1.682
  911SOL    HW2 2780   1.666   2.688   1.613
  912SOL     OW 2781   0.997   1.997   1.750
  912SOL    HW1 2782   1.056   2.077   1.735
  912SOL    HW2 2783   1.046   1.914   1.723
  913SOL     OW 2784   0.496   1.897   1.750
  913SOL    HW1 2785   0.449   1.842   1.681
  913SOL    HW2 2786   0.440   1.978   1.771
  914SOL     OW 2787   0.588   2.733   1.033
  914SOL    HW1 2788   0.620   2.827   1.029
  914SOL    HW2 2789   0.528   2.721   1.112
  915SOL     OW 2790   1.350   2.718   1.024
  915SOL    HW1 2791   1.260   2.711   0.981
  915SOL    HW2 2792   1.400   2.632   1.014
  916SOL     OW 2793   1.196   2.385   0.273
  916SOL    HW1 2794   1.214   2.305   0.331
  916SOL    HW2 2795   1.156   2.458   0.328
  917SOL     OW 2796   0.309   2.056   1.246
  917SOL    HW1 2797   0.269   2.092   1.330
  917SOL    HW2 2798   0.292   1.958   1.239
  918SOL     OW 2799   0.098   3.167   1.262
  918SOL    HW1 2800   0.106   3.104   1.340
  918SOL    HW2 2801   0.088   3.261   1.296
  919SOL     OW 2802   0.722   2.490   1.052
  919SOL    HW1 2803   0.801   2.472   0.994
  919SOL    HW2 2804   0.689   2.583   1.035
  920SOL     OW 2805   1.737   2.823   1.857
  920SOL    HW1 2806   1.694   2.753   1.799
  920SOL    HW2 2807   1.677   2.842   1.935
  921SOL     OW 2808   0.312   1.934   0.632
  921SOL    HW1 2809   0.289   2.029   0.654
  921SOL    HW2 2810   0.322   1.882   0.716
  922SOL     OW 2811   1.632   2.247   0.367
  922SOL    HW1 2812   1.646   2.174   0.434
  922SOL    HW2 2813   1.605   2.330   0.415
  923SOL     OW 2814   1.023   2.617   0.957
  923SOL    HW1 2815   1.018   2.638   1.055
  923SOL    HW2 2816   0.996   2.521   0.943
  924SOL     OW 2817   0.983   3.425   1.718
  924SOL    HW1 2818   0.965   3.472   1.632
  924SOL    HW2 2819   1.030   3.339   1.700
  925SOL     OW 2820   1.854   3.365   1.603
  925SOL    HW1 2821   1.873   3.391   1.509
  925SOL    HW2 2822   1.937   3.376   1.658
  926SOL     OW 2823   0.366   2.778   1.798
  926SOL    HW1 2824   0.443   2.804   1.856
  926SOL    HW2 2825   0.395   2.710   1.731
  927SOL     OW 2826   1.488   2.156   0.148
  927SOL    HW1 2827   1.449   2.065   0.160
  927SOL    HW2 2828   1.542   2.181   0.228
  928SOL     OW 2829   1.292   2.681   0.033
  928SOL    HW1 2830   1.339   2.594   0.023
  928SOL    HW2 2831   1.316   2.742   6.958
  929SOL     OW 2832   1.070   3.200   0.855
  929SOL    HW1 2833   1.075   3.122   0.793
  929SOL    HW2 2834   1.128   3.273   0.821
  930SOL     OW 2835   0.322   2.662   0.940
  930SOL    HW1 2836   0.419   2.688   0.942
  930SOL    HW2 2837   0.311   2.571   0.980
  931SOL     OW 2838   0.330   2.382   1.014
  931SOL    HW1 2839   0.291   2.291   1.000
  931SOL    HW2 2840   0.410   2.394   0.954
  932SOL     OW 2841   1.134   2.235   1.693
  932SOL    HW1 2842   1.081   2.291   1.756
  932SOL    HW2 2843   1.226   2.272   1.684
  933SOL     OW 2844   1.161   2.065   1.476
  933SOL    HW1 2845   1.147   2.127   1.553
  933SOL    HW2 2846   1.205   2.114   1.401
  934SOL     OW 2847   6.993   3.159   0.222
  934SOL    HW1 2848   6.925   3.184   0.291
  934SOL    HW2 2849   0.024   3.066   0.238
  935SOL     OW 2850   0.098   3.618   0.951
  935SOL    HW1 2851   0.076   3.544   0.887
  935SOL    HW2 2852   0.184   3.661   0.924
  936SOL     OW 2853   0.493   3.440   0.903
  936SOL    HW1 2854   0.563   3.506   0.930
  936SOL    HW2 2855   0.533   3.371   0.843
  937SOL     OW 2856   0.973   2.655   1.223
  937SOL    HW1 2857   1.034   2.632   1.299
  937SOL    HW2 2858   0.883   2.614   1.240
  938SOL     OW 2859   0.051   2.472   1.105
  938SOL    HW1 2860   0.127   2.424   1.061
  938SOL    HW2 2861   0.051   2.451   1.203
  939SOL     OW 2862   0.210   2.373   1.723
  939SOL    HW1 2863   0.285   2.326   1.677
  939SOL    HW2 2864   0.190   2.459   1.676
  940SOL     OW 2865   1.381   2.796   1.654
  940SOL    HW1 2866   1.404   2.894   1.655
  940SOL    HW2 2867   1.377   2.764   1.560
  941SOL     OW 2868   0.817   2.431   0.372
  941SOL    HW1 2869   0.827   2.353   0.310
  941SOL    HW2 2870   0.741   2.488   0.342
  942SOL     OW 2871   1.642   2.465   1.180
  942SOL    HW1 2872   1.626   2.405   1.259
  942SOL    HW2 2873   1.734   2.448   1.144
  943SOL     OW 2874   0.285   3.422   1.740
  943SOL    HW1 2875   0.230   3.490   1.789
  943SOL    HW2 2876   0.267   3.331   1.777
  944SOL     OW 2877   0.708   2.310   1.253
  944SOL    HW1 2878   0.653   2.230   1.228
  944SOL    HW2 2879   0.704   2.377   1.179
  945SOL     OW 2880   0.920   3.543   1.472
  945SOL    HW1 2881   0.894   3.496   1.388
  945SOL    HW2 2882   0.919   3.641   1.457
  946SOL     OW 2883   0.461   2.358   0.194
  946SOL    HW1 2884   0.521   2.435   0.214
  946SOL    HW2 2885   0.366   2.389   0.193
  947SOL     OW 2886   0.165   2.985   1.469
  947SOL    HW1 2887   0.154   2.925   1.548
  947SOL    HW2 2888   0.179   2.930   1.387
  948SOL     OW 2889   1.314   2.905   1.218
  948SOL    HW1 2890   1.342   2.837   1.150
  948SOL    HW2 2891   1.248   2.968   1.178
  949SOL     OW 2892   1.300   2.707   0.307
  949SOL    HW1 2893   1.219   2.677   0.357
  949SOL    HW2 2894   1.289   2.686   0.209
  950SOL     OW 2895   1.782   3.590   1.158
  950SOL    HW1 2896   1.843   3.624   1.086
  950SOL    HW2 2897   1.749   3.499   1.134
  951SOL     OW 2898   1.241   3.595   1.105
  951SOL    HW1 2899   1.327   3.624   1.062
  951SOL    HW2 2900   1.247   3.498   1.128
  952SOL     OW 2901   0.071   3.106   1.004
  952SOL    HW1 2902   0.088   3.126   1.100
  952SOL    HW2 2903   6.972   3.092   0.990
  953SOL     OW 2904   0.682   3.537   1.738
  953SOL    HW1 2905   0.617   3.612   1.733
  953SOL    HW2 2906   0.754   3.550   1.670
  954SOL     OW 2907   0.939   1.942   0.111
  954SOL    HW1 2908   1.010   1.997   0.066
  954SOL    HW2 2909   0.981   1.879   0.176
  955SOL     OW 2910   1.701   2.014   0.509
  955SOL    HW1 2911   1.782   2.013   0.450
  955SOL    HW2 2912   1.691   1.925   0.553
  956SOL     OW 2913   1.389   3.428   0.492
  956SOL    HW1 2914   1.455   3.454   0.421
  956SOL    HW2 2915   1.338   3.508   0.522
  957SOL     OW 2916   0.140   3.646   1.854
  957SOL    HW1 2917   0.094   3.573   1.904
  957SOL    HW2 2918   0.194   3.701   1.917
  958SOL     OW 2919   1.283   2.787   0.669
  958SOL    HW1 2920   1.357   2.721   0.684
  958SOL    HW2 2921   1.316   2.865   0.617
  959SOL     OW 2922   0.801   3.141   1.425
  959SOL    HW1 2923   0.773   3.185   1.511
  959SOL    HW2 2924   0.731   3.156   1.356
  960SOL     OW 2925   0.674   3.468   0.192
  960SOL    HW1 2926   0.680   3.515   0.104
  960SOL    HW2 2927   0.617   3.386   0.183
  961SOL     OW 2928   1.616   3.591   1.388
  961SOL    HW1 2929   1.674   3.591   1.306
  961SOL    HW2 2930   1.602   3.685   1.418
  962SOL     OW 2931   1.843   2.031   0.963
  962SOL    HW1 2932   1.877   1.939   0.942
  962SOL    HW2 2933   1.751   2.043   0.924
  963SOL     OW 2934   0.261   2.185   0.719
  963SOL    HW1 2935   0.184   2.244   0.697
  963SOL    HW2 2936   0.261   2.165   0.817
  964SOL     OW 2937   1.217   3.457   0.038
  964SOL    HW1 2938   1.211   3.362   0.070
  964SOL    HW2 2939   1.130   3.483   6.996
  965SOL     OW 2940   0.824   2.872   1.379
  965SOL    HW1 2941   0.873   2.857   1.293
  965SOL    HW2 2942   0.819   2.971   1.398
  966SOL     OW 2943   0.923   2.775   0.292
  966SOL    HW1 2944   0.977   2.804   0.214
  966SOL    HW2 2945   0.972   2.704   0.343
  967SOL     OW 2946   1.479   3.534   0.050
  967SOL    HW1 2947   1.383   3.504   0.043
  967SOL    HW2 2948   1.522   3.528   6.960
  968SOL     OW 2949   0.372   3.169   1.485
  968SOL    HW1 2950   0.359   3.250   1.428
  968SOL    HW2 2951   0.302   3.101   1.464
  969SOL     OW 2952   1.613   3.147   1.285
  969SOL    HW1 2953   1.675   3.126   1.360
  969SOL    HW2 2954   1.547   3.216   1.314
  970SOL     OW 2955   1.063   2.968   0.716
  970SOL    HW1 2956   0.986   2.919   0.756
  970SOL    HW2 2957   1.131   2.903   0.682
  971SOL     OW 2958   1.023   2.101   0.967
  971SOL    HW1 2959   1.018   2.057   0.877
  971SOL    HW2 2960   1.020   2.031   1.038
  972SOL     OW 2961   0.612   3.343   0.483
  972SOL    HW1 2962   0.655   3.292   0.409
  972SOL    HW2 2963   0.538   3.400   0.446
  973SOL     OW 2964   1.732   2.255   1.381
  973SOL    HW1 2965   1.805   2.324   1.381
  973SOL    HW2 2966   1.758   2.181   1.319
  974SOL     OW 2967   0.284   3.163   0.334
  974SOL    HW1 2968   0.197   3.162   0.284
  974SOL    HW2 2969   0.279   3.229   0.409
  975SOL     OW 2970   0.121   2.835   1.702
  975SOL    HW1 2971   0.067   2.886   1.769
  975SOL    HW2 2972   0.212   2.817   1.740
  976SOL     OW 2973   0.684   2.057   1.499
  976SOL    HW1 2974   0.770   2.032   1.456
  976SOL    HW2 2975   0.701   2.090   1.592
  977SOL     OW 2976   0.065   2.247   0.019
  977SOL    HW1 2977   6.974   2.235   6.979
  977SOL    HW2 2978   0.127   2.282   6.949
  978SOL     OW 2979   1.422   2.718   1.394
  978SOL    HW1 2980   1.367   2.782   1.341
  978SOL    HW2 2981   1.516   2.719   1.360
  979SOL     OW 2982   0.030   2.054   0.360
  979SOL    HW1 2983   0.070   2.141   0.333
  979SOL    HW2 2984   0.102   1.986   0.373
  980SOL     OW 2985   1.186   3.204   0.130
  980SOL    HW1 2986   1.089   3.191   0.114
  980SOL    HW2 2987   1.205   3.196   0.228
  981SOL     OW 2988   0.625   2.692   1.434
  981SOL    HW1 2989   0.681   2.774   1.419
  981SOL    HW2 2990   0.684   2.612   1.443
  982SOL     OW 2991   1.485   3.653   0.989
  982SOL    HW1 2992   1.507   3.715   0.914
  982SOL    HW2 2993   1.569   3.614   1.027
  983SOL     OW 2994   0.718   2.420   1.703
  983SOL    HW1 2995   0.765   2.486   1.761
  983SOL    HW2 2996   0.738   2.327   1.735
  984SOL     OW 2997   1.474   3.057   1.634
  984SOL    HW1 2998   1.459   3.071   1.732
  984SOL    HW2 2999   1.570   3.076   1.612
  985SOL     OW 3000   0.370   3.609   1.563
  985SOL    HW1 3001   0.283   3.655   1.548
  985SOL    HW2 3002   0.354   3.524   1.615
  986SOL     OW 3003   1.665   2.740   1.256
  986SOL    HW1 3004   1.660   2.649   1.214
  986SOL    HW2 3005   1.652   2.809   1.185
  987SOL     OW 3006   1.222   2.176   0.461
  987SOL    HW1 3007   1.287   2.100   0.453
  987SOL    HW2 3008   1.246   2.232   0.540
  988SOL     OW 3009   0.588   2.597   0.667
  988SOL    HW1 3010   0.629   2.688   0.662
  988SOL    HW2 3011   0.519   2.587   0.596
  989SOL     OW 3012   1.750   2.227   1.653
  989SOL    HW1 3013   1.741   2.243   1.555
  989SOL    HW2 3014   1.675   2.167   1.684
  990SOL     OW 3015   1.753   2.794   1.509
  990SOL    HW1 3016   1.741   2.890   1.531
  990SOL    HW2 3017   1.731   2.778   1.413
  991SOL     OW 3018   0.906   3.245   0.056
  991SOL    HW1 3019   0.843   3.221   0.130
  991SOL    HW2 3020   0.907   3.344   0.044
  992SOL     OW 3021   0.666   3.647   0.940
  992SOL    HW1 3022   0.645   3.743   0.919
  992SOL    HW2 3023   0.765   3.632   0.930
  993SOL     OW 3024   0.869   2.833   0.856
  993SOL    HW1 3025   0.920   2.755   0.893
  993SOL    HW2 3026   0.826   2.883   0.932
  994SOL     OW 3027   1.080   2.845   0.078
  994SOL    HW1 3028   1.084   2.907   0.000
  994SOL    HW2 3029   1.157   2.782   0.075
  995SOL     OW 3030   1.845   3.419   0.846
  995SOL    HW1 3031   1.768   3.405   0.783
  995SOL    HW2 3032   1.845   3.347   0.915
  996SOL     OW 3033   0.242   3.170   1.865
  996SOL    HW1 3034   0.150   3.138   1.844
  996SOL    HW2 3035   0.253   3.180   1.964
  997SOL     OW 3036   0.150   3.138   0.694
  997SOL    HW1 3037   0.100   3.095   0.768
  997SOL    HW2 3038   0.183   3.069   0.630
  998SOL     OW 3039   0.686   3.272   1.636
  998SOL    HW1 3040   0.605   3.222   1.664
  998SOL    HW2 3041   0.682   3.365   1.672
  999SOL     OW 3042   1.804   2.044   1.233
  999SOL    HW1 3043   1.818   1.948   1.257
  999SOL    HW2 3044   1.818   2.056   1.135
 1000SOL     OW 3045   0.436   2.289   0.525
 1000SOL    HW1 3046   0.486   2.218   0.476
 1000SOL    HW2 3047   0.398   2.252   0.610
 1001SOL     OW 3048   1.691   3.345   1.095
 1001SOL    HW1 3049   1.612   3.327   1.037
 1001SOL    HW2 3050   1.698   3.273   1.164
 1002SOL     OW 3051   0.332   2.414   1.292
 1002SOL    HW1 3052   0.388   2.358   1.353
 1002SOL    HW2 3053   0.349   2.387   1.197
 1003SOL     OW 3054   0.828   3.441   0.681
 1003SOL    HW1 3055   0.814   3.500   0.602
 1003SOL    HW2 3056   0.751   3.377   0.688
 1004SOL     OW 3057   1.430   2.094   1.116
 1004SOL    HW1 3058   1.451   2.002   1.152
 1004SOL    HW2 3059   1.376   2.144   1.184
 1005SOL     OW 3060   1.010   1.878   1.137
 1005SOL    HW1 3061   0.946   1.814   1.093
 1005SOL    HW2 3062   1.101   1.837   1.138
 1006SOL     OW 3063   0.782   3.181   0.311
 1006SOL    HW1 3064   0.750   3.088   0.330
 1006SOL    HW2 3065   0.860   3.203   0.369
 1007SOL     OW 3066   0.626   3.421   1.290
 1007SOL    HW1 3067   0.622   3.508   1.340
 1007SOL    HW2 3068   0.716   3.409   1.249
 1008SOL     OW 3069   1.362   1.905   0.182
 1008SOL    HW1 3070   1.406   1.841   0.119
 1008SOL    HW2 3071   1.268   1.876   0.198
 1009SOL     OW 3072   1.289   2.326   0.680
 1009SOL    HW1 3073   1.238   2.412   0.682
 1009SOL    HW2 3074   1.288   2.284   0.770
 1010SOL     OW 3075   1.587   2.065   0.884
 1010SOL    HW1 3076   1.529   2.084   0.964
 1010SOL    HW2 3077   1.588   2.145   0.824
 1011SOL     OW 3078   0.076   2.914   0.310
 1011SOL    HW1 3079   0.166   2.873   0.299
 1011SOL    HW2 3080   0.006   2.842   0.311
 1012SOL     OW 3081   0.890   3.526   0.353
 1012SOL    HW1 3082   0.815   3.498   0.294
 1012SOL    HW2 3083   0.862   3.605   0.408
 1013SOL     OW 3084   0.181   2.514   1.984
 1013SOL    HW1 3085   0.175   2.448   2.059
 1013SOL    HW2 3086   0.224   2.470   1.905
 1014SOL     OW 3087   0.230   2.133   2.850
 1014SOL    HW1 3088   0.282   2.100   2.929
 1014SOL    HW2 3089   0.133   2.117   2.865
 1015SOL     OW 3090   6.990   2.246   2.515
 1015SOL    HW1 3091   6.942   2.242   2.603
 1015SOL    HW2 3092   0.012   2.153   2.485
 1016SOL     OW 3093   0.560   3.151   3.040
 1016SOL    HW1 3094   0.471   3.165   2.998
 1016SOL    HW2 3095   0.592   3.236   3.083
 1017SOL     OW 3096   1.566   3.376   2.570
 1017SOL    HW1 3097   1.523   3.352   2.657
 1017SOL    HW2 3098   1.495   3.383   2.499
 1018SOL     OW 3099   1.133   2.565   2.556
 1018SOL    HW1 3100   1.185   2.649   2.540
 1018SOL    HW2 3101   1.083   2.574   2.642
 1019SOL     OW 3102   1.771   2.460   2.084
 1019SOL    HW1 3103   1.747   2.456   1.987
 1019SOL    HW2 3104   1.733   2.381   2.131
 1020SOL     OW 3105   0.743   3.001   2.905
 1020SOL    HW1 3106   0.670   3.037   2.964
 1020SOL    HW2 3107   0.788   3.077   2.858
 1021SOL     OW 3108   0.876   2.623   3.683
 1021SOL    HW1 3109   0.880   2.689   3.759
 1021SOL    HW2 3110   0.898   2.670   3.598
 1022SOL     OW 3111   0.683   2.861   2.512
 1022SOL    HW1 3112   0.755   2.852   2.581
 1022SOL    HW2 3113   0.608   2.917   2.549
 1023SOL     OW 3114   0.333   3.279   2.925
 1023SOL    HW1 3115   0.255   3.240   2.877
 1023SOL    HW2 3116   0.384   3.339   2.864
 1024SOL     OW 3117   1.471   3.361   3.201
 1024SOL    HW1 3118   1.523   3.447   3.210
 1024SOL    HW2 3119   1.406   3.353   3.276
 1025SOL     OW 3120   0.443   2.255   3.354
 1025SOL    HW1 3121   0.526   2.199   3.356
 1025SOL    HW2 3122   0.362   2.197   3.362
 1026SOL     OW 3123   1.610   2.307   2.607
 1026SOL    HW1 3124   1.536   2.326   2.543
 1026SOL    HW2 3125   1.615   2.381   2.674
 1027SOL     OW 3126   0.226   3.572   2.329
 1027SOL    HW1 3127   0.242   3.651   2.388
 1027SOL    HW2 3128   0.297   3.569   2.258
 1028SOL     OW 3129   1.167   3.196   3.574
 1028SOL    HW1 3130   1.196   3.198   3.670
 1028SOL    HW2 3131   1.115   3.113   3.556
 1029SOL     OW 3132   0.279   3.305   2.381
 1029SOL    HW1 3133   0.255   3.402   2.387
 1029SOL    HW2 3134   0.230   3.255   2.453
 1030SOL     OW 3135   0.271   2.944   2.769
 1030SOL    HW1 3136   0.267   2.848   2.797
 1030SOL    HW2 3137   0.199   2.995   2.816
 1031SOL     OW 3138   0.607   3.653   3.304
 1031SOL    HW1 3139   0.517   3.634   3.344
 1031SOL    HW2 3140   0.634   3.747   3.325
 1032SOL     OW 3141   0.580   2.850   2.004
 1032SOL    HW1 3142   0.628   2.897   1.930
 1032SOL    HW2 3143   0.619   2.878   2.092
 1033SOL     OW 3144   1.597   1.987   3.331
 1033SOL    HW1 3145   1.619   2.067   3.275
 1033SOL    HW2 3146   1.581   2.016   3.425
 1034SOL     OW 3147   0.132   2.476   2.437
 1034SOL    HW1 3148   0.064   2.406   2.460
 1034SOL    HW2 3149   0.121   2.554   2.498
 1035SOL     OW 3150   1.847   3.617   2.194
 1035SOL    HW1 3151   1.917   3.587   2.258
 1035SOL    HW2 3152   1.862   3.713   2.170
 1036SOL     OW 3153   0.034   3.454   2.010
 1036SOL    HW1 3154   0.025   3.355   2.024
 1036SOL    HW2 3155   6.958   3.500   2.054
 1037SOL     OW 3156   1.691   2.783   2.510
 1037SOL    HW1 3157   1.775   2.732   2.492
 1037SOL    HW2 3158   1.668   2.837   2.429
 1038SOL     OW 3159   1.653   2.966   2.294
 1038SOL    HW1 3160   1.742   2.962   2.249
 1038SOL    HW2 3161   1.656   3.034   2.368
 1039SOL     OW 3162   0.148   2.593   3.441
 1039SOL    HW1 3163   0.246   2.600   3.425
 1039SOL    HW2 3164   0.112   2.681   3.472
 1040SOL     OW 3165   0.611   3.252   2.596
 1040SOL    HW1 3166   0.564   3.165   2.609
 1040SOL    HW2 3167   0.598   3.283   2.501
 1041SOL     OW 3168   1.276   3.064   3.286
 1041SOL    HW1 3169   1.311   3.001   3.217
 1041SOL    HW2 3170   1.342   3.072   3.361
 1042SOL     OW 3171   0.818   1.873   2.370
 1042SOL    HW1 3172   0.863   1.959   2.347
 1042SOL    HW2 3173   0.719   1.888   2.378
 1043SOL     OW 3174   0.204   2.823   3.124
 1043SOL    HW1 3175   0.288   2.770   3.108
 1043SOL    HW2 3176   0.133   2.793   3.061
 1044SOL     OW 3177   1.532   2.863   2.066
 1044SOL    HW1 3178   1.459   2.803   2.096
 1044SOL    HW2 3179   1.579   2.901   2.147
 1045SOL     OW 3180   0.356   2.113   3.698
 1045SOL    HW1 3181   0.403   2.196   3.727
 1045SOL    HW2 3182   0.258   2.122   3.717
 1046SOL     OW 3183   1.465   3.282   2.809
 1046SOL    HW1 3184   1.397   3.303   2.879
 1046SOL    HW2 3185   1.456   3.187   2.780
 1047SOL     OW 3186   1.650   3.613   2.438
 1047SOL    HW1 3187   1.632   3.584   2.344
 1047SOL    HW2 3188   1.628   3.538   2.500
 1048SOL     OW 3189   0.588   2.578   2.128
 1048SOL    HW1 3190   0.599   2.666   2.082
 1048SOL    HW2 3191   0.525   2.587   2.205
 1049SOL     OW 3192   1.277   2.223   2.796
 1049SOL    HW1 3193   1.184   2.188   2.802
 1049SOL    HW2 3194   1.337   2.170   2.857
 1050SOL     OW 3195   1.583   3.535   2.170
 1050SOL    HW1 3196   1.679   3.562   2.166
 1050SOL    HW2 3197   1.550   3.518   2.077
 1051SOL     OW 3198   0.788   2.476   3.312
 1051SOL    HW1 3199   0.763   2.450   3.405
 1051SOL    HW2 3200   0.753   2.407   3.248
 1052SOL     OW 3201   1.391   2.331   3.541
 1052SOL    HW1 3202   1.392   2.381   3.628
 1052SOL    HW2 3203   1.451   2.252   3.547
 1053SOL     OW 3204   0.949   2.749   3.445
 1053SOL    HW1 3205   1.006   2.677   3.407
 1053SOL    HW2 3206   0.898   2.794   3.371
 1054SOL     OW 3207   0.993   2.268   3.089
 1054SOL    HW1 3208   0.902   2.287   3.125
 1054SOL    HW2 3209   0.986   2.218   3.003
 1055SOL     OW 3210   1.050   2.560   2.286
 1055SOL    HW1 3211   1.072   2.556   2.384
 1055SOL    HW2 3212   0.963   2.513   2.270
 1056SOL     OW 3213   0.101   2.679   2.638
 1056SOL    HW1 3214   0.194   2.671   2.672
 1056SOL    HW2 3215   0.041   2.711   2.712
 1057SOL     OW 3216   0.121   3.737   3.454
 1057SOL    HW1 3217   0.129   3.710   3.550
 1057SOL    HW2 3218   0.035   3.703   3.416
 1058SOL     OW 3219   0.896   2.215   2.059
 1058SOL    HW1 3220   0.937   2.282   1.998
 1058SOL    HW2 3221   0.902   2.124   2.018
 1059SOL     OW 3222   1.699   2.434   3.688
 1059SOL    HW1 3223   1.665   2.513   3.638
 1059SOL    HW2 3224   1.730   2.364   3.623
 1060SOL     OW 3225   1.380   3.005   2.395
 1060SOL    HW1 3226   1.464   2.990   2.344
 1060SOL    HW2 3227   1.324   3.072   2.348
 1061SOL     OW 3228   0.551   2.036   2.762
 1061SOL    HW1 3229   0.557   2.066   2.858
 1061SOL    HW2 3230   0.555   2.116   2.702
 1062SOL     OW 3231   0.994   3.305   2.325
 1062SOL    HW1 3232   0.964   3.386   2.275
 1062SOL    HW2 3233   0.976   3.318   2.423
 1063SOL     OW 3234   0.357   3.682   2.731
 1063SOL    HW1 3235   0.398   3.591   2.741
 1063SOL    HW2 3236   0.426   3.752   2.751
 1064SOL     OW 3237   1.799   2.919   2.733
 1064SOL    HW1 3238   1.748   2.894   2.651
 1064SOL    HW2 3239   1.737   2.924   2.811
 1065SOL     OW 3240   1.269   3.344   3.370
 1065SOL    HW1 3241   1.245   3.283   3.446
 1065SOL    HW2 3242   1.190   3.356   3.311
 1066SOL     OW 3243   0.317   2.807   2.113
 1066SOL    HW1 3244   0.404   2.832   2.071
 1066SOL    HW2 3245   0.287   2.719   2.076
 1067SOL     OW 3246   1.484   2.613   2.583
 1067SOL    HW1 3247   1.479   2.568   2.673
 1067SOL    HW2 3248   1.564   2.672   2.580
 1068SOL     OW 3249   0.445   3.090   3.623
 1068SOL    HW1 3250   0.445   3.112   3.525
 1068SOL    HW2 3251   0.356   3.113   3.662
 1069SOL     OW 3252   1.122   3.638   2.088
 1069SOL    HW1 3253   1.043   3.601   2.136
 1069SOL    HW2 3254   1.152   3.573   2.017
 1070SOL     OW 3255   0.196   2.128   3.352
 1070SOL    HW1 3256   0.113   2.182   3.336
 1070SOL    HW2 3257   0.172   2.043   3.398
 1071SOL     OW 3258   1.625   3.244   1.951
 1071SOL    HW1 3259   1.586   3.335   1.935
 1071SOL    HW2 3260   1.555   3.175   1.932
 1072SOL     OW 3261   0.468   3.596   2.179
 1072SOL    HW1 3262   0.509   3.657   2.246
 1072SOL    HW2 3263   0.540   3.560   2.119
 1073SOL     OW 3264   1.401   1.966   2.300
 1073SOL    HW1 3265   1.389   1.940   2.204
 1073SOL    HW2 3266   1.498   1.975   2.320
 1074SOL     OW 3267   0.254   3.653   3.085
 1074SOL    HW1 3268   0.308   3.580   3.126
 1074SOL    HW2 3269   0.216   3.622   2.998
 1075SOL     OW 3270   0.935   3.564   2.757
 1075SOL    HW1 3271   1.016   3.516   2.791
 1075SOL    HW2 3272   0.894   3.511   2.682
 1076SOL     OW 3273   0.402   2.544   2.336
 1076SOL    HW1 3274   0.429   2.450   2.356
 1076SOL    HW2 3275   0.304   2.556   2.355
 1077SOL     OW 3276   1.527   2.084   3.589
 1077SOL    HW1 3277   1.538   2.106   3.687
 1077SOL    HW2 3278   1.454   2.016   3.578
 1078SOL     OW 3279   0.644   1.977   1.964
 1078SOL    HW1 3280   0.711   1.906   1.985
 1078SOL    HW2 3281   0.586   1.946   1.888
 1079SOL     OW 3282   0.763   2.139   3.620
 1079SOL    HW1 3283   0.848   2.087   3.612
 1079SOL    HW2 3284   0.711   2.107   3.699
 1080SOL     OW 3285   0.866   3.360   3.042
 1080SOL    HW1 3286   0.847   3.323   2.951
 1080SOL    HW2 3287   0.945   3.313   3.082
 1081SOL     OW 3288   1.338   2.452   3.298
 1081SOL    HW1 3289   1.369   2.416   3.386
 1081SOL    HW2 3290   1.375   2.543   3.284
 1082SOL     OW 3291   0.819   3.242   2.796
 1082SOL    HW1 3292   0.909   3.235   2.754
 1082SOL    HW2 3293   0.750   3.252   2.725
 1083SOL     OW 3294   0.927   2.370   2.760
 1083SOL    HW1 3295   0.901   2.362   2.663
 1083SOL    HW2 3296   0.959   2.281   2.793
 1084SOL     OW 3297   0.547   1.925   2.357
 1084SOL    HW1 3298   0.464   1.922   2.413
 1084SOL    HW2 3299   0.543   2.005   2.297
 1085SOL     OW 3300   1.425   3.061   1.905
 1085SOL    HW1 3301   1.459   2.984   1.959
 1085SOL    HW2 3302   1.337   3.091   1.941
 1086SOL     OW 3303   0.291   1.905   2.051
 1086SOL    HW1 3304   0.340   1.984   2.014
 1086SOL    HW2 3305   0.357   1.840   2.089
 1087SOL     OW 3306   0.947   2.114   2.318
 1087SOL    HW1 3307   0.916   2.154   2.232
 1087SOL    HW2 3308   1.045   2.127   2.327
 1088SOL     OW 3309   1.078   2.547   3.317
 1088SOL    HW1 3310   1.005   2.478   3.323
 1088SOL    HW2 3311   1.167   2.501   3.313
 1089SOL     OW 3312   1.221   3.431   2.655
 1089SOL    HW1 3313   1.233   3.501   2.585
 1089SOL    HW2 3314   1.291   3.442   2.726
 1090SOL     OW 3315   0.468   3.012   2.594
 1090SOL    HW1 3316   0.402   2.991   2.666
 1090SOL    HW2 3317   0.424   3.000   2.505
 1091SOL     OW 3318   1.262   3.653   2.473
 1091SOL    HW1 3319   1.313   3.716   2.414
 1091SOL    HW2 3320   1.188   3.703   2.518
 1092SOL     OW 3321   1.021   2.397   1.892
 1092SOL    HW1 3322   0.976   2.483   1.868
 1092SOL    HW2 3323   1.091   2.414   1.962
 1093SOL     OW 3324   0.074   2.414   3.237
 1093SOL    HW1 3325   0.169   2.406   3.208
 1093SOL    HW2 3326   0.066   2.481   3.310
 1094SOL     OW 3327   0.566   2.085   3.034
 1094SOL    HW1 3328   0.616   2.008   3.073
 1094SOL    HW2 3329   0.470   2.083   3.064
 1095SOL     OW 3330   0.866   2.320   2.499
 1095SOL    HW1 3331   0.816   2.382   2.437
 1095SOL    HW2 3332   0.894   2.239   2.448
 1096SOL     OW 3333   1.017   1.915   2.607
 1096SOL    HW1 3334   0.957   1.916   2.527
 1096SOL    HW2 3335   0.993   1.839   2.667
 1097SOL     OW 3336   1.445   3.023   2.721
 1097SOL    HW1 3337   1.369   2.959   2.725
 1097SOL    HW2 3338   1.475   3.034   2.626
 1098SOL     OW 3339   1.469   2.468   2.830
 1098SOL    HW1 3340   1.406   2.390   2.830
 1098SOL    HW2 3341   1.529   2.463   2.909
 1099SOL     OW 3342   1.841   2.670   2.242
 1099SOL    HW1 3343   1.900   2.623   2.308
 1099SOL    HW2 3344   1.812   2.606   2.171
 1100SOL     OW 3345   0.496   3.283   2.014
 1100SOL    HW1 3346   0.415   3.258   2.066
 1100SOL    HW2 3347   0.486   3.253   1.920
 1101SOL     OW 3348   1.675   3.129   2.505
 1101SOL    HW1 3349   1.775   3.127   2.517
 1101SOL    HW2 3350   1.642   3.221   2.525
 1102SOL     OW 3351   1.390   2.437   1.932
 1102SOL    HW1 3352   1.327   2.414   2.007
 1102SOL    HW2 3353   1.483   2.411   1.958
 1103SOL     OW 3354   0.531   2.123   2.171
 1103SOL    HW1 3355   0.579   2.069   2.102
 1103SOL    HW2 3356   0.503   2.210   2.131
 1104SOL     OW 3357   1.749   3.080   3.413
 1104SOL    HW1 3358   1.837   3.034   3.409
 1104SOL    HW2 3359   1.762   3.175   3.441
 1105SOL     OW 3360   1.052   3.190   3.201
 1105SOL    HW1 3361   0.988   3.198   3.277
 1105SOL    HW2 3362   1.136   3.146   3.233
 1106SOL     OW 3363   1.594   3.408   3.499
 1106SOL    HW1 3364   1.582   3.464   3.417
 1106SOL    HW2 3365   1.688   3.373   3.501
 1107SOL     OW 3366   1.143   3.080   2.964
 1107SOL    HW1 3367   1.081   3.108   3.037
 1107SOL    HW2 3368   1.107   3.113   2.876
 1108SOL     OW 3369   1.625   2.957   2.940
 1108SOL    HW1 3370   1.623   3.022   3.017
 1108SOL    HW2 3371   1.549   2.976   2.879
 1109SOL     OW 3372   0.923   1.956   3.253
 1109SOL    HW1 3373   0.945   1.933   3.158
 1109SOL    HW2 3374   1.003   1.999   3.295
 1110SOL     OW 3375   1.010   2.974   3.580
 1110SOL    HW1 3376   0.919   3.008   3.606
 1110SOL    HW2 3377   1.001   2.891   3.526
 1111SOL     OW 3378   0.711   2.919   2.236
 1111SOL    HW1 3379   0.696   2.903   2.334
 1111SOL    HW2 3380   0.791   2.866   2.206
 1112SOL     OW 3381   0.429   2.667   3.111
 1112SOL    HW1 3382   0.499   2.684   3.180
 1112SOL    HW2 3383   0.387   2.578   3.126
 1113SOL     OW 3384   1.262   2.238   3.143
 1113SOL    HW1 3385   1.298   2.317   3.192
 1113SOL    HW2 3386   1.167   2.256   3.118
 1114SOL     OW 3387   0.071   3.429   3.192
 1114SOL    HW1 3388   0.030   3.519   3.177
 1114SOL    HW2 3389   0.169   3.439   3.205
 1115SOL     OW 3390   0.339   2.979   2.354
 1115SOL    HW1 3391   0.349   3.059   2.294
 1115SOL    HW2 3392   0.338   2.896   2.298
 1116SOL     OW 3393   0.548   2.405   2.726
 1116SOL    HW1 3394   0.562   2.464   2.646
 1116SOL    HW2 3395   0.617   2.426   2.795
 1117SOL     OW 3396   1.245   3.217   2.255
 1117SOL    HW1 3397   1.307   3.289   2.286
 1117SOL    HW2 3398   1.152   3.237   2.285
 1118SOL     OW 3399   1.284   3.323   3.007
 1118SOL    HW1 3400   1.348   3.328   3.084
 1118SOL    HW2 3401   1.235   3.236   3.009
 1119SOL     OW 3402   1.577   2.482   2.345
 1119SOL    HW1 3403   1.526   2.530   2.418
 1119SOL    HW2 3404   1.624   2.549   2.288
 1120SOL     OW 3405   0.352   3.394   3.170
 1120SOL    HW1 3406   0.331   3.344   3.086
 1120SOL    HW2 3407   0.450   3.412   3.174
 1121SOL     OW 3408   0.426   2.594   3.458
 1121SOL    HW1 3409   0.488   2.647   3.399
 1121SOL    HW2 3410   0.469   2.506   3.480
 1122SOL     OW 3411   1.608   2.647   3.548
 1122SOL    HW1 3412   1.517   2.688   3.545
 1122SOL    HW2 3413   1.665   2.688   3.476
 1123SOL     OW 3414   0.997   1.997   3.611
 1123SOL    HW1 3415   1.056   2.077   3.596
 1123SOL    HW2 3416   1.046   1.914   3.585
 1124SOL     OW 3417   0.496   1.897   3.612
 1124SOL    HW1 3418   0.449   1.842   3.543
 1124SOL    HW2 3419   0.440   1.978   3.633
 1125SOL     OW 3420   0.589   2.733   2.896
 1125SOL    HW1 3421   0.619   2.828   2.892
 1125SOL    HW2 3422   0.528   2.721   2.974
 1126SOL     OW 3423   1.349   2.715   2.878
 1126SOL    HW1 3424   1.258   2.705   2.838
 1126SOL    HW2 3425   1.399   2.628   2.870
 1127SOL     OW 3426   1.197   2.388   2.126
 1127SOL    HW1 3427   1.210   2.306   2.180
 1127SOL    HW2 3428   1.153   2.459   2.181
 1128SOL     OW 3429   0.309   2.056   3.108
 1128SOL    HW1 3430   0.269   2.091   3.192
 1128SOL    HW2 3431   0.292   1.958   3.101
 1129SOL     OW 3432   0.092   3.171   3.127
 1129SOL    HW1 3433   0.110   3.105   3.200
 1129SOL    HW2 3434   0.087   3.263   3.165
 1130SOL     OW 3435   0.727   2.493   2.917
 1130SOL    HW1 3436   0.802   2.473   2.855
 1130SOL    HW2 3437   0.691   2.585   2.898
 1131SOL     OW 3438   1.737   2.822   3.719
 1131SOL    HW1 3439   1.693   2.753   3.661
 1131SOL    HW2 3440   1.677   2.843   3.797
 1132SOL     OW 3441   0.302   1.922   2.487
 1132SOL    HW1 3442   0.282   2.019   2.505
 1132SOL    HW2 3443   0.314   1.874   2.573
 1133SOL     OW 3444   1.628   2.243   2.223
 1133SOL    HW1 3445   1.654   2.170   2.285
 1133SOL    HW2 3446   1.599   2.323   2.276
 1134SOL     OW 3447   1.024   2.618   2.821
 1134SOL    HW1 3448   1.017   2.641   2.918
 1134SOL    HW2 3449   0.998   2.523   2.807
 1135SOL     OW 3450   1.851   3.328   3.459
 1135SOL    HW1 3451   1.883   3.373   3.375
 1135SOL    HW2 3452   1.914   3.348   3.534
 1136SOL     OW 3453   0.355   2.766   3.661
 1136SOL    HW1 3454   0.431   2.803   3.713
 1136SOL    HW2 3455   0.389   2.701   3.593
 1137SOL     OW 3456   1.527   2.130   1.992
 1137SOL    HW1 3457   1.458   2.062   2.017
 1137SOL    HW2 3458   1.564   2.173   2.074
 1138SOL     OW 3459   1.288   2.688   1.887
 1138SOL    HW1 3460   1.329   2.597   1.896
 1138SOL    HW2 3461   1.320   2.730   1.803
 1139SOL     OW 3462   1.073   3.200   2.716
 1139SOL    HW1 3463   1.077   3.122   2.653
 1139SOL    HW2 3464   1.131   3.274   2.682
 1140SOL     OW 3465   0.322   2.663   2.802
 1140SOL    HW1 3466   0.419   2.687   2.802
 1140SOL    HW2 3467   0.310   2.572   2.841
 1141SOL     OW 3468   0.328   2.383   2.876
 1141SOL    HW1 3469   0.289   2.292   2.861
 1141SOL    HW2 3470   0.408   2.394   2.818
 1142SOL     OW 3471   1.134   2.234   3.555
 1142SOL    HW1 3472   1.082   2.291   3.619
 1142SOL    HW2 3473   1.226   2.271   3.545
 1143SOL     OW 3474   1.161   2.065   3.338
 1143SOL    HW1 3475   1.147   2.127   3.415
 1143SOL    HW2 3476   1.205   2.114   3.263
 1144SOL     OW 3477   6.992   3.184   2.082
 1144SOL    HW1 3478   6.919   3.209   2.146
 1144SOL    HW2 3479   0.020   3.089   2.099
 1145SOL     OW 3480   0.099   3.615   2.813
 1145SOL    HW1 3481   0.078   3.541   2.749
 1145SOL    HW2 3482   0.183   3.661   2.785
 1146SOL     OW 3483   0.492   3.440   2.766
 1146SOL    HW1 3484   0.562   3.506   2.794
 1146SOL    HW2 3485   0.533   3.372   2.705
 1147SOL     OW 3486   0.967   2.659   3.089
 1147SOL    HW1 3487   1.029   2.634   3.163
 1147SOL    HW2 3488   0.883   2.605   3.096
 1148SOL     OW 3489   0.051   2.472   2.968
 1148SOL    HW1 3490   0.127   2.425   2.923
 1148SOL    HW2 3491   0.051   2.451   3.065
 1149SOL     OW 3492   0.209   2.373   3.585
 1149SOL    HW1 3493   0.285   2.326   3.539
 1149SOL    HW2 3494   0.190   2.459   3.538
 1150SOL     OW 3495   1.379   2.793   3.516
 1150SOL    HW1 3496   1.402   2.890   3.518
 1150SOL    HW2 3497   1.376   2.762   3.421
 1151SOL     OW 3498   0.816   2.435   2.221
 1151SOL    HW1 3499   0.828   2.354   2.163
 1151SOL    HW2 3500   0.737   2.488   2.189
 1152SOL     OW 3501   1.642   2.464   3.042
 1152SOL    HW1 3502   1.626   2.405   3.121
 1152SOL    HW2 3503   1.734   2.448   3.006
 1153SOL     OW 3504   0.280   3.425   3.600
 1153SOL    HW1 3505   0.229   3.494   3.651
 1153SOL    HW2 3506   0.259   3.335   3.638
 1154SOL     OW 3507   0.709   2.310   3.115
 1154SOL    HW1 3508   0.654   2.230   3.090
 1154SOL    HW2 3509   0.705   2.377   3.041
 1155SOL     OW 3510   0.452   2.349   2.045
 1155SOL    HW1 3511   0.508   2.430   2.061
 1155SOL    HW2 3512   0.367   2.356   2.097
 1156SOL     OW 3513   0.169   2.988   3.330
 1156SOL    HW1 3514   0.155   2.929   3.410
 1156SOL    HW2 3515   0.183   2.932   3.249
 1157SOL     OW 3516   1.319   2.899   3.072
 1157SOL    HW1 3517   1.344   2.831   3.003
 1157SOL    HW2 3518   1.254   2.964   3.033
 1158SOL     OW 3519   1.317   2.719   2.160
 1158SOL    HW1 3520   1.241   2.691   2.219
 1158SOL    HW2 3521   1.291   2.706   2.064
 1159SOL     OW 3522   1.786   3.584   3.018
 1159SOL    HW1 3523   1.846   3.620   2.946
 1159SOL    HW2 3524   1.754   3.493   2.991
 1160SOL     OW 3525   1.241   3.594   2.969
 1160SOL    HW1 3526   1.327   3.623   2.926
 1160SOL    HW2 3527   1.246   3.497   2.991
 1161SOL     OW 3528   0.071   3.106   2.868
 1161SOL    HW1 3529   0.087   3.127   2.964
 1161SOL    HW2 3530   6.973   3.092   2.853
 1162SOL     OW 3531   0.668   3.580   3.638
 1162SOL    HW1 3532   0.597   3.650   3.631
 1162SOL    HW2 3533   0.691   3.545   3.547
 1163SOL     OW 3534   1.720   2.013   2.360
 1163SOL    HW1 3535   1.795   2.003   2.295
 1163SOL    HW2 3536   1.702   1.926   2.405
 1164SOL     OW 3537   1.396   3.433   2.350
 1164SOL    HW1 3538   1.458   3.465   2.279
 1164SOL    HW2 3539   1.340   3.509   2.383
 1165SOL     OW 3540   0.136   3.648   3.716
 1165SOL    HW1 3541   0.094   3.573   3.768
 1165SOL    HW2 3542   0.193   3.703   3.778
 1166SOL     OW 3543   1.282   2.791   2.527
 1166SOL    HW1 3544   1.357   2.726   2.544
 1166SOL    HW2 3545   1.315   2.867   2.473
 1167SOL     OW 3546   0.673   3.486   2.015
 1167SOL    HW1 3547   0.687   3.505   1.918
 1167SOL    HW2 3548   0.616   3.405   2.025
 1168SOL     OW 3549   1.621   3.588   3.238
 1168SOL    HW1 3550   1.685   3.580   3.161
 1168SOL    HW2 3551   1.600   3.684   3.253
 1169SOL     OW 3552   1.842   2.031   2.825
 1169SOL    HW1 3553   1.877   1.939   2.803
 1169SOL    HW2 3554   1.751   2.042   2.786
 1170SOL     OW 3555   0.263   2.178   2.576
 1170SOL    HW1 3556   0.188   2.241   2.556
 1170SOL    HW2 3557   0.265   2.158   2.674
 1171SOL     OW 3558   1.209   3.462   1.895
 1171SOL    HW1 3559   1.199   3.368   1.928
 1171SOL    HW2 3560   1.141   3.479   1.823
 1172SOL     OW 3561   0.824   2.878   3.235
 1172SOL    HW1 3562   0.875   2.840   3.158
 1172SOL    HW2 3563   0.797   2.972   3.214
 1173SOL     OW 3564   0.919   2.772   2.149
 1173SOL    HW1 3565   0.980   2.808   2.078
 1173SOL    HW2 3566   0.967   2.701   2.201
 1174SOL     OW 3567   1.488   3.493   1.905
 1174SOL    HW1 3568   1.389   3.481   1.893
 1174SOL    HW2 3569   1.532   3.498   1.815
 1175SOL     OW 3570   0.379   3.169   3.363
 1175SOL    HW1 3571   0.369   3.249   3.305
 1175SOL    HW2 3572   0.310   3.101   3.338
 1176SOL     OW 3573   1.619   3.141   3.147
 1176SOL    HW1 3574   1.672   3.116   3.228
 1176SOL    HW2 3575   1.557   3.215   3.170
 1177SOL     OW 3576   1.063   2.968   2.577
 1177SOL    HW1 3577   0.986   2.919   2.617
 1177SOL    HW2 3578   1.131   2.903   2.545
 1178SOL     OW 3579   1.023   2.102   2.829
 1178SOL    HW1 3580   1.019   2.058   2.739
 1178SOL    HW2 3581   1.020   2.031   2.900
 1179SOL     OW 3582   0.607   3.349   2.342
 1179SOL    HW1 3583   0.658   3.295   2.274
 1179SOL    HW2 3584   0.529   3.392   2.298
 1180SOL     OW 3585   1.732   2.256   3.243
 1180SOL    HW1 3586   1.805   2.324   3.243
 1180SOL    HW2 3587   1.757   2.181   3.181
 1181SOL     OW 3588   0.257   3.213   2.136
 1181SOL    HW1 3589   0.158   3.212   2.119
 1181SOL    HW2 3590   0.275   3.250   2.227
 1182SOL     OW 3591   0.117   2.835   3.562
 1182SOL    HW1 3592   0.064   2.888   3.629
 1182SOL    HW2 3593   0.206   2.813   3.600
 1183SOL     OW 3594   0.683   2.057   3.362
 1183SOL    HW1 3595   0.770   2.032   3.318
 1183SOL    HW2 3596   0.701   2.090   3.454
 1184SOL     OW 3597   0.101   2.176   1.897
 1184SOL    HW1 3598   0.004   2.152   1.900
 1184SOL    HW2 3599   0.112   2.264   1.849
 1185SOL     OW 3600   1.423   2.716   3.255
 1185SOL    HW1 3601   1.369   2.778   3.198
 1185SOL    HW2 3602   1.518   2.718   3.224
 1186SOL     OW 3603   0.075   2.051   2.202
 1186SOL    HW1 3604   0.018   2.036   2.121
 1186SOL    HW2 3605   0.154   1.990   2.199
 1187SOL     OW 3606   1.180   3.199   1.983
 1187SOL    HW1 3607   1.083   3.172   1.976
 1187SOL    HW2 3608   1.207   3.200   2.079
 1188SOL     OW 3609   0.626   2.694   3.296
 1188SOL    HW1 3610   0.682   2.775   3.281
 1188SOL    HW2 3611   0.685   2.614   3.304
 1189SOL     OW 3612   1.484   3.649   2.849
 1189SOL    HW1 3613   1.504   3.714   2.776
 1189SOL    HW2 3614   1.570   3.616   2.889
 1190SOL     OW 3615   0.719   2.419   3.565
 1190SOL    HW1 3616   0.765   2.485   3.624
 1190SOL    HW2 3617   0.738   2.326   3.597
 1191SOL     OW 3618   1.470   3.052   3.493
 1191SOL    HW1 3619   1.452   3.071   3.589
 1191SOL    HW2 3620   1.566   3.072   3.472
 1192SOL     OW 3621   0.369   3.610   3.424
 1192SOL    HW1 3622   0.282   3.657   3.409
 1192SOL    HW2 3623   0.352   3.526   3.476
 1193SOL     OW 3624   1.666   2.739   3.116
 1193SOL    HW1 3625   1.661   2.648   3.075
 1193SOL    HW2 3626   1.653   2.809   3.046
 1194SOL     OW 3627   1.220   2.179   2.322
 1194SOL    HW1 3628   1.283   2.102   2.312
 1194SOL    HW2 3629   1.246   2.234   2.401
 1195SOL     OW 3630   0.588   2.599   2.533
 1195SOL    HW1 3631   0.628   2.690   2.524
 1195SOL    HW2 3632   0.520   2.586   2.461
 1196SOL     OW 3633   1.750   2.226   3.515
 1196SOL    HW1 3634   1.741   2.243   3.417
 1196SOL    HW2 3635   1.675   2.167   3.546
 1197SOL     OW 3636   1.748   2.793   3.370
 1197SOL    HW1 3637   1.730   2.889   3.392
 1197SOL    HW2 3638   1.730   2.777   3.273
 1198SOL     OW 3639   0.870   3.225   1.909
 1198SOL    HW1 3640   0.826   3.248   1.995
 1198SOL    HW2 3641   0.882   3.308   1.853
 1199SOL     OW 3642   0.666   3.646   2.802
 1199SOL    HW1 3643   0.643   3.741   2.781
 1199SOL    HW2 3644   0.764   3.632   2.793
 1200SOL     OW 3645   0.869   2.833   2.718
 1200SOL    HW1 3646   0.920   2.755   2.754
 1200SOL    HW2 3647   0.826   2.883   2.794
 1201SOL     OW 3648   1.076   2.850   1.945
 1201SOL    HW1 3649   1.050   2.905   1.866
 1201SOL    HW2 3650   1.154   2.792   1.921
 1202SOL     OW 3651   1.844   3.420   2.710
 1202SOL    HW1 3652   1.768   3.408   2.646
 1202SOL    HW2 3653   1.839   3.350   2.781
 1203SOL     OW 3654   0.218   3.181   3.731
 1203SOL    HW1 3655   0.129   3.136   3.725
 1203SOL    HW2 3656   0.242   3.196   3.827
 1204SOL     OW 3657   0.154   3.136   2.554
 1204SOL    HW1 3658   0.107   3.089   2.630
 1204SOL    HW2 3659   0.197   3.068   2.495
 1205SOL     OW 3660   1.804   2.044   3.095
 1205SOL    HW1 3661   1.819   1.948   3.120
 1205SOL    HW2 3662   1.817   2.056   2.997
 1206SOL     OW 3663   0.454   2.290   2.399
 1206SOL    HW1 3664   0.480   2.221   2.332
 1206SOL    HW2 3665   0.397   2.248   2.470
 1207SOL     OW 3666   1.695   3.339   2.954
 1207SOL    HW1 3667   1.613   3.324   2.900
 1207SOL    HW2 3668   1.701   3.268   3.025
 1208SOL     OW 3669   0.332   2.414   3.154
 1208SOL    HW1 3670   0.388   2.357   3.214
 1208SOL    HW2 3671   0.348   2.387   3.059
 1209SOL     OW 3672   0.830   3.440   2.538
 1209SOL    HW1 3673   0.815   3.504   2.463
 1209SOL    HW2 3674   0.752   3.378   2.545
 1210SOL     OW 3675   1.430   2.094   2.979
 1210SOL    HW1 3676   1.452   2.003   3.016
 1210SOL    HW2 3677   1.376   2.144   3.046
 1211SOL     OW 3678   1.010   1.878   2.999
 1211SOL    HW1 3679   0.945   1.815   2.955
 1211SOL    HW2 3680   1.101   1.837   3.000
 1212SOL     OW 3681   0.775   3.193   2.184
 1212SOL    HW1 3682   0.748   3.097   2.193
 1212SOL    HW2 3683   0.860   3.208   2.235
 1213SOL     OW 3684   0.620   3.435   3.137
 1213SOL    HW1 3685   0.625   3.517   3.193
 1213SOL    HW2 3686   0.710   3.416   3.099
 1214SOL     OW 3687   1.355   1.911   2.033
 1214SOL    HW1 3688   1.398   1.843   1.973
 1214SOL    HW2 3689   1.262   1.882   2.055
 1215SOL     OW 3690   1.291   2.327   2.542
 1215SOL    HW1 3691   1.238   2.412   2.543
 1215SOL    HW2 3692   1.289   2.285   2.633
 1216SOL     OW 3693   1.586   2.064   2.747
 1216SOL    HW1 3694   1.528   2.084   2.826
 1216SOL    HW2 3695   1.588   2.144   2.686
 1217SOL     OW 3696   0.070   2.925   2.139
 1217SOL    HW1 3697   0.163   2.889   2.138
 1217SOL    HW2 3698   0.006   2.852   2.159
 1218SOL     OW 3699   0.886   3.526   2.201
 1218SOL    HW1 3700   0.811   3.505   2.138
 1218SOL    HW2 3701   0.859   3.602   2.260
 1219SOL     OW 3702   0.179   2.512   3.847
 1219SOL    HW1 3703   0.174   2.446   3.922
 1219SOL    HW2 3704   0.224   2.470   3.768
 1220SOL     OW 3705   0.230   2.133   4.712
 1220SOL    HW1 3706   0.282   2.100   4.791
 1220SOL    HW2 3707   0.133   2.117   4.727
 1221SOL     OW 3708   6.989   2.246   4.377
 1221SOL    HW1 3709   6.942   2.242   4.465
 1221SOL    HW2 3710   0.013   2.154   4.347
 1222SOL     OW 3711   0.570   3.161   4.912
 1222SOL    HW1 3712   0.480   3.159   4.868
 1222SOL    HW2 3713   0.588   3.253   4.946
 1223SOL     OW 3714   1.566   3.376   4.431
 1223SOL    HW1 3715   1.523   3.351   4.518
 1223SOL    HW2 3716   1.495   3.383   4.360
 1224SOL     OW 3717   1.133   2.566   4.418
 1224SOL    HW1 3718   1.185   2.649   4.402
 1224SOL    HW2 3719   1.083   2.574   4.504
 1225SOL     OW 3720   1.771   2.459   3.946
 1225SOL    HW1 3721   1.746   2.456   3.849
 1225SOL    HW2 3722   1.733   2.380   3.993
 1226SOL     OW 3723   0.741   3.002   4.765
 1226SOL    HW1 3724   0.674   3.037   4.830
 1226SOL    HW2 3725   0.786   3.079   4.719
 1227SOL     OW 3726   0.874   2.625   5.545
 1227SOL    HW1 3727   0.865   2.693   5.617
 1227SOL    HW2 3728   0.898   2.670   5.459
 1228SOL     OW 3729   0.682   2.862   4.373
 1228SOL    HW1 3730   0.755   2.852   4.442
 1228SOL    HW2 3731   0.608   2.917   4.411
 1229SOL     OW 3732   0.713   3.014   5.544
 1229SOL    HW1 3733   0.766   3.093   5.578
 1229SOL    HW2 3734   0.629   3.047   5.500
 1230SOL     OW 3735   0.334   3.281   4.788
 1230SOL    HW1 3736   0.255   3.242   4.741
 1230SOL    HW2 3737   0.385   3.340   4.725
 1231SOL     OW 3738   1.457   3.364   5.083
 1231SOL    HW1 3739   1.515   3.445   5.090
 1231SOL    HW2 3740   1.386   3.368   5.152
 1232SOL     OW 3741   0.442   2.255   5.216
 1232SOL    HW1 3742   0.525   2.200   5.218
 1232SOL    HW2 3743   0.362   2.196   5.224
 1233SOL     OW 3744   1.610   2.307   4.469
 1233SOL    HW1 3745   1.536   2.326   4.405
 1233SOL    HW2 3746   1.616   2.382   4.536
 1234SOL     OW 3747   0.225   3.572   4.191
 1234SOL    HW1 3748   0.241   3.651   4.250
 1234SOL    HW2 3749   0.297   3.569   4.121
 1235SOL     OW 3750   1.138   3.202   5.422
 1235SOL    HW1 3751   1.184   3.200   5.510
 1235SOL    HW2 3752   1.081   3.119   5.411
 1236SOL     OW 3753   0.280   3.306   4.245
 1236SOL    HW1 3754   0.255   3.403   4.251
 1236SOL    HW2 3755   0.231   3.255   4.316
 1237SOL     OW 3756   0.272   2.944   4.631
 1237SOL    HW1 3757   0.268   2.848   4.659
 1237SOL    HW2 3758   0.199   2.995   4.677
 1238SOL     OW 3759   0.600   3.659   5.151
 1238SOL    HW1 3760   0.515   3.636   5.197
 1238SOL    HW2 3761   0.630   3.750   5.179
 1239SOL     OW 3762   0.566   2.858   3.870
 1239SOL    HW1 3763   0.584   2.926   3.799
 1239SOL    HW2 3764   0.618   2.881   3.952
 1240SOL     OW 3765   1.597   1.987   5.193
 1240SOL    HW1 3766   1.618   2.067   5.137
 1240SOL    HW2 3767   1.581   2.016   5.287
 1241SOL     OW 3768   0.132   2.476   4.299
 1241SOL    HW1 3769   0.064   2.407   4.322
 1241SOL    HW2 3770   0.121   2.555   4.360
 1242SOL     OW 3771   1.848   3.618   4.058
 1242SOL    HW1 3772   1.919   3.588   4.121
 1242SOL    HW2 3773   1.864   3.713   4.031
 1243SOL     OW 3774   0.040   3.453   3.875
 1243SOL    HW1 3775   0.033   3.354   3.889
 1243SOL    HW2 3776   6.963   3.499   3.918
 1244SOL     OW 3777   1.691   2.783   4.372
 1244SOL    HW1 3778   1.775   2.732   4.354
 1244SOL    HW2 3779   1.667   2.837   4.291
 1245SOL     OW 3780   1.653   2.966   4.157
 1245SOL    HW1 3781   1.742   2.962   4.111
 1245SOL    HW2 3782   1.656   3.034   4.230
 1246SOL     OW 3783   0.148   2.593   5.303
 1246SOL    HW1 3784   0.247   2.600   5.287
 1246SOL    HW2 3785   0.113   2.681   5.336
 1247SOL     OW 3786   0.612   3.253   4.459
 1247SOL    HW1 3787   0.565   3.166   4.472
 1247SOL    HW2 3788   0.599   3.283   4.365
 1248SOL     OW 3789   1.288   3.096   5.145
 1248SOL    HW1 3790   1.314   3.026   5.080
 1248SOL    HW2 3791   1.348   3.092   5.225
 1249SOL     OW 3792   0.818   1.872   4.232
 1249SOL    HW1 3793   0.863   1.959   4.209
 1249SOL    HW2 3794   0.719   1.888   4.240
 1250SOL     OW 3795   0.205   2.823   4.986
 1250SOL    HW1 3796   0.288   2.770   4.970
 1250SOL    HW2 3797   0.134   2.793   4.923
 1251SOL     OW 3798   1.532   2.863   3.929
 1251SOL    HW1 3799   1.458   2.803   3.960
 1251SOL    HW2 3800   1.579   2.902   4.008
 1252SOL     OW 3801   1.182   3.675   5.347
 1252SOL    HW1 3802   1.189   3.743   5.274
 1252SOL    HW2 3803   1.202   3.584   5.309
 1253SOL     OW 3804   0.356   2.113   5.560
 1253SOL    HW1 3805   0.403   2.196   5.589
 1253SOL    HW2 3806   0.258   2.122   5.579
 1254SOL     OW 3807   1.465   3.282   4.670
 1254SOL    HW1 3808   1.398   3.302   4.742
 1254SOL    HW2 3809   1.457   3.187   4.642
 1255SOL     OW 3810   1.648   3.614   4.300
 1255SOL    HW1 3811   1.634   3.585   4.206
 1255SOL    HW2 3812   1.628   3.538   4.362
 1256SOL     OW 3813   0.588   2.578   3.991
 1256SOL    HW1 3814   0.595   2.666   3.944
 1256SOL    HW2 3815   0.524   2.586   4.067
 1257SOL     OW 3816   1.277   2.223   4.658
 1257SOL    HW1 3817   1.184   2.188   4.664
 1257SOL    HW2 3818   1.337   2.170   4.719
 1258SOL     OW 3819   1.584   3.534   4.031
 1258SOL    HW1 3820   1.681   3.561   4.028
 1258SOL    HW2 3821   1.554   3.505   3.940
 1259SOL     OW 3822   0.789   2.474   5.174
 1259SOL    HW1 3823   0.764   2.450   5.268
 1259SOL    HW2 3824   0.753   2.406   5.111
 1260SOL     OW 3825   1.391   2.332   5.403
 1260SOL    HW1 3826   1.392   2.381   5.490
 1260SOL    HW2 3827   1.451   2.252   5.410
 1261SOL     OW 3828   0.952   2.746   5.307
 1261SOL    HW1 3829   1.010   2.675   5.269
 1261SOL    HW2 3830   0.899   2.789   5.235
 1262SOL     OW 3831   0.994   2.267   4.952
 1262SOL    HW1 3832   0.903   2.288   4.989
 1262SOL    HW2 3833   0.984   2.218   4.865
 1263SOL     OW 3834   1.049   2.560   4.149
 1263SOL    HW1 3835   1.072   2.556   4.246
 1263SOL    HW2 3836   0.963   2.512   4.132
 1264SOL     OW 3837   0.100   2.679   4.500
 1264SOL    HW1 3838   0.194   2.671   4.534
 1264SOL    HW2 3839   0.041   2.709   4.575
 1265SOL     OW 3840   0.119   3.733   5.317
 1265SOL    HW1 3841   0.131   3.708   5.412
 1265SOL    HW2 3842   0.028   3.706   5.286
 1266SOL     OW 3843   0.896   2.214   3.922
 1266SOL    HW1 3844   0.937   2.281   3.860
 1266SOL    HW2 3845   0.901   2.123   3.881
 1267SOL     OW 3846   1.700   2.434   5.550
 1267SOL    HW1 3847   1.665   2.514   5.500
 1267SOL    HW2 3848   1.730   2.364   5.486
 1268SOL     OW 3849   1.381   3.004   4.257
 1268SOL    HW1 3850   1.465   2.990   4.206
 1268SOL    HW2 3851   1.324   3.073   4.211
 1269SOL     OW 3852   0.551   2.036   4.624
 1269SOL    HW1 3853   0.557   2.065   4.720
 1269SOL    HW2 3854   0.555   2.117   4.565
 1270SOL     OW 3855   0.992   3.305   4.188
 1270SOL    HW1 3856   0.963   3.385   4.137
 1270SOL    HW2 3857   0.976   3.320   4.286
 1271SOL     OW 3858   0.357   3.682   4.592
 1271SOL    HW1 3859   0.397   3.591   4.603
 1271SOL    HW2 3860   0.425   3.751   4.613
 1272SOL     OW 3861   1.799   2.918   4.597
 1272SOL    HW1 3862   1.748   2.895   4.514
 1272SOL    HW2 3863   1.735   2.924   4.674
 1273SOL     OW 3864   1.226   3.398   5.238
 1273SOL    HW1 3865   1.214   3.324   5.304
 1273SOL    HW2 3866   1.157   3.391   5.166
 1274SOL     OW 3867   0.313   2.804   3.977
 1274SOL    HW1 3868   0.402   2.829   3.937
 1274SOL    HW2 3869   0.282   2.718   3.938
 1275SOL     OW 3870   1.483   2.613   4.446
 1275SOL    HW1 3871   1.478   2.569   4.535
 1275SOL    HW2 3872   1.564   2.672   4.443
 1276SOL     OW 3873   0.473   3.124   5.452
 1276SOL    HW1 3874   0.445   3.134   5.356
 1276SOL    HW2 3875   0.391   3.124   5.510
 1277SOL     OW 3876   1.118   3.637   3.940
 1277SOL    HW1 3877   1.041   3.603   3.994
 1277SOL    HW2 3878   1.152   3.565   3.880
 1278SOL     OW 3879   0.195   2.127   5.213
 1278SOL    HW1 3880   0.113   2.182   5.198
 1278SOL    HW2 3881   0.171   2.043   5.260
 1279SOL     OW 3882   1.627   3.222   3.815
 1279SOL    HW1 3883   1.594   3.316   3.804
 1279SOL    HW2 3884   1.554   3.159   3.791
 1280SOL     OW 3885   0.467   3.595   4.043
 1280SOL    HW1 3886   0.507   3.658   4.110
 1280SOL    HW2 3887   0.538   3.557   3.985
 1281SOL     OW 3888   1.401   1.966   4.162
 1281SOL    HW1 3889   1.389   1.940   4.066
 1281SOL    HW2 3890   1.498   1.975   4.182
 1282SOL     OW 3891   0.258   3.655   4.946
 1282SOL    HW1 3892   0.309   3.581   4.989
 1282SOL    HW2 3893   0.212   3.621   4.863
 1283SOL     OW 3894   0.936   3.565   4.620
 1283SOL    HW1 3895   1.019   3.518   4.651
 1283SOL    HW2 3896   0.895   3.512   4.545
 1284SOL     OW 3897   0.402   2.544   4.198
 1284SOL    HW1 3898   0.429   2.450   4.219
 1284SOL    HW2 3899   0.304   2.556   4.217
 1285SOL     OW 3900   1.527   2.085   5.452
 1285SOL    HW1 3901   1.538   2.105   5.549
 1285SOL    HW2 3902   1.454   2.017   5.440
 1286SOL     OW 3903   0.644   1.977   3.826
 1286SOL    HW1 3904   0.711   1.906   3.848
 1286SOL    HW2 3905   0.586   1.946   3.750
 1287SOL     OW 3906   0.763   2.139   5.481
 1287SOL    HW1 3907   0.848   2.087   5.474
 1287SOL    HW2 3908   0.711   2.107   5.561
 1288SOL     OW 3909   0.876   3.377   4.916
 1288SOL    HW1 3910   0.856   3.340   4.825
 1288SOL    HW2 3911   0.948   3.323   4.959
 1289SOL     OW 3912   1.339   2.451   5.160
 1289SOL    HW1 3913   1.369   2.416   5.248
 1289SOL    HW2 3914   1.375   2.543   5.146
 1290SOL     OW 3915   0.821   3.250   4.666
 1290SOL    HW1 3916   0.910   3.239   4.623
 1290SOL    HW2 3917   0.751   3.257   4.595
 1291SOL     OW 3918   0.927   2.369   4.622
 1291SOL    HW1 3919   0.901   2.361   4.525
 1291SOL    HW2 3920   0.959   2.280   4.654
 1292SOL     OW 3921   0.547   1.925   4.219
 1292SOL    HW1 3922   0.464   1.922   4.276
 1292SOL    HW2 3923   0.543   2.005   4.159
 1293SOL     OW 3924   1.419   3.055   3.764
 1293SOL    HW1 3925   1.454   2.979   3.819
 1293SOL    HW2 3926   1.333   3.087   3.804
 1294SOL     OW 3927   0.291   1.905   3.912
 1294SOL    HW1 3928   0.340   1.984   3.876
 1294SOL    HW2 3929   0.357   1.840   3.951
 1295SOL     OW 3930   0.947   2.114   4.180
 1295SOL    HW1 3931   0.916   2.154   4.094
 1295SOL    HW2 3932   1.045   2.127   4.190
 1296SOL     OW 3933   1.079   2.545   5.178
 1296SOL    HW1 3934   1.005   2.479   5.184
 1296SOL    HW2 3935   1.167   2.498   5.174
 1297SOL     OW 3936   1.219   3.432   4.518
 1297SOL    HW1 3937   1.233   3.501   4.448
 1297SOL    HW2 3938   1.291   3.440   4.587
 1298SOL     OW 3939   0.468   3.013   4.456
 1298SOL    HW1 3940   0.402   2.991   4.528
 1298SOL    HW2 3941   0.424   3.000   4.367
 1299SOL     OW 3942   1.262   3.654   4.334
 1299SOL    HW1 3943   1.316   3.716   4.277
 1299SOL    HW2 3944   1.189   3.704   4.380
 1300SOL     OW 3945   1.022   2.395   3.755
 1300SOL    HW1 3946   0.977   2.481   3.730
 1300SOL    HW2 3947   1.091   2.412   3.825
 1301SOL     OW 3948   0.073   2.414   5.099
 1301SOL    HW1 3949   0.169   2.406   5.070
 1301SOL    HW2 3950   0.066   2.481   5.172
 1302SOL     OW 3951   0.565   2.085   4.895
 1302SOL    HW1 3952   0.616   2.009   4.936
 1302SOL    HW2 3953   0.470   2.083   4.926
 1303SOL     OW 3954   0.866   2.320   4.361
 1303SOL    HW1 3955   0.815   2.381   4.299
 1303SOL    HW2 3956   0.894   2.239   4.310
 1304SOL     OW 3957   1.017   1.915   4.469
 1304SOL    HW1 3958   0.957   1.915   4.389
 1304SOL    HW2 3959   0.993   1.839   4.529
 1305SOL     OW 3960   1.446   3.023   4.582
 1305SOL    HW1 3961   1.370   2.958   4.585
 1305SOL    HW2 3962   1.477   3.033   4.488
 1306SOL     OW 3963   1.468   2.471   4.693
 1306SOL    HW1 3964   1.405   2.393   4.692
 1306SOL    HW2 3965   1.529   2.464   4.772
 1307SOL     OW 3966   1.840   2.669   4.105
 1307SOL    HW1 3967   1.899   2.622   4.170
 1307SOL    HW2 3968   1.812   2.605   4.033
 1308SOL     OW 3969   0.498   3.273   3.868
 1308SOL    HW1 3970   0.416   3.253   3.922
 1308SOL    HW2 3971   0.489   3.230   3.778
 1309SOL     OW 3972   1.675   3.129   4.368
 1309SOL    HW1 3973   1.774   3.126   4.379
 1309SOL    HW2 3974   1.642   3.221   4.387
 1310SOL     OW 3975   1.391   2.435   3.794
 1310SOL    HW1 3976   1.328   2.412   3.869
 1310SOL    HW2 3977   1.484   2.410   3.820
 1311SOL     OW 3978   0.531   2.123   4.033
 1311SOL    HW1 3979   0.579   2.069   3.964
 1311SOL    HW2 3980   0.502   2.210   3.993
 1312SOL     OW 3981   1.752   3.103   5.282
 1312SOL    HW1 3982   1.842   3.061   5.269
 1312SOL    HW2 3983   1.764   3.196   5.317
 1313SOL     OW 3984   1.052   3.211   5.059
 1313SOL    HW1 3985   0.971   3.182   5.110
 1313SOL    HW2 3986   1.134   3.171   5.102
 1314SOL     OW 3987   1.614   3.492   5.382
 1314SOL    HW1 3988   1.598   3.527   5.290
 1314SOL    HW2 3989   1.699   3.440   5.383
 1315SOL     OW 3990   1.138   3.083   4.829
 1315SOL    HW1 3991   1.078   3.117   4.901
 1315SOL    HW2 3992   1.104   3.114   4.740
 1316SOL     OW 3993   1.623   2.958   4.803
 1316SOL    HW1 3994   1.619   3.024   4.879
 1316SOL    HW2 3995   1.548   2.976   4.740
 1317SOL     OW 3996   0.923   1.956   5.115
 1317SOL    HW1 3997   0.945   1.933   5.020
 1317SOL    HW2 3998   1.003   1.999   5.157
 1318SOL     OW 3999   0.979   2.976   5.445
 1318SOL    HW1 4000   0.885   2.996   5.472
 1318SOL    HW2 4001   0.981   2.894   5.389
 1319SOL     OW 4002   0.712   2.917   4.098
 1319SOL    HW1 4003   0.695   2.900   4.195
 1319SOL    HW2 4004   0.791   2.863   4.068
 1320SOL     OW 4005   0.430   2.667   4.973
 1320SOL    HW1 4006   0.500   2.683   5.042
 1320SOL    HW2 4007   0.387   2.578   4.988
 1321SOL     OW 4008   1.262   2.238   5.005
 1321SOL    HW1 4009   1.299   2.317   5.054
 1321SOL    HW2 4010   1.167   2.255   4.980
 1322SOL     OW 4011   0.068   3.426   5.042
 1322SOL    HW1 4012   0.018   3.510   5.062
 1322SOL    HW2 4013   0.165   3.440   5.061
 1323SOL     OW 4014   0.339   2.979   4.215
 1323SOL    HW1 4015   0.348   3.058   4.155
 1323SOL    HW2 4016   0.337   2.896   4.160
 1324SOL     OW 4017   0.548   2.404   4.587
 1324SOL    HW1 4018   0.561   2.463   4.507
 1324SOL    HW2 4019   0.617   2.425   4.656
 1325SOL     OW 4020   1.245   3.216   4.123
 1325SOL    HW1 4021   1.306   3.289   4.152
 1325SOL    HW2 4022   1.152   3.236   4.151
 1326SOL     OW 4023   1.289   3.324   4.871
 1326SOL    HW1 4024   1.347   3.330   4.953
 1326SOL    HW2 4025   1.235   3.240   4.875
 1327SOL     OW 4026   1.577   2.482   4.207
 1327SOL    HW1 4027   1.526   2.530   4.279
 1327SOL    HW2 4028   1.625   2.549   4.151
 1328SOL     OW 4029   0.351   3.396   5.032
 1328SOL    HW1 4030   0.332   3.348   4.946
 1328SOL    HW2 4031   0.450   3.408   5.042
 1329SOL     OW 4032   0.426   2.596   5.322
 1329SOL    HW1 4033   0.487   2.648   5.262
 1329SOL    HW2 4034   0.469   2.509   5.346
 1330SOL     OW 4035   1.609   2.647   5.409
 1330SOL    HW1 4036   1.518   2.689   5.407
 1330SOL    HW2 4037   1.666   2.688   5.338
 1331SOL     OW 4038   0.997   1.997   5.474
 1331SOL    HW1 4039   1.055   2.077   5.459
 1331SOL    HW2 4040   1.046   1.914   5.448
 1332SOL     OW 4041   0.495   1.897   5.474
 1332SOL    HW1 4042   0.449   1.842   5.405
 1332SOL    HW2 4043   0.440   1.978   5.495
 1333SOL     OW 4044   0.588   2.733   4.757
 1333SOL    HW1 4045   0.621   2.828   4.755
 1333SOL    HW2 4046   0.529   2.721   4.836
 1334SOL     OW 4047   1.350   2.719   4.747
 1334SOL    HW1 4048   1.259   2.709   4.707
 1334SOL    HW2 4049   1.400   2.633   4.738
 1335SOL     OW 4050   1.196   2.388   3.988
 1335SOL    HW1 4051   1.210   2.306   4.042
 1335SOL    HW2 4052   1.153   2.459   4.044
 1336SOL     OW 4053   0.308   2.056   4.970
 1336SOL    HW1 4054   0.269   2.091   5.054
 1336SOL    HW2 4055   0.292   1.958   4.963
 1337SOL     OW 4056   0.098   3.167   4.986
 1337SOL    HW1 4057   0.106   3.104   5.064
 1337SOL    HW2 4058   0.088   3.260   5.020
 1338SOL     OW 4059   0.725   2.492   4.778
 1338SOL    HW1 4060   0.802   2.472   4.718
 1338SOL    HW2 4061   0.691   2.584   4.760
 1339SOL     OW 4062   1.737   2.823   5.581
 1339SOL    HW1 4063   1.694   2.753   5.523
 1339SOL    HW2 4064   1.677   2.842   5.659
 1340SOL     OW 4065   0.302   1.922   4.349
 1340SOL    HW1 4066   0.282   2.019   4.367
 1340SOL    HW2 4067   0.314   1.874   4.435
 1341SOL     OW 4068   1.628   2.243   4.085
 1341SOL    HW1 4069   1.654   2.170   4.147
 1341SOL    HW2 4070   1.599   2.323   4.138
 1342SOL     OW 4071   1.024   2.617   4.681
 1342SOL    HW1 4072   1.018   2.639   4.778
 1342SOL    HW2 4073   0.997   2.522   4.666
 1343SOL     OW 4074   0.983   3.425   5.442
 1343SOL    HW1 4075   0.965   3.472   5.356
 1343SOL    HW2 4076   1.030   3.339   5.424
 1344SOL     OW 4077   1.854   3.365   5.327
 1344SOL    HW1 4078   1.873   3.391   5.233
 1344SOL    HW2 4079   1.937   3.376   5.382
 1345SOL     OW 4080   0.366   2.778   5.522
 1345SOL    HW1 4081   0.443   2.803   5.580
 1345SOL    HW2 4082   0.395   2.710   5.455
 1346SOL     OW 4083   1.527   2.130   3.854
 1346SOL    HW1 4084   1.458   2.062   3.879
 1346SOL    HW2 4085   1.564   2.173   3.936
 1347SOL     OW 4086   1.291   2.685   3.751
 1347SOL    HW1 4087   1.332   2.594   3.759
 1347SOL    HW2 4088   1.321   2.729   3.666
 1348SOL     OW 4089   1.071   3.200   4.579
 1348SOL    HW1 4090   1.075   3.122   4.516
 1348SOL    HW2 4091   1.129   3.273   4.544
 1349SOL     OW 4092   0.322   2.663   4.664
 1349SOL    HW1 4093   0.419   2.688   4.665
 1349SOL    HW2 4094   0.310   2.572   4.702
 1350SOL     OW 4095   0.327   2.383   4.737
 1350SOL    HW1 4096   0.289   2.292   4.723
 1350SOL    HW2 4097   0.408   2.394   4.680
 1351SOL     OW 4098   1.134   2.235   5.417
 1351SOL    HW1 4099   1.081   2.291   5.480
 1351SOL    HW2 4100   1.226   2.272   5.408
 1352SOL     OW 4101   1.161   2.065   5.200
 1352SOL    HW1 4102   1.147   2.127   5.277
 1352SOL    HW2 4103   1.204   2.114   5.125
 1353SOL     OW 4104   6.993   3.184   3.948
 1353SOL    HW1 4105   6.920   3.209   4.011
 1353SOL    HW2 4106   0.020   3.089   3.963
 1354SOL     OW 4107   0.098   3.617   4.675
 1354SOL    HW1 4108   0.078   3.542   4.611
 1354SOL    HW2 4109   0.183   3.661   4.648
 1355SOL     OW 4110   0.493   3.441   4.628
 1355SOL    HW1 4111   0.563   3.507   4.655
 1355SOL    HW2 4112   0.533   3.372   4.567
 1356SOL     OW 4113   0.973   2.655   4.947
 1356SOL    HW1 4114   1.034   2.632   5.023
 1356SOL    HW2 4115   0.884   2.613   4.961
 1357SOL     OW 4116   0.051   2.472   4.829
 1357SOL    HW1 4117   0.127   2.425   4.785
 1357SOL    HW2 4118   0.051   2.451   4.927
 1358SOL     OW 4119   0.210   2.373   5.447
 1358SOL    HW1 4120   0.285   2.326   5.400
 1358SOL    HW2 4121   0.190   2.459   5.399
 1359SOL     OW 4122   1.381   2.796   5.378
 1359SOL    HW1 4123   1.404   2.894   5.379
 1359SOL    HW2 4124   1.377   2.764   5.284
 1360SOL     OW 4125   0.816   2.435   4.083
 1360SOL    HW1 4126   0.828   2.354   4.025
 1360SOL    HW2 4127   0.737   2.487   4.051
 1361SOL     OW 4128   1.642   2.465   4.904
 1361SOL    HW1 4129   1.626   2.406   4.983
 1361SOL    HW2 4130   1.734   2.448   4.868
 1362SOL     OW 4131   0.285   3.422   5.464
 1362SOL    HW1 4132   0.230   3.490   5.513
 1362SOL    HW2 4133   0.267   3.331   5.501
 1363SOL     OW 4134   0.708   2.310   4.977
 1363SOL    HW1 4135   0.653   2.231   4.952
 1363SOL    HW2 4136   0.705   2.378   4.903
 1364SOL     OW 4137   0.921   3.542   5.196
 1364SOL    HW1 4138   0.893   3.496   5.112
 1364SOL    HW2 4139   0.919   3.641   5.181
 1365SOL     OW 4140   0.452   2.349   3.907
 1365SOL    HW1 4141   0.508   2.430   3.923
 1365SOL    HW2 4142   0.366   2.356   3.959
 1366SOL     OW 4143   0.165   2.985   5.193
 1366SOL    HW1 4144   0.154   2.924   5.272
 1366SOL    HW2 4145   0.180   2.930   5.111
 1367SOL     OW 4146   1.315   2.905   4.942
 1367SOL    HW1 4147   1.342   2.837   4.874
 1367SOL    HW2 4148   1.248   2.968   4.902
 1368SOL     OW 4149   1.317   2.718   4.024
 1368SOL    HW1 4150   1.240   2.690   4.082
 1368SOL    HW2 4151   1.293   2.703   3.928
 1369SOL     OW 4152   1.782   3.590   4.882
 1369SOL    HW1 4153   1.843   3.624   4.811
 1369SOL    HW2 4154   1.749   3.498   4.857
 1370SOL     OW 4155   1.241   3.595   4.828
 1370SOL    HW1 4156   1.327   3.624   4.786
 1370SOL    HW2 4157   1.247   3.498   4.852
 1371SOL     OW 4158   0.070   3.106   4.728
 1371SOL    HW1 4159   0.088   3.126   4.824
 1371SOL    HW2 4160   6.972   3.093   4.714
 1372SOL     OW 4161   0.682   3.537   5.462
 1372SOL    HW1 4162   0.617   3.612   5.457
 1372SOL    HW2 4163   0.754   3.550   5.394
 1373SOL     OW 4164   1.720   2.013   4.222
 1373SOL    HW1 4165   1.795   2.003   4.157
 1373SOL    HW2 4166   1.702   1.926   4.267
 1374SOL     OW 4167   1.395   3.433   4.212
 1374SOL    HW1 4168   1.459   3.466   4.141
 1374SOL    HW2 4169   1.341   3.510   4.245
 1375SOL     OW 4170   0.140   3.646   5.578
 1375SOL    HW1 4171   0.094   3.573   5.628
 1375SOL    HW2 4172   0.194   3.701   5.641
 1376SOL     OW 4173   1.282   2.791   4.390
 1376SOL    HW1 4174   1.357   2.727   4.406
 1376SOL    HW2 4175   1.316   2.867   4.335
 1377SOL     OW 4176   0.802   3.141   5.149
 1377SOL    HW1 4177   0.774   3.185   5.235
 1377SOL    HW2 4178   0.731   3.156   5.080
 1378SOL     OW 4179   0.668   3.481   3.890
 1378SOL    HW1 4180   0.674   3.518   3.797
 1378SOL    HW2 4181   0.614   3.397   3.889
 1379SOL     OW 4182   1.616   3.591   5.111
 1379SOL    HW1 4183   1.674   3.591   5.030
 1379SOL    HW2 4184   1.602   3.685   5.142
 1380SOL     OW 4185   1.842   2.031   4.688
 1380SOL    HW1 4186   1.876   1.939   4.665
 1380SOL    HW2 4187   1.751   2.043   4.648
 1381SOL     OW 4188   0.263   2.178   4.438
 1381SOL    HW1 4189   0.188   2.241   4.418
 1381SOL    HW2 4190   0.265   2.158   4.536
 1382SOL     OW 4191   1.213   3.448   3.767
 1382SOL    HW1 4192   1.204   3.357   3.807
 1382SOL    HW2 4193   1.180   3.446   3.672
 1383SOL     OW 4194   0.824   2.872   5.103
 1383SOL    HW1 4195   0.873   2.857   5.018
 1383SOL    HW2 4196   0.819   2.971   5.122
 1384SOL     OW 4197   0.918   2.770   4.012
 1384SOL    HW1 4198   0.980   2.804   3.941
 1384SOL    HW2 4199   0.965   2.700   4.065
 1385SOL     OW 4200   1.489   3.458   3.772
 1385SOL    HW1 4201   1.389   3.456   3.771
 1385SOL    HW2 4202   1.524   3.450   3.679
 1386SOL     OW 4203   0.372   3.169   5.209
 1386SOL    HW1 4204   0.359   3.250   5.152
 1386SOL    HW2 4205   0.302   3.101   5.188
 1387SOL     OW 4206   1.613   3.147   5.009
 1387SOL    HW1 4207   1.675   3.127   5.084
 1387SOL    HW2 4208   1.547   3.216   5.038
 1388SOL     OW 4209   1.063   2.969   4.439
 1388SOL    HW1 4210   0.986   2.919   4.479
 1388SOL    HW2 4211   1.132   2.904   4.407
 1389SOL     OW 4212   1.023   2.101   4.691
 1389SOL    HW1 4213   1.019   2.058   4.601
 1389SOL    HW2 4214   1.020   2.031   4.762
 1390SOL     OW 4215   0.608   3.348   4.205
 1390SOL    HW1 4216   0.657   3.294   4.136
 1390SOL    HW2 4217   0.531   3.394   4.161
 1391SOL     OW 4218   1.732   2.256   5.105
 1391SOL    HW1 4219   1.805   2.324   5.105
 1391SOL    HW2 4220   1.757   2.181   5.044
 1392SOL     OW 4221   0.258   3.215   3.999
 1392SOL    HW1 4222   0.159   3.211   3.986
 1392SOL    HW2 4223   0.278   3.252   4.090
 1393SOL     OW 4224   0.121   2.835   5.426
 1393SOL    HW1 4225   0.067   2.886   5.493
 1393SOL    HW2 4226   0.212   2.817   5.464
 1394SOL     OW 4227   0.683   2.057   5.223
 1394SOL    HW1 4228   0.770   2.032   5.180
 1394SOL    HW2 4229   0.701   2.090   5.316
 1395SOL     OW 4230   0.101   2.177   3.759
 1395SOL    HW1 4231   0.004   2.152   3.762
 1395SOL    HW2 4232   0.112   2.264   3.712
 1396SOL     OW 4233   1.422   2.718   5.118
 1396SOL    HW1 4234   1.367   2.782   5.065
 1396SOL    HW2 4235   1.516   2.719   5.084
 1397SOL     OW 4236   0.075   2.051   4.064
 1397SOL    HW1 4237   0.018   2.036   3.982
 1397SOL    HW2 4238   0.154   1.990   4.061
 1398SOL     OW 4239   1.184   3.193   3.854
 1398SOL    HW1 4240   1.084   3.192   3.845
 1398SOL    HW2 4241   1.209   3.190   3.951
 1399SOL     OW 4242   0.625   2.692   5.158
 1399SOL    HW1 4243   0.681   2.773   5.144
 1399SOL    HW2 4244   0.684   2.612   5.167
 1400SOL     OW 4245   1.485   3.652   4.712
 1400SOL    HW1 4246   1.506   3.715   4.638
 1400SOL    HW2 4247   1.570   3.616   4.751
 1401SOL     OW 4248   0.718   2.420   5.427
 1401SOL    HW1 4249   0.765   2.486   5.485
 1401SOL    HW2 4250   0.738   2.327   5.459
 1402SOL     OW 4251   1.474   3.057   5.358
 1402SOL    HW1 4252   1.459   3.071   5.456
 1402SOL    HW2 4253   1.570   3.076   5.336
 1403SOL     OW 4254   0.370   3.609   5.287
 1403SOL    HW1 4255   0.283   3.655   5.272
 1403SOL    HW2 4256   0.354   3.525   5.339
 1404SOL     OW 4257   1.665   2.740   4.980
 1404SOL    HW1 4258   1.660   2.649   4.938
 1404SOL    HW2 4259   1.652   2.809   4.909
 1405SOL     OW 4260   1.220   2.179   4.183
 1405SOL    HW1 4261   1.283   2.102   4.174
 1405SOL    HW2 4262   1.246   2.234   4.262
 1406SOL     OW 4263   0.588   2.599   4.394
 1406SOL    HW1 4264   0.629   2.690   4.386
 1406SOL    HW2 4265   0.520   2.586   4.322
 1407SOL     OW 4266   1.750   2.227   5.377
 1407SOL    HW1 4267   1.741   2.243   5.279
 1407SOL    HW2 4268   1.675   2.167   5.408
 1408SOL     OW 4269   1.753   2.794   5.233
 1408SOL    HW1 4270   1.741   2.891   5.255
 1408SOL    HW2 4271   1.731   2.778   5.137
 1409SOL     OW 4272   0.915   3.234   3.814
 1409SOL    HW1 4273   0.855   3.218   3.893
 1409SOL    HW2 4274   0.872   3.301   3.753
 1410SOL     OW 4275   0.667   3.646   4.666
 1410SOL    HW1 4276   0.643   3.741   4.644
 1410SOL    HW2 4277   0.765   3.633   4.654
 1411SOL     OW 4278   0.869   2.833   4.579
 1411SOL    HW1 4279   0.920   2.755   4.616
 1411SOL    HW2 4280   0.826   2.883   4.655
 1412SOL     OW 4281   1.076   2.838   3.806
 1412SOL    HW1 4282   1.062   2.903   3.731
 1412SOL    HW2 4283   1.156   2.782   3.788
 1413SOL     OW 4284   1.845   3.418   4.571
 1413SOL    HW1 4285   1.768   3.407   4.508
 1413SOL    HW2 4286   1.839   3.349   4.643
 1414SOL     OW 4287   0.242   3.170   5.589
 1414SOL    HW1 4288   0.150   3.138   5.569
 1414SOL    HW2 4289   0.253   3.180   5.688
 1415SOL     OW 4290   0.153   3.136   4.416
 1415SOL    HW1 4291   0.107   3.090   4.493
 1415SOL    HW2 4292   0.197   3.067   4.358
 1416SOL     OW 4293   0.686   3.272   5.360
 1416SOL    HW1 4294   0.605   3.222   5.388
 1416SOL    HW2 4295   0.682   3.365   5.396
 1417SOL     OW 4296   1.804   2.044   4.957
 1417SOL    HW1 4297   1.819   1.948   4.982
 1417SOL    HW2 4298   1.817   2.056   4.859
 1418SOL     OW 4299   0.453   2.290   4.261
 1418SOL    HW1 4300   0.480   2.220   4.194
 1418SOL    HW2 4301   0.397   2.248   4.332
 1419SOL     OW 4302   1.692   3.344   4.818
 1419SOL    HW1 4303   1.612   3.327   4.761
 1419SOL    HW2 4304   1.699   3.273   4.888
 1420SOL     OW 4305   0.332   2.414   5.015
 1420SOL    HW1 4306   0.388   2.358   5.076
 1420SOL    HW2 4307   0.348   2.387   4.921
 1421SOL     OW 4308   0.829   3.441   4.402
 1421SOL    HW1 4309   0.814   3.505   4.326
 1421SOL    HW2 4310   0.752   3.378   4.408
 1422SOL     OW 4311   1.430   2.094   4.841
 1422SOL    HW1 4312   1.451   2.003   4.878
 1422SOL    HW2 4313   1.376   2.145   4.908
 1423SOL     OW 4314   1.010   1.878   4.861
 1423SOL    HW1 4315   0.945   1.815   4.817
 1423SOL    HW2 4316   1.101   1.837   4.862
 1424SOL     OW 4317   0.777   3.184   4.050
 1424SOL    HW1 4318   0.749   3.090   4.065
 1424SOL    HW2 4319   0.858   3.204   4.105
 1425SOL     OW 4320   0.626   3.421   5.014
 1425SOL    HW1 4321   0.622   3.507   5.064
 1425SOL    HW2 4322   0.716   3.409   4.973
 1426SOL     OW 4323   1.355   1.911   3.895
 1426SOL    HW1 4324   1.398   1.843   3.836
 1426SOL    HW2 4325   1.262   1.882   3.917
 1427SOL     OW 4326   1.290   2.327   4.404
 1427SOL    HW1 4327   1.238   2.412   4.406
 1427SOL    HW2 4328   1.289   2.285   4.494
 1428SOL     OW 4329   1.586   2.064   4.609
 1428SOL    HW1 4330   1.528   2.084   4.688
 1428SOL    HW2 4331   1.588   2.144   4.548
 1429SOL     OW 4332   0.070   2.926   4.001
 1429SOL    HW1 4333   0.162   2.888   4.001
 1429SOL    HW2 4334   0.004   2.853   4.021
 1430SOL     OW 4335   0.886   3.527   4.064
 1430SOL    HW1 4336   0.810   3.504   4.003
 1430SOL    HW2 4337   0.859   3.603   4.123
 1431SOL     OW 4338   0.181   2.513   5.708
 1431SOL    HW1 4339   0.175   2.448   5.783
 1431SOL    HW2 4340   0.224   2.470   5.629
 1432SOL     OW 4341   0.227   2.138   6.571
 1432SOL    HW1 4342   0.282   2.104   6.648
 1432SOL    HW2 4343   0.131   2.117   6.587
 1433SOL     OW 4344   6.990   2.246   6.239
 1433SOL    HW1 4345   6.941   2.241   6.326
 1433SOL    HW2 4346   0.011   2.153   6.208
 1434SOL     OW 4347   0.560   3.146   6.760
 1434SOL    HW1 4348   0.473   3.167   6.715
 1434SOL    HW2 4349   0.587   3.224   6.817
 1435SOL     OW 4350   1.565   3.375   6.294
 1435SOL    HW1 4351   1.520   3.352   6.380
 1435SOL    HW2 4352   1.496   3.383   6.222
 1436SOL     OW 4353   1.133   2.565   6.280
 1436SOL    HW1 4354   1.184   2.649   6.265
 1436SOL    HW2 4355   1.081   2.572   6.365
 1437SOL     OW 4356   1.772   2.460   5.808
 1437SOL    HW1 4357   1.747   2.456   5.711
 1437SOL    HW2 4358   1.733   2.381   5.856
 1438SOL     OW 4359   0.755   3.005   6.628
 1438SOL    HW1 4360   0.682   3.032   6.691
 1438SOL    HW2 4361   0.788   3.085   6.580
 1439SOL     OW 4362   0.683   2.861   6.236
 1439SOL    HW1 4363   0.755   2.851   6.305
 1439SOL    HW2 4364   0.609   2.917   6.273
 1440SOL     OW 4365   0.337   3.266   6.639
 1440SOL    HW1 4366   0.255   3.232   6.592
 1440SOL    HW2 4367   0.385   3.330   6.580
 1441SOL     OW 4368   1.610   2.308   6.331
 1441SOL    HW1 4369   1.535   2.324   6.266
 1441SOL    HW2 4370   1.608   2.379   6.402
 1442SOL     OW 4371   0.226   3.572   6.052
 1442SOL    HW1 4372   0.241   3.651   6.111
 1442SOL    HW2 4373   0.297   3.569   5.981
 1443SOL     OW 4374   0.280   3.306   6.105
 1443SOL    HW1 4375   0.255   3.402   6.110
 1443SOL    HW2 4376   0.231   3.255   6.176
 1444SOL     OW 4377   0.271   2.942   6.491
 1444SOL    HW1 4378   0.269   2.847   6.521
 1444SOL    HW2 4379   0.196   2.993   6.534
 1445SOL     OW 4380   0.610   3.667   6.985
 1445SOL    HW1 4381   0.517   3.647   0.013
 1445SOL    HW2 4382   0.636   3.758   0.017
 1446SOL     OW 4383   0.580   2.850   5.728
 1446SOL    HW1 4384   0.628   2.897   5.654
 1446SOL    HW2 4385   0.619   2.878   5.816
 1447SOL     OW 4386   0.132   2.475   6.160
 1447SOL    HW1 4387   0.063   2.406   6.183
 1447SOL    HW2 4388   0.122   2.554   6.221
 1448SOL     OW 4389   1.846   3.617   5.918
 1448SOL    HW1 4390   1.917   3.587   5.982
 1448SOL    HW2 4391   1.862   3.713   5.894
 1449SOL     OW 4392   0.034   3.454   5.734
 1449SOL    HW1 4393   0.025   3.355   5.748
 1449SOL    HW2 4394   6.957   3.500   5.777
 1450SOL     OW 4395   1.692   2.783   6.231
 1450SOL    HW1 4396   1.775   2.730   6.212
 1450SOL    HW2 4397   1.667   2.837   6.151
 1451SOL     OW 4398   1.653   2.966   6.017
 1451SOL    HW1 4399   1.742   2.963   5.972
 1451SOL    HW2 4400   1.656   3.034   6.091
 1452SOL     OW 4401   0.611   3.253   6.320
 1452SOL    HW1 4402   0.564   3.166   6.334
 1452SOL    HW2 4403   0.598   3.284   6.226
 1453SOL     OW 4404   0.818   1.872   6.095
 1453SOL    HW1 4405   0.863   1.958   6.072
 1453SOL    HW2 4406   0.719   1.888   6.103
 1454SOL     OW 4407   0.202   2.810   6.831
 1454SOL    HW1 4408   0.291   2.766   6.823
 1454SOL    HW2 4409   0.142   2.778   6.757
 1455SOL     OW 4410   1.532   2.863   5.790
 1455SOL    HW1 4411   1.458   2.803   5.820
 1455SOL    HW2 4412   1.579   2.901   5.870
 1456SOL     OW 4413   1.454   3.285   6.532
 1456SOL    HW1 4414   1.396   3.299   6.612
 1456SOL    HW2 4415   1.451   3.189   6.504
 1457SOL     OW 4416   1.649   3.613   6.161
 1457SOL    HW1 4417   1.631   3.584   6.068
 1457SOL    HW2 4418   1.629   3.539   6.225
 1458SOL     OW 4419   0.588   2.578   5.852
 1458SOL    HW1 4420   0.599   2.666   5.806
 1458SOL    HW2 4421   0.525   2.587   5.928
 1459SOL     OW 4422   1.275   2.220   6.518
 1459SOL    HW1 4423   1.181   2.186   6.525
 1459SOL    HW2 4424   1.333   2.170   6.582
 1460SOL     OW 4425   1.583   3.535   5.894
 1460SOL    HW1 4426   1.679   3.562   5.890
 1460SOL    HW2 4427   1.550   3.518   5.801
 1461SOL     OW 4428   0.793   2.472   0.047
 1461SOL    HW1 4429   0.730   2.515   0.112
 1461SOL    HW2 4430   0.741   2.417   6.982
 1462SOL     OW 4431   1.007   2.257   6.793
 1462SOL    HW1 4432   0.947   2.310   6.853
 1462SOL    HW2 4433   0.951   2.208   6.725
 1463SOL     OW 4434   1.050   2.561   6.010
 1463SOL    HW1 4435   1.072   2.556   6.108
 1463SOL    HW2 4436   0.963   2.513   5.994
 1464SOL     OW 4437   0.103   2.677   6.360
 1464SOL    HW1 4438   0.197   2.671   6.395
 1464SOL    HW2 4439   0.042   2.710   6.433
 1465SOL     OW 4440   0.108   3.695   0.174
 1465SOL    HW1 4441   0.099   3.663   0.268
 1465SOL    HW2 4442   0.018   3.715   0.136
 1466SOL     OW 4443   0.896   2.215   5.783
 1466SOL    HW1 4444   0.937   2.282   5.722
 1466SOL    HW2 4445   0.902   2.124   5.742
 1467SOL     OW 4446   1.380   3.005   6.119
 1467SOL    HW1 4447   1.465   2.990   6.068
 1467SOL    HW2 4448   1.324   3.072   6.071
 1468SOL     OW 4449   0.551   2.035   6.483
 1468SOL    HW1 4450   0.564   2.064   6.578
 1468SOL    HW2 4451   0.554   2.114   6.422
 1469SOL     OW 4452   0.994   3.305   6.049
 1469SOL    HW1 4453   0.964   3.386   5.998
 1469SOL    HW2 4454   0.976   3.319   6.147
 1470SOL     OW 4455   0.357   3.682   6.451
 1470SOL    HW1 4456   0.396   3.591   6.466
 1470SOL    HW2 4457   0.425   3.751   6.474
 1471SOL     OW 4458   1.804   2.918   6.450
 1471SOL    HW1 4459   1.754   2.893   6.367
 1471SOL    HW2 4460   1.742   2.918   6.528
 1472SOL     OW 4461   0.317   2.807   5.837
 1472SOL    HW1 4462   0.404   2.832   5.795
 1472SOL    HW2 4463   0.286   2.719   5.800
 1473SOL     OW 4464   1.483   2.613   6.305
 1473SOL    HW1 4465   1.476   2.566   6.393
 1473SOL    HW2 4466   1.564   2.672   6.304
 1474SOL     OW 4467   1.122   3.637   5.812
 1474SOL    HW1 4468   1.042   3.601   5.860
 1474SOL    HW2 4469   1.152   3.573   5.741
 1475SOL     OW 4470   1.625   3.244   5.675
 1475SOL    HW1 4471   1.586   3.335   5.659
 1475SOL    HW2 4472   1.555   3.175   5.656
 1476SOL     OW 4473   0.468   3.596   5.902
 1476SOL    HW1 4474   0.509   3.657   5.970
 1476SOL    HW2 4475   0.540   3.560   5.843
 1477SOL     OW 4476   1.401   1.966   6.024
 1477SOL    HW1 4477   1.389   1.940   5.928
 1477SOL    HW2 4478   1.498   1.975   6.044
 1478SOL     OW 4479   0.253   3.671   6.777
 1478SOL    HW1 4480   0.306   3.596   6.817
 1478SOL    HW2 4481   0.187   3.634   6.712
 1479SOL     OW 4482   0.936   3.563   6.480
 1479SOL    HW1 4483   1.020   3.517   6.510
 1479SOL    HW2 4484   0.894   3.511   6.406
 1480SOL     OW 4485   0.402   2.544   6.059
 1480SOL    HW1 4486   0.429   2.450   6.080
 1480SOL    HW2 4487   0.304   2.555   6.078
 1481SOL     OW 4488   0.644   1.977   5.688
 1481SOL    HW1 4489   0.711   1.906   5.709
 1481SOL    HW2 4490   0.586   1.946   5.612
 1482SOL     OW 4491   0.874   3.378   6.760
 1482SOL    HW1 4492   0.853   3.344   6.668
 1482SOL    HW2 4493   0.914   3.304   6.815
 1483SOL     OW 4494   0.819   3.249   6.520
 1483SOL    HW1 4495   0.909   3.239   6.477
 1483SOL    HW2 4496   0.749   3.256   6.449
 1484SOL     OW 4497   0.928   2.370   6.484
 1484SOL    HW1 4498   0.901   2.362   6.388
 1484SOL    HW2 4499   0.965   2.283   6.516
 1485SOL     OW 4500   0.547   1.925   6.081
 1485SOL    HW1 4501   0.464   1.922   6.137
 1485SOL    HW2 4502   0.543   2.005   6.021
 1486SOL     OW 4503   1.425   3.061   5.629
 1486SOL    HW1 4504   1.459   2.984   5.682
 1486SOL    HW2 4505   1.337   3.091   5.664
 1487SOL     OW 4506   0.291   1.905   5.774
 1487SOL    HW1 4507   0.340   1.984   5.737
 1487SOL    HW2 4508   0.357   1.840   5.813
 1488SOL     OW 4509   0.947   2.113   6.042
 1488SOL    HW1 4510   0.916   2.154   5.956
 1488SOL    HW2 4511   1.045   2.126   6.052
 1489SOL     OW 4512   1.219   3.432   6.381
 1489SOL    HW1 4513   1.232   3.503   6.311
 1489SOL    HW2 4514   1.296   3.432   6.444
 1490SOL     OW 4515   0.468   3.013   6.317
 1490SOL    HW1 4516   0.403   2.991   6.390
 1490SOL    HW2 4517   0.425   3.000   6.228
 1491SOL     OW 4518   1.261   3.653   6.197
 1491SOL    HW1 4519   1.313   3.716   6.139
 1491SOL    HW2 4520   1.187   3.703   6.241
 1492SOL     OW 4521   1.021   2.397   5.616
 1492SOL    HW1 4522   0.976   2.483   5.592
 1492SOL    HW2 4523   1.091   2.414   5.686
 1493SOL     OW 4524   0.582   2.082   6.752
 1493SOL    HW1 4525   0.628   1.999   6.786
 1493SOL    HW2 4526   0.486   2.080   6.781
 1494SOL     OW 4527   0.865   2.321   6.222
 1494SOL    HW1 4528   0.816   2.381   6.159
 1494SOL    HW2 4529   0.894   2.239   6.174
 1495SOL     OW 4530   1.019   1.910   6.325
 1495SOL    HW1 4531   0.956   1.911   6.247
 1495SOL    HW2 4532   0.993   1.837   6.388
 1496SOL     OW 4533   1.440   3.022   6.441
 1496SOL    HW1 4534   1.370   2.951   6.445
 1496SOL    HW2 4535   1.470   3.035   6.347
 1497SOL     OW 4536   1.467   2.468   6.548
 1497SOL    HW1 4537   1.403   2.391   6.554
 1497SOL    HW2 4538   1.529   2.465   6.626
 1498SOL     OW 4539   1.841   2.670   5.966
 1498SOL    HW1 4540   1.900   2.623   6.032
 1498SOL    HW2 4541   1.813   2.606   5.895
 1499SOL     OW 4542   0.496   3.283   5.738
 1499SOL    HW1 4543   0.415   3.258   5.790
 1499SOL    HW2 4544   0.486   3.253   5.644
 1500SOL     OW 4545   1.675   3.130   6.227
 1500SOL    HW1 4546   1.775   3.127   6.241
 1500SOL    HW2 4547   1.642   3.222   6.249
 1501SOL     OW 4548   1.390   2.437   5.656
 1501SOL    HW1 4549   1.327   2.414   5.731
 1501SOL    HW2 4550   1.483   2.411   5.682
 1502SOL     OW 4551   0.531   2.123   5.895
 1502SOL    HW1 4552   0.579   2.069   5.826
 1502SOL    HW2 4553   0.503   2.210   5.855
 1503SOL     OW 4554   1.753   3.057   0.183
 1503SOL    HW1 4555   1.851   3.038   0.183
 1503SOL    HW2 4556   1.737   3.152   0.155
 1504SOL     OW 4557   1.118   3.102   6.694
 1504SOL    HW1 4558   1.036   3.055   6.727
 1504SOL    HW2 4559   1.105   3.127   6.598
 1505SOL     OW 4560   1.621   2.940   6.646
 1505SOL    HW1 4561   1.622   3.009   6.718
 1505SOL    HW2 4562   1.546   2.959   6.583
 1506SOL     OW 4563   0.711   2.919   5.960
 1506SOL    HW1 4564   0.696   2.902   6.058
 1506SOL    HW2 4565   0.791   2.866   5.930
 1507SOL     OW 4566   0.438   2.666   6.846
 1507SOL    HW1 4567   0.489   2.695   6.927
 1507SOL    HW2 4568   0.397   2.577   6.863
 1508SOL     OW 4569   1.270   2.251   6.856
 1508SOL    HW1 4570   1.297   2.324   6.918
 1508SOL    HW2 4571   1.175   2.265   6.827
 1509SOL     OW 4572   0.083   3.430   6.858
 1509SOL    HW1 4573   0.036   3.462   6.940
 1509SOL    HW2 4574   0.182   3.437   6.871
 1510SOL     OW 4575   0.339   2.979   6.077
 1510SOL    HW1 4576   0.349   3.059   6.018
 1510SOL    HW2 4577   0.338   2.896   6.022
 1511SOL     OW 4578   0.544   2.407   6.451
 1511SOL    HW1 4579   0.559   2.465   6.371
 1511SOL    HW2 4580   0.616   2.425   6.518
 1512SOL     OW 4581   1.245   3.217   5.979
 1512SOL    HW1 4582   1.307   3.289   6.010
 1512SOL    HW2 4583   1.152   3.237   6.009
 1513SOL     OW 4584   1.284   3.312   6.747
 1513SOL    HW1 4585   1.316   3.303   6.841
 1513SOL    HW2 4586   1.221   3.237   6.727
 1514SOL     OW 4587   1.576   2.483   6.069
 1514SOL    HW1 4588   1.526   2.529   6.142
 1514SOL    HW2 4589   1.623   2.551   6.012
 1515SOL     OW 4590   0.363   3.434   6.848
 1515SOL    HW1 4591   0.343   3.363   6.781
 1515SOL    HW2 4592   0.460   3.429   6.873
 1516SOL     OW 4593   0.588   2.732   6.621
 1516SOL    HW1 4594   0.620   2.827   6.617
 1516SOL    HW2 4595   0.533   2.719   6.704
 1517SOL     OW 4596   1.344   2.718   6.592
 1517SOL    HW1 4597   1.253   2.701   6.554
 1517SOL    HW2 4598   1.398   2.634   6.588
 1518SOL     OW 4599   1.197   2.388   5.850
 1518SOL    HW1 4600   1.210   2.306   5.904
 1518SOL    HW2 4601   1.153   2.459   5.905
 1519SOL     OW 4602   0.324   2.059   6.823
 1519SOL    HW1 4603   0.307   2.074   6.920
 1519SOL    HW2 4604   0.300   1.966   6.798
 1520SOL     OW 4605   0.054   3.160   6.831
 1520SOL    HW1 4606   0.087   3.096   6.901
 1520SOL    HW2 4607   0.086   3.252   6.854
 1521SOL     OW 4608   0.725   2.488   6.640
 1521SOL    HW1 4609   0.804   2.467   6.582
 1521SOL    HW2 4610   0.695   2.582   6.623
 1522SOL     OW 4611   0.302   1.923   6.209
 1522SOL    HW1 4612   0.282   2.019   6.227
 1522SOL    HW2 4613   0.314   1.874   6.295
 1523SOL     OW 4614   1.628   2.244   5.947
 1523SOL    HW1 4615   1.654   2.170   6.009
 1523SOL    HW2 4616   1.599   2.323   6.000
 1524SOL     OW 4617   1.022   2.619   6.550
 1524SOL    HW1 4618   1.016   2.639   6.647
 1524SOL    HW2 4619   0.997   2.523   6.534
 1525SOL     OW 4620   1.922   3.337   0.195
 1525SOL    HW1 4621   1.901   3.369   0.102
 1525SOL    HW2 4622   1.917   3.414   0.258
 1526SOL     OW 4623   1.527   2.130   5.716
 1526SOL    HW1 4624   1.458   2.062   5.741
 1526SOL    HW2 4625   1.564   2.173   5.798
 1527SOL     OW 4626   1.288   2.687   5.611
 1527SOL    HW1 4627   1.329   2.597   5.620
 1527SOL    HW2 4628   1.319   2.730   5.527
 1528SOL     OW 4629   1.073   3.200   6.439
 1528SOL    HW1 4630   1.077   3.122   6.376
 1528SOL    HW2 4631   1.130   3.274   6.403
 1529SOL     OW 4632   0.322   2.664   6.531
 1529SOL    HW1 4633   0.419   2.688   6.529
 1529SOL    HW2 4634   0.312   2.571   6.565
 1530SOL     OW 4635   0.326   2.386   6.604
 1530SOL    HW1 4636   0.288   2.295   6.587
 1530SOL    HW2 4637   0.408   2.398   6.548
 1531SOL     OW 4638   1.143   2.103   0.055
 1531SOL    HW1 4639   1.204   2.130   0.130
 1531SOL    HW2 4640   1.178   2.139   6.969
 1532SOL     OW 4641   6.992   3.184   5.806
 1532SOL    HW1 4642   6.919   3.209   5.870
 1532SOL    HW2 4643   0.020   3.089   5.823
 1533SOL     OW 4644   0.098   3.619   6.534
 1533SOL    HW1 4645   0.078   3.544   6.471
 1533SOL    HW2 4646   0.185   3.661   6.510
 1534SOL     OW 4647   0.493   3.440   6.491
 1534SOL    HW1 4648   0.562   3.506   6.519
 1534SOL    HW2 4649   0.534   3.373   6.429
 1535SOL     OW 4650   0.978   2.657   6.822
 1535SOL    HW1 4651   1.058   2.637   6.880
 1535SOL    HW2 4652   0.898   2.610   6.860
 1536SOL     OW 4653   0.060   2.477   6.692
 1536SOL    HW1 4654   0.127   2.432   6.633
 1536SOL    HW2 4655   0.039   2.417   6.770
 1537SOL     OW 4656   0.816   2.435   5.946
 1537SOL    HW1 4657   0.828   2.354   5.887
 1537SOL    HW2 4658   0.737   2.488   5.913
 1538SOL     OW 4659   1.648   2.472   6.751
 1538SOL    HW1 4660   1.632   2.413   6.830
 1538SOL    HW2 4661   1.742   2.462   6.719
 1539SOL     OW 4662   0.673   2.327   6.850
 1539SOL    HW1 4663   0.644   2.237   6.819
 1539SOL    HW2 4664   0.688   2.387   6.772
 1540SOL     OW 4665   0.943   3.524   6.995
 1540SOL    HW1 4666   0.913   3.511   6.901
 1540SOL    HW2 4667   0.924   3.617   0.025
 1541SOL     OW 4668   0.452   2.349   5.769
 1541SOL    HW1 4669   0.508   2.430   5.785
 1541SOL    HW2 4670   0.367   2.356   5.821
 1542SOL     OW 4671   0.161   2.986   0.026
 1542SOL    HW1 4672   0.179   2.938   0.113
 1542SOL    HW2 4673   0.176   2.923   6.950
 1543SOL     OW 4674   1.282   2.864   6.813
 1543SOL    HW1 4675   1.319   2.814   6.735
 1543SOL    HW2 4676   1.260   2.958   6.785
 1544SOL     OW 4677   1.316   2.719   5.884
 1544SOL    HW1 4678   1.241   2.691   5.943
 1544SOL    HW2 4679   1.291   2.706   5.788
 1545SOL     OW 4680   1.785   3.607   6.743
 1545SOL    HW1 4681   1.847   3.632   6.668
 1545SOL    HW2 4682   1.745   3.517   6.725
 1546SOL     OW 4683   1.246   3.586   6.698
 1546SOL    HW1 4684   1.330   3.616   6.652
 1546SOL    HW2 4685   1.252   3.489   6.719
 1547SOL     OW 4686   0.060   3.102   6.572
 1547SOL    HW1 4687   0.067   3.122   6.670
 1547SOL    HW2 4688   6.964   3.091   6.547
 1548SOL     OW 4689   1.721   2.014   6.084
 1548SOL    HW1 4690   1.796   2.003   6.019
 1548SOL    HW2 4691   1.703   1.926   6.129
 1549SOL     OW 4692   1.396   3.433   6.075
 1549SOL    HW1 4693   1.458   3.465   6.003
 1549SOL    HW2 4694   1.340   3.509   6.107
 1550SOL     OW 4695   1.282   2.791   6.252
 1550SOL    HW1 4696   1.356   2.726   6.268
 1550SOL    HW2 4697   1.315   2.867   6.197
 1551SOL     OW 4698   0.673   3.486   5.740
 1551SOL    HW1 4699   0.688   3.505   5.643
 1551SOL    HW2 4700   0.616   3.405   5.749
 1552SOL     OW 4701   1.842   2.034   6.557
 1552SOL    HW1 4702   1.876   1.943   6.534
 1552SOL    HW2 4703   1.751   2.046   6.518
 1553SOL     OW 4704   0.263   2.179   6.297
 1553SOL    HW1 4705   0.187   2.240   6.275
 1553SOL    HW2 4706   0.264   2.160   6.395
 1554SOL     OW 4707   1.209   3.462   5.619
 1554SOL    HW1 4708   1.199   3.368   5.652
 1554SOL    HW2 4709   1.141   3.479   5.547
 1555SOL     OW 4710   0.775   2.886   6.953
 1555SOL    HW1 4711   0.835   2.840   6.888
 1555SOL    HW2 4712   0.821   2.967   6.989
 1556SOL     OW 4713   0.919   2.772   5.873
 1556SOL    HW1 4714   0.980   2.808   5.802
 1556SOL    HW2 4715   0.967   2.701   5.925
 1557SOL     OW 4716   1.488   3.493   5.628
 1557SOL    HW1 4717   1.389   3.481   5.617
 1557SOL    HW2 4718   1.532   3.498   5.539
 1558SOL     OW 4719   1.618   3.130   6.832
 1558SOL    HW1 4720   1.703   3.144   6.883
 1558SOL    HW2 4721   1.543   3.114   6.896
 1559SOL     OW 4722   1.063   2.968   6.301
 1559SOL    HW1 4723   0.986   2.917   6.340
 1559SOL    HW2 4724   1.132   2.903   6.269
 1560SOL     OW 4725   1.021   2.099   6.539
 1560SOL    HW1 4726   1.019   2.050   6.452
 1560SOL    HW2 4727   1.023   2.033   6.614
 1561SOL     OW 4728   0.608   3.349   6.067
 1561SOL    HW1 4729   0.659   3.295   5.999
 1561SOL    HW2 4730   0.529   3.391   6.023
 1562SOL     OW 4731   1.698   2.286   6.944
 1562SOL    HW1 4732   1.753   2.294   0.026
 1562SOL    HW2 4733   1.705   2.193   6.907
 1563SOL     OW 4734   0.257   3.213   5.860
 1563SOL    HW1 4735   0.158   3.212   5.843
 1563SOL    HW2 4736   0.276   3.250   5.951
 1564SOL     OW 4737   0.676   2.049   0.078
 1564SOL    HW1 4738   0.770   2.021   0.059
 1564SOL    HW2 4739   0.677   2.133   0.132
 1565SOL     OW 4740   0.101   2.177   5.621
 1565SOL    HW1 4741   0.004   2.152   5.624
 1565SOL    HW2 4742   0.112   2.264   5.573
 1566SOL     OW 4743   0.074   2.052   5.926
 1566SOL    HW1 4744   0.018   2.036   5.845
 1566SOL    HW2 4745   0.154   1.991   5.923
 1567SOL     OW 4746   1.180   3.199   5.706
 1567SOL    HW1 4747   1.083   3.172   5.699
 1567SOL    HW2 4748   1.207   3.200   5.803
 1568SOL     OW 4749   1.487   3.647   6.576
 1568SOL    HW1 4750   1.502   3.712   6.502
 1568SOL    HW2 4751   1.576   3.618   6.613
 1569SOL     OW 4752   1.495   3.161   0.285
 1569SOL    HW1 4753   1.408   3.118   0.308
 1569SOL    HW2 4754   1.564   3.091   0.268
 1570SOL     OW 4755   0.375   3.626   0.102
 1570SOL    HW1 4756   0.286   3.673   0.101
 1570SOL    HW2 4757   0.401   3.607   0.197
 1571SOL     OW 4758   1.703   2.738   6.828
 1571SOL    HW1 4759   1.669   2.648   6.801
 1571SOL    HW2 4760   1.668   2.807   6.765
 1572SOL     OW 4761   1.220   2.179   6.045
 1572SOL    HW1 4762   1.283   2.102   6.036
 1572SOL    HW2 4763   1.246   2.234   6.125
 1573SOL     OW 4764   0.586   2.600   6.257
 1573SOL    HW1 4765   0.628   2.690   6.247
 1573SOL    HW2 4766   0.519   2.586   6.184
 1574SOL     OW 4767   1.773   2.771   0.094
 1574SOL    HW1 4768   1.759   2.867   0.120
 1574SOL    HW2 4769   1.747   2.758   6.998
 1575SOL     OW 4770   0.871   3.225   5.633
 1575SOL    HW1 4771   0.826   3.249   5.719
 1575SOL    HW2 4772   0.882   3.307   5.577
 1576SOL     OW 4773   0.668   3.646   6.532
 1576SOL    HW1 4774   0.644   3.739   6.506
 1576SOL    HW2 4775   0.766   3.632   6.518
 1577SOL     OW 4776   0.869   2.832   6.442
 1577SOL    HW1 4777   0.919   2.754   6.480
 1577SOL    HW2 4778   0.828   2.885   6.517
 1578SOL     OW 4779   1.076   2.850   5.669
 1578SOL    HW1 4780   1.050   2.905   5.590
 1578SOL    HW2 4781   1.154   2.792   5.645
 1579SOL     OW 4782   1.847   3.419   6.432
 1579SOL    HW1 4783   1.769   3.406   6.371
 1579SOL    HW2 4784   1.848   3.346   6.501
 1580SOL     OW 4785   0.155   3.136   6.278
 1580SOL    HW1 4786   0.111   3.092   6.356
 1580SOL    HW2 4787   0.196   3.067   6.219
 1581SOL     OW 4788   1.810   2.035   6.835
 1581SOL    HW1 4789   1.792   1.936   6.837
 1581SOL    HW2 4790   1.824   2.064   6.741
 1582SOL     OW 4791   0.455   2.290   6.122
 1582SOL    HW1 4792   0.482   2.221   6.055
 1582SOL    HW2 4793   0.397   2.248   6.192
 1583SOL     OW 4794   1.677   3.365   6.683
 1583SOL    HW1 4795   1.603   3.346   6.618
 1583SOL    HW2 4796   1.685   3.289   6.747
 1584SOL     OW 4797   0.321   2.404   6.884
 1584SOL    HW1 4798   0.393   2.347   6.924
 1584SOL    HW2 4799   0.323   2.396   6.785
 1585SOL     OW 4800   0.829   3.441   6.262
 1585SOL    HW1 4801   0.816   3.505   6.186
 1585SOL    HW2 4802   0.752   3.378   6.267
 1586SOL     OW 4803   1.434   2.098   6.703
 1586SOL    HW1 4804   1.464   2.015   6.750
 1586SOL    HW2 4805   1.380   2.155   6.766
 1587SOL     OW 4806   1.017   1.880   6.711
 1587SOL    HW1 4807   0.954   1.814   6.669
 1587SOL    HW2 4808   1.107   1.837   6.721
 1588SOL     OW 4809   0.775   3.193   5.908
 1588SOL    HW1 4810   0.747   3.097   5.917
 1588SOL    HW2 4811   0.860   3.208   5.959
 1589SOL     OW 4812   0.634   3.423   6.874
 1589SOL    HW1 4813   0.629   3.519   6.901
 1589SOL    HW2 4814   0.719   3.406   6.824
 1590SOL     OW 4815   1.355   1.911   5.757
 1590SOL    HW1 4816   1.398   1.843   5.697
 1590SOL    HW2 4817   1.262   1.883   5.779
 1591SOL     OW 4818   1.291   2.326   6.266
 1591SOL    HW1 4819   1.239   2.411   6.268
 1591SOL    HW2 4820   1.288   2.283   6.356
 1592SOL     OW 4821   1.587   2.066   6.473
 1592SOL    HW1 4822   1.527   2.086   6.550
 1592SOL    HW2 4823   1.588   2.144   6.410
 1593SOL     OW 4824   0.070   2.925   5.863
 1593SOL    HW1 4825   0.163   2.889   5.862
 1593SOL    HW2 4826   0.005   2.852   5.883
 1594SOL     OW 4827   0.885   3.526   5.926
 1594SOL    HW1 4828   0.811   3.505   5.862
 1594SOL    HW2 4829   0.859   3.603   5.984
 1595SOL     OW 4830   0.231   4.375   0.129
 1595SOL    HW1 4831   0.155   4.323   0.167
 1595SOL    HW2 4832   0.250   4.343   0.036
 1596SOL     OW 4833   0.230   3.996   0.989
 1596SOL    HW1 4834   0.282   3.962   1.068
 1596SOL    HW2 4835   0.133   3.980   1.004
 1597SOL     OW 4836   6.987   4.111   0.657
 1597SOL    HW1 4837   6.939   4.108   0.745
 1597SOL    HW2 4838   0.005   4.017   0.626
 1598SOL     OW 4839   0.570   5.022   1.188
 1598SOL    HW1 4840   0.480   5.019   1.144
 1598SOL    HW2 4841   0.588   5.115   1.222
 1599SOL     OW 4842   1.564   5.239   0.707
 1599SOL    HW1 4843   1.523   5.213   0.794
 1599SOL    HW2 4844   1.494   5.243   0.636
 1600SOL     OW 4845   1.132   4.426   0.695
 1600SOL    HW1 4846   1.185   4.509   0.679
 1600SOL    HW2 4847   1.082   4.435   0.781
 1601SOL     OW 4848   1.787   4.299   0.194
 1601SOL    HW1 4849   1.721   4.355   0.144
 1601SOL    HW2 4850   1.739   4.241   0.259
 1602SOL     OW 4851   0.742   4.864   1.041
 1602SOL    HW1 4852   0.674   4.899   1.106
 1602SOL    HW2 4853   0.787   4.941   0.996
 1603SOL     OW 4854   0.874   4.487   1.821
 1603SOL    HW1 4855   0.864   4.554   1.894
 1603SOL    HW2 4856   0.898   4.533   1.735
 1604SOL     OW 4857   0.682   4.721   0.651
 1604SOL    HW1 4858   0.754   4.713   0.720
 1604SOL    HW2 4859   0.608   4.778   0.688
 1605SOL     OW 4860   0.713   4.876   1.820
 1605SOL    HW1 4861   0.765   4.955   1.854
 1605SOL    HW2 4862   0.629   4.909   1.776
 1606SOL     OW 4863   0.334   5.144   1.065
 1606SOL    HW1 4864   0.256   5.102   1.018
 1606SOL    HW2 4865   0.384   5.201   1.001
 1607SOL     OW 4866   1.457   5.226   1.359
 1607SOL    HW1 4867   1.515   5.307   1.366
 1607SOL    HW2 4868   1.386   5.230   1.429
 1608SOL     OW 4869   0.443   4.117   1.491
 1608SOL    HW1 4870   0.526   4.061   1.494
 1608SOL    HW2 4871   0.363   4.058   1.500
 1609SOL     OW 4872   1.610   4.171   0.745
 1609SOL    HW1 4873   1.533   4.189   0.684
 1609SOL    HW2 4874   1.616   4.245   0.812
 1610SOL     OW 4875   0.196   5.479   0.463
 1610SOL    HW1 4876   0.239   5.542   0.528
 1610SOL    HW2 4877   0.267   5.430   0.412
 1611SOL     OW 4878   1.137   5.064   1.698
 1611SOL    HW1 4879   1.184   5.062   1.787
 1611SOL    HW2 4880   1.081   4.982   1.688
 1612SOL     OW 4881   0.268   5.191   0.541
 1612SOL    HW1 4882   0.242   5.283   0.568
 1612SOL    HW2 4883   0.227   5.125   0.604
 1613SOL     OW 4884   0.274   4.807   0.910
 1613SOL    HW1 4885   0.268   4.711   0.937
 1613SOL    HW2 4886   0.200   4.858   0.953
 1614SOL     OW 4887   0.600   5.521   1.426
 1614SOL    HW1 4888   0.515   5.498   1.473
 1614SOL    HW2 4889   0.630   5.612   1.455
 1615SOL     OW 4890   0.586   4.691   0.148
 1615SOL    HW1 4891   0.643   4.713   0.069
 1615SOL    HW2 4892   0.622   4.737   0.229
 1616SOL     OW 4893   1.597   3.849   1.469
 1616SOL    HW1 4894   1.618   3.929   1.413
 1616SOL    HW2 4895   1.581   3.878   1.563
 1617SOL     OW 4896   0.128   4.343   0.572
 1617SOL    HW1 4897   0.062   4.272   0.597
 1617SOL    HW2 4898   0.121   4.419   0.636
 1618SOL     OW 4899   1.848   5.485   0.343
 1618SOL    HW1 4900   1.917   5.453   0.409
 1618SOL    HW2 4901   1.845   5.585   0.344
 1619SOL     OW 4902   6.973   5.275   0.122
 1619SOL    HW1 4903   6.966   5.179   0.150
 1619SOL    HW2 4904   0.028   5.325   0.188
 1620SOL     OW 4905   1.692   4.641   0.649
 1620SOL    HW1 4906   1.775   4.589   0.629
 1620SOL    HW2 4907   1.669   4.698   0.570
 1621SOL     OW 4908   1.654   4.824   0.444
 1621SOL    HW1 4909   1.725   4.842   0.376
 1621SOL    HW2 4910   1.660   4.891   0.517
 1622SOL     OW 4911   0.148   4.455   1.579
 1622SOL    HW1 4912   0.247   4.462   1.563
 1622SOL    HW2 4913   0.113   4.543   1.612
 1623SOL     OW 4914   0.612   5.113   0.737
 1623SOL    HW1 4915   0.565   5.026   0.750
 1623SOL    HW2 4916   0.602   5.142   0.642
 1624SOL     OW 4917   1.287   4.958   1.421
 1624SOL    HW1 4918   1.314   4.888   1.356
 1624SOL    HW2 4919   1.348   4.954   1.501
 1625SOL     OW 4920   0.821   3.737   0.514
 1625SOL    HW1 4921   0.867   3.823   0.490
 1625SOL    HW2 4922   0.723   3.753   0.521
 1626SOL     OW 4923   0.205   4.685   1.262
 1626SOL    HW1 4924   0.288   4.632   1.246
 1626SOL    HW2 4925   0.133   4.656   1.199
 1627SOL     OW 4926   1.488   4.742   0.210
 1627SOL    HW1 4927   1.422   4.676   0.245
 1627SOL    HW2 4928   1.573   4.735   0.262
 1628SOL     OW 4929   1.182   5.537   1.623
 1628SOL    HW1 4930   1.189   5.605   1.550
 1628SOL    HW2 4931   1.202   5.446   1.585
 1629SOL     OW 4932   0.356   3.976   1.835
 1629SOL    HW1 4933   0.403   4.058   1.865
 1629SOL    HW2 4934   0.258   3.984   1.855
 1630SOL     OW 4935   1.464   5.145   0.945
 1630SOL    HW1 4936   1.398   5.164   1.018
 1630SOL    HW2 4937   1.457   5.049   0.918
 1631SOL     OW 4938   1.648   5.475   0.580
 1631SOL    HW1 4939   1.625   5.449   0.486
 1631SOL    HW2 4940   1.627   5.400   0.642
 1632SOL     OW 4941   0.600   4.442   0.266
 1632SOL    HW1 4942   0.605   4.532   0.223
 1632SOL    HW2 4943   0.535   4.444   0.342
 1633SOL     OW 4944   1.277   4.084   0.933
 1633SOL    HW1 4945   1.183   4.049   0.940
 1633SOL    HW2 4946   1.337   4.032   0.994
 1634SOL     OW 4947   1.582   5.403   0.318
 1634SOL    HW1 4948   1.681   5.416   0.312
 1634SOL    HW2 4949   1.543   5.401   0.226
 1635SOL     OW 4950   0.789   4.336   1.450
 1635SOL    HW1 4951   0.764   4.312   1.543
 1635SOL    HW2 4952   0.753   4.268   1.386
 1636SOL     OW 4953   1.391   4.194   1.679
 1636SOL    HW1 4954   1.392   4.243   1.766
 1636SOL    HW2 4955   1.451   4.114   1.686
 1637SOL     OW 4956   0.952   4.608   1.583
 1637SOL    HW1 4957   1.010   4.537   1.545
 1637SOL    HW2 4958   0.899   4.651   1.510
 1638SOL     OW 4959   0.994   4.129   1.228
 1638SOL    HW1 4960   0.904   4.151   1.265
 1638SOL    HW2 4961   0.984   4.079   1.142
 1639SOL     OW 4962   1.052   4.424   0.428
 1639SOL    HW1 4963   1.075   4.422   0.525
 1639SOL    HW2 4964   0.965   4.376   0.413
 1640SOL     OW 4965   0.104   4.539   0.774
 1640SOL    HW1 4966   0.196   4.531   0.813
 1640SOL    HW2 4967   0.042   4.574   0.845
 1641SOL     OW 4968   0.119   5.595   1.592
 1641SOL    HW1 4969   0.131   5.569   1.688
 1641SOL    HW2 4970   0.028   5.568   1.562
 1642SOL     OW 4971   0.890   4.068   0.208
 1642SOL    HW1 4972   0.940   4.128   0.145
 1642SOL    HW2 4973   0.905   3.972   0.183
 1643SOL     OW 4974   1.700   4.296   1.826
 1643SOL    HW1 4975   1.665   4.376   1.776
 1643SOL    HW2 4976   1.730   4.226   1.761
 1644SOL     OW 4977   1.382   4.866   0.548
 1644SOL    HW1 4978   1.467   4.856   0.496
 1644SOL    HW2 4979   1.324   4.934   0.503
 1645SOL     OW 4980   0.553   3.901   0.901
 1645SOL    HW1 4981   0.557   3.926   0.998
 1645SOL    HW2 4982   0.559   3.984   0.845
 1646SOL     OW 4983   0.988   5.163   0.471
 1646SOL    HW1 4984   0.959   5.245   0.421
 1646SOL    HW2 4985   0.970   5.175   0.568
 1647SOL     OW 4986   0.358   5.541   0.868
 1647SOL    HW1 4987   0.397   5.450   0.879
 1647SOL    HW2 4988   0.427   5.610   0.892
 1648SOL     OW 4989   1.800   4.777   0.874
 1648SOL    HW1 4990   1.749   4.756   0.791
 1648SOL    HW2 4991   1.736   4.784   0.951
 1649SOL     OW 4992   1.226   5.260   1.514
 1649SOL    HW1 4993   1.214   5.186   1.580
 1649SOL    HW2 4994   1.157   5.252   1.442
 1650SOL     OW 4995   0.311   4.661   0.226
 1650SOL    HW1 4996   0.402   4.684   0.192
 1650SOL    HW2 4997   0.287   4.568   0.200
 1651SOL     OW 4998   1.485   4.471   0.722
 1651SOL    HW1 4999   1.480   4.430   0.813
 1651SOL    HW2 5000   1.564   4.532   0.716
 1652SOL     OW 5001   0.473   4.986   1.728
 1652SOL    HW1 5002   0.446   4.996   1.632
 1652SOL    HW2 5003   0.391   4.986   1.786
 1653SOL     OW 5004   1.119   5.490   0.236
 1653SOL    HW1 5005   1.050   5.446   0.292
 1653SOL    HW2 5006   1.157   5.424   0.171
 1654SOL     OW 5007   0.195   3.990   1.489
 1654SOL    HW1 5008   0.113   4.044   1.475
 1654SOL    HW2 5009   0.171   3.905   1.536
 1655SOL     OW 5010   1.623   5.153   0.074
 1655SOL    HW1 5011   1.585   5.245   0.085
 1655SOL    HW2 5012   1.561   5.087   0.115
 1656SOL     OW 5013   0.481   5.437   0.352
 1656SOL    HW1 5014   0.514   5.511   0.411
 1656SOL    HW2 5015   0.558   5.402   0.298
 1657SOL     OW 5016   1.405   3.829   0.445
 1657SOL    HW1 5017   1.397   3.801   0.349
 1657SOL    HW2 5018   1.502   3.840   0.468
 1658SOL     OW 5019   0.258   5.517   1.221
 1658SOL    HW1 5020   0.309   5.443   1.265
 1658SOL    HW2 5021   0.211   5.483   1.140
 1659SOL     OW 5022   0.936   5.427   0.897
 1659SOL    HW1 5023   1.019   5.380   0.927
 1659SOL    HW2 5024   0.894   5.374   0.823
 1660SOL     OW 5025   0.403   4.410   0.468
 1660SOL    HW1 5026   0.423   4.314   0.487
 1660SOL    HW2 5027   0.307   4.429   0.488
 1661SOL     OW 5028   1.527   3.946   1.728
 1661SOL    HW1 5029   1.538   3.967   1.825
 1661SOL    HW2 5030   1.454   3.878   1.716
 1662SOL     OW 5031   0.763   4.001   1.757
 1662SOL    HW1 5032   0.848   3.949   1.750
 1662SOL    HW2 5033   0.711   3.969   1.837
 1663SOL     OW 5034   0.876   5.240   1.192
 1663SOL    HW1 5035   0.856   5.203   1.101
 1663SOL    HW2 5036   0.948   5.185   1.235
 1664SOL     OW 5037   1.339   4.313   1.436
 1664SOL    HW1 5038   1.369   4.278   1.524
 1664SOL    HW2 5039   1.375   4.405   1.422
 1665SOL     OW 5040   0.820   5.112   0.943
 1665SOL    HW1 5041   0.910   5.101   0.900
 1665SOL    HW2 5042   0.750   5.118   0.872
 1666SOL     OW 5043   0.927   4.230   0.898
 1666SOL    HW1 5044   0.900   4.222   0.802
 1666SOL    HW2 5045   0.960   4.142   0.931
 1667SOL     OW 5046   0.552   3.792   0.501
 1667SOL    HW1 5047   0.471   3.791   0.560
 1667SOL    HW2 5048   0.546   3.867   0.436
 1668SOL     OW 5049   1.417   4.937   0.013
 1668SOL    HW1 5050   1.447   4.858   0.066
 1668SOL    HW2 5051   1.334   4.974   0.054
 1669SOL     OW 5052   0.950   3.975   0.462
 1669SOL    HW1 5053   0.918   4.015   0.376
 1669SOL    HW2 5054   1.049   3.989   0.470
 1670SOL     OW 5055   1.080   4.407   1.454
 1670SOL    HW1 5056   1.005   4.341   1.460
 1670SOL    HW2 5057   1.167   4.359   1.451
 1671SOL     OW 5058   1.218   5.294   0.795
 1671SOL    HW1 5059   1.233   5.362   0.724
 1671SOL    HW2 5060   1.291   5.300   0.863
 1672SOL     OW 5061   0.469   4.876   0.734
 1672SOL    HW1 5062   0.402   4.855   0.805
 1672SOL    HW2 5063   0.429   4.860   0.644
 1673SOL     OW 5064   1.262   5.516   0.610
 1673SOL    HW1 5065   1.316   5.579   0.555
 1673SOL    HW2 5066   1.188   5.566   0.656
 1674SOL     OW 5067   1.061   4.300   0.033
 1674SOL    HW1 5068   0.966   4.327   0.052
 1674SOL    HW2 5069   1.111   4.290   0.119
 1675SOL     OW 5070   0.073   4.276   1.375
 1675SOL    HW1 5071   0.169   4.268   1.346
 1675SOL    HW2 5072   0.066   4.343   1.448
 1676SOL     OW 5073   0.566   3.946   1.172
 1676SOL    HW1 5074   0.616   3.870   1.214
 1676SOL    HW2 5075   0.471   3.944   1.203
 1677SOL     OW 5076   0.864   4.180   0.638
 1677SOL    HW1 5077   0.823   4.243   0.573
 1677SOL    HW2 5078   0.895   4.098   0.590
 1678SOL     OW 5079   1.016   3.776   0.744
 1678SOL    HW1 5080   0.954   3.774   0.665
 1678SOL    HW2 5081   0.993   3.701   0.806
 1679SOL     OW 5082   1.448   4.885   0.860
 1679SOL    HW1 5083   1.370   4.821   0.861
 1679SOL    HW2 5084   1.481   4.895   0.767
 1680SOL     OW 5085   1.468   4.332   0.969
 1680SOL    HW1 5086   1.405   4.255   0.969
 1680SOL    HW2 5087   1.529   4.326   1.049
 1681SOL     OW 5088   1.825   4.527   0.391
 1681SOL    HW1 5089   1.888   4.467   0.441
 1681SOL    HW2 5090   1.823   4.499   0.295
 1682SOL     OW 5091   0.477   5.143   0.173
 1682SOL    HW1 5092   0.438   5.077   0.237
 1682SOL    HW2 5093   0.424   5.142   0.088
 1683SOL     OW 5094   1.672   4.989   0.653
 1683SOL    HW1 5095   1.772   4.987   0.662
 1683SOL    HW2 5096   1.639   5.083   0.666
 1684SOL     OW 5097   1.389   4.275   0.067
 1684SOL    HW1 5098   1.329   4.274   0.146
 1684SOL    HW2 5099   1.452   4.196   0.071
 1685SOL     OW 5100   0.513   3.983   0.312
 1685SOL    HW1 5101   0.517   3.917   0.237
 1685SOL    HW2 5102   0.491   4.073   0.275
 1686SOL     OW 5103   1.752   4.965   1.558
 1686SOL    HW1 5104   1.842   4.923   1.545
 1686SOL    HW2 5105   1.764   5.058   1.593
 1687SOL     OW 5106   1.052   5.073   1.336
 1687SOL    HW1 5107   0.971   5.044   1.386
 1687SOL    HW2 5108   1.134   5.034   1.378
 1688SOL     OW 5109   1.614   5.354   1.658
 1688SOL    HW1 5110   1.598   5.389   1.565
 1688SOL    HW2 5111   1.699   5.302   1.659
 1689SOL     OW 5112   1.138   4.945   1.105
 1689SOL    HW1 5113   1.078   4.979   1.177
 1689SOL    HW2 5114   1.104   4.976   1.016
 1690SOL     OW 5115   1.623   4.820   1.079
 1690SOL    HW1 5116   1.619   4.886   1.155
 1690SOL    HW2 5117   1.549   4.838   1.015
 1691SOL     OW 5118   0.923   3.818   1.391
 1691SOL    HW1 5119   0.945   3.795   1.296
 1691SOL    HW2 5120   1.002   3.861   1.433
 1692SOL     OW 5121   0.980   4.838   1.721
 1692SOL    HW1 5122   0.885   4.858   1.749
 1692SOL    HW2 5123   0.981   4.756   1.665
 1693SOL     OW 5124   0.713   4.782   0.376
 1693SOL    HW1 5125   0.695   4.764   0.473
 1693SOL    HW2 5126   0.793   4.729   0.347
 1694SOL     OW 5127   0.430   4.529   1.248
 1694SOL    HW1 5128   0.499   4.545   1.318
 1694SOL    HW2 5129   0.387   4.440   1.264
 1695SOL     OW 5130   1.262   4.100   1.281
 1695SOL    HW1 5131   1.299   4.179   1.330
 1695SOL    HW2 5132   1.167   4.117   1.256
 1696SOL     OW 5133   0.068   5.288   1.318
 1696SOL    HW1 5134   0.017   5.371   1.339
 1696SOL    HW2 5135   0.165   5.303   1.338
 1697SOL     OW 5136   0.354   4.822   0.495
 1697SOL    HW1 5137   0.335   4.897   0.431
 1697SOL    HW2 5138   0.361   4.736   0.444
 1698SOL     OW 5139   0.549   4.264   0.858
 1698SOL    HW1 5140   0.562   4.326   0.781
 1698SOL    HW2 5141   0.616   4.285   0.930
 1699SOL     OW 5142   1.238   5.068   0.408
 1699SOL    HW1 5143   1.300   5.141   0.434
 1699SOL    HW2 5144   1.145   5.091   0.437
 1700SOL     OW 5145   1.289   5.186   1.147
 1700SOL    HW1 5146   1.347   5.192   1.229
 1700SOL    HW2 5147   1.235   5.102   1.151
 1701SOL     OW 5148   1.588   4.354   0.479
 1701SOL    HW1 5149   1.529   4.393   0.550
 1701SOL    HW2 5150   1.645   4.426   0.439
 1702SOL     OW 5151   0.351   5.258   1.308
 1702SOL    HW1 5152   0.332   5.210   1.222
 1702SOL    HW2 5153   0.450   5.270   1.318
 1703SOL     OW 5154   0.426   4.458   1.598
 1703SOL    HW1 5155   0.487   4.510   1.538
 1703SOL    HW2 5156   0.469   4.371   1.623
 1704SOL     OW 5157   1.609   4.509   1.685
 1704SOL    HW1 5158   1.518   4.551   1.683
 1704SOL    HW2 5159   1.666   4.550   1.613
 1705SOL     OW 5160   0.997   3.859   1.750
 1705SOL    HW1 5161   1.056   3.939   1.735
 1705SOL    HW2 5162   1.046   3.776   1.723
 1706SOL     OW 5163   0.496   3.759   1.750
 1706SOL    HW1 5164   0.449   3.704   1.681
 1706SOL    HW2 5165   0.441   3.840   1.770
 1707SOL     OW 5166   0.588   4.595   1.033
 1707SOL    HW1 5167   0.620   4.689   1.029
 1707SOL    HW2 5168   0.528   4.583   1.112
 1708SOL     OW 5169   1.350   4.580   1.024
 1708SOL    HW1 5170   1.260   4.573   0.981
 1708SOL    HW2 5171   1.400   4.494   1.014
 1709SOL     OW 5172   1.196   4.247   0.273
 1709SOL    HW1 5173   1.214   4.167   0.331
 1709SOL    HW2 5174   1.156   4.320   0.328
 1710SOL     OW 5175   0.309   3.918   1.246
 1710SOL    HW1 5176   0.269   3.954   1.330
 1710SOL    HW2 5177   0.292   3.820   1.239
 1711SOL     OW 5178   0.098   5.029   1.262
 1711SOL    HW1 5179   0.106   4.966   1.340
 1711SOL    HW2 5180   0.088   5.123   1.296
 1712SOL     OW 5181   0.722   4.352   1.052
 1712SOL    HW1 5182   0.801   4.334   0.994
 1712SOL    HW2 5183   0.689   4.445   1.035
 1713SOL     OW 5184   1.737   4.685   1.857
 1713SOL    HW1 5185   1.694   4.615   1.799
 1713SOL    HW2 5186   1.677   4.704   1.935
 1714SOL     OW 5187   0.312   3.796   0.632
 1714SOL    HW1 5188   0.288   3.891   0.654
 1714SOL    HW2 5189   0.322   3.744   0.716
 1715SOL     OW 5190   1.632   4.109   0.367
 1715SOL    HW1 5191   1.646   4.036   0.434
 1715SOL    HW2 5192   1.605   4.192   0.415
 1716SOL     OW 5193   1.023   4.479   0.957
 1716SOL    HW1 5194   1.018   4.501   1.055
 1716SOL    HW2 5195   0.996   4.383   0.943
 1717SOL     OW 5196   0.983   5.287   1.718
 1717SOL    HW1 5197   0.965   5.334   1.632
 1717SOL    HW2 5198   1.030   5.201   1.700
 1718SOL     OW 5199   1.854   5.227   1.603
 1718SOL    HW1 5200   1.873   5.253   1.509
 1718SOL    HW2 5201   1.937   5.238   1.659
 1719SOL     OW 5202   0.366   4.641   1.798
 1719SOL    HW1 5203   0.443   4.665   1.856
 1719SOL    HW2 5204   0.395   4.572   1.731
 1720SOL     OW 5205   1.488   4.018   0.148
 1720SOL    HW1 5206   1.449   3.927   0.160
 1720SOL    HW2 5207   1.542   4.043   0.228
 1721SOL     OW 5208   1.292   4.543   0.033
 1721SOL    HW1 5209   1.339   4.456   0.023
 1721SOL    HW2 5210   1.316   4.604   6.958
 1722SOL     OW 5211   1.070   5.062   0.855
 1722SOL    HW1 5212   1.075   4.984   0.793
 1722SOL    HW2 5213   1.128   5.135   0.821
 1723SOL     OW 5214   0.322   4.524   0.940
 1723SOL    HW1 5215   0.419   4.550   0.943
 1723SOL    HW2 5216   0.311   4.433   0.980
 1724SOL     OW 5217   0.330   4.244   1.014
 1724SOL    HW1 5218   0.291   4.153   1.000
 1724SOL    HW2 5219   0.410   4.256   0.954
 1725SOL     OW 5220   1.134   4.097   1.693
 1725SOL    HW1 5221   1.081   4.153   1.756
 1725SOL    HW2 5222   1.226   4.134   1.684
 1726SOL     OW 5223   1.161   3.927   1.476
 1726SOL    HW1 5224   1.147   3.989   1.553
 1726SOL    HW2 5225   1.205   3.977   1.401
 1727SOL     OW 5226   6.993   5.021   0.222
 1727SOL    HW1 5227   6.925   5.046   0.291
 1727SOL    HW2 5228   0.024   4.928   0.238
 1728SOL     OW 5229   0.098   5.480   0.951
 1728SOL    HW1 5230   0.076   5.406   0.887
 1728SOL    HW2 5231   0.184   5.523   0.924
 1729SOL     OW 5232   0.493   5.302   0.903
 1729SOL    HW1 5233   0.563   5.368   0.930
 1729SOL    HW2 5234   0.533   5.233   0.843
 1730SOL     OW 5235   0.973   4.517   1.223
 1730SOL    HW1 5236   1.034   4.494   1.299
 1730SOL    HW2 5237   0.883   4.476   1.240
 1731SOL     OW 5238   0.051   4.334   1.105
 1731SOL    HW1 5239   0.127   4.286   1.061
 1731SOL    HW2 5240   0.051   4.313   1.203
 1732SOL     OW 5241   0.209   4.235   1.723
 1732SOL    HW1 5242   0.285   4.188   1.677
 1732SOL    HW2 5243   0.190   4.321   1.675
 1733SOL     OW 5244   1.381   4.658   1.654
 1733SOL    HW1 5245   1.404   4.756   1.655
 1733SOL    HW2 5246   1.377   4.626   1.560
 1734SOL     OW 5247   0.817   4.293   0.372
 1734SOL    HW1 5248   0.827   4.215   0.310
 1734SOL    HW2 5249   0.741   4.351   0.342
 1735SOL     OW 5250   1.642   4.327   1.180
 1735SOL    HW1 5251   1.626   4.268   1.259
 1735SOL    HW2 5252   1.734   4.310   1.144
 1736SOL     OW 5253   0.285   5.284   1.740
 1736SOL    HW1 5254   0.230   5.352   1.789
 1736SOL    HW2 5255   0.267   5.193   1.777
 1737SOL     OW 5256   0.708   4.172   1.253
 1737SOL    HW1 5257   0.653   4.092   1.228
 1737SOL    HW2 5258   0.704   4.239   1.179
 1738SOL     OW 5259   0.920   5.405   1.472
 1738SOL    HW1 5260   0.894   5.358   1.388
 1738SOL    HW2 5261   0.919   5.503   1.457
 1739SOL     OW 5262   0.461   4.220   0.194
 1739SOL    HW1 5263   0.521   4.297   0.214
 1739SOL    HW2 5264   0.366   4.251   0.193
 1740SOL     OW 5265   0.165   4.847   1.470
 1740SOL    HW1 5266   0.154   4.787   1.548
 1740SOL    HW2 5267   0.179   4.792   1.387
 1741SOL     OW 5268   1.314   4.767   1.218
 1741SOL    HW1 5269   1.342   4.699   1.150
 1741SOL    HW2 5270   1.248   4.830   1.178
 1742SOL     OW 5271   1.300   4.569   0.307
 1742SOL    HW1 5272   1.219   4.539   0.357
 1742SOL    HW2 5273   1.289   4.548   0.209
 1743SOL     OW 5274   1.782   5.452   1.158
 1743SOL    HW1 5275   1.843   5.486   1.086
 1743SOL    HW2 5276   1.749   5.361   1.134
 1744SOL     OW 5277   1.241   5.457   1.105
 1744SOL    HW1 5278   1.327   5.486   1.062
 1744SOL    HW2 5279   1.247   5.360   1.128
 1745SOL     OW 5280   0.071   4.968   1.004
 1745SOL    HW1 5281   0.089   4.988   1.100
 1745SOL    HW2 5282   6.972   4.954   0.990
 1746SOL     OW 5283   0.682   5.399   1.738
 1746SOL    HW1 5284   0.617   5.474   1.733
 1746SOL    HW2 5285   0.754   5.412   1.670
 1747SOL     OW 5286   0.939   3.804   0.111
 1747SOL    HW1 5287   1.010   3.858   0.066
 1747SOL    HW2 5288   0.982   3.741   0.177
 1748SOL     OW 5289   1.701   3.876   0.509
 1748SOL    HW1 5290   1.782   3.875   0.450
 1748SOL    HW2 5291   1.691   3.787   0.553
 1749SOL     OW 5292   1.389   5.290   0.492
 1749SOL    HW1 5293   1.455   5.316   0.421
 1749SOL    HW2 5294   1.338   5.370   0.522
 1750SOL     OW 5295   0.140   5.508   1.854
 1750SOL    HW1 5296   0.094   5.435   1.904
 1750SOL    HW2 5297   0.194   5.563   1.917
 1751SOL     OW 5298   1.283   4.648   0.669
 1751SOL    HW1 5299   1.357   4.583   0.684
 1751SOL    HW2 5300   1.316   4.727   0.617
 1752SOL     OW 5301   0.801   5.003   1.425
 1752SOL    HW1 5302   0.773   5.047   1.510
 1752SOL    HW2 5303   0.731   5.018   1.356
 1753SOL     OW 5304   0.674   5.330   0.192
 1753SOL    HW1 5305   0.679   5.377   0.104
 1753SOL    HW2 5306   0.617   5.248   0.182
 1754SOL     OW 5307   1.616   5.453   1.388
 1754SOL    HW1 5308   1.674   5.453   1.306
 1754SOL    HW2 5309   1.602   5.547   1.418
 1755SOL     OW 5310   1.843   3.893   0.963
 1755SOL    HW1 5311   1.877   3.801   0.942
 1755SOL    HW2 5312   1.751   3.905   0.924
 1756SOL     OW 5313   0.261   4.047   0.719
 1756SOL    HW1 5314   0.184   4.106   0.697
 1756SOL    HW2 5315   0.261   4.027   0.817
 1757SOL     OW 5316   1.217   5.319   0.038
 1757SOL    HW1 5317   1.211   5.224   0.070
 1757SOL    HW2 5318   1.130   5.345   6.996
 1758SOL     OW 5319   0.824   4.734   1.379
 1758SOL    HW1 5320   0.873   4.719   1.293
 1758SOL    HW2 5321   0.819   4.832   1.398
 1759SOL     OW 5322   0.923   4.637   0.292
 1759SOL    HW1 5323   0.977   4.666   0.214
 1759SOL    HW2 5324   0.972   4.566   0.343
 1760SOL     OW 5325   1.478   5.396   0.050
 1760SOL    HW1 5326   1.383   5.366   0.043
 1760SOL    HW2 5327   1.522   5.390   6.960
 1761SOL     OW 5328   0.372   5.031   1.485
 1761SOL    HW1 5329   0.359   5.112   1.428
 1761SOL    HW2 5330   0.302   4.963   1.464
 1762SOL     OW 5331   1.613   5.009   1.285
 1762SOL    HW1 5332   1.675   4.988   1.360
 1762SOL    HW2 5333   1.547   5.078   1.314
 1763SOL     OW 5334   1.063   4.830   0.716
 1763SOL    HW1 5335   0.986   4.781   0.756
 1763SOL    HW2 5336   1.131   4.765   0.682
 1764SOL     OW 5337   1.023   3.963   0.967
 1764SOL    HW1 5338   1.018   3.919   0.877
 1764SOL    HW2 5339   1.020   3.893   1.038
 1765SOL     OW 5340   0.612   5.205   0.483
 1765SOL    HW1 5341   0.655   5.154   0.409
 1765SOL    HW2 5342   0.538   5.262   0.446
 1766SOL     OW 5343   1.732   4.117   1.381
 1766SOL    HW1 5344   1.805   4.186   1.381
 1766SOL    HW2 5345   1.758   4.043   1.319
 1767SOL     OW 5346   0.284   5.025   0.334
 1767SOL    HW1 5347   0.198   5.025   0.284
 1767SOL    HW2 5348   0.279   5.091   0.409
 1768SOL     OW 5349   0.121   4.697   1.702
 1768SOL    HW1 5350   0.067   4.747   1.769
 1768SOL    HW2 5351   0.212   4.679   1.740
 1769SOL     OW 5352   0.684   3.919   1.499
 1769SOL    HW1 5353   0.770   3.894   1.456
 1769SOL    HW2 5354   0.701   3.952   1.592
 1770SOL     OW 5355   0.065   4.108   0.018
 1770SOL    HW1 5356   6.974   4.097   6.979
 1770SOL    HW2 5357   0.127   4.144   6.949
 1771SOL     OW 5358   1.422   4.580   1.394
 1771SOL    HW1 5359   1.367   4.644   1.341
 1771SOL    HW2 5360   1.516   4.581   1.360
 1772SOL     OW 5361   0.030   3.915   0.360
 1772SOL    HW1 5362   0.070   4.003   0.333
 1772SOL    HW2 5363   0.103   3.849   0.375
 1773SOL     OW 5364   1.186   5.066   0.130
 1773SOL    HW1 5365   1.089   5.053   0.114
 1773SOL    HW2 5366   1.205   5.058   0.228
 1774SOL     OW 5367   0.625   4.554   1.434
 1774SOL    HW1 5368   0.681   4.636   1.420
 1774SOL    HW2 5369   0.684   4.474   1.443
 1775SOL     OW 5370   1.485   5.515   0.989
 1775SOL    HW1 5371   1.507   5.577   0.914
 1775SOL    HW2 5372   1.569   5.476   1.027
 1776SOL     OW 5373   0.718   4.282   1.703
 1776SOL    HW1 5374   0.765   4.348   1.761
 1776SOL    HW2 5375   0.738   4.189   1.735
 1777SOL     OW 5376   1.474   4.919   1.634
 1777SOL    HW1 5377   1.459   4.933   1.732
 1777SOL    HW2 5378   1.570   4.938   1.612
 1778SOL     OW 5379   0.370   5.470   1.563
 1778SOL    HW1 5380   0.283   5.517   1.548
 1778SOL    HW2 5381   0.354   5.386   1.615
 1779SOL     OW 5382   1.665   4.602   1.256
 1779SOL    HW1 5383   1.660   4.511   1.214
 1779SOL    HW2 5384   1.652   4.671   1.185
 1780SOL     OW 5385   1.222   4.038   0.461
 1780SOL    HW1 5386   1.287   3.962   0.454
 1780SOL    HW2 5387   1.246   4.094   0.540
 1781SOL     OW 5388   0.588   4.459   0.667
 1781SOL    HW1 5389   0.629   4.550   0.662
 1781SOL    HW2 5390   0.519   4.449   0.596
 1782SOL     OW 5391   1.750   4.089   1.653
 1782SOL    HW1 5392   1.741   4.105   1.555
 1782SOL    HW2 5393   1.675   4.029   1.684
 1783SOL     OW 5394   1.753   4.656   1.509
 1783SOL    HW1 5395   1.741   4.752   1.531
 1783SOL    HW2 5396   1.731   4.640   1.413
 1784SOL     OW 5397   0.906   5.107   0.056
 1784SOL    HW1 5398   0.843   5.083   0.130
 1784SOL    HW2 5399   0.907   5.206   0.044
 1785SOL     OW 5400   0.666   5.509   0.940
 1785SOL    HW1 5401   0.645   5.604   0.919
 1785SOL    HW2 5402   0.765   5.494   0.930
 1786SOL     OW 5403   0.869   4.695   0.856
 1786SOL    HW1 5404   0.920   4.617   0.893
 1786SOL    HW2 5405   0.826   4.745   0.932
 1787SOL     OW 5406   1.080   4.707   0.079
 1787SOL    HW1 5407   1.084   4.769   0.000
 1787SOL    HW2 5408   1.157   4.644   0.075
 1788SOL     OW 5409   1.845   5.281   0.846
 1788SOL    HW1 5410   1.768   5.267   0.783
 1788SOL    HW2 5411   1.845   5.209   0.915
 1789SOL     OW 5412   0.243   5.032   1.865
 1789SOL    HW1 5413   0.150   5.000   1.845
 1789SOL    HW2 5414   0.253   5.042   1.964
 1790SOL     OW 5415   0.150   5.000   0.694
 1790SOL    HW1 5416   0.100   4.957   0.768
 1790SOL    HW2 5417   0.183   4.931   0.630
 1791SOL     OW 5418   0.686   5.134   1.636
 1791SOL    HW1 5419   0.605   5.084   1.664
 1791SOL    HW2 5420   0.682   5.227   1.672
 1792SOL     OW 5421   1.804   3.906   1.233
 1792SOL    HW1 5422   1.818   3.810   1.257
 1792SOL    HW2 5423   1.818   3.918   1.135
 1793SOL     OW 5424   0.435   4.151   0.525
 1793SOL    HW1 5425   0.486   4.080   0.476
 1793SOL    HW2 5426   0.398   4.114   0.610
 1794SOL     OW 5427   1.691   5.207   1.095
 1794SOL    HW1 5428   1.612   5.189   1.037
 1794SOL    HW2 5429   1.698   5.135   1.164
 1795SOL     OW 5430   0.332   4.276   1.292
 1795SOL    HW1 5431   0.387   4.220   1.353
 1795SOL    HW2 5432   0.349   4.249   1.197
 1796SOL     OW 5433   0.828   5.303   0.681
 1796SOL    HW1 5434   0.814   5.362   0.602
 1796SOL    HW2 5435   0.751   5.239   0.688
 1797SOL     OW 5436   1.430   3.955   1.116
 1797SOL    HW1 5437   1.451   3.864   1.152
 1797SOL    HW2 5438   1.376   4.006   1.184
 1798SOL     OW 5439   1.010   3.740   1.137
 1798SOL    HW1 5440   0.946   3.676   1.093
 1798SOL    HW2 5441   1.101   3.699   1.138
 1799SOL     OW 5442   0.782   5.043   0.311
 1799SOL    HW1 5443   0.750   4.950   0.330
 1799SOL    HW2 5444   0.860   5.065   0.369
 1800SOL     OW 5445   0.626   5.283   1.290
 1800SOL    HW1 5446   0.622   5.370   1.340
 1800SOL    HW2 5447   0.716   5.271   1.249
 1801SOL     OW 5448   1.362   3.767   0.182
 1801SOL    HW1 5449   1.406   3.703   0.119
 1801SOL    HW2 5450   1.268   3.738   0.198
 1802SOL     OW 5451   1.289   4.188   0.680
 1802SOL    HW1 5452   1.238   4.274   0.682
 1802SOL    HW2 5453   1.288   4.146   0.770
 1803SOL     OW 5454   1.587   3.927   0.884
 1803SOL    HW1 5455   1.529   3.946   0.964
 1803SOL    HW2 5456   1.588   4.007   0.824
 1804SOL     OW 5457   0.076   4.776   0.310
 1804SOL    HW1 5458   0.166   4.735   0.299
 1804SOL    HW2 5459   0.006   4.704   0.311
 1805SOL     OW 5460   0.890   5.388   0.353
 1805SOL    HW1 5461   0.815   5.360   0.294
 1805SOL    HW2 5462   0.862   5.467   0.408
 1806SOL     OW 5463   0.180   4.376   1.983
 1806SOL    HW1 5464   0.175   4.311   2.059
 1806SOL    HW2 5465   0.224   4.332   1.905
 1807SOL     OW 5466   0.230   3.995   2.851
 1807SOL    HW1 5467   0.282   3.962   2.929
 1807SOL    HW2 5468   0.133   3.980   2.866
 1808SOL     OW 5469   6.989   4.108   2.515
 1808SOL    HW1 5470   6.942   4.104   2.603
 1808SOL    HW2 5471   0.013   4.016   2.485
 1809SOL     OW 5472   0.570   5.023   3.050
 1809SOL    HW1 5473   0.480   5.020   3.006
 1809SOL    HW2 5474   0.588   5.115   3.084
 1810SOL     OW 5475   1.566   5.238   2.570
 1810SOL    HW1 5476   1.523   5.213   2.657
 1810SOL    HW2 5477   1.496   5.245   2.499
 1811SOL     OW 5478   1.134   4.427   2.556
 1811SOL    HW1 5479   1.185   4.511   2.540
 1811SOL    HW2 5480   1.083   4.435   2.642
 1812SOL     OW 5481   1.772   4.322   2.084
 1812SOL    HW1 5482   1.747   4.318   1.987
 1812SOL    HW2 5483   1.733   4.243   2.132
 1813SOL     OW 5484   0.742   4.864   2.903
 1813SOL    HW1 5485   0.674   4.899   2.968
 1813SOL    HW2 5486   0.787   4.941   2.857
 1814SOL     OW 5487   0.875   4.488   3.684
 1814SOL    HW1 5488   0.864   4.557   3.756
 1814SOL    HW2 5489   0.898   4.533   3.598
 1815SOL     OW 5490   0.683   4.724   2.512
 1815SOL    HW1 5491   0.755   4.714   2.580
 1815SOL    HW2 5492   0.609   4.779   2.549
 1816SOL     OW 5493   0.713   4.876   3.682
 1816SOL    HW1 5494   0.766   4.955   3.716
 1816SOL    HW2 5495   0.629   4.909   3.638
 1817SOL     OW 5496   0.334   5.144   2.926
 1817SOL    HW1 5497   0.255   5.104   2.879
 1817SOL    HW2 5498   0.385   5.202   2.863
 1818SOL     OW 5499   1.457   5.226   3.221
 1818SOL    HW1 5500   1.515   5.307   3.228
 1818SOL    HW2 5501   1.385   5.230   3.290
 1819SOL     OW 5502   0.442   4.118   3.355
 1819SOL    HW1 5503   0.524   4.061   3.356
 1819SOL    HW2 5504   0.361   4.059   3.363
 1820SOL     OW 5505   1.609   4.169   2.607
 1820SOL    HW1 5506   1.535   4.186   2.543
 1820SOL    HW2 5507   1.614   4.244   2.674
 1821SOL     OW 5508   0.226   5.434   2.328
 1821SOL    HW1 5509   0.241   5.513   2.387
 1821SOL    HW2 5510   0.297   5.431   2.258
 1822SOL     OW 5511   1.138   5.064   3.560
 1822SOL    HW1 5512   1.183   5.062   3.649
 1822SOL    HW2 5513   1.081   4.982   3.549
 1823SOL     OW 5514   0.279   5.167   2.382
 1823SOL    HW1 5515   0.255   5.264   2.387
 1823SOL    HW2 5516   0.230   5.116   2.453
 1824SOL     OW 5517   0.272   4.806   2.770
 1824SOL    HW1 5518   0.268   4.710   2.797
 1824SOL    HW2 5519   0.199   4.857   2.815
 1825SOL     OW 5520   0.601   5.521   3.289
 1825SOL    HW1 5521   0.515   5.498   3.335
 1825SOL    HW2 5522   0.630   5.612   3.317
 1826SOL     OW 5523   0.580   4.712   2.004
 1826SOL    HW1 5524   0.628   4.759   1.930
 1826SOL    HW2 5525   0.619   4.740   2.092
 1827SOL     OW 5526   1.588   3.862   3.257
 1827SOL    HW1 5527   1.615   3.953   3.225
 1827SOL    HW2 5528   1.545   3.870   3.347
 1828SOL     OW 5529   0.132   4.338   2.437
 1828SOL    HW1 5530   0.064   4.269   2.460
 1828SOL    HW2 5531   0.121   4.417   2.498
 1829SOL     OW 5532   1.847   5.479   2.194
 1829SOL    HW1 5533   1.917   5.449   2.258
 1829SOL    HW2 5534   1.862   5.575   2.170
 1830SOL     OW 5535   0.034   5.316   2.010
 1830SOL    HW1 5536   0.026   5.217   2.024
 1830SOL    HW2 5537   6.958   5.362   2.054
 1831SOL     OW 5538   1.691   4.645   2.510
 1831SOL    HW1 5539   1.775   4.594   2.492
 1831SOL    HW2 5540   1.667   4.699   2.429
 1832SOL     OW 5541   1.653   4.828   2.294
 1832SOL    HW1 5542   1.742   4.824   2.249
 1832SOL    HW2 5543   1.656   4.896   2.368
 1833SOL     OW 5544   0.148   4.455   3.441
 1833SOL    HW1 5545   0.247   4.462   3.425
 1833SOL    HW2 5546   0.114   4.543   3.473
 1834SOL     OW 5547   0.612   5.115   2.597
 1834SOL    HW1 5548   0.565   5.028   2.610
 1834SOL    HW2 5549   0.599   5.145   2.502
 1835SOL     OW 5550   1.288   4.958   3.283
 1835SOL    HW1 5551   1.314   4.887   3.218
 1835SOL    HW2 5552   1.348   4.954   3.363
 1836SOL     OW 5553   0.818   3.734   2.370
 1836SOL    HW1 5554   0.863   3.820   2.347
 1836SOL    HW2 5555   0.719   3.750   2.378
 1837SOL     OW 5556   0.205   4.685   3.124
 1837SOL    HW1 5557   0.288   4.632   3.108
 1837SOL    HW2 5558   0.134   4.655   3.061
 1838SOL     OW 5559   1.532   4.725   2.066
 1838SOL    HW1 5560   1.459   4.665   2.096
 1838SOL    HW2 5561   1.579   4.763   2.147
 1839SOL     OW 5562   1.183   5.537   3.485
 1839SOL    HW1 5563   1.189   5.605   3.412
 1839SOL    HW2 5564   1.202   5.446   3.447
 1840SOL     OW 5565   0.350   3.985   3.700
 1840SOL    HW1 5566   0.398   4.067   3.731
 1840SOL    HW2 5567   0.253   3.993   3.721
 1841SOL     OW 5568   1.465   5.144   2.808
 1841SOL    HW1 5569   1.399   5.163   2.880
 1841SOL    HW2 5570   1.457   5.048   2.780
 1842SOL     OW 5571   1.649   5.475   2.437
 1842SOL    HW1 5572   1.631   5.446   2.343
 1842SOL    HW2 5573   1.629   5.400   2.500
 1843SOL     OW 5574   0.588   4.439   2.128
 1843SOL    HW1 5575   0.598   4.528   2.082
 1843SOL    HW2 5576   0.525   4.449   2.205
 1844SOL     OW 5577   1.278   4.082   2.796
 1844SOL    HW1 5578   1.184   4.049   2.803
 1844SOL    HW2 5579   1.337   4.030   2.857
 1845SOL     OW 5580   1.583   5.397   2.170
 1845SOL    HW1 5581   1.679   5.424   2.166
 1845SOL    HW2 5582   1.550   5.380   2.077
 1846SOL     OW 5583   0.793   4.336   3.311
 1846SOL    HW1 5584   0.765   4.314   3.405
 1846SOL    HW2 5585   0.754   4.269   3.248
 1847SOL     OW 5586   1.399   4.198   3.547
 1847SOL    HW1 5587   1.388   4.245   3.634
 1847SOL    HW2 5588   1.487   4.149   3.547
 1848SOL     OW 5589   0.952   4.608   3.446
 1848SOL    HW1 5590   1.010   4.537   3.407
 1848SOL    HW2 5591   0.898   4.651   3.373
 1849SOL     OW 5592   0.998   4.142   3.080
 1849SOL    HW1 5593   0.912   4.154   3.128
 1849SOL    HW2 5594   0.986   4.077   3.005
 1850SOL     OW 5595   1.050   4.423   2.286
 1850SOL    HW1 5596   1.072   4.418   2.384
 1850SOL    HW2 5597   0.963   4.375   2.270
 1851SOL     OW 5598   0.100   4.541   2.639
 1851SOL    HW1 5599   0.194   4.533   2.672
 1851SOL    HW2 5600   0.040   4.571   2.713
 1852SOL     OW 5601   0.119   5.595   3.454
 1852SOL    HW1 5602   0.131   5.570   3.550
 1852SOL    HW2 5603   0.028   5.568   3.423
 1853SOL     OW 5604   0.896   4.077   2.059
 1853SOL    HW1 5605   0.937   4.144   1.997
 1853SOL    HW2 5606   0.902   3.986   2.018
 1854SOL     OW 5607   1.706   4.302   3.689
 1854SOL    HW1 5608   1.668   4.383   3.643
 1854SOL    HW2 5609   1.718   4.229   3.623
 1855SOL     OW 5610   1.380   4.867   2.395
 1855SOL    HW1 5611   1.465   4.852   2.344
 1855SOL    HW2 5612   1.324   4.934   2.348
 1856SOL     OW 5613   0.550   3.899   2.762
 1856SOL    HW1 5614   0.557   3.927   2.858
 1856SOL    HW2 5615   0.555   3.979   2.703
 1857SOL     OW 5616   0.994   5.167   2.326
 1857SOL    HW1 5617   0.963   5.248   2.275
 1857SOL    HW2 5618   0.977   5.180   2.423
 1858SOL     OW 5619   0.357   5.543   2.730
 1858SOL    HW1 5620   0.397   5.453   2.741
 1858SOL    HW2 5621   0.425   5.613   2.751
 1859SOL     OW 5622   1.798   4.780   2.735
 1859SOL    HW1 5623   1.748   4.756   2.652
 1859SOL    HW2 5624   1.735   4.786   2.812
 1860SOL     OW 5625   1.227   5.260   3.376
 1860SOL    HW1 5626   1.214   5.186   3.442
 1860SOL    HW2 5627   1.157   5.253   3.305
 1861SOL     OW 5628   0.317   4.669   2.113
 1861SOL    HW1 5629   0.404   4.694   2.071
 1861SOL    HW2 5630   0.287   4.581   2.076
 1862SOL     OW 5631   1.483   4.475   2.583
 1862SOL    HW1 5632   1.478   4.430   2.673
 1862SOL    HW2 5633   1.564   4.534   2.581
 1863SOL     OW 5634   0.473   4.986   3.590
 1863SOL    HW1 5635   0.446   4.996   3.494
 1863SOL    HW2 5636   0.391   4.986   3.648
 1864SOL     OW 5637   1.122   5.500   2.088
 1864SOL    HW1 5638   1.043   5.463   2.136
 1864SOL    HW2 5639   1.151   5.435   2.017
 1865SOL     OW 5640   0.196   3.991   3.350
 1865SOL    HW1 5641   0.113   4.046   3.336
 1865SOL    HW2 5642   0.171   3.906   3.398
 1866SOL     OW 5643   1.625   5.106   1.951
 1866SOL    HW1 5644   1.586   5.197   1.935
 1866SOL    HW2 5645   1.555   5.037   1.932
 1867SOL     OW 5646   0.468   5.458   2.178
 1867SOL    HW1 5647   0.509   5.519   2.246
 1867SOL    HW2 5648   0.540   5.422   2.119
 1868SOL     OW 5649   1.401   3.828   2.299
 1868SOL    HW1 5650   1.389   3.802   2.204
 1868SOL    HW2 5651   1.498   3.837   2.320
 1869SOL     OW 5652   0.258   5.517   3.084
 1869SOL    HW1 5653   0.308   5.443   3.127
 1869SOL    HW2 5654   0.212   5.483   3.001
 1870SOL     OW 5655   0.936   5.427   2.757
 1870SOL    HW1 5656   1.018   5.379   2.790
 1870SOL    HW2 5657   0.894   5.374   2.683
 1871SOL     OW 5658   0.401   4.406   2.336
 1871SOL    HW1 5659   0.429   4.312   2.356
 1871SOL    HW2 5660   0.304   4.418   2.356
 1872SOL     OW 5661   0.644   3.839   1.964
 1872SOL    HW1 5662   0.711   3.768   1.986
 1872SOL    HW2 5663   0.586   3.808   1.888
 1873SOL     OW 5664   0.739   4.016   3.620
 1873SOL    HW1 5665   0.832   3.979   3.627
 1873SOL    HW2 5666   0.685   3.986   3.699
 1874SOL     OW 5667   0.876   5.240   3.054
 1874SOL    HW1 5668   0.856   5.202   2.963
 1874SOL    HW2 5669   0.948   5.185   3.097
 1875SOL     OW 5670   1.341   4.314   3.301
 1875SOL    HW1 5671   1.370   4.281   3.391
 1875SOL    HW2 5672   1.374   4.407   3.287
 1876SOL     OW 5673   0.821   5.112   2.804
 1876SOL    HW1 5674   0.910   5.101   2.761
 1876SOL    HW2 5675   0.751   5.119   2.733
 1877SOL     OW 5676   0.927   4.233   2.759
 1877SOL    HW1 5677   0.901   4.223   2.663
 1877SOL    HW2 5678   0.958   4.145   2.795
 1878SOL     OW 5679   0.547   3.787   2.357
 1878SOL    HW1 5680   0.465   3.784   2.414
 1878SOL    HW2 5681   0.543   3.867   2.297
 1879SOL     OW 5682   1.425   4.923   1.905
 1879SOL    HW1 5683   1.459   4.846   1.959
 1879SOL    HW2 5684   1.337   4.953   1.941
 1880SOL     OW 5685   0.291   3.767   2.051
 1880SOL    HW1 5686   0.341   3.846   2.014
 1880SOL    HW2 5687   0.357   3.702   2.089
 1881SOL     OW 5688   0.947   3.975   2.318
 1881SOL    HW1 5689   0.916   4.016   2.232
 1881SOL    HW2 5690   1.045   3.989   2.327
 1882SOL     OW 5691   1.078   4.408   3.316
 1882SOL    HW1 5692   1.002   4.343   3.320
 1882SOL    HW2 5693   1.165   4.357   3.313
 1883SOL     OW 5694   1.220   5.293   2.656
 1883SOL    HW1 5695   1.233   5.363   2.586
 1883SOL    HW2 5696   1.291   5.302   2.726
 1884SOL     OW 5697   0.468   4.875   2.594
 1884SOL    HW1 5698   0.403   4.854   2.667
 1884SOL    HW2 5699   0.424   4.862   2.505
 1885SOL     OW 5700   1.262   5.515   2.473
 1885SOL    HW1 5701   1.314   5.578   2.414
 1885SOL    HW2 5702   1.188   5.566   2.518
 1886SOL     OW 5703   1.021   4.259   1.892
 1886SOL    HW1 5704   0.976   4.345   1.868
 1886SOL    HW2 5705   1.090   4.276   1.962
 1887SOL     OW 5706   0.074   4.275   3.237
 1887SOL    HW1 5707   0.169   4.267   3.208
 1887SOL    HW2 5708   0.066   4.343   3.309
 1888SOL     OW 5709   0.566   3.948   3.032
 1888SOL    HW1 5710   0.620   3.877   3.076
 1888SOL    HW2 5711   0.472   3.943   3.064
 1889SOL     OW 5712   0.866   4.181   2.498
 1889SOL    HW1 5713   0.816   4.243   2.438
 1889SOL    HW2 5714   0.894   4.100   2.448
 1890SOL     OW 5715   1.019   3.776   2.606
 1890SOL    HW1 5716   0.957   3.777   2.527
 1890SOL    HW2 5717   0.993   3.701   2.667
 1891SOL     OW 5718   1.446   4.884   2.720
 1891SOL    HW1 5719   1.369   4.820   2.724
 1891SOL    HW2 5720   1.475   4.895   2.625
 1892SOL     OW 5721   1.467   4.332   2.830
 1892SOL    HW1 5722   1.404   4.255   2.830
 1892SOL    HW2 5723   1.528   4.327   2.909
 1893SOL     OW 5724   1.841   4.532   2.242
 1893SOL    HW1 5725   1.900   4.485   2.308
 1893SOL    HW2 5726   1.812   4.468   2.171
 1894SOL     OW 5727   0.496   5.145   2.014
 1894SOL    HW1 5728   0.415   5.120   2.066
 1894SOL    HW2 5729   0.486   5.115   1.920
 1895SOL     OW 5730   1.676   4.991   2.505
 1895SOL    HW1 5731   1.775   4.988   2.517
 1895SOL    HW2 5732   1.642   5.083   2.525
 1896SOL     OW 5733   1.390   4.298   1.932
 1896SOL    HW1 5734   1.327   4.276   2.007
 1896SOL    HW2 5735   1.483   4.273   1.958
 1897SOL     OW 5736   0.531   3.985   2.171
 1897SOL    HW1 5737   0.579   3.931   2.102
 1897SOL    HW2 5738   0.502   4.072   2.131
 1898SOL     OW 5739   1.752   4.965   3.420
 1898SOL    HW1 5740   1.842   4.923   3.406
 1898SOL    HW2 5741   1.764   5.058   3.455
 1899SOL     OW 5742   1.052   5.073   3.197
 1899SOL    HW1 5743   0.971   5.044   3.247
 1899SOL    HW2 5744   1.134   5.034   3.240
 1900SOL     OW 5745   1.614   5.354   3.520
 1900SOL    HW1 5746   1.598   5.389   3.428
 1900SOL    HW2 5747   1.700   5.302   3.521
 1901SOL     OW 5748   1.139   4.945   2.967
 1901SOL    HW1 5749   1.078   4.978   3.039
 1901SOL    HW2 5750   1.105   4.975   2.878
 1902SOL     OW 5751   1.624   4.821   2.941
 1902SOL    HW1 5752   1.619   4.886   3.017
 1902SOL    HW2 5753   1.548   4.837   2.878
 1903SOL     OW 5754   0.901   3.860   3.231
 1903SOL    HW1 5755   0.929   3.806   3.151
 1903SOL    HW2 5756   0.981   3.902   3.273
 1904SOL     OW 5757   0.979   4.839   3.583
 1904SOL    HW1 5758   0.885   4.858   3.611
 1904SOL    HW2 5759   0.981   4.756   3.527
 1905SOL     OW 5760   0.711   4.781   2.236
 1905SOL    HW1 5761   0.696   4.765   2.334
 1905SOL    HW2 5762   0.791   4.728   2.206
 1906SOL     OW 5763   0.430   4.529   3.111
 1906SOL    HW1 5764   0.500   4.545   3.180
 1906SOL    HW2 5765   0.388   4.440   3.126
 1907SOL     OW 5766   1.268   4.115   3.131
 1907SOL    HW1 5767   1.302   4.192   3.185
 1907SOL    HW2 5768   1.173   4.132   3.103
 1908SOL     OW 5769   0.068   5.288   3.181
 1908SOL    HW1 5770   0.018   5.372   3.199
 1908SOL    HW2 5771   0.165   5.302   3.200
 1909SOL     OW 5772   0.339   4.841   2.354
 1909SOL    HW1 5773   0.349   4.921   2.294
 1909SOL    HW2 5774   0.338   4.758   2.298
 1910SOL     OW 5775   0.548   4.266   2.725
 1910SOL    HW1 5776   0.562   4.326   2.646
 1910SOL    HW2 5777   0.617   4.286   2.794
 1911SOL     OW 5778   1.246   5.079   2.255
 1911SOL    HW1 5779   1.307   5.151   2.286
 1911SOL    HW2 5780   1.152   5.099   2.285
 1912SOL     OW 5781   1.289   5.186   3.009
 1912SOL    HW1 5782   1.347   5.192   3.091
 1912SOL    HW2 5783   1.234   5.103   3.013
 1913SOL     OW 5784   1.577   4.344   2.345
 1913SOL    HW1 5785   1.526   4.391   2.418
 1913SOL    HW2 5786   1.623   4.412   2.288
 1914SOL     OW 5787   0.351   5.258   3.170
 1914SOL    HW1 5788   0.332   5.210   3.084
 1914SOL    HW2 5789   0.450   5.270   3.180
 1915SOL     OW 5790   0.426   4.458   3.460
 1915SOL    HW1 5791   0.487   4.510   3.400
 1915SOL    HW2 5792   0.470   4.371   3.484
 1916SOL     OW 5793   1.609   4.511   3.547
 1916SOL    HW1 5794   1.518   4.553   3.544
 1916SOL    HW2 5795   1.666   4.551   3.475
 1917SOL     OW 5796   0.980   3.907   3.665
 1917SOL    HW1 5797   1.044   3.972   3.626
 1917SOL    HW2 5798   1.011   3.814   3.646
 1918SOL     OW 5799   0.481   3.770   3.613
 1918SOL    HW1 5800   0.438   3.717   3.540
 1918SOL    HW2 5801   0.426   3.851   3.632
 1919SOL     OW 5802   0.588   4.595   2.895
 1919SOL    HW1 5803   0.621   4.690   2.892
 1919SOL    HW2 5804   0.529   4.582   2.974
 1920SOL     OW 5805   1.349   4.580   2.885
 1920SOL    HW1 5806   1.258   4.571   2.846
 1920SOL    HW2 5807   1.399   4.494   2.875
 1921SOL     OW 5808   1.197   4.250   2.126
 1921SOL    HW1 5809   1.210   4.168   2.180
 1921SOL    HW2 5810   1.153   4.321   2.181
 1922SOL     OW 5811   0.309   3.916   3.108
 1922SOL    HW1 5812   0.270   3.953   3.192
 1922SOL    HW2 5813   0.291   3.818   3.102
 1923SOL     OW 5814   0.098   5.029   3.124
 1923SOL    HW1 5815   0.106   4.966   3.202
 1923SOL    HW2 5816   0.088   5.123   3.158
 1924SOL     OW 5817   0.725   4.354   2.916
 1924SOL    HW1 5818   0.802   4.333   2.856
 1924SOL    HW2 5819   0.691   4.446   2.897
 1925SOL     OW 5820   1.737   4.685   3.719
 1925SOL    HW1 5821   1.693   4.617   3.660
 1925SOL    HW2 5822   1.677   4.705   3.797
 1926SOL     OW 5823   0.302   3.784   2.487
 1926SOL    HW1 5824   0.282   3.880   2.505
 1926SOL    HW2 5825   0.315   3.736   2.574
 1927SOL     OW 5826   1.628   4.106   2.223
 1927SOL    HW1 5827   1.654   4.032   2.285
 1927SOL    HW2 5828   1.599   4.185   2.276
 1928SOL     OW 5829   1.025   4.480   2.820
 1928SOL    HW1 5830   1.018   4.501   2.917
 1928SOL    HW2 5831   0.997   4.385   2.805
 1929SOL     OW 5832   0.983   5.288   3.580
 1929SOL    HW1 5833   0.965   5.335   3.494
 1929SOL    HW2 5834   1.030   5.201   3.562
 1930SOL     OW 5835   1.855   5.226   3.465
 1930SOL    HW1 5836   1.873   5.253   3.371
 1930SOL    HW2 5837   1.937   5.238   3.520
 1931SOL     OW 5838   0.366   4.640   3.660
 1931SOL    HW1 5839   0.443   4.665   3.718
 1931SOL    HW2 5840   0.395   4.572   3.593
 1932SOL     OW 5841   1.527   3.992   1.992
 1932SOL    HW1 5842   1.458   3.924   2.017
 1932SOL    HW2 5843   1.564   4.035   2.075
 1933SOL     OW 5844   1.288   4.550   1.887
 1933SOL    HW1 5845   1.329   4.459   1.896
 1933SOL    HW2 5846   1.320   4.592   1.803
 1934SOL     OW 5847   1.071   5.062   2.717
 1934SOL    HW1 5848   1.075   4.984   2.655
 1934SOL    HW2 5849   1.129   5.135   2.682
 1935SOL     OW 5850   0.322   4.525   2.802
 1935SOL    HW1 5851   0.419   4.550   2.803
 1935SOL    HW2 5852   0.310   4.434   2.840
 1936SOL     OW 5853   0.327   4.245   2.875
 1936SOL    HW1 5854   0.289   4.154   2.861
 1936SOL    HW2 5855   0.408   4.257   2.817
 1937SOL     OW 5856   1.138   4.107   3.562
 1937SOL    HW1 5857   1.090   4.168   3.625
 1937SOL    HW2 5858   1.234   4.136   3.555
 1938SOL     OW 5859   1.125   3.976   3.323
 1938SOL    HW1 5860   1.130   4.028   3.409
 1938SOL    HW2 5861   1.186   4.018   3.256
 1939SOL     OW 5862   6.992   5.046   2.082
 1939SOL    HW1 5863   6.920   5.071   2.146
 1939SOL    HW2 5864   0.020   4.951   2.099
 1940SOL     OW 5865   0.098   5.479   2.813
 1940SOL    HW1 5866   0.078   5.404   2.749
 1940SOL    HW2 5867   0.184   5.523   2.786
 1941SOL     OW 5868   0.493   5.303   2.766
 1941SOL    HW1 5869   0.563   5.369   2.793
 1941SOL    HW2 5870   0.533   5.235   2.705
 1942SOL     OW 5871   0.973   4.518   3.085
 1942SOL    HW1 5872   1.033   4.494   3.162
 1942SOL    HW2 5873   0.885   4.472   3.097
 1943SOL     OW 5874   0.052   4.334   2.968
 1943SOL    HW1 5875   0.128   4.288   2.923
 1943SOL    HW2 5876   0.052   4.313   3.065
 1944SOL     OW 5877   0.208   4.236   3.584
 1944SOL    HW1 5878   0.284   4.189   3.540
 1944SOL    HW2 5879   0.190   4.322   3.537
 1945SOL     OW 5880   1.380   4.658   3.516
 1945SOL    HW1 5881   1.403   4.756   3.517
 1945SOL    HW2 5882   1.376   4.626   3.421
 1946SOL     OW 5883   0.816   4.297   2.221
 1946SOL    HW1 5884   0.828   4.216   2.163
 1946SOL    HW2 5885   0.737   4.350   2.189
 1947SOL     OW 5886   1.643   4.329   3.040
 1947SOL    HW1 5887   1.625   4.269   3.118
 1947SOL    HW2 5888   1.734   4.311   3.005
 1948SOL     OW 5889   0.285   5.284   3.602
 1948SOL    HW1 5890   0.230   5.352   3.651
 1948SOL    HW2 5891   0.267   5.193   3.639
 1949SOL     OW 5892   0.704   4.175   3.117
 1949SOL    HW1 5893   0.651   4.094   3.090
 1949SOL    HW2 5894   0.703   4.241   3.042
 1950SOL     OW 5895   0.921   5.404   3.334
 1950SOL    HW1 5896   0.894   5.358   3.250
 1950SOL    HW2 5897   0.919   5.503   3.319
 1951SOL     OW 5898   0.451   4.211   2.045
 1951SOL    HW1 5899   0.508   4.292   2.061
 1951SOL    HW2 5900   0.366   4.218   2.097
 1952SOL     OW 5901   0.165   4.847   3.331
 1952SOL    HW1 5902   0.154   4.787   3.410
 1952SOL    HW2 5903   0.180   4.792   3.249
 1953SOL     OW 5904   1.315   4.767   3.080
 1953SOL    HW1 5905   1.341   4.699   3.012
 1953SOL    HW2 5906   1.248   4.830   3.040
 1954SOL     OW 5907   1.317   4.581   2.160
 1954SOL    HW1 5908   1.241   4.553   2.219
 1954SOL    HW2 5909   1.291   4.568   2.065
 1955SOL     OW 5910   1.781   5.452   3.020
 1955SOL    HW1 5911   1.842   5.486   2.948
 1955SOL    HW2 5912   1.749   5.360   2.995
 1956SOL     OW 5913   1.241   5.457   2.966
 1956SOL    HW1 5914   1.327   5.486   2.924
 1956SOL    HW2 5915   1.247   5.360   2.990
 1957SOL     OW 5916   0.071   4.968   2.866
 1957SOL    HW1 5917   0.088   4.988   2.962
 1957SOL    HW2 5918   6.972   4.954   2.852
 1958SOL     OW 5919   0.682   5.399   3.600
 1958SOL    HW1 5920   0.616   5.474   3.595
 1958SOL    HW2 5921   0.753   5.412   3.531
 1959SOL     OW 5922   1.721   3.875   2.360
 1959SOL    HW1 5923   1.796   3.865   2.295
 1959SOL    HW2 5924   1.703   3.787   2.405
 1960SOL     OW 5925   1.396   5.294   2.350
 1960SOL    HW1 5926   1.458   5.327   2.279
 1960SOL    HW2 5927   1.340   5.371   2.383
 1961SOL     OW 5928   0.140   5.508   3.716
 1961SOL    HW1 5929   0.094   5.435   3.766
 1961SOL    HW2 5930   0.194   5.563   3.779
 1962SOL     OW 5931   1.282   4.653   2.527
 1962SOL    HW1 5932   1.357   4.588   2.544
 1962SOL    HW2 5933   1.315   4.730   2.473
 1963SOL     OW 5934   0.802   5.004   3.287
 1963SOL    HW1 5935   0.773   5.047   3.372
 1963SOL    HW2 5936   0.731   5.018   3.217
 1964SOL     OW 5937   0.673   5.348   2.016
 1964SOL    HW1 5938   0.687   5.368   1.919
 1964SOL    HW2 5939   0.616   5.267   2.025
 1965SOL     OW 5940   1.616   5.453   3.249
 1965SOL    HW1 5941   1.674   5.453   3.168
 1965SOL    HW2 5942   1.602   5.546   3.280
 1966SOL     OW 5943   1.844   3.891   2.824
 1966SOL    HW1 5944   1.877   3.800   2.801
 1966SOL    HW2 5945   1.752   3.904   2.786
 1967SOL     OW 5946   0.263   4.040   2.576
 1967SOL    HW1 5947   0.188   4.103   2.556
 1967SOL    HW2 5948   0.265   4.020   2.674
 1968SOL     OW 5949   1.209   5.324   1.895
 1968SOL    HW1 5950   1.199   5.230   1.928
 1968SOL    HW2 5951   1.141   5.341   1.824
 1969SOL     OW 5952   0.823   4.734   3.242
 1969SOL    HW1 5953   0.873   4.718   3.156
 1969SOL    HW2 5954   0.819   4.833   3.259
 1970SOL     OW 5955   0.919   4.634   2.149
 1970SOL    HW1 5956   0.980   4.670   2.078
 1970SOL    HW2 5957   0.966   4.563   2.201
 1971SOL     OW 5958   1.488   5.355   1.904
 1971SOL    HW1 5959   1.389   5.343   1.893
 1971SOL    HW2 5960   1.532   5.360   1.815
 1972SOL     OW 5961   0.372   5.031   3.347
 1972SOL    HW1 5962   0.359   5.112   3.290
 1972SOL    HW2 5963   0.302   4.963   3.326
 1973SOL     OW 5964   1.613   5.009   3.147
 1973SOL    HW1 5965   1.675   4.989   3.222
 1973SOL    HW2 5966   1.547   5.078   3.176
 1974SOL     OW 5967   1.063   4.831   2.578
 1974SOL    HW1 5968   0.986   4.781   2.617
 1974SOL    HW2 5969   1.132   4.765   2.545
 1975SOL     OW 5970   1.024   3.961   2.830
 1975SOL    HW1 5971   1.020   3.918   2.740
 1975SOL    HW2 5972   1.019   3.890   2.901
 1976SOL     OW 5973   0.608   5.211   2.342
 1976SOL    HW1 5974   0.659   5.157   2.275
 1976SOL    HW2 5975   0.528   5.253   2.299
 1977SOL     OW 5976   1.736   4.117   3.239
 1977SOL    HW1 5977   1.803   4.191   3.245
 1977SOL    HW2 5978   1.771   4.046   3.178
 1978SOL     OW 5979   0.257   5.075   2.136
 1978SOL    HW1 5980   0.158   5.074   2.119
 1978SOL    HW2 5981   0.275   5.112   2.227
 1979SOL     OW 5982   0.121   4.697   3.564
 1979SOL    HW1 5983   0.067   4.747   3.631
 1979SOL    HW2 5984   0.212   4.679   3.602
 1980SOL     OW 5985   0.670   3.923   3.363
 1980SOL    HW1 5986   0.755   3.907   3.313
 1980SOL    HW2 5987   0.691   3.956   3.455
 1981SOL     OW 5988   0.101   4.038   1.897
 1981SOL    HW1 5989   0.004   4.014   1.901
 1981SOL    HW2 5990   0.112   4.126   1.850
 1982SOL     OW 5991   1.422   4.580   3.256
 1982SOL    HW1 5992   1.366   4.643   3.203
 1982SOL    HW2 5993   1.516   4.582   3.222
 1983SOL     OW 5994   0.075   3.913   2.202
 1983SOL    HW1 5995   0.018   3.898   2.121
 1983SOL    HW2 5996   0.154   3.852   2.199
 1984SOL     OW 5997   1.180   5.061   1.983
 1984SOL    HW1 5998   1.083   5.034   1.976
 1984SOL    HW2 5999   1.207   5.062   2.079
 1985SOL     OW 6000   0.625   4.553   3.296
 1985SOL    HW1 6001   0.681   4.635   3.282
 1985SOL    HW2 6002   0.685   4.473   3.305
 1986SOL     OW 6003   1.485   5.514   2.851
 1986SOL    HW1 6004   1.506   5.577   2.776
 1986SOL    HW2 6005   1.571   5.479   2.889
 1987SOL     OW 6006   0.713   4.290   3.563
 1987SOL    HW1 6007   0.763   4.352   3.623
 1987SOL    HW2 6008   0.725   4.196   3.594
 1988SOL     OW 6009   1.474   4.919   3.496
 1988SOL    HW1 6010   1.459   4.933   3.594
 1988SOL    HW2 6011   1.570   4.939   3.474
 1989SOL     OW 6012   0.370   5.471   3.425
 1989SOL    HW1 6013   0.283   5.517   3.410
 1989SOL    HW2 6014   0.354   5.386   3.477
 1990SOL     OW 6015   1.665   4.602   3.118
 1990SOL    HW1 6016   1.660   4.512   3.076
 1990SOL    HW2 6017   1.652   4.672   3.047
 1991SOL     OW 6018   1.220   4.041   2.322
 1991SOL    HW1 6019   1.283   3.964   2.312
 1991SOL    HW2 6020   1.246   4.096   2.401
 1992SOL     OW 6021   0.588   4.461   2.532
 1992SOL    HW1 6022   0.629   4.552   2.524
 1992SOL    HW2 6023   0.520   4.448   2.460
 1993SOL     OW 6024   1.714   4.101   3.510
 1993SOL    HW1 6025   1.721   4.108   3.411
 1993SOL    HW2 6026   1.721   4.005   3.537
 1994SOL     OW 6027   1.753   4.656   3.371
 1994SOL    HW1 6028   1.741   4.753   3.393
 1994SOL    HW2 6029   1.731   4.641   3.275
 1995SOL     OW 6030   0.870   5.087   1.909
 1995SOL    HW1 6031   0.826   5.110   1.995
 1995SOL    HW2 6032   0.881   5.170   1.854
 1996SOL     OW 6033   0.667   5.509   2.804
 1996SOL    HW1 6034   0.643   5.603   2.782
 1996SOL    HW2 6035   0.765   5.495   2.792
 1997SOL     OW 6036   0.869   4.695   2.718
 1997SOL    HW1 6037   0.920   4.617   2.754
 1997SOL    HW2 6038   0.826   4.745   2.793
 1998SOL     OW 6039   1.076   4.712   1.945
 1998SOL    HW1 6040   1.050   4.767   1.866
 1998SOL    HW2 6041   1.155   4.655   1.921
 1999SOL     OW 6042   1.844   5.280   2.709
 1999SOL    HW1 6043   1.768   5.269   2.646
 1999SOL    HW2 6044   1.839   5.212   2.782
 2000SOL     OW 6045   0.242   5.032   3.727
 2000SOL    HW1 6046   0.150   5.000   3.707
 2000SOL    HW2 6047   0.253   5.042   3.826
 2001SOL     OW 6048   0.154   4.998   2.554
 2001SOL    HW1 6049   0.106   4.952   2.629
 2001SOL    HW2 6050   0.197   4.929   2.496
 2002SOL     OW 6051   0.687   5.134   3.498
 2002SOL    HW1 6052   0.605   5.084   3.526
 2002SOL    HW2 6053   0.682   5.227   3.534
 2003SOL     OW 6054   1.830   3.916   3.094
 2003SOL    HW1 6055   1.806   3.824   3.123
 2003SOL    HW2 6056   1.837   3.919   2.994
 2004SOL     OW 6057   0.453   4.152   2.399
 2004SOL    HW1 6058   0.480   4.082   2.332
 2004SOL    HW2 6059   0.397   4.110   2.470
 2005SOL     OW 6060   1.693   5.205   2.955
 2005SOL    HW1 6061   1.612   5.188   2.899
 2005SOL    HW2 6062   1.700   5.135   3.026
 2006SOL     OW 6063   0.332   4.275   3.153
 2006SOL    HW1 6064   0.389   4.220   3.214
 2006SOL    HW2 6065   0.349   4.249   3.059
 2007SOL     OW 6066   0.829   5.303   2.540
 2007SOL    HW1 6067   0.814   5.366   2.464
 2007SOL    HW2 6068   0.752   5.239   2.547
 2008SOL     OW 6069   1.432   3.955   2.982
 2008SOL    HW1 6070   1.454   3.868   3.026
 2008SOL    HW2 6071   1.376   4.011   3.043
 2009SOL     OW 6072   1.008   3.738   3.000
 2009SOL    HW1 6073   0.944   3.671   2.963
 2009SOL    HW2 6074   1.100   3.698   3.003
 2010SOL     OW 6075   0.775   5.055   2.184
 2010SOL    HW1 6076   0.748   4.959   2.193
 2010SOL    HW2 6077   0.860   5.070   2.235
 2011SOL     OW 6078   0.626   5.283   3.152
 2011SOL    HW1 6079   0.623   5.370   3.202
 2011SOL    HW2 6080   0.716   5.271   3.111
 2012SOL     OW 6081   1.355   3.773   2.033
 2012SOL    HW1 6082   1.398   3.705   1.974
 2012SOL    HW2 6083   1.262   3.745   2.055
 2013SOL     OW 6084   1.292   4.188   2.543
 2013SOL    HW1 6085   1.239   4.273   2.544
 2013SOL    HW2 6086   1.289   4.146   2.633
 2014SOL     OW 6087   1.587   3.926   2.748
 2014SOL    HW1 6088   1.528   3.945   2.827
 2014SOL    HW2 6089   1.587   4.005   2.688
 2015SOL     OW 6090   0.070   4.788   2.138
 2015SOL    HW1 6091   0.163   4.751   2.138
 2015SOL    HW2 6092   0.006   4.714   2.159
 2016SOL     OW 6093   0.886   5.388   2.202
 2016SOL    HW1 6094   0.811   5.367   2.138
 2016SOL    HW2 6095   0.859   5.465   2.260
 2017SOL     OW 6096   0.182   4.376   3.846
 2017SOL    HW1 6097   0.175   4.310   3.921
 2017SOL    HW2 6098   0.224   4.332   3.766
 2018SOL     OW 6099   0.230   3.995   4.712
 2018SOL    HW1 6100   0.282   3.962   4.791
 2018SOL    HW2 6101   0.133   3.979   4.727
 2019SOL     OW 6102   6.990   4.108   4.377
 2019SOL    HW1 6103   6.942   4.104   4.465
 2019SOL    HW2 6104   0.012   4.016   4.347
 2020SOL     OW 6105   0.570   5.023   4.912
 2020SOL    HW1 6106   0.480   5.021   4.868
 2020SOL    HW2 6107   0.588   5.115   4.946
 2021SOL     OW 6108   1.566   5.238   4.432
 2021SOL    HW1 6109   1.523   5.213   4.518
 2021SOL    HW2 6110   1.496   5.245   4.361
 2022SOL     OW 6111   1.133   4.427   4.418
 2022SOL    HW1 6112   1.185   4.511   4.401
 2022SOL    HW2 6113   1.083   4.436   4.504
 2023SOL     OW 6114   1.774   4.321   3.948
 2023SOL    HW1 6115   1.747   4.320   3.852
 2023SOL    HW2 6116   1.731   4.244   3.995
 2024SOL     OW 6117   0.742   4.864   4.765
 2024SOL    HW1 6118   0.674   4.899   4.830
 2024SOL    HW2 6119   0.786   4.941   4.719
 2025SOL     OW 6120   0.874   4.487   5.544
 2025SOL    HW1 6121   0.865   4.555   5.617
 2025SOL    HW2 6122   0.898   4.532   5.459
 2026SOL     OW 6123   0.683   4.723   4.374
 2026SOL    HW1 6124   0.755   4.714   4.442
 2026SOL    HW2 6125   0.608   4.779   4.411
 2027SOL     OW 6126   0.713   4.877   5.544
 2027SOL    HW1 6127   0.766   4.955   5.578
 2027SOL    HW2 6128   0.629   4.909   5.500
 2028SOL     OW 6129   0.334   5.143   4.788
 2028SOL    HW1 6130   0.255   5.104   4.741
 2028SOL    HW2 6131   0.385   5.202   4.725
 2029SOL     OW 6132   1.457   5.226   5.083
 2029SOL    HW1 6133   1.515   5.307   5.090
 2029SOL    HW2 6134   1.386   5.230   5.152
 2030SOL     OW 6135   0.442   4.117   5.216
 2030SOL    HW1 6136   0.525   4.062   5.218
 2030SOL    HW2 6137   0.362   4.058   5.224
 2031SOL     OW 6138   1.610   4.169   4.469
 2031SOL    HW1 6139   1.536   4.187   4.405
 2031SOL    HW2 6140   1.615   4.244   4.536
 2032SOL     OW 6141   0.226   5.434   4.190
 2032SOL    HW1 6142   0.241   5.513   4.249
 2032SOL    HW2 6143   0.297   5.431   4.120
 2033SOL     OW 6144   1.138   5.064   5.422
 2033SOL    HW1 6145   1.184   5.062   5.510
 2033SOL    HW2 6146   1.081   4.981   5.411
 2034SOL     OW 6147   0.279   5.167   4.244
 2034SOL    HW1 6148   0.255   5.264   4.249
 2034SOL    HW2 6149   0.230   5.117   4.315
 2035SOL     OW 6150   0.272   4.806   4.632
 2035SOL    HW1 6151   0.268   4.710   4.659
 2035SOL    HW2 6152   0.199   4.857   4.677
 2036SOL     OW 6153   0.601   5.520   5.151
 2036SOL    HW1 6154   0.515   5.498   5.197
 2036SOL    HW2 6155   0.630   5.612   5.179
 2037SOL     OW 6156   0.580   4.712   3.866
 2037SOL    HW1 6157   0.628   4.759   3.792
 2037SOL    HW2 6158   0.619   4.740   3.954
 2038SOL     OW 6159   1.597   3.849   5.193
 2038SOL    HW1 6160   1.618   3.929   5.137
 2038SOL    HW2 6161   1.581   3.878   5.287
 2039SOL     OW 6162   0.132   4.338   4.299
 2039SOL    HW1 6163   0.064   4.269   4.322
 2039SOL    HW2 6164   0.121   4.417   4.360
 2040SOL     OW 6165   1.847   5.479   4.056
 2040SOL    HW1 6166   1.917   5.449   4.120
 2040SOL    HW2 6167   1.862   5.575   4.032
 2041SOL     OW 6168   0.034   5.316   3.872
 2041SOL    HW1 6169   0.025   5.217   3.886
 2041SOL    HW2 6170   6.957   5.362   3.915
 2042SOL     OW 6171   1.691   4.645   4.372
 2042SOL    HW1 6172   1.776   4.594   4.354
 2042SOL    HW2 6173   1.668   4.699   4.291
 2043SOL     OW 6174   1.653   4.828   4.156
 2043SOL    HW1 6175   1.742   4.824   4.111
 2043SOL    HW2 6176   1.656   4.895   4.230
 2044SOL     OW 6177   0.148   4.455   5.303
 2044SOL    HW1 6178   0.246   4.462   5.287
 2044SOL    HW2 6179   0.113   4.543   5.336
 2045SOL     OW 6180   0.612   5.115   4.459
 2045SOL    HW1 6181   0.565   5.028   4.472
 2045SOL    HW2 6182   0.599   5.146   4.364
 2046SOL     OW 6183   1.288   4.958   5.145
 2046SOL    HW1 6184   1.314   4.888   5.080
 2046SOL    HW2 6185   1.348   4.954   5.225
 2047SOL     OW 6186   0.818   3.735   4.233
 2047SOL    HW1 6187   0.863   3.820   4.209
 2047SOL    HW2 6188   0.719   3.750   4.240
 2048SOL     OW 6189   0.205   4.685   4.986
 2048SOL    HW1 6190   0.288   4.632   4.970
 2048SOL    HW2 6191   0.134   4.655   4.922
 2049SOL     OW 6192   1.533   4.725   3.928
 2049SOL    HW1 6193   1.459   4.665   3.958
 2049SOL    HW2 6194   1.579   4.763   4.009
 2050SOL     OW 6195   1.182   5.537   5.347
 2050SOL    HW1 6196   1.189   5.605   5.274
 2050SOL    HW2 6197   1.202   5.446   5.309
 2051SOL     OW 6198   0.355   3.975   5.560
 2051SOL    HW1 6199   0.403   4.058   5.588
 2051SOL    HW2 6200   0.258   3.984   5.580
 2052SOL     OW 6201   1.465   5.144   4.670
 2052SOL    HW1 6202   1.399   5.163   4.742
 2052SOL    HW2 6203   1.457   5.049   4.642
 2053SOL     OW 6204   1.649   5.475   4.299
 2053SOL    HW1 6205   1.631   5.446   4.205
 2053SOL    HW2 6206   1.629   5.400   4.362
 2054SOL     OW 6207   0.589   4.439   3.990
 2054SOL    HW1 6208   0.599   4.527   3.944
 2054SOL    HW2 6209   0.525   4.449   4.067
 2055SOL     OW 6210   1.277   4.085   4.658
 2055SOL    HW1 6211   1.184   4.050   4.664
 2055SOL    HW2 6212   1.337   4.032   4.719
 2056SOL     OW 6213   1.583   5.397   4.032
 2056SOL    HW1 6214   1.679   5.424   4.028
 2056SOL    HW2 6215   1.550   5.380   3.939
 2057SOL     OW 6216   0.790   4.336   5.174
 2057SOL    HW1 6217   0.764   4.312   5.268
 2057SOL    HW2 6218   0.753   4.268   5.111
 2058SOL     OW 6219   1.391   4.194   5.403
 2058SOL    HW1 6220   1.392   4.243   5.490
 2058SOL    HW2 6221   1.451   4.114   5.410
 2059SOL     OW 6222   0.952   4.608   5.307
 2059SOL    HW1 6223   1.010   4.537   5.269
 2059SOL    HW2 6224   0.899   4.651   5.235
 2060SOL     OW 6225   0.994   4.129   4.952
 2060SOL    HW1 6226   0.903   4.150   4.988
 2060SOL    HW2 6227   0.984   4.080   4.865
 2061SOL     OW 6228   1.049   4.423   4.149
 2061SOL    HW1 6229   1.071   4.418   4.246
 2061SOL    HW2 6230   0.963   4.375   4.132
 2062SOL     OW 6231   0.100   4.541   4.500
 2062SOL    HW1 6232   0.194   4.533   4.534
 2062SOL    HW2 6233   0.041   4.572   4.574
 2063SOL     OW 6234   0.119   5.595   5.316
 2063SOL    HW1 6235   0.131   5.570   5.412
 2063SOL    HW2 6236   0.028   5.568   5.285
 2064SOL     OW 6237   0.899   4.073   3.916
 2064SOL    HW1 6238   0.938   4.146   3.860
 2064SOL    HW2 6239   0.909   3.986   3.868
 2065SOL     OW 6240   1.700   4.296   5.550
 2065SOL    HW1 6241   1.665   4.376   5.500
 2065SOL    HW2 6242   1.730   4.226   5.485
 2066SOL     OW 6243   1.380   4.867   4.257
 2066SOL    HW1 6244   1.465   4.852   4.206
 2066SOL    HW2 6245   1.324   4.934   4.210
 2067SOL     OW 6246   0.551   3.898   4.624
 2067SOL    HW1 6247   0.557   3.927   4.720
 2067SOL    HW2 6248   0.555   3.978   4.564
 2068SOL     OW 6249   0.994   5.167   4.188
 2068SOL    HW1 6250   0.963   5.248   4.137
 2068SOL    HW2 6251   0.977   5.180   4.285
 2069SOL     OW 6252   0.357   5.543   4.592
 2069SOL    HW1 6253   0.397   5.453   4.603
 2069SOL    HW2 6254   0.425   5.613   4.613
 2070SOL     OW 6255   1.798   4.780   4.596
 2070SOL    HW1 6256   1.747   4.756   4.514
 2070SOL    HW2 6257   1.735   4.786   4.674
 2071SOL     OW 6258   1.226   5.260   5.238
 2071SOL    HW1 6259   1.214   5.186   5.304
 2071SOL    HW2 6260   1.157   5.253   5.166
 2072SOL     OW 6261   0.317   4.669   3.975
 2072SOL    HW1 6262   0.404   4.694   3.933
 2072SOL    HW2 6263   0.286   4.581   3.938
 2073SOL     OW 6264   1.483   4.475   4.446
 2073SOL    HW1 6265   1.478   4.430   4.535
 2073SOL    HW2 6266   1.564   4.534   4.443
 2074SOL     OW 6267   0.473   4.986   5.452
 2074SOL    HW1 6268   0.445   4.996   5.356
 2074SOL    HW2 6269   0.391   4.986   5.510
 2075SOL     OW 6270   1.122   5.500   3.950
 2075SOL    HW1 6271   1.042   5.463   3.998
 2075SOL    HW2 6272   1.151   5.435   3.879
 2076SOL     OW 6273   0.195   3.990   5.213
 2076SOL    HW1 6274   0.113   4.044   5.198
 2076SOL    HW2 6275   0.171   3.905   5.260
 2077SOL     OW 6276   1.625   5.106   3.812
 2077SOL    HW1 6277   1.586   5.197   3.797
 2077SOL    HW2 6278   1.555   5.037   3.794
 2078SOL     OW 6279   0.468   5.458   4.040
 2078SOL    HW1 6280   0.509   5.519   4.108
 2078SOL    HW2 6281   0.540   5.422   3.981
 2079SOL     OW 6282   1.402   3.830   4.165
 2079SOL    HW1 6283   1.389   3.809   4.068
 2079SOL    HW2 6284   1.500   3.837   4.184
 2080SOL     OW 6285   0.257   5.517   4.946
 2080SOL    HW1 6286   0.308   5.443   4.989
 2080SOL    HW2 6287   0.212   5.483   4.863
 2081SOL     OW 6288   0.936   5.427   4.620
 2081SOL    HW1 6289   1.018   5.379   4.652
 2081SOL    HW2 6290   0.894   5.374   4.545
 2082SOL     OW 6291   0.402   4.406   4.198
 2082SOL    HW1 6292   0.429   4.312   4.219
 2082SOL    HW2 6293   0.304   4.418   4.217
 2083SOL     OW 6294   1.527   3.947   5.452
 2083SOL    HW1 6295   1.538   3.967   5.549
 2083SOL    HW2 6296   1.454   3.879   5.440
 2084SOL     OW 6297   0.633   3.842   3.828
 2084SOL    HW1 6298   0.708   3.776   3.837
 2084SOL    HW2 6299   0.574   3.815   3.752
 2085SOL     OW 6300   0.763   4.001   5.482
 2085SOL    HW1 6301   0.848   3.949   5.474
 2085SOL    HW2 6302   0.711   3.969   5.561
 2086SOL     OW 6303   0.876   5.239   4.916
 2086SOL    HW1 6304   0.856   5.202   4.825
 2086SOL    HW2 6305   0.948   5.185   4.959
 2087SOL     OW 6306   1.339   4.313   5.160
 2087SOL    HW1 6307   1.369   4.278   5.248
 2087SOL    HW2 6308   1.375   4.405   5.146
 2088SOL     OW 6309   0.821   5.112   4.666
 2088SOL    HW1 6310   0.910   5.101   4.623
 2088SOL    HW2 6311   0.751   5.119   4.595
 2089SOL     OW 6312   0.927   4.231   4.621
 2089SOL    HW1 6313   0.901   4.223   4.525
 2089SOL    HW2 6314   0.959   4.142   4.654
 2090SOL     OW 6315   0.547   3.788   4.220
 2090SOL    HW1 6316   0.464   3.784   4.276
 2090SOL    HW2 6317   0.543   3.867   4.160
 2091SOL     OW 6318   1.425   4.923   3.767
 2091SOL    HW1 6319   1.459   4.846   3.821
 2091SOL    HW2 6320   1.336   4.953   3.802
 2092SOL     OW 6321   0.292   3.767   3.911
 2092SOL    HW1 6322   0.341   3.847   3.877
 2092SOL    HW2 6323   0.356   3.702   3.950
 2093SOL     OW 6324   0.947   3.975   4.178
 2093SOL    HW1 6325   0.917   4.013   4.090
 2093SOL    HW2 6326   1.045   3.989   4.188
 2094SOL     OW 6327   1.079   4.407   5.178
 2094SOL    HW1 6328   1.005   4.341   5.184
 2094SOL    HW2 6329   1.167   4.359   5.174
 2095SOL     OW 6330   1.220   5.293   4.518
 2095SOL    HW1 6331   1.233   5.363   4.448
 2095SOL    HW2 6332   1.291   5.302   4.588
 2096SOL     OW 6333   0.468   4.875   4.456
 2096SOL    HW1 6334   0.402   4.854   4.528
 2096SOL    HW2 6335   0.424   4.862   4.367
 2097SOL     OW 6336   1.262   5.515   4.335
 2097SOL    HW1 6337   1.314   5.577   4.276
 2097SOL    HW2 6338   1.188   5.566   4.380
 2098SOL     OW 6339   1.022   4.264   3.756
 2098SOL    HW1 6340   0.976   4.350   3.733
 2098SOL    HW2 6341   1.089   4.281   3.829
 2099SOL     OW 6342   0.074   4.275   5.099
 2099SOL    HW1 6343   0.169   4.268   5.070
 2099SOL    HW2 6344   0.066   4.344   5.172
 2100SOL     OW 6345   0.565   3.947   4.895
 2100SOL    HW1 6346   0.616   3.871   4.936
 2100SOL    HW2 6347   0.470   3.945   4.926
 2101SOL     OW 6348   0.866   4.182   4.360
 2101SOL    HW1 6349   0.815   4.243   4.300
 2101SOL    HW2 6350   0.894   4.101   4.309
 2102SOL     OW 6351   1.017   3.777   4.469
 2102SOL    HW1 6352   0.956   3.778   4.389
 2102SOL    HW2 6353   0.993   3.701   4.529
 2103SOL     OW 6354   1.446   4.884   4.582
 2103SOL    HW1 6355   1.369   4.820   4.586
 2103SOL    HW2 6356   1.475   4.895   4.487
 2104SOL     OW 6357   1.468   4.333   4.692
 2104SOL    HW1 6358   1.405   4.255   4.692
 2104SOL    HW2 6359   1.528   4.326   4.772
 2105SOL     OW 6360   1.843   4.532   4.104
 2105SOL    HW1 6361   1.900   4.485   4.170
 2105SOL    HW2 6362   1.813   4.468   4.033
 2106SOL     OW 6363   0.496   5.145   3.876
 2106SOL    HW1 6364   0.415   5.120   3.928
 2106SOL    HW2 6365   0.486   5.115   3.782
 2107SOL     OW 6366   1.676   4.991   4.367
 2107SOL    HW1 6367   1.775   4.988   4.379
 2107SOL    HW2 6368   1.642   5.083   4.387
 2108SOL     OW 6369   1.388   4.299   3.799
 2108SOL    HW1 6370   1.323   4.278   3.872
 2108SOL    HW2 6371   1.476   4.256   3.821
 2109SOL     OW 6372   0.530   3.986   4.036
 2109SOL    HW1 6373   0.576   3.931   3.967
 2109SOL    HW2 6374   0.502   4.073   3.995
 2110SOL     OW 6375   1.752   4.965   5.282
 2110SOL    HW1 6376   1.842   4.923   5.269
 2110SOL    HW2 6377   1.764   5.058   5.317
 2111SOL     OW 6378   1.052   5.073   5.059
 2111SOL    HW1 6379   0.971   5.044   5.110
 2111SOL    HW2 6380   1.134   5.033   5.102
 2112SOL     OW 6381   1.614   5.354   5.382
 2112SOL    HW1 6382   1.598   5.389   5.290
 2112SOL    HW2 6383   1.700   5.302   5.383
 2113SOL     OW 6384   1.138   4.945   4.829
 2113SOL    HW1 6385   1.078   4.979   4.901
 2113SOL    HW2 6386   1.105   4.976   4.740
 2114SOL     OW 6387   1.624   4.820   4.803
 2114SOL    HW1 6388   1.619   4.886   4.879
 2114SOL    HW2 6389   1.548   4.837   4.740
 2115SOL     OW 6390   0.923   3.818   5.115
 2115SOL    HW1 6391   0.945   3.795   5.020
 2115SOL    HW2 6392   1.003   3.861   5.157
 2116SOL     OW 6393   0.979   4.838   5.445
 2116SOL    HW1 6394   0.885   4.858   5.472
 2116SOL    HW2 6395   0.981   4.756   5.389
 2117SOL     OW 6396   0.711   4.781   4.098
 2117SOL    HW1 6397   0.696   4.765   4.196
 2117SOL    HW2 6398   0.791   4.728   4.068
 2118SOL     OW 6399   0.430   4.529   4.973
 2118SOL    HW1 6400   0.500   4.545   5.042
 2118SOL    HW2 6401   0.387   4.440   4.988
 2119SOL     OW 6402   1.262   4.100   5.005
 2119SOL    HW1 6403   1.299   4.179   5.054
 2119SOL    HW2 6404   1.167   4.117   4.980
 2120SOL     OW 6405   0.068   5.288   5.043
 2120SOL    HW1 6406   0.018   5.372   5.061
 2120SOL    HW2 6407   0.165   5.302   5.061
 2121SOL     OW 6408   0.339   4.841   4.216
 2121SOL    HW1 6409   0.349   4.921   4.156
 2121SOL    HW2 6410   0.338   4.758   4.160
 2122SOL     OW 6411   0.548   4.266   4.587
 2122SOL    HW1 6412   0.561   4.325   4.508
 2122SOL    HW2 6413   0.617   4.287   4.656
 2123SOL     OW 6414   1.246   5.079   4.117
 2123SOL    HW1 6415   1.307   5.151   4.148
 2123SOL    HW2 6416   1.152   5.099   4.147
 2124SOL     OW 6417   1.289   5.186   4.871
 2124SOL    HW1 6418   1.347   5.192   4.953
 2124SOL    HW2 6419   1.234   5.103   4.875
 2125SOL     OW 6420   1.576   4.344   4.208
 2125SOL    HW1 6421   1.525   4.391   4.280
 2125SOL    HW2 6422   1.622   4.412   4.150
 2126SOL     OW 6423   0.351   5.258   5.032
 2126SOL    HW1 6424   0.332   5.210   4.946
 2126SOL    HW2 6425   0.450   5.270   5.042
 2127SOL     OW 6426   0.426   4.458   5.322
 2127SOL    HW1 6427   0.487   4.510   5.262
 2127SOL    HW2 6428   0.469   4.371   5.346
 2128SOL     OW 6429   1.609   4.510   5.409
 2128SOL    HW1 6430   1.518   4.551   5.407
 2128SOL    HW2 6431   1.666   4.550   5.338
 2129SOL     OW 6432   0.997   3.859   5.474
 2129SOL    HW1 6433   1.055   3.939   5.459
 2129SOL    HW2 6434   1.046   3.776   5.448
 2130SOL     OW 6435   0.495   3.759   5.474
 2130SOL    HW1 6436   0.449   3.704   5.405
 2130SOL    HW2 6437   0.440   3.839   5.495
 2131SOL     OW 6438   0.589   4.595   4.757
 2131SOL    HW1 6439   0.621   4.690   4.754
 2131SOL    HW2 6440   0.529   4.583   4.836
 2132SOL     OW 6441   1.350   4.581   4.747
 2132SOL    HW1 6442   1.259   4.571   4.707
 2132SOL    HW2 6443   1.400   4.495   4.737
 2133SOL     OW 6444   1.194   4.251   3.989
 2133SOL    HW1 6445   1.208   4.168   4.042
 2133SOL    HW2 6446   1.151   4.321   4.046
 2134SOL     OW 6447   0.308   3.918   4.970
 2134SOL    HW1 6448   0.269   3.953   5.054
 2134SOL    HW2 6449   0.292   3.820   4.963
 2135SOL     OW 6450   0.098   5.029   4.986
 2135SOL    HW1 6451   0.106   4.966   5.064
 2135SOL    HW2 6452   0.087   5.123   5.020
 2136SOL     OW 6453   0.725   4.354   4.778
 2136SOL    HW1 6454   0.802   4.334   4.717
 2136SOL    HW2 6455   0.691   4.446   4.760
 2137SOL     OW 6456   1.737   4.685   5.581
 2137SOL    HW1 6457   1.694   4.615   5.523
 2137SOL    HW2 6458   1.677   4.704   5.659
 2138SOL     OW 6459   0.302   3.784   4.349
 2138SOL    HW1 6460   0.282   3.881   4.367
 2138SOL    HW2 6461   0.314   3.736   4.435
 2139SOL     OW 6462   1.632   4.107   4.086
 2139SOL    HW1 6463   1.655   4.031   4.148
 2139SOL    HW2 6464   1.601   4.185   4.140
 2140SOL     OW 6465   1.024   4.479   4.681
 2140SOL    HW1 6466   1.018   4.501   4.779
 2140SOL    HW2 6467   0.997   4.384   4.666
 2141SOL     OW 6468   0.983   5.287   5.442
 2141SOL    HW1 6469   0.965   5.334   5.356
 2141SOL    HW2 6470   1.030   5.201   5.424
 2142SOL     OW 6471   1.854   5.227   5.327
 2142SOL    HW1 6472   1.873   5.253   5.233
 2142SOL    HW2 6473   1.937   5.238   5.382
 2143SOL     OW 6474   0.366   4.640   5.522
 2143SOL    HW1 6475   0.443   4.665   5.580
 2143SOL    HW2 6476   0.395   4.572   5.455
 2144SOL     OW 6477   1.531   4.014   3.850
 2144SOL    HW1 6478   1.463   3.942   3.865
 2144SOL    HW2 6479   1.568   4.044   3.938
 2145SOL     OW 6480   1.288   4.550   3.750
 2145SOL    HW1 6481   1.330   4.460   3.761
 2145SOL    HW2 6482   1.320   4.592   3.665
 2146SOL     OW 6483   1.071   5.062   4.579
 2146SOL    HW1 6484   1.075   4.984   4.517
 2146SOL    HW2 6485   1.129   5.136   4.544
 2147SOL     OW 6486   0.322   4.525   4.664
 2147SOL    HW1 6487   0.419   4.549   4.665
 2147SOL    HW2 6488   0.311   4.434   4.702
 2148SOL     OW 6489   0.327   4.245   4.738
 2148SOL    HW1 6490   0.289   4.154   4.723
 2148SOL    HW2 6491   0.408   4.256   4.680
 2149SOL     OW 6492   1.134   4.097   5.417
 2149SOL    HW1 6493   1.081   4.153   5.480
 2149SOL    HW2 6494   1.226   4.134   5.408
 2150SOL     OW 6495   1.161   3.927   5.200
 2150SOL    HW1 6496   1.147   3.989   5.277
 2150SOL    HW2 6497   1.204   3.976   5.125
 2151SOL     OW 6498   6.992   5.046   3.944
 2151SOL    HW1 6499   6.920   5.071   4.008
 2151SOL    HW2 6500   0.020   4.951   3.961
 2152SOL     OW 6501   0.098   5.479   4.675
 2152SOL    HW1 6502   0.078   5.404   4.611
 2152SOL    HW2 6503   0.184   5.523   4.648
 2153SOL     OW 6504   0.493   5.303   4.628
 2153SOL    HW1 6505   0.563   5.369   4.655
 2153SOL    HW2 6506   0.533   5.235   4.567
 2154SOL     OW 6507   0.973   4.517   4.947
 2154SOL    HW1 6508   1.033   4.493   5.023
 2154SOL    HW2 6509   0.884   4.475   4.961
 2155SOL     OW 6510   0.051   4.334   4.829
 2155SOL    HW1 6511   0.127   4.287   4.785
 2155SOL    HW2 6512   0.051   4.313   4.927
 2156SOL     OW 6513   0.210   4.235   5.446
 2156SOL    HW1 6514   0.285   4.188   5.400
 2156SOL    HW2 6515   0.190   4.321   5.399
 2157SOL     OW 6516   1.381   4.658   5.378
 2157SOL    HW1 6517   1.404   4.756   5.379
 2157SOL    HW2 6518   1.377   4.626   5.284
 2158SOL     OW 6519   0.816   4.295   4.081
 2158SOL    HW1 6520   0.826   4.214   4.024
 2158SOL    HW2 6521   0.738   4.349   4.050
 2159SOL     OW 6522   1.642   4.327   4.904
 2159SOL    HW1 6523   1.626   4.268   4.982
 2159SOL    HW2 6524   1.734   4.310   4.868
 2160SOL     OW 6525   0.286   5.284   5.464
 2160SOL    HW1 6526   0.230   5.352   5.513
 2160SOL    HW2 6527   0.267   5.193   5.501
 2161SOL     OW 6528   0.708   4.172   4.977
 2161SOL    HW1 6529   0.653   4.093   4.952
 2161SOL    HW2 6530   0.705   4.240   4.903
 2162SOL     OW 6531   0.921   5.404   5.196
 2162SOL    HW1 6532   0.894   5.358   5.112
 2162SOL    HW2 6533   0.919   5.503   5.181
 2163SOL     OW 6534   0.452   4.211   3.906
 2163SOL    HW1 6535   0.508   4.292   3.922
 2163SOL    HW2 6536   0.367   4.219   3.958
 2164SOL     OW 6537   0.165   4.847   5.193
 2164SOL    HW1 6538   0.154   4.786   5.272
 2164SOL    HW2 6539   0.179   4.792   5.111
 2165SOL     OW 6540   1.315   4.767   4.942
 2165SOL    HW1 6541   1.342   4.699   4.874
 2165SOL    HW2 6542   1.248   4.830   4.902
 2166SOL     OW 6543   1.316   4.582   4.023
 2166SOL    HW1 6544   1.241   4.554   4.082
 2166SOL    HW2 6545   1.291   4.568   3.927
 2167SOL     OW 6546   1.781   5.452   4.882
 2167SOL    HW1 6547   1.842   5.486   4.810
 2167SOL    HW2 6548   1.749   5.360   4.857
 2168SOL     OW 6549   1.241   5.457   4.828
 2168SOL    HW1 6550   1.327   5.486   4.786
 2168SOL    HW2 6551   1.247   5.360   4.852
 2169SOL     OW 6552   0.071   4.967   4.728
 2169SOL    HW1 6553   0.088   4.987   4.824
 2169SOL    HW2 6554   6.972   4.955   4.714
 2170SOL     OW 6555   0.682   5.399   5.462
 2170SOL    HW1 6556   0.616   5.474   5.457
 2170SOL    HW2 6557   0.753   5.412   5.393
 2171SOL     OW 6558   1.719   3.875   4.222
 2171SOL    HW1 6559   1.793   3.864   4.156
 2171SOL    HW2 6560   1.702   3.788   4.267
 2172SOL     OW 6561   1.396   5.294   4.212
 2172SOL    HW1 6562   1.458   5.327   4.141
 2172SOL    HW2 6563   1.340   5.371   4.245
 2173SOL     OW 6564   0.140   5.508   5.578
 2173SOL    HW1 6565   0.094   5.435   5.628
 2173SOL    HW2 6566   0.194   5.563   5.641
 2174SOL     OW 6567   1.282   4.653   4.389
 2174SOL    HW1 6568   1.357   4.589   4.406
 2174SOL    HW2 6569   1.316   4.730   4.335
 2175SOL     OW 6570   0.802   5.003   5.149
 2175SOL    HW1 6571   0.773   5.047   5.235
 2175SOL    HW2 6572   0.731   5.018   5.080
 2176SOL     OW 6573   0.673   5.348   3.878
 2176SOL    HW1 6574   0.687   5.368   3.781
 2176SOL    HW2 6575   0.616   5.267   3.887
 2177SOL     OW 6576   1.616   5.453   5.111
 2177SOL    HW1 6577   1.674   5.453   5.030
 2177SOL    HW2 6578   1.602   5.547   5.142
 2178SOL     OW 6579   1.842   3.893   4.687
 2178SOL    HW1 6580   1.876   3.801   4.665
 2178SOL    HW2 6581   1.751   3.905   4.648
 2179SOL     OW 6582   0.263   4.040   4.438
 2179SOL    HW1 6583   0.188   4.103   4.418
 2179SOL    HW2 6584   0.265   4.020   4.536
 2180SOL     OW 6585   1.209   5.324   3.757
 2180SOL    HW1 6586   1.199   5.230   3.790
 2180SOL    HW2 6587   1.141   5.341   3.685
 2181SOL     OW 6588   0.824   4.734   5.103
 2181SOL    HW1 6589   0.873   4.719   5.017
 2181SOL    HW2 6590   0.819   4.833   5.122
 2182SOL     OW 6591   0.919   4.634   4.011
 2182SOL    HW1 6592   0.980   4.670   3.941
 2182SOL    HW2 6593   0.967   4.563   4.063
 2183SOL     OW 6594   1.488   5.355   3.766
 2183SOL    HW1 6595   1.389   5.343   3.755
 2183SOL    HW2 6596   1.532   5.360   3.677
 2184SOL     OW 6597   0.372   5.031   5.209
 2184SOL    HW1 6598   0.359   5.112   5.152
 2184SOL    HW2 6599   0.302   4.963   5.188
 2185SOL     OW 6600   1.613   5.009   5.009
 2185SOL    HW1 6601   1.675   4.989   5.084
 2185SOL    HW2 6602   1.547   5.078   5.038
 2186SOL     OW 6603   1.063   4.831   4.440
 2186SOL    HW1 6604   0.986   4.781   4.479
 2186SOL    HW2 6605   1.132   4.765   4.407
 2187SOL     OW 6606   1.023   3.963   4.691
 2187SOL    HW1 6607   1.019   3.920   4.601
 2187SOL    HW2 6608   1.020   3.893   4.762
 2188SOL     OW 6609   0.608   5.211   4.204
 2188SOL    HW1 6610   0.659   5.157   4.137
 2188SOL    HW2 6611   0.529   5.253   4.161
 2189SOL     OW 6612   1.733   4.118   5.105
 2189SOL    HW1 6613   1.805   4.186   5.105
 2189SOL    HW2 6614   1.758   4.043   5.044
 2190SOL     OW 6615   0.257   5.075   3.998
 2190SOL    HW1 6616   0.158   5.074   3.981
 2190SOL    HW2 6617   0.275   5.112   4.089
 2191SOL     OW 6618   0.121   4.697   5.426
 2191SOL    HW1 6619   0.067   4.748   5.493
 2191SOL    HW2 6620   0.212   4.679   5.464
 2192SOL     OW 6621   0.683   3.919   5.224
 2192SOL    HW1 6622   0.770   3.894   5.180
 2192SOL    HW2 6623   0.701   3.952   5.316
 2193SOL     OW 6624   0.096   4.042   3.763
 2193SOL    HW1 6625   7.000   4.016   3.764
 2193SOL    HW2 6626   0.106   4.128   3.712
 2194SOL     OW 6627   1.422   4.580   5.118
 2194SOL    HW1 6628   1.367   4.644   5.065
 2194SOL    HW2 6629   1.516   4.581   5.084
 2195SOL     OW 6630   0.075   3.914   4.064
 2195SOL    HW1 6631   0.019   3.900   3.982
 2195SOL    HW2 6632   0.154   3.852   4.061
 2196SOL     OW 6633   1.179   5.061   3.844
 2196SOL    HW1 6634   1.083   5.034   3.837
 2196SOL    HW2 6635   1.207   5.062   3.941
 2197SOL     OW 6636   0.625   4.554   5.158
 2197SOL    HW1 6637   0.681   4.635   5.144
 2197SOL    HW2 6638   0.684   4.474   5.167
 2198SOL     OW 6639   1.485   5.514   4.713
 2198SOL    HW1 6640   1.506   5.577   4.638
 2198SOL    HW2 6641   1.570   5.478   4.751
 2199SOL     OW 6642   0.718   4.282   5.427
 2199SOL    HW1 6643   0.765   4.348   5.485
 2199SOL    HW2 6644   0.738   4.189   5.460
 2200SOL     OW 6645   1.474   4.919   5.358
 2200SOL    HW1 6646   1.459   4.933   5.456
 2200SOL    HW2 6647   1.570   4.938   5.336
 2201SOL     OW 6648   0.370   5.471   5.287
 2201SOL    HW1 6649   0.283   5.517   5.272
 2201SOL    HW2 6650   0.354   5.387   5.339
 2202SOL     OW 6651   1.665   4.602   4.980
 2202SOL    HW1 6652   1.660   4.511   4.939
 2202SOL    HW2 6653   1.652   4.671   4.909
 2203SOL     OW 6654   1.219   4.041   4.184
 2203SOL    HW1 6655   1.283   3.965   4.175
 2203SOL    HW2 6656   1.246   4.097   4.263
 2204SOL     OW 6657   0.588   4.461   4.395
 2204SOL    HW1 6658   0.629   4.552   4.386
 2204SOL    HW2 6659   0.520   4.448   4.322
 2205SOL     OW 6660   1.750   4.089   5.377
 2205SOL    HW1 6661   1.741   4.105   5.279
 2205SOL    HW2 6662   1.675   4.029   5.408
 2206SOL     OW 6663   1.753   4.656   5.233
 2206SOL    HW1 6664   1.741   4.752   5.255
 2206SOL    HW2 6665   1.731   4.640   5.137
 2207SOL     OW 6666   0.871   5.087   3.771
 2207SOL    HW1 6667   0.826   5.110   3.857
 2207SOL    HW2 6668   0.881   5.170   3.715
 2208SOL     OW 6669   0.667   5.509   4.666
 2208SOL    HW1 6670   0.643   5.603   4.644
 2208SOL    HW2 6671   0.765   5.495   4.654
 2209SOL     OW 6672   0.869   4.695   4.580
 2209SOL    HW1 6673   0.920   4.617   4.616
 2209SOL    HW2 6674   0.826   4.745   4.655
 2210SOL     OW 6675   1.076   4.712   3.808
 2210SOL    HW1 6676   1.049   4.768   3.729
 2210SOL    HW2 6677   1.155   4.655   3.783
 2211SOL     OW 6678   1.845   5.280   4.571
 2211SOL    HW1 6679   1.768   5.269   4.508
 2211SOL    HW2 6680   1.839   5.212   4.644
 2212SOL     OW 6681   0.242   5.032   5.589
 2212SOL    HW1 6682   0.150   5.000   5.568
 2212SOL    HW2 6683   0.253   5.042   5.688
 2213SOL     OW 6684   0.153   4.998   4.416
 2213SOL    HW1 6685   0.106   4.952   4.491
 2213SOL    HW2 6686   0.197   4.929   4.358
 2214SOL     OW 6687   0.687   5.134   5.360
 2214SOL    HW1 6688   0.605   5.084   5.388
 2214SOL    HW2 6689   0.682   5.227   5.396
 2215SOL     OW 6690   1.804   3.906   4.957
 2215SOL    HW1 6691   1.818   3.810   4.982
 2215SOL    HW2 6692   1.818   3.918   4.859
 2216SOL     OW 6693   0.454   4.152   4.262
 2216SOL    HW1 6694   0.481   4.083   4.194
 2216SOL    HW2 6695   0.397   4.110   4.332
 2217SOL     OW 6696   1.693   5.205   4.817
 2217SOL    HW1 6697   1.612   5.188   4.761
 2217SOL    HW2 6698   1.700   5.135   4.888
 2218SOL     OW 6699   0.332   4.276   5.016
 2218SOL    HW1 6700   0.388   4.220   5.076
 2218SOL    HW2 6701   0.348   4.249   4.921
 2219SOL     OW 6702   0.829   5.303   4.402
 2219SOL    HW1 6703   0.814   5.366   4.326
 2219SOL    HW2 6704   0.752   5.240   4.408
 2220SOL     OW 6705   1.430   3.955   4.841
 2220SOL    HW1 6706   1.451   3.865   4.877
 2220SOL    HW2 6707   1.376   4.006   4.908
 2221SOL     OW 6708   1.010   3.740   4.861
 2221SOL    HW1 6709   0.945   3.677   4.817
 2221SOL    HW2 6710   1.101   3.699   4.862
 2222SOL     OW 6711   0.775   5.055   4.046
 2222SOL    HW1 6712   0.748   4.959   4.055
 2222SOL    HW2 6713   0.860   5.070   4.097
 2223SOL     OW 6714   0.626   5.283   5.014
 2223SOL    HW1 6715   0.623   5.369   5.064
 2223SOL    HW2 6716   0.716   5.271   4.973
 2224SOL     OW 6717   1.351   3.781   3.902
 2224SOL    HW1 6718   1.398   3.718   3.840
 2224SOL    HW2 6719   1.258   3.747   3.920
 2225SOL     OW 6720   1.291   4.189   4.404
 2225SOL    HW1 6721   1.238   4.274   4.406
 2225SOL    HW2 6722   1.289   4.147   4.495
 2226SOL     OW 6723   1.586   3.927   4.609
 2226SOL    HW1 6724   1.528   3.947   4.688
 2226SOL    HW2 6725   1.588   4.006   4.548
 2227SOL     OW 6726   0.070   4.787   4.001
 2227SOL    HW1 6727   0.163   4.751   4.000
 2227SOL    HW2 6728   0.006   4.714   4.021
 2228SOL     OW 6729   0.885   5.388   4.064
 2228SOL    HW1 6730   0.811   5.367   4.000
 2228SOL    HW2 6731   0.859   5.465   4.122
 2229SOL     OW 6732   0.181   4.375   5.708
 2229SOL    HW1 6733   0.175   4.310   5.783
 2229SOL    HW2 6734   0.224   4.332   5.629
 2230SOL     OW 6735   0.227   4.000   6.571
 2230SOL    HW1 6736   0.282   3.966   6.648
 2230SOL    HW2 6737   0.131   3.979   6.587
 2231SOL     OW 6738   6.989   4.108   6.239
 2231SOL    HW1 6739   6.941   4.103   6.326
 2231SOL    HW2 6740   0.011   4.015   6.208
 2232SOL     OW 6741   0.560   5.008   6.760
 2232SOL    HW1 6742   0.473   5.028   6.715
 2232SOL    HW2 6743   0.587   5.086   6.817
 2233SOL     OW 6744   1.565   5.237   6.294
 2233SOL    HW1 6745   1.520   5.214   6.380
 2233SOL    HW2 6746   1.496   5.245   6.222
 2234SOL     OW 6747   1.133   4.427   6.280
 2234SOL    HW1 6748   1.184   4.511   6.265
 2234SOL    HW2 6749   1.081   4.434   6.365
 2235SOL     OW 6750   1.772   4.322   5.808
 2235SOL    HW1 6751   1.747   4.318   5.711
 2235SOL    HW2 6752   1.733   4.243   5.856
 2236SOL     OW 6753   0.755   4.867   6.629
 2236SOL    HW1 6754   0.682   4.894   6.691
 2236SOL    HW2 6755   0.788   4.947   6.580
 2237SOL     OW 6756   0.683   4.723   6.236
 2237SOL    HW1 6757   0.755   4.713   6.305
 2237SOL    HW2 6758   0.609   4.779   6.273
 2238SOL     OW 6759   0.337   5.128   6.639
 2238SOL    HW1 6760   0.255   5.094   6.592
 2238SOL    HW2 6761   0.385   5.192   6.580
 2239SOL     OW 6762   1.610   4.170   6.331
 2239SOL    HW1 6763   1.535   4.186   6.266
 2239SOL    HW2 6764   1.608   4.241   6.401
 2240SOL     OW 6765   0.226   5.433   6.052
 2240SOL    HW1 6766   0.241   5.513   6.111
 2240SOL    HW2 6767   0.297   5.431   5.981
 2241SOL     OW 6768   0.280   5.168   6.105
 2241SOL    HW1 6769   0.255   5.264   6.110
 2241SOL    HW2 6770   0.231   5.117   6.176
 2242SOL     OW 6771   0.271   4.804   6.491
 2242SOL    HW1 6772   0.269   4.709   6.521
 2242SOL    HW2 6773   0.196   4.855   6.534
 2243SOL     OW 6774   0.610   5.529   6.985
 2243SOL    HW1 6775   0.517   5.508   0.014
 2243SOL    HW2 6776   0.636   5.620   0.017
 2244SOL     OW 6777   0.580   4.712   5.728
 2244SOL    HW1 6778   0.628   4.759   5.654
 2244SOL    HW2 6779   0.619   4.740   5.816
 2245SOL     OW 6780   0.132   4.337   6.160
 2245SOL    HW1 6781   0.063   4.268   6.183
 2245SOL    HW2 6782   0.122   4.416   6.221
 2246SOL     OW 6783   1.846   5.479   5.918
 2246SOL    HW1 6784   1.917   5.449   5.982
 2246SOL    HW2 6785   1.862   5.575   5.894
 2247SOL     OW 6786   0.034   5.316   5.734
 2247SOL    HW1 6787   0.025   5.217   5.748
 2247SOL    HW2 6788   6.957   5.363   5.776
 2248SOL     OW 6789   1.692   4.645   6.231
 2248SOL    HW1 6790   1.775   4.592   6.212
 2248SOL    HW2 6791   1.667   4.699   6.151
 2249SOL     OW 6792   1.653   4.828   6.018
 2249SOL    HW1 6793   1.742   4.825   5.972
 2249SOL    HW2 6794   1.656   4.896   6.091
 2250SOL     OW 6795   0.611   5.115   6.320
 2250SOL    HW1 6796   0.564   5.028   6.334
 2250SOL    HW2 6797   0.598   5.146   6.226
 2251SOL     OW 6798   0.818   3.734   6.095
 2251SOL    HW1 6799   0.863   3.820   6.072
 2251SOL    HW2 6800   0.719   3.750   6.103
 2252SOL     OW 6801   0.202   4.672   6.831
 2252SOL    HW1 6802   0.291   4.628   6.823
 2252SOL    HW2 6803   0.142   4.640   6.757
 2253SOL     OW 6804   1.532   4.725   5.790
 2253SOL    HW1 6805   1.458   4.665   5.820
 2253SOL    HW2 6806   1.579   4.763   5.870
 2254SOL     OW 6807   1.454   5.147   6.532
 2254SOL    HW1 6808   1.396   5.161   6.612
 2254SOL    HW2 6809   1.451   5.051   6.504
 2255SOL     OW 6810   1.649   5.475   6.161
 2255SOL    HW1 6811   1.631   5.446   6.068
 2255SOL    HW2 6812   1.629   5.400   6.224
 2256SOL     OW 6813   0.589   4.440   5.852
 2256SOL    HW1 6814   0.599   4.528   5.806
 2256SOL    HW2 6815   0.525   4.449   5.928
 2257SOL     OW 6816   1.275   4.082   6.518
 2257SOL    HW1 6817   1.181   4.048   6.525
 2257SOL    HW2 6818   1.333   4.032   6.582
 2258SOL     OW 6819   1.583   5.397   5.894
 2258SOL    HW1 6820   1.679   5.424   5.890
 2258SOL    HW2 6821   1.550   5.380   5.801
 2259SOL     OW 6822   0.793   4.334   0.047
 2259SOL    HW1 6823   0.730   4.377   0.112
 2259SOL    HW2 6824   0.741   4.278   6.982
 2260SOL     OW 6825   1.007   4.118   6.793
 2260SOL    HW1 6826   0.947   4.172   6.852
 2260SOL    HW2 6827   0.952   4.070   6.725
 2261SOL     OW 6828   1.050   4.422   6.010
 2261SOL    HW1 6829   1.072   4.418   6.108
 2261SOL    HW2 6830   0.963   4.375   5.994
 2262SOL     OW 6831   0.103   4.539   6.360
 2262SOL    HW1 6832   0.197   4.533   6.395
 2262SOL    HW2 6833   0.043   4.572   6.432
 2263SOL     OW 6834   0.108   5.558   0.174
 2263SOL    HW1 6835   0.100   5.525   0.268
 2263SOL    HW2 6836   0.017   5.577   0.137
 2264SOL     OW 6837   0.896   4.077   5.783
 2264SOL    HW1 6838   0.937   4.144   5.722
 2264SOL    HW2 6839   0.902   3.986   5.742
 2265SOL     OW 6840   1.380   4.867   6.119
 2265SOL    HW1 6841   1.464   4.852   6.068
 2265SOL    HW2 6842   1.324   4.934   6.071
 2266SOL     OW 6843   0.551   3.897   6.483
 2266SOL    HW1 6844   0.564   3.926   6.577
 2266SOL    HW2 6845   0.554   3.976   6.422
 2267SOL     OW 6846   0.994   5.168   6.049
 2267SOL    HW1 6847   0.964   5.248   5.998
 2267SOL    HW2 6848   0.976   5.181   6.147
 2268SOL     OW 6849   0.357   5.544   6.451
 2268SOL    HW1 6850   0.396   5.453   6.466
 2268SOL    HW2 6851   0.425   5.613   6.474
 2269SOL     OW 6852   1.804   4.780   6.450
 2269SOL    HW1 6853   1.754   4.755   6.367
 2269SOL    HW2 6854   1.742   4.779   6.528
 2270SOL     OW 6855   0.317   4.669   5.837
 2270SOL    HW1 6856   0.404   4.694   5.795
 2270SOL    HW2 6857   0.286   4.581   5.800
 2271SOL     OW 6858   1.483   4.475   6.305
 2271SOL    HW1 6859   1.476   4.428   6.393
 2271SOL    HW2 6860   1.564   4.534   6.304
 2272SOL     OW 6861   1.122   5.499   5.812
 2272SOL    HW1 6862   1.042   5.463   5.860
 2272SOL    HW2 6863   1.152   5.435   5.741
 2273SOL     OW 6864   1.625   5.106   5.675
 2273SOL    HW1 6865   1.586   5.197   5.659
 2273SOL    HW2 6866   1.555   5.037   5.656
 2274SOL     OW 6867   0.468   5.458   5.902
 2274SOL    HW1 6868   0.509   5.519   5.970
 2274SOL    HW2 6869   0.540   5.422   5.843
 2275SOL     OW 6870   1.401   3.828   6.024
 2275SOL    HW1 6871   1.389   3.802   5.928
 2275SOL    HW2 6872   1.498   3.836   6.044
 2276SOL     OW 6873   0.253   5.533   6.777
 2276SOL    HW1 6874   0.306   5.458   6.817
 2276SOL    HW2 6875   0.187   5.496   6.712
 2277SOL     OW 6876   0.936   5.425   6.480
 2277SOL    HW1 6877   1.020   5.379   6.509
 2277SOL    HW2 6878   0.894   5.373   6.405
 2278SOL     OW 6879   0.402   4.406   6.059
 2278SOL    HW1 6880   0.430   4.312   6.080
 2278SOL    HW2 6881   0.304   4.417   6.078
 2279SOL     OW 6882   0.644   3.839   5.688
 2279SOL    HW1 6883   0.711   3.768   5.709
 2279SOL    HW2 6884   0.586   3.808   5.612
 2280SOL     OW 6885   0.874   5.240   6.760
 2280SOL    HW1 6886   0.853   5.206   6.668
 2280SOL    HW2 6887   0.914   5.166   6.815
 2281SOL     OW 6888   0.819   5.111   6.520
 2281SOL    HW1 6889   0.909   5.101   6.477
 2281SOL    HW2 6890   0.749   5.118   6.449
 2282SOL     OW 6891   0.928   4.232   6.484
 2282SOL    HW1 6892   0.901   4.224   6.388
 2282SOL    HW2 6893   0.965   4.145   6.515
 2283SOL     OW 6894   0.547   3.787   6.081
 2283SOL    HW1 6895   0.464   3.784   6.137
 2283SOL    HW2 6896   0.543   3.867   6.021
 2284SOL     OW 6897   1.425   4.923   5.629
 2284SOL    HW1 6898   1.459   4.846   5.682
 2284SOL    HW2 6899   1.337   4.953   5.664
 2285SOL     OW 6900   0.291   3.767   5.775
 2285SOL    HW1 6901   0.340   3.846   5.737
 2285SOL    HW2 6902   0.357   3.702   5.813
 2286SOL     OW 6903   0.947   3.975   6.042
 2286SOL    HW1 6904   0.916   4.016   5.956
 2286SOL    HW2 6905   1.045   3.988   6.052
 2287SOL     OW 6906   1.218   5.295   6.381
 2287SOL    HW1 6907   1.232   5.365   6.311
 2287SOL    HW2 6908   1.296   5.295   6.444
 2288SOL     OW 6909   0.468   4.875   6.317
 2288SOL    HW1 6910   0.403   4.853   6.390
 2288SOL    HW2 6911   0.425   4.862   6.228
 2289SOL     OW 6912   1.261   5.515   6.197
 2289SOL    HW1 6913   1.313   5.578   6.139
 2289SOL    HW2 6914   1.187   5.565   6.241
 2290SOL     OW 6915   1.021   4.259   5.616
 2290SOL    HW1 6916   0.976   4.345   5.592
 2290SOL    HW2 6917   1.091   4.276   5.686
 2291SOL     OW 6918   0.582   3.944   6.752
 2291SOL    HW1 6919   0.628   3.861   6.786
 2291SOL    HW2 6920   0.486   3.942   6.780
 2292SOL     OW 6921   0.865   4.183   6.222
 2292SOL    HW1 6922   0.816   4.243   6.159
 2292SOL    HW2 6923   0.894   4.101   6.173
 2293SOL     OW 6924   1.019   3.772   6.325
 2293SOL    HW1 6925   0.956   3.773   6.247
 2293SOL    HW2 6926   0.993   3.699   6.388
 2294SOL     OW 6927   1.440   4.884   6.441
 2294SOL    HW1 6928   1.370   4.813   6.445
 2294SOL    HW2 6929   1.470   4.897   6.347
 2295SOL     OW 6930   1.467   4.330   6.548
 2295SOL    HW1 6931   1.403   4.253   6.554
 2295SOL    HW2 6932   1.529   4.328   6.626
 2296SOL     OW 6933   1.841   4.532   5.966
 2296SOL    HW1 6934   1.900   4.485   6.032
 2296SOL    HW2 6935   1.813   4.468   5.895
 2297SOL     OW 6936   0.496   5.145   5.738
 2297SOL    HW1 6937   0.415   5.120   5.790
 2297SOL    HW2 6938   0.486   5.115   5.644
 2298SOL     OW 6939   1.675   4.992   6.227
 2298SOL    HW1 6940   1.775   4.989   6.241
 2298SOL    HW2 6941   1.642   5.084   6.249
 2299SOL     OW 6942   1.390   4.299   5.656
 2299SOL    HW1 6943   1.327   4.276   5.731
 2299SOL    HW2 6944   1.483   4.273   5.682
 2300SOL     OW 6945   0.531   3.985   5.895
 2300SOL    HW1 6946   0.579   3.931   5.826
 2300SOL    HW2 6947   0.503   4.072   5.855
 2301SOL     OW 6948   1.753   4.919   0.183
 2301SOL    HW1 6949   1.851   4.900   0.183
 2301SOL    HW2 6950   1.737   5.014   0.155
 2302SOL     OW 6951   1.118   4.964   6.694
 2302SOL    HW1 6952   1.036   4.917   6.727
 2302SOL    HW2 6953   1.105   4.989   6.598
 2303SOL     OW 6954   1.621   4.802   6.646
 2303SOL    HW1 6955   1.622   4.871   6.718
 2303SOL    HW2 6956   1.546   4.821   6.583
 2304SOL     OW 6957   0.712   4.781   5.960
 2304SOL    HW1 6958   0.696   4.764   6.058
 2304SOL    HW2 6959   0.791   4.728   5.930
 2305SOL     OW 6960   0.438   4.528   6.846
 2305SOL    HW1 6961   0.489   4.557   6.927
 2305SOL    HW2 6962   0.397   4.439   6.863
 2306SOL     OW 6963   1.269   4.113   6.856
 2306SOL    HW1 6964   1.297   4.186   6.918
 2306SOL    HW2 6965   1.175   4.127   6.827
 2307SOL     OW 6966   0.083   5.291   6.858
 2307SOL    HW1 6967   0.036   5.325   6.940
 2307SOL    HW2 6968   0.182   5.299   6.871
 2308SOL     OW 6969   0.339   4.841   6.077
 2308SOL    HW1 6970   0.349   4.921   6.018
 2308SOL    HW2 6971   0.338   4.758   6.022
 2309SOL     OW 6972   0.544   4.269   6.451
 2309SOL    HW1 6973   0.559   4.327   6.371
 2309SOL    HW2 6974   0.616   4.287   6.518
 2310SOL     OW 6975   1.245   5.079   5.979
 2310SOL    HW1 6976   1.307   5.151   6.010
 2310SOL    HW2 6977   1.152   5.099   6.009
 2311SOL     OW 6978   1.284   5.174   6.747
 2311SOL    HW1 6979   1.316   5.165   6.841
 2311SOL    HW2 6980   1.221   5.099   6.727
 2312SOL     OW 6981   1.576   4.345   6.069
 2312SOL    HW1 6982   1.526   4.391   6.142
 2312SOL    HW2 6983   1.623   4.413   6.012
 2313SOL     OW 6984   0.363   5.296   6.848
 2313SOL    HW1 6985   0.343   5.225   6.781
 2313SOL    HW2 6986   0.460   5.292   6.873
 2314SOL     OW 6987   0.588   4.594   6.621
 2314SOL    HW1 6988   0.620   4.689   6.617
 2314SOL    HW2 6989   0.533   4.581   6.704
 2315SOL     OW 6990   1.344   4.580   6.592
 2315SOL    HW1 6991   1.253   4.563   6.554
 2315SOL    HW2 6992   1.398   4.496   6.588
 2316SOL     OW 6993   1.197   4.250   5.850
 2316SOL    HW1 6994   1.210   4.168   5.904
 2316SOL    HW2 6995   1.153   4.321   5.905
 2317SOL     OW 6996   0.324   3.921   6.823
 2317SOL    HW1 6997   0.307   3.936   6.920
 2317SOL    HW2 6998   0.299   3.828   6.798
 2318SOL     OW 6999   0.054   5.021   6.831
 2318SOL    HW1 7000   0.087   4.958   6.901
 2318SOL    HW2 7001   0.085   5.114   6.854
 2319SOL     OW 7002   0.725   4.350   6.640
 2319SOL    HW1 7003   0.804   4.329   6.581
 2319SOL    HW2 7004   0.695   4.444   6.623
 2320SOL     OW 7005   0.302   3.785   6.209
 2320SOL    HW1 7006   0.282   3.881   6.227
 2320SOL    HW2 7007   0.314   3.736   6.296
 2321SOL     OW 7008   1.628   4.106   5.947
 2321SOL    HW1 7009   1.654   4.032   6.009
 2321SOL    HW2 7010   1.599   4.185   6.000
 2322SOL     OW 7011   1.022   4.481   6.550
 2322SOL    HW1 7012   1.016   4.501   6.647
 2322SOL    HW2 7013   0.997   4.385   6.534
 2323SOL     OW 7014   1.922   5.199   0.195
 2323SOL    HW1 7015   1.901   5.231   0.102
 2323SOL    HW2 7016   1.917   5.276   0.258
 2324SOL     OW 7017   1.527   3.992   5.716
 2324SOL    HW1 7018   1.458   3.924   5.741
 2324SOL    HW2 7019   1.564   4.035   5.799
 2325SOL     OW 7020   1.288   4.549   5.611
 2325SOL    HW1 7021   1.329   4.459   5.620
 2325SOL    HW2 7022   1.319   4.592   5.527
 2326SOL     OW 7023   1.073   5.062   6.439
 2326SOL    HW1 7024   1.077   4.984   6.376
 2326SOL    HW2 7025   1.130   5.136   6.403
 2327SOL     OW 7026   0.322   4.526   6.531
 2327SOL    HW1 7027   0.419   4.550   6.529
 2327SOL    HW2 7028   0.312   4.433   6.565
 2328SOL     OW 7029   0.326   4.248   6.604
 2328SOL    HW1 7030   0.288   4.157   6.587
 2328SOL    HW2 7031   0.408   4.260   6.548
 2329SOL     OW 7032   1.143   3.965   0.055
 2329SOL    HW1 7033   1.204   3.992   0.130
 2329SOL    HW2 7034   1.178   4.001   6.969
 2330SOL     OW 7035   6.992   5.046   5.806
 2330SOL    HW1 7036   6.919   5.071   5.870
 2330SOL    HW2 7037   0.020   4.951   5.823
 2331SOL     OW 7038   0.098   5.480   6.535
 2331SOL    HW1 7039   0.078   5.406   6.471
 2331SOL    HW2 7040   0.185   5.523   6.510
 2332SOL     OW 7041   0.493   5.302   6.491
 2332SOL    HW1 7042   0.562   5.368   6.519
 2332SOL    HW2 7043   0.534   5.235   6.429
 2333SOL     OW 7044   0.979   4.519   6.822
 2333SOL    HW1 7045   1.058   4.499   6.880
 2333SOL    HW2 7046   0.898   4.472   6.860
 2334SOL     OW 7047   0.060   4.339   6.692
 2334SOL    HW1 7048   0.127   4.294   6.633
 2334SOL    HW2 7049   0.039   4.279   6.770
 2335SOL     OW 7050   0.816   4.297   5.946
 2335SOL    HW1 7051   0.828   4.216   5.887
 2335SOL    HW2 7052   0.737   4.350   5.913
 2336SOL     OW 7053   1.648   4.334   6.751
 2336SOL    HW1 7054   1.632   4.275   6.830
 2336SOL    HW2 7055   1.742   4.324   6.719
 2337SOL     OW 7056   0.673   4.189   6.850
 2337SOL    HW1 7057   0.644   4.099   6.819
 2337SOL    HW2 7058   0.688   4.249   6.772
 2338SOL     OW 7059   0.943   5.386   6.995
 2338SOL    HW1 7060   0.913   5.373   6.901
 2338SOL    HW2 7061   0.924   5.479   0.025
 2339SOL     OW 7062   0.452   4.211   5.769
 2339SOL    HW1 7063   0.508   4.292   5.785
 2339SOL    HW2 7064   0.367   4.218   5.821
 2340SOL     OW 7065   0.161   4.848   0.026
 2340SOL    HW1 7066   0.179   4.801   0.113
 2340SOL    HW2 7067   0.176   4.785   6.950
 2341SOL     OW 7068   1.282   4.726   6.813
 2341SOL    HW1 7069   1.319   4.676   6.735
 2341SOL    HW2 7070   1.260   4.820   6.785
 2342SOL     OW 7071   1.316   4.581   5.884
 2342SOL    HW1 7072   1.241   4.553   5.943
 2342SOL    HW2 7073   1.291   4.568   5.788
 2343SOL     OW 7074   1.786   5.469   6.743
 2343SOL    HW1 7075   1.847   5.494   6.668
 2343SOL    HW2 7076   1.745   5.379   6.725
 2344SOL     OW 7077   1.246   5.448   6.698
 2344SOL    HW1 7078   1.330   5.478   6.652
 2344SOL    HW2 7079   1.252   5.351   6.719
 2345SOL     OW 7080   0.060   4.963   6.572
 2345SOL    HW1 7081   0.067   4.984   6.670
 2345SOL    HW2 7082   6.964   4.953   6.547
 2346SOL     OW 7083   1.721   3.876   6.084
 2346SOL    HW1 7084   1.796   3.865   6.019
 2346SOL    HW2 7085   1.703   3.788   6.129
 2347SOL     OW 7086   1.396   5.295   6.075
 2347SOL    HW1 7087   1.458   5.327   6.003
 2347SOL    HW2 7088   1.340   5.371   6.107
 2348SOL     OW 7089   1.282   4.653   6.252
 2348SOL    HW1 7090   1.356   4.588   6.268
 2348SOL    HW2 7091   1.315   4.729   6.197
 2349SOL     OW 7092   0.673   5.348   5.740
 2349SOL    HW1 7093   0.688   5.367   5.643
 2349SOL    HW2 7094   0.616   5.266   5.749
 2350SOL     OW 7095   1.842   3.896   6.557
 2350SOL    HW1 7096   1.876   3.805   6.534
 2350SOL    HW2 7097   1.751   3.908   6.518
 2351SOL     OW 7098   0.263   4.041   6.297
 2351SOL    HW1 7099   0.187   4.102   6.275
 2351SOL    HW2 7100   0.264   4.022   6.395
 2352SOL     OW 7101   1.209   5.324   5.619
 2352SOL    HW1 7102   1.199   5.230   5.652
 2352SOL    HW2 7103   1.141   5.341   5.547
 2353SOL     OW 7104   0.775   4.748   6.953
 2353SOL    HW1 7105   0.835   4.702   6.887
 2353SOL    HW2 7106   0.821   4.829   6.989
 2354SOL     OW 7107   0.919   4.634   5.873
 2354SOL    HW1 7108   0.980   4.670   5.803
 2354SOL    HW2 7109   0.967   4.563   5.925
 2355SOL     OW 7110   1.488   5.355   5.628
 2355SOL    HW1 7111   1.389   5.343   5.617
 2355SOL    HW2 7112   1.532   5.360   5.539
 2356SOL     OW 7113   1.618   4.992   6.832
 2356SOL    HW1 7114   1.703   5.006   6.883
 2356SOL    HW2 7115   1.543   4.976   6.896
 2357SOL     OW 7116   1.063   4.830   6.301
 2357SOL    HW1 7117   0.986   4.780   6.340
 2357SOL    HW2 7118   1.132   4.765   6.269
 2358SOL     OW 7119   1.020   3.961   6.539
 2358SOL    HW1 7120   1.019   3.912   6.452
 2358SOL    HW2 7121   1.022   3.895   6.614
 2359SOL     OW 7122   0.608   5.211   6.067
 2359SOL    HW1 7123   0.659   5.157   5.999
 2359SOL    HW2 7124   0.529   5.253   6.023
 2360SOL     OW 7125   1.698   4.148   6.943
 2360SOL    HW1 7126   1.753   4.156   0.026
 2360SOL    HW2 7127   1.706   4.055   6.907
 2361SOL     OW 7128   0.257   5.075   5.860
 2361SOL    HW1 7129   0.158   5.075   5.843
 2361SOL    HW2 7130   0.276   5.112   5.951
 2362SOL     OW 7131   0.676   3.911   0.078
 2362SOL    HW1 7132   0.770   3.883   0.059
 2362SOL    HW2 7133   0.677   3.995   0.132
 2363SOL     OW 7134   0.101   4.039   5.621
 2363SOL    HW1 7135   0.004   4.015   5.624
 2363SOL    HW2 7136   0.112   4.126   5.573
 2364SOL     OW 7137   0.075   3.914   5.926
 2364SOL    HW1 7138   0.018   3.898   5.845
 2364SOL    HW2 7139   0.154   3.853   5.923
 2365SOL     OW 7140   1.179   5.061   5.706
 2365SOL    HW1 7141   1.083   5.034   5.699
 2365SOL    HW2 7142   1.207   5.062   5.803
 2366SOL     OW 7143   1.487   5.509   6.576
 2366SOL    HW1 7144   1.502   5.574   6.501
 2366SOL    HW2 7145   1.576   5.480   6.613
 2367SOL     OW 7146   1.495   5.023   0.285
 2367SOL    HW1 7147   1.408   4.980   0.308
 2367SOL    HW2 7148   1.564   4.953   0.268
 2368SOL     OW 7149   0.375   5.488   0.102
 2368SOL    HW1 7150   0.287   5.535   0.101
 2368SOL    HW2 7151   0.401   5.469   0.197
 2369SOL     OW 7152   1.703   4.600   6.828
 2369SOL    HW1 7153   1.669   4.510   6.801
 2369SOL    HW2 7154   1.668   4.669   6.765
 2370SOL     OW 7155   1.220   4.041   6.045
 2370SOL    HW1 7156   1.283   3.964   6.036
 2370SOL    HW2 7157   1.246   4.096   6.125
 2371SOL     OW 7158   0.586   4.462   6.257
 2371SOL    HW1 7159   0.628   4.552   6.247
 2371SOL    HW2 7160   0.519   4.448   6.184
 2372SOL     OW 7161   1.773   4.633   0.094
 2372SOL    HW1 7162   1.759   4.728   0.120
 2372SOL    HW2 7163   1.747   4.620   6.998
 2373SOL     OW 7164   0.871   5.087   5.633
 2373SOL    HW1 7165   0.826   5.111   5.719
 2373SOL    HW2 7166   0.882   5.169   5.577
 2374SOL     OW 7167   0.668   5.508   6.533
 2374SOL    HW1 7168   0.643   5.601   6.506
 2374SOL    HW2 7169   0.766   5.494   6.517
 2375SOL     OW 7170   0.869   4.694   6.442
 2375SOL    HW1 7171   0.919   4.616   6.480
 2375SOL    HW2 7172   0.828   4.747   6.517
 2376SOL     OW 7173   1.076   4.712   5.669
 2376SOL    HW1 7174   1.050   4.767   5.590
 2376SOL    HW2 7175   1.154   4.655   5.645
 2377SOL     OW 7176   1.847   5.281   6.432
 2377SOL    HW1 7177   1.770   5.268   6.371
 2377SOL    HW2 7178   1.848   5.208   6.501
 2378SOL     OW 7179   0.155   4.998   6.278
 2378SOL    HW1 7180   0.111   4.954   6.356
 2378SOL    HW2 7181   0.196   4.929   6.219
 2379SOL     OW 7182   1.810   3.897   6.835
 2379SOL    HW1 7183   1.792   3.798   6.837
 2379SOL    HW2 7184   1.824   3.926   6.741
 2380SOL     OW 7185   0.455   4.152   6.122
 2380SOL    HW1 7186   0.482   4.083   6.055
 2380SOL    HW2 7187   0.397   4.110   6.192
 2381SOL     OW 7188   1.677   5.227   6.683
 2381SOL    HW1 7189   1.603   5.208   6.618
 2381SOL    HW2 7190   1.685   5.151   6.747
 2382SOL     OW 7191   0.321   4.266   6.884
 2382SOL    HW1 7192   0.393   4.209   6.924
 2382SOL    HW2 7193   0.323   4.258   6.785
 2383SOL     OW 7194   0.829   5.303   6.262
 2383SOL    HW1 7195   0.816   5.368   6.187
 2383SOL    HW2 7196   0.752   5.241   6.267
 2384SOL     OW 7197   1.434   3.960   6.703
 2384SOL    HW1 7198   1.464   3.877   6.750
 2384SOL    HW2 7199   1.380   4.017   6.766
 2385SOL     OW 7200   1.017   3.742   6.710
 2385SOL    HW1 7201   0.954   3.676   6.669
 2385SOL    HW2 7202   1.107   3.699   6.721
 2386SOL     OW 7203   0.775   5.055   5.908
 2386SOL    HW1 7204   0.747   4.959   5.917
 2386SOL    HW2 7205   0.860   5.070   5.959
 2387SOL     OW 7206   0.634   5.285   6.873
 2387SOL    HW1 7207   0.629   5.381   6.901
 2387SOL    HW2 7208   0.719   5.268   6.824
 2388SOL     OW 7209   1.355   3.773   5.757
 2388SOL    HW1 7210   1.398   3.706   5.697
 2388SOL    HW2 7211   1.262   3.744   5.779
 2389SOL     OW 7212   1.292   4.188   6.266
 2389SOL    HW1 7213   1.239   4.273   6.268
 2389SOL    HW2 7214   1.288   4.145   6.356
 2390SOL     OW 7215   1.587   3.928   6.473
 2390SOL    HW1 7216   1.527   3.948   6.550
 2390SOL    HW2 7217   1.588   4.006   6.410
 2391SOL     OW 7218   0.070   4.787   5.863
 2391SOL    HW1 7219   0.163   4.751   5.862
 2391SOL    HW2 7220   0.005   4.714   5.883
 2392SOL     OW 7221   0.885   5.388   5.926
 2392SOL    HW1 7222   0.811   5.367   5.862
 2392SOL    HW2 7223   0.859   5.465   5.984
 2393SOL     OW 7224   0.231   6.235   0.131
 2393SOL    HW1 7225   0.154   6.183   0.167
 2393SOL    HW2 7226   0.249   6.206   0.037
 2394SOL     OW 7227   0.230   5.858   0.989
 2394SOL    HW1 7228   0.282   5.824   1.068
 2394SOL    HW2 7229   0.133   5.842   1.004
 2395SOL     OW 7230   6.986   5.973   0.657
 2395SOL    HW1 7231   6.939   5.970   0.745
 2395SOL    HW2 7232   0.005   5.879   0.627
 2396SOL     OW 7233   0.570   6.872   1.175
 2396SOL    HW1 7234   0.495   6.875   1.109
 2396SOL    HW2 7235   0.541   6.916   1.260
 2397SOL     OW 7236   1.540   0.054   0.687
 2397SOL    HW1 7237   1.522   0.052   0.785
 2397SOL    HW2 7238   1.459   0.087   0.639
 2398SOL     OW 7239   1.130   6.286   0.695
 2398SOL    HW1 7240   1.184   6.370   0.680
 2398SOL    HW2 7241   1.080   6.294   0.781
 2399SOL     OW 7242   1.784   6.167   0.200
 2399SOL    HW1 7243   1.716   6.212   0.142
 2399SOL    HW2 7244   1.738   6.103   0.262
 2400SOL     OW 7245   0.764   6.749   1.023
 2400SOL    HW1 7246   0.697   6.785   1.088
 2400SOL    HW2 7247   0.761   6.801   0.938
 2401SOL     OW 7248   0.876   6.349   1.822
 2401SOL    HW1 7249   0.861   6.415   1.896
 2401SOL    HW2 7250   0.901   6.397   1.738
 2402SOL     OW 7251   0.685   6.581   0.650
 2402SOL    HW1 7252   0.756   6.572   0.719
 2402SOL    HW2 7253   0.608   6.634   0.687
 2403SOL     OW 7254   0.689   6.733   1.815
 2403SOL    HW1 7255   0.727   6.824   1.833
 2403SOL    HW2 7256   0.607   6.742   1.758
 2404SOL     OW 7257   0.344   0.006   1.047
 2404SOL    HW1 7258   0.271   6.953   1.004
 2404SOL    HW2 7259   0.393   0.058   0.978
 2405SOL     OW 7260   0.443   5.979   1.490
 2405SOL    HW1 7261   0.526   5.923   1.493
 2405SOL    HW2 7262   0.363   5.921   1.500
 2406SOL     OW 7263   1.610   6.033   0.745
 2406SOL    HW1 7264   1.533   6.050   0.684
 2406SOL    HW2 7265   1.616   6.106   0.812
 2407SOL     OW 7266   0.269   6.670   0.918
 2407SOL    HW1 7267   0.257   6.574   0.944
 2407SOL    HW2 7268   0.193   6.724   0.957
 2408SOL     OW 7269   0.589   6.547   0.140
 2408SOL    HW1 7270   0.652   6.562   0.065
 2408SOL    HW2 7271   0.624   6.591   0.223
 2409SOL     OW 7272   1.597   5.711   1.469
 2409SOL    HW1 7273   1.618   5.791   1.413
 2409SOL    HW2 7274   1.581   5.740   1.563
 2410SOL     OW 7275   0.128   6.205   0.572
 2410SOL    HW1 7276   0.062   6.134   0.597
 2410SOL    HW2 7277   0.121   6.282   0.636
 2411SOL     OW 7278   1.692   6.493   0.652
 2411SOL    HW1 7279   1.781   6.448   0.642
 2411SOL    HW2 7280   1.674   6.548   0.570
 2412SOL     OW 7281   1.661   6.671   0.445
 2412SOL    HW1 7282   1.722   6.697   0.370
 2412SOL    HW2 7283   1.671   6.735   0.520
 2413SOL     OW 7284   0.148   6.317   1.580
 2413SOL    HW1 7285   0.247   6.325   1.564
 2413SOL    HW2 7286   0.113   6.404   1.615
 2414SOL     OW 7287   1.315   6.816   1.431
 2414SOL    HW1 7288   1.338   6.746   1.364
 2414SOL    HW2 7289   1.374   6.807   1.511
 2415SOL     OW 7290   0.821   5.599   0.514
 2415SOL    HW1 7291   0.867   5.685   0.491
 2415SOL    HW2 7292   0.723   5.615   0.521
 2416SOL     OW 7293   0.214   6.555   1.265
 2416SOL    HW1 7294   0.291   6.495   1.245
 2416SOL    HW2 7295   0.135   6.528   1.209
 2417SOL     OW 7296   1.501   6.593   0.212
 2417SOL    HW1 7297   1.431   6.529   0.241
 2417SOL    HW2 7298   1.577   6.592   0.278
 2418SOL     OW 7299   0.356   5.838   1.834
 2418SOL    HW1 7300   0.403   5.921   1.866
 2418SOL    HW2 7301   0.258   5.846   1.854
 2419SOL     OW 7302   1.459   6.988   0.947
 2419SOL    HW1 7303   1.389   0.015   1.014
 2419SOL    HW2 7304   1.442   6.894   0.918
 2420SOL     OW 7305   0.600   6.302   0.267
 2420SOL    HW1 7306   0.604   6.392   0.222
 2420SOL    HW2 7307   0.535   6.306   0.343
 2421SOL     OW 7308   1.277   5.946   0.933
 2421SOL    HW1 7309   1.184   5.911   0.940
 2421SOL    HW2 7310   1.337   5.894   0.994
 2422SOL     OW 7311   0.790   6.197   1.450
 2422SOL    HW1 7312   0.765   6.172   1.544
 2422SOL    HW2 7313   0.753   6.129   1.387
 2423SOL     OW 7314   1.391   6.056   1.680
 2423SOL    HW1 7315   1.392   6.105   1.767
 2423SOL    HW2 7316   1.451   5.976   1.686
 2424SOL     OW 7317   0.955   6.473   1.585
 2424SOL    HW1 7318   1.014   6.400   1.549
 2424SOL    HW2 7319   0.900   6.511   1.511
 2425SOL     OW 7320   0.994   5.991   1.228
 2425SOL    HW1 7321   0.903   6.012   1.265
 2425SOL    HW2 7322   0.984   5.942   1.142
 2426SOL     OW 7323   1.052   6.287   0.427
 2426SOL    HW1 7324   1.075   6.284   0.524
 2426SOL    HW2 7325   0.965   6.239   0.412
 2427SOL     OW 7326   0.103   6.402   0.773
 2427SOL    HW1 7327   0.195   6.393   0.812
 2427SOL    HW2 7328   0.041   6.437   0.843
 2428SOL     OW 7329   0.887   5.927   0.211
 2428SOL    HW1 7330   0.930   5.990   0.146
 2428SOL    HW2 7331   0.905   5.833   0.183
 2429SOL     OW 7332   1.699   6.158   1.826
 2429SOL    HW1 7333   1.665   6.237   1.775
 2429SOL    HW2 7334   1.730   6.088   1.761
 2430SOL     OW 7335   1.394   6.724   0.562
 2430SOL    HW1 7336   1.483   6.714   0.517
 2430SOL    HW2 7337   1.355   6.813   0.539
 2431SOL     OW 7338   0.553   5.763   0.901
 2431SOL    HW1 7339   0.557   5.788   0.998
 2431SOL    HW2 7340   0.559   5.846   0.845
 2432SOL     OW 7341   1.800   6.638   0.879
 2432SOL    HW1 7342   1.748   6.625   0.794
 2432SOL    HW2 7343   1.736   6.645   0.955
 2433SOL     OW 7344   0.320   6.518   0.248
 2433SOL    HW1 7345   0.405   6.542   0.200
 2433SOL    HW2 7346   0.290   6.428   0.218
 2434SOL     OW 7347   1.484   6.330   0.722
 2434SOL    HW1 7348   1.480   6.290   0.814
 2434SOL    HW2 7349   1.563   6.391   0.716
 2435SOL     OW 7350   0.196   5.852   1.490
 2435SOL    HW1 7351   0.113   5.907   1.475
 2435SOL    HW2 7352   0.172   5.767   1.537
 2436SOL     OW 7353   1.647   0.027   0.078
 2436SOL    HW1 7354   1.626   0.124   0.095
 2436SOL    HW2 7355   1.562   6.974   0.079
 2437SOL     OW 7356   1.405   5.691   0.445
 2437SOL    HW1 7357   1.397   5.663   0.349
 2437SOL    HW2 7358   1.502   5.702   0.468
 2438SOL     OW 7359   0.404   6.271   0.468
 2438SOL    HW1 7360   0.423   6.175   0.488
 2438SOL    HW2 7361   0.308   6.291   0.488
 2439SOL     OW 7362   1.526   5.808   1.728
 2439SOL    HW1 7363   1.538   5.830   1.825
 2439SOL    HW2 7364   1.454   5.740   1.716
 2440SOL     OW 7365   0.763   5.863   1.758
 2440SOL    HW1 7366   0.848   5.811   1.750
 2440SOL    HW2 7367   0.711   5.831   1.836
 2441SOL     OW 7368   1.339   6.174   1.436
 2441SOL    HW1 7369   1.369   6.138   1.525
 2441SOL    HW2 7370   1.375   6.266   1.423
 2442SOL     OW 7371   0.927   6.091   0.898
 2442SOL    HW1 7372   0.900   6.084   0.802
 2442SOL    HW2 7373   0.960   6.002   0.931
 2443SOL     OW 7374   0.552   5.654   0.501
 2443SOL    HW1 7375   0.471   5.653   0.560
 2443SOL    HW2 7376   0.546   5.729   0.436
 2444SOL     OW 7377   1.416   6.793   0.038
 2444SOL    HW1 7378   1.461   6.725   0.095
 2444SOL    HW2 7379   1.342   6.749   6.986
 2445SOL     OW 7380   0.951   5.836   0.463
 2445SOL    HW1 7381   0.918   5.876   0.377
 2445SOL    HW2 7382   1.049   5.851   0.471
 2446SOL     OW 7383   1.080   6.269   1.456
 2446SOL    HW1 7384   1.005   6.203   1.461
 2446SOL    HW2 7385   1.167   6.221   1.451
 2447SOL     OW 7386   1.269   0.148   0.739
 2447SOL    HW1 7387   1.237   0.232   0.694
 2447SOL    HW2 7388   1.281   0.166   0.837
 2448SOL     OW 7389   0.465   6.708   0.738
 2448SOL    HW1 7390   0.396   6.701   0.810
 2448SOL    HW2 7391   0.420   6.714   0.649
 2449SOL     OW 7392   1.066   6.180   0.031
 2449SOL    HW1 7393   0.969   6.190   0.049
 2449SOL    HW2 7394   1.114   6.156   0.115
 2450SOL     OW 7395   0.073   6.138   1.375
 2450SOL    HW1 7396   0.169   6.130   1.346
 2450SOL    HW2 7397   0.066   6.206   1.448
 2451SOL     OW 7398   0.566   5.808   1.172
 2451SOL    HW1 7399   0.616   5.732   1.214
 2451SOL    HW2 7400   0.471   5.806   1.203
 2452SOL     OW 7401   0.864   6.041   0.638
 2452SOL    HW1 7402   0.824   6.105   0.573
 2452SOL    HW2 7403   0.895   5.959   0.590
 2453SOL     OW 7404   1.016   5.638   0.744
 2453SOL    HW1 7405   0.955   5.637   0.665
 2453SOL    HW2 7406   0.993   5.563   0.806
 2454SOL     OW 7407   1.441   6.731   0.863
 2454SOL    HW1 7408   1.363   6.668   0.865
 2454SOL    HW2 7409   1.470   6.744   0.768
 2455SOL     OW 7410   1.469   6.192   0.969
 2455SOL    HW1 7411   1.405   6.114   0.969
 2455SOL    HW2 7412   1.529   6.186   1.048
 2456SOL     OW 7413   1.835   6.393   0.385
 2456SOL    HW1 7414   1.892   6.335   0.443
 2456SOL    HW2 7415   1.824   6.350   0.295
 2457SOL     OW 7416   1.681   6.830   0.653
 2457SOL    HW1 7417   1.779   6.844   0.670
 2457SOL    HW2 7418   1.633   6.916   0.669
 2458SOL     OW 7419   1.389   6.138   0.067
 2458SOL    HW1 7420   1.329   6.137   0.147
 2458SOL    HW2 7421   1.451   6.060   0.071
 2459SOL     OW 7422   0.513   5.845   0.312
 2459SOL    HW1 7423   0.517   5.779   0.237
 2459SOL    HW2 7424   0.491   5.935   0.275
 2460SOL     OW 7425   1.754   6.812   1.566
 2460SOL    HW1 7426   1.838   6.762   1.589
 2460SOL    HW2 7427   1.771   6.911   1.576
 2461SOL     OW 7428   1.076   6.894   1.326
 2461SOL    HW1 7429   0.996   6.878   1.384
 2461SOL    HW2 7430   1.159   6.877   1.378
 2462SOL     OW 7431   1.137   6.761   1.099
 2462SOL    HW1 7432   1.104   6.811   1.179
 2462SOL    HW2 7433   1.079   6.782   1.021
 2463SOL     OW 7434   1.622   6.680   1.083
 2463SOL    HW1 7435   1.610   6.736   1.164
 2463SOL    HW2 7436   1.546   6.697   1.019
 2464SOL     OW 7437   0.923   5.680   1.391
 2464SOL    HW1 7438   0.945   5.657   1.296
 2464SOL    HW2 7439   1.002   5.723   1.433
 2465SOL     OW 7440   0.965   6.696   1.739
 2465SOL    HW1 7441   0.868   6.709   1.756
 2465SOL    HW2 7442   0.978   6.622   1.673
 2466SOL     OW 7443   0.707   6.632   0.373
 2466SOL    HW1 7444   0.693   6.622   0.472
 2466SOL    HW2 7445   0.790   6.582   0.346
 2467SOL     OW 7446   0.430   6.389   1.249
 2467SOL    HW1 7447   0.499   6.405   1.319
 2467SOL    HW2 7448   0.387   6.300   1.264
 2468SOL     OW 7449   1.262   5.962   1.281
 2468SOL    HW1 7450   1.299   6.041   1.330
 2468SOL    HW2 7451   1.167   5.979   1.256
 2469SOL     OW 7452   0.030   0.144   1.353
 2469SOL    HW1 7453   6.953   0.207   1.343
 2469SOL    HW2 7454   0.091   0.178   1.424
 2470SOL     OW 7455   0.343   6.707   0.488
 2470SOL    HW1 7456   0.398   6.777   0.442
 2470SOL    HW2 7457   0.342   6.623   0.434
 2471SOL     OW 7458   0.549   6.126   0.859
 2471SOL    HW1 7459   0.562   6.188   0.782
 2471SOL    HW2 7460   0.616   6.147   0.930
 2472SOL     OW 7461   1.585   6.215   0.480
 2472SOL    HW1 7462   1.529   6.253   0.553
 2472SOL    HW2 7463   1.640   6.287   0.438
 2473SOL     OW 7464   0.426   6.317   1.598
 2473SOL    HW1 7465   0.488   6.368   1.539
 2473SOL    HW2 7466   0.468   6.229   1.622
 2474SOL     OW 7467   1.609   6.371   1.685
 2474SOL    HW1 7468   1.517   6.411   1.682
 2474SOL    HW2 7469   1.665   6.412   1.613
 2475SOL     OW 7470   0.997   5.721   1.749
 2475SOL    HW1 7471   1.056   5.801   1.734
 2475SOL    HW2 7472   1.046   5.638   1.723
 2476SOL     OW 7473   0.496   5.621   1.750
 2476SOL    HW1 7474   0.449   5.566   1.681
 2476SOL    HW2 7475   0.441   5.702   1.770
 2477SOL     OW 7476   0.586   6.451   1.033
 2477SOL    HW1 7477   0.606   6.548   1.021
 2477SOL    HW2 7478   0.526   6.439   1.112
 2478SOL     OW 7479   1.356   6.439   1.026
 2478SOL    HW1 7480   1.264   6.436   0.985
 2478SOL    HW2 7481   1.401   6.350   1.012
 2479SOL     OW 7482   1.195   6.108   0.271
 2479SOL    HW1 7483   1.213   6.029   0.330
 2479SOL    HW2 7484   1.154   6.181   0.326
 2480SOL     OW 7485   0.309   5.780   1.246
 2480SOL    HW1 7486   0.269   5.816   1.330
 2480SOL    HW2 7487   0.292   5.682   1.239
 2481SOL     OW 7488   0.113   6.902   1.271
 2481SOL    HW1 7489   0.114   6.829   1.339
 2481SOL    HW2 7490   0.069   6.983   1.311
 2482SOL     OW 7491   0.724   6.213   1.053
 2482SOL    HW1 7492   0.801   6.195   0.993
 2482SOL    HW2 7493   0.689   6.305   1.036
 2483SOL     OW 7494   1.735   6.547   1.854
 2483SOL    HW1 7495   1.692   6.477   1.798
 2483SOL    HW2 7496   1.679   6.564   1.936
 2484SOL     OW 7497   0.312   5.658   0.632
 2484SOL    HW1 7498   0.288   5.753   0.654
 2484SOL    HW2 7499   0.322   5.606   0.716
 2485SOL     OW 7500   1.633   5.970   0.367
 2485SOL    HW1 7501   1.647   5.897   0.433
 2485SOL    HW2 7502   1.605   6.054   0.415
 2486SOL     OW 7503   1.024   6.339   0.958
 2486SOL    HW1 7504   1.019   6.361   1.055
 2486SOL    HW2 7505   0.997   6.243   0.944
 2487SOL     OW 7506   1.856   0.064   1.601
 2487SOL    HW1 7507   1.893   0.141   1.549
 2487SOL    HW2 7508   1.910   0.050   1.683
 2488SOL     OW 7509   0.369   6.502   1.795
 2488SOL    HW1 7510   0.442   6.517   1.862
 2488SOL    HW2 7511   0.397   6.432   1.730
 2489SOL     OW 7512   1.486   5.881   0.148
 2489SOL    HW1 7513   1.449   5.789   0.160
 2489SOL    HW2 7514   1.541   5.906   0.228
 2490SOL     OW 7515   1.294   6.411   0.031
 2490SOL    HW1 7516   1.336   6.321   0.022
 2490SOL    HW2 7517   1.323   6.469   6.954
 2491SOL     OW 7518   0.320   6.384   0.940
 2491SOL    HW1 7519   0.416   6.410   0.939
 2491SOL    HW2 7520   0.310   6.293   0.980
 2492SOL     OW 7521   0.330   6.106   1.014
 2492SOL    HW1 7522   0.291   6.015   1.000
 2492SOL    HW2 7523   0.410   6.117   0.954
 2493SOL     OW 7524   1.134   5.959   1.692
 2493SOL    HW1 7525   1.081   6.015   1.756
 2493SOL    HW2 7526   1.226   5.996   1.684
 2494SOL     OW 7527   1.161   5.789   1.476
 2494SOL    HW1 7528   1.147   5.851   1.553
 2494SOL    HW2 7529   1.204   5.838   1.400
 2495SOL     OW 7530   0.010   6.905   0.214
 2495SOL    HW1 7531   6.932   6.927   0.272
 2495SOL    HW2 7532   0.049   6.817   0.242
 2496SOL     OW 7533   0.973   6.377   1.224
 2496SOL    HW1 7534   1.034   6.354   1.300
 2496SOL    HW2 7535   0.885   6.332   1.237
 2497SOL     OW 7536   0.050   6.192   1.105
 2497SOL    HW1 7537   0.127   6.146   1.062
 2497SOL    HW2 7538   0.051   6.173   1.203
 2498SOL     OW 7539   0.209   6.098   1.724
 2498SOL    HW1 7540   0.284   6.050   1.678
 2498SOL    HW2 7541   0.189   6.183   1.676
 2499SOL     OW 7542   1.381   6.522   1.654
 2499SOL    HW1 7543   1.411   6.617   1.654
 2499SOL    HW2 7544   1.377   6.487   1.561
 2500SOL     OW 7545   0.817   6.155   0.373
 2500SOL    HW1 7546   0.826   6.077   0.312
 2500SOL    HW2 7547   0.741   6.213   0.343
 2501SOL     OW 7548   1.642   6.187   1.180
 2501SOL    HW1 7549   1.626   6.128   1.259
 2501SOL    HW2 7550   1.734   6.171   1.144
 2502SOL     OW 7551   0.709   6.033   1.253
 2502SOL    HW1 7552   0.653   5.953   1.229
 2502SOL    HW2 7553   0.705   6.100   1.179
 2503SOL     OW 7554   0.461   6.081   0.194
 2503SOL    HW1 7555   0.522   6.158   0.215
 2503SOL    HW2 7556   0.366   6.114   0.192
 2504SOL     OW 7557   0.187   6.706   1.481
 2504SOL    HW1 7558   0.166   6.643   1.556
 2504SOL    HW2 7559   0.200   6.654   1.396
 2505SOL     OW 7560   1.329   6.622   1.223
 2505SOL    HW1 7561   1.358   6.554   1.156
 2505SOL    HW2 7562   1.257   6.679   1.184
 2506SOL     OW 7563   1.301   6.433   0.304
 2506SOL    HW1 7564   1.222   6.403   0.357
 2506SOL    HW2 7565   1.285   6.414   0.207
 2507SOL     OW 7566   0.073   6.837   1.013
 2507SOL    HW1 7567   0.091   6.856   1.109
 2507SOL    HW2 7568   6.976   6.816   1.001
 2508SOL     OW 7569   0.940   5.665   0.111
 2508SOL    HW1 7570   1.010   5.720   0.066
 2508SOL    HW2 7571   0.982   5.603   0.176
 2509SOL     OW 7572   1.701   5.738   0.508
 2509SOL    HW1 7573   1.782   5.737   0.450
 2509SOL    HW2 7574   1.691   5.649   0.552
 2510SOL     OW 7575   1.282   6.507   0.671
 2510SOL    HW1 7576   1.356   6.442   0.686
 2510SOL    HW2 7577   1.316   6.586   0.620
 2511SOL     OW 7578   0.816   6.844   1.417
 2511SOL    HW1 7579   0.788   6.885   1.504
 2511SOL    HW2 7580   0.745   6.860   1.349
 2512SOL     OW 7581   1.843   5.755   0.963
 2512SOL    HW1 7582   1.877   5.663   0.942
 2512SOL    HW2 7583   1.751   5.767   0.924
 2513SOL     OW 7584   0.261   5.909   0.719
 2513SOL    HW1 7585   0.184   5.968   0.697
 2513SOL    HW2 7586   0.261   5.889   0.817
 2514SOL     OW 7587   0.827   6.581   1.371
 2514SOL    HW1 7588   0.884   6.557   1.292
 2514SOL    HW2 7589   0.831   6.680   1.386
 2515SOL     OW 7590   0.925   6.500   0.290
 2515SOL    HW1 7591   0.985   6.537   0.219
 2515SOL    HW2 7592   0.974   6.429   0.341
 2516SOL     OW 7593   0.390   6.895   1.510
 2516SOL    HW1 7594   0.353   6.970   1.457
 2516SOL    HW2 7595   0.327   6.817   1.505
 2517SOL     OW 7596   1.604   6.844   1.314
 2517SOL    HW1 7597   1.679   6.831   1.379
 2517SOL    HW2 7598   1.536   6.905   1.354
 2518SOL     OW 7599   1.063   6.698   0.733
 2518SOL    HW1 7600   0.983   6.647   0.765
 2518SOL    HW2 7601   1.129   6.635   0.691
 2519SOL     OW 7602   1.023   5.825   0.967
 2519SOL    HW1 7603   1.019   5.781   0.877
 2519SOL    HW2 7604   1.020   5.755   1.038
 2520SOL     OW 7605   1.732   5.980   1.381
 2520SOL    HW1 7606   1.805   6.048   1.381
 2520SOL    HW2 7607   1.758   5.905   1.319
 2521SOL     OW 7608   0.120   6.558   1.706
 2521SOL    HW1 7609   0.067   6.615   1.767
 2521SOL    HW2 7610   0.212   6.544   1.744
 2522SOL     OW 7611   0.684   5.781   1.499
 2522SOL    HW1 7612   0.770   5.756   1.456
 2522SOL    HW2 7613   0.701   5.814   1.592
 2523SOL     OW 7614   0.064   5.971   0.019
 2523SOL    HW1 7615   6.974   5.959   6.978
 2523SOL    HW2 7616   0.128   6.005   6.949
 2524SOL     OW 7617   1.426   6.437   1.398
 2524SOL    HW1 7618   1.372   6.501   1.344
 2524SOL    HW2 7619   1.521   6.437   1.366
 2525SOL     OW 7620   0.030   5.777   0.359
 2525SOL    HW1 7621   0.070   5.865   0.334
 2525SOL    HW2 7622   0.102   5.710   0.374
 2526SOL     OW 7623   0.624   6.413   1.435
 2526SOL    HW1 7624   0.682   6.492   1.415
 2526SOL    HW2 7625   0.682   6.331   1.444
 2527SOL     OW 7626   0.719   6.143   1.703
 2527SOL    HW1 7627   0.767   6.209   1.762
 2527SOL    HW2 7628   0.738   6.051   1.736
 2528SOL     OW 7629   1.486   6.777   1.646
 2528SOL    HW1 7630   1.473   6.797   1.743
 2528SOL    HW2 7631   1.582   6.792   1.622
 2529SOL     OW 7632   1.666   6.460   1.253
 2529SOL    HW1 7633   1.660   6.370   1.212
 2529SOL    HW2 7634   1.653   6.530   1.183
 2530SOL     OW 7635   1.222   5.901   0.461
 2530SOL    HW1 7636   1.287   5.824   0.453
 2530SOL    HW2 7637   1.246   5.957   0.540
 2531SOL     OW 7638   0.587   6.321   0.668
 2531SOL    HW1 7639   0.629   6.412   0.663
 2531SOL    HW2 7640   0.519   6.311   0.596
 2532SOL     OW 7641   1.750   5.950   1.653
 2532SOL    HW1 7642   1.741   5.967   1.554
 2532SOL    HW2 7643   1.675   5.891   1.683
 2533SOL     OW 7644   1.745   6.519   1.506
 2533SOL    HW1 7645   1.737   6.618   1.523
 2533SOL    HW2 7646   1.728   6.501   1.409
 2534SOL     OW 7647   0.868   6.551   0.858
 2534SOL    HW1 7648   0.921   6.473   0.893
 2534SOL    HW2 7649   0.836   6.606   0.935
 2535SOL     OW 7650   1.089   6.585   0.084
 2535SOL    HW1 7651   1.033   6.588   0.001
 2535SOL    HW2 7652   1.167   6.524   0.070
 2536SOL     OW 7653   0.250   6.872   1.852
 2536SOL    HW1 7654   0.154   6.875   1.825
 2536SOL    HW2 7655   0.265   6.934   1.929
 2537SOL     OW 7656   0.171   6.859   0.663
 2537SOL    HW1 7657   0.106   6.813   0.723
 2537SOL    HW2 7658   0.213   6.793   0.601
 2538SOL     OW 7659   0.708   6.971   1.631
 2538SOL    HW1 7660   0.612   6.967   1.657
 2538SOL    HW2 7661   0.732   0.065   1.606
 2539SOL     OW 7662   1.804   5.768   1.233
 2539SOL    HW1 7663   1.818   5.672   1.257
 2539SOL    HW2 7664   1.818   5.780   1.135
 2540SOL     OW 7665   0.435   6.012   0.525
 2540SOL    HW1 7666   0.486   5.941   0.477
 2540SOL    HW2 7667   0.397   5.974   0.610
 2541SOL     OW 7668   1.643   0.044   1.140
 2541SOL    HW1 7669   1.597   0.027   1.053
 2541SOL    HW2 7670   1.639   6.961   1.196
 2542SOL     OW 7671   0.331   6.137   1.292
 2542SOL    HW1 7672   0.387   6.081   1.353
 2542SOL    HW2 7673   0.348   6.110   1.197
 2543SOL     OW 7674   1.430   5.817   1.116
 2543SOL    HW1 7675   1.450   5.726   1.152
 2543SOL    HW2 7676   1.376   5.868   1.184
 2544SOL     OW 7677   1.010   5.602   1.137
 2544SOL    HW1 7678   0.946   5.538   1.094
 2544SOL    HW2 7679   1.101   5.561   1.138
 2545SOL     OW 7680   0.811   6.877   0.289
 2545SOL    HW1 7681   0.768   6.790   0.313
 2545SOL    HW2 7682   0.824   6.932   0.372
 2546SOL     OW 7683   1.362   5.629   0.182
 2546SOL    HW1 7684   1.406   5.565   0.119
 2546SOL    HW2 7685   1.268   5.600   0.198
 2547SOL     OW 7686   1.289   6.050   0.680
 2547SOL    HW1 7687   1.237   6.135   0.682
 2547SOL    HW2 7688   1.288   6.008   0.771
 2548SOL     OW 7689   1.587   5.789   0.884
 2548SOL    HW1 7690   1.529   5.808   0.964
 2548SOL    HW2 7691   1.588   5.869   0.824
 2549SOL     OW 7692   0.081   6.647   0.291
 2549SOL    HW1 7693   0.170   6.602   0.294
 2549SOL    HW2 7694   0.009   6.578   0.299
 2550SOL     OW 7695   0.184   6.240   1.984
 2550SOL    HW1 7696   0.176   6.174   2.059
 2550SOL    HW2 7697   0.224   6.194   1.904
 2551SOL     OW 7698   0.230   5.857   2.850
 2551SOL    HW1 7699   0.281   5.824   2.930
 2551SOL    HW2 7700   0.133   5.841   2.865
 2552SOL     OW 7701   6.989   5.970   2.515
 2552SOL    HW1 7702   6.941   5.966   2.603
 2552SOL    HW2 7703   0.012   5.877   2.486
 2553SOL     OW 7704   0.570   6.873   3.037
 2553SOL    HW1 7705   0.495   6.875   2.971
 2553SOL    HW2 7706   0.540   6.916   3.122
 2554SOL     OW 7707   1.542   0.054   2.551
 2554SOL    HW1 7708   1.522   0.050   2.649
 2554SOL    HW2 7709   1.462   0.089   2.502
 2555SOL     OW 7710   1.132   6.287   2.556
 2555SOL    HW1 7711   1.184   6.371   2.540
 2555SOL    HW2 7712   1.081   6.295   2.642
 2556SOL     OW 7713   1.773   6.181   2.083
 2556SOL    HW1 7714   1.747   6.178   1.986
 2556SOL    HW2 7715   1.732   6.103   2.131
 2557SOL     OW 7716   0.766   6.751   2.886
 2557SOL    HW1 7717   0.698   6.786   2.950
 2557SOL    HW2 7718   0.760   6.801   2.800
 2558SOL     OW 7719   0.876   6.349   3.684
 2558SOL    HW1 7720   0.861   6.415   3.758
 2558SOL    HW2 7721   0.901   6.397   3.600
 2559SOL     OW 7722   0.686   6.583   2.510
 2559SOL    HW1 7723   0.757   6.573   2.580
 2559SOL    HW2 7724   0.609   6.635   2.547
 2560SOL     OW 7725   0.689   6.733   3.677
 2560SOL    HW1 7726   0.726   6.824   3.695
 2560SOL    HW2 7727   0.607   6.742   3.620
 2561SOL     OW 7728   0.344   0.007   2.910
 2561SOL    HW1 7729   0.271   6.953   2.866
 2561SOL    HW2 7730   0.393   0.059   2.840
 2562SOL     OW 7731   0.443   5.979   3.353
 2562SOL    HW1 7732   0.526   5.923   3.355
 2562SOL    HW2 7733   0.363   5.921   3.362
 2563SOL     OW 7734   1.610   6.031   2.607
 2563SOL    HW1 7735   1.535   6.049   2.544
 2563SOL    HW2 7736   1.616   6.106   2.673
 2564SOL     OW 7737   0.268   6.670   2.780
 2564SOL    HW1 7738   0.257   6.574   2.805
 2564SOL    HW2 7739   0.192   6.723   2.819
 2565SOL     OW 7740   0.577   6.565   2.005
 2565SOL    HW1 7741   0.622   6.616   1.932
 2565SOL    HW2 7742   0.617   6.591   2.093
 2566SOL     OW 7743   1.597   5.711   3.331
 2566SOL    HW1 7744   1.618   5.791   3.275
 2566SOL    HW2 7745   1.581   5.740   3.425
 2567SOL     OW 7746   0.133   6.199   2.437
 2567SOL    HW1 7747   0.064   6.130   2.460
 2567SOL    HW2 7748   0.122   6.278   2.497
 2568SOL     OW 7749   1.689   6.502   2.507
 2568SOL    HW1 7750   1.778   6.458   2.493
 2568SOL    HW2 7751   1.667   6.558   2.427
 2569SOL     OW 7752   1.653   6.691   2.289
 2569SOL    HW1 7753   1.742   6.684   2.243
 2569SOL    HW2 7754   1.661   6.750   2.369
 2570SOL     OW 7755   0.148   6.317   3.442
 2570SOL    HW1 7756   0.246   6.324   3.426
 2570SOL    HW2 7757   0.113   6.404   3.477
 2571SOL     OW 7758   1.315   6.816   3.293
 2571SOL    HW1 7759   1.338   6.746   3.226
 2571SOL    HW2 7760   1.374   6.807   3.373
 2572SOL     OW 7761   0.818   5.596   2.370
 2572SOL    HW1 7762   0.863   5.683   2.347
 2572SOL    HW2 7763   0.719   5.612   2.378
 2573SOL     OW 7764   0.213   6.555   3.127
 2573SOL    HW1 7765   0.291   6.495   3.107
 2573SOL    HW2 7766   0.136   6.528   3.070
 2574SOL     OW 7767   1.536   6.588   2.064
 2574SOL    HW1 7768   1.462   6.528   2.093
 2574SOL    HW2 7769   1.584   6.623   2.145
 2575SOL     OW 7770   0.356   5.838   3.697
 2575SOL    HW1 7771   0.403   5.920   3.727
 2575SOL    HW2 7772   0.258   5.846   3.717
 2576SOL     OW 7773   1.458   6.988   2.809
 2576SOL    HW1 7774   1.388   0.013   2.876
 2576SOL    HW2 7775   1.442   6.894   2.778
 2577SOL     OW 7776   0.588   6.299   2.129
 2577SOL    HW1 7777   0.596   6.387   2.083
 2577SOL    HW2 7778   0.525   6.307   2.206
 2578SOL     OW 7779   1.277   5.946   2.796
 2578SOL    HW1 7780   1.184   5.912   2.802
 2578SOL    HW2 7781   1.337   5.894   2.857
 2579SOL     OW 7782   0.791   6.197   3.313
 2579SOL    HW1 7783   0.765   6.172   3.406
 2579SOL    HW2 7784   0.754   6.129   3.249
 2580SOL     OW 7785   1.391   6.056   3.542
 2580SOL    HW1 7786   1.392   6.105   3.629
 2580SOL    HW2 7787   1.451   5.976   3.548
 2581SOL     OW 7788   0.955   6.473   3.447
 2581SOL    HW1 7789   1.014   6.400   3.411
 2581SOL    HW2 7790   0.900   6.511   3.373
 2582SOL     OW 7791   0.994   5.991   3.090
 2582SOL    HW1 7792   0.903   6.011   3.126
 2582SOL    HW2 7793   0.985   5.943   3.003
 2583SOL     OW 7794   1.049   6.285   2.286
 2583SOL    HW1 7795   1.072   6.281   2.383
 2583SOL    HW2 7796   0.963   6.238   2.269
 2584SOL     OW 7797   0.101   6.403   2.636
 2584SOL    HW1 7798   0.194   6.393   2.672
 2584SOL    HW2 7799   0.040   6.436   2.708
 2585SOL     OW 7800   0.896   5.938   2.059
 2585SOL    HW1 7801   0.937   6.005   1.997
 2585SOL    HW2 7802   0.901   5.847   2.018
 2586SOL     OW 7803   1.699   6.158   3.688
 2586SOL    HW1 7804   1.665   6.237   3.637
 2586SOL    HW2 7805   1.730   6.088   3.623
 2587SOL     OW 7806   1.388   6.722   2.409
 2587SOL    HW1 7807   1.469   6.715   2.350
 2587SOL    HW2 7808   1.337   6.804   2.386
 2588SOL     OW 7809   0.551   5.760   2.762
 2588SOL    HW1 7810   0.557   5.789   2.858
 2588SOL    HW2 7811   0.555   5.840   2.702
 2589SOL     OW 7812   1.798   6.638   2.740
 2589SOL    HW1 7813   1.747   6.629   2.655
 2589SOL    HW2 7814   1.735   6.645   2.817
 2590SOL     OW 7815   0.317   6.527   2.117
 2590SOL    HW1 7816   0.403   6.553   2.073
 2590SOL    HW2 7817   0.285   6.441   2.080
 2591SOL     OW 7818   1.485   6.333   2.584
 2591SOL    HW1 7819   1.481   6.291   2.675
 2591SOL    HW2 7820   1.564   6.394   2.579
 2592SOL     OW 7821   0.196   5.852   3.352
 2592SOL    HW1 7822   0.113   5.907   3.337
 2592SOL    HW2 7823   0.171   5.767   3.399
 2593SOL     OW 7824   1.640   6.970   1.948
 2593SOL    HW1 7825   1.607   0.062   1.966
 2593SOL    HW2 7826   1.562   6.909   1.933
 2594SOL     OW 7827   1.401   5.690   2.299
 2594SOL    HW1 7828   1.389   5.664   2.204
 2594SOL    HW2 7829   1.498   5.699   2.320
 2595SOL     OW 7830   0.403   6.267   2.336
 2595SOL    HW1 7831   0.429   6.173   2.357
 2595SOL    HW2 7832   0.305   6.280   2.355
 2596SOL     OW 7833   1.526   5.808   3.589
 2596SOL    HW1 7834   1.537   5.829   3.687
 2596SOL    HW2 7835   1.454   5.740   3.578
 2597SOL     OW 7836   0.644   5.701   1.963
 2597SOL    HW1 7837   0.710   5.630   1.986
 2597SOL    HW2 7838   0.586   5.670   1.888
 2598SOL     OW 7839   0.763   5.863   3.620
 2598SOL    HW1 7840   0.848   5.811   3.612
 2598SOL    HW2 7841   0.711   5.831   3.698
 2599SOL     OW 7842   1.339   6.174   3.298
 2599SOL    HW1 7843   1.369   6.138   3.387
 2599SOL    HW2 7844   1.375   6.266   3.285
 2600SOL     OW 7845   0.928   6.092   2.759
 2600SOL    HW1 7846   0.901   6.085   2.663
 2600SOL    HW2 7847   0.959   6.003   2.792
 2601SOL     OW 7848   0.547   5.649   2.357
 2601SOL    HW1 7849   0.465   5.646   2.414
 2601SOL    HW2 7850   0.543   5.729   2.297
 2602SOL     OW 7851   1.418   6.788   1.922
 2602SOL    HW1 7852   1.472   6.718   1.969
 2602SOL    HW2 7853   1.325   6.755   1.906
 2603SOL     OW 7854   0.291   5.629   2.050
 2603SOL    HW1 7855   0.340   5.709   2.015
 2603SOL    HW2 7856   0.357   5.564   2.089
 2604SOL     OW 7857   0.947   5.838   2.318
 2604SOL    HW1 7858   0.916   5.878   2.232
 2604SOL    HW2 7859   1.045   5.851   2.327
 2605SOL     OW 7860   1.079   6.269   3.317
 2605SOL    HW1 7861   1.004   6.203   3.323
 2605SOL    HW2 7862   1.166   6.221   3.313
 2606SOL     OW 7863   1.270   0.149   2.600
 2606SOL    HW1 7864   1.238   0.233   2.556
 2606SOL    HW2 7865   1.281   0.164   2.698
 2607SOL     OW 7866   0.465   6.708   2.601
 2607SOL    HW1 7867   0.396   6.701   2.673
 2607SOL    HW2 7868   0.420   6.712   2.511
 2608SOL     OW 7869   1.022   6.121   1.892
 2608SOL    HW1 7870   0.977   6.207   1.869
 2608SOL    HW2 7871   1.090   6.137   1.963
 2609SOL     OW 7872   0.074   6.138   3.237
 2609SOL    HW1 7873   0.169   6.130   3.208
 2609SOL    HW2 7874   0.066   6.206   3.310
 2610SOL     OW 7875   0.565   5.809   3.034
 2610SOL    HW1 7876   0.615   5.732   3.073
 2610SOL    HW2 7877   0.470   5.807   3.064
 2611SOL     OW 7878   0.865   6.044   2.499
 2611SOL    HW1 7879   0.815   6.106   2.438
 2611SOL    HW2 7880   0.894   5.963   2.448
 2612SOL     OW 7881   1.018   5.639   2.607
 2612SOL    HW1 7882   0.957   5.640   2.527
 2612SOL    HW2 7883   0.993   5.563   2.667
 2613SOL     OW 7884   1.441   6.732   2.720
 2613SOL    HW1 7885   1.364   6.668   2.723
 2613SOL    HW2 7886   1.471   6.744   2.626
 2614SOL     OW 7887   1.468   6.192   2.830
 2614SOL    HW1 7888   1.405   6.115   2.830
 2614SOL    HW2 7889   1.529   6.186   2.910
 2615SOL     OW 7890   1.842   6.389   2.242
 2615SOL    HW1 7891   1.900   6.343   2.309
 2615SOL    HW2 7892   1.814   6.325   2.171
 2616SOL     OW 7893   1.681   6.831   2.510
 2616SOL    HW1 7894   1.779   6.842   2.528
 2616SOL    HW2 7895   1.634   6.916   2.530
 2617SOL     OW 7896   1.390   6.161   1.933
 2617SOL    HW1 7897   1.327   6.138   2.007
 2617SOL    HW2 7898   1.483   6.134   1.959
 2618SOL     OW 7899   0.531   5.846   2.171
 2618SOL    HW1 7900   0.579   5.793   2.102
 2618SOL    HW2 7901   0.502   5.934   2.131
 2619SOL     OW 7902   1.754   6.812   3.428
 2619SOL    HW1 7903   1.838   6.762   3.451
 2619SOL    HW2 7904   1.771   6.911   3.439
 2620SOL     OW 7905   1.076   6.894   3.187
 2620SOL    HW1 7906   0.996   6.878   3.245
 2620SOL    HW2 7907   1.159   6.877   3.240
 2621SOL     OW 7908   1.138   6.763   2.961
 2621SOL    HW1 7909   1.105   6.811   3.042
 2621SOL    HW2 7910   1.077   6.781   2.884
 2622SOL     OW 7911   1.622   6.680   2.945
 2622SOL    HW1 7912   1.610   6.736   3.027
 2622SOL    HW2 7913   1.546   6.697   2.882
 2623SOL     OW 7914   0.923   5.680   3.253
 2623SOL    HW1 7915   0.945   5.657   3.158
 2623SOL    HW2 7916   1.003   5.723   3.295
 2624SOL     OW 7917   0.965   6.696   3.601
 2624SOL    HW1 7918   0.868   6.709   3.618
 2624SOL    HW2 7919   0.978   6.622   3.535
 2625SOL     OW 7920   0.708   6.637   2.231
 2625SOL    HW1 7921   0.696   6.628   2.330
 2625SOL    HW2 7922   0.789   6.587   2.203
 2626SOL     OW 7923   0.430   6.389   3.111
 2626SOL    HW1 7924   0.499   6.405   3.181
 2626SOL    HW2 7925   0.387   6.300   3.126
 2627SOL     OW 7926   1.262   5.961   3.143
 2627SOL    HW1 7927   1.298   6.041   3.192
 2627SOL    HW2 7928   1.167   5.979   3.118
 2628SOL     OW 7929   0.030   0.145   3.215
 2628SOL    HW1 7930   6.953   0.208   3.205
 2628SOL    HW2 7931   0.091   0.178   3.286
 2629SOL     OW 7932   0.338   6.706   2.354
 2629SOL    HW1 7933   0.389   6.777   2.305
 2629SOL    HW2 7934   0.330   6.625   2.296
 2630SOL     OW 7935   0.548   6.129   2.725
 2630SOL    HW1 7936   0.562   6.188   2.646
 2630SOL    HW2 7937   0.618   6.149   2.794
 2631SOL     OW 7938   1.577   6.207   2.344
 2631SOL    HW1 7939   1.527   6.252   2.419
 2631SOL    HW2 7940   1.628   6.275   2.292
 2632SOL     OW 7941   0.426   6.317   3.460
 2632SOL    HW1 7942   0.488   6.368   3.401
 2632SOL    HW2 7943   0.468   6.229   3.483
 2633SOL     OW 7944   1.609   6.371   3.547
 2633SOL    HW1 7945   1.517   6.411   3.544
 2633SOL    HW2 7946   1.665   6.412   3.475
 2634SOL     OW 7947   0.997   5.721   3.612
 2634SOL    HW1 7948   1.056   5.801   3.596
 2634SOL    HW2 7949   1.046   5.638   3.586
 2635SOL     OW 7950   0.495   5.621   3.612
 2635SOL    HW1 7951   0.449   5.566   3.543
 2635SOL    HW2 7952   0.440   5.702   3.633
 2636SOL     OW 7953   0.588   6.451   2.896
 2636SOL    HW1 7954   0.605   6.549   2.883
 2636SOL    HW2 7955   0.527   6.438   2.974
 2637SOL     OW 7956   1.355   6.439   2.887
 2637SOL    HW1 7957   1.263   6.436   2.848
 2637SOL    HW2 7958   1.401   6.351   2.874
 2638SOL     OW 7959   1.196   6.113   2.126
 2638SOL    HW1 7960   1.210   6.030   2.180
 2638SOL    HW2 7961   1.152   6.183   2.182
 2639SOL     OW 7962   0.308   5.780   3.108
 2639SOL    HW1 7963   0.268   5.816   3.192
 2639SOL    HW2 7964   0.291   5.682   3.101
 2640SOL     OW 7965   0.113   6.902   3.134
 2640SOL    HW1 7966   0.114   6.829   3.201
 2640SOL    HW2 7967   0.069   6.983   3.173
 2641SOL     OW 7968   0.727   6.215   2.917
 2641SOL    HW1 7969   0.803   6.195   2.855
 2641SOL    HW2 7970   0.691   6.306   2.899
 2642SOL     OW 7971   1.735   6.547   3.716
 2642SOL    HW1 7972   1.692   6.477   3.660
 2642SOL    HW2 7973   1.679   6.564   3.797
 2643SOL     OW 7974   0.302   5.646   2.487
 2643SOL    HW1 7975   0.282   5.743   2.505
 2643SOL    HW2 7976   0.314   5.598   2.573
 2644SOL     OW 7977   1.628   5.968   2.223
 2644SOL    HW1 7978   1.654   5.894   2.285
 2644SOL    HW2 7979   1.599   6.048   2.275
 2645SOL     OW 7980   1.024   6.339   2.819
 2645SOL    HW1 7981   1.019   6.362   2.917
 2645SOL    HW2 7982   0.998   6.244   2.805
 2646SOL     OW 7983   1.856   0.064   3.463
 2646SOL    HW1 7984   1.894   0.140   3.411
 2646SOL    HW2 7985   1.910   0.049   3.545
 2647SOL     OW 7986   0.369   6.502   3.657
 2647SOL    HW1 7987   0.442   6.517   3.724
 2647SOL    HW2 7988   0.397   6.432   3.592
 2648SOL     OW 7989   1.526   5.855   1.992
 2648SOL    HW1 7990   1.458   5.786   2.017
 2648SOL    HW2 7991   1.564   5.897   2.074
 2649SOL     OW 7992   1.287   6.410   1.884
 2649SOL    HW1 7993   1.328   6.319   1.895
 2649SOL    HW2 7994   1.319   6.450   1.799
 2650SOL     OW 7995   0.319   6.385   2.802
 2650SOL    HW1 7996   0.416   6.409   2.798
 2650SOL    HW2 7997   0.309   6.293   2.841
 2651SOL     OW 7998   0.328   6.106   2.876
 2651SOL    HW1 7999   0.290   6.015   2.861
 2651SOL    HW2 8000   0.409   6.118   2.818
 2652SOL     OW 8001   1.134   5.959   3.555
 2652SOL    HW1 8002   1.081   6.015   3.618
 2652SOL    HW2 8003   1.226   5.996   3.546
 2653SOL     OW 8004   1.162   5.789   3.338
 2653SOL    HW1 8005   1.147   5.851   3.415
 2653SOL    HW2 8006   1.204   5.838   3.262
 2654SOL     OW 8007   6.981   6.915   2.068
 2654SOL    HW1 8008   6.912   6.930   2.139
 2654SOL    HW2 8009   0.036   6.835   2.092
 2655SOL     OW 8010   0.973   6.378   3.086
 2655SOL    HW1 8011   1.033   6.354   3.162
 2655SOL    HW2 8012   0.885   6.331   3.096
 2656SOL     OW 8013   0.050   6.192   2.967
 2656SOL    HW1 8014   0.127   6.147   2.923
 2656SOL    HW2 8015   0.051   6.173   3.065
 2657SOL     OW 8016   0.209   6.097   3.586
 2657SOL    HW1 8017   0.284   6.050   3.539
 2657SOL    HW2 8018   0.189   6.183   3.538
 2658SOL     OW 8019   1.381   6.522   3.516
 2658SOL    HW1 8020   1.411   6.617   3.516
 2658SOL    HW2 8021   1.377   6.487   3.423
 2659SOL     OW 8022   0.817   6.159   2.221
 2659SOL    HW1 8023   0.828   6.078   2.163
 2659SOL    HW2 8024   0.737   6.211   2.190
 2660SOL     OW 8025   1.642   6.187   3.042
 2660SOL    HW1 8026   1.626   6.128   3.121
 2660SOL    HW2 8027   1.734   6.171   3.006
 2661SOL     OW 8028   0.709   6.033   3.116
 2661SOL    HW1 8029   0.653   5.954   3.090
 2661SOL    HW2 8030   0.706   6.101   3.042
 2662SOL     OW 8031   0.451   6.072   2.044
 2662SOL    HW1 8032   0.508   6.153   2.062
 2662SOL    HW2 8033   0.366   6.079   2.096
 2663SOL     OW 8034   0.187   6.706   3.343
 2663SOL    HW1 8035   0.166   6.642   3.418
 2663SOL    HW2 8036   0.200   6.654   3.258
 2664SOL     OW 8037   1.329   6.622   3.085
 2664SOL    HW1 8038   1.358   6.554   3.018
 2664SOL    HW2 8039   1.257   6.680   3.046
 2665SOL     OW 8040   1.318   6.447   2.157
 2665SOL    HW1 8041   1.246   6.416   2.220
 2665SOL    HW2 8042   1.289   6.431   2.063
 2666SOL     OW 8043   0.073   6.837   2.875
 2666SOL    HW1 8044   0.091   6.856   2.972
 2666SOL    HW2 8045   6.976   6.817   2.863
 2667SOL     OW 8046   1.720   5.737   2.360
 2667SOL    HW1 8047   1.795   5.727   2.295
 2667SOL    HW2 8048   1.702   5.650   2.405
 2668SOL     OW 8049   1.283   6.509   2.532
 2668SOL    HW1 8050   1.357   6.444   2.548
 2668SOL    HW2 8051   1.318   6.586   2.479
 2669SOL     OW 8052   0.816   6.844   3.279
 2669SOL    HW1 8053   0.789   6.885   3.366
 2669SOL    HW2 8054   0.744   6.860   3.210
 2670SOL     OW 8055   1.842   5.755   2.826
 2670SOL    HW1 8056   1.876   5.663   2.803
 2670SOL    HW2 8057   1.751   5.767   2.786
 2671SOL     OW 8058   0.263   5.902   2.576
 2671SOL    HW1 8059   0.188   5.965   2.556
 2671SOL    HW2 8060   0.264   5.882   2.674
 2672SOL     OW 8061   1.251   0.210   1.873
 2672SOL    HW1 8062   1.255   0.141   1.945
 2672SOL    HW2 8063   1.159   0.212   1.834
 2673SOL     OW 8064   0.827   6.581   3.233
 2673SOL    HW1 8065   0.884   6.556   3.155
 2673SOL    HW2 8066   0.831   6.680   3.248
 2674SOL     OW 8067   0.920   6.495   2.141
 2674SOL    HW1 8068   0.986   6.537   2.079
 2674SOL    HW2 8069   0.966   6.426   2.197
 2675SOL     OW 8070   0.389   6.895   3.373
 2675SOL    HW1 8071   0.353   6.970   3.318
 2675SOL    HW2 8072   0.327   6.817   3.368
 2676SOL     OW 8073   1.604   6.844   3.176
 2676SOL    HW1 8074   1.679   6.831   3.241
 2676SOL    HW2 8075   1.536   6.905   3.216
 2677SOL     OW 8076   1.065   6.696   2.591
 2677SOL    HW1 8077   0.984   6.647   2.624
 2677SOL    HW2 8078   1.132   6.630   2.555
 2678SOL     OW 8079   1.023   5.825   2.829
 2678SOL    HW1 8080   1.019   5.782   2.739
 2678SOL    HW2 8081   1.020   5.755   2.900
 2679SOL     OW 8082   1.733   5.980   3.243
 2679SOL    HW1 8083   1.805   6.048   3.243
 2679SOL    HW2 8084   1.758   5.905   3.182
 2680SOL     OW 8085   0.121   6.558   3.568
 2680SOL    HW1 8086   0.067   6.615   3.629
 2680SOL    HW2 8087   0.212   6.544   3.606
 2681SOL     OW 8088   0.683   5.781   3.362
 2681SOL    HW1 8089   0.770   5.756   3.318
 2681SOL    HW2 8090   0.701   5.814   3.454
 2682SOL     OW 8091   0.100   5.899   1.896
 2682SOL    HW1 8092   0.003   5.875   1.902
 2682SOL    HW2 8093   0.111   5.987   1.851
 2683SOL     OW 8094   1.426   6.437   3.260
 2683SOL    HW1 8095   1.372   6.501   3.206
 2683SOL    HW2 8096   1.521   6.437   3.228
 2684SOL     OW 8097   0.074   5.775   2.202
 2684SOL    HW1 8098   0.018   5.760   2.121
 2684SOL    HW2 8099   0.153   5.714   2.199
 2685SOL     OW 8100   0.624   6.413   3.297
 2685SOL    HW1 8101   0.682   6.492   3.277
 2685SOL    HW2 8102   0.682   6.331   3.306
 2686SOL     OW 8103   0.719   6.143   3.566
 2686SOL    HW1 8104   0.767   6.209   3.624
 2686SOL    HW2 8105   0.738   6.050   3.598
 2687SOL     OW 8106   1.486   6.777   3.508
 2687SOL    HW1 8107   1.473   6.797   3.605
 2687SOL    HW2 8108   1.582   6.792   3.484
 2688SOL     OW 8109   1.666   6.460   3.116
 2688SOL    HW1 8110   1.660   6.369   3.074
 2688SOL    HW2 8111   1.653   6.530   3.045
 2689SOL     OW 8112   1.220   5.903   2.321
 2689SOL    HW1 8113   1.283   5.826   2.312
 2689SOL    HW2 8114   1.246   5.958   2.400
 2690SOL     OW 8115   0.587   6.323   2.533
 2690SOL    HW1 8116   0.629   6.414   2.524
 2690SOL    HW2 8117   0.520   6.310   2.461
 2691SOL     OW 8118   1.750   5.950   3.515
 2691SOL    HW1 8119   1.741   5.967   3.417
 2691SOL    HW2 8120   1.675   5.891   3.545
 2692SOL     OW 8121   1.745   6.519   3.368
 2692SOL    HW1 8122   1.737   6.618   3.385
 2692SOL    HW2 8123   1.729   6.501   3.272
 2693SOL     OW 8124   0.869   6.552   2.719
 2693SOL    HW1 8125   0.921   6.474   2.753
 2693SOL    HW2 8126   0.836   6.607   2.796
 2694SOL     OW 8127   1.093   6.588   1.953
 2694SOL    HW1 8128   1.051   6.634   1.875
 2694SOL    HW2 8129   1.159   6.520   1.920
 2695SOL     OW 8130   0.250   6.872   3.714
 2695SOL    HW1 8131   0.154   6.876   3.686
 2695SOL    HW2 8132   0.264   6.934   3.791
 2696SOL     OW 8133   0.172   6.859   2.526
 2696SOL    HW1 8134   0.109   6.811   2.587
 2696SOL    HW2 8135   0.215   6.793   2.464
 2697SOL     OW 8136   0.708   6.971   3.492
 2697SOL    HW1 8137   0.612   6.966   3.518
 2697SOL    HW2 8138   0.731   0.065   3.468
 2698SOL     OW 8139   1.804   5.768   3.096
 2698SOL    HW1 8140   1.818   5.672   3.120
 2698SOL    HW2 8141   1.817   5.780   2.997
 2699SOL     OW 8142   0.454   6.013   2.400
 2699SOL    HW1 8143   0.480   5.944   2.332
 2699SOL    HW2 8144   0.397   5.971   2.470
 2700SOL     OW 8145   1.643   0.044   3.002
 2700SOL    HW1 8146   1.597   0.027   2.915
 2700SOL    HW2 8147   1.638   6.961   3.059
 2701SOL     OW 8148   0.332   6.137   3.153
 2701SOL    HW1 8149   0.388   6.081   3.214
 2701SOL    HW2 8150   0.348   6.110   3.058
 2702SOL     OW 8151   1.430   5.817   2.979
 2702SOL    HW1 8152   1.451   5.726   3.015
 2702SOL    HW2 8153   1.376   5.868   3.046
 2703SOL     OW 8154   1.010   5.602   2.999
 2703SOL    HW1 8155   0.945   5.539   2.956
 2703SOL    HW2 8156   1.101   5.561   3.000
 2704SOL     OW 8157   0.758   6.907   2.128
 2704SOL    HW1 8158   0.736   6.812   2.149
 2704SOL    HW2 8159   0.798   6.951   2.209
 2705SOL     OW 8160   1.355   5.635   2.033
 2705SOL    HW1 8161   1.398   5.567   1.974
 2705SOL    HW2 8162   1.262   5.607   2.054
 2706SOL     OW 8163   1.291   6.050   2.542
 2706SOL    HW1 8164   1.238   6.135   2.543
 2706SOL    HW2 8165   1.289   6.008   2.633
 2707SOL     OW 8166   1.586   5.789   2.747
 2707SOL    HW1 8167   1.528   5.809   2.826
 2707SOL    HW2 8168   1.588   5.868   2.686
 2708SOL     OW 8169   0.072   6.649   2.139
 2708SOL    HW1 8170   0.165   6.611   2.137
 2708SOL    HW2 8171   0.007   6.575   2.157
 2709SOL     OW 8172   0.185   6.239   3.846
 2709SOL    HW1 8173   0.176   6.174   3.921
 2709SOL    HW2 8174   0.224   6.194   3.766
 2710SOL     OW 8175   0.230   5.857   4.712
 2710SOL    HW1 8176   0.281   5.824   4.792
 2710SOL    HW2 8177   0.132   5.841   4.727
 2711SOL     OW 8178   6.989   5.970   4.377
 2711SOL    HW1 8179   6.941   5.966   4.465
 2711SOL    HW2 8180   0.012   5.877   4.348
 2712SOL     OW 8181   0.570   6.872   4.899
 2712SOL    HW1 8182   0.495   6.875   4.833
 2712SOL    HW2 8183   0.540   6.917   4.984
 2713SOL     OW 8184   1.542   0.054   4.413
 2713SOL    HW1 8185   1.522   0.050   4.511
 2713SOL    HW2 8186   1.462   0.089   4.364
 2714SOL     OW 8187   1.132   6.287   4.418
 2714SOL    HW1 8188   1.184   6.371   4.402
 2714SOL    HW2 8189   1.081   6.295   4.504
 2715SOL     OW 8190   1.773   6.181   3.945
 2715SOL    HW1 8191   1.747   6.178   3.848
 2715SOL    HW2 8192   1.732   6.103   3.993
 2716SOL     OW 8193   0.766   6.751   4.748
 2716SOL    HW1 8194   0.698   6.786   4.812
 2716SOL    HW2 8195   0.760   6.801   4.662
 2717SOL     OW 8196   0.876   6.349   5.546
 2717SOL    HW1 8197   0.862   6.415   5.620
 2717SOL    HW2 8198   0.901   6.397   5.462
 2718SOL     OW 8199   0.686   6.583   4.372
 2718SOL    HW1 8200   0.757   6.573   4.442
 2718SOL    HW2 8201   0.609   6.635   4.409
 2719SOL     OW 8202   0.689   6.733   5.539
 2719SOL    HW1 8203   0.727   6.824   5.558
 2719SOL    HW2 8204   0.607   6.742   5.482
 2720SOL     OW 8205   0.343   0.007   4.772
 2720SOL    HW1 8206   0.271   6.953   4.728
 2720SOL    HW2 8207   0.393   0.059   4.702
 2721SOL     OW 8208   0.443   5.979   5.216
 2721SOL    HW1 8209   0.526   5.923   5.218
 2721SOL    HW2 8210   0.363   5.921   5.224
 2722SOL     OW 8211   1.610   6.031   4.469
 2722SOL    HW1 8212   1.535   6.049   4.405
 2722SOL    HW2 8213   1.616   6.106   4.535
 2723SOL     OW 8214   0.268   6.670   4.642
 2723SOL    HW1 8215   0.257   6.574   4.667
 2723SOL    HW2 8216   0.192   6.723   4.681
 2724SOL     OW 8217   0.577   6.565   3.867
 2724SOL    HW1 8218   0.622   6.616   3.794
 2724SOL    HW2 8219   0.617   6.591   3.955
 2725SOL     OW 8220   1.597   5.711   5.193
 2725SOL    HW1 8221   1.618   5.791   5.136
 2725SOL    HW2 8222   1.581   5.740   5.287
 2726SOL     OW 8223   0.133   6.199   4.299
 2726SOL    HW1 8224   0.064   6.130   4.322
 2726SOL    HW2 8225   0.122   6.278   4.359
 2727SOL     OW 8226   1.689   6.502   4.369
 2727SOL    HW1 8227   1.778   6.458   4.355
 2727SOL    HW2 8228   1.667   6.558   4.289
 2728SOL     OW 8229   1.653   6.691   4.151
 2728SOL    HW1 8230   1.742   6.684   4.105
 2728SOL    HW2 8231   1.661   6.750   4.231
 2729SOL     OW 8232   0.148   6.317   5.304
 2729SOL    HW1 8233   0.246   6.324   5.288
 2729SOL    HW2 8234   0.113   6.404   5.339
 2730SOL     OW 8235   1.314   6.816   5.155
 2730SOL    HW1 8236   1.338   6.746   5.088
 2730SOL    HW2 8237   1.374   6.807   5.235
 2731SOL     OW 8238   0.818   5.596   4.232
 2731SOL    HW1 8239   0.863   5.682   4.209
 2731SOL    HW2 8240   0.719   5.612   4.240
 2732SOL     OW 8241   0.213   6.554   4.989
 2732SOL    HW1 8242   0.291   6.495   4.969
 2732SOL    HW2 8243   0.136   6.528   4.932
 2733SOL     OW 8244   1.536   6.589   3.926
 2733SOL    HW1 8245   1.462   6.528   3.955
 2733SOL    HW2 8246   1.584   6.623   4.007
 2734SOL     OW 8247   0.356   5.837   5.560
 2734SOL    HW1 8248   0.403   5.920   5.589
 2734SOL    HW2 8249   0.258   5.846   5.579
 2735SOL     OW 8250   1.458   6.988   4.671
 2735SOL    HW1 8251   1.388   0.013   4.738
 2735SOL    HW2 8252   1.442   6.894   4.640
 2736SOL     OW 8253   0.589   6.299   3.991
 2736SOL    HW1 8254   0.596   6.387   3.945
 2736SOL    HW2 8255   0.525   6.308   4.068
 2737SOL     OW 8256   1.277   5.947   4.658
 2737SOL    HW1 8257   1.184   5.912   4.664
 2737SOL    HW2 8258   1.337   5.894   4.719
 2738SOL     OW 8259   0.790   6.197   5.175
 2738SOL    HW1 8260   0.765   6.172   5.268
 2738SOL    HW2 8261   0.754   6.129   5.111
 2739SOL     OW 8262   1.391   6.056   5.404
 2739SOL    HW1 8263   1.392   6.105   5.491
 2739SOL    HW2 8264   1.451   5.976   5.410
 2740SOL     OW 8265   0.955   6.473   5.309
 2740SOL    HW1 8266   1.014   6.400   5.273
 2740SOL    HW2 8267   0.900   6.511   5.235
 2741SOL     OW 8268   0.994   5.991   4.952
 2741SOL    HW1 8269   0.903   6.011   4.988
 2741SOL    HW2 8270   0.985   5.943   4.865
 2742SOL     OW 8271   1.049   6.285   4.148
 2742SOL    HW1 8272   1.072   6.281   4.245
 2742SOL    HW2 8273   0.963   6.238   4.131
 2743SOL     OW 8274   0.101   6.403   4.498
 2743SOL    HW1 8275   0.194   6.393   4.534
 2743SOL    HW2 8276   0.040   6.437   4.570
 2744SOL     OW 8277   0.896   5.938   3.921
 2744SOL    HW1 8278   0.937   6.005   3.859
 2744SOL    HW2 8279   0.900   5.847   3.880
 2745SOL     OW 8280   1.699   6.158   5.550
 2745SOL    HW1 8281   1.665   6.237   5.499
 2745SOL    HW2 8282   1.730   6.088   5.485
 2746SOL     OW 8283   1.388   6.722   4.271
 2746SOL    HW1 8284   1.469   6.715   4.212
 2746SOL    HW2 8285   1.337   6.804   4.247
 2747SOL     OW 8286   0.551   5.760   4.624
 2747SOL    HW1 8287   0.557   5.790   4.719
 2747SOL    HW2 8288   0.555   5.840   4.564
 2748SOL     OW 8289   1.798   6.638   4.602
 2748SOL    HW1 8290   1.747   6.628   4.517
 2748SOL    HW2 8291   1.735   6.645   4.679
 2749SOL     OW 8292   0.317   6.527   3.979
 2749SOL    HW1 8293   0.403   6.553   3.935
 2749SOL    HW2 8294   0.284   6.441   3.942
 2750SOL     OW 8295   1.485   6.333   4.446
 2750SOL    HW1 8296   1.481   6.291   4.537
 2750SOL    HW2 8297   1.564   6.394   4.441
 2751SOL     OW 8298   0.196   5.852   5.214
 2751SOL    HW1 8299   0.113   5.907   5.198
 2751SOL    HW2 8300   0.171   5.767   5.261
 2752SOL     OW 8301   1.640   6.970   3.810
 2752SOL    HW1 8302   1.607   0.062   3.828
 2752SOL    HW2 8303   1.562   6.909   3.795
 2753SOL     OW 8304   1.401   5.690   4.162
 2753SOL    HW1 8305   1.389   5.664   4.066
 2753SOL    HW2 8306   1.498   5.699   4.182
 2754SOL     OW 8307   0.403   6.267   4.198
 2754SOL    HW1 8308   0.429   6.173   4.219
 2754SOL    HW2 8309   0.305   6.280   4.217
 2755SOL     OW 8310   1.526   5.809   5.451
 2755SOL    HW1 8311   1.537   5.829   5.549
 2755SOL    HW2 8312   1.454   5.740   5.440
 2756SOL     OW 8313   0.644   5.701   3.825
 2756SOL    HW1 8314   0.711   5.630   3.847
 2756SOL    HW2 8315   0.586   5.670   3.750
 2757SOL     OW 8316   0.763   5.863   5.482
 2757SOL    HW1 8317   0.848   5.811   5.474
 2757SOL    HW2 8318   0.711   5.831   5.561
 2758SOL     OW 8319   1.338   6.174   5.160
 2758SOL    HW1 8320   1.369   6.138   5.249
 2758SOL    HW2 8321   1.375   6.266   5.146
 2759SOL     OW 8322   0.927   6.092   4.621
 2759SOL    HW1 8323   0.901   6.085   4.525
 2759SOL    HW2 8324   0.959   6.003   4.654
 2760SOL     OW 8325   0.547   5.649   4.219
 2760SOL    HW1 8326   0.464   5.646   4.276
 2760SOL    HW2 8327   0.543   5.729   4.159
 2761SOL     OW 8328   1.418   6.788   3.784
 2761SOL    HW1 8329   1.472   6.718   3.831
 2761SOL    HW2 8330   1.326   6.754   3.767
 2762SOL     OW 8331   0.291   5.629   3.913
 2762SOL    HW1 8332   0.340   5.708   3.876
 2762SOL    HW2 8333   0.357   5.564   3.951
 2763SOL     OW 8334   0.947   5.838   4.180
 2763SOL    HW1 8335   0.916   5.878   4.094
 2763SOL    HW2 8336   1.045   5.851   4.189
 2764SOL     OW 8337   1.079   6.269   5.179
 2764SOL    HW1 8338   1.004   6.203   5.185
 2764SOL    HW2 8339   1.167   6.221   5.175
 2765SOL     OW 8340   1.270   0.149   4.462
 2765SOL    HW1 8341   1.238   0.233   4.418
 2765SOL    HW2 8342   1.281   0.164   4.560
 2766SOL     OW 8343   0.465   6.708   4.463
 2766SOL    HW1 8344   0.396   6.701   4.535
 2766SOL    HW2 8345   0.420   6.712   4.373
 2767SOL     OW 8346   1.022   6.121   3.754
 2767SOL    HW1 8347   0.977   6.207   3.731
 2767SOL    HW2 8348   1.090   6.137   3.825
 2768SOL     OW 8349   0.074   6.138   5.099
 2768SOL    HW1 8350   0.169   6.130   5.070
 2768SOL    HW2 8351   0.066   6.206   5.172
 2769SOL     OW 8352   0.565   5.809   4.895
 2769SOL    HW1 8353   0.615   5.732   4.935
 2769SOL    HW2 8354   0.470   5.807   4.926
 2770SOL     OW 8355   0.865   6.044   4.361
 2770SOL    HW1 8356   0.815   6.106   4.300
 2770SOL    HW2 8357   0.894   5.963   4.310
 2771SOL     OW 8358   1.018   5.639   4.469
 2771SOL    HW1 8359   0.957   5.640   4.389
 2771SOL    HW2 8360   0.993   5.563   4.529
 2772SOL     OW 8361   1.441   6.732   4.582
 2772SOL    HW1 8362   1.364   6.668   4.585
 2772SOL    HW2 8363   1.471   6.744   4.488
 2773SOL     OW 8364   1.468   6.192   4.692
 2773SOL    HW1 8365   1.405   6.115   4.692
 2773SOL    HW2 8366   1.529   6.186   4.772
 2774SOL     OW 8367   1.842   6.389   4.104
 2774SOL    HW1 8368   1.900   6.343   4.171
 2774SOL    HW2 8369   1.814   6.325   4.033
 2775SOL     OW 8370   1.681   6.831   4.373
 2775SOL    HW1 8371   1.779   6.842   4.390
 2775SOL    HW2 8372   1.634   6.916   4.392
 2776SOL     OW 8373   1.390   6.161   3.795
 2776SOL    HW1 8374   1.327   6.138   3.869
 2776SOL    HW2 8375   1.483   6.134   3.821
 2777SOL     OW 8376   0.531   5.846   4.033
 2777SOL    HW1 8377   0.579   5.792   3.964
 2777SOL    HW2 8378   0.502   5.934   3.993
 2778SOL     OW 8379   1.754   6.812   5.290
 2778SOL    HW1 8380   1.838   6.762   5.313
 2778SOL    HW2 8381   1.771   6.911   5.301
 2779SOL     OW 8382   1.076   6.894   5.049
 2779SOL    HW1 8383   0.996   6.878   5.107
 2779SOL    HW2 8384   1.159   6.877   5.102
 2780SOL     OW 8385   1.138   6.763   4.823
 2780SOL    HW1 8386   1.105   6.811   4.904
 2780SOL    HW2 8387   1.077   6.781   4.746
 2781SOL     OW 8388   1.621   6.680   4.807
 2781SOL    HW1 8389   1.610   6.736   4.889
 2781SOL    HW2 8390   1.546   6.697   4.744
 2782SOL     OW 8391   0.923   5.680   5.115
 2782SOL    HW1 8392   0.945   5.657   5.020
 2782SOL    HW2 8393   1.003   5.723   5.157
 2783SOL     OW 8394   0.965   6.696   5.463
 2783SOL    HW1 8395   0.868   6.709   5.480
 2783SOL    HW2 8396   0.978   6.622   5.397
 2784SOL     OW 8397   0.708   6.637   4.093
 2784SOL    HW1 8398   0.696   6.628   4.192
 2784SOL    HW2 8399   0.789   6.587   4.065
 2785SOL     OW 8400   0.430   6.389   4.973
 2785SOL    HW1 8401   0.499   6.405   5.043
 2785SOL    HW2 8402   0.387   6.300   4.988
 2786SOL     OW 8403   1.262   5.961   5.005
 2786SOL    HW1 8404   1.298   6.041   5.054
 2786SOL    HW2 8405   1.167   5.979   4.980
 2787SOL     OW 8406   0.030   0.145   5.077
 2787SOL    HW1 8407   6.953   0.208   5.067
 2787SOL    HW2 8408   0.091   0.178   5.148
 2788SOL     OW 8409   0.338   6.706   4.216
 2788SOL    HW1 8410   0.389   6.777   4.167
 2788SOL    HW2 8411   0.330   6.625   4.158
 2789SOL     OW 8412   0.548   6.129   4.588
 2789SOL    HW1 8413   0.561   6.188   4.508
 2789SOL    HW2 8414   0.618   6.149   4.656
 2790SOL     OW 8415   1.577   6.207   4.206
 2790SOL    HW1 8416   1.527   6.252   4.281
 2790SOL    HW2 8417   1.628   6.275   4.154
 2791SOL     OW 8418   0.426   6.317   5.322
 2791SOL    HW1 8419   0.488   6.368   5.263
 2791SOL    HW2 8420   0.468   6.229   5.345
 2792SOL     OW 8421   1.609   6.371   5.409
 2792SOL    HW1 8422   1.517   6.411   5.406
 2792SOL    HW2 8423   1.665   6.412   5.337
 2793SOL     OW 8424   0.997   5.721   5.474
 2793SOL    HW1 8425   1.055   5.801   5.459
 2793SOL    HW2 8426   1.046   5.638   5.448
 2794SOL     OW 8427   0.495   5.621   5.474
 2794SOL    HW1 8428   0.449   5.566   5.405
 2794SOL    HW2 8429   0.440   5.702   5.495
 2795SOL     OW 8430   0.588   6.451   4.758
 2795SOL    HW1 8431   0.605   6.549   4.745
 2795SOL    HW2 8432   0.526   6.438   4.836
 2796SOL     OW 8433   1.355   6.439   4.749
 2796SOL    HW1 8434   1.263   6.436   4.710
 2796SOL    HW2 8435   1.401   6.351   4.736
 2797SOL     OW 8436   1.196   6.113   3.988
 2797SOL    HW1 8437   1.210   6.030   4.042
 2797SOL    HW2 8438   1.152   6.183   4.044
 2798SOL     OW 8439   0.308   5.780   4.970
 2798SOL    HW1 8440   0.268   5.816   5.054
 2798SOL    HW2 8441   0.291   5.682   4.963
 2799SOL     OW 8442   0.113   6.902   4.996
 2799SOL    HW1 8443   0.114   6.829   5.063
 2799SOL    HW2 8444   0.069   6.983   5.035
 2800SOL     OW 8445   0.727   6.215   4.779
 2800SOL    HW1 8446   0.803   6.195   4.717
 2800SOL    HW2 8447   0.691   6.306   4.761
 2801SOL     OW 8448   1.735   6.547   5.579
 2801SOL    HW1 8449   1.692   6.477   5.522
 2801SOL    HW2 8450   1.679   6.564   5.659
 2802SOL     OW 8451   0.302   5.646   4.349
 2802SOL    HW1 8452   0.282   5.743   4.367
 2802SOL    HW2 8453   0.314   5.598   4.435
 2803SOL     OW 8454   1.628   5.968   4.085
 2803SOL    HW1 8455   1.654   5.894   4.147
 2803SOL    HW2 8456   1.599   6.048   4.137
 2804SOL     OW 8457   1.024   6.339   4.681
 2804SOL    HW1 8458   1.019   6.362   4.779
 2804SOL    HW2 8459   0.998   6.244   4.667
 2805SOL     OW 8460   1.856   0.064   5.325
 2805SOL    HW1 8461   1.894   0.140   5.273
 2805SOL    HW2 8462   1.910   0.049   5.407
 2806SOL     OW 8463   0.369   6.502   5.520
 2806SOL    HW1 8464   0.442   6.517   5.586
 2806SOL    HW2 8465   0.397   6.431   5.454
 2807SOL     OW 8466   1.526   5.855   3.854
 2807SOL    HW1 8467   1.458   5.786   3.879
 2807SOL    HW2 8468   1.564   5.897   3.936
 2808SOL     OW 8469   1.287   6.410   3.746
 2808SOL    HW1 8470   1.328   6.319   3.757
 2808SOL    HW2 8471   1.319   6.450   3.661
 2809SOL     OW 8472   0.319   6.385   4.664
 2809SOL    HW1 8473   0.416   6.409   4.660
 2809SOL    HW2 8474   0.309   6.293   4.703
 2810SOL     OW 8475   0.328   6.106   4.738
 2810SOL    HW1 8476   0.290   6.015   4.723
 2810SOL    HW2 8477   0.409   6.118   4.680
 2811SOL     OW 8478   1.134   5.959   5.417
 2811SOL    HW1 8479   1.081   6.015   5.480
 2811SOL    HW2 8480   1.226   5.996   5.408
 2812SOL     OW 8481   1.161   5.789   5.200
 2812SOL    HW1 8482   1.147   5.851   5.277
 2812SOL    HW2 8483   1.204   5.838   5.125
 2813SOL     OW 8484   6.981   6.915   3.930
 2813SOL    HW1 8485   6.912   6.929   4.001
 2813SOL    HW2 8486   0.036   6.835   3.953
 2814SOL     OW 8487   0.973   6.378   4.948
 2814SOL    HW1 8488   1.033   6.354   5.024
 2814SOL    HW2 8489   0.885   6.331   4.958
 2815SOL     OW 8490   0.050   6.192   4.829
 2815SOL    HW1 8491   0.127   6.147   4.785
 2815SOL    HW2 8492   0.051   6.173   4.927
 2816SOL     OW 8493   0.209   6.097   5.448
 2816SOL    HW1 8494   0.284   6.050   5.401
 2816SOL    HW2 8495   0.189   6.183   5.400
 2817SOL     OW 8496   1.381   6.522   5.378
 2817SOL    HW1 8497   1.411   6.617   5.378
 2817SOL    HW2 8498   1.377   6.487   5.285
 2818SOL     OW 8499   0.817   6.159   4.083
 2818SOL    HW1 8500   0.828   6.078   4.025
 2818SOL    HW2 8501   0.737   6.211   4.052
 2819SOL     OW 8502   1.642   6.187   4.904
 2819SOL    HW1 8503   1.626   6.128   4.983
 2819SOL    HW2 8504   1.734   6.171   4.868
 2820SOL     OW 8505   0.709   6.033   4.978
 2820SOL    HW1 8506   0.653   5.954   4.952
 2820SOL    HW2 8507   0.706   6.101   4.904
 2821SOL     OW 8508   0.452   6.072   3.906
 2821SOL    HW1 8509   0.508   6.153   3.924
 2821SOL    HW2 8510   0.366   6.079   3.958
 2822SOL     OW 8511   0.187   6.706   5.205
 2822SOL    HW1 8512   0.166   6.642   5.280
 2822SOL    HW2 8513   0.199   6.654   5.120
 2823SOL     OW 8514   1.329   6.622   4.947
 2823SOL    HW1 8515   1.358   6.554   4.880
 2823SOL    HW2 8516   1.257   6.680   4.908
 2824SOL     OW 8517   1.318   6.447   4.019
 2824SOL    HW1 8518   1.246   6.416   4.082
 2824SOL    HW2 8519   1.289   6.431   3.925
 2825SOL     OW 8520   0.073   6.837   4.737
 2825SOL    HW1 8521   0.091   6.856   4.834
 2825SOL    HW2 8522   6.976   6.817   4.725
 2826SOL     OW 8523   1.720   5.737   4.222
 2826SOL    HW1 8524   1.795   5.727   4.157
 2826SOL    HW2 8525   1.702   5.650   4.267
 2827SOL     OW 8526   1.283   6.509   4.394
 2827SOL    HW1 8527   1.357   6.444   4.410
 2827SOL    HW2 8528   1.318   6.586   4.341
 2828SOL     OW 8529   0.816   6.844   5.141
 2828SOL    HW1 8530   0.789   6.885   5.228
 2828SOL    HW2 8531   0.745   6.860   5.072
 2829SOL     OW 8532   1.842   5.755   4.688
 2829SOL    HW1 8533   1.876   5.663   4.665
 2829SOL    HW2 8534   1.751   5.767   4.648
 2830SOL     OW 8535   0.263   5.902   4.438
 2830SOL    HW1 8536   0.188   5.965   4.418
 2830SOL    HW2 8537   0.264   5.882   4.536
 2831SOL     OW 8538   1.250   0.210   3.735
 2831SOL    HW1 8539   1.255   0.141   3.808
 2831SOL    HW2 8540   1.158   0.211   3.696
 2832SOL     OW 8541   0.827   6.581   5.095
 2832SOL    HW1 8542   0.884   6.556   5.017
 2832SOL    HW2 8543   0.831   6.680   5.110
 2833SOL     OW 8544   0.920   6.495   4.003
 2833SOL    HW1 8545   0.987   6.537   3.941
 2833SOL    HW2 8546   0.966   6.426   4.059
 2834SOL     OW 8547   0.389   6.895   5.236
 2834SOL    HW1 8548   0.353   6.970   5.180
 2834SOL    HW2 8549   0.327   6.817   5.230
 2835SOL     OW 8550   1.604   6.844   5.038
 2835SOL    HW1 8551   1.679   6.831   5.103
 2835SOL    HW2 8552   1.536   6.905   5.078
 2836SOL     OW 8553   1.065   6.696   4.453
 2836SOL    HW1 8554   0.984   6.647   4.486
 2836SOL    HW2 8555   1.132   6.630   4.417
 2837SOL     OW 8556   1.023   5.825   4.691
 2837SOL    HW1 8557   1.019   5.782   4.601
 2837SOL    HW2 8558   1.020   5.755   4.762
 2838SOL     OW 8559   1.733   5.980   5.105
 2838SOL    HW1 8560   1.805   6.048   5.105
 2838SOL    HW2 8561   1.758   5.905   5.044
 2839SOL     OW 8562   0.121   6.558   5.430
 2839SOL    HW1 8563   0.067   6.615   5.492
 2839SOL    HW2 8564   0.212   6.544   5.468
 2840SOL     OW 8565   0.683   5.781   5.224
 2840SOL    HW1 8566   0.770   5.756   5.180
 2840SOL    HW2 8567   0.701   5.814   5.316
 2841SOL     OW 8568   0.100   5.899   3.759
 2841SOL    HW1 8569   0.003   5.876   3.763
 2841SOL    HW2 8570   0.111   5.987   3.712
 2842SOL     OW 8571   1.426   6.437   5.122
 2842SOL    HW1 8572   1.372   6.501   5.068
 2842SOL    HW2 8573   1.521   6.437   5.090
 2843SOL     OW 8574   0.074   5.775   4.064
 2843SOL    HW1 8575   0.018   5.760   3.983
 2843SOL    HW2 8576   0.154   5.714   4.061
 2844SOL     OW 8577   0.624   6.413   5.159
 2844SOL    HW1 8578   0.682   6.492   5.139
 2844SOL    HW2 8579   0.682   6.331   5.168
 2845SOL     OW 8580   0.719   6.143   5.428
 2845SOL    HW1 8581   0.767   6.209   5.486
 2845SOL    HW2 8582   0.738   6.051   5.460
 2846SOL     OW 8583   1.486   6.777   5.370
 2846SOL    HW1 8584   1.473   6.797   5.468
 2846SOL    HW2 8585   1.582   6.792   5.346
 2847SOL     OW 8586   1.666   6.460   4.978
 2847SOL    HW1 8587   1.660   6.369   4.936
 2847SOL    HW2 8588   1.653   6.530   4.907
 2848SOL     OW 8589   1.220   5.903   4.183
 2848SOL    HW1 8590   1.283   5.826   4.174
 2848SOL    HW2 8591   1.246   5.958   4.262
 2849SOL     OW 8592   0.587   6.323   4.395
 2849SOL    HW1 8593   0.629   6.414   4.386
 2849SOL    HW2 8594   0.520   6.310   4.323
 2850SOL     OW 8595   1.750   5.950   5.377
 2850SOL    HW1 8596   1.741   5.967   5.279
 2850SOL    HW2 8597   1.675   5.891   5.407
 2851SOL     OW 8598   1.745   6.519   5.230
 2851SOL    HW1 8599   1.737   6.618   5.247
 2851SOL    HW2 8600   1.729   6.501   5.134
 2852SOL     OW 8601   0.869   6.552   4.581
 2852SOL    HW1 8602   0.921   6.474   4.615
 2852SOL    HW2 8603   0.836   6.607   4.658
 2853SOL     OW 8604   1.093   6.588   3.815
 2853SOL    HW1 8605   1.051   6.634   3.737
 2853SOL    HW2 8606   1.159   6.520   3.782
 2854SOL     OW 8607   0.249   6.871   5.577
 2854SOL    HW1 8608   0.154   6.877   5.546
 2854SOL    HW2 8609   0.263   6.934   5.653
 2855SOL     OW 8610   0.172   6.859   4.388
 2855SOL    HW1 8611   0.109   6.811   4.449
 2855SOL    HW2 8612   0.215   6.793   4.326
 2856SOL     OW 8613   0.708   6.971   5.355
 2856SOL    HW1 8614   0.612   6.966   5.381
 2856SOL    HW2 8615   0.731   0.065   5.330
 2857SOL     OW 8616   1.804   5.768   4.958
 2857SOL    HW1 8617   1.818   5.672   4.982
 2857SOL    HW2 8618   1.817   5.780   4.859
 2858SOL     OW 8619   0.454   6.013   4.262
 2858SOL    HW1 8620   0.480   5.944   4.194
 2858SOL    HW2 8621   0.397   5.971   4.332
 2859SOL     OW 8622   1.643   0.044   4.864
 2859SOL    HW1 8623   1.597   0.027   4.777
 2859SOL    HW2 8624   1.638   6.961   4.921
 2860SOL     OW 8625   0.332   6.137   5.016
 2860SOL    HW1 8626   0.388   6.081   5.076
 2860SOL    HW2 8627   0.348   6.111   4.920
 2861SOL     OW 8628   1.430   5.817   4.841
 2861SOL    HW1 8629   1.451   5.726   4.877
 2861SOL    HW2 8630   1.376   5.868   4.908
 2862SOL     OW 8631   1.010   5.602   4.861
 2862SOL    HW1 8632   0.945   5.539   4.817
 2862SOL    HW2 8633   1.101   5.561   4.862
 2863SOL     OW 8634   0.758   6.907   3.990
 2863SOL    HW1 8635   0.736   6.812   4.011
 2863SOL    HW2 8636   0.798   6.951   4.071
 2864SOL     OW 8637   1.355   5.635   3.895
 2864SOL    HW1 8638   1.398   5.567   3.835
 2864SOL    HW2 8639   1.262   5.607   3.917
 2865SOL     OW 8640   1.291   6.050   4.404
 2865SOL    HW1 8641   1.238   6.135   4.405
 2865SOL    HW2 8642   1.289   6.008   4.495
 2866SOL     OW 8643   1.586   5.789   4.609
 2866SOL    HW1 8644   1.528   5.809   4.688
 2866SOL    HW2 8645   1.588   5.868   4.548
 2867SOL     OW 8646   0.072   6.649   4.001
 2867SOL    HW1 8647   0.165   6.611   3.999
 2867SOL    HW2 8648   0.007   6.575   4.019
 2868SOL     OW 8649   0.185   6.239   5.708
 2868SOL    HW1 8650   0.176   6.173   5.783
 2868SOL    HW2 8651   0.224   6.194   5.628
 2869SOL     OW 8652   0.227   5.863   6.571
 2869SOL    HW1 8653   0.282   5.828   6.648
 2869SOL    HW2 8654   0.131   5.842   6.587
 2870SOL     OW 8655   6.989   5.970   6.239
 2870SOL    HW1 8656   6.941   5.965   6.326
 2870SOL    HW2 8657   0.010   5.877   6.208
 2871SOL     OW 8658   0.560   6.882   6.770
 2871SOL    HW1 8659   0.493   6.901   6.698
 2871SOL    HW2 8660   0.514   6.875   6.858
 2872SOL     OW 8661   1.541   0.055   6.274
 2872SOL    HW1 8662   1.520   0.048   6.371
 2872SOL    HW2 8663   1.462   0.091   6.224
 2873SOL     OW 8664   1.131   6.286   6.280
 2873SOL    HW1 8665   1.183   6.370   6.266
 2873SOL    HW2 8666   1.080   6.293   6.366
 2874SOL     OW 8667   1.773   6.181   5.807
 2874SOL    HW1 8668   1.748   6.178   5.710
 2874SOL    HW2 8669   1.733   6.104   5.855
 2875SOL     OW 8670   0.752   6.740   6.616
 2875SOL    HW1 8671   0.689   6.783   6.680
 2875SOL    HW2 8672   0.762   6.799   6.535
 2876SOL     OW 8673   0.686   6.583   6.234
 2876SOL    HW1 8674   0.757   6.573   6.303
 2876SOL    HW2 8675   0.610   6.636   6.271
 2877SOL     OW 8676   0.342   0.011   6.630
 2877SOL    HW1 8677   0.269   6.956   6.589
 2877SOL    HW2 8678   0.389   0.063   6.558
 2878SOL     OW 8679   1.609   6.032   6.330
 2878SOL    HW1 8680   1.534   6.048   6.266
 2878SOL    HW2 8681   1.609   6.105   6.400
 2879SOL     OW 8682   0.267   6.668   6.500
 2879SOL    HW1 8683   0.258   6.572   6.527
 2879SOL    HW2 8684   0.192   6.721   6.539
 2880SOL     OW 8685   0.577   6.565   5.729
 2880SOL    HW1 8686   0.622   6.616   5.656
 2880SOL    HW2 8687   0.617   6.591   5.817
 2881SOL     OW 8688   0.133   6.198   6.160
 2881SOL    HW1 8689   0.063   6.130   6.183
 2881SOL    HW2 8690   0.124   6.277   6.220
 2882SOL     OW 8691   1.690   6.503   6.228
 2882SOL    HW1 8692   1.776   6.456   6.210
 2882SOL    HW2 8693   1.666   6.559   6.148
 2883SOL     OW 8694   1.653   6.691   6.012
 2883SOL    HW1 8695   1.742   6.684   5.967
 2883SOL    HW2 8696   1.661   6.751   6.092
 2884SOL     OW 8697   0.818   5.596   6.095
 2884SOL    HW1 8698   0.863   5.682   6.072
 2884SOL    HW2 8699   0.719   5.612   6.103
 2885SOL     OW 8700   0.199   6.522   6.839
 2885SOL    HW1 8701   0.289   6.481   6.828
 2885SOL    HW2 8702   0.142   6.501   6.760
 2886SOL     OW 8703   1.536   6.588   5.788
 2886SOL    HW1 8704   1.462   6.527   5.817
 2886SOL    HW2 8705   1.583   6.624   5.868
 2887SOL     OW 8706   1.455   6.994   6.529
 2887SOL    HW1 8707   1.394   0.020   6.603
 2887SOL    HW2 8708   1.438   6.898   6.504
 2888SOL     OW 8709   0.589   6.299   5.853
 2888SOL    HW1 8710   0.597   6.387   5.807
 2888SOL    HW2 8711   0.525   6.308   5.930
 2889SOL     OW 8712   1.276   5.943   6.518
 2889SOL    HW1 8713   1.182   5.910   6.525
 2889SOL    HW2 8714   1.334   5.893   6.582
 2890SOL     OW 8715   0.797   6.185   0.052
 2890SOL    HW1 8716   0.735   6.235   0.112
 2890SOL    HW2 8717   0.743   6.134   6.984
 2891SOL     OW 8718   1.004   5.979   6.798
 2891SOL    HW1 8719   0.937   6.035   6.847
 2891SOL    HW2 8720   0.958   5.931   6.722
 2892SOL     OW 8721   1.049   6.285   6.010
 2892SOL    HW1 8722   1.072   6.281   6.107
 2892SOL    HW2 8723   0.963   6.238   5.993
 2893SOL     OW 8724   0.105   6.401   6.357
 2893SOL    HW1 8725   0.197   6.393   6.395
 2893SOL    HW2 8726   0.044   6.440   6.426
 2894SOL     OW 8727   0.896   5.938   5.783
 2894SOL    HW1 8728   0.937   6.005   5.721
 2894SOL    HW2 8729   0.901   5.847   5.742
 2895SOL     OW 8730   1.389   6.722   6.134
 2895SOL    HW1 8731   1.468   6.715   6.074
 2895SOL    HW2 8732   1.337   6.805   6.111
 2896SOL     OW 8733   0.551   5.759   6.483
 2896SOL    HW1 8734   0.564   5.789   6.577
 2896SOL    HW2 8735   0.554   5.838   6.422
 2897SOL     OW 8736   1.805   6.638   6.452
 2897SOL    HW1 8737   1.754   6.625   6.368
 2897SOL    HW2 8738   1.742   6.638   6.530
 2898SOL     OW 8739   0.317   6.527   5.841
 2898SOL    HW1 8740   0.403   6.553   5.797
 2898SOL    HW2 8741   0.284   6.440   5.804
 2899SOL     OW 8742   1.484   6.333   6.306
 2899SOL    HW1 8743   1.479   6.289   6.396
 2899SOL    HW2 8744   1.564   6.394   6.303
 2900SOL     OW 8745   1.640   6.970   5.672
 2900SOL    HW1 8746   1.607   0.063   5.690
 2900SOL    HW2 8747   1.562   6.909   5.657
 2901SOL     OW 8748   1.401   5.689   6.024
 2901SOL    HW1 8749   1.389   5.664   5.928
 2901SOL    HW2 8750   1.498   5.699   6.044
 2902SOL     OW 8751   0.403   6.267   6.059
 2902SOL    HW1 8752   0.430   6.173   6.081
 2902SOL    HW2 8753   0.305   6.279   6.078
 2903SOL     OW 8754   0.644   5.701   5.688
 2903SOL    HW1 8755   0.711   5.630   5.709
 2903SOL    HW2 8756   0.586   5.670   5.612
 2904SOL     OW 8757   0.928   6.092   6.484
 2904SOL    HW1 8758   0.901   6.085   6.388
 2904SOL    HW2 8759   0.965   6.004   6.514
 2905SOL     OW 8760   0.547   5.649   6.081
 2905SOL    HW1 8761   0.464   5.646   6.137
 2905SOL    HW2 8762   0.543   5.729   6.021
 2906SOL     OW 8763   1.418   6.788   5.646
 2906SOL    HW1 8764   1.472   6.718   5.693
 2906SOL    HW2 8765   1.325   6.754   5.630
 2907SOL     OW 8766   0.291   5.629   5.775
 2907SOL    HW1 8767   0.340   5.708   5.738
 2907SOL    HW2 8768   0.357   5.564   5.813
 2908SOL     OW 8769   0.947   5.837   6.042
 2908SOL    HW1 8770   0.916   5.878   5.956
 2908SOL    HW2 8771   1.045   5.851   6.052
 2909SOL     OW 8772   1.271   0.149   6.319
 2909SOL    HW1 8773   1.234   0.235   6.283
 2909SOL    HW2 8774   1.275   0.154   6.419
 2910SOL     OW 8775   0.465   6.709   6.323
 2910SOL    HW1 8776   0.396   6.701   6.395
 2910SOL    HW2 8777   0.420   6.712   6.234
 2911SOL     OW 8778   1.022   6.121   5.616
 2911SOL    HW1 8779   0.977   6.207   5.593
 2911SOL    HW2 8780   1.090   6.137   5.687
 2912SOL     OW 8781   0.582   5.806   6.752
 2912SOL    HW1 8782   0.627   5.723   6.785
 2912SOL    HW2 8783   0.486   5.804   6.780
 2913SOL     OW 8784   0.864   6.044   6.223
 2913SOL    HW1 8785   0.815   6.106   6.161
 2913SOL    HW2 8786   0.893   5.963   6.173
 2914SOL     OW 8787   1.019   5.635   6.326
 2914SOL    HW1 8788   0.956   5.636   6.248
 2914SOL    HW2 8789   0.993   5.561   6.388
 2915SOL     OW 8790   1.436   6.734   6.444
 2915SOL    HW1 8791   1.362   6.666   6.447
 2915SOL    HW2 8792   1.464   6.747   6.349
 2916SOL     OW 8793   1.467   6.190   6.549
 2916SOL    HW1 8794   1.404   6.113   6.554
 2916SOL    HW2 8795   1.529   6.188   6.627
 2917SOL     OW 8796   1.842   6.389   5.966
 2917SOL    HW1 8797   1.900   6.342   6.033
 2917SOL    HW2 8798   1.814   6.325   5.895
 2918SOL     OW 8799   1.683   6.833   6.232
 2918SOL    HW1 8800   1.781   6.845   6.250
 2918SOL    HW2 8801   1.634   6.918   6.253
 2919SOL     OW 8802   1.390   6.161   5.657
 2919SOL    HW1 8803   1.327   6.138   5.731
 2919SOL    HW2 8804   1.483   6.135   5.683
 2920SOL     OW 8805   0.531   5.847   5.895
 2920SOL    HW1 8806   0.579   5.792   5.826
 2920SOL    HW2 8807   0.502   5.934   5.855
 2921SOL     OW 8808   1.740   6.788   0.187
 2921SOL    HW1 8809   1.833   6.763   0.215
 2921SOL    HW2 8810   1.741   6.881   0.151
 2922SOL     OW 8811   1.064   6.901   6.930
 2922SOL    HW1 8812   0.973   6.880   6.964
 2922SOL    HW2 8813   1.130   6.895   0.004
 2923SOL     OW 8814   1.133   6.761   6.703
 2923SOL    HW1 8815   1.103   6.819   6.779
 2923SOL    HW2 8816   1.095   6.796   6.618
 2924SOL     OW 8817   1.621   6.661   6.646
 2924SOL    HW1 8818   1.618   6.724   6.724
 2924SOL    HW2 8819   1.545   6.682   6.585
 2925SOL     OW 8820   0.707   6.637   5.956
 2925SOL    HW1 8821   0.696   6.628   6.054
 2925SOL    HW2 8822   0.789   6.587   5.927
 2926SOL     OW 8823   0.440   6.390   6.847
 2926SOL    HW1 8824   0.492   6.417   6.929
 2926SOL    HW2 8825   0.399   6.300   6.862
 2927SOL     OW 8826   1.268   5.975   6.856
 2927SOL    HW1 8827   1.296   6.049   6.917
 2927SOL    HW2 8828   1.173   5.989   6.828
 2928SOL     OW 8829   0.058   0.139   6.960
 2928SOL    HW1 8830   6.964   0.161   6.986
 2928SOL    HW2 8831   0.112   0.123   0.042
 2929SOL     OW 8832   0.338   6.706   6.077
 2929SOL    HW1 8833   0.390   6.777   6.029
 2929SOL    HW2 8834   0.330   6.625   6.019
 2930SOL     OW 8835   0.545   6.132   6.451
 2930SOL    HW1 8836   0.559   6.190   6.371
 2930SOL    HW2 8837   0.617   6.149   6.518
 2931SOL     OW 8838   1.577   6.207   6.068
 2931SOL    HW1 8839   1.528   6.252   6.143
 2931SOL    HW2 8840   1.627   6.276   6.015
 2932SOL     OW 8841   0.590   6.452   6.621
 2932SOL    HW1 8842   0.614   6.548   6.609
 2932SOL    HW2 8843   0.533   6.442   6.703
 2933SOL     OW 8844   1.350   6.437   6.603
 2933SOL    HW1 8845   1.258   6.430   6.565
 2933SOL    HW2 8846   1.398   6.350   6.591
 2934SOL     OW 8847   1.196   6.113   5.850
 2934SOL    HW1 8848   1.210   6.030   5.904
 2934SOL    HW2 8849   1.152   6.183   5.906
 2935SOL     OW 8850   0.324   5.783   6.823
 2935SOL    HW1 8851   0.307   5.797   6.920
 2935SOL    HW2 8852   0.299   5.690   6.798
 2936SOL     OW 8853   0.083   6.890   6.852
 2936SOL    HW1 8854   0.121   6.826   6.919
 2936SOL    HW2 8855   0.071   6.980   6.895
 2937SOL     OW 8856   0.727   6.211   6.641
 2937SOL    HW1 8857   0.804   6.191   6.581
 2937SOL    HW2 8858   0.694   6.304   6.623
 2938SOL     OW 8859   0.302   5.647   6.209
 2938SOL    HW1 8860   0.281   5.743   6.227
 2938SOL    HW2 8861   0.314   5.598   6.296
 2939SOL     OW 8862   1.627   5.968   5.947
 2939SOL    HW1 8863   1.654   5.895   6.009
 2939SOL    HW2 8864   1.599   6.048   5.999
 2940SOL     OW 8865   1.023   6.340   6.550
 2940SOL    HW1 8866   1.021   6.360   6.648
 2940SOL    HW2 8867   0.998   6.245   6.535
 2941SOL     OW 8868   1.526   5.854   5.716
 2941SOL    HW1 8869   1.458   5.786   5.741
 2941SOL    HW2 8870   1.564   5.897   5.798
 2942SOL     OW 8871   1.286   6.410   5.608
 2942SOL    HW1 8872   1.328   6.319   5.619
 2942SOL    HW2 8873   1.318   6.450   5.522
 2943SOL     OW 8874   0.319   6.387   6.533
 2943SOL    HW1 8875   0.415   6.412   6.525
 2943SOL    HW2 8876   0.311   6.293   6.567
 2944SOL     OW 8877   0.327   6.109   6.604
 2944SOL    HW1 8878   0.289   6.019   6.587
 2944SOL    HW2 8879   0.409   6.122   6.548
 2945SOL     OW 8880   1.143   5.827   0.056
 2945SOL    HW1 8881   1.205   5.854   0.130
 2945SOL    HW2 8882   1.178   5.863   6.970
 2946SOL     OW 8883   6.980   6.915   5.792
 2946SOL    HW1 8884   6.912   6.929   5.863
 2946SOL    HW2 8885   0.036   6.835   5.815
 2947SOL     OW 8886   0.989   6.373   6.826
 2947SOL    HW1 8887   1.059   6.331   6.883
 2947SOL    HW2 8888   0.899   6.346   6.859
 2948SOL     OW 8889   0.059   6.196   6.691
 2948SOL    HW1 8890   0.124   6.152   6.630
 2948SOL    HW2 8891   0.053   6.144   6.776
 2949SOL     OW 8892   0.816   6.158   5.945
 2949SOL    HW1 8893   0.828   6.078   5.887
 2949SOL    HW2 8894   0.737   6.211   5.914
 2950SOL     OW 8895   1.648   6.194   6.751
 2950SOL    HW1 8896   1.633   6.136   6.831
 2950SOL    HW2 8897   1.743   6.185   6.721
 2951SOL     OW 8898   0.674   6.051   6.850
 2951SOL    HW1 8899   0.644   5.961   6.818
 2951SOL    HW2 8900   0.688   6.111   6.772
 2952SOL     OW 8901   0.452   6.072   5.768
 2952SOL    HW1 8902   0.509   6.153   5.786
 2952SOL    HW2 8903   0.367   6.080   5.819
 2953SOL     OW 8904   0.190   6.712   0.029
 2953SOL    HW1 8905   0.154   6.677   0.116
 2953SOL    HW2 8906   0.191   6.639   6.961
 2954SOL     OW 8907   1.315   6.600   6.820
 2954SOL    HW1 8908   1.350   6.539   6.749
 2954SOL    HW2 8909   1.247   6.661   6.781
 2955SOL     OW 8910   1.318   6.447   5.881
 2955SOL    HW1 8911   1.246   6.417   5.944
 2955SOL    HW2 8912   1.289   6.431   5.787
 2956SOL     OW 8913   0.072   6.832   6.593
 2956SOL    HW1 8914   0.079   6.851   6.691
 2956SOL    HW2 8915   6.976   6.828   6.567
 2957SOL     OW 8916   1.721   5.738   6.084
 2957SOL    HW1 8917   1.796   5.727   6.019
 2957SOL    HW2 8918   1.703   5.650   6.129
 2958SOL     OW 8919   1.282   6.509   6.255
 2958SOL    HW1 8920   1.356   6.443   6.272
 2958SOL    HW2 8921   1.317   6.586   6.203
 2959SOL     OW 8922   0.811   6.840   0.017
 2959SOL    HW1 8923   0.810   6.854   0.116
 2959SOL    HW2 8924   0.726   6.874   6.977
 2960SOL     OW 8925   1.842   5.758   6.558
 2960SOL    HW1 8926   1.876   5.667   6.534
 2960SOL    HW2 8927   1.751   5.771   6.518
 2961SOL     OW 8928   0.263   5.903   6.297
 2961SOL    HW1 8929   0.187   5.965   6.275
 2961SOL    HW2 8930   0.263   5.884   6.395
 2962SOL     OW 8931   1.250   0.210   5.597
 2962SOL    HW1 8932   1.255   0.141   5.669
 2962SOL    HW2 8933   1.158   0.210   5.558
 2963SOL     OW 8934   0.790   6.582   6.941
 2963SOL    HW1 8935   0.843   6.560   6.859
 2963SOL    HW2 8936   0.806   6.677   6.967
 2964SOL     OW 8937   0.920   6.495   5.865
 2964SOL    HW1 8938   0.986   6.537   5.803
 2964SOL    HW2 8939   0.966   6.426   5.921
 2965SOL     OW 8940   0.406   6.886   6.996
 2965SOL    HW1 8941   0.383   6.966   0.051
 2965SOL    HW2 8942   0.335   6.816   0.006
 2966SOL     OW 8943   1.618   6.827   6.856
 2966SOL    HW1 8944   1.701   6.846   6.909
 2966SOL    HW2 8945   1.541   6.815   6.918
 2967SOL     OW 8946   1.065   6.695   6.313
 2967SOL    HW1 8947   0.985   6.646   6.347
 2967SOL    HW2 8948   1.131   6.629   6.278
 2968SOL     OW 8949   1.021   5.823   6.541
 2968SOL    HW1 8950   1.019   5.775   6.454
 2968SOL    HW2 8951   1.022   5.756   6.616
 2969SOL     OW 8952   1.697   6.010   6.946
 2969SOL    HW1 8953   1.760   6.015   0.023
 2969SOL    HW2 8954   1.701   5.918   6.906
 2970SOL     OW 8955   0.676   5.773   0.077
 2970SOL    HW1 8956   0.769   5.746   0.056
 2970SOL    HW2 8957   0.677   5.856   0.133
 2971SOL     OW 8958   0.100   5.900   5.621
 2971SOL    HW1 8959   0.003   5.876   5.625
 2971SOL    HW2 8960   0.111   5.988   5.574
 2972SOL     OW 8961   0.074   5.775   5.926
 2972SOL    HW1 8962   0.018   5.760   5.845
 2972SOL    HW2 8963   0.154   5.714   5.923
 2973SOL     OW 8964   1.471   6.858   0.320
 2973SOL    HW1 8965   1.417   6.775   0.330
 2973SOL    HW2 8966   1.555   6.837   0.270
 2974SOL     OW 8967   1.699   6.460   6.826
 2974SOL    HW1 8968   1.666   6.370   6.800
 2974SOL    HW2 8969   1.665   6.528   6.761
 2975SOL     OW 8970   1.220   5.903   6.045
 2975SOL    HW1 8971   1.283   5.826   6.036
 2975SOL    HW2 8972   1.246   5.958   6.124
 2976SOL     OW 8973   0.585   6.324   6.258
 2976SOL    HW1 8974   0.628   6.414   6.248
 2976SOL    HW2 8975   0.519   6.311   6.184
 2977SOL     OW 8976   1.784   6.504   0.082
 2977SOL    HW1 8977   1.748   6.592   0.113
 2977SOL    HW2 8978   1.752   6.486   6.989
 2978SOL     OW 8979   0.869   6.551   6.444
 2978SOL    HW1 8980   0.921   6.474   6.479
 2978SOL    HW2 8981   0.832   6.605   6.520
 2979SOL     OW 8982   1.092   6.587   5.677
 2979SOL    HW1 8983   1.051   6.634   5.599
 2979SOL    HW2 8984   1.159   6.520   5.644
 2980SOL     OW 8985   0.173   6.860   6.247
 2980SOL    HW1 8986   0.111   6.812   6.309
 2980SOL    HW2 8987   0.216   6.795   6.185
 2981SOL     OW 8988   1.811   5.758   6.835
 2981SOL    HW1 8989   1.793   5.660   6.838
 2981SOL    HW2 8990   1.824   5.787   6.741
 2982SOL     OW 8991   0.455   6.013   6.123
 2982SOL    HW1 8992   0.481   5.944   6.055
 2982SOL    HW2 8993   0.397   5.971   6.192
 2983SOL     OW 8994   1.645   0.052   6.718
 2983SOL    HW1 8995   1.600   0.044   6.628
 2983SOL    HW2 8996   1.639   6.964   6.765
 2984SOL     OW 8997   0.320   6.128   6.884
 2984SOL    HW1 8998   0.392   6.072   6.924
 2984SOL    HW2 8999   0.323   6.120   6.784
 2985SOL     OW 9000   1.433   5.822   6.704
 2985SOL    HW1 9001   1.462   5.739   6.750
 2985SOL    HW2 9002   1.380   5.878   6.767
 2986SOL     OW 9003   1.017   5.603   6.710
 2986SOL    HW1 9004   0.954   5.538   6.669
 2986SOL    HW2 9005   1.107   5.560   6.721
 2987SOL     OW 9006   0.758   6.907   5.851
 2987SOL    HW1 9007   0.736   6.811   5.872
 2987SOL    HW2 9008   0.798   6.951   5.932
 2988SOL     OW 9009   1.355   5.635   5.757
 2988SOL    HW1 9010   1.398   5.567   5.697
 2988SOL    HW2 9011   1.262   5.607   5.779
 2989SOL     OW 9012   1.291   6.049   6.266
 2989SOL    HW1 9013   1.238   6.134   6.267
 2989SOL    HW2 9014   1.288   6.007   6.356
 2990SOL     OW 9015   1.587   5.791   6.473
 2990SOL    HW1 9016   1.527   5.810   6.550
 2990SOL    HW2 9017   1.588   5.869   6.410
 2991SOL     OW 9018   0.072   6.648   5.863
 2991SOL    HW1 9019   0.164   6.611   5.860
 2991SOL    HW2 9020   0.007   6.574   5.881
 2992SOL     OW 9021   2.080   0.645   0.137
 2992SOL    HW1 9022   1.986   0.623   0.163
 2992SOL    HW2 9023   2.093   0.626   0.040
 2993SOL     OW 9024   2.084   0.304   0.996
 2993SOL    HW1 9025   2.125   0.265   1.079
 2993SOL    HW2 9026   2.001   0.252   0.973
 2994SOL     OW 9027   1.867   0.392   0.629
 2994SOL    HW1 9028   1.782   0.418   0.676
 2994SOL    HW2 9029   1.849   0.316   0.567
 2995SOL     OW 9030   2.431   1.299   1.187
 2995SOL    HW1 9031   2.342   1.295   1.143
 2995SOL    HW2 9032   2.449   1.391   1.220
 2996SOL     OW 9033   3.428   1.514   0.709
 2996SOL    HW1 9034   3.386   1.488   0.796
 2996SOL    HW2 9035   3.357   1.517   0.638
 2997SOL     OW 9036   2.995   0.701   0.694
 2997SOL    HW1 9037   3.048   0.784   0.679
 2997SOL    HW2 9038   2.943   0.710   0.779
 2998SOL     OW 9039   3.648   0.582   0.199
 2998SOL    HW1 9040   3.583   0.635   0.145
 2998SOL    HW2 9041   3.599   0.515   0.254
 2999SOL     OW 9042   2.604   1.140   1.042
 2999SOL    HW1 9043   2.537   1.175   1.107
 2999SOL    HW2 9044   2.649   1.217   0.995
 3000SOL     OW 9045   2.735   0.764   1.821
 3000SOL    HW1 9046   2.724   0.832   1.893
 3000SOL    HW2 9047   2.760   0.809   1.735
 3001SOL     OW 9048   2.545   0.997   0.649
 3001SOL    HW1 9049   2.616   0.988   0.719
 3001SOL    HW2 9050   2.471   1.054   0.685
 3002SOL     OW 9051   2.573   1.153   1.819
 3002SOL    HW1 9052   2.626   1.231   1.852
 3002SOL    HW2 9053   2.489   1.185   1.776
 3003SOL     OW 9054   2.188   1.422   1.066
 3003SOL    HW1 9055   2.112   1.376   1.020
 3003SOL    HW2 9056   2.240   1.475   0.998
 3004SOL     OW 9057   3.319   1.502   1.359
 3004SOL    HW1 9058   3.377   1.583   1.366
 3004SOL    HW2 9059   3.248   1.506   1.429
 3005SOL     OW 9060   2.306   0.398   1.481
 3005SOL    HW1 9061   2.392   0.347   1.489
 3005SOL    HW2 9062   2.229   0.334   1.488
 3006SOL     OW 9063   3.478   0.460   0.733
 3006SOL    HW1 9064   3.418   0.487   0.657
 3006SOL    HW2 9065   3.483   0.535   0.799
 3007SOL     OW 9066   2.086   1.720   0.474
 3007SOL    HW1 9067   2.104   1.799   0.533
 3007SOL    HW2 9068   2.171   1.693   0.429
 3008SOL     OW 9069   2.999   1.340   1.698
 3008SOL    HW1 9070   3.046   1.337   1.786
 3008SOL    HW2 9071   2.943   1.258   1.688
 3009SOL     OW 9072   2.084   1.446   0.540
 3009SOL    HW1 9073   2.068   1.544   0.547
 3009SOL    HW2 9074   2.027   1.398   0.606
 3010SOL     OW 9075   2.132   1.091   0.900
 3010SOL    HW1 9076   2.128   0.996   0.932
 3010SOL    HW2 9077   2.069   1.147   0.954
 3011SOL     OW 9078   2.459   1.797   1.426
 3011SOL    HW1 9079   2.376   1.773   1.476
 3011SOL    HW2 9080   2.491   1.888   1.455
 3012SOL     OW 9081   2.449   0.966   0.148
 3012SOL    HW1 9082   2.507   0.987   0.069
 3012SOL    HW2 9083   2.485   1.011   0.230
 3013SOL     OW 9084   3.440   0.133   1.446
 3013SOL    HW1 9085   3.455   0.227   1.415
 3013SOL    HW2 9086   3.462   0.125   1.543
 3014SOL     OW 9087   1.978   0.655   0.562
 3014SOL    HW1 9088   1.950   0.561   0.582
 3014SOL    HW2 9089   1.972   0.709   0.646
 3015SOL     OW 9090   3.700   1.762   0.347
 3015SOL    HW1 9091   3.772   1.733   0.410
 3015SOL    HW2 9092   3.704   1.862   0.336
 3016SOL     OW 9093   3.554   0.915   0.651
 3016SOL    HW1 9094   3.637   0.863   0.633
 3016SOL    HW2 9095   3.532   0.972   0.572
 3017SOL     OW 9096   3.518   1.096   0.446
 3017SOL    HW1 9097   3.586   1.115   0.375
 3017SOL    HW2 9098   3.524   1.165   0.518
 3018SOL     OW 9099   1.984   0.749   1.582
 3018SOL    HW1 9100   2.080   0.778   1.584
 3018SOL    HW2 9101   1.925   0.830   1.581
 3019SOL     OW 9102   2.475   1.389   0.738
 3019SOL    HW1 9103   2.428   1.301   0.751
 3019SOL    HW2 9104   2.466   1.418   0.643
 3020SOL     OW 9105   3.150   1.234   1.422
 3020SOL    HW1 9106   3.176   1.164   1.356
 3020SOL    HW2 9107   3.210   1.230   1.501
 3021SOL     OW 9108   2.684   0.031   0.522
 3021SOL    HW1 9109   2.725   0.119   0.502
 3021SOL    HW2 9110   2.584   0.040   0.523
 3022SOL     OW 9111   2.052   0.961   1.279
 3022SOL    HW1 9112   2.141   0.918   1.264
 3022SOL    HW2 9113   1.984   0.917   1.220
 3023SOL     OW 9114   3.351   1.023   0.215
 3023SOL    HW1 9115   3.283   0.958   0.248
 3023SOL    HW2 9116   3.440   1.004   0.256
 3024SOL     OW 9117   3.043   1.812   1.623
 3024SOL    HW1 9118   3.051   1.881   1.550
 3024SOL    HW2 9119   3.063   1.722   1.585
 3025SOL     OW 9120   2.183   0.270   1.790
 3025SOL    HW1 9121   2.246   0.336   1.831
 3025SOL    HW2 9122   2.096   0.272   1.839
 3026SOL     OW 9123   3.326   1.421   0.946
 3026SOL    HW1 9124   3.260   1.439   1.019
 3026SOL    HW2 9125   3.319   1.325   0.918
 3027SOL     OW 9126   3.504   1.755   0.583
 3027SOL    HW1 9127   3.485   1.727   0.488
 3027SOL    HW2 9128   3.489   1.677   0.644
 3028SOL     OW 9129   2.459   0.715   0.267
 3028SOL    HW1 9130   2.464   0.806   0.225
 3028SOL    HW2 9131   2.393   0.717   0.342
 3029SOL     OW 9132   3.145   0.368   0.949
 3029SOL    HW1 9133   3.048   0.344   0.952
 3029SOL    HW2 9134   3.194   0.317   1.019
 3030SOL     OW 9135   3.438   1.678   0.317
 3030SOL    HW1 9136   3.534   1.707   0.315
 3030SOL    HW2 9137   3.404   1.669   0.223
 3031SOL     OW 9138   2.655   0.616   1.455
 3031SOL    HW1 9139   2.628   0.589   1.547
 3031SOL    HW2 9140   2.617   0.550   1.389
 3032SOL     OW 9141   3.256   0.474   1.681
 3032SOL    HW1 9142   3.255   0.520   1.769
 3032SOL    HW2 9143   3.312   0.392   1.687
 3033SOL     OW 9144   2.815   0.885   1.584
 3033SOL    HW1 9145   2.873   0.814   1.545
 3033SOL    HW2 9146   2.760   0.927   1.511
 3034SOL     OW 9147   2.857   0.411   1.226
 3034SOL    HW1 9148   2.770   0.434   1.270
 3034SOL    HW2 9149   2.840   0.362   1.141
 3035SOL     OW 9150   2.916   0.700   0.427
 3035SOL    HW1 9151   2.939   0.697   0.524
 3035SOL    HW2 9152   2.828   0.655   0.412
 3036SOL     OW 9153   1.952   0.824   0.779
 3036SOL    HW1 9154   2.037   0.814   0.830
 3036SOL    HW2 9155   1.901   0.903   0.814
 3037SOL     OW 9156   1.990   1.874   1.588
 3037SOL    HW1 9157   1.995   1.846   1.684
 3037SOL    HW2 9158   1.906   1.839   1.548
 3038SOL     OW 9159   2.747   0.370   0.210
 3038SOL    HW1 9160   2.789   0.425   0.138
 3038SOL    HW2 9161   2.733   0.277   0.178
 3039SOL     OW 9162   3.562   0.572   1.825
 3039SOL    HW1 9163   3.527   0.652   1.776
 3039SOL    HW2 9164   3.590   0.502   1.759
 3040SOL     OW 9165   3.246   1.141   0.549
 3040SOL    HW1 9166   3.329   1.128   0.495
 3040SOL    HW2 9167   3.186   1.207   0.503
 3041SOL     OW 9168   2.365   0.190   0.912
 3041SOL    HW1 9169   2.404   0.220   0.999
 3041SOL    HW2 9170   2.390   0.255   0.840
 3042SOL     OW 9171   2.853   1.438   0.469
 3042SOL    HW1 9172   2.822   1.520   0.420
 3042SOL    HW2 9173   2.834   1.448   0.566
 3043SOL     OW 9174   2.218   1.814   0.870
 3043SOL    HW1 9175   2.261   1.724   0.876
 3043SOL    HW2 9176   2.285   1.885   0.890
 3044SOL     OW 9177   3.662   1.053   0.875
 3044SOL    HW1 9178   3.611   1.032   0.791
 3044SOL    HW2 9179   3.598   1.060   0.951
 3045SOL     OW 9180   3.088   1.536   1.514
 3045SOL    HW1 9181   3.076   1.462   1.581
 3045SOL    HW2 9182   3.020   1.527   1.441
 3046SOL     OW 9183   2.176   0.956   0.230
 3046SOL    HW1 9184   2.269   0.970   0.195
 3046SOL    HW2 9185   2.146   0.863   0.209
 3047SOL     OW 9186   3.346   0.749   0.724
 3047SOL    HW1 9187   3.341   0.707   0.815
 3047SOL    HW2 9188   3.425   0.809   0.719
 3048SOL     OW 9189   2.331   1.266   1.731
 3048SOL    HW1 9190   2.305   1.272   1.634
 3048SOL    HW2 9191   2.249   1.263   1.787
 3049SOL     OW 9192   2.982   1.766   0.242
 3049SOL    HW1 9193   2.909   1.720   0.293
 3049SOL    HW2 9194   3.020   1.702   0.174
 3050SOL     OW 9195   2.054   0.272   1.513
 3050SOL    HW1 9196   1.996   0.352   1.498
 3050SOL    HW2 9197   2.078   0.266   1.610
 3051SOL     OW 9198   3.509   1.431   0.106
 3051SOL    HW1 9199   3.459   1.511   0.071
 3051SOL    HW2 9200   3.448   1.377   0.164
 3052SOL     OW 9201   2.350   1.697   0.383
 3052SOL    HW1 9202   2.377   1.784   0.425
 3052SOL    HW2 9203   2.406   1.681   0.301
 3053SOL     OW 9204   3.289   0.134   0.425
 3053SOL    HW1 9205   3.275   0.061   0.358
 3053SOL    HW2 9206   3.387   0.144   0.443
 3054SOL     OW 9207   2.121   1.791   1.225
 3054SOL    HW1 9208   2.171   1.718   1.271
 3054SOL    HW2 9209   2.101   1.764   1.131
 3055SOL     OW 9210   2.798   1.703   0.896
 3055SOL    HW1 9211   2.880   1.655   0.928
 3055SOL    HW2 9212   2.756   1.650   0.823
 3056SOL     OW 9213   2.260   0.685   0.469
 3056SOL    HW1 9214   2.279   0.588   0.487
 3056SOL    HW2 9215   2.164   0.704   0.488
 3057SOL     OW 9216   3.389   0.230   1.727
 3057SOL    HW1 9217   3.405   0.234   1.825
 3057SOL    HW2 9218   3.302   0.184   1.709
 3058SOL     OW 9219   2.484   0.123   0.103
 3058SOL    HW1 9220   2.583   0.111   0.115
 3058SOL    HW2 9221   2.464   0.145   0.008
 3059SOL     OW 9222   2.624   0.277   1.767
 3059SOL    HW1 9223   2.713   0.232   1.759
 3059SOL    HW2 9224   2.571   0.232   1.839
 3060SOL     OW 9225   2.736   1.515   1.193
 3060SOL    HW1 9226   2.717   1.478   1.102
 3060SOL    HW2 9227   2.809   1.461   1.235
 3061SOL     OW 9228   3.204   0.591   1.437
 3061SOL    HW1 9229   3.233   0.556   1.526
 3061SOL    HW2 9230   3.238   0.684   1.424
 3062SOL     OW 9231   2.682   1.389   0.943
 3062SOL    HW1 9232   2.771   1.377   0.900
 3062SOL    HW2 9233   2.611   1.394   0.872
 3063SOL     OW 9234   2.789   0.510   0.895
 3063SOL    HW1 9235   2.761   0.504   0.800
 3063SOL    HW2 9236   2.822   0.421   0.926
 3064SOL     OW 9237   2.416   0.066   0.495
 3064SOL    HW1 9238   2.335   0.056   0.553
 3064SOL    HW2 9239   2.402   0.142   0.431
 3065SOL     OW 9240   3.280   1.212   0.011
 3065SOL    HW1 9241   3.311   1.133   0.064
 3065SOL    HW2 9242   3.199   1.252   0.053
 3066SOL     OW 9243   2.179   0.070   0.198
 3066SOL    HW1 9244   2.228   0.157   0.208
 3066SOL    HW2 9245   2.211   0.006   0.269
 3067SOL     OW 9246   2.813   0.265   0.458
 3067SOL    HW1 9247   2.781   0.305   0.372
 3067SOL    HW2 9248   2.912   0.272   0.463
 3068SOL     OW 9249   2.942   0.685   1.453
 3068SOL    HW1 9250   2.868   0.619   1.465
 3068SOL    HW2 9251   3.030   0.636   1.453
 3069SOL     OW 9252   3.080   1.567   0.796
 3069SOL    HW1 9253   3.093   1.637   0.726
 3069SOL    HW2 9254   3.153   1.574   0.864
 3070SOL     OW 9255   2.333   1.152   0.730
 3070SOL    HW1 9256   2.263   1.131   0.798
 3070SOL    HW2 9257   2.294   1.145   0.638
 3071SOL     OW 9258   3.117   1.784   0.612
 3071SOL    HW1 9259   3.175   1.848   0.561
 3071SOL    HW2 9260   3.043   1.834   0.657
 3072SOL     OW 9261   2.918   0.563   0.034
 3072SOL    HW1 9262   2.829   0.606   0.049
 3072SOL    HW2 9263   2.972   0.566   0.118
 3073SOL     OW 9264   1.954   0.551   1.398
 3073SOL    HW1 9265   2.047   0.552   1.361
 3073SOL    HW2 9266   1.944   0.626   1.464
 3074SOL     OW 9267   2.432   0.242   1.176
 3074SOL    HW1 9268   2.485   0.171   1.223
 3074SOL    HW2 9269   2.337   0.237   1.205
 3075SOL     OW 9270   2.728   0.463   0.637
 3075SOL    HW1 9271   2.682   0.525   0.573
 3075SOL    HW2 9272   2.756   0.380   0.589
 3076SOL     OW 9273   2.819   0.027   0.770
 3076SOL    HW1 9274   2.762   0.028   0.689
 3076SOL    HW2 9275   2.892   6.959   0.759
 3077SOL     OW 9276   3.309   1.161   0.860
 3077SOL    HW1 9277   3.233   1.096   0.862
 3077SOL    HW2 9278   3.341   1.170   0.766
 3078SOL     OW 9279   3.328   0.610   0.970
 3078SOL    HW1 9280   3.267   0.531   0.971
 3078SOL    HW2 9281   3.391   0.604   1.048
 3079SOL     OW 9282   3.688   0.804   0.392
 3079SOL    HW1 9283   3.750   0.745   0.444
 3079SOL    HW2 9284   3.683   0.772   0.297
 3080SOL     OW 9285   2.328   1.432   0.153
 3080SOL    HW1 9286   2.267   1.387   0.218
 3080SOL    HW2 9287   2.309   1.397   0.061
 3081SOL     OW 9288   3.536   1.266   0.652
 3081SOL    HW1 9289   3.635   1.263   0.661
 3081SOL    HW2 9290   3.503   1.359   0.667
 3082SOL     OW 9291   3.251   0.555   0.065
 3082SOL    HW1 9292   3.196   0.547   0.148
 3082SOL    HW2 9293   3.325   0.487   0.067
 3083SOL     OW 9294   2.371   0.262   0.304
 3083SOL    HW1 9295   2.424   0.208   0.239
 3083SOL    HW2 9296   2.352   0.352   0.265
 3084SOL     OW 9297   3.614   1.241   1.559
 3084SOL    HW1 9298   3.704   1.199   1.545
 3084SOL    HW2 9299   3.626   1.334   1.593
 3085SOL     OW 9300   2.915   1.350   1.336
 3085SOL    HW1 9301   2.833   1.320   1.386
 3085SOL    HW2 9302   2.996   1.310   1.378
 3086SOL     OW 9303   3.476   1.630   1.657
 3086SOL    HW1 9304   3.460   1.665   1.565
 3086SOL    HW2 9305   3.561   1.578   1.659
 3087SOL     OW 9306   3.000   1.222   1.105
 3087SOL    HW1 9307   2.940   1.255   1.177
 3087SOL    HW2 9308   2.966   1.252   1.016
 3088SOL     OW 9309   3.485   1.096   1.080
 3088SOL    HW1 9310   3.480   1.162   1.155
 3088SOL    HW2 9311   3.410   1.114   1.015
 3089SOL     OW 9312   2.755   0.151   1.387
 3089SOL    HW1 9313   2.772   0.118   1.294
 3089SOL    HW2 9314   2.842   0.178   1.429
 3090SOL     OW 9315   2.841   1.115   1.721
 3090SOL    HW1 9316   2.747   1.134   1.748
 3090SOL    HW2 9317   2.843   1.032   1.665
 3091SOL     OW 9318   2.576   1.058   0.375
 3091SOL    HW1 9319   2.557   1.041   0.472
 3091SOL    HW2 9320   2.656   1.005   0.348
 3092SOL     OW 9321   2.286   0.817   1.254
 3092SOL    HW1 9322   2.359   0.829   1.321
 3092SOL    HW2 9323   2.246   0.726   1.263
 3093SOL     OW 9324   3.122   0.378   1.287
 3093SOL    HW1 9325   3.159   0.457   1.336
 3093SOL    HW2 9326   3.027   0.396   1.261
 3094SOL     OW 9327   1.937   1.572   1.354
 3094SOL    HW1 9328   1.901   1.641   1.291
 3094SOL    HW2 9329   2.037   1.570   1.347
 3095SOL     OW 9330   2.225   1.122   0.481
 3095SOL    HW1 9331   2.200   1.197   0.421
 3095SOL    HW2 9332   2.223   1.036   0.430
 3096SOL     OW 9333   2.415   0.546   0.860
 3096SOL    HW1 9334   2.429   0.605   0.781
 3096SOL    HW2 9335   2.484   0.565   0.929
 3097SOL     OW 9336   3.107   1.346   0.406
 3097SOL    HW1 9337   3.163   1.422   0.438
 3097SOL    HW2 9338   3.012   1.362   0.432
 3098SOL     OW 9339   3.151   1.462   1.147
 3098SOL    HW1 9340   3.209   1.468   1.229
 3098SOL    HW2 9341   3.097   1.378   1.151
 3099SOL     OW 9342   3.445   0.633   0.485
 3099SOL    HW1 9343   3.389   0.681   0.553
 3099SOL    HW2 9344   3.507   0.698   0.441
 3100SOL     OW 9345   2.210   1.530   1.309
 3100SOL    HW1 9346   2.194   1.485   1.221
 3100SOL    HW2 9347   2.308   1.544   1.321
 3101SOL     OW 9348   2.281   0.744   1.602
 3101SOL    HW1 9349   2.344   0.793   1.541
 3101SOL    HW2 9350   2.320   0.655   1.625
 3102SOL     OW 9351   3.471   0.786   1.686
 3102SOL    HW1 9352   3.380   0.827   1.683
 3102SOL    HW2 9353   3.528   0.826   1.614
 3103SOL     OW 9354   2.860   0.137   1.733
 3103SOL    HW1 9355   2.904   0.179   1.654
 3103SOL    HW2 9356   2.860   0.037   1.722
 3104SOL     OW 9357   2.325   0.037   1.759
 3104SOL    HW1 9358   2.257   6.964   1.745
 3104SOL    HW2 9359   2.278   0.125   1.767
 3105SOL     OW 9360   2.446   0.873   1.033
 3105SOL    HW1 9361   2.482   0.967   1.031
 3105SOL    HW2 9362   2.386   0.862   1.113
 3106SOL     OW 9363   3.211   0.858   1.023
 3106SOL    HW1 9364   3.120   0.849   0.982
 3106SOL    HW2 9365   3.260   0.771   1.015
 3107SOL     OW 9366   3.060   0.522   0.272
 3107SOL    HW1 9367   3.078   0.443   0.330
 3107SOL    HW2 9368   3.018   0.595   0.326
 3108SOL     OW 9369   2.171   0.208   1.246
 3108SOL    HW1 9370   2.107   0.216   1.323
 3108SOL    HW2 9371   2.161   0.117   1.205
 3109SOL     OW 9372   1.915   1.310   1.275
 3109SOL    HW1 9373   1.946   1.248   1.347
 3109SOL    HW2 9374   1.917   1.404   1.308
 3110SOL     OW 9375   2.590   0.636   1.054
 3110SOL    HW1 9376   2.665   0.616   0.991
 3110SOL    HW2 9377   2.553   0.727   1.033
 3111SOL     OW 9378   3.599   0.961   1.857
 3111SOL    HW1 9379   3.556   0.892   1.799
 3111SOL    HW2 9380   3.539   0.981   1.935
 3112SOL     OW 9381   2.180   0.060   0.627
 3112SOL    HW1 9382   2.159   0.153   0.656
 3112SOL    HW2 9383   2.129   6.995   0.683
 3113SOL     OW 9384   3.490   0.400   0.352
 3113SOL    HW1 9385   3.521   0.324   0.410
 3113SOL    HW2 9386   3.464   0.477   0.410
 3114SOL     OW 9387   2.887   0.756   0.958
 3114SOL    HW1 9388   2.881   0.778   1.055
 3114SOL    HW2 9389   2.859   0.661   0.943
 3115SOL     OW 9390   2.843   1.563   1.718
 3115SOL    HW1 9391   2.826   1.610   1.632
 3115SOL    HW2 9392   2.891   1.477   1.700
 3116SOL     OW 9393   3.716   1.503   1.603
 3116SOL    HW1 9394   3.735   1.529   1.509
 3116SOL    HW2 9395   3.799   1.514   1.658
 3117SOL     OW 9396   2.215   0.918   1.804
 3117SOL    HW1 9397   2.294   0.940   1.861
 3117SOL    HW2 9398   2.242   0.852   1.734
 3118SOL     OW 9399   3.383   0.269   0.138
 3118SOL    HW1 9400   3.312   0.202   0.159
 3118SOL    HW2 9401   3.414   0.313   0.222
 3119SOL     OW 9402   3.153   0.820   0.033
 3119SOL    HW1 9403   3.201   0.733   0.023
 3119SOL    HW2 9404   3.178   0.881   6.957
 3120SOL     OW 9405   2.931   1.337   0.855
 3120SOL    HW1 9406   2.936   1.259   0.793
 3120SOL    HW2 9407   2.990   1.411   0.822
 3121SOL     OW 9408   2.174   0.809   0.942
 3121SOL    HW1 9409   2.270   0.836   0.937
 3121SOL    HW2 9410   2.167   0.715   0.974
 3122SOL     OW 9411   2.197   0.540   1.011
 3122SOL    HW1 9412   2.154   0.450   1.000
 3122SOL    HW2 9413   2.278   0.546   0.953
 3123SOL     OW 9414   2.987   0.414   1.672
 3123SOL    HW1 9415   2.939   0.455   1.750
 3123SOL    HW2 9416   3.085   0.435   1.680
 3124SOL     OW 9417   2.995   0.225   1.488
 3124SOL    HW1 9418   2.995   0.301   1.553
 3124SOL    HW2 9419   3.053   0.249   1.409
 3125SOL     OW 9420   1.956   1.783   0.944
 3125SOL    HW1 9421   1.918   1.702   0.898
 3125SOL    HW2 9422   2.049   1.799   0.911
 3126SOL     OW 9423   2.354   1.576   0.904
 3126SOL    HW1 9424   2.425   1.642   0.931
 3126SOL    HW2 9425   2.394   1.508   0.843
 3127SOL     OW 9426   2.835   0.794   1.223
 3127SOL    HW1 9427   2.895   0.769   1.300
 3127SOL    HW2 9428   2.746   0.751   1.235
 3128SOL     OW 9429   1.898   0.550   1.121
 3128SOL    HW1 9430   1.975   0.534   1.060
 3128SOL    HW2 9431   1.929   0.551   1.216
 3129SOL     OW 9432   2.047   0.531   1.730
 3129SOL    HW1 9433   2.126   0.498   1.679
 3129SOL    HW2 9434   2.007   0.610   1.683
 3130SOL     OW 9435   3.243   0.935   1.654
 3130SOL    HW1 9436   3.266   1.032   1.655
 3130SOL    HW2 9437   3.239   0.902   1.560
 3131SOL     OW 9438   2.678   0.579   0.375
 3131SOL    HW1 9439   2.690   0.500   0.316
 3131SOL    HW2 9440   2.598   0.631   0.346
 3132SOL     OW 9441   3.504   0.605   1.180
 3132SOL    HW1 9442   3.485   0.545   1.257
 3132SOL    HW2 9443   3.595   0.586   1.144
 3133SOL     OW 9444   2.101   1.546   1.725
 3133SOL    HW1 9445   2.080   1.621   1.789
 3133SOL    HW2 9446   2.108   1.460   1.776
 3134SOL     OW 9447   2.573   0.460   1.254
 3134SOL    HW1 9448   2.516   0.382   1.229
 3134SOL    HW2 9449   2.572   0.527   1.180
 3135SOL     OW 9450   2.781   1.681   1.473
 3135SOL    HW1 9451   2.755   1.634   1.388
 3135SOL    HW2 9452   2.781   1.780   1.457
 3136SOL     OW 9453   2.314   0.499   0.182
 3136SOL    HW1 9454   2.380   0.569   0.209
 3136SOL    HW2 9455   2.221   0.538   0.183
 3137SOL     OW 9456   2.003   1.138   1.476
 3137SOL    HW1 9457   2.005   1.094   1.566
 3137SOL    HW2 9458   2.023   1.070   1.406
 3138SOL     OW 9459   3.176   1.043   1.218
 3138SOL    HW1 9460   3.204   0.976   1.150
 3138SOL    HW2 9461   3.110   1.107   1.178
 3139SOL     OW 9462   3.162   0.847   0.306
 3139SOL    HW1 9463   3.082   0.815   0.356
 3139SOL    HW2 9464   3.151   0.825   0.209
 3140SOL     OW 9465   3.644   1.728   1.158
 3140SOL    HW1 9466   3.705   1.762   1.087
 3140SOL    HW2 9467   3.611   1.637   1.133
 3141SOL     OW 9468   3.103   1.733   1.103
 3141SOL    HW1 9469   3.189   1.762   1.062
 3141SOL    HW2 9470   3.109   1.636   1.128
 3142SOL     OW 9471   1.948   1.266   1.010
 3142SOL    HW1 9472   1.932   1.280   1.107
 3142SOL    HW2 9473   1.877   1.206   0.972
 3143SOL     OW 9474   2.543   1.674   1.738
 3143SOL    HW1 9475   2.480   1.752   1.732
 3143SOL    HW2 9476   2.617   1.687   1.671
 3144SOL     OW 9477   2.753   0.111   0.131
 3144SOL    HW1 9478   2.843   0.137   0.095
 3144SOL    HW2 9479   2.762   0.032   0.190
 3145SOL     OW 9480   3.580   0.177   0.481
 3145SOL    HW1 9481   3.657   0.149   0.424
 3145SOL    HW2 9482   3.566   0.110   0.554
 3146SOL     OW 9483   3.252   1.562   0.492
 3146SOL    HW1 9484   3.317   1.594   0.422
 3146SOL    HW2 9485   3.197   1.640   0.524
 3147SOL     OW 9486   2.008   1.787   1.846
 3147SOL    HW1 9487   1.951   1.718   1.891
 3147SOL    HW2 9488   2.057   1.840   1.915
 3148SOL     OW 9489   3.144   0.925   0.670
 3148SOL    HW1 9490   3.219   0.860   0.686
 3148SOL    HW2 9491   3.179   1.003   0.618
 3149SOL     OW 9492   2.664   1.279   1.425
 3149SOL    HW1 9493   2.635   1.323   1.510
 3149SOL    HW2 9494   2.594   1.293   1.355
 3150SOL     OW 9495   2.536   1.606   0.191
 3150SOL    HW1 9496   2.540   1.656   0.105
 3150SOL    HW2 9497   2.476   1.527   0.180
 3151SOL     OW 9498   3.478   1.729   1.387
 3151SOL    HW1 9499   3.536   1.729   1.306
 3151SOL    HW2 9500   3.464   1.823   1.418
 3152SOL     OW 9501   3.729   0.160   0.956
 3152SOL    HW1 9502   3.727   0.060   0.949
 3152SOL    HW2 9503   3.638   0.196   0.939
 3153SOL     OW 9504   2.120   0.313   0.714
 3153SOL    HW1 9505   2.030   0.347   0.687
 3153SOL    HW2 9506   2.127   0.312   0.814
 3154SOL     OW 9507   3.081   1.598   0.041
 3154SOL    HW1 9508   3.075   1.503   0.071
 3154SOL    HW2 9509   2.996   1.625   6.996
 3155SOL     OW 9510   2.685   1.010   1.379
 3155SOL    HW1 9511   2.736   0.993   1.294
 3155SOL    HW2 9512   2.682   1.108   1.397
 3156SOL     OW 9513   2.786   0.914   0.293
 3156SOL    HW1 9514   2.841   0.943   0.215
 3156SOL    HW2 9515   2.835   0.842   0.343
 3157SOL     OW 9516   3.349   1.655   0.042
 3157SOL    HW1 9517   3.252   1.633   0.041
 3157SOL    HW2 9518   3.380   1.671   6.948
 3158SOL     OW 9519   2.227   1.303   1.487
 3158SOL    HW1 9520   2.217   1.384   1.428
 3158SOL    HW2 9521   2.147   1.244   1.476
 3159SOL     OW 9522   3.474   1.285   1.284
 3159SOL    HW1 9523   3.538   1.265   1.359
 3159SOL    HW2 9524   3.409   1.354   1.314
 3160SOL     OW 9525   2.925   1.106   0.715
 3160SOL    HW1 9526   2.848   1.057   0.755
 3160SOL    HW2 9527   2.993   1.040   0.683
 3161SOL     OW 9528   2.886   0.249   0.952
 3161SOL    HW1 9529   2.864   0.202   0.866
 3161SOL    HW2 9530   2.877   0.186   1.028
 3162SOL     OW 9531   2.477   1.476   0.486
 3162SOL    HW1 9532   2.515   1.424   0.409
 3162SOL    HW2 9533   2.416   1.547   0.451
 3163SOL     OW 9534   3.596   0.392   1.376
 3163SOL    HW1 9535   3.665   0.464   1.381
 3163SOL    HW2 9536   3.632   0.314   1.324
 3164SOL     OW 9537   2.132   1.326   0.308
 3164SOL    HW1 9538   2.053   1.345   0.250
 3164SOL    HW2 9539   2.120   1.371   0.396
 3165SOL     OW 9540   1.977   1.037   1.730
 3165SOL    HW1 9541   1.895   1.008   1.780
 3165SOL    HW2 9542   2.057   0.990   1.767
 3166SOL     OW 9543   2.532   0.239   1.509
 3166SOL    HW1 9544   2.612   0.214   1.456
 3166SOL    HW2 9545   2.560   0.271   1.600
 3167SOL     OW 9546   1.975   0.338   0.033
 3167SOL    HW1 9547   1.920   0.281   6.973
 3167SOL    HW2 9548   2.015   0.413   6.981
 3168SOL     OW 9549   3.285   0.857   1.395
 3168SOL    HW1 9550   3.229   0.920   1.341
 3168SOL    HW2 9551   3.379   0.858   1.360
 3169SOL     OW 9552   1.932   0.168   0.304
 3169SOL    HW1 9553   1.920   0.250   0.250
 3169SOL    HW2 9554   2.013   0.118   0.272
 3170SOL     OW 9555   3.048   1.344   0.128
 3170SOL    HW1 9556   2.950   1.329   0.110
 3170SOL    HW2 9557   3.066   1.334   0.225
 3171SOL     OW 9558   2.486   0.830   1.434
 3171SOL    HW1 9559   2.543   0.911   1.419
 3171SOL    HW2 9560   2.545   0.750   1.445
 3172SOL     OW 9561   3.348   1.791   0.988
 3172SOL    HW1 9562   3.372   1.856   0.916
 3172SOL    HW2 9563   3.431   1.752   1.027
 3173SOL     OW 9564   2.582   0.557   1.706
 3173SOL    HW1 9565   2.628   0.627   1.761
 3173SOL    HW2 9566   2.602   0.467   1.745
 3174SOL     OW 9567   3.336   1.196   1.634
 3174SOL    HW1 9568   3.321   1.209   1.732
 3174SOL    HW2 9569   3.432   1.215   1.612
 3175SOL     OW 9570   2.232   1.738   1.567
 3175SOL    HW1 9571   2.148   1.791   1.552
 3175SOL    HW2 9572   2.209   1.651   1.609
 3176SOL     OW 9573   3.527   0.878   1.256
 3176SOL    HW1 9574   3.522   0.787   1.214
 3176SOL    HW2 9575   3.514   0.948   1.185
 3177SOL     OW 9576   3.087   0.317   0.454
 3177SOL    HW1 9577   3.158   0.246   0.443
 3177SOL    HW2 9578   3.107   0.371   0.535
 3178SOL     OW 9579   2.450   0.736   0.665
 3178SOL    HW1 9580   2.490   0.828   0.657
 3178SOL    HW2 9581   2.380   0.723   0.596
 3179SOL     OW 9582   3.610   0.369   1.648
 3179SOL    HW1 9583   3.602   0.384   1.550
 3179SOL    HW2 9584   3.537   0.308   1.679
 3180SOL     OW 9585   3.615   0.932   1.509
 3180SOL    HW1 9586   3.602   1.029   1.531
 3180SOL    HW2 9587   3.593   0.916   1.413
 3181SOL     OW 9588   2.767   1.383   0.055
 3181SOL    HW1 9589   2.707   1.359   0.131
 3181SOL    HW2 9590   2.769   1.483   0.046
 3182SOL     OW 9591   2.527   1.784   0.941
 3182SOL    HW1 9592   2.504   1.879   0.920
 3182SOL    HW2 9593   2.626   1.770   0.930
 3183SOL     OW 9594   2.732   0.971   0.857
 3183SOL    HW1 9595   2.783   0.894   0.893
 3183SOL    HW2 9596   2.688   1.021   0.932
 3184SOL     OW 9597   2.942   0.983   0.079
 3184SOL    HW1 9598   2.942   1.042   6.998
 3184SOL    HW2 9599   3.021   0.922   0.076
 3185SOL     OW 9600   3.707   1.557   0.846
 3185SOL    HW1 9601   3.629   1.543   0.785
 3185SOL    HW2 9602   3.708   1.485   0.915
 3186SOL     OW 9603   2.094   1.298   1.856
 3186SOL    HW1 9604   2.029   1.230   1.821
 3186SOL    HW2 9605   2.078   1.311   1.954
 3187SOL     OW 9606   1.944   1.234   0.664
 3187SOL    HW1 9607   1.965   1.184   0.748
 3187SOL    HW2 9608   1.988   1.189   0.586
 3188SOL     OW 9609   2.545   1.410   1.634
 3188SOL    HW1 9610   2.464   1.360   1.666
 3188SOL    HW2 9611   2.544   1.503   1.671
 3189SOL     OW 9612   3.712   0.183   1.245
 3189SOL    HW1 9613   3.632   0.124   1.236
 3189SOL    HW2 9614   3.745   0.209   1.154
 3190SOL     OW 9615   2.293   0.426   0.525
 3190SOL    HW1 9616   2.324   0.354   0.462
 3190SOL    HW2 9617   2.238   0.385   0.598
 3191SOL     OW 9618   3.553   1.483   1.095
 3191SOL    HW1 9619   3.474   1.465   1.037
 3191SOL    HW2 9620   3.561   1.411   1.164
 3192SOL     OW 9621   2.197   0.559   1.287
 3192SOL    HW1 9622   2.254   0.501   1.346
 3192SOL    HW2 9623   2.214   0.537   1.192
 3193SOL     OW 9624   2.690   1.579   0.680
 3193SOL    HW1 9625   2.676   1.639   0.601
 3193SOL    HW2 9626   2.614   1.514   0.687
 3194SOL     OW 9627   3.276   0.217   1.129
 3194SOL    HW1 9628   3.357   0.172   1.167
 3194SOL    HW2 9629   3.227   0.265   1.202
 3195SOL     OW 9630   2.837   0.056   1.138
 3195SOL    HW1 9631   2.781   6.994   1.084
 3195SOL    HW2 9632   2.892   0.004   1.204
 3196SOL     OW 9633   2.646   1.318   0.307
 3196SOL    HW1 9634   2.613   1.226   0.328
 3196SOL    HW2 9635   2.722   1.340   0.368
 3197SOL     OW 9636   2.485   1.559   1.290
 3197SOL    HW1 9637   2.482   1.646   1.339
 3197SOL    HW2 9638   2.576   1.547   1.250
 3198SOL     OW 9639   3.208   0.058   0.154
 3198SOL    HW1 9640   3.220   6.960   0.137
 3198SOL    HW2 9641   3.114   0.084   0.134
 3199SOL     OW 9642   3.128   0.452   0.686
 3199SOL    HW1 9643   3.084   0.541   0.683
 3199SOL    HW2 9644   3.148   0.429   0.782
 3200SOL     OW 9645   3.482   0.255   0.913
 3200SOL    HW1 9646   3.394   0.240   0.958
 3200SOL    HW2 9647   3.470   0.322   0.839
 3201SOL     OW 9648   1.943   1.050   0.357
 3201SOL    HW1 9649   2.032   1.029   0.317
 3201SOL    HW2 9650   1.892   0.966   0.370
 3202SOL     OW 9651   2.751   1.664   0.354
 3202SOL    HW1 9652   2.675   1.635   0.295
 3202SOL    HW2 9653   2.723   1.743   0.408
 3203SOL     OW 9654   2.081   0.620   1.991
 3203SOL    HW1 9655   1.991   0.618   2.035
 3203SOL    HW2 9656   2.070   0.599   1.894
 3204SOL     OW 9657   2.083   0.304   2.859
 3204SOL    HW1 9658   2.124   0.266   2.942
 3204SOL    HW2 9659   2.001   0.252   2.836
 3205SOL     OW 9660   1.872   0.396   2.489
 3205SOL    HW1 9661   1.783   0.413   2.532
 3205SOL    HW2 9662   1.862   0.324   2.420
 3206SOL     OW 9663   2.431   1.299   3.049
 3206SOL    HW1 9664   2.341   1.296   3.005
 3206SOL    HW2 9665   2.449   1.391   3.083
 3207SOL     OW 9666   3.428   1.514   2.569
 3207SOL    HW1 9667   3.385   1.489   2.656
 3207SOL    HW2 9668   3.358   1.521   2.499
 3208SOL     OW 9669   2.996   0.703   2.556
 3208SOL    HW1 9670   3.048   0.787   2.540
 3208SOL    HW2 9671   2.945   0.712   2.642
 3209SOL     OW 9672   3.632   0.601   2.083
 3209SOL    HW1 9673   3.610   0.598   1.985
 3209SOL    HW2 9674   3.594   0.521   2.129
 3210SOL     OW 9675   2.603   1.140   2.903
 3210SOL    HW1 9676   2.536   1.175   2.969
 3210SOL    HW2 9677   2.649   1.216   2.857
 3211SOL     OW 9678   2.735   0.764   3.683
 3211SOL    HW1 9679   2.724   0.832   3.755
 3211SOL    HW2 9680   2.760   0.809   3.598
 3212SOL     OW 9681   2.546   0.999   2.510
 3212SOL    HW1 9682   2.617   0.989   2.580
 3212SOL    HW2 9683   2.471   1.055   2.547
 3213SOL     OW 9684   2.573   1.153   3.681
 3213SOL    HW1 9685   2.626   1.231   3.714
 3213SOL    HW2 9686   2.489   1.185   3.638
 3214SOL     OW 9687   2.189   1.422   2.928
 3214SOL    HW1 9688   2.112   1.377   2.882
 3214SOL    HW2 9689   2.241   1.475   2.861
 3215SOL     OW 9690   3.319   1.502   3.221
 3215SOL    HW1 9691   3.377   1.583   3.228
 3215SOL    HW2 9692   3.248   1.506   3.291
 3216SOL     OW 9693   2.305   0.398   3.343
 3216SOL    HW1 9694   2.392   0.347   3.351
 3216SOL    HW2 9695   2.229   0.334   3.350
 3217SOL     OW 9696   3.479   0.457   2.591
 3217SOL    HW1 9697   3.421   0.487   2.516
 3217SOL    HW2 9698   3.484   0.530   2.660
 3218SOL     OW 9699   2.084   1.714   2.333
 3218SOL    HW1 9700   2.102   1.793   2.393
 3218SOL    HW2 9701   2.159   1.704   2.268
 3219SOL     OW 9702   2.999   1.340   3.560
 3219SOL    HW1 9703   3.046   1.338   3.648
 3219SOL    HW2 9704   2.943   1.258   3.550
 3220SOL     OW 9705   2.096   1.444   2.398
 3220SOL    HW1 9706   2.079   1.542   2.397
 3220SOL    HW2 9707   2.036   1.400   2.465
 3221SOL     OW 9708   2.133   1.091   2.763
 3221SOL    HW1 9709   2.129   0.996   2.795
 3221SOL    HW2 9710   2.070   1.147   2.817
 3222SOL     OW 9711   2.459   1.797   3.288
 3222SOL    HW1 9712   2.376   1.773   3.338
 3222SOL    HW2 9713   2.491   1.887   3.316
 3223SOL     OW 9714   2.443   0.988   2.004
 3223SOL    HW1 9715   2.490   1.034   1.929
 3223SOL    HW2 9716   2.483   1.016   2.092
 3224SOL     OW 9717   3.440   0.132   3.308
 3224SOL    HW1 9718   3.454   0.227   3.277
 3224SOL    HW2 9719   3.463   0.125   3.405
 3225SOL     OW 9720   1.976   0.662   2.426
 3225SOL    HW1 9721   1.950   0.567   2.444
 3225SOL    HW2 9722   1.971   0.714   2.511
 3226SOL     OW 9723   3.709   1.755   2.194
 3226SOL    HW1 9724   3.779   1.725   2.258
 3226SOL    HW2 9725   3.724   1.851   2.170
 3227SOL     OW 9726   1.892   1.590   1.985
 3227SOL    HW1 9727   1.875   1.493   2.003
 3227SOL    HW2 9728   1.871   1.643   2.066
 3228SOL     OW 9729   3.552   0.920   2.510
 3228SOL    HW1 9730   3.638   0.870   2.494
 3228SOL    HW2 9731   3.530   0.974   2.428
 3229SOL     OW 9732   3.516   1.104   2.294
 3229SOL    HW1 9733   3.605   1.100   2.249
 3229SOL    HW2 9734   3.519   1.171   2.368
 3230SOL     OW 9735   1.984   0.749   3.444
 3230SOL    HW1 9736   2.080   0.778   3.446
 3230SOL    HW2 9737   1.925   0.830   3.443
 3231SOL     OW 9738   2.474   1.391   2.595
 3231SOL    HW1 9739   2.429   1.303   2.608
 3231SOL    HW2 9740   2.461   1.423   2.501
 3232SOL     OW 9741   3.150   1.234   3.283
 3232SOL    HW1 9742   3.176   1.164   3.218
 3232SOL    HW2 9743   3.210   1.230   3.363
 3233SOL     OW 9744   2.685   0.030   2.383
 3233SOL    HW1 9745   2.725   0.119   2.362
 3233SOL    HW2 9746   2.585   0.039   2.384
 3234SOL     OW 9747   2.052   0.961   3.140
 3234SOL    HW1 9748   2.142   0.919   3.126
 3234SOL    HW2 9749   1.984   0.915   3.083
 3235SOL     OW 9750   3.394   1.001   2.067
 3235SOL    HW1 9751   3.320   0.941   2.096
 3235SOL    HW2 9752   3.441   1.038   2.147
 3236SOL     OW 9753   3.043   1.812   3.485
 3236SOL    HW1 9754   3.051   1.881   3.413
 3236SOL    HW2 9755   3.064   1.722   3.447
 3237SOL     OW 9756   2.182   0.270   3.651
 3237SOL    HW1 9757   2.246   0.336   3.692
 3237SOL    HW2 9758   2.096   0.272   3.701
 3238SOL     OW 9759   3.327   1.420   2.808
 3238SOL    HW1 9760   3.261   1.440   2.880
 3238SOL    HW2 9761   3.319   1.325   2.780
 3239SOL     OW 9762   3.511   1.751   2.437
 3239SOL    HW1 9763   3.494   1.722   2.344
 3239SOL    HW2 9764   3.491   1.676   2.500
 3240SOL     OW 9765   2.455   0.718   2.134
 3240SOL    HW1 9766   2.460   0.804   2.085
 3240SOL    HW2 9767   2.386   0.725   2.207
 3241SOL     OW 9768   3.144   0.368   2.811
 3241SOL    HW1 9769   3.047   0.344   2.814
 3241SOL    HW2 9770   3.194   0.317   2.881
 3242SOL     OW 9771   3.445   1.673   2.170
 3242SOL    HW1 9772   3.542   1.700   2.166
 3242SOL    HW2 9773   3.412   1.656   2.077
 3243SOL     OW 9774   2.655   0.616   3.317
 3243SOL    HW1 9775   2.628   0.589   3.410
 3243SOL    HW2 9776   2.618   0.550   3.251
 3244SOL     OW 9777   3.256   0.474   3.543
 3244SOL    HW1 9778   3.255   0.520   3.631
 3244SOL    HW2 9779   3.312   0.392   3.549
 3245SOL     OW 9780   2.815   0.885   3.446
 3245SOL    HW1 9781   2.873   0.813   3.407
 3245SOL    HW2 9782   2.760   0.927   3.373
 3246SOL     OW 9783   2.857   0.411   3.088
 3246SOL    HW1 9784   2.770   0.433   3.132
 3246SOL    HW2 9785   2.840   0.362   3.003
 3247SOL     OW 9786   2.913   0.699   2.286
 3247SOL    HW1 9787   2.935   0.694   2.384
 3247SOL    HW2 9788   2.826   0.652   2.269
 3248SOL     OW 9789   1.950   0.829   2.642
 3248SOL    HW1 9790   2.036   0.816   2.692
 3248SOL    HW2 9791   1.901   0.908   2.680
 3249SOL     OW 9792   1.990   1.874   3.450
 3249SOL    HW1 9793   1.995   1.846   3.546
 3249SOL    HW2 9794   1.905   1.839   3.410
 3250SOL     OW 9795   2.751   0.355   2.062
 3250SOL    HW1 9796   2.798   0.416   1.998
 3250SOL    HW2 9797   2.723   0.272   2.015
 3251SOL     OW 9798   3.562   0.572   3.687
 3251SOL    HW1 9799   3.527   0.652   3.638
 3251SOL    HW2 9800   3.590   0.502   3.621
 3252SOL     OW 9801   3.242   1.143   2.395
 3252SOL    HW1 9802   3.327   1.128   2.344
 3252SOL    HW2 9803   3.186   1.210   2.347
 3253SOL     OW 9804   2.363   0.189   2.775
 3253SOL    HW1 9805   2.404   0.220   2.861
 3253SOL    HW2 9806   2.388   0.252   2.701
 3254SOL     OW 9807   2.856   1.443   2.325
 3254SOL    HW1 9808   2.825   1.524   2.275
 3254SOL    HW2 9809   2.839   1.456   2.423
 3255SOL     OW 9810   2.218   1.814   2.733
 3255SOL    HW1 9811   2.262   1.725   2.740
 3255SOL    HW2 9812   2.285   1.886   2.752
 3256SOL     OW 9813   3.660   1.056   2.735
 3256SOL    HW1 9814   3.609   1.033   2.652
 3256SOL    HW2 9815   3.597   1.062   2.812
 3257SOL     OW 9816   3.088   1.536   3.376
 3257SOL    HW1 9817   3.076   1.462   3.442
 3257SOL    HW2 9818   3.020   1.528   3.304
 3258SOL     OW 9819   2.183   0.959   2.117
 3258SOL    HW1 9820   2.271   0.980   2.074
 3258SOL    HW2 9821   2.147   0.874   2.080
 3259SOL     OW 9822   3.346   0.751   2.585
 3259SOL    HW1 9823   3.339   0.708   2.675
 3259SOL    HW2 9824   3.425   0.811   2.582
 3260SOL     OW 9825   2.331   1.266   3.593
 3260SOL    HW1 9826   2.305   1.272   3.496
 3260SOL    HW2 9827   2.249   1.263   3.649
 3261SOL     OW 9828   2.984   1.776   2.088
 3261SOL    HW1 9829   2.904   1.739   2.136
 3261SOL    HW2 9830   3.014   1.711   2.017
 3262SOL     OW 9831   2.054   0.271   3.376
 3262SOL    HW1 9832   1.996   0.351   3.361
 3262SOL    HW2 9833   2.078   0.265   3.472
 3263SOL     OW 9834   3.486   1.382   1.951
 3263SOL    HW1 9835   3.448   1.473   1.935
 3263SOL    HW2 9836   3.417   1.313   1.932
 3264SOL     OW 9837   2.326   1.735   2.180
 3264SOL    HW1 9838   2.368   1.797   2.246
 3264SOL    HW2 9839   2.397   1.698   2.120
 3265SOL     OW 9840   3.287   0.133   2.287
 3265SOL    HW1 9841   3.266   0.089   2.200
 3265SOL    HW2 9842   3.386   0.139   2.298
 3266SOL     OW 9843   2.120   1.791   3.087
 3266SOL    HW1 9844   2.171   1.718   3.133
 3266SOL    HW2 9845   2.102   1.765   2.993
 3267SOL     OW 9846   2.798   1.702   2.758
 3267SOL    HW1 9847   2.881   1.656   2.789
 3267SOL    HW2 9848   2.756   1.650   2.684
 3268SOL     OW 9849   2.258   0.686   2.337
 3268SOL    HW1 9850   2.277   0.589   2.350
 3268SOL    HW2 9851   2.161   0.703   2.354
 3269SOL     OW 9852   3.390   0.230   3.589
 3269SOL    HW1 9853   3.405   0.234   3.687
 3269SOL    HW2 9854   3.303   0.184   3.571
 3270SOL     OW 9855   2.508   0.110   1.964
 3270SOL    HW1 9856   2.546   0.036   2.019
 3270SOL    HW2 9857   2.444   0.072   1.897
 3271SOL     OW 9858   2.624   0.277   3.630
 3271SOL    HW1 9859   2.713   0.232   3.621
 3271SOL    HW2 9860   2.571   0.232   3.701
 3272SOL     OW 9861   2.736   1.514   3.055
 3272SOL    HW1 9862   2.717   1.478   2.963
 3272SOL    HW2 9863   2.809   1.460   3.097
 3273SOL     OW 9864   3.204   0.591   3.299
 3273SOL    HW1 9865   3.233   0.556   3.388
 3273SOL    HW2 9866   3.238   0.684   3.287
 3274SOL     OW 9867   2.682   1.388   2.804
 3274SOL    HW1 9868   2.772   1.377   2.762
 3274SOL    HW2 9869   2.613   1.395   2.732
 3275SOL     OW 9870   2.789   0.511   2.756
 3275SOL    HW1 9871   2.761   0.505   2.660
 3275SOL    HW2 9872   2.821   0.421   2.787
 3276SOL     OW 9873   2.417   0.067   2.355
 3276SOL    HW1 9874   2.336   0.056   2.412
 3276SOL    HW2 9875   2.403   0.142   2.291
 3277SOL     OW 9876   3.287   1.199   1.905
 3277SOL    HW1 9877   3.321   1.122   1.958
 3277SOL    HW2 9878   3.199   1.228   1.941
 3278SOL     OW 9879   2.175   0.049   2.047
 3278SOL    HW1 9880   2.213   0.142   2.050
 3278SOL    HW2 9881   2.223   6.991   2.113
 3279SOL     OW 9882   2.812   0.266   2.318
 3279SOL    HW1 9883   2.782   0.301   2.229
 3279SOL    HW2 9884   2.911   0.274   2.325
 3280SOL     OW 9885   2.942   0.685   3.315
 3280SOL    HW1 9886   2.867   0.619   3.327
 3280SOL    HW2 9887   3.029   0.636   3.315
 3281SOL     OW 9888   3.081   1.570   2.656
 3281SOL    HW1 9889   3.095   1.640   2.586
 3281SOL    HW2 9890   3.153   1.578   2.726
 3282SOL     OW 9891   2.331   1.152   2.589
 3282SOL    HW1 9892   2.265   1.132   2.661
 3282SOL    HW2 9893   2.288   1.140   2.500
 3283SOL     OW 9894   3.124   1.791   2.473
 3283SOL    HW1 9895   3.176   1.853   2.414
 3283SOL    HW2 9896   3.051   1.842   2.518
 3284SOL     OW 9897   2.880   0.536   1.896
 3284SOL    HW1 9898   2.836   0.622   1.872
 3284SOL    HW2 9899   2.951   0.552   1.964
 3285SOL     OW 9900   1.954   0.552   3.259
 3285SOL    HW1 9901   2.047   0.552   3.223
 3285SOL    HW2 9902   1.944   0.626   3.326
 3286SOL     OW 9903   2.433   0.243   3.038
 3286SOL    HW1 9904   2.485   0.170   3.083
 3286SOL    HW2 9905   2.337   0.237   3.068
 3287SOL     OW 9906   2.727   0.466   2.497
 3287SOL    HW1 9907   2.677   0.526   2.435
 3287SOL    HW2 9908   2.756   0.383   2.447
 3288SOL     OW 9909   2.819   0.027   2.632
 3288SOL    HW1 9910   2.762   0.028   2.550
 3288SOL    HW2 9911   2.891   6.958   2.621
 3289SOL     OW 9912   3.308   1.161   2.720
 3289SOL    HW1 9913   3.231   1.096   2.724
 3289SOL    HW2 9914   3.337   1.171   2.626
 3290SOL     OW 9915   3.328   0.609   2.831
 3290SOL    HW1 9916   3.267   0.531   2.832
 3290SOL    HW2 9917   3.391   0.604   2.908
 3291SOL     OW 9918   3.703   0.809   2.242
 3291SOL    HW1 9919   3.761   0.761   2.308
 3291SOL    HW2 9920   3.674   0.745   2.171
 3292SOL     OW 9921   2.349   1.421   2.017
 3292SOL    HW1 9922   2.268   1.394   2.070
 3292SOL    HW2 9923   2.348   1.374   1.928
 3293SOL     OW 9924   3.538   1.267   2.505
 3293SOL    HW1 9925   3.637   1.264   2.517
 3293SOL    HW2 9926   3.504   1.359   2.525
 3294SOL     OW 9927   3.253   0.576   1.933
 3294SOL    HW1 9928   3.189   0.552   2.007
 3294SOL    HW2 9929   3.347   0.562   1.965
 3295SOL     OW 9930   2.383   0.262   2.163
 3295SOL    HW1 9931   2.441   0.213   2.098
 3295SOL    HW2 9932   2.359   0.352   2.126
 3296SOL     OW 9933   3.614   1.241   3.420
 3296SOL    HW1 9934   3.704   1.199   3.407
 3296SOL    HW2 9935   3.626   1.334   3.455
 3297SOL     OW 9936   2.915   1.350   3.198
 3297SOL    HW1 9937   2.833   1.320   3.248
 3297SOL    HW2 9938   2.996   1.310   3.240
 3298SOL     OW 9939   3.476   1.630   3.519
 3298SOL    HW1 9940   3.460   1.665   3.427
 3298SOL    HW2 9941   3.561   1.578   3.521
 3299SOL     OW 9942   3.000   1.221   2.967
 3299SOL    HW1 9943   2.940   1.255   3.039
 3299SOL    HW2 9944   2.967   1.252   2.878
 3300SOL     OW 9945   3.485   1.096   2.941
 3300SOL    HW1 9946   3.481   1.162   3.017
 3300SOL    HW2 9947   3.410   1.114   2.878
 3301SOL     OW 9948   2.755   0.151   3.249
 3301SOL    HW1 9949   2.771   0.118   3.156
 3301SOL    HW2 9950   2.842   0.178   3.291
 3302SOL     OW 9951   2.841   1.115   3.583
 3302SOL    HW1 9952   2.747   1.134   3.610
 3302SOL    HW2 9953   2.843   1.032   3.527
 3303SOL     OW 9954   2.575   1.059   2.235
 3303SOL    HW1 9955   2.558   1.041   2.332
 3303SOL    HW2 9956   2.654   1.005   2.205
 3304SOL     OW 9957   2.286   0.817   3.116
 3304SOL    HW1 9958   2.359   0.829   3.183
 3304SOL    HW2 9959   2.247   0.726   3.125
 3305SOL     OW 9960   3.122   0.378   3.149
 3305SOL    HW1 9961   3.159   0.457   3.198
 3305SOL    HW2 9962   3.027   0.397   3.123
 3306SOL     OW 9963   1.937   1.572   3.216
 3306SOL    HW1 9964   1.901   1.642   3.154
 3306SOL    HW2 9965   2.037   1.570   3.209
 3307SOL     OW 9966   2.202   1.120   2.349
 3307SOL    HW1 9967   2.207   1.202   2.292
 3307SOL    HW2 9968   2.200   1.039   2.290
 3308SOL     OW 9969   2.414   0.546   2.723
 3308SOL    HW1 9970   2.428   0.606   2.644
 3308SOL    HW2 9971   2.485   0.565   2.791
 3309SOL     OW 9972   3.108   1.355   2.255
 3309SOL    HW1 9973   3.169   1.427   2.286
 3309SOL    HW2 9974   3.014   1.375   2.285
 3310SOL     OW 9975   3.151   1.462   3.009
 3310SOL    HW1 9976   3.209   1.468   3.091
 3310SOL    HW2 9977   3.097   1.378   3.013
 3311SOL     OW 9978   3.434   0.622   2.348
 3311SOL    HW1 9979   3.385   0.675   2.417
 3311SOL    HW2 9980   3.486   0.683   2.289
 3312SOL     OW 9981   2.210   1.530   3.171
 3312SOL    HW1 9982   2.194   1.485   3.083
 3312SOL    HW2 9983   2.308   1.544   3.184
 3313SOL     OW 9984   2.281   0.744   3.464
 3313SOL    HW1 9985   2.344   0.792   3.403
 3313SOL    HW2 9986   2.320   0.654   3.487
 3314SOL     OW 9987   3.471   0.786   3.548
 3314SOL    HW1 9988   3.380   0.827   3.545
 3314SOL    HW2 9989   3.528   0.826   3.476
 3315SOL     OW 9990   2.860   0.137   3.595
 3315SOL    HW1 9991   2.904   0.179   3.516
 3315SOL    HW2 9992   2.860   0.037   3.584
 3316SOL     OW 9993   2.325   0.037   3.621
 3316SOL    HW1 9994   2.257   6.965   3.606
 3316SOL    HW2 9995   2.278   0.125   3.629
 3317SOL     OW 9996   2.446   0.874   2.895
 3317SOL    HW1 9997   2.483   0.967   2.894
 3317SOL    HW2 9998   2.386   0.863   2.975
 3318SOL     OW 9999   3.211   0.858   2.884
 3318SOL    HW110000   3.119   0.848   2.846
 3318SOL    HW210001   3.260   0.771   2.876
 3319SOL     OW10002   3.060   0.527   2.125
 3319SOL    HW110003   3.072   0.444   2.180
 3319SOL    HW210004   3.015   0.597   2.181
 3320SOL     OW10005   2.171   0.208   3.109
 3320SOL    HW110006   2.107   0.216   3.185
 3320SOL    HW210007   2.162   0.117   3.067
 3321SOL     OW10008   1.915   1.310   3.137
 3321SOL    HW110009   1.946   1.248   3.209
 3321SOL    HW210010   1.917   1.404   3.170
 3322SOL     OW10011   2.591   0.637   2.916
 3322SOL    HW110012   2.665   0.616   2.853
 3322SOL    HW210013   2.553   0.727   2.895
 3323SOL     OW10014   3.599   0.961   3.719
 3323SOL    HW110015   3.556   0.892   3.661
 3323SOL    HW210016   3.539   0.981   3.797
 3324SOL     OW10017   2.184   0.059   2.492
 3324SOL    HW110018   2.160   0.153   2.519
 3324SOL    HW210019   2.137   6.995   2.552
 3325SOL     OW10020   3.489   0.394   2.204
 3325SOL    HW110021   3.518   0.316   2.259
 3325SOL    HW210022   3.457   0.467   2.265
 3326SOL     OW10023   2.887   0.756   2.820
 3326SOL    HW110024   2.881   0.778   2.917
 3326SOL    HW210025   2.859   0.662   2.804
 3327SOL     OW10026   2.843   1.563   3.580
 3327SOL    HW110027   2.826   1.610   3.494
 3327SOL    HW210028   2.891   1.477   3.562
 3328SOL     OW10029   3.716   1.503   3.465
 3328SOL    HW110030   3.735   1.529   3.371
 3328SOL    HW210031   3.799   1.514   3.520
 3329SOL     OW10032   2.215   0.918   3.666
 3329SOL    HW110033   2.294   0.940   3.723
 3329SOL    HW210034   2.242   0.852   3.596
 3330SOL     OW10035   3.401   0.233   1.997
 3330SOL    HW110036   3.302   0.232   2.003
 3330SOL    HW210037   3.439   0.292   2.068
 3331SOL     OW10038   3.150   0.826   1.887
 3331SOL    HW110039   3.190   0.735   1.895
 3331SOL    HW210040   3.181   0.869   1.802
 3332SOL     OW10041   2.933   1.338   2.717
 3332SOL    HW110042   2.937   1.260   2.655
 3332SOL    HW210043   2.991   1.412   2.683
 3333SOL     OW10044   2.174   0.810   2.804
 3333SOL    HW110045   2.270   0.836   2.799
 3333SOL    HW210046   2.167   0.715   2.836
 3334SOL     OW10047   2.196   0.540   2.873
 3334SOL    HW110048   2.153   0.451   2.862
 3334SOL    HW210049   2.277   0.546   2.815
 3335SOL     OW10050   2.987   0.414   3.534
 3335SOL    HW110051   2.939   0.455   3.611
 3335SOL    HW210052   3.085   0.435   3.542
 3336SOL     OW10053   2.995   0.225   3.350
 3336SOL    HW110054   2.995   0.302   3.415
 3336SOL    HW210055   3.053   0.249   3.271
 3337SOL     OW10056   1.862   1.314   2.057
 3337SOL    HW110057   1.773   1.334   2.017
 3337SOL    HW210058   1.863   1.221   2.092
 3338SOL     OW10059   1.956   1.782   2.806
 3338SOL    HW110060   1.919   1.702   2.760
 3338SOL    HW210061   2.049   1.800   2.774
 3339SOL     OW10062   2.355   1.576   2.767
 3339SOL    HW110063   2.425   1.642   2.793
 3339SOL    HW210064   2.395   1.509   2.704
 3340SOL     OW10065   2.835   0.794   3.085
 3340SOL    HW110066   2.895   0.769   3.161
 3340SOL    HW210067   2.746   0.750   3.097
 3341SOL     OW10068   1.898   0.551   2.983
 3341SOL    HW110069   1.975   0.533   2.922
 3341SOL    HW210070   1.929   0.552   3.078
 3342SOL     OW10071   2.047   0.531   3.592
 3342SOL    HW110072   2.126   0.498   3.541
 3342SOL    HW210073   2.007   0.609   3.545
 3343SOL     OW10074   3.243   0.935   3.516
 3343SOL    HW110075   3.266   1.032   3.517
 3343SOL    HW210076   3.239   0.902   3.422
 3344SOL     OW10077   2.679   0.577   2.223
 3344SOL    HW110078   2.689   0.496   2.165
 3344SOL    HW210079   2.600   0.630   2.192
 3345SOL     OW10080   3.503   0.605   3.041
 3345SOL    HW110081   3.484   0.545   3.118
 3345SOL    HW210082   3.595   0.586   3.006
 3346SOL     OW10083   2.101   1.546   3.587
 3346SOL    HW110084   2.080   1.621   3.651
 3346SOL    HW210085   2.108   1.460   3.638
 3347SOL     OW10086   2.573   0.460   3.117
 3347SOL    HW110087   2.517   0.382   3.091
 3347SOL    HW210088   2.572   0.528   3.042
 3348SOL     OW10089   2.781   1.681   3.334
 3348SOL    HW110090   2.755   1.634   3.250
 3348SOL    HW210091   2.781   1.779   3.319
 3349SOL     OW10092   2.320   0.495   2.040
 3349SOL    HW110093   2.385   0.566   2.067
 3349SOL    HW210094   2.229   0.535   2.030
 3350SOL     OW10095   2.003   1.138   3.338
 3350SOL    HW110096   2.005   1.094   3.428
 3350SOL    HW210097   2.023   1.070   3.267
 3351SOL     OW10098   3.177   1.043   3.080
 3351SOL    HW110099   3.204   0.975   3.012
 3351SOL    HW210100   3.110   1.106   3.040
 3352SOL     OW10101   3.179   0.856   2.160
 3352SOL    HW110102   3.102   0.829   2.219
 3352SOL    HW210103   3.153   0.844   2.064
 3353SOL     OW10104   3.643   1.728   3.020
 3353SOL    HW110105   3.704   1.762   2.948
 3353SOL    HW210106   3.611   1.636   2.995
 3354SOL     OW10107   3.103   1.732   2.966
 3354SOL    HW110108   3.189   1.762   2.924
 3354SOL    HW210109   3.109   1.636   2.990
 3355SOL     OW10110   1.949   1.264   2.872
 3355SOL    HW110111   1.933   1.280   2.970
 3355SOL    HW210112   1.876   1.206   2.835
 3356SOL     OW10113   2.543   1.675   3.600
 3356SOL    HW110114   2.480   1.752   3.594
 3356SOL    HW210115   2.617   1.687   3.533
 3357SOL     OW10116   3.567   0.167   2.330
 3357SOL    HW110117   3.652   0.150   2.281
 3357SOL    HW210118   3.564   0.110   2.412
 3358SOL     OW10119   3.258   1.571   2.350
 3358SOL    HW110120   3.320   1.603   2.279
 3358SOL    HW210121   3.202   1.647   2.383
 3359SOL     OW10122   2.008   1.786   3.708
 3359SOL    HW110123   1.951   1.718   3.753
 3359SOL    HW210124   2.057   1.840   3.777
 3360SOL     OW10125   3.144   0.929   2.527
 3360SOL    HW110126   3.219   0.865   2.545
 3360SOL    HW210127   3.178   1.005   2.473
 3361SOL     OW10128   2.664   1.279   3.287
 3361SOL    HW110129   2.635   1.323   3.372
 3361SOL    HW210130   2.594   1.294   3.217
 3362SOL     OW10131   2.530   1.622   2.016
 3362SOL    HW110132   2.547   1.641   1.919
 3362SOL    HW210133   2.472   1.541   2.025
 3363SOL     OW10134   3.478   1.729   3.249
 3363SOL    HW110135   3.536   1.729   3.168
 3363SOL    HW210136   3.464   1.823   3.280
 3364SOL     OW10137   3.729   0.160   2.819
 3364SOL    HW110138   3.727   0.060   2.810
 3364SOL    HW210139   3.638   0.197   2.802
 3365SOL     OW10140   2.121   0.312   2.577
 3365SOL    HW110141   2.032   0.349   2.550
 3365SOL    HW210142   2.128   0.311   2.677
 3366SOL     OW10143   3.071   1.600   1.895
 3366SOL    HW110144   3.061   1.506   1.928
 3366SOL    HW210145   3.003   1.617   1.823
 3367SOL     OW10146   2.685   1.010   3.241
 3367SOL    HW110147   2.736   0.993   3.157
 3367SOL    HW210148   2.682   1.108   3.259
 3368SOL     OW10149   2.782   0.911   2.149
 3368SOL    HW110150   2.843   0.946   2.078
 3368SOL    HW210151   2.829   0.839   2.201
 3369SOL     OW10152   3.350   1.631   1.904
 3369SOL    HW110153   3.251   1.619   1.893
 3369SOL    HW210154   3.394   1.636   1.815
 3370SOL     OW10155   2.227   1.303   3.349
 3370SOL    HW110156   2.218   1.383   3.290
 3370SOL    HW210157   2.147   1.244   3.338
 3371SOL     OW10158   3.475   1.285   3.147
 3371SOL    HW110159   3.538   1.265   3.222
 3371SOL    HW210160   3.409   1.354   3.176
 3372SOL     OW10161   2.925   1.107   2.578
 3372SOL    HW110162   2.848   1.057   2.617
 3372SOL    HW210163   2.993   1.042   2.545
 3373SOL     OW10164   2.886   0.249   2.813
 3373SOL    HW110165   2.864   0.202   2.728
 3373SOL    HW210166   2.876   0.186   2.890
 3374SOL     OW10167   2.467   1.486   2.341
 3374SOL    HW110168   2.519   1.432   2.275
 3374SOL    HW210169   2.392   1.533   2.295
 3375SOL     OW10170   3.596   0.392   3.238
 3375SOL    HW110171   3.665   0.464   3.243
 3375SOL    HW210172   3.632   0.315   3.185
 3376SOL     OW10173   2.115   1.348   2.150
 3376SOL    HW110174   2.019   1.341   2.123
 3376SOL    HW210175   2.120   1.387   2.242
 3377SOL     OW10176   1.977   1.036   3.591
 3377SOL    HW110177   1.895   1.008   3.642
 3377SOL    HW210178   2.057   0.990   3.629
 3378SOL     OW10179   2.532   0.239   3.372
 3378SOL    HW110180   2.612   0.214   3.318
 3378SOL    HW210181   2.560   0.271   3.462
 3379SOL     OW10182   1.938   0.333   1.896
 3379SOL    HW110183   1.842   0.310   1.878
 3379SOL    HW210184   1.963   0.413   1.842
 3380SOL     OW10185   3.285   0.857   3.257
 3380SOL    HW110186   3.229   0.921   3.203
 3380SOL    HW210187   3.379   0.858   3.222
 3381SOL     OW10188   1.933   0.178   2.178
 3381SOL    HW110189   1.938   0.248   2.107
 3381SOL    HW210190   1.982   0.096   2.147
 3382SOL     OW10191   3.042   1.337   1.983
 3382SOL    HW110192   2.947   1.307   1.976
 3382SOL    HW210193   3.070   1.338   2.079
 3383SOL     OW10194   2.486   0.830   3.296
 3383SOL    HW110195   2.543   0.911   3.281
 3383SOL    HW210196   2.545   0.750   3.307
 3384SOL     OW10197   3.347   1.790   2.850
 3384SOL    HW110198   3.368   1.854   2.776
 3384SOL    HW210199   3.432   1.754   2.889
 3385SOL     OW10200   2.582   0.557   3.569
 3385SOL    HW110201   2.628   0.627   3.624
 3385SOL    HW210202   2.602   0.467   3.607
 3386SOL     OW10203   3.336   1.196   3.496
 3386SOL    HW110204   3.321   1.209   3.594
 3386SOL    HW210205   3.432   1.215   3.474
 3387SOL     OW10206   2.232   1.738   3.429
 3387SOL    HW110207   2.148   1.791   3.414
 3387SOL    HW210208   2.209   1.650   3.471
 3388SOL     OW10209   3.527   0.878   3.118
 3388SOL    HW110210   3.522   0.787   3.077
 3388SOL    HW210211   3.514   0.948   3.047
 3389SOL     OW10212   3.087   0.319   2.318
 3389SOL    HW110213   3.157   0.248   2.310
 3389SOL    HW210214   3.105   0.376   2.398
 3390SOL     OW10215   2.450   0.737   2.529
 3390SOL    HW110216   2.490   0.828   2.518
 3390SOL    HW210217   2.380   0.723   2.459
 3391SOL     OW10218   3.610   0.369   3.510
 3391SOL    HW110219   3.602   0.384   3.412
 3391SOL    HW210220   3.537   0.308   3.541
 3392SOL     OW10221   3.615   0.932   3.371
 3392SOL    HW110222   3.602   1.029   3.393
 3392SOL    HW210223   3.593   0.916   3.275
 3393SOL     OW10224   2.729   1.363   1.907
 3393SOL    HW110225   2.688   1.387   1.995
 3393SOL    HW210226   2.743   1.447   1.854
 3394SOL     OW10227   2.527   1.783   2.803
 3394SOL    HW110228   2.504   1.878   2.782
 3394SOL    HW210229   2.626   1.770   2.792
 3395SOL     OW10230   2.731   0.971   2.718
 3395SOL    HW110231   2.783   0.893   2.754
 3395SOL    HW210232   2.688   1.021   2.793
 3396SOL     OW10233   2.939   0.989   1.946
 3396SOL    HW110234   2.912   1.043   1.866
 3396SOL    HW210235   3.017   0.931   1.921
 3397SOL     OW10236   3.707   1.556   2.709
 3397SOL    HW110237   3.630   1.544   2.646
 3397SOL    HW210238   3.702   1.488   2.781
 3398SOL     OW10239   2.094   1.298   3.719
 3398SOL    HW110240   2.029   1.231   3.684
 3398SOL    HW210241   2.079   1.311   3.817
 3399SOL     OW10242   1.950   1.229   2.525
 3399SOL    HW110243   1.956   1.184   2.614
 3399SOL    HW210244   2.018   1.189   2.463
 3400SOL     OW10245   2.545   1.410   3.496
 3400SOL    HW110246   2.464   1.360   3.528
 3400SOL    HW210247   2.544   1.503   3.533
 3401SOL     OW10248   3.712   0.183   3.107
 3401SOL    HW110249   3.632   0.124   3.099
 3401SOL    HW210250   3.744   0.209   3.016
 3402SOL     OW10251   2.292   0.425   2.386
 3402SOL    HW110252   2.327   0.355   2.324
 3402SOL    HW210253   2.239   0.383   2.459
 3403SOL     OW10254   3.555   1.481   2.955
 3403SOL    HW110255   3.474   1.464   2.899
 3403SOL    HW210256   3.562   1.411   3.026
 3404SOL     OW10257   2.197   0.559   3.149
 3404SOL    HW110258   2.254   0.501   3.208
 3404SOL    HW210259   2.214   0.537   3.054
 3405SOL     OW10260   2.691   1.580   2.540
 3405SOL    HW110261   2.676   1.642   2.464
 3405SOL    HW210262   2.614   1.516   2.546
 3406SOL     OW10263   3.275   0.217   2.991
 3406SOL    HW110264   3.356   0.172   3.029
 3406SOL    HW210265   3.227   0.265   3.064
 3407SOL     OW10266   2.837   0.056   3.000
 3407SOL    HW110267   2.781   6.994   2.945
 3407SOL    HW210268   2.891   0.004   3.065
 3408SOL     OW10269   2.637   1.331   2.184
 3408SOL    HW110270   2.609   1.236   2.192
 3408SOL    HW210271   2.721   1.347   2.234
 3409SOL     OW10272   2.485   1.559   3.152
 3409SOL    HW110273   2.482   1.646   3.201
 3409SOL    HW210274   2.576   1.547   3.112
 3410SOL     OW10275   3.182   0.014   2.056
 3410SOL    HW110276   3.229   6.944   2.001
 3410SOL    HW210277   3.105   6.972   2.104
 3411SOL     OW10278   3.129   0.454   2.549
 3411SOL    HW110279   3.084   0.544   2.546
 3411SOL    HW210280   3.148   0.430   2.644
 3412SOL     OW10281   3.482   0.257   2.777
 3412SOL    HW110282   3.394   0.239   2.820
 3412SOL    HW210283   3.470   0.321   2.701
 3413SOL     OW10284   1.905   1.063   2.170
 3413SOL    HW110285   2.003   1.063   2.151
 3413SOL    HW210286   1.875   0.970   2.192
 3414SOL     OW10287   2.747   1.664   2.202
 3414SOL    HW110288   2.671   1.642   2.139
 3414SOL    HW210289   2.721   1.741   2.260
 3415SOL     OW10290   2.081   0.620   3.853
 3415SOL    HW110291   1.991   0.618   3.897
 3415SOL    HW210292   2.070   0.599   3.756
 3416SOL     OW10293   2.083   0.304   4.721
 3416SOL    HW110294   2.124   0.266   4.804
 3416SOL    HW210295   2.001   0.252   4.698
 3417SOL     OW10296   1.872   0.396   4.351
 3417SOL    HW110297   1.783   0.413   4.394
 3417SOL    HW210298   1.862   0.324   4.282
 3418SOL     OW10299   2.431   1.299   4.911
 3418SOL    HW110300   2.341   1.296   4.867
 3418SOL    HW210301   2.449   1.391   4.945
 3419SOL     OW10302   3.428   1.514   4.431
 3419SOL    HW110303   3.385   1.489   4.518
 3419SOL    HW210304   3.358   1.521   4.361
 3420SOL     OW10305   2.996   0.703   4.418
 3420SOL    HW110306   3.048   0.787   4.402
 3420SOL    HW210307   2.945   0.712   4.504
 3421SOL     OW10308   3.632   0.601   3.945
 3421SOL    HW110309   3.610   0.598   3.847
 3421SOL    HW210310   3.594   0.521   3.991
 3422SOL     OW10311   2.603   1.140   4.765
 3422SOL    HW110312   2.537   1.175   4.831
 3422SOL    HW210313   2.649   1.216   4.719
 3423SOL     OW10314   2.736   0.764   5.545
 3423SOL    HW110315   2.725   0.832   5.617
 3423SOL    HW210316   2.760   0.809   5.459
 3424SOL     OW10317   2.546   0.999   4.372
 3424SOL    HW110318   2.617   0.989   4.442
 3424SOL    HW210319   2.471   1.055   4.409
 3425SOL     OW10320   2.573   1.153   5.543
 3425SOL    HW110321   2.626   1.231   5.576
 3425SOL    HW210322   2.489   1.185   5.500
 3426SOL     OW10323   2.189   1.422   4.790
 3426SOL    HW110324   2.112   1.377   4.744
 3426SOL    HW210325   2.241   1.475   4.723
 3427SOL     OW10326   3.319   1.502   5.083
 3427SOL    HW110327   3.377   1.583   5.090
 3427SOL    HW210328   3.248   1.506   5.153
 3428SOL     OW10329   2.305   0.398   5.206
 3428SOL    HW110330   2.392   0.347   5.213
 3428SOL    HW210331   2.229   0.334   5.212
 3429SOL     OW10332   3.479   0.457   4.453
 3429SOL    HW110333   3.421   0.487   4.378
 3429SOL    HW210334   3.484   0.530   4.522
 3430SOL     OW10335   2.084   1.714   4.195
 3430SOL    HW110336   2.102   1.793   4.255
 3430SOL    HW210337   2.159   1.704   4.130
 3431SOL     OW10338   2.999   1.340   5.422
 3431SOL    HW110339   3.046   1.337   5.510
 3431SOL    HW210340   2.943   1.258   5.412
 3432SOL     OW10341   2.096   1.444   4.260
 3432SOL    HW110342   2.079   1.542   4.259
 3432SOL    HW210343   2.036   1.400   4.327
 3433SOL     OW10344   2.133   1.091   4.625
 3433SOL    HW110345   2.129   0.996   4.657
 3433SOL    HW210346   2.070   1.147   4.679
 3434SOL     OW10347   2.459   1.797   5.150
 3434SOL    HW110348   2.376   1.773   5.200
 3434SOL    HW210349   2.491   1.887   5.178
 3435SOL     OW10350   2.443   0.988   3.866
 3435SOL    HW110351   2.490   1.034   3.791
 3435SOL    HW210352   2.483   1.016   3.954
 3436SOL     OW10353   3.440   0.132   5.170
 3436SOL    HW110354   3.454   0.227   5.139
 3436SOL    HW210355   3.463   0.125   5.267
 3437SOL     OW10356   1.976   0.662   4.288
 3437SOL    HW110357   1.950   0.567   4.306
 3437SOL    HW210358   1.971   0.714   4.373
 3438SOL     OW10359   3.709   1.755   4.056
 3438SOL    HW110360   3.779   1.725   4.120
 3438SOL    HW210361   3.724   1.851   4.032
 3439SOL     OW10362   1.892   1.590   3.847
 3439SOL    HW110363   1.875   1.493   3.866
 3439SOL    HW210364   1.871   1.643   3.928
 3440SOL     OW10365   3.553   0.920   4.372
 3440SOL    HW110366   3.638   0.870   4.356
 3440SOL    HW210367   3.530   0.974   4.290
 3441SOL     OW10368   3.516   1.104   4.156
 3441SOL    HW110369   3.605   1.100   4.111
 3441SOL    HW210370   3.519   1.171   4.230
 3442SOL     OW10371   1.984   0.749   5.306
 3442SOL    HW110372   2.080   0.778   5.308
 3442SOL    HW210373   1.925   0.830   5.305
 3443SOL     OW10374   2.474   1.391   4.457
 3443SOL    HW110375   2.429   1.303   4.470
 3443SOL    HW210376   2.461   1.423   4.363
 3444SOL     OW10377   3.150   1.234   5.145
 3444SOL    HW110378   3.176   1.164   5.080
 3444SOL    HW210379   3.210   1.230   5.225
 3445SOL     OW10380   2.685   0.030   4.245
 3445SOL    HW110381   2.725   0.119   4.224
 3445SOL    HW210382   2.585   0.039   4.246
 3446SOL     OW10383   2.052   0.961   5.002
 3446SOL    HW110384   2.142   0.919   4.988
 3446SOL    HW210385   1.984   0.915   4.945
 3447SOL     OW10386   3.394   1.001   3.929
 3447SOL    HW110387   3.320   0.941   3.958
 3447SOL    HW210388   3.441   1.038   4.009
 3448SOL     OW10389   3.043   1.812   5.347
 3448SOL    HW110390   3.051   1.881   5.275
 3448SOL    HW210391   3.063   1.722   5.309
 3449SOL     OW10392   2.182   0.270   5.513
 3449SOL    HW110393   2.246   0.336   5.554
 3449SOL    HW210394   2.096   0.272   5.563
 3450SOL     OW10395   3.327   1.420   4.670
 3450SOL    HW110396   3.261   1.440   4.742
 3450SOL    HW210397   3.319   1.325   4.642
 3451SOL     OW10398   3.511   1.751   4.299
 3451SOL    HW110399   3.494   1.722   4.206
 3451SOL    HW210400   3.491   1.676   4.362
 3452SOL     OW10401   2.455   0.718   3.996
 3452SOL    HW110402   2.460   0.804   3.947
 3452SOL    HW210403   2.386   0.725   4.069
 3453SOL     OW10404   3.144   0.368   4.673
 3453SOL    HW110405   3.047   0.344   4.676
 3453SOL    HW210406   3.194   0.317   4.743
 3454SOL     OW10407   3.445   1.673   4.032
 3454SOL    HW110408   3.542   1.700   4.028
 3454SOL    HW210409   3.412   1.656   3.939
 3455SOL     OW10410   2.654   0.616   5.179
 3455SOL    HW110411   2.628   0.589   5.272
 3455SOL    HW210412   2.618   0.550   5.113
 3456SOL     OW10413   3.256   0.474   5.405
 3456SOL    HW110414   3.255   0.520   5.493
 3456SOL    HW210415   3.312   0.392   5.411
 3457SOL     OW10416   2.815   0.885   5.308
 3457SOL    HW110417   2.873   0.813   5.269
 3457SOL    HW210418   2.760   0.927   5.235
 3458SOL     OW10419   2.857   0.411   4.950
 3458SOL    HW110420   2.770   0.433   4.994
 3458SOL    HW210421   2.840   0.362   4.865
 3459SOL     OW10422   2.913   0.699   4.148
 3459SOL    HW110423   2.935   0.694   4.246
 3459SOL    HW210424   2.826   0.652   4.131
 3460SOL     OW10425   1.950   0.829   4.504
 3460SOL    HW110426   2.036   0.816   4.554
 3460SOL    HW210427   1.901   0.908   4.542
 3461SOL     OW10428   1.990   1.874   5.312
 3461SOL    HW110429   1.995   1.846   5.408
 3461SOL    HW210430   1.905   1.839   5.272
 3462SOL     OW10431   2.751   0.355   3.924
 3462SOL    HW110432   2.798   0.416   3.860
 3462SOL    HW210433   2.723   0.272   3.877
 3463SOL     OW10434   3.562   0.572   5.549
 3463SOL    HW110435   3.526   0.652   5.500
 3463SOL    HW210436   3.590   0.502   5.483
 3464SOL     OW10437   3.242   1.143   4.257
 3464SOL    HW110438   3.327   1.128   4.206
 3464SOL    HW210439   3.186   1.210   4.209
 3465SOL     OW10440   2.363   0.189   4.637
 3465SOL    HW110441   2.404   0.220   4.723
 3465SOL    HW210442   2.388   0.252   4.563
 3466SOL     OW10443   2.856   1.443   4.187
 3466SOL    HW110444   2.825   1.524   4.137
 3466SOL    HW210445   2.839   1.456   4.285
 3467SOL     OW10446   2.218   1.814   4.595
 3467SOL    HW110447   2.262   1.725   4.602
 3467SOL    HW210448   2.285   1.886   4.614
 3468SOL     OW10449   3.660   1.056   4.597
 3468SOL    HW110450   3.609   1.033   4.514
 3468SOL    HW210451   3.597   1.062   4.674
 3469SOL     OW10452   3.088   1.536   5.238
 3469SOL    HW110453   3.076   1.462   5.304
 3469SOL    HW210454   3.020   1.528   5.166
 3470SOL     OW10455   2.183   0.959   3.979
 3470SOL    HW110456   2.271   0.980   3.936
 3470SOL    HW210457   2.147   0.874   3.942
 3471SOL     OW10458   3.346   0.751   4.447
 3471SOL    HW110459   3.339   0.708   4.537
 3471SOL    HW210460   3.425   0.811   4.444
 3472SOL     OW10461   2.331   1.266   5.455
 3472SOL    HW110462   2.305   1.272   5.358
 3472SOL    HW210463   2.249   1.263   5.511
 3473SOL     OW10464   2.984   1.776   3.950
 3473SOL    HW110465   2.904   1.738   3.998
 3473SOL    HW210466   3.013   1.711   3.880
 3474SOL     OW10467   2.054   0.271   5.238
 3474SOL    HW110468   1.996   0.351   5.223
 3474SOL    HW210469   2.078   0.265   5.334
 3475SOL     OW10470   3.486   1.382   3.813
 3475SOL    HW110471   3.448   1.473   3.797
 3475SOL    HW210472   3.417   1.313   3.794
 3476SOL     OW10473   2.326   1.734   4.042
 3476SOL    HW110474   2.368   1.797   4.108
 3476SOL    HW210475   2.397   1.698   3.982
 3477SOL     OW10476   3.287   0.133   4.149
 3477SOL    HW110477   3.266   0.089   4.062
 3477SOL    HW210478   3.386   0.139   4.160
 3478SOL     OW10479   2.120   1.791   4.949
 3478SOL    HW110480   2.171   1.718   4.995
 3478SOL    HW210481   2.102   1.765   4.855
 3479SOL     OW10482   2.798   1.702   4.620
 3479SOL    HW110483   2.881   1.656   4.651
 3479SOL    HW210484   2.756   1.650   4.546
 3480SOL     OW10485   2.258   0.686   4.199
 3480SOL    HW110486   2.277   0.589   4.212
 3480SOL    HW210487   2.161   0.703   4.216
 3481SOL     OW10488   3.390   0.230   5.451
 3481SOL    HW110489   3.405   0.234   5.549
 3481SOL    HW210490   3.303   0.184   5.433
 3482SOL     OW10491   2.508   0.110   3.826
 3482SOL    HW110492   2.546   0.036   3.881
 3482SOL    HW210493   2.444   0.072   3.759
 3483SOL     OW10494   2.624   0.277   5.492
 3483SOL    HW110495   2.713   0.232   5.483
 3483SOL    HW210496   2.571   0.232   5.563
 3484SOL     OW10497   2.736   1.514   4.917
 3484SOL    HW110498   2.717   1.478   4.826
 3484SOL    HW210499   2.809   1.460   4.959
 3485SOL     OW10500   3.204   0.591   5.161
 3485SOL    HW110501   3.233   0.556   5.250
 3485SOL    HW210502   3.238   0.684   5.149
 3486SOL     OW10503   2.682   1.388   4.666
 3486SOL    HW110504   2.772   1.377   4.624
 3486SOL    HW210505   2.613   1.395   4.594
 3487SOL     OW10506   2.789   0.511   4.618
 3487SOL    HW110507   2.761   0.505   4.522
 3487SOL    HW210508   2.821   0.421   4.649
 3488SOL     OW10509   2.417   0.067   4.217
 3488SOL    HW110510   2.336   0.056   4.274
 3488SOL    HW210511   2.403   0.142   4.153
 3489SOL     OW10512   3.287   1.199   3.767
 3489SOL    HW110513   3.321   1.122   3.820
 3489SOL    HW210514   3.199   1.229   3.803
 3490SOL     OW10515   2.175   0.049   3.909
 3490SOL    HW110516   2.213   0.141   3.911
 3490SOL    HW210517   2.224   6.991   3.975
 3491SOL     OW10518   2.812   0.266   4.180
 3491SOL    HW110519   2.782   0.301   4.091
 3491SOL    HW210520   2.911   0.274   4.187
 3492SOL     OW10521   2.942   0.685   5.177
 3492SOL    HW110522   2.868   0.619   5.189
 3492SOL    HW210523   3.030   0.636   5.177
 3493SOL     OW10524   3.081   1.570   4.518
 3493SOL    HW110525   3.095   1.640   4.448
 3493SOL    HW210526   3.153   1.578   4.588
 3494SOL     OW10527   2.331   1.152   4.451
 3494SOL    HW110528   2.265   1.132   4.523
 3494SOL    HW210529   2.288   1.140   4.362
 3495SOL     OW10530   3.124   1.791   4.335
 3495SOL    HW110531   3.176   1.853   4.276
 3495SOL    HW210532   3.051   1.842   4.380
 3496SOL     OW10533   2.880   0.536   3.758
 3496SOL    HW110534   2.836   0.622   3.734
 3496SOL    HW210535   2.951   0.552   3.826
 3497SOL     OW10536   1.954   0.552   5.121
 3497SOL    HW110537   2.047   0.552   5.085
 3497SOL    HW210538   1.944   0.626   5.188
 3498SOL     OW10539   2.433   0.243   4.900
 3498SOL    HW110540   2.485   0.170   4.945
 3498SOL    HW210541   2.337   0.237   4.930
 3499SOL     OW10542   2.728   0.466   4.359
 3499SOL    HW110543   2.677   0.526   4.297
 3499SOL    HW210544   2.756   0.383   4.309
 3500SOL     OW10545   2.819   0.027   4.494
 3500SOL    HW110546   2.762   0.028   4.412
 3500SOL    HW210547   2.891   6.958   4.483
 3501SOL     OW10548   3.308   1.161   4.582
 3501SOL    HW110549   3.231   1.096   4.586
 3501SOL    HW210550   3.337   1.171   4.488
 3502SOL     OW10551   3.328   0.609   4.693
 3502SOL    HW110552   3.267   0.531   4.694
 3502SOL    HW210553   3.391   0.604   4.770
 3503SOL     OW10554   3.703   0.809   4.104
 3503SOL    HW110555   3.761   0.761   4.170
 3503SOL    HW210556   3.674   0.745   4.033
 3504SOL     OW10557   2.349   1.421   3.879
 3504SOL    HW110558   2.268   1.394   3.932
 3504SOL    HW210559   2.348   1.374   3.790
 3505SOL     OW10560   3.538   1.267   4.367
 3505SOL    HW110561   3.637   1.264   4.379
 3505SOL    HW210562   3.504   1.359   4.387
 3506SOL     OW10563   3.253   0.576   3.795
 3506SOL    HW110564   3.189   0.552   3.869
 3506SOL    HW210565   3.347   0.562   3.827
 3507SOL     OW10566   2.383   0.262   4.025
 3507SOL    HW110567   2.441   0.213   3.960
 3507SOL    HW210568   2.359   0.352   3.988
 3508SOL     OW10569   3.614   1.241   5.282
 3508SOL    HW110570   3.704   1.199   5.269
 3508SOL    HW210571   3.626   1.334   5.317
 3509SOL     OW10572   2.915   1.350   5.060
 3509SOL    HW110573   2.833   1.320   5.110
 3509SOL    HW210574   2.996   1.310   5.102
 3510SOL     OW10575   3.476   1.630   5.381
 3510SOL    HW110576   3.460   1.665   5.289
 3510SOL    HW210577   3.561   1.578   5.383
 3511SOL     OW10578   3.000   1.221   4.829
 3511SOL    HW110579   2.940   1.255   4.901
 3511SOL    HW210580   2.967   1.252   4.740
 3512SOL     OW10581   3.485   1.096   4.803
 3512SOL    HW110582   3.481   1.162   4.879
 3512SOL    HW210583   3.410   1.114   4.740
 3513SOL     OW10584   2.755   0.151   5.111
 3513SOL    HW110585   2.771   0.118   5.018
 3513SOL    HW210586   2.842   0.178   5.153
 3514SOL     OW10587   2.841   1.115   5.445
 3514SOL    HW110588   2.747   1.134   5.472
 3514SOL    HW210589   2.843   1.032   5.389
 3515SOL     OW10590   2.575   1.059   4.097
 3515SOL    HW110591   2.558   1.041   4.194
 3515SOL    HW210592   2.654   1.005   4.067
 3516SOL     OW10593   2.286   0.817   4.978
 3516SOL    HW110594   2.359   0.829   5.045
 3516SOL    HW210595   2.247   0.726   4.987
 3517SOL     OW10596   3.122   0.378   5.011
 3517SOL    HW110597   3.159   0.457   5.060
 3517SOL    HW210598   3.027   0.397   4.985
 3518SOL     OW10599   1.937   1.572   5.078
 3518SOL    HW110600   1.901   1.642   5.016
 3518SOL    HW210601   2.037   1.570   5.071
 3519SOL     OW10602   2.202   1.120   4.211
 3519SOL    HW110603   2.207   1.202   4.154
 3519SOL    HW210604   2.200   1.039   4.152
 3520SOL     OW10605   2.414   0.546   4.585
 3520SOL    HW110606   2.428   0.606   4.506
 3520SOL    HW210607   2.485   0.565   4.653
 3521SOL     OW10608   3.108   1.355   4.117
 3521SOL    HW110609   3.169   1.427   4.148
 3521SOL    HW210610   3.014   1.375   4.147
 3522SOL     OW10611   3.151   1.462   4.871
 3522SOL    HW110612   3.209   1.468   4.953
 3522SOL    HW210613   3.097   1.378   4.875
 3523SOL     OW10614   3.434   0.622   4.210
 3523SOL    HW110615   3.385   0.675   4.279
 3523SOL    HW210616   3.486   0.683   4.151
 3524SOL     OW10617   2.210   1.530   5.033
 3524SOL    HW110618   2.194   1.485   4.945
 3524SOL    HW210619   2.308   1.544   5.046
 3525SOL     OW10620   2.281   0.744   5.326
 3525SOL    HW110621   2.344   0.793   5.265
 3525SOL    HW210622   2.320   0.654   5.348
 3526SOL     OW10623   3.471   0.786   5.410
 3526SOL    HW110624   3.380   0.827   5.407
 3526SOL    HW210625   3.528   0.826   5.338
 3527SOL     OW10626   2.860   0.137   5.457
 3527SOL    HW110627   2.904   0.179   5.378
 3527SOL    HW210628   2.860   0.037   5.446
 3528SOL     OW10629   2.325   0.037   5.483
 3528SOL    HW110630   2.258   6.965   5.468
 3528SOL    HW210631   2.278   0.125   5.491
 3529SOL     OW10632   2.446   0.874   4.757
 3529SOL    HW110633   2.483   0.967   4.756
 3529SOL    HW210634   2.386   0.863   4.837
 3530SOL     OW10635   3.211   0.858   4.746
 3530SOL    HW110636   3.119   0.848   4.708
 3530SOL    HW210637   3.260   0.771   4.738
 3531SOL     OW10638   3.060   0.527   3.987
 3531SOL    HW110639   3.072   0.444   4.042
 3531SOL    HW210640   3.015   0.597   4.043
 3532SOL     OW10641   2.171   0.208   4.971
 3532SOL    HW110642   2.107   0.216   5.047
 3532SOL    HW210643   2.162   0.118   4.929
 3533SOL     OW10644   1.915   1.310   4.999
 3533SOL    HW110645   1.946   1.248   5.071
 3533SOL    HW210646   1.917   1.404   5.032
 3534SOL     OW10647   2.591   0.637   4.778
 3534SOL    HW110648   2.665   0.616   4.715
 3534SOL    HW210649   2.553   0.727   4.757
 3535SOL     OW10650   3.599   0.961   5.581
 3535SOL    HW110651   3.556   0.892   5.523
 3535SOL    HW210652   3.539   0.981   5.659
 3536SOL     OW10653   2.184   0.059   4.354
 3536SOL    HW110654   2.160   0.153   4.381
 3536SOL    HW210655   2.137   6.995   4.414
 3537SOL     OW10656   3.489   0.394   4.066
 3537SOL    HW110657   3.518   0.316   4.121
 3537SOL    HW210658   3.457   0.467   4.127
 3538SOL     OW10659   2.887   0.757   4.682
 3538SOL    HW110660   2.881   0.778   4.779
 3538SOL    HW210661   2.859   0.662   4.666
 3539SOL     OW10662   2.843   1.563   5.442
 3539SOL    HW110663   2.826   1.610   5.356
 3539SOL    HW210664   2.891   1.477   5.424
 3540SOL     OW10665   3.716   1.503   5.327
 3540SOL    HW110666   3.735   1.529   5.233
 3540SOL    HW210667   3.799   1.514   5.382
 3541SOL     OW10668   2.215   0.918   5.528
 3541SOL    HW110669   2.294   0.940   5.585
 3541SOL    HW210670   2.242   0.852   5.458
 3542SOL     OW10671   3.401   0.233   3.859
 3542SOL    HW110672   3.301   0.232   3.865
 3542SOL    HW210673   3.439   0.292   3.930
 3543SOL     OW10674   3.150   0.826   3.749
 3543SOL    HW110675   3.190   0.735   3.757
 3543SOL    HW210676   3.181   0.869   3.664
 3544SOL     OW10677   2.932   1.338   4.579
 3544SOL    HW110678   2.937   1.260   4.517
 3544SOL    HW210679   2.991   1.412   4.545
 3545SOL     OW10680   2.174   0.810   4.666
 3545SOL    HW110681   2.270   0.836   4.660
 3545SOL    HW210682   2.167   0.715   4.698
 3546SOL     OW10683   2.196   0.540   4.735
 3546SOL    HW110684   2.153   0.451   4.724
 3546SOL    HW210685   2.277   0.546   4.677
 3547SOL     OW10686   2.987   0.415   5.396
 3547SOL    HW110687   2.939   0.455   5.473
 3547SOL    HW210688   3.085   0.435   5.403
 3548SOL     OW10689   2.995   0.225   5.212
 3548SOL    HW110690   2.994   0.302   5.277
 3548SOL    HW210691   3.053   0.249   5.133
 3549SOL     OW10692   1.862   1.314   3.919
 3549SOL    HW110693   1.773   1.334   3.879
 3549SOL    HW210694   1.863   1.221   3.954
 3550SOL     OW10695   1.956   1.782   4.668
 3550SOL    HW110696   1.919   1.702   4.622
 3550SOL    HW210697   2.049   1.800   4.636
 3551SOL     OW10698   2.355   1.576   4.629
 3551SOL    HW110699   2.425   1.642   4.655
 3551SOL    HW210700   2.395   1.509   4.567
 3552SOL     OW10701   2.835   0.794   4.947
 3552SOL    HW110702   2.895   0.769   5.023
 3552SOL    HW210703   2.746   0.750   4.959
 3553SOL     OW10704   1.898   0.551   4.845
 3553SOL    HW110705   1.975   0.533   4.784
 3553SOL    HW210706   1.929   0.552   4.940
 3554SOL     OW10707   2.047   0.531   5.454
 3554SOL    HW110708   2.126   0.498   5.403
 3554SOL    HW210709   2.007   0.609   5.407
 3555SOL     OW10710   3.243   0.935   5.378
 3555SOL    HW110711   3.266   1.032   5.379
 3555SOL    HW210712   3.239   0.902   5.284
 3556SOL     OW10713   2.679   0.577   4.085
 3556SOL    HW110714   2.689   0.496   4.027
 3556SOL    HW210715   2.600   0.630   4.054
 3557SOL     OW10716   3.503   0.605   4.903
 3557SOL    HW110717   3.484   0.545   4.980
 3557SOL    HW210718   3.595   0.586   4.868
 3558SOL     OW10719   2.101   1.546   5.449
 3558SOL    HW110720   2.080   1.621   5.513
 3558SOL    HW210721   2.108   1.460   5.500
 3559SOL     OW10722   2.573   0.460   4.979
 3559SOL    HW110723   2.517   0.382   4.953
 3559SOL    HW210724   2.572   0.528   4.904
 3560SOL     OW10725   2.781   1.681   5.197
 3560SOL    HW110726   2.755   1.634   5.112
 3560SOL    HW210727   2.781   1.780   5.181
 3561SOL     OW10728   2.320   0.495   3.902
 3561SOL    HW110729   2.385   0.566   3.929
 3561SOL    HW210730   2.229   0.535   3.892
 3562SOL     OW10731   2.003   1.138   5.200
 3562SOL    HW110732   2.005   1.094   5.290
 3562SOL    HW210733   2.023   1.070   5.129
 3563SOL     OW10734   3.177   1.043   4.942
 3563SOL    HW110735   3.204   0.976   4.874
 3563SOL    HW210736   3.110   1.106   4.902
 3564SOL     OW10737   3.179   0.856   4.022
 3564SOL    HW110738   3.102   0.829   4.081
 3564SOL    HW210739   3.153   0.844   3.926
 3565SOL     OW10740   3.643   1.728   4.882
 3565SOL    HW110741   3.704   1.762   4.810
 3565SOL    HW210742   3.611   1.636   4.857
 3566SOL     OW10743   3.103   1.732   4.828
 3566SOL    HW110744   3.189   1.762   4.786
 3566SOL    HW210745   3.109   1.636   4.852
 3567SOL     OW10746   1.949   1.264   4.734
 3567SOL    HW110747   1.933   1.280   4.832
 3567SOL    HW210748   1.876   1.206   4.697
 3568SOL     OW10749   2.543   1.675   5.462
 3568SOL    HW110750   2.480   1.752   5.456
 3568SOL    HW210751   2.617   1.687   5.395
 3569SOL     OW10752   3.567   0.167   4.192
 3569SOL    HW110753   3.652   0.150   4.143
 3569SOL    HW210754   3.564   0.110   4.274
 3570SOL     OW10755   3.258   1.571   4.212
 3570SOL    HW110756   3.320   1.603   4.141
 3570SOL    HW210757   3.202   1.647   4.245
 3571SOL     OW10758   2.008   1.787   5.570
 3571SOL    HW110759   1.951   1.718   5.615
 3571SOL    HW210760   2.057   1.840   5.639
 3572SOL     OW10761   3.144   0.929   4.389
 3572SOL    HW110762   3.219   0.865   4.407
 3572SOL    HW210763   3.178   1.005   4.335
 3573SOL     OW10764   2.664   1.279   5.149
 3573SOL    HW110765   2.635   1.323   5.234
 3573SOL    HW210766   2.594   1.294   5.079
 3574SOL     OW10767   2.530   1.622   3.878
 3574SOL    HW110768   2.547   1.641   3.781
 3574SOL    HW210769   2.472   1.541   3.887
 3575SOL     OW10770   3.478   1.729   5.111
 3575SOL    HW110771   3.536   1.729   5.030
 3575SOL    HW210772   3.464   1.823   5.142
 3576SOL     OW10773   3.729   0.160   4.681
 3576SOL    HW110774   3.727   0.060   4.672
 3576SOL    HW210775   3.638   0.197   4.664
 3577SOL     OW10776   2.121   0.312   4.439
 3577SOL    HW110777   2.032   0.349   4.412
 3577SOL    HW210778   2.128   0.311   4.539
 3578SOL     OW10779   3.071   1.600   3.757
 3578SOL    HW110780   3.061   1.506   3.790
 3578SOL    HW210781   3.003   1.617   3.685
 3579SOL     OW10782   2.685   1.010   5.103
 3579SOL    HW110783   2.737   0.993   5.019
 3579SOL    HW210784   2.682   1.108   5.121
 3580SOL     OW10785   2.782   0.911   4.011
 3580SOL    HW110786   2.843   0.946   3.940
 3580SOL    HW210787   2.829   0.839   4.063
 3581SOL     OW10788   3.350   1.631   3.766
 3581SOL    HW110789   3.251   1.619   3.755
 3581SOL    HW210790   3.394   1.636   3.677
 3582SOL     OW10791   2.227   1.303   5.211
 3582SOL    HW110792   2.218   1.384   5.152
 3582SOL    HW210793   2.147   1.244   5.200
 3583SOL     OW10794   3.475   1.285   5.009
 3583SOL    HW110795   3.538   1.265   5.084
 3583SOL    HW210796   3.409   1.354   5.038
 3584SOL     OW10797   2.925   1.107   4.440
 3584SOL    HW110798   2.848   1.057   4.479
 3584SOL    HW210799   2.993   1.042   4.407
 3585SOL     OW10800   2.886   0.249   4.675
 3585SOL    HW110801   2.864   0.202   4.590
 3585SOL    HW210802   2.876   0.186   4.752
 3586SOL     OW10803   2.467   1.486   4.203
 3586SOL    HW110804   2.519   1.432   4.137
 3586SOL    HW210805   2.392   1.533   4.157
 3587SOL     OW10806   3.596   0.392   5.100
 3587SOL    HW110807   3.665   0.464   5.105
 3587SOL    HW210808   3.632   0.315   5.047
 3588SOL     OW10809   2.115   1.348   4.012
 3588SOL    HW110810   2.019   1.341   3.985
 3588SOL    HW210811   2.120   1.387   4.104
 3589SOL     OW10812   1.977   1.036   5.453
 3589SOL    HW110813   1.895   1.008   5.504
 3589SOL    HW210814   2.057   0.990   5.491
 3590SOL     OW10815   2.531   0.239   5.234
 3590SOL    HW110816   2.612   0.214   5.180
 3590SOL    HW210817   2.560   0.271   5.324
 3591SOL     OW10818   1.938   0.333   3.758
 3591SOL    HW110819   1.842   0.310   3.740
 3591SOL    HW210820   1.963   0.414   3.704
 3592SOL     OW10821   3.285   0.858   5.119
 3592SOL    HW110822   3.229   0.921   5.065
 3592SOL    HW210823   3.379   0.858   5.084
 3593SOL     OW10824   1.933   0.178   4.040
 3593SOL    HW110825   1.938   0.248   3.969
 3593SOL    HW210826   1.982   0.097   4.009
 3594SOL     OW10827   3.042   1.337   3.845
 3594SOL    HW110828   2.947   1.307   3.838
 3594SOL    HW210829   3.070   1.338   3.941
 3595SOL     OW10830   2.486   0.830   5.158
 3595SOL    HW110831   2.543   0.911   5.143
 3595SOL    HW210832   2.545   0.750   5.169
 3596SOL     OW10833   3.347   1.790   4.712
 3596SOL    HW110834   3.368   1.854   4.638
 3596SOL    HW210835   3.432   1.754   4.751
 3597SOL     OW10836   2.582   0.557   5.431
 3597SOL    HW110837   2.628   0.627   5.486
 3597SOL    HW210838   2.602   0.467   5.469
 3598SOL     OW10839   3.336   1.196   5.358
 3598SOL    HW110840   3.321   1.209   5.456
 3598SOL    HW210841   3.432   1.215   5.336
 3599SOL     OW10842   2.232   1.738   5.291
 3599SOL    HW110843   2.148   1.791   5.276
 3599SOL    HW210844   2.209   1.651   5.333
 3600SOL     OW10845   3.527   0.878   4.980
 3600SOL    HW110846   3.522   0.787   4.939
 3600SOL    HW210847   3.514   0.948   4.909
 3601SOL     OW10848   3.087   0.319   4.180
 3601SOL    HW110849   3.157   0.248   4.172
 3601SOL    HW210850   3.105   0.376   4.260
 3602SOL     OW10851   2.450   0.737   4.391
 3602SOL    HW110852   2.490   0.828   4.380
 3602SOL    HW210853   2.380   0.723   4.321
 3603SOL     OW10854   3.610   0.369   5.372
 3603SOL    HW110855   3.602   0.384   5.274
 3603SOL    HW210856   3.537   0.308   5.403
 3604SOL     OW10857   3.615   0.932   5.233
 3604SOL    HW110858   3.602   1.029   5.255
 3604SOL    HW210859   3.593   0.916   5.137
 3605SOL     OW10860   2.729   1.363   3.769
 3605SOL    HW110861   2.688   1.387   3.857
 3605SOL    HW210862   2.743   1.447   3.716
 3606SOL     OW10863   2.527   1.783   4.665
 3606SOL    HW110864   2.504   1.878   4.645
 3606SOL    HW210865   2.626   1.770   4.654
 3607SOL     OW10866   2.731   0.971   4.580
 3607SOL    HW110867   2.783   0.893   4.616
 3607SOL    HW210868   2.688   1.020   4.655
 3608SOL     OW10869   2.939   0.989   3.808
 3608SOL    HW110870   2.912   1.043   3.728
 3608SOL    HW210871   3.017   0.931   3.783
 3609SOL     OW10872   3.707   1.556   4.571
 3609SOL    HW110873   3.630   1.544   4.508
 3609SOL    HW210874   3.702   1.488   4.643
 3610SOL     OW10875   2.094   1.298   5.581
 3610SOL    HW110876   2.029   1.230   5.546
 3610SOL    HW210877   2.078   1.311   5.678
 3611SOL     OW10878   1.950   1.229   4.387
 3611SOL    HW110879   1.956   1.184   4.476
 3611SOL    HW210880   2.018   1.189   4.325
 3612SOL     OW10881   2.545   1.410   5.358
 3612SOL    HW110882   2.464   1.360   5.390
 3612SOL    HW210883   2.544   1.503   5.395
 3613SOL     OW10884   3.712   0.183   4.969
 3613SOL    HW110885   3.632   0.124   4.961
 3613SOL    HW210886   3.744   0.209   4.878
 3614SOL     OW10887   2.292   0.425   4.248
 3614SOL    HW110888   2.327   0.355   4.186
 3614SOL    HW210889   2.239   0.383   4.321
 3615SOL     OW10890   3.555   1.482   4.817
 3615SOL    HW110891   3.474   1.464   4.761
 3615SOL    HW210892   3.562   1.411   4.888
 3616SOL     OW10893   2.197   0.559   5.011
 3616SOL    HW110894   2.254   0.501   5.070
 3616SOL    HW210895   2.214   0.537   4.916
 3617SOL     OW10896   2.691   1.580   4.402
 3617SOL    HW110897   2.676   1.643   4.326
 3617SOL    HW210898   2.614   1.516   4.408
 3618SOL     OW10899   3.275   0.217   4.853
 3618SOL    HW110900   3.356   0.172   4.891
 3618SOL    HW210901   3.227   0.265   4.926
 3619SOL     OW10902   2.837   0.056   4.862
 3619SOL    HW110903   2.782   6.994   4.807
 3619SOL    HW210904   2.891   0.004   4.927
 3620SOL     OW10905   2.637   1.331   4.046
 3620SOL    HW110906   2.609   1.236   4.054
 3620SOL    HW210907   2.721   1.347   4.096
 3621SOL     OW10908   2.485   1.559   5.014
 3621SOL    HW110909   2.482   1.646   5.063
 3621SOL    HW210910   2.576   1.547   4.974
 3622SOL     OW10911   3.182   0.014   3.917
 3622SOL    HW110912   3.229   6.944   3.863
 3622SOL    HW210913   3.105   6.972   3.965
 3623SOL     OW10914   3.129   0.454   4.411
 3623SOL    HW110915   3.084   0.544   4.408
 3623SOL    HW210916   3.148   0.430   4.506
 3624SOL     OW10917   3.482   0.257   4.639
 3624SOL    HW110918   3.394   0.239   4.682
 3624SOL    HW210919   3.470   0.321   4.563
 3625SOL     OW10920   1.905   1.063   4.032
 3625SOL    HW110921   2.003   1.063   4.013
 3625SOL    HW210922   1.875   0.970   4.054
 3626SOL     OW10923   2.747   1.664   4.064
 3626SOL    HW110924   2.671   1.642   4.001
 3626SOL    HW210925   2.721   1.741   4.122
 3627SOL     OW10926   2.080   0.620   5.715
 3627SOL    HW110927   1.991   0.618   5.759
 3627SOL    HW210928   2.070   0.599   5.618
 3628SOL     OW10929   2.077   0.309   6.587
 3628SOL    HW110930   2.120   0.267   6.667
 3628SOL    HW210931   1.997   0.256   6.559
 3629SOL     OW10932   1.872   0.396   6.213
 3629SOL    HW110933   1.784   0.416   6.255
 3629SOL    HW210934   1.861   0.324   6.144
 3630SOL     OW10935   2.420   1.286   6.759
 3630SOL    HW110936   2.332   1.302   6.714
 3630SOL    HW210937   2.448   1.369   6.807
 3631SOL     OW10938   3.427   1.513   6.294
 3631SOL    HW110939   3.382   1.490   6.380
 3631SOL    HW210940   3.359   1.521   6.221
 3632SOL     OW10941   2.996   0.703   6.281
 3632SOL    HW110942   3.047   0.787   6.266
 3632SOL    HW210943   2.943   0.711   6.365
 3633SOL     OW10944   3.633   0.601   5.807
 3633SOL    HW110945   3.610   0.598   5.709
 3633SOL    HW210946   3.594   0.521   5.853
 3634SOL     OW10947   2.618   1.144   6.630
 3634SOL    HW110948   2.545   1.170   6.693
 3634SOL    HW210949   2.650   1.224   6.581
 3635SOL     OW10950   2.546   0.999   6.234
 3635SOL    HW110951   2.616   0.989   6.304
 3635SOL    HW210952   2.471   1.055   6.271
 3636SOL     OW10953   2.192   1.410   6.643
 3636SOL    HW110954   2.111   1.371   6.601
 3636SOL    HW210955   2.239   1.469   6.578
 3637SOL     OW10956   3.480   0.460   6.314
 3637SOL    HW110957   3.421   0.488   6.238
 3637SOL    HW210958   3.479   0.530   6.385
 3638SOL     OW10959   2.084   1.714   6.057
 3638SOL    HW110960   2.102   1.793   6.116
 3638SOL    HW210961   2.159   1.704   5.991
 3639SOL     OW10962   2.096   1.443   6.122
 3639SOL    HW110963   2.079   1.542   6.122
 3639SOL    HW210964   2.036   1.399   6.189
 3640SOL     OW10965   2.131   1.092   6.489
 3640SOL    HW110966   2.128   0.997   6.522
 3640SOL    HW210967   2.070   1.148   6.545
 3641SOL     OW10968   2.472   1.805   6.988
 3641SOL    HW110969   2.383   1.778   0.025
 3641SOL    HW210970   2.496   1.896   0.020
 3642SOL     OW10971   2.443   0.988   5.728
 3642SOL    HW110972   2.490   1.034   5.653
 3642SOL    HW210973   2.483   1.016   5.815
 3643SOL     OW10974   1.977   0.662   6.150
 3643SOL    HW110975   1.949   0.568   6.168
 3643SOL    HW210976   1.971   0.715   6.235
 3644SOL     OW10977   3.708   1.755   5.918
 3644SOL    HW110978   3.779   1.725   5.982
 3644SOL    HW210979   3.723   1.851   5.894
 3645SOL     OW10980   1.892   1.590   5.709
 3645SOL    HW110981   1.875   1.493   5.728
 3645SOL    HW210982   1.871   1.643   5.790
 3646SOL     OW10983   3.553   0.920   6.232
 3646SOL    HW110984   3.638   0.870   6.217
 3646SOL    HW210985   3.531   0.974   6.151
 3647SOL     OW10986   3.516   1.104   6.018
 3647SOL    HW110987   3.605   1.100   5.973
 3647SOL    HW210988   3.519   1.171   6.092
 3648SOL     OW10989   2.474   1.391   6.319
 3648SOL    HW110990   2.427   1.303   6.332
 3648SOL    HW210991   2.460   1.422   6.225
 3649SOL     OW10992   2.685   0.030   6.102
 3649SOL    HW110993   2.725   0.119   6.084
 3649SOL    HW210994   2.585   0.038   6.106
 3650SOL     OW10995   2.055   0.975   6.841
 3650SOL    HW110996   2.138   0.920   6.827
 3650SOL    HW210997   1.975   0.919   6.821
 3651SOL     OW10998   3.394   1.001   5.791
 3651SOL    HW110999   3.320   0.941   5.820
 3651SOL    HW211000   3.441   1.038   5.871
 3652SOL     OW11001   3.313   1.423   6.530
 3652SOL    HW111002   3.255   1.437   6.611
 3652SOL    HW211003   3.310   1.327   6.503
 3653SOL     OW11004   3.510   1.752   6.161
 3653SOL    HW111005   3.493   1.721   6.068
 3653SOL    HW211006   3.492   1.678   6.225
 3654SOL     OW11007   2.455   0.718   5.858
 3654SOL    HW111008   2.460   0.804   5.808
 3654SOL    HW211009   2.386   0.725   5.930
 3655SOL     OW11010   3.144   0.366   6.537
 3655SOL    HW111011   3.047   0.342   6.537
 3655SOL    HW211012   3.192   0.315   6.608
 3656SOL     OW11013   3.445   1.672   5.894
 3656SOL    HW111014   3.541   1.699   5.891
 3656SOL    HW211015   3.412   1.655   5.801
 3657SOL     OW11016   2.656   0.624   0.042
 3657SOL    HW111017   2.596   0.655   0.115
 3657SOL    HW211018   2.606   0.563   6.981
 3658SOL     OW11019   2.867   0.391   6.794
 3658SOL    HW111020   2.818   0.449   6.859
 3658SOL    HW211021   2.803   0.352   6.728
 3659SOL     OW11022   2.913   0.699   6.011
 3659SOL    HW111023   2.935   0.694   6.108
 3659SOL    HW211024   2.826   0.652   5.994
 3660SOL     OW11025   1.952   0.828   6.366
 3660SOL    HW111026   2.037   0.816   6.417
 3660SOL    HW211027   1.903   0.907   6.403
 3661SOL     OW11028   2.005   1.831   0.136
 3661SOL    HW111029   1.947   1.790   0.206
 3661SOL    HW211030   1.951   1.851   0.055
 3662SOL     OW11031   2.751   0.356   5.787
 3662SOL    HW111032   2.798   0.416   5.722
 3662SOL    HW211033   2.724   0.272   5.740
 3663SOL     OW11034   3.242   1.143   6.118
 3663SOL    HW111035   3.327   1.128   6.068
 3663SOL    HW211036   3.186   1.210   6.070
 3664SOL     OW11037   2.365   0.198   6.501
 3664SOL    HW111038   2.411   0.243   6.577
 3664SOL    HW211039   2.384   0.247   6.416
 3665SOL     OW11040   2.856   1.443   6.049
 3665SOL    HW111041   2.825   1.524   5.999
 3665SOL    HW211042   2.839   1.456   6.147
 3666SOL     OW11043   2.218   1.815   6.457
 3666SOL    HW111044   2.262   1.726   6.464
 3666SOL    HW211045   2.285   1.887   6.475
 3667SOL     OW11046   3.663   1.056   6.453
 3667SOL    HW111047   3.613   1.032   6.370
 3667SOL    HW211048   3.601   1.057   6.531
 3668SOL     OW11049   2.183   0.959   5.841
 3668SOL    HW111050   2.270   0.980   5.798
 3668SOL    HW211051   2.146   0.874   5.804
 3669SOL     OW11052   3.345   0.751   6.307
 3669SOL    HW111053   3.338   0.706   6.396
 3669SOL    HW211054   3.425   0.810   6.306
 3670SOL     OW11055   2.984   1.776   5.812
 3670SOL    HW111056   2.904   1.739   5.860
 3670SOL    HW211057   3.014   1.711   5.741
 3671SOL     OW11058   3.486   1.382   5.675
 3671SOL    HW111059   3.448   1.473   5.659
 3671SOL    HW211060   3.417   1.313   5.655
 3672SOL     OW11061   2.326   1.735   5.904
 3672SOL    HW111062   2.368   1.797   5.970
 3672SOL    HW211063   2.397   1.698   5.844
 3673SOL     OW11064   3.288   0.133   6.010
 3673SOL    HW111065   3.267   0.089   5.923
 3673SOL    HW211066   3.387   0.139   6.021
 3674SOL     OW11067   2.124   1.796   6.812
 3674SOL    HW111068   2.168   1.726   6.869
 3674SOL    HW211069   2.105   1.759   6.722
 3675SOL     OW11070   2.799   1.700   6.481
 3675SOL    HW111071   2.884   1.656   6.507
 3675SOL    HW211072   2.756   1.649   6.406
 3676SOL     OW11073   2.258   0.686   6.060
 3676SOL    HW111074   2.277   0.589   6.074
 3676SOL    HW211075   2.161   0.703   6.078
 3677SOL     OW11076   2.508   0.110   5.688
 3677SOL    HW111077   2.546   0.036   5.743
 3677SOL    HW211078   2.444   0.072   5.621
 3678SOL     OW11079   2.725   1.516   6.764
 3678SOL    HW111080   2.709   1.483   6.671
 3678SOL    HW211081   2.767   1.444   6.819
 3679SOL     OW11082   2.681   1.388   6.520
 3679SOL    HW111083   2.771   1.377   6.479
 3679SOL    HW211084   2.611   1.394   6.449
 3680SOL     OW11085   2.791   0.510   6.481
 3680SOL    HW111086   2.761   0.505   6.386
 3680SOL    HW211087   2.828   0.422   6.510
 3681SOL     OW11088   2.417   0.068   6.081
 3681SOL    HW111089   2.335   0.057   6.138
 3681SOL    HW211090   2.402   0.142   6.016
 3682SOL     OW11091   3.287   1.199   5.629
 3682SOL    HW111092   3.321   1.122   5.682
 3682SOL    HW211093   3.199   1.228   5.665
 3683SOL     OW11094   2.175   0.049   5.772
 3683SOL    HW111095   2.213   0.141   5.773
 3683SOL    HW211096   2.224   6.991   5.836
 3684SOL     OW11097   2.812   0.267   6.042
 3684SOL    HW111098   2.782   0.302   5.953
 3684SOL    HW211099   2.911   0.274   6.049
 3685SOL     OW11100   3.079   1.571   6.382
 3685SOL    HW111101   3.094   1.642   6.312
 3685SOL    HW211102   3.159   1.568   6.443
 3686SOL     OW11103   2.330   1.152   6.314
 3686SOL    HW111104   2.264   1.132   6.386
 3686SOL    HW211105   2.287   1.139   6.225
 3687SOL     OW11106   3.123   1.791   6.197
 3687SOL    HW111107   3.176   1.853   6.139
 3687SOL    HW211108   3.049   1.842   6.241
 3688SOL     OW11109   2.880   0.536   5.620
 3688SOL    HW111110   2.836   0.622   5.596
 3688SOL    HW211111   2.951   0.552   5.688
 3689SOL     OW11112   2.440   0.219   6.779
 3689SOL    HW111113   2.460   0.126   6.747
 3689SOL    HW211114   2.342   0.227   6.800
 3690SOL     OW11115   2.726   0.467   6.221
 3690SOL    HW111116   2.677   0.526   6.158
 3690SOL    HW211117   2.755   0.384   6.173
 3691SOL     OW11118   2.818   0.030   6.349
 3691SOL    HW111119   2.763   0.027   6.265
 3691SOL    HW211120   2.888   6.960   6.345
 3692SOL     OW11121   3.302   1.160   6.442
 3692SOL    HW111122   3.233   1.088   6.444
 3692SOL    HW211123   3.334   1.173   6.348
 3693SOL     OW11124   3.327   0.606   6.549
 3693SOL    HW111125   3.266   0.528   6.556
 3693SOL    HW211126   3.392   0.604   6.625
 3694SOL     OW11127   3.703   0.809   5.966
 3694SOL    HW111128   3.762   0.761   6.032
 3694SOL    HW211129   3.675   0.744   5.895
 3695SOL     OW11130   2.349   1.421   5.741
 3695SOL    HW111131   2.268   1.394   5.794
 3695SOL    HW211132   2.348   1.374   5.653
 3696SOL     OW11133   3.537   1.267   6.229
 3696SOL    HW111134   3.637   1.263   6.241
 3696SOL    HW211135   3.505   1.359   6.250
 3697SOL     OW11136   3.253   0.576   5.658
 3697SOL    HW111137   3.189   0.552   5.731
 3697SOL    HW211138   3.347   0.562   5.689
 3698SOL     OW11139   2.383   0.262   5.887
 3698SOL    HW111140   2.441   0.213   5.822
 3698SOL    HW211141   2.359   0.352   5.850
 3699SOL     OW11142   3.622   1.177   0.169
 3699SOL    HW111143   3.719   1.165   0.152
 3699SOL    HW211144   3.594   1.269   0.144
 3700SOL     OW11145   2.979   1.239   6.694
 3700SOL    HW111146   2.897   1.194   6.727
 3700SOL    HW211147   2.967   1.265   6.598
 3701SOL     OW11148   3.480   1.083   6.649
 3701SOL    HW111149   3.480   1.154   6.720
 3701SOL    HW211150   3.406   1.101   6.584
 3702SOL     OW11151   2.575   1.059   5.959
 3702SOL    HW111152   2.558   1.041   6.056
 3702SOL    HW211153   2.654   1.005   5.929
 3703SOL     OW11154   2.288   0.814   6.847
 3703SOL    HW111155   2.343   0.840   6.926
 3703SOL    HW211156   2.252   0.722   6.861
 3704SOL     OW11157   3.126   0.383   6.873
 3704SOL    HW111158   3.156   0.460   6.928
 3704SOL    HW211159   3.034   0.401   6.838
 3705SOL     OW11160   1.932   1.578   6.937
 3705SOL    HW111161   1.897   1.647   6.874
 3705SOL    HW211162   2.031   1.571   6.926
 3706SOL     OW11163   2.202   1.120   6.073
 3706SOL    HW111164   2.207   1.202   6.016
 3706SOL    HW211165   2.201   1.039   6.015
 3707SOL     OW11166   2.413   0.546   6.447
 3707SOL    HW111167   2.426   0.605   6.367
 3707SOL    HW211168   2.484   0.566   6.515
 3708SOL     OW11169   3.108   1.355   5.978
 3708SOL    HW111170   3.169   1.427   6.010
 3708SOL    HW211171   3.014   1.375   6.008
 3709SOL     OW11172   3.144   1.450   6.748
 3709SOL    HW111173   3.182   1.438   6.840
 3709SOL    HW211174   3.081   1.375   6.727
 3710SOL     OW11175   3.433   0.623   6.070
 3710SOL    HW111176   3.385   0.675   6.140
 3710SOL    HW211177   3.486   0.685   6.012
 3711SOL     OW11178   2.203   1.530   6.882
 3711SOL    HW111179   2.188   1.476   6.799
 3711SOL    HW211180   2.301   1.545   6.894
 3712SOL     OW11181   2.447   0.870   6.624
 3712SOL    HW111182   2.480   0.965   6.619
 3712SOL    HW211183   2.387   0.860   6.703
 3713SOL     OW11184   3.206   0.856   6.594
 3713SOL    HW111185   3.115   0.840   6.556
 3713SOL    HW211186   3.260   0.772   6.590
 3714SOL     OW11187   3.060   0.527   5.849
 3714SOL    HW111188   3.072   0.444   5.904
 3714SOL    HW211189   3.015   0.597   5.905
 3715SOL     OW11190   2.174   0.209   6.833
 3715SOL    HW111191   2.117   0.209   6.915
 3715SOL    HW211192   2.171   0.118   6.791
 3716SOL     OW11193   1.897   1.314   6.870
 3716SOL    HW111194   1.942   1.254   6.937
 3716SOL    HW211195   1.906   1.409   6.900
 3717SOL     OW11196   2.588   0.627   6.640
 3717SOL    HW111197   2.666   0.609   6.581
 3717SOL    HW211198   2.555   0.721   6.624
 3718SOL     OW11199   2.184   0.059   6.219
 3718SOL    HW111200   2.159   0.152   6.246
 3718SOL    HW211201   2.126   6.994   6.268
 3719SOL     OW11202   3.489   0.395   5.928
 3719SOL    HW111203   3.518   0.316   5.983
 3719SOL    HW211204   3.457   0.468   5.988
 3720SOL     OW11205   2.885   0.757   6.550
 3720SOL    HW111206   2.877   0.777   6.648
 3720SOL    HW211207   2.859   0.662   6.533
 3721SOL     OW11208   3.401   0.233   5.721
 3721SOL    HW111209   3.301   0.232   5.728
 3721SOL    HW211210   3.439   0.292   5.792
 3722SOL     OW11211   3.150   0.826   5.611
 3722SOL    HW111212   3.189   0.734   5.619
 3722SOL    HW211213   3.181   0.868   5.526
 3723SOL     OW11214   2.934   1.338   6.439
 3723SOL    HW111215   2.938   1.260   6.377
 3723SOL    HW211216   2.991   1.412   6.404
 3724SOL     OW11217   2.176   0.808   6.527
 3724SOL    HW111218   2.272   0.834   6.521
 3724SOL    HW211219   2.169   0.714   6.560
 3725SOL     OW11220   2.202   0.540   6.608
 3725SOL    HW111221   2.155   0.453   6.593
 3725SOL    HW211222   2.281   0.547   6.547
 3726SOL     OW11223   2.996   0.220   0.067
 3726SOL    HW111224   3.018   0.286   0.139
 3726SOL    HW211225   3.026   0.255   6.979
 3727SOL     OW11226   1.862   1.314   5.781
 3727SOL    HW111227   1.773   1.334   5.741
 3727SOL    HW211228   1.863   1.221   5.816
 3728SOL     OW11229   1.955   1.786   6.527
 3728SOL    HW111230   1.918   1.704   6.482
 3728SOL    HW211231   2.049   1.801   6.497
 3729SOL     OW11232   2.355   1.578   6.489
 3729SOL    HW111233   2.425   1.643   6.518
 3729SOL    HW211234   2.395   1.510   6.428
 3730SOL     OW11235   2.840   0.794   6.822
 3730SOL    HW111236   2.920   0.776   6.879
 3730SOL    HW211237   2.759   0.750   6.862
 3731SOL     OW11238   1.912   0.559   6.710
 3731SOL    HW111239   1.959   0.507   6.638
 3731SOL    HW211240   1.979   0.587   6.779
 3732SOL     OW11241   2.679   0.577   5.947
 3732SOL    HW111242   2.690   0.496   5.889
 3732SOL    HW211243   2.600   0.630   5.917
 3733SOL     OW11244   3.510   0.612   6.750
 3733SOL    HW111245   3.496   0.554   6.831
 3733SOL    HW211246   3.605   0.602   6.719
 3734SOL     OW11247   2.539   0.468   6.853
 3734SOL    HW111248   2.508   0.377   6.825
 3734SOL    HW211249   2.551   0.525   6.772
 3735SOL     OW11250   2.806   1.662   6.995
 3735SOL    HW111251   2.772   1.649   6.902
 3735SOL    HW211252   2.787   1.756   0.025
 3736SOL     OW11253   2.320   0.495   5.764
 3736SOL    HW111254   2.385   0.566   5.791
 3736SOL    HW211255   2.229   0.535   5.754
 3737SOL     OW11256   2.019   1.143   0.049
 3737SOL    HW111257   2.069   1.105   0.127
 3737SOL    HW211258   2.031   1.083   6.969
 3738SOL     OW11259   3.144   1.004   6.814
 3738SOL    HW111260   3.182   0.953   6.736
 3738SOL    HW211261   3.122   1.097   6.785
 3739SOL     OW11262   3.178   0.856   5.884
 3739SOL    HW111263   3.102   0.829   5.943
 3739SOL    HW211264   3.153   0.844   5.788
 3740SOL     OW11265   3.618   1.757   6.726
 3740SOL    HW111266   3.693   1.780   6.663
 3740SOL    HW211267   3.595   1.661   6.716
 3741SOL     OW11268   3.110   1.725   6.699
 3741SOL    HW111269   3.194   1.754   6.653
 3741SOL    HW211270   3.115   1.627   6.718
 3742SOL     OW11271   1.944   1.270   6.600
 3742SOL    HW111272   1.927   1.281   6.698
 3742SOL    HW211273   1.876   1.207   6.562
 3743SOL     OW11274   3.567   0.168   6.055
 3743SOL    HW111275   3.652   0.149   6.005
 3743SOL    HW211276   3.563   0.110   6.136
 3744SOL     OW11277   3.258   1.571   6.075
 3744SOL    HW111278   3.320   1.602   6.003
 3744SOL    HW211279   3.202   1.647   6.107
 3745SOL     OW11280   3.144   0.929   6.252
 3745SOL    HW111281   3.219   0.865   6.269
 3745SOL    HW211282   3.177   1.005   6.197
 3746SOL     OW11283   2.530   1.622   5.740
 3746SOL    HW111284   2.547   1.641   5.643
 3746SOL    HW211285   2.472   1.541   5.749
 3747SOL     OW11286   3.728   0.162   6.537
 3747SOL    HW111287   3.725   0.062   6.532
 3747SOL    HW211288   3.636   0.199   6.520
 3748SOL     OW11289   2.121   0.312   6.303
 3748SOL    HW111290   2.032   0.349   6.273
 3748SOL    HW211291   2.126   0.314   6.403
 3749SOL     OW11292   3.071   1.600   5.619
 3749SOL    HW111293   3.061   1.506   5.652
 3749SOL    HW211294   3.003   1.617   5.547
 3750SOL     OW11295   2.637   1.026   6.953
 3750SOL    HW111296   2.695   0.981   6.885
 3750SOL    HW211297   2.684   1.107   6.989
 3751SOL     OW11298   2.782   0.911   5.873
 3751SOL    HW111299   2.843   0.946   5.802
 3751SOL    HW211300   2.829   0.839   5.925
 3752SOL     OW11301   3.350   1.631   5.628
 3752SOL    HW111302   3.251   1.619   5.617
 3752SOL    HW211303   3.394   1.636   5.539
 3753SOL     OW11304   3.478   1.279   6.834
 3753SOL    HW111305   3.568   1.278   6.876
 3753SOL    HW211306   3.409   1.257   6.904
 3754SOL     OW11307   2.925   1.106   6.302
 3754SOL    HW111308   2.847   1.056   6.340
 3754SOL    HW211309   2.993   1.042   6.268
 3755SOL     OW11310   2.887   0.246   6.523
 3755SOL    HW111311   2.860   0.194   6.442
 3755SOL    HW211312   2.886   0.186   6.603
 3756SOL     OW11313   2.467   1.486   6.066
 3756SOL    HW111314   2.519   1.432   5.999
 3756SOL    HW211315   2.392   1.533   6.019
 3757SOL     OW11316   3.562   0.432   6.948
 3757SOL    HW111317   3.624   0.441   0.026
 3757SOL    HW211318   3.576   0.344   6.903
 3758SOL     OW11319   2.115   1.348   5.874
 3758SOL    HW111320   2.019   1.341   5.847
 3758SOL    HW211321   2.120   1.387   5.966
 3759SOL     OW11322   1.938   0.333   5.620
 3759SOL    HW111323   1.842   0.310   5.603
 3759SOL    HW211324   1.963   0.414   5.566
 3760SOL     OW11325   1.934   0.178   5.902
 3760SOL    HW111326   1.937   0.248   5.832
 3760SOL    HW211327   1.983   0.097   5.871
 3761SOL     OW11328   3.042   1.337   5.707
 3761SOL    HW111329   2.947   1.307   5.700
 3761SOL    HW211330   3.070   1.338   5.803
 3762SOL     OW11331   3.354   1.786   6.580
 3762SOL    HW111332   3.366   1.848   6.503
 3762SOL    HW211333   3.442   1.766   6.622
 3763SOL     OW11334   3.355   1.295   0.282
 3763SOL    HW111335   3.263   1.296   0.322
 3763SOL    HW211336   3.380   1.200   0.261
 3764SOL     OW11337   2.248   1.726   0.100
 3764SOL    HW111338   2.160   1.769   0.116
 3764SOL    HW211339   2.246   1.632   0.135
 3765SOL     OW11340   3.561   0.878   6.828
 3765SOL    HW111341   3.530   0.788   6.799
 3765SOL    HW211342   3.526   0.947   6.765
 3766SOL     OW11343   3.087   0.319   6.042
 3766SOL    HW111344   3.156   0.248   6.034
 3766SOL    HW211345   3.105   0.376   6.122
 3767SOL     OW11346   2.448   0.738   6.253
 3767SOL    HW111347   2.489   0.828   6.242
 3767SOL    HW211348   2.379   0.723   6.183
 3768SOL     OW11349   3.628   0.903   0.095
 3768SOL    HW111350   3.619   0.999   0.121
 3768SOL    HW211351   3.604   0.893   6.998
 3769SOL     OW11352   2.729   1.363   5.631
 3769SOL    HW111353   2.687   1.387   5.719
 3769SOL    HW211354   2.744   1.446   5.577
 3770SOL     OW11355   2.529   1.784   6.532
 3770SOL    HW111356   2.505   1.878   6.507
 3770SOL    HW211357   2.627   1.770   6.519
 3771SOL     OW11358   2.731   0.971   6.443
 3771SOL    HW111359   2.781   0.892   6.480
 3771SOL    HW211360   2.690   1.023   6.518
 3772SOL     OW11361   2.939   0.989   5.669
 3772SOL    HW111362   2.912   1.043   5.590
 3772SOL    HW211363   3.017   0.931   5.645
 3773SOL     OW11364   3.710   1.558   6.432
 3773SOL    HW111365   3.631   1.544   6.373
 3773SOL    HW211366   3.706   1.494   6.509
 3774SOL     OW11367   1.950   1.230   6.250
 3774SOL    HW111368   1.949   1.181   6.337
 3774SOL    HW211369   2.019   1.189   6.190
 3775SOL     OW11370   3.711   0.189   6.848
 3775SOL    HW111371   3.638   0.122   6.861
 3775SOL    HW211372   3.722   0.208   6.750
 3776SOL     OW11373   2.292   0.425   6.110
 3776SOL    HW111374   2.326   0.355   6.048
 3776SOL    HW211375   2.238   0.382   6.183
 3777SOL     OW11376   3.537   1.503   6.678
 3777SOL    HW111377   3.461   1.484   6.615
 3777SOL    HW211378   3.545   1.427   6.743
 3778SOL     OW11379   2.175   0.552   6.880
 3778SOL    HW111380   2.243   0.498   6.929
 3778SOL    HW211381   2.190   0.543   6.782
 3779SOL     OW11382   2.691   1.580   6.262
 3779SOL    HW111383   2.678   1.644   6.186
 3779SOL    HW211384   2.613   1.517   6.267
 3780SOL     OW11385   3.273   0.215   6.719
 3780SOL    HW111386   3.360   0.179   6.753
 3780SOL    HW211387   3.229   0.268   6.791
 3781SOL     OW11388   2.857   0.053   6.711
 3781SOL    HW111389   2.775   6.999   6.692
 3781SOL    HW211390   2.898   0.020   6.796
 3782SOL     OW11391   2.636   1.332   5.908
 3782SOL    HW111392   2.609   1.236   5.916
 3782SOL    HW211393   2.722   1.346   5.958
 3783SOL     OW11394   2.478   1.561   6.867
 3783SOL    HW111395   2.475   1.656   6.898
 3783SOL    HW211396   2.565   1.543   6.822
 3784SOL     OW11397   3.182   0.014   5.779
 3784SOL    HW111398   3.229   6.944   5.724
 3784SOL    HW211399   3.105   6.972   5.828
 3785SOL     OW11400   3.129   0.454   6.274
 3785SOL    HW111401   3.084   0.543   6.272
 3785SOL    HW211402   3.148   0.429   6.369
 3786SOL     OW11403   3.480   0.260   6.497
 3786SOL    HW111404   3.389   0.239   6.534
 3786SOL    HW211405   3.471   0.324   6.421
 3787SOL     OW11406   1.905   1.063   5.894
 3787SOL    HW111407   2.003   1.063   5.875
 3787SOL    HW211408   1.875   0.970   5.916
 3788SOL     OW11409   2.746   1.664   5.926
 3788SOL    HW111410   2.671   1.643   5.863
 3788SOL    HW211411   2.721   1.741   5.984
 3789SOL     OW11412   2.080   2.497   0.136
 3789SOL    HW111413   1.984   2.482   0.160
 3789SOL    HW211414   2.094   2.481   0.039
 3790SOL     OW11415   2.085   2.145   0.995
 3790SOL    HW111416   2.117   2.110   1.083
 3790SOL    HW211417   1.992   2.112   0.978
 3791SOL     OW11418   1.863   2.253   0.636
 3791SOL    HW111419   1.779   2.282   0.682
 3791SOL    HW211420   1.845   2.169   0.585
 3792SOL     OW11421   2.431   3.161   1.187
 3792SOL    HW111422   2.341   3.157   1.144
 3792SOL    HW211423   2.449   3.253   1.220
 3793SOL     OW11424   3.428   3.376   0.709
 3793SOL    HW111425   3.386   3.350   0.796
 3793SOL    HW211426   3.357   3.379   0.638
 3794SOL     OW11427   2.994   2.564   0.695
 3794SOL    HW111428   3.048   2.647   0.680
 3794SOL    HW211429   2.944   2.572   0.781
 3795SOL     OW11430   3.648   2.438   0.197
 3795SOL    HW111431   3.583   2.492   0.144
 3795SOL    HW211432   3.599   2.379   0.260
 3796SOL     OW11433   2.604   3.002   1.042
 3796SOL    HW111434   2.537   3.037   1.107
 3796SOL    HW211435   2.649   3.079   0.995
 3797SOL     OW11436   2.737   2.625   1.821
 3797SOL    HW111437   2.725   2.692   1.894
 3797SOL    HW211438   2.761   2.671   1.736
 3798SOL     OW11439   2.545   2.858   0.650
 3798SOL    HW111440   2.616   2.850   0.719
 3798SOL    HW211441   2.471   2.915   0.685
 3799SOL     OW11442   2.573   3.015   1.819
 3799SOL    HW111443   2.626   3.093   1.852
 3799SOL    HW211444   2.489   3.047   1.776
 3800SOL     OW11445   2.188   3.284   1.066
 3800SOL    HW111446   2.112   3.239   1.020
 3800SOL    HW211447   2.240   3.337   0.998
 3801SOL     OW11448   3.319   3.364   1.359
 3801SOL    HW111449   3.377   3.445   1.366
 3801SOL    HW211450   3.248   3.368   1.429
 3802SOL     OW11451   2.313   2.254   1.477
 3802SOL    HW111452   2.394   2.197   1.485
 3802SOL    HW211453   2.231   2.199   1.496
 3803SOL     OW11454   3.473   2.311   0.749
 3803SOL    HW111455   3.401   2.331   0.683
 3803SOL    HW211456   3.479   2.384   0.816
 3804SOL     OW11457   2.086   3.582   0.474
 3804SOL    HW111458   2.104   3.661   0.533
 3804SOL    HW211459   2.171   3.555   0.429
 3805SOL     OW11460   2.999   3.202   1.698
 3805SOL    HW111461   3.046   3.199   1.786
 3805SOL    HW211462   2.943   3.120   1.688
 3806SOL     OW11463   2.085   3.308   0.540
 3806SOL    HW111464   2.069   3.406   0.547
 3806SOL    HW211465   2.027   3.260   0.606
 3807SOL     OW11466   2.132   2.952   0.900
 3807SOL    HW111467   2.127   2.858   0.933
 3807SOL    HW211468   2.070   3.009   0.953
 3808SOL     OW11469   2.459   3.659   1.426
 3808SOL    HW111470   2.376   3.635   1.476
 3808SOL    HW211471   2.491   3.750   1.455
 3809SOL     OW11472   2.450   2.828   0.148
 3809SOL    HW111473   2.508   2.850   0.069
 3809SOL    HW211474   2.486   2.874   0.229
 3810SOL     OW11475   3.459   1.987   1.469
 3810SOL    HW111476   3.481   2.067   1.413
 3810SOL    HW211477   3.443   2.016   1.563
 3811SOL     OW11478   1.978   2.516   0.562
 3811SOL    HW111479   1.946   2.423   0.583
 3811SOL    HW211480   1.972   2.573   0.644
 3812SOL     OW11481   3.700   3.624   0.347
 3812SOL    HW111482   3.772   3.595   0.410
 3812SOL    HW211483   3.704   3.724   0.336
 3813SOL     OW11484   3.554   2.777   0.651
 3813SOL    HW111485   3.638   2.726   0.633
 3813SOL    HW211486   3.532   2.834   0.572
 3814SOL     OW11487   3.518   2.958   0.445
 3814SOL    HW111488   3.586   2.978   0.374
 3814SOL    HW211489   3.524   3.027   0.517
 3815SOL     OW11490   1.986   2.607   1.585
 3815SOL    HW111491   2.082   2.634   1.585
 3815SOL    HW211492   1.928   2.688   1.585
 3816SOL     OW11493   2.475   3.251   0.738
 3816SOL    HW111494   2.428   3.163   0.751
 3816SOL    HW211495   2.466   3.280   0.643
 3817SOL     OW11496   3.150   3.096   1.421
 3817SOL    HW111497   3.176   3.026   1.356
 3817SOL    HW211498   3.210   3.092   1.501
 3818SOL     OW11499   2.682   1.876   0.515
 3818SOL    HW111500   2.727   1.962   0.491
 3818SOL    HW211501   2.583   1.892   0.523
 3819SOL     OW11502   2.052   2.823   1.279
 3819SOL    HW111503   2.141   2.780   1.264
 3819SOL    HW211504   1.984   2.777   1.222
 3820SOL     OW11505   3.352   2.886   0.215
 3820SOL    HW111506   3.284   2.820   0.247
 3820SOL    HW211507   3.439   2.867   0.259
 3821SOL     OW11508   3.043   3.674   1.623
 3821SOL    HW111509   3.051   3.743   1.550
 3821SOL    HW211510   3.063   3.584   1.585
 3822SOL     OW11511   2.204   2.111   1.835
 3822SOL    HW111512   2.253   2.196   1.852
 3822SOL    HW211513   2.107   2.124   1.853
 3823SOL     OW11514   3.326   3.283   0.946
 3823SOL    HW111515   3.260   3.301   1.019
 3823SOL    HW211516   3.319   3.187   0.918
 3824SOL     OW11517   3.504   3.616   0.583
 3824SOL    HW111518   3.485   3.589   0.488
 3824SOL    HW211519   3.489   3.539   0.644
 3825SOL     OW11520   2.461   2.578   0.267
 3825SOL    HW111521   2.467   2.668   0.225
 3825SOL    HW211522   2.396   2.581   0.343
 3826SOL     OW11523   3.139   2.221   0.932
 3826SOL    HW111524   3.045   2.187   0.941
 3826SOL    HW211525   3.199   2.170   0.994
 3827SOL     OW11526   3.438   3.540   0.317
 3827SOL    HW111527   3.534   3.569   0.315
 3827SOL    HW211528   3.404   3.531   0.223
 3828SOL     OW11529   2.652   2.474   1.449
 3828SOL    HW111530   2.627   2.450   1.542
 3828SOL    HW211531   2.615   2.406   1.386
 3829SOL     OW11532   3.253   2.332   1.679
 3829SOL    HW111533   3.253   2.381   1.766
 3829SOL    HW211534   3.313   2.252   1.686
 3830SOL     OW11535   2.814   2.747   1.584
 3830SOL    HW111536   2.872   2.675   1.545
 3830SOL    HW211537   2.760   2.789   1.511
 3831SOL     OW11538   2.856   2.267   1.228
 3831SOL    HW111539   2.766   2.289   1.265
 3831SOL    HW211540   2.846   2.217   1.142
 3832SOL     OW11541   2.913   2.564   0.428
 3832SOL    HW111542   2.937   2.560   0.526
 3832SOL    HW211543   2.827   2.515   0.413
 3833SOL     OW11544   1.953   2.686   0.777
 3833SOL    HW111545   2.037   2.675   0.829
 3833SOL    HW211546   1.901   2.764   0.813
 3834SOL     OW11547   1.990   3.736   1.588
 3834SOL    HW111548   1.995   3.709   1.684
 3834SOL    HW211549   1.906   3.701   1.548
 3835SOL     OW11550   2.751   2.205   0.207
 3835SOL    HW111551   2.801   2.265   0.146
 3835SOL    HW211552   2.767   2.109   0.182
 3836SOL     OW11553   3.561   2.434   1.826
 3836SOL    HW111554   3.527   2.513   1.776
 3836SOL    HW211555   3.592   2.364   1.762
 3837SOL     OW11556   3.246   3.003   0.550
 3837SOL    HW111557   3.329   2.990   0.496
 3837SOL    HW211558   3.186   3.069   0.504
 3838SOL     OW11559   2.409   2.035   0.901
 3838SOL    HW111560   2.413   2.064   0.997
 3838SOL    HW211561   2.413   2.116   0.842
 3839SOL     OW11562   2.853   3.300   0.469
 3839SOL    HW111563   2.822   3.382   0.420
 3839SOL    HW211564   2.834   3.310   0.566
 3840SOL     OW11565   2.218   3.676   0.870
 3840SOL    HW111566   2.261   3.586   0.876
 3840SOL    HW211567   2.285   3.747   0.890
 3841SOL     OW11568   3.662   2.915   0.875
 3841SOL    HW111569   3.611   2.893   0.791
 3841SOL    HW211570   3.598   2.922   0.951
 3842SOL     OW11571   3.088   3.398   1.514
 3842SOL    HW111572   3.076   3.324   1.581
 3842SOL    HW211573   3.020   3.389   1.442
 3843SOL     OW11574   2.177   2.819   0.231
 3843SOL    HW111575   2.270   2.834   0.196
 3843SOL    HW211576   2.148   2.726   0.211
 3844SOL     OW11577   3.346   2.608   0.722
 3844SOL    HW111578   3.342   2.568   0.814
 3844SOL    HW211579   3.426   2.669   0.716
 3845SOL     OW11580   2.331   3.128   1.731
 3845SOL    HW111581   2.305   3.134   1.634
 3845SOL    HW211582   2.249   3.125   1.787
 3846SOL     OW11583   2.982   3.628   0.242
 3846SOL    HW111584   2.909   3.582   0.293
 3846SOL    HW211585   3.020   3.564   0.174
 3847SOL     OW11586   2.064   2.135   1.503
 3847SOL    HW111587   1.982   2.193   1.500
 3847SOL    HW211588   2.042   2.048   1.545
 3848SOL     OW11589   3.509   3.293   0.106
 3848SOL    HW111590   3.459   3.372   0.071
 3848SOL    HW211591   3.448   3.239   0.164
 3849SOL     OW11592   2.351   3.559   0.383
 3849SOL    HW111593   2.377   3.646   0.425
 3849SOL    HW211594   2.406   3.543   0.301
 3850SOL     OW11595   2.121   3.653   1.225
 3850SOL    HW111596   2.171   3.580   1.271
 3850SOL    HW211597   2.101   3.626   1.131
 3851SOL     OW11598   2.798   3.565   0.896
 3851SOL    HW111599   2.880   3.517   0.928
 3851SOL    HW211600   2.756   3.512   0.823
 3852SOL     OW11601   2.260   2.549   0.469
 3852SOL    HW111602   2.279   2.452   0.487
 3852SOL    HW211603   2.164   2.568   0.487
 3853SOL     OW11604   3.389   2.085   1.728
 3853SOL    HW111605   3.400   2.106   1.825
 3853SOL    HW211606   3.316   2.017   1.716
 3854SOL     OW11607   2.625   2.138   1.757
 3854SOL    HW111608   2.710   2.086   1.751
 3854SOL    HW211609   2.574   2.108   1.838
 3855SOL     OW11610   2.736   3.377   1.193
 3855SOL    HW111611   2.717   3.340   1.102
 3855SOL    HW211612   2.809   3.323   1.235
 3856SOL     OW11613   3.201   2.451   1.436
 3856SOL    HW111614   3.231   2.416   1.524
 3856SOL    HW211615   3.237   2.543   1.422
 3857SOL     OW11616   2.682   3.251   0.943
 3857SOL    HW111617   2.771   3.239   0.900
 3857SOL    HW211618   2.612   3.257   0.872
 3858SOL     OW11619   2.789   2.369   0.899
 3858SOL    HW111620   2.762   2.361   0.802
 3858SOL    HW211621   2.821   2.280   0.932
 3859SOL     OW11622   2.412   1.935   0.503
 3859SOL    HW111623   2.329   1.931   0.559
 3859SOL    HW211624   2.406   2.012   0.440
 3860SOL     OW11625   3.281   3.075   0.011
 3860SOL    HW111626   3.311   2.995   0.064
 3860SOL    HW211627   3.199   3.114   0.053
 3861SOL     OW11628   2.812   2.112   0.461
 3861SOL    HW111629   2.779   2.153   0.376
 3861SOL    HW211630   2.910   2.127   0.469
 3862SOL     OW11631   2.941   2.546   1.454
 3862SOL    HW111632   2.867   2.479   1.460
 3862SOL    HW211633   3.029   2.497   1.451
 3863SOL     OW11634   3.080   3.429   0.796
 3863SOL    HW111635   3.093   3.499   0.726
 3863SOL    HW211636   3.153   3.436   0.864
 3864SOL     OW11637   2.333   3.014   0.729
 3864SOL    HW111638   2.263   2.993   0.798
 3864SOL    HW211639   2.294   3.007   0.638
 3865SOL     OW11640   3.117   3.646   0.612
 3865SOL    HW111641   3.175   3.710   0.561
 3865SOL    HW211642   3.043   3.696   0.657
 3866SOL     OW11643   2.923   2.442   0.031
 3866SOL    HW111644   2.828   2.465   0.051
 3866SOL    HW211645   2.973   2.429   0.117
 3867SOL     OW11646   1.949   2.419   1.391
 3867SOL    HW111647   2.044   2.415   1.359
 3867SOL    HW211648   1.941   2.490   1.461
 3868SOL     OW11649   2.420   2.085   1.173
 3868SOL    HW111650   2.470   2.010   1.217
 3868SOL    HW211651   2.325   2.084   1.202
 3869SOL     OW11652   2.728   2.319   0.639
 3869SOL    HW111653   2.684   2.381   0.575
 3869SOL    HW211654   2.756   2.236   0.590
 3870SOL     OW11655   2.881   1.910   0.740
 3870SOL    HW111656   2.816   1.912   0.665
 3870SOL    HW211657   2.857   1.838   0.804
 3871SOL     OW11658   3.309   3.023   0.860
 3871SOL    HW111659   3.233   2.958   0.862
 3871SOL    HW211660   3.341   3.033   0.766
 3872SOL     OW11661   3.330   2.471   0.970
 3872SOL    HW111662   3.268   2.393   0.970
 3872SOL    HW211663   3.391   2.465   1.049
 3873SOL     OW11664   3.688   2.666   0.391
 3873SOL    HW111665   3.750   2.606   0.442
 3873SOL    HW211666   3.684   2.637   0.295
 3874SOL     OW11667   2.328   3.293   0.153
 3874SOL    HW111668   2.267   3.248   0.218
 3874SOL    HW211669   2.308   3.260   0.060
 3875SOL     OW11670   3.536   3.128   0.652
 3875SOL    HW111671   3.635   3.125   0.661
 3875SOL    HW211672   3.503   3.221   0.667
 3876SOL     OW11673   3.251   2.413   0.066
 3876SOL    HW111674   3.190   2.412   0.146
 3876SOL    HW211675   3.314   2.335   0.071
 3877SOL     OW11676   2.374   2.125   0.311
 3877SOL    HW111677   2.390   2.060   0.237
 3877SOL    HW211678   2.350   2.214   0.272
 3878SOL     OW11679   3.614   3.103   1.559
 3878SOL    HW111680   3.704   3.061   1.545
 3878SOL    HW211681   3.626   3.196   1.593
 3879SOL     OW11682   2.915   3.212   1.336
 3879SOL    HW111683   2.833   3.182   1.386
 3879SOL    HW211684   2.996   3.172   1.378
 3880SOL     OW11685   3.476   3.492   1.657
 3880SOL    HW111686   3.460   3.527   1.565
 3880SOL    HW211687   3.561   3.440   1.659
 3881SOL     OW11688   3.000   3.083   1.105
 3881SOL    HW111689   2.940   3.117   1.177
 3881SOL    HW211690   2.966   3.114   1.016
 3882SOL     OW11691   3.485   2.958   1.080
 3882SOL    HW111692   3.481   3.024   1.155
 3882SOL    HW211693   3.411   2.976   1.015
 3883SOL     OW11694   2.786   1.955   1.391
 3883SOL    HW111695   2.807   1.933   1.296
 3883SOL    HW211696   2.865   1.999   1.433
 3884SOL     OW11697   2.841   2.977   1.721
 3884SOL    HW111698   2.747   2.996   1.749
 3884SOL    HW211699   2.843   2.894   1.665
 3885SOL     OW11700   2.576   2.919   0.375
 3885SOL    HW111701   2.557   2.902   0.472
 3885SOL    HW211702   2.656   2.866   0.347
 3886SOL     OW11703   2.285   2.677   1.254
 3886SOL    HW111704   2.357   2.691   1.321
 3886SOL    HW211705   2.246   2.586   1.265
 3887SOL     OW11706   3.124   2.238   1.281
 3887SOL    HW111707   3.161   2.317   1.330
 3887SOL    HW211708   3.029   2.255   1.256
 3888SOL     OW11709   1.937   3.434   1.354
 3888SOL    HW111710   1.901   3.503   1.291
 3888SOL    HW211711   2.037   3.432   1.347
 3889SOL     OW11712   2.226   2.984   0.481
 3889SOL    HW111713   2.200   3.060   0.421
 3889SOL    HW211714   2.223   2.898   0.429
 3890SOL     OW11715   2.409   2.404   0.861
 3890SOL    HW111716   2.424   2.463   0.781
 3890SOL    HW211717   2.478   2.425   0.931
 3891SOL     OW11718   3.107   3.208   0.406
 3891SOL    HW111719   3.163   3.284   0.438
 3891SOL    HW211720   3.012   3.224   0.432
 3892SOL     OW11721   3.151   3.324   1.147
 3892SOL    HW111722   3.209   3.330   1.229
 3892SOL    HW211723   3.097   3.240   1.151
 3893SOL     OW11724   3.450   2.489   0.481
 3893SOL    HW111725   3.392   2.531   0.551
 3893SOL    HW211726   3.507   2.559   0.439
 3894SOL     OW11727   2.210   3.393   1.309
 3894SOL    HW111728   2.194   3.347   1.221
 3894SOL    HW211729   2.308   3.406   1.322
 3895SOL     OW11730   2.278   2.609   1.600
 3895SOL    HW111731   2.345   2.654   1.541
 3895SOL    HW211732   2.310   2.517   1.623
 3896SOL     OW11733   3.471   2.647   1.685
 3896SOL    HW111734   3.380   2.689   1.683
 3896SOL    HW211735   3.528   2.688   1.614
 3897SOL     OW11736   2.859   1.997   1.750
 3897SOL    HW111737   2.917   2.077   1.735
 3897SOL    HW211738   2.909   1.914   1.723
 3898SOL     OW11739   2.354   1.897   1.751
 3898SOL    HW111740   2.309   1.840   1.683
 3898SOL    HW211741   2.297   1.977   1.770
 3899SOL     OW11742   2.446   2.733   1.034
 3899SOL    HW111743   2.481   2.827   1.031
 3899SOL    HW211744   2.386   2.723   1.114
 3900SOL     OW11745   3.212   2.719   1.024
 3900SOL    HW111746   3.121   2.710   0.982
 3900SOL    HW211747   3.261   2.633   1.014
 3901SOL     OW11748   3.056   2.389   0.271
 3901SOL    HW111749   3.071   2.309   0.329
 3901SOL    HW211750   3.016   2.463   0.327
 3902SOL     OW11751   2.159   2.058   1.246
 3902SOL    HW111752   2.122   2.094   1.332
 3902SOL    HW211753   2.144   1.959   1.243
 3903SOL     OW11754   1.915   3.172   1.275
 3903SOL    HW111755   1.946   3.110   1.347
 3903SOL    HW211756   1.917   3.266   1.308
 3904SOL     OW11757   2.584   2.492   1.054
 3904SOL    HW111758   2.663   2.473   0.994
 3904SOL    HW211759   2.550   2.584   1.036
 3905SOL     OW11760   3.599   2.823   1.857
 3905SOL    HW111761   3.556   2.753   1.799
 3905SOL    HW211762   3.539   2.842   1.935
 3906SOL     OW11763   2.167   1.928   0.630
 3906SOL    HW111764   2.144   2.023   0.651
 3906SOL    HW211765   2.179   1.877   0.716
 3907SOL     OW11766   3.490   2.240   0.374
 3907SOL    HW111767   3.515   2.170   0.441
 3907SOL    HW211768   3.468   2.325   0.421
 3908SOL     OW11769   2.885   2.617   0.958
 3908SOL    HW111770   2.880   2.639   1.055
 3908SOL    HW211771   2.859   2.522   0.943
 3909SOL     OW11772   2.843   3.425   1.718
 3909SOL    HW111773   2.826   3.472   1.632
 3909SOL    HW211774   2.891   3.339   1.700
 3910SOL     OW11775   3.716   3.365   1.603
 3910SOL    HW111776   3.736   3.391   1.509
 3910SOL    HW211777   3.799   3.376   1.659
 3911SOL     OW11778   2.215   2.781   1.805
 3911SOL    HW111779   2.295   2.802   1.861
 3911SOL    HW211780   2.240   2.715   1.734
 3912SOL     OW11781   3.346   2.157   0.155
 3912SOL    HW111782   3.308   2.066   0.169
 3912SOL    HW211783   3.405   2.181   0.232
 3913SOL     OW11784   3.156   2.682   0.034
 3913SOL    HW111785   3.202   2.594   0.022
 3913SOL    HW211786   3.179   2.742   6.957
 3914SOL     OW11787   2.931   3.199   0.855
 3914SOL    HW111788   2.936   3.121   0.793
 3914SOL    HW211789   2.990   3.273   0.822
 3915SOL     OW11790   2.173   2.668   0.943
 3915SOL    HW111791   2.270   2.694   0.940
 3915SOL    HW211792   2.166   2.573   0.975
 3916SOL     OW11793   2.189   2.390   1.011
 3916SOL    HW111794   2.150   2.298   1.001
 3916SOL    HW211795   2.269   2.398   0.953
 3917SOL     OW11796   2.996   2.234   1.693
 3917SOL    HW111797   2.943   2.291   1.756
 3917SOL    HW211798   3.088   2.272   1.684
 3918SOL     OW11799   3.024   2.065   1.476
 3918SOL    HW111800   3.009   2.127   1.553
 3918SOL    HW211801   3.067   2.114   1.401
 3919SOL     OW11802   1.956   3.645   0.944
 3919SOL    HW111803   1.918   3.564   0.898
 3919SOL    HW211804   2.049   3.661   0.911
 3920SOL     OW11805   2.354   3.438   0.904
 3920SOL    HW111806   2.425   3.504   0.931
 3920SOL    HW211807   2.394   3.370   0.843
 3921SOL     OW11808   2.835   2.655   1.224
 3921SOL    HW111809   2.896   2.632   1.299
 3921SOL    HW211810   2.745   2.613   1.239
 3922SOL     OW11811   1.900   2.415   1.117
 3922SOL    HW111812   1.982   2.404   1.062
 3922SOL    HW211813   1.924   2.417   1.214
 3923SOL     OW11814   2.054   2.385   1.731
 3923SOL    HW111815   2.106   2.331   1.665
 3923SOL    HW211816   2.016   2.465   1.685
 3924SOL     OW11817   3.243   2.796   1.654
 3924SOL    HW111818   3.266   2.894   1.655
 3924SOL    HW211819   3.239   2.764   1.560
 3925SOL     OW11820   2.680   2.431   0.371
 3925SOL    HW111821   2.688   2.353   0.310
 3925SOL    HW211822   2.603   2.488   0.343
 3926SOL     OW11823   3.505   2.465   1.180
 3926SOL    HW111824   3.488   2.406   1.259
 3926SOL    HW211825   3.596   2.448   1.144
 3927SOL     OW11826   2.101   3.408   1.725
 3927SOL    HW111827   2.080   3.483   1.789
 3927SOL    HW211828   2.108   3.322   1.776
 3928SOL     OW11829   2.572   2.308   1.251
 3928SOL    HW111830   2.513   2.231   1.229
 3928SOL    HW211831   2.567   2.376   1.179
 3929SOL     OW11832   2.781   3.543   1.473
 3929SOL    HW111833   2.755   3.496   1.388
 3929SOL    HW211834   2.781   3.642   1.457
 3930SOL     OW11835   2.316   2.361   0.188
 3930SOL    HW111836   2.380   2.433   0.214
 3930SOL    HW211837   2.223   2.398   0.185
 3931SOL     OW11838   2.003   3.000   1.476
 3931SOL    HW111839   2.005   2.956   1.566
 3931SOL    HW211840   2.023   2.932   1.405
 3932SOL     OW11841   3.176   2.905   1.218
 3932SOL    HW111842   3.204   2.838   1.150
 3932SOL    HW211843   3.110   2.968   1.178
 3933SOL     OW11844   3.163   2.709   0.306
 3933SOL    HW111845   3.082   2.679   0.357
 3933SOL    HW211846   3.152   2.687   0.209
 3934SOL     OW11847   3.643   3.590   1.158
 3934SOL    HW111848   3.705   3.624   1.086
 3934SOL    HW211849   3.611   3.499   1.133
 3935SOL     OW11850   3.103   3.595   1.103
 3935SOL    HW111851   3.189   3.624   1.062
 3935SOL    HW211852   3.109   3.498   1.128
 3936SOL     OW11853   1.949   3.127   1.009
 3936SOL    HW111854   1.932   3.142   1.107
 3936SOL    HW211855   1.877   3.068   0.972
 3937SOL     OW11856   2.543   3.536   1.738
 3937SOL    HW111857   2.480   3.614   1.732
 3937SOL    HW211858   2.617   3.549   1.671
 3938SOL     OW11859   2.802   1.939   0.111
 3938SOL    HW111860   2.872   1.995   0.067
 3938SOL    HW211861   2.844   1.879   0.178
 3939SOL     OW11862   3.591   2.024   0.528
 3939SOL    HW111863   3.661   2.014   0.457
 3939SOL    HW211864   3.563   1.933   0.559
 3940SOL     OW11865   3.252   3.424   0.492
 3940SOL    HW111866   3.317   3.456   0.422
 3940SOL    HW211867   3.197   3.502   0.524
 3941SOL     OW11868   2.008   3.649   1.846
 3941SOL    HW111869   1.951   3.581   1.891
 3941SOL    HW211870   2.057   3.702   1.915
 3942SOL     OW11871   3.145   2.786   0.670
 3942SOL    HW111872   3.219   2.720   0.685
 3942SOL    HW211873   3.179   2.864   0.618
 3943SOL     OW11874   2.664   3.141   1.425
 3943SOL    HW111875   2.635   3.185   1.510
 3943SOL    HW211876   2.594   3.155   1.355
 3944SOL     OW11877   2.536   3.467   0.191
 3944SOL    HW111878   2.540   3.518   0.105
 3944SOL    HW211879   2.476   3.388   0.180
 3945SOL     OW11880   3.478   3.591   1.387
 3945SOL    HW111881   3.536   3.591   1.306
 3945SOL    HW211882   3.464   3.685   1.418
 3946SOL     OW11883   3.704   2.031   0.963
 3946SOL    HW111884   3.739   1.939   0.941
 3946SOL    HW211885   3.613   2.042   0.923
 3947SOL     OW11886   2.117   2.179   0.717
 3947SOL    HW111887   2.028   2.217   0.690
 3947SOL    HW211888   2.121   2.170   0.816
 3948SOL     OW11889   3.081   3.460   0.041
 3948SOL    HW111890   3.075   3.365   0.071
 3948SOL    HW211891   2.996   3.487   6.996
 3949SOL     OW11892   2.685   2.872   1.379
 3949SOL    HW111893   2.736   2.856   1.294
 3949SOL    HW211894   2.682   2.970   1.398
 3950SOL     OW11895   2.786   2.775   0.293
 3950SOL    HW111896   2.841   2.804   0.214
 3950SOL    HW211897   2.834   2.704   0.343
 3951SOL     OW11898   3.349   3.517   0.041
 3951SOL    HW111899   3.252   3.495   0.041
 3951SOL    HW211900   3.380   3.533   6.948
 3952SOL     OW11901   2.227   3.165   1.486
 3952SOL    HW111902   2.217   3.246   1.428
 3952SOL    HW211903   2.148   3.106   1.476
 3953SOL     OW11904   3.474   3.146   1.285
 3953SOL    HW111905   3.538   3.127   1.359
 3953SOL    HW211906   3.409   3.216   1.314
 3954SOL     OW11907   2.925   2.968   0.715
 3954SOL    HW111908   2.848   2.919   0.755
 3954SOL    HW211909   2.993   2.902   0.683
 3955SOL     OW11910   2.885   2.101   0.966
 3955SOL    HW111911   2.881   2.057   0.876
 3955SOL    HW211912   2.882   2.030   1.037
 3956SOL     OW11913   2.477   3.338   0.486
 3956SOL    HW111914   2.515   3.286   0.408
 3956SOL    HW211915   2.416   3.409   0.451
 3957SOL     OW11916   3.594   2.256   1.381
 3957SOL    HW111917   3.667   2.324   1.381
 3957SOL    HW211918   3.619   2.181   1.319
 3958SOL     OW11919   2.131   3.188   0.308
 3958SOL    HW111920   2.053   3.208   0.250
 3958SOL    HW211921   2.120   3.233   0.397
 3959SOL     OW11922   1.977   2.899   1.730
 3959SOL    HW111923   1.895   2.870   1.780
 3959SOL    HW211924   2.057   2.852   1.767
 3960SOL     OW11925   2.546   2.055   1.500
 3960SOL    HW111926   2.632   2.031   1.456
 3960SOL    HW211927   2.564   2.090   1.592
 3961SOL     OW11928   1.973   2.175   0.011
 3961SOL    HW111929   1.908   2.125   6.955
 3961SOL    HW211930   1.991   2.264   6.970
 3962SOL     OW11931   3.284   2.718   1.394
 3962SOL    HW111932   3.229   2.782   1.341
 3962SOL    HW211933   3.378   2.719   1.360
 3963SOL     OW11934   1.912   2.035   0.333
 3963SOL    HW111935   1.891   2.118   0.282
 3963SOL    HW211936   2.001   2.000   0.305
 3964SOL     OW11937   3.048   3.206   0.128
 3964SOL    HW111938   2.950   3.192   0.110
 3964SOL    HW211939   3.066   3.195   0.225
 3965SOL     OW11940   2.486   2.692   1.434
 3965SOL    HW111941   2.543   2.773   1.420
 3965SOL    HW211942   2.544   2.611   1.443
 3966SOL     OW11943   3.348   3.653   0.988
 3966SOL    HW111944   3.372   3.718   0.916
 3966SOL    HW211945   3.431   3.614   1.027
 3967SOL     OW11946   2.585   2.419   1.702
 3967SOL    HW111947   2.629   2.486   1.761
 3967SOL    HW211948   2.603   2.327   1.736
 3968SOL     OW11949   3.336   3.057   1.634
 3968SOL    HW111950   3.321   3.071   1.732
 3968SOL    HW211951   3.432   3.076   1.612
 3969SOL     OW11952   2.232   3.600   1.567
 3969SOL    HW111953   2.148   3.653   1.552
 3969SOL    HW211954   2.209   3.513   1.609
 3970SOL     OW11955   3.526   2.740   1.256
 3970SOL    HW111956   3.523   2.649   1.214
 3970SOL    HW211957   3.514   2.809   1.185
 3971SOL     OW11958   3.084   2.179   0.456
 3971SOL    HW111959   3.164   2.128   0.428
 3971SOL    HW211960   3.105   2.231   0.539
 3972SOL     OW11961   2.450   2.596   0.666
 3972SOL    HW111962   2.490   2.687   0.659
 3972SOL    HW211963   2.379   2.585   0.596
 3973SOL     OW11964   3.612   2.227   1.653
 3973SOL    HW111965   3.603   2.243   1.555
 3973SOL    HW211966   3.537   2.167   1.684
 3974SOL     OW11967   3.615   2.794   1.509
 3974SOL    HW111968   3.603   2.891   1.531
 3974SOL    HW211969   3.593   2.778   1.413
 3975SOL     OW11970   2.767   3.245   0.055
 3975SOL    HW111971   2.707   3.221   0.131
 3975SOL    HW211972   2.769   3.345   0.046
 3976SOL     OW11973   2.527   3.646   0.941
 3976SOL    HW111974   2.504   3.741   0.920
 3976SOL    HW211975   2.626   3.633   0.930
 3977SOL     OW11976   2.731   2.833   0.857
 3977SOL    HW111977   2.782   2.755   0.893
 3977SOL    HW211978   2.688   2.883   0.932
 3978SOL     OW11979   2.943   2.845   0.079
 3978SOL    HW111980   2.944   2.903   6.998
 3978SOL    HW211981   3.021   2.783   0.076
 3979SOL     OW11982   3.707   3.419   0.846
 3979SOL    HW111983   3.629   3.405   0.785
 3979SOL    HW211984   3.708   3.347   0.916
 3980SOL     OW11985   2.093   3.160   1.856
 3980SOL    HW111986   2.029   3.092   1.821
 3980SOL    HW211987   2.077   3.173   1.954
 3981SOL     OW11988   1.943   3.096   0.664
 3981SOL    HW111989   1.964   3.046   0.748
 3981SOL    HW211990   1.988   3.051   0.587
 3982SOL     OW11991   2.545   3.272   1.634
 3982SOL    HW111992   2.464   3.222   1.666
 3982SOL    HW211993   2.544   3.365   1.671
 3983SOL     OW11994   3.666   2.044   1.233
 3983SOL    HW111995   3.681   1.948   1.257
 3983SOL    HW211996   3.679   2.056   1.135
 3984SOL     OW11997   2.292   2.291   0.528
 3984SOL    HW111998   2.323   2.219   0.465
 3984SOL    HW211999   2.238   2.250   0.601
 3985SOL     OW12000   3.553   3.345   1.095
 3985SOL    HW112001   3.474   3.327   1.037
 3985SOL    HW212002   3.561   3.273   1.164
 3986SOL     OW12003   2.198   2.419   1.289
 3986SOL    HW112004   2.254   2.361   1.348
 3986SOL    HW212005   2.213   2.392   1.194
 3987SOL     OW12006   2.690   3.441   0.680
 3987SOL    HW112007   2.676   3.501   0.601
 3987SOL    HW212008   2.614   3.377   0.687
 3988SOL     OW12009   3.292   2.094   1.117
 3988SOL    HW112010   3.314   2.004   1.154
 3988SOL    HW212011   3.238   2.145   1.184
 3989SOL     OW12012   2.872   1.878   1.136
 3989SOL    HW112013   2.808   1.814   1.093
 3989SOL    HW212014   2.963   1.837   1.137
 3990SOL     OW12015   2.646   3.179   0.307
 3990SOL    HW112016   2.613   3.088   0.328
 3990SOL    HW212017   2.722   3.202   0.368
 3991SOL     OW12018   2.485   3.421   1.290
 3991SOL    HW112019   2.482   3.508   1.339
 3991SOL    HW212020   2.576   3.409   1.250
 3992SOL     OW12021   3.214   1.916   0.186
 3992SOL    HW112022   3.256   1.856   0.118
 3992SOL    HW212023   3.128   1.876   0.217
 3993SOL     OW12024   3.146   2.323   0.678
 3993SOL    HW112025   3.097   2.410   0.681
 3993SOL    HW212026   3.148   2.282   0.770
 3994SOL     OW12027   3.447   2.064   0.884
 3994SOL    HW112028   3.390   2.085   0.964
 3994SOL    HW212029   3.451   2.144   0.824
 3995SOL     OW12030   1.944   2.913   0.358
 3995SOL    HW112031   2.033   2.891   0.318
 3995SOL    HW212032   1.892   2.828   0.371
 3996SOL     OW12033   2.751   3.526   0.354
 3996SOL    HW112034   2.675   3.497   0.295
 3996SOL    HW212035   2.723   3.604   0.408
 3997SOL     OW12036   2.082   2.481   1.991
 3997SOL    HW112037   1.990   2.480   2.031
 3997SOL    HW212038   2.076   2.459   1.893
 3998SOL     OW12039   2.084   2.145   2.857
 3998SOL    HW112040   2.117   2.110   2.945
 3998SOL    HW212041   1.991   2.112   2.840
 3999SOL     OW12042   1.862   2.248   2.496
 3999SOL    HW112043   1.778   2.279   2.542
 3999SOL    HW212044   1.843   2.165   2.443
 4000SOL     OW12045   2.433   3.160   3.050
 4000SOL    HW112046   2.343   3.155   3.007
 4000SOL    HW212047   2.450   3.253   3.083
 4001SOL     OW12048   3.428   3.375   2.570
 4001SOL    HW112049   3.385   3.352   2.658
 4001SOL    HW212050   3.358   3.382   2.499
 4002SOL     OW12051   2.996   2.565   2.556
 4002SOL    HW112052   3.047   2.649   2.539
 4002SOL    HW212053   2.945   2.574   2.642
 4003SOL     OW12054   3.633   2.460   2.084
 4003SOL    HW112055   3.609   2.456   1.987
 4003SOL    HW212056   3.595   2.381   2.131
 4004SOL     OW12057   2.603   3.001   2.901
 4004SOL    HW112058   2.537   3.036   2.967
 4004SOL    HW212059   2.648   3.078   2.856
 4005SOL     OW12060   2.737   2.621   3.684
 4005SOL    HW112061   2.723   2.690   3.755
 4005SOL    HW212062   2.759   2.665   3.597
 4006SOL     OW12063   2.546   2.860   2.510
 4006SOL    HW112064   2.617   2.850   2.580
 4006SOL    HW212065   2.471   2.916   2.547
 4007SOL     OW12066   2.550   3.015   3.688
 4007SOL    HW112067   2.591   3.097   3.727
 4007SOL    HW212068   2.465   3.039   3.641
 4008SOL     OW12069   2.187   3.286   2.929
 4008SOL    HW112070   2.111   3.239   2.885
 4008SOL    HW212071   2.239   3.337   2.861
 4009SOL     OW12072   2.313   2.254   3.339
 4009SOL    HW112073   2.394   2.197   3.347
 4009SOL    HW212074   2.231   2.200   3.358
 4010SOL     OW12075   3.472   2.307   2.607
 4010SOL    HW112076   3.398   2.326   2.543
 4010SOL    HW212077   3.477   2.381   2.675
 4011SOL     OW12078   2.084   3.576   2.333
 4011SOL    HW112079   2.102   3.655   2.392
 4011SOL    HW212080   2.159   3.566   2.268
 4012SOL     OW12081   3.024   3.070   3.510
 4012SOL    HW112082   3.060   3.126   3.584
 4012SOL    HW212083   2.938   3.026   3.539
 4013SOL     OW12084   2.096   3.306   2.398
 4013SOL    HW112085   2.079   3.404   2.397
 4013SOL    HW212086   2.036   3.262   2.465
 4014SOL     OW12087   2.135   2.952   2.764
 4014SOL    HW112088   2.129   2.857   2.796
 4014SOL    HW212089   2.071   3.009   2.816
 4015SOL     OW12090   2.456   3.655   3.298
 4015SOL    HW112091   2.358   3.659   3.312
 4015SOL    HW212092   2.497   3.743   3.321
 4016SOL     OW12093   2.443   2.850   2.004
 4016SOL    HW112094   2.491   2.896   1.929
 4016SOL    HW212095   2.483   2.878   2.091
 4017SOL     OW12096   3.459   1.987   3.331
 4017SOL    HW112097   3.481   2.067   3.275
 4017SOL    HW212098   3.443   2.016   3.425
 4018SOL     OW12099   1.976   2.523   2.426
 4018SOL    HW112100   1.947   2.429   2.443
 4018SOL    HW212101   1.971   2.576   2.511
 4019SOL     OW12102   3.709   3.617   2.194
 4019SOL    HW112103   3.779   3.587   2.258
 4019SOL    HW212104   3.724   3.713   2.170
 4020SOL     OW12105   1.892   3.452   1.985
 4020SOL    HW112106   1.875   3.355   2.003
 4020SOL    HW212107   1.871   3.505   2.066
 4021SOL     OW12108   3.553   2.783   2.509
 4021SOL    HW112109   3.638   2.732   2.493
 4021SOL    HW212110   3.530   2.837   2.428
 4022SOL     OW12111   3.515   2.966   2.294
 4022SOL    HW112112   3.604   2.962   2.249
 4022SOL    HW212113   3.519   3.034   2.368
 4023SOL     OW12114   1.987   2.607   3.446
 4023SOL    HW112115   2.083   2.633   3.448
 4023SOL    HW212116   1.930   2.689   3.452
 4024SOL     OW12117   2.473   3.254   2.596
 4024SOL    HW112118   2.428   3.165   2.608
 4024SOL    HW212119   2.461   3.285   2.501
 4025SOL     OW12120   3.184   3.114   3.257
 4025SOL    HW112121   3.188   3.030   3.203
 4025SOL    HW212122   3.178   3.091   3.354
 4026SOL     OW12123   2.680   1.872   2.370
 4026SOL    HW112124   2.726   1.958   2.347
 4026SOL    HW212125   2.582   1.888   2.378
 4027SOL     OW12126   2.053   2.822   3.137
 4027SOL    HW112127   2.142   2.778   3.123
 4027SOL    HW212128   1.983   2.774   3.084
 4028SOL     OW12129   3.394   2.864   2.066
 4028SOL    HW112130   3.321   2.803   2.096
 4028SOL    HW212131   3.441   2.901   2.147
 4029SOL     OW12132   3.040   3.731   3.461
 4029SOL    HW112133   3.040   3.810   3.400
 4029SOL    HW212134   3.004   3.651   3.412
 4030SOL     OW12135   2.204   2.111   3.697
 4030SOL    HW112136   2.253   2.196   3.714
 4030SOL    HW212137   2.107   2.124   3.715
 4031SOL     OW12138   3.323   3.284   2.810
 4031SOL    HW112139   3.263   3.300   2.889
 4031SOL    HW212140   3.315   3.188   2.782
 4032SOL     OW12141   3.511   3.614   2.437
 4032SOL    HW112142   3.493   3.583   2.344
 4032SOL    HW212143   3.491   3.539   2.501
 4033SOL     OW12144   2.456   2.581   2.136
 4033SOL    HW112145   2.461   2.666   2.084
 4033SOL    HW212146   2.387   2.588   2.207
 4034SOL     OW12147   3.139   2.223   2.796
 4034SOL    HW112148   3.046   2.188   2.802
 4034SOL    HW212149   3.199   2.170   2.857
 4035SOL     OW12150   3.445   3.535   2.170
 4035SOL    HW112151   3.541   3.561   2.167
 4035SOL    HW212152   3.412   3.518   2.077
 4036SOL     OW12153   2.651   2.474   3.311
 4036SOL    HW112154   2.626   2.449   3.404
 4036SOL    HW212155   2.614   2.405   3.248
 4037SOL     OW12156   3.253   2.332   3.542
 4037SOL    HW112157   3.254   2.381   3.629
 4037SOL    HW212158   3.314   2.252   3.548
 4038SOL     OW12159   2.808   2.739   3.443
 4038SOL    HW112160   2.870   2.670   3.407
 4038SOL    HW212161   2.758   2.782   3.367
 4039SOL     OW12162   2.856   2.267   3.090
 4039SOL    HW112163   2.765   2.288   3.126
 4039SOL    HW212164   2.847   2.218   3.003
 4040SOL     OW12165   2.912   2.561   2.286
 4040SOL    HW112166   2.935   2.556   2.384
 4040SOL    HW212167   2.826   2.513   2.270
 4041SOL     OW12168   1.951   2.690   2.642
 4041SOL    HW112169   2.036   2.677   2.693
 4041SOL    HW212170   1.902   2.769   2.679
 4042SOL     OW12171   2.758   2.215   2.059
 4042SOL    HW112172   2.799   2.282   1.998
 4042SOL    HW212173   2.766   2.124   2.018
 4043SOL     OW12174   3.562   2.433   3.689
 4043SOL    HW112175   3.527   2.512   3.640
 4043SOL    HW212176   3.593   2.364   3.624
 4044SOL     OW12177   3.242   3.005   2.395
 4044SOL    HW112178   3.327   2.990   2.344
 4044SOL    HW212179   3.186   3.072   2.347
 4045SOL     OW12180   2.409   2.034   2.763
 4045SOL    HW112181   2.413   2.064   2.859
 4045SOL    HW212182   2.412   2.114   2.703
 4046SOL     OW12183   2.856   3.305   2.325
 4046SOL    HW112184   2.825   3.386   2.276
 4046SOL    HW212185   2.840   3.317   2.423
 4047SOL     OW12186   2.219   3.677   2.732
 4047SOL    HW112187   2.264   3.588   2.740
 4047SOL    HW212188   2.286   3.749   2.751
 4048SOL     OW12189   3.662   2.919   2.733
 4048SOL    HW112190   3.611   2.895   2.650
 4048SOL    HW212191   3.599   2.924   2.810
 4049SOL     OW12192   2.183   2.821   2.117
 4049SOL    HW112193   2.271   2.842   2.074
 4049SOL    HW212194   2.146   2.736   2.080
 4050SOL     OW12195   3.345   2.613   2.584
 4050SOL    HW112196   3.340   2.568   2.673
 4050SOL    HW212197   3.426   2.672   2.581
 4051SOL     OW12198   2.321   3.122   3.587
 4051SOL    HW112199   2.290   3.132   3.492
 4051SOL    HW212200   2.242   3.124   3.648
 4052SOL     OW12201   2.984   3.638   2.088
 4052SOL    HW112202   2.904   3.600   2.136
 4052SOL    HW212203   3.013   3.573   2.017
 4053SOL     OW12204   2.064   2.135   3.365
 4053SOL    HW112205   1.983   2.193   3.363
 4053SOL    HW212206   2.042   2.048   3.408
 4054SOL     OW12207   3.486   3.244   1.951
 4054SOL    HW112208   3.448   3.335   1.935
 4054SOL    HW212209   3.417   3.175   1.932
 4055SOL     OW12210   2.326   3.597   2.180
 4055SOL    HW112211   2.368   3.659   2.246
 4055SOL    HW212212   2.397   3.560   2.120
 4056SOL     OW12213   3.263   1.966   2.300
 4056SOL    HW112214   3.251   1.940   2.204
 4056SOL    HW212215   3.361   1.975   2.320
 4057SOL     OW12216   2.128   3.651   3.083
 4057SOL    HW112217   2.171   3.567   3.115
 4057SOL    HW212218   2.091   3.636   2.992
 4058SOL     OW12219   2.798   3.564   2.758
 4058SOL    HW112220   2.882   3.519   2.788
 4058SOL    HW212221   2.756   3.512   2.684
 4059SOL     OW12222   2.258   2.550   2.336
 4059SOL    HW112223   2.277   2.453   2.350
 4059SOL    HW212224   2.161   2.567   2.353
 4060SOL     OW12225   3.389   2.084   3.590
 4060SOL    HW112226   3.400   2.105   3.687
 4060SOL    HW212227   3.316   2.017   3.578
 4061SOL     OW12228   2.504   1.978   1.964
 4061SOL    HW112229   2.571   1.908   1.986
 4061SOL    HW212230   2.447   1.947   1.887
 4062SOL     OW12231   2.625   2.138   3.619
 4062SOL    HW112232   2.710   2.086   3.613
 4062SOL    HW212233   2.574   2.108   3.700
 4063SOL     OW12234   2.737   3.374   3.055
 4063SOL    HW112235   2.718   3.339   2.964
 4063SOL    HW212236   2.810   3.320   3.097
 4064SOL     OW12237   3.202   2.448   3.297
 4064SOL    HW112238   3.232   2.415   3.386
 4064SOL    HW212239   3.238   2.540   3.281
 4065SOL     OW12240   2.681   3.250   2.803
 4065SOL    HW112241   2.771   3.240   2.761
 4065SOL    HW212242   2.611   3.257   2.732
 4066SOL     OW12243   2.789   2.369   2.759
 4066SOL    HW112244   2.762   2.362   2.663
 4066SOL    HW212245   2.821   2.281   2.792
 4067SOL     OW12246   2.409   1.926   2.355
 4067SOL    HW112247   2.328   1.924   2.413
 4067SOL    HW212248   2.406   2.007   2.296
 4068SOL     OW12249   3.287   3.061   1.905
 4068SOL    HW112250   3.321   2.984   1.958
 4068SOL    HW212251   3.199   3.090   1.941
 4069SOL     OW12252   2.152   1.910   2.048
 4069SOL    HW112253   2.204   1.982   2.001
 4069SOL    HW212254   2.215   1.846   2.091
 4070SOL     OW12255   2.809   2.113   2.318
 4070SOL    HW112256   2.778   2.154   2.232
 4070SOL    HW212257   2.908   2.127   2.327
 4071SOL     OW12258   2.943   2.543   3.314
 4071SOL    HW112259   2.869   2.476   3.320
 4071SOL    HW212260   3.031   2.496   3.311
 4072SOL     OW12261   3.082   3.433   2.657
 4072SOL    HW112262   3.096   3.502   2.587
 4072SOL    HW212263   3.157   3.437   2.723
 4073SOL     OW12264   2.331   3.014   2.589
 4073SOL    HW112265   2.265   2.993   2.661
 4073SOL    HW212266   2.288   3.002   2.500
 4074SOL     OW12267   3.124   3.653   2.472
 4074SOL    HW112268   3.177   3.715   2.414
 4074SOL    HW212269   3.051   3.704   2.518
 4075SOL     OW12270   2.883   2.397   1.892
 4075SOL    HW112271   2.838   2.483   1.868
 4075SOL    HW212272   2.953   2.414   1.962
 4076SOL     OW12273   1.949   2.419   3.253
 4076SOL    HW112274   2.044   2.415   3.221
 4076SOL    HW212275   1.941   2.491   3.323
 4077SOL     OW12276   2.420   2.086   3.035
 4077SOL    HW112277   2.470   2.010   3.078
 4077SOL    HW212278   2.324   2.084   3.064
 4078SOL     OW12279   2.728   2.320   2.498
 4078SOL    HW112280   2.680   2.382   2.435
 4078SOL    HW212281   2.756   2.238   2.448
 4079SOL     OW12282   2.879   1.915   2.607
 4079SOL    HW112283   2.819   1.915   2.527
 4079SOL    HW212284   2.854   1.839   2.667
 4080SOL     OW12285   3.307   3.023   2.721
 4080SOL    HW112286   3.230   2.958   2.724
 4080SOL    HW212287   3.337   3.034   2.626
 4081SOL     OW12288   3.330   2.470   2.830
 4081SOL    HW112289   3.267   2.392   2.830
 4081SOL    HW212290   3.391   2.464   2.909
 4082SOL     OW12291   3.703   2.670   2.242
 4082SOL    HW112292   3.761   2.623   2.308
 4082SOL    HW212293   3.674   2.606   2.171
 4083SOL     OW12294   2.349   3.283   2.017
 4083SOL    HW112295   2.268   3.256   2.070
 4083SOL    HW212296   2.348   3.236   1.928
 4084SOL     OW12297   3.538   3.129   2.505
 4084SOL    HW112298   3.637   3.126   2.517
 4084SOL    HW212299   3.505   3.221   2.526
 4085SOL     OW12300   3.252   2.437   1.932
 4085SOL    HW112301   3.189   2.414   2.007
 4085SOL    HW212302   3.345   2.411   1.958
 4086SOL     OW12303   2.390   2.126   2.171
 4086SOL    HW112304   2.438   2.074   2.100
 4086SOL    HW212305   2.361   2.214   2.133
 4087SOL     OW12306   3.617   3.050   3.426
 4087SOL    HW112307   3.711   3.032   3.395
 4087SOL    HW212308   3.617   3.127   3.490
 4088SOL     OW12309   2.917   3.203   3.187
 4088SOL    HW112310   2.836   3.174   3.237
 4088SOL    HW212311   2.999   3.181   3.240
 4089SOL     OW12312   3.003   3.081   2.960
 4089SOL    HW112313   2.949   3.116   3.036
 4089SOL    HW212314   2.962   3.110   2.873
 4090SOL     OW12315   3.483   2.955   2.935
 4090SOL    HW112316   3.479   3.023   3.009
 4090SOL    HW212317   3.410   2.972   2.870
 4091SOL     OW12318   2.786   1.955   3.253
 4091SOL    HW112319   2.807   1.933   3.158
 4091SOL    HW212320   2.865   1.999   3.295
 4092SOL     OW12321   2.803   2.948   3.607
 4092SOL    HW112322   2.707   2.969   3.626
 4092SOL    HW212323   2.808   2.872   3.542
 4093SOL     OW12324   2.575   2.921   2.235
 4093SOL    HW112325   2.558   2.903   2.332
 4093SOL    HW212326   2.654   2.867   2.205
 4094SOL     OW12327   2.285   2.677   3.116
 4094SOL    HW112328   2.357   2.690   3.184
 4094SOL    HW212329   2.246   2.585   3.126
 4095SOL     OW12330   3.124   2.237   3.143
 4095SOL    HW112331   3.161   2.315   3.192
 4095SOL    HW212332   3.028   2.255   3.118
 4096SOL     OW12333   1.941   3.435   3.223
 4096SOL    HW112334   1.898   3.503   3.163
 4096SOL    HW212335   2.040   3.436   3.210
 4097SOL     OW12336   2.202   2.982   2.349
 4097SOL    HW112337   2.207   3.064   2.292
 4097SOL    HW212338   2.201   2.901   2.290
 4098SOL     OW12339   2.409   2.405   2.724
 4098SOL    HW112340   2.423   2.464   2.645
 4098SOL    HW212341   2.478   2.425   2.793
 4099SOL     OW12342   3.108   3.217   2.254
 4099SOL    HW112343   3.169   3.289   2.286
 4099SOL    HW212344   3.014   3.237   2.285
 4100SOL     OW12345   3.150   3.314   3.020
 4100SOL    HW112346   3.173   3.303   3.117
 4100SOL    HW212347   3.095   3.236   2.990
 4101SOL     OW12348   3.438   2.482   2.345
 4101SOL    HW112349   3.388   2.530   2.418
 4101SOL    HW212350   3.486   2.549   2.289
 4102SOL     OW12351   2.215   3.400   3.168
 4102SOL    HW112352   2.195   3.352   3.082
 4102SOL    HW212353   2.314   3.408   3.179
 4103SOL     OW12354   2.278   2.608   3.463
 4103SOL    HW112355   2.345   2.653   3.403
 4103SOL    HW212356   2.311   2.516   3.486
 4104SOL     OW12357   3.469   2.645   3.550
 4104SOL    HW112358   3.376   2.682   3.544
 4104SOL    HW212359   3.525   2.683   3.477
 4105SOL     OW12360   2.859   1.997   3.612
 4105SOL    HW112361   2.917   2.077   3.597
 4105SOL    HW212362   2.909   1.914   3.585
 4106SOL     OW12363   2.354   1.897   3.613
 4106SOL    HW112364   2.309   1.840   3.545
 4106SOL    HW212365   2.297   1.977   3.632
 4107SOL     OW12366   2.446   2.733   2.896
 4107SOL    HW112367   2.483   2.826   2.894
 4107SOL    HW212368   2.386   2.723   2.976
 4108SOL     OW12369   3.211   2.717   2.883
 4108SOL    HW112370   3.120   2.707   2.842
 4108SOL    HW212371   3.261   2.631   2.873
 4109SOL     OW12372   3.059   2.388   2.126
 4109SOL    HW112373   3.072   2.306   2.181
 4109SOL    HW212374   3.015   2.459   2.181
 4110SOL     OW12375   2.158   2.058   3.109
 4110SOL    HW112376   2.122   2.094   3.195
 4110SOL    HW212377   2.143   1.959   3.105
 4111SOL     OW12378   1.923   3.174   3.137
 4111SOL    HW112379   1.948   3.110   3.210
 4111SOL    HW212380   1.919   3.267   3.174
 4112SOL     OW12381   2.586   2.492   2.916
 4112SOL    HW112382   2.663   2.473   2.855
 4112SOL    HW212383   2.551   2.584   2.897
 4113SOL     OW12384   3.595   2.825   3.717
 4113SOL    HW112385   3.552   2.754   3.661
 4113SOL    HW212386   3.537   2.844   3.797
 4114SOL     OW12387   2.169   1.923   2.490
 4114SOL    HW112388   2.144   2.018   2.508
 4114SOL    HW212389   2.181   1.874   2.577
 4115SOL     OW12390   3.490   2.243   2.223
 4115SOL    HW112391   3.516   2.170   2.285
 4115SOL    HW212392   3.461   2.323   2.276
 4116SOL     OW12393   2.886   2.617   2.819
 4116SOL    HW112394   2.880   2.638   2.916
 4116SOL    HW212395   2.859   2.522   2.804
 4117SOL     OW12396   2.213   2.779   3.667
 4117SOL    HW112397   2.291   2.799   3.726
 4117SOL    HW212398   2.240   2.714   3.596
 4118SOL     OW12399   3.389   2.130   1.992
 4118SOL    HW112400   3.320   2.062   2.017
 4118SOL    HW212401   3.426   2.173   2.074
 4119SOL     OW12402   3.150   2.687   1.887
 4119SOL    HW112403   3.190   2.597   1.896
 4119SOL    HW212404   3.181   2.730   1.803
 4120SOL     OW12405   2.931   3.202   2.715
 4120SOL    HW112406   2.936   3.124   2.654
 4120SOL    HW212407   2.990   3.275   2.681
 4121SOL     OW12408   2.173   2.668   2.805
 4121SOL    HW112409   2.270   2.693   2.800
 4121SOL    HW212410   2.165   2.574   2.837
 4122SOL     OW12411   2.188   2.390   2.873
 4122SOL    HW112412   2.149   2.298   2.863
 4122SOL    HW212413   2.269   2.399   2.815
 4123SOL     OW12414   2.996   2.234   3.555
 4123SOL    HW112415   2.943   2.291   3.619
 4123SOL    HW212416   3.088   2.272   3.546
 4124SOL     OW12417   3.024   2.064   3.338
 4124SOL    HW112418   3.009   2.127   3.415
 4124SOL    HW212419   3.066   2.114   3.263
 4125SOL     OW12420   1.863   3.176   2.057
 4125SOL    HW112421   1.773   3.196   2.017
 4125SOL    HW212422   1.863   3.083   2.092
 4126SOL     OW12423   1.960   3.643   2.809
 4126SOL    HW112424   1.922   3.563   2.762
 4126SOL    HW212425   2.052   3.660   2.774
 4127SOL     OW12426   2.356   3.438   2.768
 4127SOL    HW112427   2.426   3.504   2.795
 4127SOL    HW212428   2.395   3.371   2.705
 4128SOL     OW12429   2.835   2.654   3.085
 4128SOL    HW112430   2.896   2.630   3.160
 4128SOL    HW212431   2.746   2.610   3.099
 4129SOL     OW12432   1.900   2.416   2.979
 4129SOL    HW112433   1.982   2.403   2.924
 4129SOL    HW212434   1.925   2.417   3.076
 4130SOL     OW12435   2.054   2.385   3.593
 4130SOL    HW112436   2.107   2.331   3.527
 4130SOL    HW212437   2.016   2.466   3.547
 4131SOL     OW12438   3.230   2.774   3.511
 4131SOL    HW112439   3.254   2.871   3.515
 4131SOL    HW212440   3.229   2.743   3.416
 4132SOL     OW12441   2.679   2.434   2.224
 4132SOL    HW112442   2.689   2.355   2.164
 4132SOL    HW212443   2.601   2.489   2.194
 4133SOL     OW12444   3.504   2.465   3.041
 4133SOL    HW112445   3.488   2.406   3.120
 4133SOL    HW212446   3.596   2.447   3.005
 4134SOL     OW12447   2.572   2.308   3.113
 4134SOL    HW112448   2.513   2.231   3.090
 4134SOL    HW212449   2.568   2.376   3.040
 4135SOL     OW12450   2.831   3.561   3.311
 4135SOL    HW112451   2.796   3.501   3.239
 4135SOL    HW212452   2.794   3.653   3.298
 4136SOL     OW12453   2.320   2.357   2.046
 4136SOL    HW112454   2.385   2.429   2.072
 4136SOL    HW212455   2.229   2.397   2.034
 4137SOL     OW12456   2.010   2.997   3.336
 4137SOL    HW112457   2.010   2.952   3.425
 4137SOL    HW212458   2.028   2.929   3.265
 4138SOL     OW12459   3.174   2.902   3.078
 4138SOL    HW112460   3.203   2.834   3.011
 4138SOL    HW212461   3.109   2.965   3.037
 4139SOL     OW12462   3.178   2.719   2.160
 4139SOL    HW112463   3.103   2.691   2.219
 4139SOL    HW212464   3.153   2.706   2.064
 4140SOL     OW12465   3.605   3.602   2.970
 4140SOL    HW112466   3.685   3.629   2.916
 4140SOL    HW212467   3.594   3.502   2.966
 4141SOL     OW12468   3.106   3.590   2.968
 4141SOL    HW112469   3.192   3.619   2.926
 4141SOL    HW212470   3.113   3.494   2.995
 4142SOL     OW12471   1.950   3.127   2.872
 4142SOL    HW112472   1.936   3.142   2.970
 4142SOL    HW212473   1.877   3.069   2.837
 4143SOL     OW12474   3.582   2.013   2.360
 4143SOL    HW112475   3.657   2.003   2.295
 4143SOL    HW212476   3.564   1.926   2.405
 4144SOL     OW12477   3.257   3.432   2.350
 4144SOL    HW112478   3.320   3.464   2.279
 4144SOL    HW212479   3.202   3.509   2.383
 4145SOL     OW12480   3.144   2.791   2.528
 4145SOL    HW112481   3.219   2.727   2.544
 4145SOL    HW212482   3.178   2.868   2.472
 4146SOL     OW12483   2.669   3.127   3.264
 4146SOL    HW112484   2.634   3.162   3.351
 4146SOL    HW212485   2.602   3.145   3.192
 4147SOL     OW12486   2.530   3.484   2.016
 4147SOL    HW112487   2.547   3.503   1.920
 4147SOL    HW212488   2.472   3.403   2.025
 4148SOL     OW12489   3.598   3.670   3.234
 4148SOL    HW112490   3.574   3.637   3.143
 4148SOL    HW212491   3.525   3.728   3.270
 4149SOL     OW12492   3.704   2.031   2.825
 4149SOL    HW112493   3.738   1.939   2.803
 4149SOL    HW212494   3.613   2.042   2.786
 4150SOL     OW12495   2.117   2.175   2.577
 4150SOL    HW112496   2.028   2.212   2.549
 4150SOL    HW212497   2.120   2.168   2.677
 4151SOL     OW12498   3.071   3.462   1.895
 4151SOL    HW112499   3.061   3.368   1.928
 4151SOL    HW212500   3.003   3.479   1.823
 4152SOL     OW12501   2.688   2.862   3.233
 4152SOL    HW112502   2.742   2.840   3.153
 4152SOL    HW212503   2.686   2.961   3.246
 4153SOL     OW12504   2.782   2.773   2.149
 4153SOL    HW112505   2.843   2.808   2.078
 4153SOL    HW212506   2.829   2.701   2.201
 4154SOL     OW12507   3.350   3.493   1.904
 4154SOL    HW112508   3.251   3.481   1.893
 4154SOL    HW212509   3.394   3.498   1.815
 4155SOL     OW12510   2.220   3.176   3.347
 4155SOL    HW112511   2.211   3.250   3.280
 4155SOL    HW212512   2.144   3.111   3.336
 4156SOL     OW12513   3.464   3.142   3.137
 4156SOL    HW112514   3.546   3.132   3.193
 4156SOL    HW212515   3.384   3.145   3.196
 4157SOL     OW12516   2.925   2.969   2.579
 4157SOL    HW112517   2.848   2.919   2.617
 4157SOL    HW212518   2.994   2.904   2.545
 4158SOL     OW12519   2.885   2.102   2.829
 4158SOL    HW112520   2.881   2.058   2.739
 4158SOL    HW212521   2.882   2.031   2.900
 4159SOL     OW12522   2.467   3.348   2.342
 4159SOL    HW112523   2.519   3.294   2.276
 4159SOL    HW212524   2.392   3.395   2.295
 4160SOL     OW12525   3.594   2.256   3.243
 4160SOL    HW112526   3.667   2.324   3.243
 4160SOL    HW212527   3.619   2.181   3.181
 4161SOL     OW12528   2.115   3.210   2.151
 4161SOL    HW112529   2.019   3.203   2.123
 4161SOL    HW212530   2.120   3.249   2.242
 4162SOL     OW12531   1.974   2.892   3.586
 4162SOL    HW112532   1.894   2.866   3.639
 4162SOL    HW212533   2.056   2.850   3.627
 4163SOL     OW12534   2.546   2.055   3.362
 4163SOL    HW112535   2.632   2.031   3.318
 4163SOL    HW212536   2.564   2.089   3.454
 4164SOL     OW12537   1.944   2.189   1.890
 4164SOL    HW112538   1.852   2.165   1.858
 4164SOL    HW212539   1.976   2.271   1.843
 4165SOL     OW12540   3.284   2.711   3.250
 4165SOL    HW112541   3.229   2.777   3.200
 4165SOL    HW212542   3.379   2.716   3.219
 4166SOL     OW12543   1.924   2.017   2.163
 4166SOL    HW112544   1.908   2.101   2.111
 4166SOL    HW212545   2.013   1.978   2.136
 4167SOL     OW12546   3.042   3.199   1.983
 4167SOL    HW112547   2.947   3.169   1.976
 4167SOL    HW212548   3.070   3.200   2.079
 4168SOL     OW12549   2.485   2.691   3.296
 4168SOL    HW112550   2.543   2.770   3.279
 4168SOL    HW212551   2.542   2.609   3.306
 4169SOL     OW12552   3.352   3.650   2.853
 4169SOL    HW112553   3.367   3.713   2.777
 4169SOL    HW212554   3.440   3.627   2.895
 4170SOL     OW12555   2.584   2.417   3.564
 4170SOL    HW112556   2.629   2.483   3.624
 4170SOL    HW212557   2.602   2.325   3.597
 4171SOL     OW12558   3.343   3.018   3.503
 4171SOL    HW112559   3.328   3.041   3.599
 4171SOL    HW212560   3.440   3.024   3.482
 4172SOL     OW12561   3.527   2.739   3.114
 4172SOL    HW112562   3.522   2.648   3.073
 4172SOL    HW212563   3.514   2.808   3.043
 4173SOL     OW12564   3.082   2.179   2.322
 4173SOL    HW112565   3.145   2.102   2.312
 4173SOL    HW212566   3.108   2.234   2.400
 4174SOL     OW12567   2.448   2.598   2.531
 4174SOL    HW112568   2.490   2.688   2.520
 4174SOL    HW212569   2.379   2.585   2.460
 4175SOL     OW12570   3.612   2.226   3.515
 4175SOL    HW112571   3.603   2.243   3.417
 4175SOL    HW212572   3.537   2.167   3.545
 4176SOL     OW12573   3.615   2.779   3.369
 4176SOL    HW112574   3.608   2.875   3.394
 4176SOL    HW212575   3.593   2.768   3.272
 4177SOL     OW12576   2.729   3.225   1.907
 4177SOL    HW112577   2.688   3.249   1.995
 4177SOL    HW212578   2.744   3.309   1.853
 4178SOL     OW12579   2.528   3.646   2.807
 4178SOL    HW112580   2.504   3.740   2.783
 4178SOL    HW212581   2.626   3.632   2.793
 4179SOL     OW12582   2.731   2.833   2.718
 4179SOL    HW112583   2.782   2.754   2.754
 4179SOL    HW212584   2.688   2.882   2.793
 4180SOL     OW12585   2.940   2.852   1.946
 4180SOL    HW112586   2.912   2.905   1.866
 4180SOL    HW212587   3.017   2.793   1.921
 4181SOL     OW12588   3.710   3.417   2.708
 4181SOL    HW112589   3.631   3.407   2.647
 4181SOL    HW212590   3.698   3.355   2.786
 4182SOL     OW12591   2.092   3.150   3.722
 4182SOL    HW112592   2.022   3.088   3.687
 4182SOL    HW212593   2.064   3.185   3.811
 4183SOL     OW12594   1.950   3.092   2.525
 4183SOL    HW112595   1.953   3.046   2.614
 4183SOL    HW212596   2.018   3.051   2.464
 4184SOL     OW12597   2.542   3.234   3.470
 4184SOL    HW112598   2.459   3.195   3.510
 4184SOL    HW212599   2.533   3.334   3.466
 4185SOL     OW12600   3.666   2.044   3.095
 4185SOL    HW112601   3.681   1.948   3.120
 4185SOL    HW212602   3.679   2.056   2.997
 4186SOL     OW12603   2.292   2.290   2.388
 4186SOL    HW112604   2.326   2.220   2.326
 4186SOL    HW212605   2.238   2.246   2.460
 4187SOL     OW12606   3.556   3.339   2.948
 4187SOL    HW112607   3.473   3.324   2.895
 4187SOL    HW212608   3.558   3.275   3.025
 4188SOL     OW12609   2.198   2.418   3.151
 4188SOL    HW112610   2.254   2.361   3.210
 4188SOL    HW212611   2.213   2.392   3.055
 4189SOL     OW12612   2.690   3.442   2.540
 4189SOL    HW112613   2.676   3.504   2.463
 4189SOL    HW212614   2.614   3.378   2.546
 4190SOL     OW12615   3.292   2.093   2.979
 4190SOL    HW112616   3.314   2.003   3.016
 4190SOL    HW212617   3.238   2.144   3.045
 4191SOL     OW12618   2.872   1.878   2.998
 4191SOL    HW112619   2.808   1.815   2.954
 4191SOL    HW212620   2.963   1.837   3.000
 4192SOL     OW12621   2.637   3.193   2.184
 4192SOL    HW112622   2.609   3.098   2.192
 4192SOL    HW212623   2.722   3.209   2.234
 4193SOL     OW12624   2.489   3.420   3.159
 4193SOL    HW112625   2.488   3.507   3.209
 4193SOL    HW212626   2.579   3.406   3.118
 4194SOL     OW12627   3.217   1.911   2.033
 4194SOL    HW112628   3.260   1.843   1.974
 4194SOL    HW212629   3.124   1.883   2.055
 4195SOL     OW12630   3.152   2.327   2.542
 4195SOL    HW112631   3.100   2.412   2.543
 4195SOL    HW212632   3.151   2.285   2.632
 4196SOL     OW12633   3.448   2.064   2.747
 4196SOL    HW112634   3.390   2.084   2.826
 4196SOL    HW212635   3.450   2.144   2.686
 4197SOL     OW12636   1.905   2.925   2.170
 4197SOL    HW112637   2.003   2.925   2.151
 4197SOL    HW212638   1.875   2.832   2.192
 4198SOL     OW12639   2.746   3.525   2.202
 4198SOL    HW112640   2.671   3.504   2.139
 4198SOL    HW212641   2.721   3.603   2.260
 4199SOL     OW12642   2.082   2.481   3.853
 4199SOL    HW112643   1.990   2.481   3.893
 4199SOL    HW212644   2.076   2.459   3.755
 4200SOL     OW12645   2.084   2.145   4.719
 4200SOL    HW112646   2.117   2.110   4.807
 4200SOL    HW212647   1.991   2.112   4.702
 4201SOL     OW12648   1.862   2.248   4.358
 4201SOL    HW112649   1.778   2.278   4.404
 4201SOL    HW212650   1.843   2.165   4.305
 4202SOL     OW12651   2.431   3.161   4.911
 4202SOL    HW112652   2.341   3.158   4.868
 4202SOL    HW212653   2.449   3.254   4.945
 4203SOL     OW12654   3.428   3.374   4.433
 4203SOL    HW112655   3.385   3.349   4.520
 4203SOL    HW212656   3.358   3.382   4.363
 4204SOL     OW12657   2.995   2.565   4.419
 4204SOL    HW112658   3.047   2.649   4.402
 4204SOL    HW212659   2.945   2.573   4.504
 4205SOL     OW12660   3.633   2.460   3.947
 4205SOL    HW112661   3.609   2.456   3.850
 4205SOL    HW212662   3.595   2.381   3.994
 4206SOL     OW12663   2.604   3.002   4.766
 4206SOL    HW112664   2.537   3.037   4.831
 4206SOL    HW212665   2.649   3.078   4.719
 4207SOL     OW12666   2.737   2.625   5.545
 4207SOL    HW112667   2.725   2.693   5.618
 4207SOL    HW212668   2.761   2.671   5.460
 4208SOL     OW12669   2.545   2.860   4.373
 4208SOL    HW112670   2.617   2.851   4.443
 4208SOL    HW212671   2.471   2.917   4.409
 4209SOL     OW12672   2.573   3.015   5.543
 4209SOL    HW112673   2.626   3.093   5.576
 4209SOL    HW212674   2.489   3.047   5.500
 4210SOL     OW12675   2.189   3.284   4.790
 4210SOL    HW112676   2.112   3.239   4.744
 4210SOL    HW212677   2.241   3.337   4.723
 4211SOL     OW12678   3.319   3.364   5.083
 4211SOL    HW112679   3.377   3.445   5.090
 4211SOL    HW212680   3.248   3.368   5.153
 4212SOL     OW12681   2.312   2.254   5.201
 4212SOL    HW112682   2.394   2.197   5.210
 4212SOL    HW212683   2.231   2.199   5.221
 4213SOL     OW12684   3.472   2.307   4.469
 4213SOL    HW112685   3.398   2.326   4.404
 4213SOL    HW212686   3.478   2.382   4.536
 4214SOL     OW12687   2.082   3.576   4.199
 4214SOL    HW112688   2.100   3.655   4.257
 4214SOL    HW212689   2.156   3.565   4.133
 4215SOL     OW12690   2.999   3.202   5.422
 4215SOL    HW112691   3.046   3.199   5.510
 4215SOL    HW212692   2.943   3.120   5.412
 4216SOL     OW12693   2.096   3.309   4.269
 4216SOL    HW112694   2.077   3.407   4.266
 4216SOL    HW212695   2.034   3.265   4.334
 4217SOL     OW12696   2.134   2.952   4.625
 4217SOL    HW112697   2.129   2.858   4.657
 4217SOL    HW212698   2.071   3.009   4.678
 4218SOL     OW12699   2.459   3.659   5.150
 4218SOL    HW112700   2.376   3.635   5.200
 4218SOL    HW212701   2.491   3.749   5.179
 4219SOL     OW12702   2.440   2.844   3.872
 4219SOL    HW112703   2.481   2.895   3.797
 4219SOL    HW212704   2.480   2.873   3.959
 4220SOL     OW12705   3.459   1.987   5.193
 4220SOL    HW112706   3.481   2.067   5.137
 4220SOL    HW212707   3.443   2.016   5.287
 4221SOL     OW12708   1.977   2.523   4.288
 4221SOL    HW112709   1.947   2.429   4.306
 4221SOL    HW212710   1.971   2.575   4.373
 4222SOL     OW12711   3.715   3.629   4.074
 4222SOL    HW112712   3.790   3.598   4.134
 4222SOL    HW212713   3.733   3.722   4.044
 4223SOL     OW12714   1.849   3.445   3.848
 4223SOL    HW112715   1.856   3.351   3.882
 4223SOL    HW212716   1.856   3.509   3.925
 4224SOL     OW12717   3.554   2.783   4.372
 4224SOL    HW112718   3.637   2.732   4.354
 4224SOL    HW212719   3.529   2.837   4.291
 4225SOL     OW12720   3.516   2.966   4.156
 4225SOL    HW112721   3.605   2.962   4.110
 4225SOL    HW212722   3.519   3.033   4.230
 4226SOL     OW12723   1.986   2.607   5.309
 4226SOL    HW112724   2.082   2.634   5.309
 4226SOL    HW212725   1.928   2.688   5.309
 4227SOL     OW12726   2.475   3.256   4.453
 4227SOL    HW112727   2.429   3.168   4.465
 4227SOL    HW212728   2.462   3.288   4.359
 4228SOL     OW12729   3.150   3.096   5.145
 4228SOL    HW112730   3.176   3.026   5.080
 4228SOL    HW212731   3.210   3.092   5.225
 4229SOL     OW12732   2.680   1.872   4.232
 4229SOL    HW112733   2.726   1.958   4.209
 4229SOL    HW212734   2.581   1.888   4.240
 4230SOL     OW12735   2.052   2.823   5.002
 4230SOL    HW112736   2.141   2.780   4.988
 4230SOL    HW212737   1.984   2.776   4.946
 4231SOL     OW12738   3.394   2.863   3.929
 4231SOL    HW112739   3.320   2.802   3.959
 4231SOL    HW212740   3.441   2.900   4.009
 4232SOL     OW12741   3.043   3.674   5.347
 4232SOL    HW112742   3.051   3.743   5.275
 4232SOL    HW212743   3.063   3.584   5.309
 4233SOL     OW12744   2.204   2.110   5.559
 4233SOL    HW112745   2.253   2.196   5.575
 4233SOL    HW212746   2.107   2.124   5.577
 4234SOL     OW12747   3.326   3.282   4.671
 4234SOL    HW112748   3.260   3.301   4.743
 4234SOL    HW212749   3.318   3.186   4.642
 4235SOL     OW12750   3.508   3.618   4.315
 4235SOL    HW112751   3.491   3.593   4.220
 4235SOL    HW212752   3.489   3.540   4.374
 4236SOL     OW12753   2.456   2.580   3.998
 4236SOL    HW112754   2.459   2.666   3.947
 4236SOL    HW212755   2.387   2.587   4.070
 4237SOL     OW12756   3.139   2.223   4.658
 4237SOL    HW112757   3.046   2.188   4.664
 4237SOL    HW212758   3.199   2.170   4.719
 4238SOL     OW12759   3.450   3.548   4.055
 4238SOL    HW112760   3.548   3.568   4.051
 4238SOL    HW212761   3.415   3.533   3.962
 4239SOL     OW12762   2.651   2.475   5.173
 4239SOL    HW112763   2.627   2.450   5.267
 4239SOL    HW212764   2.615   2.406   5.110
 4240SOL     OW12765   3.253   2.332   5.403
 4240SOL    HW112766   3.253   2.381   5.490
 4240SOL    HW212767   3.313   2.252   5.410
 4241SOL     OW12768   2.814   2.746   5.308
 4241SOL    HW112769   2.872   2.675   5.269
 4241SOL    HW212770   2.760   2.788   5.235
 4242SOL     OW12771   2.856   2.267   4.952
 4242SOL    HW112772   2.765   2.288   4.988
 4242SOL    HW212773   2.847   2.218   4.865
 4243SOL     OW12774   2.912   2.560   4.150
 4243SOL    HW112775   2.934   2.555   4.247
 4243SOL    HW212776   2.826   2.512   4.133
 4244SOL     OW12777   1.951   2.690   4.504
 4244SOL    HW112778   2.036   2.677   4.555
 4244SOL    HW212779   1.901   2.768   4.541
 4245SOL     OW12780   1.990   3.736   5.312
 4245SOL    HW112781   1.995   3.708   5.408
 4245SOL    HW212782   1.906   3.701   5.272
 4246SOL     OW12783   2.758   2.214   3.921
 4246SOL    HW112784   2.799   2.282   3.860
 4246SOL    HW212785   2.766   2.123   3.880
 4247SOL     OW12786   3.561   2.434   5.550
 4247SOL    HW112787   3.527   2.513   5.500
 4247SOL    HW212788   3.592   2.364   5.486
 4248SOL     OW12789   3.245   3.003   4.260
 4248SOL    HW112790   3.328   2.987   4.207
 4248SOL    HW212791   3.190   3.073   4.215
 4249SOL     OW12792   2.409   2.034   4.625
 4249SOL    HW112793   2.413   2.064   4.721
 4249SOL    HW212794   2.412   2.114   4.565
 4250SOL     OW12795   2.867   3.304   4.200
 4250SOL    HW112796   2.841   3.384   4.147
 4250SOL    HW212797   2.842   3.317   4.296
 4251SOL     OW12798   2.218   3.676   4.596
 4251SOL    HW112799   2.262   3.587   4.602
 4251SOL    HW212800   2.285   3.748   4.615
 4252SOL     OW12801   3.661   2.918   4.597
 4252SOL    HW112802   3.610   2.894   4.514
 4252SOL    HW212803   3.597   2.924   4.674
 4253SOL     OW12804   3.088   3.398   5.238
 4253SOL    HW112805   3.076   3.324   5.305
 4253SOL    HW212806   3.020   3.389   5.166
 4254SOL     OW12807   2.180   2.820   3.981
 4254SOL    HW112808   2.269   2.841   3.939
 4254SOL    HW212809   2.145   2.735   3.941
 4255SOL     OW12810   3.346   2.613   4.446
 4255SOL    HW112811   3.340   2.568   4.536
 4255SOL    HW212812   3.426   2.672   4.443
 4256SOL     OW12813   2.331   3.128   5.455
 4256SOL    HW112814   2.305   3.134   5.358
 4256SOL    HW212815   2.249   3.125   5.511
 4257SOL     OW12816   2.983   3.633   3.943
 4257SOL    HW112817   2.916   3.603   4.011
 4257SOL    HW212818   2.969   3.583   3.858
 4258SOL     OW12819   2.064   2.135   5.227
 4258SOL    HW112820   1.983   2.193   5.224
 4258SOL    HW212821   2.042   2.047   5.269
 4259SOL     OW12822   3.487   3.225   3.829
 4259SOL    HW112823   3.456   3.319   3.847
 4259SOL    HW212824   3.409   3.168   3.806
 4260SOL     OW12825   2.320   3.598   4.048
 4260SOL    HW112826   2.361   3.660   4.115
 4260SOL    HW212827   2.390   3.570   3.982
 4261SOL     OW12828   3.263   1.966   4.162
 4261SOL    HW112829   3.251   1.940   4.066
 4261SOL    HW212830   3.361   1.975   4.182
 4262SOL     OW12831   2.121   3.653   4.949
 4262SOL    HW112832   2.171   3.580   4.994
 4262SOL    HW212833   2.101   3.627   4.855
 4263SOL     OW12834   2.799   3.565   4.621
 4263SOL    HW112835   2.881   3.518   4.653
 4263SOL    HW212836   2.757   3.512   4.547
 4264SOL     OW12837   2.258   2.549   4.199
 4264SOL    HW112838   2.277   2.452   4.213
 4264SOL    HW212839   2.161   2.567   4.215
 4265SOL     OW12840   3.389   2.085   5.452
 4265SOL    HW112841   3.400   2.106   5.549
 4265SOL    HW212842   3.316   2.017   5.440
 4266SOL     OW12843   2.504   1.978   3.826
 4266SOL    HW112844   2.572   1.908   3.848
 4266SOL    HW212845   2.447   1.947   3.750
 4267SOL     OW12846   2.625   2.138   5.481
 4267SOL    HW112847   2.710   2.086   5.475
 4267SOL    HW212848   2.574   2.108   5.562
 4268SOL     OW12849   2.736   3.376   4.917
 4268SOL    HW112850   2.717   3.340   4.826
 4268SOL    HW212851   2.809   3.323   4.959
 4269SOL     OW12852   3.201   2.451   5.160
 4269SOL    HW112853   3.231   2.416   5.248
 4269SOL    HW212854   3.237   2.543   5.146
 4270SOL     OW12855   2.682   3.250   4.666
 4270SOL    HW112856   2.772   3.239   4.624
 4270SOL    HW212857   2.613   3.257   4.594
 4271SOL     OW12858   2.789   2.369   4.621
 4271SOL    HW112859   2.762   2.362   4.525
 4271SOL    HW212860   2.821   2.281   4.654
 4272SOL     OW12861   2.409   1.926   4.217
 4272SOL    HW112862   2.328   1.924   4.275
 4272SOL    HW212863   2.406   2.007   4.158
 4273SOL     OW12864   3.288   3.058   3.765
 4273SOL    HW112865   3.320   2.980   3.820
 4273SOL    HW212866   3.200   3.090   3.801
 4274SOL     OW12867   2.152   1.910   3.910
 4274SOL    HW112868   2.204   1.982   3.863
 4274SOL    HW212869   2.215   1.846   3.953
 4275SOL     OW12870   2.809   2.113   4.180
 4275SOL    HW112871   2.778   2.154   4.094
 4275SOL    HW212872   2.907   2.127   4.189
 4276SOL     OW12873   2.941   2.545   5.178
 4276SOL    HW112874   2.867   2.479   5.184
 4276SOL    HW212875   3.029   2.497   5.174
 4277SOL     OW12876   3.081   3.432   4.519
 4277SOL    HW112877   3.095   3.502   4.448
 4277SOL    HW212878   3.153   3.439   4.588
 4278SOL     OW12879   2.332   3.016   4.450
 4278SOL    HW112880   2.266   2.995   4.522
 4278SOL    HW212881   2.289   3.003   4.361
 4279SOL     OW12882   3.123   3.654   4.334
 4279SOL    HW112883   3.177   3.717   4.278
 4279SOL    HW212884   3.051   3.705   4.381
 4280SOL     OW12885   2.884   2.396   3.755
 4280SOL    HW112886   2.838   2.481   3.731
 4280SOL    HW212887   2.953   2.413   3.824
 4281SOL     OW12888   1.949   2.419   5.115
 4281SOL    HW112889   2.044   2.415   5.083
 4281SOL    HW212890   1.941   2.490   5.185
 4282SOL     OW12891   2.420   2.086   4.897
 4282SOL    HW112892   2.470   2.010   4.940
 4282SOL    HW212893   2.325   2.084   4.926
 4283SOL     OW12894   2.728   2.320   4.360
 4283SOL    HW112895   2.680   2.382   4.297
 4283SOL    HW212896   2.756   2.238   4.310
 4284SOL     OW12897   2.879   1.915   4.469
 4284SOL    HW112898   2.819   1.915   4.389
 4284SOL    HW212899   2.854   1.839   4.529
 4285SOL     OW12900   3.308   3.022   4.582
 4285SOL    HW112901   3.232   2.957   4.586
 4285SOL    HW212902   3.338   3.033   4.487
 4286SOL     OW12903   3.330   2.471   4.693
 4286SOL    HW112904   3.267   2.393   4.692
 4286SOL    HW212905   3.391   2.464   4.772
 4287SOL     OW12906   3.702   2.670   4.105
 4287SOL    HW112907   3.762   2.623   4.170
 4287SOL    HW212908   3.674   2.606   4.033
 4288SOL     OW12909   2.355   3.231   3.918
 4288SOL    HW112910   2.264   3.220   3.959
 4288SOL    HW212911   2.348   3.218   3.819
 4289SOL     OW12912   3.537   3.129   4.366
 4289SOL    HW112913   3.637   3.125   4.379
 4289SOL    HW212914   3.504   3.221   4.388
 4290SOL     OW12915   3.252   2.434   3.796
 4290SOL    HW112916   3.190   2.411   3.870
 4290SOL    HW212917   3.346   2.409   3.821
 4291SOL     OW12918   2.390   2.126   4.033
 4291SOL    HW112919   2.438   2.074   3.962
 4291SOL    HW212920   2.361   2.214   3.995
 4292SOL     OW12921   3.614   3.103   5.282
 4292SOL    HW112922   3.704   3.061   5.269
 4292SOL    HW212923   3.626   3.196   5.317
 4293SOL     OW12924   2.915   3.212   5.060
 4293SOL    HW112925   2.833   3.182   5.110
 4293SOL    HW212926   2.996   3.172   5.102
 4294SOL     OW12927   3.476   3.492   5.381
 4294SOL    HW112928   3.460   3.527   5.289
 4294SOL    HW212929   3.561   3.440   5.383
 4295SOL     OW12930   3.001   3.083   4.829
 4295SOL    HW112931   2.940   3.117   4.901
 4295SOL    HW212932   2.966   3.113   4.740
 4296SOL     OW12933   3.486   2.958   4.803
 4296SOL    HW112934   3.481   3.024   4.879
 4296SOL    HW212935   3.410   2.975   4.740
 4297SOL     OW12936   2.786   1.955   5.115
 4297SOL    HW112937   2.807   1.933   5.020
 4297SOL    HW212938   2.865   1.999   5.157
 4298SOL     OW12939   2.841   2.977   5.445
 4298SOL    HW112940   2.747   2.996   5.472
 4298SOL    HW212941   2.843   2.894   5.389
 4299SOL     OW12942   2.576   2.921   4.098
 4299SOL    HW112943   2.557   2.903   4.195
 4299SOL    HW212944   2.654   2.866   4.069
 4300SOL     OW12945   2.285   2.677   4.978
 4300SOL    HW112946   2.357   2.691   5.045
 4300SOL    HW212947   2.246   2.586   4.989
 4301SOL     OW12948   3.124   2.238   5.005
 4301SOL    HW112949   3.161   2.317   5.054
 4301SOL    HW212950   3.029   2.255   4.980
 4302SOL     OW12951   1.937   3.434   5.078
 4302SOL    HW112952   1.901   3.503   5.015
 4302SOL    HW212953   2.037   3.432   5.071
 4303SOL     OW12954   2.204   2.983   4.210
 4303SOL    HW112955   2.207   3.064   4.153
 4303SOL    HW212956   2.200   2.901   4.152
 4304SOL     OW12957   2.409   2.405   4.586
 4304SOL    HW112958   2.423   2.464   4.507
 4304SOL    HW212959   2.478   2.425   4.655
 4305SOL     OW12960   3.115   3.216   4.131
 4305SOL    HW112961   3.174   3.291   4.159
 4305SOL    HW212962   3.021   3.235   4.160
 4306SOL     OW12963   3.151   3.324   4.871
 4306SOL    HW112964   3.209   3.330   4.953
 4306SOL    HW212965   3.097   3.240   4.875
 4307SOL     OW12966   3.439   2.482   4.208
 4307SOL    HW112967   3.388   2.530   4.279
 4307SOL    HW212968   3.486   2.549   4.150
 4308SOL     OW12969   2.210   3.393   5.033
 4308SOL    HW112970   2.194   3.347   4.945
 4308SOL    HW212971   2.308   3.406   5.045
 4309SOL     OW12972   2.278   2.609   5.324
 4309SOL    HW112973   2.345   2.654   5.265
 4309SOL    HW212974   2.310   2.517   5.347
 4310SOL     OW12975   3.471   2.647   5.409
 4310SOL    HW112976   3.380   2.689   5.407
 4310SOL    HW212977   3.528   2.688   5.338
 4311SOL     OW12978   2.859   1.997   5.474
 4311SOL    HW112979   2.917   2.077   5.459
 4311SOL    HW212980   2.909   1.914   5.447
 4312SOL     OW12981   2.354   1.897   5.475
 4312SOL    HW112982   2.309   1.839   5.407
 4312SOL    HW212983   2.297   1.977   5.494
 4313SOL     OW12984   2.447   2.733   4.759
 4313SOL    HW112985   2.482   2.827   4.756
 4313SOL    HW212986   2.386   2.723   4.838
 4314SOL     OW12987   3.212   2.719   4.747
 4314SOL    HW112988   3.121   2.709   4.707
 4314SOL    HW212989   3.262   2.633   4.738
 4315SOL     OW12990   3.059   2.388   3.988
 4315SOL    HW112991   3.072   2.305   4.043
 4315SOL    HW212992   3.015   2.458   4.044
 4316SOL     OW12993   2.159   2.058   4.971
 4316SOL    HW112994   2.123   2.094   5.057
 4316SOL    HW212995   2.143   1.959   4.967
 4317SOL     OW12996   1.915   3.172   4.999
 4317SOL    HW112997   1.946   3.110   5.071
 4317SOL    HW212998   1.917   3.266   5.032
 4318SOL     OW12999   2.586   2.492   4.778
 4318SOL    HW113000   2.663   2.473   4.717
 4318SOL    HW213001   2.551   2.584   4.760
 4319SOL     OW13002   3.599   2.823   5.581
 4319SOL    HW113003   3.556   2.753   5.523
 4319SOL    HW213004   3.539   2.842   5.659
 4320SOL     OW13005   2.169   1.923   4.352
 4320SOL    HW113006   2.144   2.018   4.370
 4320SOL    HW213007   2.181   1.874   4.439
 4321SOL     OW13008   3.490   2.243   4.085
 4321SOL    HW113009   3.516   2.169   4.147
 4321SOL    HW213010   3.461   2.323   4.138
 4322SOL     OW13011   2.886   2.617   4.681
 4322SOL    HW113012   2.880   2.639   4.779
 4322SOL    HW213013   2.859   2.522   4.666
 4323SOL     OW13014   2.843   3.425   5.442
 4323SOL    HW113015   2.826   3.472   5.356
 4323SOL    HW213016   2.891   3.339   5.424
 4324SOL     OW13017   3.716   3.365   5.327
 4324SOL    HW113018   3.735   3.391   5.233
 4324SOL    HW213019   3.799   3.376   5.383
 4325SOL     OW13020   2.215   2.780   5.529
 4325SOL    HW113021   2.295   2.802   5.585
 4325SOL    HW213022   2.240   2.715   5.458
 4326SOL     OW13023   3.389   2.130   3.854
 4326SOL    HW113024   3.320   2.062   3.879
 4326SOL    HW213025   3.426   2.172   3.937
 4327SOL     OW13026   3.148   2.683   3.753
 4327SOL    HW113027   3.190   2.593   3.764
 4327SOL    HW213028   3.174   2.721   3.664
 4328SOL     OW13029   2.932   3.200   4.579
 4328SOL    HW113030   2.936   3.122   4.517
 4328SOL    HW213031   2.991   3.273   4.545
 4329SOL     OW13032   2.173   2.668   4.667
 4329SOL    HW113033   2.270   2.693   4.661
 4329SOL    HW213034   2.165   2.574   4.699
 4330SOL     OW13035   2.188   2.390   4.735
 4330SOL    HW113036   2.149   2.298   4.725
 4330SOL    HW213037   2.269   2.399   4.677
 4331SOL     OW13038   2.996   2.234   5.417
 4331SOL    HW113039   2.943   2.291   5.480
 4331SOL    HW213040   3.088   2.272   5.408
 4332SOL     OW13041   3.024   2.065   5.200
 4332SOL    HW113042   3.009   2.127   5.277
 4332SOL    HW213043   3.066   2.114   5.125
 4333SOL     OW13044   1.864   3.172   3.923
 4333SOL    HW113045   1.775   3.188   3.879
 4333SOL    HW213046   1.867   3.078   3.957
 4334SOL     OW13047   1.956   3.644   4.669
 4334SOL    HW113048   1.919   3.564   4.623
 4334SOL    HW213049   2.049   3.661   4.636
 4335SOL     OW13050   2.355   3.438   4.628
 4335SOL    HW113051   2.425   3.504   4.655
 4335SOL    HW213052   2.395   3.371   4.565
 4336SOL     OW13053   2.835   2.655   4.948
 4336SOL    HW113054   2.895   2.632   5.023
 4336SOL    HW213055   2.745   2.612   4.962
 4337SOL     OW13056   1.899   2.416   4.841
 4337SOL    HW113057   1.982   2.403   4.786
 4337SOL    HW213058   1.925   2.417   4.938
 4338SOL     OW13059   2.054   2.385   5.455
 4338SOL    HW113060   2.106   2.331   5.389
 4338SOL    HW213061   2.016   2.465   5.409
 4339SOL     OW13062   3.243   2.796   5.378
 4339SOL    HW113063   3.266   2.894   5.379
 4339SOL    HW213064   3.239   2.764   5.284
 4340SOL     OW13065   2.679   2.434   4.086
 4340SOL    HW113066   2.688   2.355   4.026
 4340SOL    HW213067   2.601   2.489   4.056
 4341SOL     OW13068   3.504   2.465   4.904
 4341SOL    HW113069   3.488   2.406   4.983
 4341SOL    HW213070   3.596   2.448   4.868
 4342SOL     OW13071   2.101   3.408   5.449
 4342SOL    HW113072   2.080   3.483   5.513
 4342SOL    HW213073   2.108   3.322   5.500
 4343SOL     OW13074   2.572   2.308   4.976
 4343SOL    HW113075   2.513   2.231   4.952
 4343SOL    HW213076   2.568   2.377   4.903
 4344SOL     OW13077   2.781   3.543   5.197
 4344SOL    HW113078   2.755   3.496   5.112
 4344SOL    HW213079   2.781   3.642   5.181
 4345SOL     OW13080   2.320   2.357   3.908
 4345SOL    HW113081   2.385   2.429   3.934
 4345SOL    HW213082   2.229   2.397   3.896
 4346SOL     OW13083   2.003   3.000   5.200
 4346SOL    HW113084   2.005   2.956   5.290
 4346SOL    HW213085   2.023   2.932   5.129
 4347SOL     OW13086   3.177   2.905   4.942
 4347SOL    HW113087   3.204   2.837   4.874
 4347SOL    HW213088   3.110   2.968   4.902
 4348SOL     OW13089   3.179   2.718   4.024
 4348SOL    HW113090   3.103   2.692   4.083
 4348SOL    HW213091   3.154   2.705   3.929
 4349SOL     OW13092   3.643   3.590   4.882
 4349SOL    HW113093   3.704   3.624   4.811
 4349SOL    HW213094   3.611   3.498   4.857
 4350SOL     OW13095   3.103   3.594   4.827
 4350SOL    HW113096   3.189   3.624   4.785
 4350SOL    HW213097   3.109   3.498   4.852
 4351SOL     OW13098   1.949   3.126   4.734
 4351SOL    HW113099   1.933   3.141   4.832
 4351SOL    HW213100   1.877   3.068   4.697
 4352SOL     OW13101   2.543   3.537   5.462
 4352SOL    HW113102   2.480   3.614   5.456
 4352SOL    HW213103   2.617   3.549   5.395
 4353SOL     OW13104   3.582   2.013   4.222
 4353SOL    HW113105   3.657   2.003   4.157
 4353SOL    HW213106   3.564   1.926   4.267
 4354SOL     OW13107   3.258   3.436   4.217
 4354SOL    HW113108   3.325   3.471   4.152
 4354SOL    HW213109   3.201   3.511   4.250
 4355SOL     OW13110   2.008   3.649   5.570
 4355SOL    HW113111   1.951   3.580   5.615
 4355SOL    HW213112   2.057   3.702   5.639
 4356SOL     OW13113   3.144   2.790   4.390
 4356SOL    HW113114   3.219   2.726   4.407
 4356SOL    HW213115   3.178   2.867   4.336
 4357SOL     OW13116   2.664   3.141   5.149
 4357SOL    HW113117   2.635   3.185   5.234
 4357SOL    HW213118   2.594   3.155   5.079
 4358SOL     OW13119   3.478   3.591   5.111
 4358SOL    HW113120   3.536   3.591   5.030
 4358SOL    HW213121   3.464   3.685   5.142
 4359SOL     OW13122   3.704   2.031   4.688
 4359SOL    HW113123   3.738   1.939   4.665
 4359SOL    HW213124   3.613   2.043   4.648
 4360SOL     OW13125   2.116   2.175   4.439
 4360SOL    HW113126   2.028   2.212   4.411
 4360SOL    HW213127   2.120   2.168   4.539
 4361SOL     OW13128   2.685   2.872   5.103
 4361SOL    HW113129   2.736   2.855   5.018
 4361SOL    HW213130   2.682   2.970   5.121
 4362SOL     OW13131   2.783   2.771   4.014
 4362SOL    HW113132   2.846   2.807   3.946
 4362SOL    HW213133   2.827   2.699   4.067
 4363SOL     OW13134   3.355   3.513   3.801
 4363SOL    HW113135   3.277   3.462   3.765
 4363SOL    HW213136   3.430   3.510   3.735
 4364SOL     OW13137   2.227   3.165   5.211
 4364SOL    HW113138   2.217   3.246   5.152
 4364SOL    HW213139   2.148   3.106   5.200
 4365SOL     OW13140   3.475   3.147   5.009
 4365SOL    HW113141   3.538   3.126   5.084
 4365SOL    HW213142   3.409   3.216   5.038
 4366SOL     OW13143   2.925   2.969   4.440
 4366SOL    HW113144   2.848   2.919   4.479
 4366SOL    HW213145   2.993   2.904   4.407
 4367SOL     OW13146   2.885   2.102   4.691
 4367SOL    HW113147   2.881   2.058   4.601
 4367SOL    HW213148   2.882   2.031   4.762
 4368SOL     OW13149   2.470   3.357   4.196
 4368SOL    HW113150   2.516   3.294   4.134
 4368SOL    HW213151   2.384   3.388   4.155
 4369SOL     OW13152   3.594   2.256   5.105
 4369SOL    HW113153   3.667   2.324   5.105
 4369SOL    HW213154   3.619   2.181   5.043
 4370SOL     OW13155   2.109   3.207   4.025
 4370SOL    HW113156   2.015   3.200   3.993
 4370SOL    HW213157   2.111   3.250   4.115
 4371SOL     OW13158   1.977   2.899   5.454
 4371SOL    HW113159   1.895   2.870   5.504
 4371SOL    HW213160   2.057   2.852   5.491
 4372SOL     OW13161   2.546   2.055   5.224
 4372SOL    HW113162   2.632   2.031   5.180
 4372SOL    HW213163   2.564   2.090   5.316
 4373SOL     OW13164   1.944   2.189   3.752
 4373SOL    HW113165   1.852   2.166   3.719
 4373SOL    HW213166   1.976   2.271   3.705
 4374SOL     OW13167   3.284   2.718   5.118
 4374SOL    HW113168   3.229   2.782   5.065
 4374SOL    HW213169   3.378   2.719   5.085
 4375SOL     OW13170   1.924   2.017   4.025
 4375SOL    HW113171   1.908   2.101   3.973
 4375SOL    HW213172   2.013   1.978   3.998
 4376SOL     OW13173   3.062   3.164   3.867
 4376SOL    HW113174   2.973   3.119   3.863
 4376SOL    HW213175   3.086   3.183   3.962
 4377SOL     OW13176   2.486   2.692   5.158
 4377SOL    HW113177   2.543   2.772   5.144
 4377SOL    HW213178   2.543   2.611   5.167
 4378SOL     OW13179   3.347   3.652   4.712
 4378SOL    HW113180   3.369   3.715   4.638
 4378SOL    HW213181   3.432   3.616   4.751
 4379SOL     OW13182   2.584   2.419   5.426
 4379SOL    HW113183   2.629   2.486   5.486
 4379SOL    HW213184   2.603   2.327   5.460
 4380SOL     OW13185   3.336   3.057   5.358
 4380SOL    HW113186   3.321   3.071   5.456
 4380SOL    HW213187   3.432   3.076   5.336
 4381SOL     OW13188   2.232   3.600   5.291
 4381SOL    HW113189   2.148   3.653   5.276
 4381SOL    HW213190   2.209   3.513   5.333
 4382SOL     OW13191   3.527   2.740   4.980
 4382SOL    HW113192   3.522   2.649   4.939
 4382SOL    HW213193   3.514   2.809   4.909
 4383SOL     OW13194   3.081   2.178   4.184
 4383SOL    HW113195   3.145   2.102   4.174
 4383SOL    HW213196   3.108   2.234   4.263
 4384SOL     OW13197   2.448   2.598   4.393
 4384SOL    HW113198   2.490   2.689   4.383
 4384SOL    HW213199   2.379   2.585   4.322
 4385SOL     OW13200   3.612   2.227   5.377
 4385SOL    HW113201   3.603   2.243   5.279
 4385SOL    HW213202   3.537   2.167   5.408
 4386SOL     OW13203   3.615   2.794   5.233
 4386SOL    HW113204   3.603   2.891   5.255
 4386SOL    HW213205   3.593   2.778   5.137
 4387SOL     OW13206   2.527   3.645   4.664
 4387SOL    HW113207   2.504   3.740   4.644
 4387SOL    HW213208   2.626   3.633   4.655
 4388SOL     OW13209   2.731   2.833   4.580
 4388SOL    HW113210   2.782   2.755   4.616
 4388SOL    HW213211   2.688   2.882   4.656
 4389SOL     OW13212   2.945   2.855   3.818
 4389SOL    HW113213   2.901   2.893   3.737
 4389SOL    HW213214   3.021   2.796   3.790
 4390SOL     OW13215   3.708   3.418   4.571
 4390SOL    HW113216   3.631   3.406   4.508
 4390SOL    HW213217   3.703   3.349   4.643
 4391SOL     OW13218   2.093   3.160   5.580
 4391SOL    HW113219   2.029   3.092   5.545
 4391SOL    HW213220   2.077   3.173   5.678
 4392SOL     OW13221   1.949   3.091   4.388
 4392SOL    HW113222   1.955   3.045   4.476
 4392SOL    HW213223   2.017   3.053   4.325
 4393SOL     OW13224   2.545   3.272   5.358
 4393SOL    HW113225   2.464   3.222   5.390
 4393SOL    HW213226   2.544   3.365   5.395
 4394SOL     OW13227   3.666   2.044   4.957
 4394SOL    HW113228   3.681   1.948   4.982
 4394SOL    HW213229   3.679   2.056   4.859
 4395SOL     OW13230   2.292   2.289   4.251
 4395SOL    HW113231   2.326   2.220   4.188
 4395SOL    HW213232   2.237   2.246   4.322
 4396SOL     OW13233   3.554   3.344   4.817
 4396SOL    HW113234   3.474   3.326   4.761
 4396SOL    HW213235   3.562   3.273   4.888
 4397SOL     OW13236   2.198   2.419   5.013
 4397SOL    HW113237   2.254   2.361   5.072
 4397SOL    HW213238   2.213   2.392   4.917
 4398SOL     OW13239   2.691   3.441   4.404
 4398SOL    HW113240   2.671   3.505   4.330
 4398SOL    HW213241   2.615   3.376   4.412
 4399SOL     OW13242   3.292   2.093   4.841
 4399SOL    HW113243   3.314   2.003   4.878
 4399SOL    HW213244   3.238   2.144   4.908
 4400SOL     OW13245   2.872   1.878   4.860
 4400SOL    HW113246   2.808   1.815   4.816
 4400SOL    HW213247   2.963   1.837   4.862
 4401SOL     OW13248   2.645   3.198   4.055
 4401SOL    HW113249   2.608   3.104   4.055
 4401SOL    HW213250   2.731   3.199   4.104
 4402SOL     OW13251   2.485   3.421   5.014
 4402SOL    HW113252   2.482   3.508   5.063
 4402SOL    HW213253   2.576   3.409   4.974
 4403SOL     OW13254   3.217   1.911   3.895
 4403SOL    HW113255   3.260   1.844   3.836
 4403SOL    HW213256   3.124   1.882   3.917
 4404SOL     OW13257   3.152   2.327   4.404
 4404SOL    HW113258   3.100   2.412   4.406
 4404SOL    HW213259   3.151   2.285   4.495
 4405SOL     OW13260   3.448   2.064   4.609
 4405SOL    HW113261   3.390   2.084   4.688
 4405SOL    HW213262   3.450   2.144   4.548
 4406SOL     OW13263   1.905   2.923   4.034
 4406SOL    HW113264   2.003   2.922   4.013
 4406SOL    HW213265   1.875   2.830   4.055
 4407SOL     OW13266   2.755   3.520   4.074
 4407SOL    HW113267   2.678   3.460   4.050
 4407SOL    HW213268   2.722   3.598   4.127
 4408SOL     OW13269   2.082   2.481   5.715
 4408SOL    HW113270   1.990   2.480   5.755
 4408SOL    HW213271   2.076   2.459   5.617
 4409SOL     OW13272   2.082   2.149   6.583
 4409SOL    HW113273   2.118   2.111   6.668
 4409SOL    HW213274   1.991   2.113   6.566
 4410SOL     OW13275   1.861   2.248   6.221
 4410SOL    HW113276   1.778   2.280   6.266
 4410SOL    HW213277   1.842   2.165   6.168
 4411SOL     OW13278   2.419   3.148   6.759
 4411SOL    HW113279   2.332   3.164   6.714
 4411SOL    HW213280   2.448   3.231   6.807
 4412SOL     OW13281   3.427   3.375   6.294
 4412SOL    HW113282   3.382   3.352   6.380
 4412SOL    HW213283   3.359   3.383   6.221
 4413SOL     OW13284   2.995   2.565   6.280
 4413SOL    HW113285   3.046   2.650   6.265
 4413SOL    HW213286   2.943   2.572   6.365
 4414SOL     OW13287   3.634   2.460   5.808
 4414SOL    HW113288   3.609   2.456   5.711
 4414SOL    HW213289   3.595   2.381   5.856
 4415SOL     OW13290   2.617   3.005   6.630
 4415SOL    HW113291   2.544   3.032   6.693
 4415SOL    HW213292   2.650   3.086   6.581
 4416SOL     OW13293   2.546   2.860   6.235
 4416SOL    HW113294   2.616   2.850   6.304
 4416SOL    HW213295   2.471   2.916   6.271
 4417SOL     OW13296   2.192   3.272   6.643
 4417SOL    HW113297   2.111   3.233   6.601
 4417SOL    HW213298   2.239   3.331   6.578
 4418SOL     OW13299   3.472   2.309   6.331
 4418SOL    HW113300   3.398   2.325   6.266
 4418SOL    HW213301   3.471   2.380   6.401
 4419SOL     OW13302   2.084   3.576   6.057
 4419SOL    HW113303   2.102   3.655   6.116
 4419SOL    HW213304   2.159   3.566   5.991
 4420SOL     OW13305   2.096   3.306   6.122
 4420SOL    HW113306   2.079   3.404   6.122
 4420SOL    HW213307   2.036   3.262   6.189
 4421SOL     OW13308   2.131   2.953   6.489
 4421SOL    HW113309   2.127   2.859   6.523
 4421SOL    HW213310   2.070   3.011   6.544
 4422SOL     OW13311   2.472   3.667   6.988
 4422SOL    HW113312   2.383   3.640   0.025
 4422SOL    HW213313   2.496   3.758   0.020
 4423SOL     OW13314   2.443   2.850   5.728
 4423SOL    HW113315   2.491   2.896   5.653
 4423SOL    HW213316   2.484   2.878   5.815
 4424SOL     OW13317   1.976   2.524   6.150
 4424SOL    HW113318   1.946   2.430   6.167
 4424SOL    HW213319   1.971   2.576   6.235
 4425SOL     OW13320   3.708   3.617   5.918
 4425SOL    HW113321   3.779   3.587   5.982
 4425SOL    HW213322   3.723   3.713   5.894
 4426SOL     OW13323   1.892   3.452   5.709
 4426SOL    HW113324   1.876   3.355   5.727
 4426SOL    HW213325   1.871   3.505   5.790
 4427SOL     OW13326   3.553   2.783   6.232
 4427SOL    HW113327   3.637   2.731   6.214
 4427SOL    HW213328   3.530   2.837   6.151
 4428SOL     OW13329   3.515   2.967   6.018
 4428SOL    HW113330   3.604   2.963   5.973
 4428SOL    HW213331   3.518   3.034   6.092
 4429SOL     OW13332   2.473   3.253   6.319
 4429SOL    HW113333   2.427   3.165   6.332
 4429SOL    HW213334   2.460   3.284   6.225
 4430SOL     OW13335   2.680   1.872   6.095
 4430SOL    HW113336   2.726   1.958   6.072
 4430SOL    HW213337   2.582   1.888   6.102
 4431SOL     OW13338   2.055   2.836   6.843
 4431SOL    HW113339   2.137   2.781   6.827
 4431SOL    HW213340   1.974   2.783   6.820
 4432SOL     OW13341   3.394   2.864   5.790
 4432SOL    HW113342   3.320   2.803   5.820
 4432SOL    HW213343   3.441   2.901   5.870
 4433SOL     OW13344   3.313   3.285   6.530
 4433SOL    HW113345   3.255   3.299   6.611
 4433SOL    HW213346   3.310   3.189   6.503
 4434SOL     OW13347   3.510   3.614   6.161
 4434SOL    HW113348   3.493   3.583   6.068
 4434SOL    HW213349   3.492   3.540   6.225
 4435SOL     OW13350   2.456   2.581   5.860
 4435SOL    HW113351   2.461   2.666   5.808
 4435SOL    HW213352   2.387   2.589   5.931
 4436SOL     OW13353   3.137   2.220   6.517
 4436SOL    HW113354   3.043   2.186   6.525
 4436SOL    HW213355   3.195   2.170   6.581
 4437SOL     OW13356   3.445   3.534   5.894
 4437SOL    HW113357   3.541   3.561   5.891
 4437SOL    HW213358   3.412   3.517   5.801
 4438SOL     OW13359   2.655   2.471   0.047
 4438SOL    HW113360   2.592   2.514   0.112
 4438SOL    HW213361   2.603   2.415   6.982
 4439SOL     OW13362   2.869   2.256   6.793
 4439SOL    HW113363   2.808   2.310   6.851
 4439SOL    HW213364   2.815   2.209   6.723
 4440SOL     OW13365   2.913   2.561   6.010
 4440SOL    HW113366   2.935   2.556   6.108
 4440SOL    HW213367   2.826   2.513   5.994
 4441SOL     OW13368   1.952   2.688   6.367
 4441SOL    HW113369   2.038   2.677   6.418
 4441SOL    HW213370   1.903   2.768   6.402
 4442SOL     OW13371   2.005   3.693   0.136
 4442SOL    HW113372   1.947   3.652   0.206
 4442SOL    HW213373   1.951   3.714   0.055
 4443SOL     OW13374   2.758   2.215   5.783
 4443SOL    HW113375   2.799   2.283   5.722
 4443SOL    HW213376   2.767   2.124   5.742
 4444SOL     OW13377   3.242   3.005   6.119
 4444SOL    HW113378   3.327   2.990   6.068
 4444SOL    HW213379   3.186   3.072   6.070
 4445SOL     OW13380   2.408   2.033   6.486
 4445SOL    HW113381   2.414   2.065   6.580
 4445SOL    HW213382   2.412   2.112   6.424
 4446SOL     OW13383   2.856   3.305   6.049
 4446SOL    HW113384   2.825   3.386   5.999
 4446SOL    HW213385   2.839   3.318   6.147
 4447SOL     OW13386   2.218   3.677   6.457
 4447SOL    HW113387   2.262   3.588   6.464
 4447SOL    HW213388   2.285   3.749   6.475
 4448SOL     OW13389   3.664   2.918   6.453
 4448SOL    HW113390   3.614   2.893   6.370
 4448SOL    HW213391   3.601   2.918   6.531
 4449SOL     OW13392   2.183   2.821   5.841
 4449SOL    HW113393   2.271   2.842   5.798
 4449SOL    HW213394   2.146   2.736   5.803
 4450SOL     OW13395   3.345   2.613   6.306
 4450SOL    HW113396   3.339   2.566   6.394
 4450SOL    HW213397   3.426   2.671   6.304
 4451SOL     OW13398   2.984   3.638   5.812
 4451SOL    HW113399   2.904   3.600   5.860
 4451SOL    HW213400   3.014   3.573   5.741
 4452SOL     OW13401   3.486   3.244   5.675
 4452SOL    HW113402   3.448   3.335   5.659
 4452SOL    HW213403   3.417   3.175   5.656
 4453SOL     OW13404   2.326   3.597   5.904
 4453SOL    HW113405   2.368   3.659   5.970
 4453SOL    HW213406   2.397   3.560   5.844
 4454SOL     OW13407   3.263   1.966   6.024
 4454SOL    HW113408   3.251   1.940   5.928
 4454SOL    HW213409   3.360   1.974   6.045
 4455SOL     OW13410   2.124   3.658   6.812
 4455SOL    HW113411   2.168   3.588   6.869
 4455SOL    HW213412   2.105   3.621   6.722
 4456SOL     OW13413   2.799   3.562   6.481
 4456SOL    HW113414   2.885   3.518   6.507
 4456SOL    HW213415   2.756   3.511   6.406
 4457SOL     OW13416   2.258   2.550   6.060
 4457SOL    HW113417   2.277   2.453   6.074
 4457SOL    HW213418   2.161   2.567   6.077
 4458SOL     OW13419   2.504   1.978   5.688
 4458SOL    HW113420   2.572   1.908   5.710
 4458SOL    HW213421   2.447   1.947   5.612
 4459SOL     OW13422   2.725   3.378   6.764
 4459SOL    HW113423   2.709   3.345   6.671
 4459SOL    HW213424   2.768   3.306   6.818
 4460SOL     OW13425   2.681   3.250   6.520
 4460SOL    HW113426   2.771   3.239   6.479
 4460SOL    HW213427   2.611   3.256   6.448
 4461SOL     OW13428   2.789   2.370   6.483
 4461SOL    HW113429   2.762   2.362   6.388
 4461SOL    HW213430   2.827   2.283   6.515
 4462SOL     OW13431   2.410   1.927   6.079
 4462SOL    HW113432   2.328   1.924   6.137
 4462SOL    HW213433   2.406   2.007   6.020
 4463SOL     OW13434   3.287   3.061   5.629
 4463SOL    HW113435   3.321   2.984   5.682
 4463SOL    HW213436   3.199   3.090   5.665
 4464SOL     OW13437   2.152   1.910   5.772
 4464SOL    HW113438   2.204   1.982   5.724
 4464SOL    HW213439   2.215   1.846   5.815
 4465SOL     OW13440   2.809   2.113   6.042
 4465SOL    HW113441   2.778   2.155   5.956
 4465SOL    HW213442   2.907   2.127   6.051
 4466SOL     OW13443   3.079   3.434   6.382
 4466SOL    HW113444   3.094   3.504   6.312
 4466SOL    HW213445   3.159   3.430   6.443
 4467SOL     OW13446   2.330   3.013   6.314
 4467SOL    HW113447   2.264   2.994   6.386
 4467SOL    HW213448   2.287   3.001   6.225
 4468SOL     OW13449   3.123   3.653   6.197
 4468SOL    HW113450   3.176   3.715   6.139
 4468SOL    HW213451   3.049   3.704   6.241
 4469SOL     OW13452   2.883   2.397   5.616
 4469SOL    HW113453   2.838   2.483   5.592
 4469SOL    HW213454   2.953   2.414   5.686
 4470SOL     OW13455   2.423   2.083   6.757
 4470SOL    HW113456   2.470   2.001   6.790
 4470SOL    HW213457   2.328   2.081   6.789
 4471SOL     OW13458   2.727   2.321   6.222
 4471SOL    HW113459   2.680   2.382   6.158
 4471SOL    HW213460   2.756   2.238   6.174
 4472SOL     OW13461   2.880   1.910   6.326
 4472SOL    HW113462   2.818   1.910   6.247
 4472SOL    HW213463   2.855   1.836   6.388
 4473SOL     OW13464   3.303   3.022   6.442
 4473SOL    HW113465   3.233   2.950   6.443
 4473SOL    HW213466   3.335   3.035   6.348
 4474SOL     OW13467   3.329   2.468   6.549
 4474SOL    HW113468   3.266   2.391   6.554
 4474SOL    HW213469   3.391   2.466   6.627
 4475SOL     OW13470   3.703   2.670   5.966
 4475SOL    HW113471   3.762   2.623   6.032
 4475SOL    HW213472   3.674   2.606   5.894
 4476SOL     OW13473   2.349   3.283   5.741
 4476SOL    HW113474   2.268   3.256   5.794
 4476SOL    HW213475   2.348   3.236   5.652
 4477SOL     OW13476   3.537   3.129   6.229
 4477SOL    HW113477   3.637   3.125   6.241
 4477SOL    HW213478   3.505   3.221   6.250
 4478SOL     OW13479   3.252   2.437   5.656
 4478SOL    HW113480   3.189   2.413   5.731
 4478SOL    HW213481   3.345   2.411   5.682
 4479SOL     OW13482   2.390   2.126   5.895
 4479SOL    HW113483   2.438   2.074   5.824
 4479SOL    HW213484   2.361   2.214   5.857
 4480SOL     OW13485   3.622   3.039   0.170
 4480SOL    HW113486   3.719   3.027   0.151
 4480SOL    HW213487   3.594   3.131   0.144
 4481SOL     OW13488   2.979   3.101   6.694
 4481SOL    HW113489   2.897   3.055   6.727
 4481SOL    HW213490   2.967   3.126   6.598
 4482SOL     OW13491   3.480   2.945   6.650
 4482SOL    HW113492   3.480   3.016   6.720
 4482SOL    HW213493   3.406   2.963   6.585
 4483SOL     OW13494   2.576   2.921   5.959
 4483SOL    HW113495   2.558   2.903   6.056
 4483SOL    HW213496   2.654   2.867   5.929
 4484SOL     OW13497   2.287   2.676   6.846
 4484SOL    HW113498   2.342   2.703   6.925
 4484SOL    HW213499   2.252   2.583   6.860
 4485SOL     OW13500   3.132   2.251   6.855
 4485SOL    HW113501   3.159   2.324   6.918
 4485SOL    HW213502   3.037   2.266   6.826
 4486SOL     OW13503   1.932   3.440   6.937
 4486SOL    HW113504   1.896   3.509   6.874
 4486SOL    HW213505   2.031   3.433   6.926
 4487SOL     OW13506   2.202   2.982   6.073
 4487SOL    HW113507   2.207   3.064   6.016
 4487SOL    HW213508   2.201   2.901   6.014
 4488SOL     OW13509   2.408   2.407   6.449
 4488SOL    HW113510   2.421   2.466   6.369
 4488SOL    HW213511   2.479   2.425   6.516
 4489SOL     OW13512   3.108   3.217   5.978
 4489SOL    HW113513   3.169   3.290   6.010
 4489SOL    HW213514   3.014   3.237   6.008
 4490SOL     OW13515   3.144   3.312   6.748
 4490SOL    HW113516   3.182   3.300   6.840
 4490SOL    HW213517   3.082   3.237   6.727
 4491SOL     OW13518   3.438   2.483   6.069
 4491SOL    HW113519   3.388   2.529   6.141
 4491SOL    HW213520   3.486   2.550   6.012
 4492SOL     OW13521   2.204   3.392   6.882
 4492SOL    HW113522   2.188   3.337   6.800
 4492SOL    HW213523   2.302   3.407   6.894
 4493SOL     OW13524   2.447   2.732   6.623
 4493SOL    HW113525   2.480   2.826   6.617
 4493SOL    HW213526   2.387   2.722   6.703
 4494SOL     OW13527   3.207   2.718   6.594
 4494SOL    HW113528   3.116   2.702   6.555
 4494SOL    HW213529   3.261   2.634   6.590
 4495SOL     OW13530   3.059   2.388   5.850
 4495SOL    HW113531   3.072   2.306   5.905
 4495SOL    HW213532   3.015   2.459   5.905
 4496SOL     OW13533   2.163   2.060   6.835
 4496SOL    HW113534   2.117   2.094   6.917
 4496SOL    HW213535   2.149   1.961   6.828
 4497SOL     OW13536   1.898   3.176   6.870
 4497SOL    HW113537   1.942   3.117   6.937
 4497SOL    HW213538   1.906   3.271   6.899
 4498SOL     OW13539   2.586   2.488   6.641
 4498SOL    HW113540   2.664   2.468   6.582
 4498SOL    HW213541   2.555   2.581   6.624
 4499SOL     OW13542   2.169   1.923   6.214
 4499SOL    HW113543   2.144   2.018   6.231
 4499SOL    HW213544   2.180   1.875   6.300
 4500SOL     OW13545   3.490   2.244   5.947
 4500SOL    HW113546   3.516   2.170   6.009
 4500SOL    HW213547   3.461   2.323   6.000
 4501SOL     OW13548   2.884   2.619   6.550
 4501SOL    HW113549   2.878   2.639   6.648
 4501SOL    HW213550   2.859   2.523   6.534
 4502SOL     OW13551   3.389   2.130   5.716
 4502SOL    HW113552   3.320   2.062   5.741
 4502SOL    HW213553   3.426   2.173   5.798
 4503SOL     OW13554   3.150   2.687   5.611
 4503SOL    HW113555   3.190   2.597   5.620
 4503SOL    HW213556   3.181   2.730   5.527
 4504SOL     OW13557   2.934   3.200   6.439
 4504SOL    HW113558   2.938   3.122   6.377
 4504SOL    HW213559   2.991   3.274   6.404
 4505SOL     OW13560   2.175   2.667   6.528
 4505SOL    HW113561   2.272   2.693   6.522
 4505SOL    HW213562   2.169   2.572   6.559
 4506SOL     OW13563   2.192   2.391   6.604
 4506SOL    HW113564   2.153   2.300   6.591
 4506SOL    HW213565   2.273   2.401   6.545
 4507SOL     OW13566   3.003   2.103   0.054
 4507SOL    HW113567   3.073   2.114   0.124
 4507SOL    HW213568   3.036   2.142   6.968
 4508SOL     OW13569   1.863   3.176   5.781
 4508SOL    HW113570   1.773   3.196   5.741
 4508SOL    HW213571   1.863   3.083   5.816
 4509SOL     OW13572   1.955   3.648   6.527
 4509SOL    HW113573   1.918   3.566   6.482
 4509SOL    HW213574   2.049   3.663   6.497
 4510SOL     OW13575   2.355   3.440   6.489
 4510SOL    HW113576   2.425   3.505   6.518
 4510SOL    HW213577   2.395   3.372   6.428
 4511SOL     OW13578   2.841   2.657   6.823
 4511SOL    HW113579   2.920   2.635   6.880
 4511SOL    HW213580   2.760   2.611   6.859
 4512SOL     OW13581   1.913   2.421   6.711
 4512SOL    HW113582   1.969   2.387   6.635
 4512SOL    HW213583   1.973   2.455   6.783
 4513SOL     OW13584   2.679   2.434   5.948
 4513SOL    HW113585   2.689   2.355   5.888
 4513SOL    HW213586   2.601   2.489   5.918
 4514SOL     OW13587   3.510   2.472   6.752
 4514SOL    HW113588   3.494   2.413   6.831
 4514SOL    HW213589   3.605   2.461   6.721
 4515SOL     OW13590   2.534   2.325   6.850
 4515SOL    HW113591   2.498   2.237   6.819
 4515SOL    HW213592   2.550   2.385   6.771
 4516SOL     OW13593   2.806   3.524   6.995
 4516SOL    HW113594   2.772   3.511   6.902
 4516SOL    HW213595   2.787   3.618   0.025
 4517SOL     OW13596   2.320   2.357   5.771
 4517SOL    HW113597   2.385   2.429   5.796
 4517SOL    HW213598   2.229   2.397   5.758
 4518SOL     OW13599   2.019   3.006   0.050
 4518SOL    HW113600   2.069   2.969   0.128
 4518SOL    HW213601   2.031   2.946   6.971
 4519SOL     OW13602   3.145   2.866   6.814
 4519SOL    HW113603   3.182   2.815   6.736
 4519SOL    HW213604   3.122   2.959   6.785
 4520SOL     OW13605   3.178   2.720   5.884
 4520SOL    HW113606   3.103   2.691   5.943
 4520SOL    HW213607   3.153   2.706   5.788
 4521SOL     OW13608   3.619   3.619   6.726
 4521SOL    HW113609   3.693   3.642   6.663
 4521SOL    HW213610   3.595   3.523   6.716
 4522SOL     OW13611   3.110   3.587   6.699
 4522SOL    HW113612   3.194   3.616   6.653
 4522SOL    HW213613   3.115   3.489   6.718
 4523SOL     OW13614   1.944   3.131   6.600
 4523SOL    HW113615   1.927   3.143   6.698
 4523SOL    HW213616   1.876   3.069   6.562
 4524SOL     OW13617   3.582   2.014   6.084
 4524SOL    HW113618   3.657   2.003   6.019
 4524SOL    HW213619   3.564   1.926   6.129
 4525SOL     OW13620   3.258   3.433   6.075
 4525SOL    HW113621   3.320   3.464   6.003
 4525SOL    HW213622   3.202   3.509   6.107
 4526SOL     OW13623   3.144   2.791   6.253
 4526SOL    HW113624   3.218   2.726   6.268
 4526SOL    HW213625   3.177   2.867   6.197
 4527SOL     OW13626   2.530   3.484   5.740
 4527SOL    HW113627   2.547   3.503   5.644
 4527SOL    HW213628   2.472   3.403   5.749
 4528SOL     OW13629   3.704   2.036   6.557
 4528SOL    HW113630   3.739   1.945   6.534
 4528SOL    HW213631   3.612   2.047   6.518
 4529SOL     OW13632   2.116   2.175   6.301
 4529SOL    HW113633   2.027   2.212   6.273
 4529SOL    HW213634   2.119   2.169   6.401
 4530SOL     OW13635   3.071   3.462   5.619
 4530SOL    HW113636   3.061   3.368   5.652
 4530SOL    HW213637   3.003   3.479   5.547
 4531SOL     OW13638   2.637   2.887   6.953
 4531SOL    HW113639   2.697   2.842   6.886
 4531SOL    HW213640   2.683   2.968   6.989
 4532SOL     OW13641   2.782   2.773   5.873
 4532SOL    HW113642   2.844   2.808   5.802
 4532SOL    HW213643   2.830   2.701   5.925
 4533SOL     OW13644   3.350   3.493   5.628
 4533SOL    HW113645   3.251   3.481   5.617
 4533SOL    HW213646   3.394   3.498   5.539
 4534SOL     OW13647   3.478   3.141   6.834
 4534SOL    HW113648   3.568   3.140   6.876
 4534SOL    HW213649   3.409   3.119   6.904
 4535SOL     OW13650   2.924   2.968   6.302
 4535SOL    HW113651   2.847   2.917   6.340
 4535SOL    HW213652   2.993   2.904   6.269
 4536SOL     OW13653   2.882   2.099   6.540
 4536SOL    HW113654   2.881   2.050   6.452
 4536SOL    HW213655   2.884   2.033   6.615
 4537SOL     OW13656   2.467   3.348   6.066
 4537SOL    HW113657   2.519   3.294   6.000
 4537SOL    HW213658   2.392   3.395   6.019
 4538SOL     OW13659   3.557   2.285   6.946
 4538SOL    HW113660   3.620   2.293   0.023
 4538SOL    HW213661   3.564   2.194   6.905
 4539SOL     OW13662   2.115   3.210   5.875
 4539SOL    HW113663   2.019   3.203   5.847
 4539SOL    HW213664   2.120   3.249   5.967
 4540SOL     OW13665   2.537   2.050   0.080
 4540SOL    HW113666   2.629   2.020   0.053
 4540SOL    HW213667   2.544   2.134   0.134
 4541SOL     OW13668   1.944   2.189   5.614
 4541SOL    HW113669   1.852   2.166   5.582
 4541SOL    HW213670   1.976   2.271   5.567
 4542SOL     OW13671   1.924   2.017   5.887
 4542SOL    HW113672   1.908   2.101   5.835
 4542SOL    HW213673   2.013   1.978   5.860
 4543SOL     OW13674   3.042   3.199   5.707
 4543SOL    HW113675   2.947   3.169   5.700
 4543SOL    HW213676   3.070   3.200   5.803
 4544SOL     OW13677   3.354   3.648   6.580
 4544SOL    HW113678   3.366   3.710   6.503
 4544SOL    HW213679   3.442   3.628   6.622
 4545SOL     OW13680   3.354   3.156   0.282
 4545SOL    HW113681   3.263   3.158   0.322
 4545SOL    HW213682   3.380   3.062   0.260
 4546SOL     OW13683   2.248   3.588   0.100
 4546SOL    HW113684   2.160   3.632   0.116
 4546SOL    HW213685   2.246   3.495   0.136
 4547SOL     OW13686   3.563   2.740   6.828
 4547SOL    HW113687   3.530   2.650   6.800
 4547SOL    HW213688   3.527   2.809   6.765
 4548SOL     OW13689   3.082   2.179   6.045
 4548SOL    HW113690   3.145   2.102   6.036
 4548SOL    HW213691   3.108   2.234   6.125
 4549SOL     OW13692   2.446   2.599   6.256
 4549SOL    HW113693   2.489   2.689   6.244
 4549SOL    HW213694   2.378   2.585   6.184
 4550SOL     OW13695   3.630   2.765   0.095
 4550SOL    HW113696   3.620   2.860   0.122
 4550SOL    HW213697   3.606   2.755   6.998
 4551SOL     OW13698   2.729   3.226   5.631
 4551SOL    HW113699   2.687   3.250   5.719
 4551SOL    HW213700   2.744   3.309   5.577
 4552SOL     OW13701   2.529   3.646   6.532
 4552SOL    HW113702   2.505   3.740   6.507
 4552SOL    HW213703   2.627   3.632   6.519
 4553SOL     OW13704   2.731   2.832   6.443
 4553SOL    HW113705   2.780   2.754   6.480
 4553SOL    HW213706   2.690   2.885   6.518
 4554SOL     OW13707   2.939   2.851   5.670
 4554SOL    HW113708   2.912   2.905   5.590
 4554SOL    HW213709   3.017   2.793   5.645
 4555SOL     OW13710   3.710   3.420   6.432
 4555SOL    HW113711   3.631   3.406   6.373
 4555SOL    HW213712   3.706   3.356   6.509
 4556SOL     OW13713   1.950   3.092   6.250
 4556SOL    HW113714   1.948   3.043   6.337
 4556SOL    HW213715   2.019   3.051   6.190
 4557SOL     OW13716   3.671   2.037   6.834
 4557SOL    HW113717   3.646   1.940   6.836
 4557SOL    HW213718   3.687   2.066   6.740
 4558SOL     OW13719   2.292   2.290   6.113
 4558SOL    HW113720   2.326   2.220   6.049
 4558SOL    HW213721   2.237   2.246   6.184
 4559SOL     OW13722   3.537   3.365   6.677
 4559SOL    HW113723   3.461   3.346   6.614
 4559SOL    HW213724   3.545   3.289   6.742
 4560SOL     OW13725   2.180   2.415   6.878
 4560SOL    HW113726   2.249   2.360   6.926
 4560SOL    HW213727   2.189   2.401   6.779
 4561SOL     OW13728   2.691   3.442   6.262
 4561SOL    HW113729   2.678   3.506   6.187
 4561SOL    HW213730   2.613   3.379   6.266
 4562SOL     OW13731   3.296   2.099   6.702
 4562SOL    HW113732   3.327   2.015   6.747
 4562SOL    HW213733   3.242   2.154   6.766
 4563SOL     OW13734   2.880   1.879   6.710
 4563SOL    HW113735   2.817   1.814   6.668
 4563SOL    HW213736   2.970   1.837   6.721
 4564SOL     OW13737   2.636   3.194   5.908
 4564SOL    HW113738   2.609   3.098   5.916
 4564SOL    HW213739   2.722   3.208   5.958
 4565SOL     OW13740   2.478   3.423   6.867
 4565SOL    HW113741   2.475   3.518   6.898
 4565SOL    HW213742   2.565   3.405   6.822
 4566SOL     OW13743   3.217   1.911   5.757
 4566SOL    HW113744   3.260   1.843   5.698
 4566SOL    HW213745   3.124   1.883   5.778
 4567SOL     OW13746   3.153   2.326   6.266
 4567SOL    HW113747   3.101   2.411   6.268
 4567SOL    HW213748   3.150   2.283   6.356
 4568SOL     OW13749   3.449   2.066   6.471
 4568SOL    HW113750   3.388   2.086   6.549
 4568SOL    HW213751   3.450   2.145   6.410
 4569SOL     OW13752   1.905   2.925   5.894
 4569SOL    HW113753   2.003   2.925   5.875
 4569SOL    HW213754   1.875   2.832   5.915
 4570SOL     OW13755   2.746   3.526   5.926
 4570SOL    HW113756   2.671   3.505   5.863
 4570SOL    HW213757   2.721   3.603   5.984
 4571SOL     OW13758   2.080   4.359   0.137
 4571SOL    HW113759   1.984   4.344   0.160
 4571SOL    HW213760   2.094   4.344   0.039
 4572SOL     OW13761   2.085   4.007   0.995
 4572SOL    HW113762   2.117   3.972   1.083
 4572SOL    HW213763   1.992   3.974   0.978
 4573SOL     OW13764   1.863   4.115   0.636
 4573SOL    HW113765   1.779   4.144   0.682
 4573SOL    HW213766   1.845   4.031   0.585
 4574SOL     OW13767   2.431   5.022   1.187
 4574SOL    HW113768   2.341   5.019   1.144
 4574SOL    HW213769   2.449   5.115   1.220
 4575SOL     OW13770   3.428   5.238   0.709
 4575SOL    HW113771   3.386   5.212   0.796
 4575SOL    HW213772   3.357   5.241   0.638
 4576SOL     OW13773   2.994   4.426   0.695
 4576SOL    HW113774   3.048   4.509   0.680
 4576SOL    HW213775   2.944   4.434   0.781
 4577SOL     OW13776   3.648   4.300   0.197
 4577SOL    HW113777   3.583   4.355   0.144
 4577SOL    HW213778   3.599   4.241   0.260
 4578SOL     OW13779   2.604   4.864   1.042
 4578SOL    HW113780   2.537   4.899   1.107
 4578SOL    HW213781   2.649   4.941   0.995
 4579SOL     OW13782   2.737   4.487   1.821
 4579SOL    HW113783   2.725   4.554   1.894
 4579SOL    HW213784   2.761   4.533   1.736
 4580SOL     OW13785   2.545   4.720   0.650
 4580SOL    HW113786   2.616   4.712   0.719
 4580SOL    HW213787   2.471   4.777   0.685
 4581SOL     OW13788   2.573   4.877   1.819
 4581SOL    HW113789   2.626   4.955   1.852
 4581SOL    HW213790   2.489   4.909   1.776
 4582SOL     OW13791   2.188   5.146   1.066
 4582SOL    HW113792   2.112   5.101   1.020
 4582SOL    HW213793   2.240   5.199   0.998
 4583SOL     OW13794   3.319   5.226   1.359
 4583SOL    HW113795   3.377   5.307   1.366
 4583SOL    HW213796   3.248   5.230   1.429
 4584SOL     OW13797   2.312   4.116   1.476
 4584SOL    HW113798   2.394   4.059   1.485
 4584SOL    HW213799   2.231   4.061   1.496
 4585SOL     OW13800   3.473   4.173   0.749
 4585SOL    HW113801   3.401   4.193   0.683
 4585SOL    HW213802   3.479   4.246   0.816
 4586SOL     OW13803   2.086   5.444   0.474
 4586SOL    HW113804   2.104   5.523   0.533
 4586SOL    HW213805   2.171   5.417   0.429
 4587SOL     OW13806   2.999   5.064   1.698
 4587SOL    HW113807   3.046   5.062   1.786
 4587SOL    HW213808   2.943   4.982   1.688
 4588SOL     OW13809   2.085   5.170   0.540
 4588SOL    HW113810   2.069   5.268   0.547
 4588SOL    HW213811   2.027   5.122   0.606
 4589SOL     OW13812   2.132   4.814   0.900
 4589SOL    HW113813   2.127   4.720   0.933
 4589SOL    HW213814   2.070   4.871   0.953
 4590SOL     OW13815   2.459   5.521   1.426
 4590SOL    HW113816   2.376   5.497   1.476
 4590SOL    HW213817   2.491   5.612   1.455
 4591SOL     OW13818   2.450   4.690   0.148
 4591SOL    HW113819   2.508   4.712   0.069
 4591SOL    HW213820   2.486   4.736   0.229
 4592SOL     OW13821   3.458   3.849   1.469
 4592SOL    HW113822   3.481   3.929   1.413
 4592SOL    HW213823   3.443   3.878   1.563
 4593SOL     OW13824   1.978   4.378   0.562
 4593SOL    HW113825   1.946   4.285   0.583
 4593SOL    HW213826   1.972   4.435   0.644
 4594SOL     OW13827   3.700   5.486   0.347
 4594SOL    HW113828   3.772   5.457   0.410
 4594SOL    HW213829   3.704   5.586   0.336
 4595SOL     OW13830   3.554   4.639   0.651
 4595SOL    HW113831   3.638   4.588   0.633
 4595SOL    HW213832   3.532   4.696   0.572
 4596SOL     OW13833   3.518   4.820   0.445
 4596SOL    HW113834   3.586   4.840   0.374
 4596SOL    HW213835   3.524   4.889   0.517
 4597SOL     OW13836   1.986   4.469   1.585
 4597SOL    HW113837   2.082   4.496   1.585
 4597SOL    HW213838   1.928   4.550   1.585
 4598SOL     OW13839   2.475   5.113   0.738
 4598SOL    HW113840   2.428   5.025   0.751
 4598SOL    HW213841   2.466   5.142   0.643
 4599SOL     OW13842   3.150   4.958   1.421
 4599SOL    HW113843   3.176   4.888   1.356
 4599SOL    HW213844   3.210   4.954   1.501
 4600SOL     OW13845   2.682   3.738   0.515
 4600SOL    HW113846   2.727   3.823   0.491
 4600SOL    HW213847   2.583   3.754   0.522
 4601SOL     OW13848   2.052   4.685   1.279
 4601SOL    HW113849   2.141   4.642   1.264
 4601SOL    HW213850   1.983   4.639   1.222
 4602SOL     OW13851   3.352   4.748   0.215
 4602SOL    HW113852   3.284   4.682   0.247
 4602SOL    HW213853   3.439   4.729   0.259
 4603SOL     OW13854   3.043   5.536   1.622
 4603SOL    HW113855   3.051   5.605   1.550
 4603SOL    HW213856   3.063   5.446   1.585
 4604SOL     OW13857   2.204   3.973   1.835
 4604SOL    HW113858   2.253   4.058   1.852
 4604SOL    HW213859   2.107   3.986   1.853
 4605SOL     OW13860   3.326   5.145   0.946
 4605SOL    HW113861   3.260   5.163   1.019
 4605SOL    HW213862   3.319   5.049   0.918
 4606SOL     OW13863   3.504   5.478   0.583
 4606SOL    HW113864   3.484   5.451   0.488
 4606SOL    HW213865   3.489   5.401   0.644
 4607SOL     OW13866   2.461   4.440   0.267
 4607SOL    HW113867   2.467   4.530   0.225
 4607SOL    HW213868   2.396   4.443   0.343
 4608SOL     OW13869   3.139   4.083   0.932
 4608SOL    HW113870   3.045   4.049   0.941
 4608SOL    HW213871   3.199   4.032   0.994
 4609SOL     OW13872   3.438   5.402   0.317
 4609SOL    HW113873   3.534   5.431   0.315
 4609SOL    HW213874   3.404   5.393   0.223
 4610SOL     OW13875   2.652   4.336   1.449
 4610SOL    HW113876   2.627   4.312   1.542
 4610SOL    HW213877   2.615   4.268   1.386
 4611SOL     OW13878   3.253   4.194   1.679
 4611SOL    HW113879   3.254   4.243   1.766
 4611SOL    HW213880   3.313   4.114   1.686
 4612SOL     OW13881   2.814   4.608   1.584
 4612SOL    HW113882   2.872   4.537   1.545
 4612SOL    HW213883   2.760   4.651   1.511
 4613SOL     OW13884   2.856   4.129   1.228
 4613SOL    HW113885   2.766   4.151   1.265
 4613SOL    HW213886   2.846   4.079   1.142
 4614SOL     OW13887   2.913   4.426   0.428
 4614SOL    HW113888   2.937   4.422   0.526
 4614SOL    HW213889   2.827   4.377   0.413
 4615SOL     OW13890   1.953   4.548   0.777
 4615SOL    HW113891   2.037   4.537   0.829
 4615SOL    HW213892   1.901   4.626   0.813
 4616SOL     OW13893   1.990   5.598   1.588
 4616SOL    HW113894   1.995   5.571   1.684
 4616SOL    HW213895   1.906   5.562   1.548
 4617SOL     OW13896   2.751   4.067   0.207
 4617SOL    HW113897   2.801   4.127   0.146
 4617SOL    HW213898   2.767   3.971   0.182
 4618SOL     OW13899   3.561   4.296   1.826
 4618SOL    HW113900   3.527   4.375   1.776
 4618SOL    HW213901   3.592   4.226   1.762
 4619SOL     OW13902   3.246   4.865   0.550
 4619SOL    HW113903   3.329   4.852   0.496
 4619SOL    HW213904   3.186   4.931   0.504
 4620SOL     OW13905   2.409   3.897   0.901
 4620SOL    HW113906   2.413   3.926   0.997
 4620SOL    HW213907   2.413   3.978   0.842
 4621SOL     OW13908   2.853   5.162   0.469
 4621SOL    HW113909   2.822   5.244   0.420
 4621SOL    HW213910   2.834   5.172   0.566
 4622SOL     OW13911   2.218   5.538   0.870
 4622SOL    HW113912   2.261   5.448   0.876
 4622SOL    HW213913   2.285   5.609   0.890
 4623SOL     OW13914   3.662   4.777   0.875
 4623SOL    HW113915   3.611   4.755   0.791
 4623SOL    HW213916   3.598   4.784   0.951
 4624SOL     OW13917   3.088   5.260   1.514
 4624SOL    HW113918   3.076   5.186   1.581
 4624SOL    HW213919   3.020   5.251   1.442
 4625SOL     OW13920   2.177   4.681   0.231
 4625SOL    HW113921   2.270   4.696   0.196
 4625SOL    HW213922   2.148   4.588   0.211
 4626SOL     OW13923   3.346   4.470   0.722
 4626SOL    HW113924   3.342   4.430   0.814
 4626SOL    HW213925   3.426   4.531   0.716
 4627SOL     OW13926   2.331   4.990   1.731
 4627SOL    HW113927   2.305   4.996   1.634
 4627SOL    HW213928   2.249   4.987   1.787
 4628SOL     OW13929   2.982   5.490   0.242
 4628SOL    HW113930   2.910   5.444   0.294
 4628SOL    HW213931   3.020   5.426   0.175
 4629SOL     OW13932   2.064   3.997   1.503
 4629SOL    HW113933   1.982   4.055   1.500
 4629SOL    HW213934   2.042   3.909   1.545
 4630SOL     OW13935   3.509   5.155   0.106
 4630SOL    HW113936   3.459   5.235   0.071
 4630SOL    HW213937   3.448   5.101   0.164
 4631SOL     OW13938   2.351   5.421   0.383
 4631SOL    HW113939   2.377   5.508   0.425
 4631SOL    HW213940   2.407   5.405   0.301
 4632SOL     OW13941   2.121   5.515   1.225
 4632SOL    HW113942   2.171   5.442   1.271
 4632SOL    HW213943   2.101   5.488   1.131
 4633SOL     OW13944   2.798   5.427   0.896
 4633SOL    HW113945   2.880   5.379   0.928
 4633SOL    HW213946   2.756   5.374   0.823
 4634SOL     OW13947   2.260   4.411   0.469
 4634SOL    HW113948   2.279   4.314   0.487
 4634SOL    HW213949   2.164   4.430   0.487
 4635SOL     OW13950   3.389   3.947   1.728
 4635SOL    HW113951   3.400   3.968   1.825
 4635SOL    HW213952   3.317   3.878   1.716
 4636SOL     OW13953   2.625   4.000   1.757
 4636SOL    HW113954   2.710   3.948   1.751
 4636SOL    HW213955   2.574   3.970   1.838
 4637SOL     OW13956   2.736   5.239   1.193
 4637SOL    HW113957   2.717   5.202   1.102
 4637SOL    HW213958   2.809   5.185   1.235
 4638SOL     OW13959   3.201   4.313   1.436
 4638SOL    HW113960   3.231   4.278   1.524
 4638SOL    HW213961   3.237   4.405   1.422
 4639SOL     OW13962   2.682   5.113   0.943
 4639SOL    HW113963   2.771   5.101   0.900
 4639SOL    HW213964   2.612   5.119   0.872
 4640SOL     OW13965   2.789   4.231   0.899
 4640SOL    HW113966   2.762   4.223   0.802
 4640SOL    HW213967   2.821   4.142   0.932
 4641SOL     OW13968   2.412   3.797   0.503
 4641SOL    HW113969   2.329   3.793   0.559
 4641SOL    HW213970   2.406   3.873   0.440
 4642SOL     OW13971   3.281   4.937   0.011
 4642SOL    HW113972   3.311   4.857   0.064
 4642SOL    HW213973   3.199   4.976   0.053
 4643SOL     OW13974   2.812   3.974   0.461
 4643SOL    HW113975   2.779   4.015   0.376
 4643SOL    HW213976   2.910   3.989   0.469
 4644SOL     OW13977   2.941   4.408   1.454
 4644SOL    HW113978   2.867   4.341   1.460
 4644SOL    HW213979   3.029   4.359   1.451
 4645SOL     OW13980   3.080   5.291   0.796
 4645SOL    HW113981   3.093   5.361   0.726
 4645SOL    HW213982   3.153   5.298   0.864
 4646SOL     OW13983   2.333   4.876   0.729
 4646SOL    HW113984   2.263   4.855   0.798
 4646SOL    HW213985   2.294   4.869   0.638
 4647SOL     OW13986   3.117   5.508   0.612
 4647SOL    HW113987   3.174   5.572   0.561
 4647SOL    HW213988   3.043   5.558   0.657
 4648SOL     OW13989   2.923   4.304   0.031
 4648SOL    HW113990   2.828   4.327   0.051
 4648SOL    HW213991   2.973   4.291   0.117
 4649SOL     OW13992   1.949   4.281   1.391
 4649SOL    HW113993   2.044   4.277   1.359
 4649SOL    HW213994   1.941   4.352   1.461
 4650SOL     OW13995   2.420   3.947   1.173
 4650SOL    HW113996   2.470   3.872   1.217
 4650SOL    HW213997   2.325   3.946   1.202
 4651SOL     OW13998   2.728   4.180   0.639
 4651SOL    HW113999   2.684   4.243   0.575
 4651SOL    HW214000   2.756   4.098   0.590
 4652SOL     OW14001   2.882   3.772   0.741
 4652SOL    HW114002   2.816   3.774   0.665
 4652SOL    HW214003   2.857   3.700   0.804
 4653SOL     OW14004   3.309   4.885   0.860
 4653SOL    HW114005   3.233   4.820   0.862
 4653SOL    HW214006   3.341   4.895   0.766
 4654SOL     OW14007   3.330   4.333   0.970
 4654SOL    HW114008   3.268   4.255   0.970
 4654SOL    HW214009   3.391   4.327   1.049
 4655SOL     OW14010   3.688   4.528   0.391
 4655SOL    HW114011   3.750   4.468   0.442
 4655SOL    HW214012   3.684   4.499   0.295
 4656SOL     OW14013   2.328   5.155   0.153
 4656SOL    HW114014   2.267   5.110   0.218
 4656SOL    HW214015   2.308   5.122   0.060
 4657SOL     OW14016   3.536   4.990   0.652
 4657SOL    HW114017   3.635   4.987   0.661
 4657SOL    HW214018   3.503   5.083   0.666
 4658SOL     OW14019   3.251   4.275   0.066
 4658SOL    HW114020   3.190   4.274   0.146
 4658SOL    HW214021   3.314   4.197   0.071
 4659SOL     OW14022   2.373   3.987   0.311
 4659SOL    HW114023   2.390   3.922   0.237
 4659SOL    HW214024   2.350   4.076   0.272
 4660SOL     OW14025   3.614   4.965   1.559
 4660SOL    HW114026   3.704   4.923   1.545
 4660SOL    HW214027   3.626   5.058   1.593
 4661SOL     OW14028   2.915   5.074   1.336
 4661SOL    HW114029   2.833   5.044   1.386
 4661SOL    HW214030   2.996   5.034   1.378
 4662SOL     OW14031   3.476   5.354   1.657
 4662SOL    HW114032   3.460   5.389   1.565
 4662SOL    HW214033   3.561   5.302   1.659
 4663SOL     OW14034   3.000   4.945   1.105
 4663SOL    HW114035   2.940   4.979   1.177
 4663SOL    HW214036   2.966   4.976   1.016
 4664SOL     OW14037   3.485   4.820   1.080
 4664SOL    HW114038   3.481   4.886   1.155
 4664SOL    HW214039   3.411   4.838   1.015
 4665SOL     OW14040   2.786   3.817   1.391
 4665SOL    HW114041   2.807   3.795   1.296
 4665SOL    HW214042   2.865   3.861   1.433
 4666SOL     OW14043   2.841   4.839   1.721
 4666SOL    HW114044   2.747   4.858   1.749
 4666SOL    HW214045   2.843   4.756   1.665
 4667SOL     OW14046   2.576   4.781   0.375
 4667SOL    HW114047   2.557   4.764   0.472
 4667SOL    HW214048   2.656   4.728   0.348
 4668SOL     OW14049   2.285   4.539   1.254
 4668SOL    HW114050   2.357   4.553   1.321
 4668SOL    HW214051   2.246   4.448   1.265
 4669SOL     OW14052   3.124   4.100   1.281
 4669SOL    HW114053   3.161   4.179   1.330
 4669SOL    HW214054   3.029   4.117   1.256
 4670SOL     OW14055   1.937   5.296   1.354
 4670SOL    HW114056   1.901   5.365   1.292
 4670SOL    HW214057   2.037   5.294   1.347
 4671SOL     OW14058   2.226   4.846   0.481
 4671SOL    HW114059   2.200   4.922   0.421
 4671SOL    HW214060   2.223   4.760   0.429
 4672SOL     OW14061   2.409   4.266   0.861
 4672SOL    HW114062   2.424   4.325   0.781
 4672SOL    HW214063   2.478   4.287   0.931
 4673SOL     OW14064   3.107   5.070   0.406
 4673SOL    HW114065   3.163   5.146   0.438
 4673SOL    HW214066   3.012   5.086   0.432
 4674SOL     OW14067   3.151   5.186   1.147
 4674SOL    HW114068   3.209   5.192   1.229
 4674SOL    HW214069   3.097   5.102   1.151
 4675SOL     OW14070   3.450   4.351   0.481
 4675SOL    HW114071   3.392   4.393   0.551
 4675SOL    HW214072   3.508   4.421   0.439
 4676SOL     OW14073   2.210   5.255   1.309
 4676SOL    HW114074   2.194   5.209   1.221
 4676SOL    HW214075   2.308   5.268   1.322
 4677SOL     OW14076   2.278   4.471   1.600
 4677SOL    HW114077   2.345   4.516   1.541
 4677SOL    HW214078   2.310   4.379   1.623
 4678SOL     OW14079   3.471   4.509   1.685
 4678SOL    HW114080   3.380   4.551   1.683
 4678SOL    HW214081   3.528   4.550   1.614
 4679SOL     OW14082   2.859   3.859   1.750
 4679SOL    HW114083   2.917   3.939   1.735
 4679SOL    HW214084   2.909   3.776   1.723
 4680SOL     OW14085   2.354   3.759   1.751
 4680SOL    HW114086   2.309   3.702   1.683
 4680SOL    HW214087   2.297   3.839   1.770
 4681SOL     OW14088   2.446   4.595   1.034
 4681SOL    HW114089   2.481   4.689   1.031
 4681SOL    HW214090   2.386   4.585   1.114
 4682SOL     OW14091   3.212   4.581   1.024
 4682SOL    HW114092   3.121   4.572   0.982
 4682SOL    HW214093   3.262   4.495   1.014
 4683SOL     OW14094   3.056   4.251   0.271
 4683SOL    HW114095   3.071   4.171   0.329
 4683SOL    HW214096   3.016   4.325   0.327
 4684SOL     OW14097   2.159   3.920   1.246
 4684SOL    HW114098   2.122   3.956   1.332
 4684SOL    HW214099   2.144   3.821   1.243
 4685SOL     OW14100   1.915   5.034   1.275
 4685SOL    HW114101   1.946   4.972   1.347
 4685SOL    HW214102   1.917   5.128   1.308
 4686SOL     OW14103   2.584   4.354   1.054
 4686SOL    HW114104   2.663   4.335   0.994
 4686SOL    HW214105   2.550   4.446   1.036
 4687SOL     OW14106   3.599   4.685   1.857
 4687SOL    HW114107   3.556   4.615   1.799
 4687SOL    HW214108   3.539   4.704   1.935
 4688SOL     OW14109   2.167   3.790   0.630
 4688SOL    HW114110   2.143   3.885   0.651
 4688SOL    HW214111   2.179   3.739   0.716
 4689SOL     OW14112   3.490   4.102   0.374
 4689SOL    HW114113   3.515   4.032   0.441
 4689SOL    HW214114   3.468   4.187   0.421
 4690SOL     OW14115   2.885   4.479   0.958
 4690SOL    HW114116   2.880   4.501   1.055
 4690SOL    HW214117   2.859   4.384   0.943
 4691SOL     OW14118   2.843   5.287   1.718
 4691SOL    HW114119   2.826   5.334   1.632
 4691SOL    HW214120   2.891   5.201   1.700
 4692SOL     OW14121   3.716   5.227   1.603
 4692SOL    HW114122   3.736   5.253   1.509
 4692SOL    HW214123   3.799   5.238   1.659
 4693SOL     OW14124   2.215   4.642   1.805
 4693SOL    HW114125   2.295   4.664   1.861
 4693SOL    HW214126   2.240   4.577   1.734
 4694SOL     OW14127   3.346   4.019   0.155
 4694SOL    HW114128   3.308   3.927   0.169
 4694SOL    HW214129   3.405   4.043   0.232
 4695SOL     OW14130   3.156   4.544   0.034
 4695SOL    HW114131   3.202   4.456   0.022
 4695SOL    HW214132   3.179   4.604   6.957
 4696SOL     OW14133   2.931   5.061   0.855
 4696SOL    HW114134   2.936   4.983   0.793
 4696SOL    HW214135   2.990   5.135   0.822
 4697SOL     OW14136   2.173   4.530   0.943
 4697SOL    HW114137   2.270   4.556   0.940
 4697SOL    HW214138   2.166   4.435   0.975
 4698SOL     OW14139   2.189   4.252   1.011
 4698SOL    HW114140   2.150   4.160   1.001
 4698SOL    HW214141   2.269   4.260   0.953
 4699SOL     OW14142   2.996   4.096   1.693
 4699SOL    HW114143   2.943   4.153   1.756
 4699SOL    HW214144   3.088   4.134   1.684
 4700SOL     OW14145   3.024   3.927   1.476
 4700SOL    HW114146   3.009   3.989   1.553
 4700SOL    HW214147   3.067   3.977   1.401
 4701SOL     OW14148   1.956   5.507   0.944
 4701SOL    HW114149   1.918   5.426   0.898
 4701SOL    HW214150   2.049   5.523   0.911
 4702SOL     OW14151   2.354   5.300   0.904
 4702SOL    HW114152   2.425   5.366   0.931
 4702SOL    HW214153   2.394   5.232   0.843
 4703SOL     OW14154   2.835   4.517   1.224
 4703SOL    HW114155   2.896   4.494   1.299
 4703SOL    HW214156   2.745   4.475   1.239
 4704SOL     OW14157   1.900   4.277   1.117
 4704SOL    HW114158   1.982   4.266   1.062
 4704SOL    HW214159   1.924   4.279   1.214
 4705SOL     OW14160   2.054   4.247   1.731
 4705SOL    HW114161   2.106   4.193   1.665
 4705SOL    HW214162   2.016   4.327   1.685
 4706SOL     OW14163   3.243   4.658   1.654
 4706SOL    HW114164   3.266   4.756   1.655
 4706SOL    HW214165   3.239   4.626   1.560
 4707SOL     OW14166   2.680   4.293   0.371
 4707SOL    HW114167   2.688   4.215   0.310
 4707SOL    HW214168   2.603   4.350   0.343
 4708SOL     OW14169   3.505   4.327   1.180
 4708SOL    HW114170   3.488   4.268   1.259
 4708SOL    HW214171   3.596   4.310   1.144
 4709SOL     OW14172   2.101   5.270   1.725
 4709SOL    HW114173   2.080   5.345   1.789
 4709SOL    HW214174   2.108   5.184   1.776
 4710SOL     OW14175   2.572   4.170   1.251
 4710SOL    HW114176   2.513   4.093   1.229
 4710SOL    HW214177   2.567   4.238   1.179
 4711SOL     OW14178   2.781   5.405   1.473
 4711SOL    HW114179   2.755   5.358   1.388
 4711SOL    HW214180   2.781   5.504   1.457
 4712SOL     OW14181   2.316   4.223   0.188
 4712SOL    HW114182   2.380   4.295   0.214
 4712SOL    HW214183   2.223   4.260   0.185
 4713SOL     OW14184   2.003   4.862   1.476
 4713SOL    HW114185   2.005   4.818   1.566
 4713SOL    HW214186   2.023   4.794   1.405
 4714SOL     OW14187   3.176   4.767   1.218
 4714SOL    HW114188   3.204   4.700   1.150
 4714SOL    HW214189   3.110   4.830   1.178
 4715SOL     OW14190   3.163   4.571   0.306
 4715SOL    HW114191   3.082   4.541   0.357
 4715SOL    HW214192   3.152   4.549   0.209
 4716SOL     OW14193   3.644   5.452   1.158
 4716SOL    HW114194   3.705   5.486   1.087
 4716SOL    HW214195   3.611   5.361   1.133
 4717SOL     OW14196   3.103   5.457   1.103
 4717SOL    HW114197   3.189   5.486   1.062
 4717SOL    HW214198   3.109   5.360   1.128
 4718SOL     OW14199   1.949   4.990   1.009
 4718SOL    HW114200   1.932   5.004   1.107
 4718SOL    HW214201   1.877   4.930   0.972
 4719SOL     OW14202   2.543   5.398   1.738
 4719SOL    HW114203   2.480   5.476   1.732
 4719SOL    HW214204   2.617   5.411   1.671
 4720SOL     OW14205   2.802   3.801   0.111
 4720SOL    HW114206   2.872   3.857   0.067
 4720SOL    HW214207   2.845   3.741   0.178
 4721SOL     OW14208   3.591   3.886   0.528
 4721SOL    HW114209   3.661   3.876   0.457
 4721SOL    HW214210   3.562   3.795   0.559
 4722SOL     OW14211   3.252   5.286   0.492
 4722SOL    HW114212   3.317   5.318   0.422
 4722SOL    HW214213   3.197   5.364   0.524
 4723SOL     OW14214   2.008   5.511   1.846
 4723SOL    HW114215   1.951   5.443   1.891
 4723SOL    HW214216   2.057   5.564   1.915
 4724SOL     OW14217   3.145   4.648   0.670
 4724SOL    HW114218   3.219   4.582   0.685
 4724SOL    HW214219   3.179   4.726   0.618
 4725SOL     OW14220   2.664   5.003   1.425
 4725SOL    HW114221   2.635   5.047   1.510
 4725SOL    HW214222   2.594   5.017   1.355
 4726SOL     OW14223   2.536   5.329   0.191
 4726SOL    HW114224   2.540   5.380   0.105
 4726SOL    HW214225   2.476   5.250   0.180
 4727SOL     OW14226   3.478   5.453   1.387
 4727SOL    HW114227   3.536   5.453   1.306
 4727SOL    HW214228   3.464   5.547   1.418
 4728SOL     OW14229   3.704   3.893   0.963
 4728SOL    HW114230   3.739   3.801   0.941
 4728SOL    HW214231   3.613   3.904   0.923
 4729SOL     OW14232   2.117   4.041   0.717
 4729SOL    HW114233   2.028   4.079   0.690
 4729SOL    HW214234   2.121   4.032   0.816
 4730SOL     OW14235   3.081   5.322   0.041
 4730SOL    HW114236   3.075   5.227   0.071
 4730SOL    HW214237   2.996   5.349   6.996
 4731SOL     OW14238   2.685   4.734   1.379
 4731SOL    HW114239   2.736   4.718   1.294
 4731SOL    HW214240   2.682   4.832   1.398
 4732SOL     OW14241   2.786   4.637   0.293
 4732SOL    HW114242   2.840   4.666   0.214
 4732SOL    HW214243   2.834   4.566   0.343
 4733SOL     OW14244   3.349   5.379   0.041
 4733SOL    HW114245   3.252   5.357   0.041
 4733SOL    HW214246   3.380   5.395   6.948
 4734SOL     OW14247   2.227   5.027   1.486
 4734SOL    HW114248   2.217   5.108   1.428
 4734SOL    HW214249   2.148   4.968   1.476
 4735SOL     OW14250   3.474   5.008   1.285
 4735SOL    HW114251   3.538   4.988   1.360
 4735SOL    HW214252   3.409   5.078   1.314
 4736SOL     OW14253   2.925   4.830   0.715
 4736SOL    HW114254   2.848   4.781   0.755
 4736SOL    HW214255   2.993   4.764   0.683
 4737SOL     OW14256   2.885   3.963   0.966
 4737SOL    HW114257   2.881   3.919   0.876
 4737SOL    HW214258   2.882   3.892   1.037
 4738SOL     OW14259   2.477   5.200   0.486
 4738SOL    HW114260   2.515   5.149   0.408
 4738SOL    HW214261   2.416   5.271   0.451
 4739SOL     OW14262   3.594   4.118   1.381
 4739SOL    HW114263   3.667   4.186   1.381
 4739SOL    HW214264   3.619   4.043   1.319
 4740SOL     OW14265   2.131   5.050   0.308
 4740SOL    HW114266   2.053   5.070   0.250
 4740SOL    HW214267   2.120   5.095   0.397
 4741SOL     OW14268   1.977   4.761   1.730
 4741SOL    HW114269   1.895   4.732   1.780
 4741SOL    HW214270   2.057   4.714   1.768
 4742SOL     OW14271   2.546   3.917   1.500
 4742SOL    HW114272   2.632   3.893   1.456
 4742SOL    HW214273   2.564   3.952   1.592
 4743SOL     OW14274   1.974   4.037   0.011
 4743SOL    HW114275   1.908   3.987   6.955
 4743SOL    HW214276   1.991   4.126   6.970
 4744SOL     OW14277   3.284   4.580   1.394
 4744SOL    HW114278   3.229   4.644   1.341
 4744SOL    HW214279   3.378   4.581   1.360
 4745SOL     OW14280   1.912   3.897   0.333
 4745SOL    HW114281   1.891   3.980   0.282
 4745SOL    HW214282   2.001   3.862   0.305
 4746SOL     OW14283   3.048   5.068   0.127
 4746SOL    HW114284   2.950   5.054   0.110
 4746SOL    HW214285   3.065   5.057   0.225
 4747SOL     OW14286   2.486   4.554   1.434
 4747SOL    HW114287   2.543   4.635   1.420
 4747SOL    HW214288   2.544   4.473   1.443
 4748SOL     OW14289   3.348   5.515   0.988
 4748SOL    HW114290   3.372   5.580   0.916
 4748SOL    HW214291   3.431   5.476   1.027
 4749SOL     OW14292   2.585   4.281   1.702
 4749SOL    HW114293   2.629   4.348   1.761
 4749SOL    HW214294   2.603   4.189   1.736
 4750SOL     OW14295   3.336   4.920   1.634
 4750SOL    HW114296   3.321   4.933   1.732
 4750SOL    HW214297   3.432   4.938   1.612
 4751SOL     OW14298   2.232   5.462   1.567
 4751SOL    HW114299   2.148   5.515   1.552
 4751SOL    HW214300   2.209   5.375   1.609
 4752SOL     OW14301   3.526   4.602   1.256
 4752SOL    HW114302   3.523   4.511   1.214
 4752SOL    HW214303   3.514   4.671   1.185
 4753SOL     OW14304   3.084   4.041   0.456
 4753SOL    HW114305   3.165   3.990   0.428
 4753SOL    HW214306   3.105   4.093   0.539
 4754SOL     OW14307   2.450   4.458   0.666
 4754SOL    HW114308   2.490   4.549   0.659
 4754SOL    HW214309   2.379   4.447   0.596
 4755SOL     OW14310   3.612   4.089   1.653
 4755SOL    HW114311   3.603   4.105   1.555
 4755SOL    HW214312   3.537   4.029   1.684
 4756SOL     OW14313   3.615   4.656   1.509
 4756SOL    HW114314   3.603   4.753   1.531
 4756SOL    HW214315   3.593   4.640   1.413
 4757SOL     OW14316   2.767   5.107   0.055
 4757SOL    HW114317   2.707   5.083   0.131
 4757SOL    HW214318   2.769   5.207   0.046
 4758SOL     OW14319   2.527   5.508   0.941
 4758SOL    HW114320   2.504   5.603   0.920
 4758SOL    HW214321   2.626   5.494   0.930
 4759SOL     OW14322   2.731   4.695   0.857
 4759SOL    HW114323   2.782   4.617   0.893
 4759SOL    HW214324   2.688   4.745   0.932
 4760SOL     OW14325   2.943   4.707   0.079
 4760SOL    HW114326   2.943   4.765   6.998
 4760SOL    HW214327   3.021   4.645   0.076
 4761SOL     OW14328   3.707   5.281   0.846
 4761SOL    HW114329   3.629   5.267   0.785
 4761SOL    HW214330   3.708   5.209   0.915
 4762SOL     OW14331   2.093   5.022   1.856
 4762SOL    HW114332   2.029   4.954   1.821
 4762SOL    HW214333   2.077   5.035   1.954
 4763SOL     OW14334   1.943   4.958   0.664
 4763SOL    HW114335   1.964   4.908   0.748
 4763SOL    HW214336   1.988   4.913   0.587
 4764SOL     OW14337   2.545   5.134   1.634
 4764SOL    HW114338   2.464   5.084   1.666
 4764SOL    HW214339   2.544   5.227   1.671
 4765SOL     OW14340   3.665   3.906   1.233
 4765SOL    HW114341   3.681   3.810   1.258
 4765SOL    HW214342   3.679   3.918   1.135
 4766SOL     OW14343   2.292   4.153   0.528
 4766SOL    HW114344   2.323   4.081   0.465
 4766SOL    HW214345   2.238   4.112   0.601
 4767SOL     OW14346   3.553   5.207   1.095
 4767SOL    HW114347   3.474   5.189   1.037
 4767SOL    HW214348   3.561   5.135   1.164
 4768SOL     OW14349   2.198   4.281   1.289
 4768SOL    HW114350   2.254   4.223   1.348
 4768SOL    HW214351   2.213   4.254   1.194
 4769SOL     OW14352   2.690   5.303   0.680
 4769SOL    HW114353   2.676   5.363   0.601
 4769SOL    HW214354   2.614   5.239   0.687
 4770SOL     OW14355   3.292   3.956   1.117
 4770SOL    HW114356   3.315   3.866   1.154
 4770SOL    HW214357   3.238   4.007   1.184
 4771SOL     OW14358   2.872   3.740   1.136
 4771SOL    HW114359   2.808   3.676   1.093
 4771SOL    HW214360   2.963   3.699   1.137
 4772SOL     OW14361   2.646   5.041   0.307
 4772SOL    HW114362   2.613   4.950   0.328
 4772SOL    HW214363   2.722   5.064   0.368
 4773SOL     OW14364   2.485   5.283   1.290
 4773SOL    HW114365   2.482   5.370   1.339
 4773SOL    HW214366   2.576   5.271   1.250
 4774SOL     OW14367   3.214   3.778   0.186
 4774SOL    HW114368   3.256   3.718   0.117
 4774SOL    HW214369   3.128   3.738   0.217
 4775SOL     OW14370   3.146   4.185   0.678
 4775SOL    HW114371   3.097   4.272   0.681
 4775SOL    HW214372   3.148   4.144   0.770
 4776SOL     OW14373   3.447   3.926   0.884
 4776SOL    HW114374   3.390   3.947   0.964
 4776SOL    HW214375   3.451   4.006   0.824
 4777SOL     OW14376   1.944   4.775   0.358
 4777SOL    HW114377   2.033   4.753   0.318
 4777SOL    HW214378   1.892   4.690   0.371
 4778SOL     OW14379   2.751   5.388   0.354
 4778SOL    HW114380   2.675   5.359   0.295
 4778SOL    HW214381   2.723   5.467   0.408
 4779SOL     OW14382   2.082   4.343   1.991
 4779SOL    HW114383   1.990   4.342   2.031
 4779SOL    HW214384   2.076   4.321   1.893
 4780SOL     OW14385   2.085   4.007   2.858
 4780SOL    HW114386   2.117   3.972   2.946
 4780SOL    HW214387   1.992   3.973   2.840
 4781SOL     OW14388   1.861   4.110   2.496
 4781SOL    HW114389   1.778   4.141   2.542
 4781SOL    HW214390   1.842   4.027   2.444
 4782SOL     OW14391   2.431   5.023   3.049
 4782SOL    HW114392   2.341   5.020   3.005
 4782SOL    HW214393   2.449   5.115   3.083
 4783SOL     OW14394   3.428   5.238   2.569
 4783SOL    HW114395   3.385   5.213   2.656
 4783SOL    HW214396   3.358   5.245   2.499
 4784SOL     OW14397   2.995   4.428   2.556
 4784SOL    HW114398   3.047   4.511   2.540
 4784SOL    HW214399   2.945   4.436   2.642
 4785SOL     OW14400   3.633   4.322   2.084
 4785SOL    HW114401   3.608   4.318   1.987
 4785SOL    HW214402   3.595   4.243   2.132
 4786SOL     OW14403   2.604   4.864   2.904
 4786SOL    HW114404   2.536   4.899   2.968
 4786SOL    HW214405   2.649   4.940   2.857
 4787SOL     OW14406   2.737   4.487   3.683
 4787SOL    HW114407   2.725   4.555   3.756
 4787SOL    HW214408   2.761   4.533   3.598
 4788SOL     OW14409   2.546   4.722   2.510
 4788SOL    HW114410   2.617   4.712   2.580
 4788SOL    HW214411   2.471   4.778   2.546
 4789SOL     OW14412   2.573   4.877   3.681
 4789SOL    HW114413   2.626   4.955   3.714
 4789SOL    HW214414   2.489   4.909   3.638
 4790SOL     OW14415   2.189   5.145   2.927
 4790SOL    HW114416   2.112   5.101   2.882
 4790SOL    HW214417   2.241   5.199   2.861
 4791SOL     OW14418   3.319   5.226   3.221
 4791SOL    HW114419   3.377   5.307   3.228
 4791SOL    HW214420   3.248   5.230   3.291
 4792SOL     OW14421   2.313   4.119   3.340
 4792SOL    HW114422   2.395   4.061   3.347
 4792SOL    HW214423   2.232   4.063   3.355
 4793SOL     OW14424   3.472   4.170   2.607
 4793SOL    HW114425   3.398   4.188   2.543
 4793SOL    HW214426   3.478   4.244   2.673
 4794SOL     OW14427   2.084   5.438   2.333
 4794SOL    HW114428   2.102   5.517   2.393
 4794SOL    HW214429   2.159   5.428   2.268
 4795SOL     OW14430   2.999   5.064   3.560
 4795SOL    HW114431   3.046   5.062   3.648
 4795SOL    HW214432   2.943   4.982   3.550
 4796SOL     OW14433   2.096   5.168   2.398
 4796SOL    HW114434   2.079   5.266   2.397
 4796SOL    HW214435   2.036   5.124   2.465
 4797SOL     OW14436   2.134   4.814   2.763
 4797SOL    HW114437   2.128   4.720   2.796
 4797SOL    HW214438   2.070   4.871   2.816
 4798SOL     OW14439   2.459   5.521   3.288
 4798SOL    HW114440   2.376   5.497   3.338
 4798SOL    HW214441   2.491   5.611   3.316
 4799SOL     OW14442   2.443   4.712   2.004
 4799SOL    HW114443   2.491   4.758   1.929
 4799SOL    HW214444   2.484   4.740   2.091
 4800SOL     OW14445   3.439   3.873   3.324
 4800SOL    HW114446   3.468   3.956   3.277
 4800SOL    HW214447   3.424   3.894   3.421
 4801SOL     OW14448   1.977   4.385   2.426
 4801SOL    HW114449   1.947   4.291   2.443
 4801SOL    HW214450   1.971   4.438   2.511
 4802SOL     OW14451   3.709   5.479   2.194
 4802SOL    HW114452   3.779   5.449   2.258
 4802SOL    HW214453   3.724   5.575   2.170
 4803SOL     OW14454   1.892   5.314   1.984
 4803SOL    HW114455   1.875   5.217   2.003
 4803SOL    HW214456   1.871   5.368   2.066
 4804SOL     OW14457   3.553   4.645   2.510
 4804SOL    HW114458   3.638   4.594   2.494
 4804SOL    HW214459   3.530   4.698   2.429
 4805SOL     OW14460   3.515   4.828   2.294
 4805SOL    HW114461   3.604   4.824   2.249
 4805SOL    HW214462   3.518   4.895   2.368
 4806SOL     OW14463   1.985   4.472   3.445
 4806SOL    HW114464   2.081   4.500   3.447
 4806SOL    HW214465   1.927   4.553   3.446
 4807SOL     OW14466   2.474   5.115   2.595
 4807SOL    HW114467   2.429   5.027   2.608
 4807SOL    HW214468   2.461   5.147   2.501
 4808SOL     OW14469   3.150   4.958   3.284
 4808SOL    HW114470   3.176   4.888   3.218
 4808SOL    HW214471   3.210   4.954   3.363
 4809SOL     OW14472   2.680   3.735   2.370
 4809SOL    HW114473   2.726   3.820   2.347
 4809SOL    HW214474   2.582   3.750   2.377
 4810SOL     OW14475   2.052   4.685   3.141
 4810SOL    HW114476   2.141   4.642   3.126
 4810SOL    HW214477   1.984   4.640   3.083
 4811SOL     OW14478   3.394   4.726   2.066
 4811SOL    HW114479   3.321   4.665   2.096
 4811SOL    HW214480   3.441   4.762   2.147
 4812SOL     OW14481   3.043   5.536   3.485
 4812SOL    HW114482   3.051   5.605   3.413
 4812SOL    HW214483   3.064   5.446   3.447
 4813SOL     OW14484   2.180   3.997   3.680
 4813SOL    HW114485   2.232   4.074   3.717
 4813SOL    HW214486   2.086   4.000   3.716
 4814SOL     OW14487   3.327   5.144   2.808
 4814SOL    HW114488   3.260   5.164   2.880
 4814SOL    HW214489   3.318   5.049   2.780
 4815SOL     OW14490   3.511   5.475   2.437
 4815SOL    HW114491   3.494   5.446   2.344
 4815SOL    HW214492   3.491   5.400   2.500
 4816SOL     OW14493   2.456   4.443   2.136
 4816SOL    HW114494   2.461   4.528   2.084
 4816SOL    HW214495   2.387   4.451   2.207
 4817SOL     OW14496   3.139   4.085   2.795
 4817SOL    HW114497   3.045   4.050   2.802
 4817SOL    HW214498   3.199   4.032   2.855
 4818SOL     OW14499   3.445   5.397   2.170
 4818SOL    HW114500   3.542   5.424   2.166
 4818SOL    HW214501   3.412   5.380   2.077
 4819SOL     OW14502   2.652   4.337   3.310
 4819SOL    HW114503   2.626   4.314   3.404
 4819SOL    HW214504   2.615   4.268   3.248
 4820SOL     OW14505   3.252   4.195   3.542
 4820SOL    HW114506   3.253   4.245   3.629
 4820SOL    HW214507   3.315   4.117   3.548
 4821SOL     OW14508   2.814   4.609   3.446
 4821SOL    HW114509   2.872   4.537   3.407
 4821SOL    HW214510   2.760   4.651   3.373
 4822SOL     OW14511   2.856   4.134   3.086
 4822SOL    HW114512   2.765   4.153   3.123
 4822SOL    HW214513   2.847   4.081   3.002
 4823SOL     OW14514   2.912   4.423   2.286
 4823SOL    HW114515   2.935   4.418   2.384
 4823SOL    HW214516   2.826   4.375   2.270
 4824SOL     OW14517   1.951   4.552   2.642
 4824SOL    HW114518   2.036   4.540   2.693
 4824SOL    HW214519   1.901   4.630   2.679
 4825SOL     OW14520   1.990   5.598   3.450
 4825SOL    HW114521   1.995   5.570   3.546
 4825SOL    HW214522   1.905   5.563   3.410
 4826SOL     OW14523   2.758   4.077   2.059
 4826SOL    HW114524   2.799   4.144   1.998
 4826SOL    HW214525   2.766   3.986   2.018
 4827SOL     OW14526   3.559   4.296   3.689
 4827SOL    HW114527   3.526   4.376   3.638
 4827SOL    HW214528   3.591   4.227   3.624
 4828SOL     OW14529   3.242   4.867   2.395
 4828SOL    HW114530   3.327   4.852   2.344
 4828SOL    HW214531   3.186   4.934   2.347
 4829SOL     OW14532   2.409   3.896   2.762
 4829SOL    HW114533   2.413   3.928   2.857
 4829SOL    HW214534   2.412   3.975   2.700
 4830SOL     OW14535   2.856   5.167   2.325
 4830SOL    HW114536   2.825   5.248   2.275
 4830SOL    HW214537   2.839   5.180   2.423
 4831SOL     OW14538   2.218   5.538   2.733
 4831SOL    HW114539   2.262   5.449   2.740
 4831SOL    HW214540   2.284   5.610   2.752
 4832SOL     OW14541   3.660   4.781   2.735
 4832SOL    HW114542   3.610   4.757   2.652
 4832SOL    HW214543   3.597   4.786   2.812
 4833SOL     OW14544   3.088   5.260   3.376
 4833SOL    HW114545   3.076   5.186   3.442
 4833SOL    HW214546   3.020   5.252   3.304
 4834SOL     OW14547   2.183   4.683   2.117
 4834SOL    HW114548   2.271   4.704   2.074
 4834SOL    HW214549   2.146   4.598   2.079
 4835SOL     OW14550   3.345   4.475   2.584
 4835SOL    HW114551   3.340   4.430   2.674
 4835SOL    HW214552   3.426   4.534   2.581
 4836SOL     OW14553   2.331   4.989   3.592
 4836SOL    HW114554   2.305   4.995   3.496
 4836SOL    HW214555   2.249   4.987   3.649
 4837SOL     OW14556   2.984   5.500   2.088
 4837SOL    HW114557   2.904   5.463   2.136
 4837SOL    HW214558   3.014   5.435   2.017
 4838SOL     OW14559   2.064   4.004   3.364
 4838SOL    HW114560   1.990   4.067   3.341
 4838SOL    HW214561   2.048   3.966   3.455
 4839SOL     OW14562   3.486   5.106   1.951
 4839SOL    HW114563   3.448   5.197   1.935
 4839SOL    HW214564   3.417   5.037   1.932
 4840SOL     OW14565   2.326   5.459   2.180
 4840SOL    HW114566   2.368   5.521   2.246
 4840SOL    HW214567   2.397   5.422   2.120
 4841SOL     OW14568   3.263   3.828   2.300
 4841SOL    HW114569   3.252   3.802   2.204
 4841SOL    HW214570   3.361   3.837   2.320
 4842SOL     OW14571   2.120   5.515   3.087
 4842SOL    HW114572   2.171   5.442   3.133
 4842SOL    HW214573   2.102   5.489   2.993
 4843SOL     OW14574   2.798   5.426   2.758
 4843SOL    HW114575   2.881   5.380   2.789
 4843SOL    HW214576   2.756   5.374   2.684
 4844SOL     OW14577   2.258   4.412   2.337
 4844SOL    HW114578   2.277   4.315   2.350
 4844SOL    HW214579   2.161   4.429   2.353
 4845SOL     OW14580   3.386   3.948   3.590
 4845SOL    HW114581   3.399   3.967   3.688
 4845SOL    HW214582   3.308   3.886   3.579
 4846SOL     OW14583   2.504   3.840   1.964
 4846SOL    HW114584   2.572   3.770   1.986
 4846SOL    HW214585   2.447   3.809   1.888
 4847SOL     OW14586   2.629   4.012   3.611
 4847SOL    HW114587   2.712   3.956   3.614
 4847SOL    HW214588   2.571   3.988   3.689
 4848SOL     OW14589   2.736   5.238   3.055
 4848SOL    HW114590   2.717   5.202   2.963
 4848SOL    HW214591   2.809   5.184   3.097
 4849SOL     OW14592   3.201   4.315   3.298
 4849SOL    HW114593   3.231   4.280   3.387
 4849SOL    HW214594   3.237   4.407   3.285
 4850SOL     OW14595   2.682   5.112   2.804
 4850SOL    HW114596   2.772   5.101   2.762
 4850SOL    HW214597   2.613   5.119   2.732
 4851SOL     OW14598   2.788   4.231   2.759
 4851SOL    HW114599   2.762   4.224   2.663
 4851SOL    HW214600   2.821   4.143   2.792
 4852SOL     OW14601   2.410   3.789   2.355
 4852SOL    HW114602   2.328   3.786   2.413
 4852SOL    HW214603   2.406   3.869   2.295
 4853SOL     OW14604   3.287   4.923   1.905
 4853SOL    HW114605   3.321   4.846   1.958
 4853SOL    HW214606   3.199   4.952   1.941
 4854SOL     OW14607   2.152   3.772   2.048
 4854SOL    HW114608   2.204   3.844   2.001
 4854SOL    HW214609   2.215   3.708   2.091
 4855SOL     OW14610   2.809   3.975   2.318
 4855SOL    HW114611   2.778   4.017   2.232
 4855SOL    HW214612   2.908   3.989   2.327
 4856SOL     OW14613   2.941   4.408   3.316
 4856SOL    HW114614   2.867   4.341   3.321
 4856SOL    HW214615   3.029   4.360   3.313
 4857SOL     OW14616   3.081   5.294   2.656
 4857SOL    HW114617   3.095   5.364   2.586
 4857SOL    HW214618   3.153   5.302   2.725
 4858SOL     OW14619   2.331   4.876   2.589
 4858SOL    HW114620   2.265   4.855   2.661
 4858SOL    HW214621   2.288   4.864   2.499
 4859SOL     OW14622   3.124   5.515   2.473
 4859SOL    HW114623   3.176   5.577   2.414
 4859SOL    HW214624   3.051   5.566   2.518
 4860SOL     OW14625   2.883   4.259   1.892
 4860SOL    HW114626   2.838   4.345   1.868
 4860SOL    HW214627   2.953   4.276   1.962
 4861SOL     OW14628   1.953   4.280   3.256
 4861SOL    HW114629   2.046   4.278   3.221
 4861SOL    HW214630   1.944   4.353   3.324
 4862SOL     OW14631   2.421   3.950   3.033
 4862SOL    HW114632   2.473   3.875   3.073
 4862SOL    HW214633   2.326   3.946   3.063
 4863SOL     OW14634   2.727   4.182   2.498
 4863SOL    HW114635   2.680   4.244   2.435
 4863SOL    HW214636   2.756   4.100   2.448
 4864SOL     OW14637   2.878   3.778   2.607
 4864SOL    HW114638   2.818   3.777   2.527
 4864SOL    HW214639   2.854   3.701   2.667
 4865SOL     OW14640   3.308   4.885   2.720
 4865SOL    HW114641   3.232   4.820   2.724
 4865SOL    HW214642   3.338   4.895   2.626
 4866SOL     OW14643   3.330   4.333   2.831
 4866SOL    HW114644   3.267   4.255   2.830
 4866SOL    HW214645   3.391   4.326   2.910
 4867SOL     OW14646   3.703   4.532   2.242
 4867SOL    HW114647   3.761   4.485   2.308
 4867SOL    HW214648   3.674   4.468   2.171
 4868SOL     OW14649   2.349   5.145   2.017
 4868SOL    HW114650   2.268   5.118   2.070
 4868SOL    HW214651   2.348   5.098   1.928
 4869SOL     OW14652   3.538   4.991   2.505
 4869SOL    HW114653   3.637   4.988   2.517
 4869SOL    HW214654   3.505   5.083   2.525
 4870SOL     OW14655   3.252   4.299   1.932
 4870SOL    HW114656   3.189   4.276   2.007
 4870SOL    HW214657   3.345   4.273   1.958
 4871SOL     OW14658   2.390   3.988   2.171
 4871SOL    HW114659   2.438   3.936   2.100
 4871SOL    HW214660   2.361   4.076   2.133
 4872SOL     OW14661   3.614   4.965   3.421
 4872SOL    HW114662   3.704   4.923   3.407
 4872SOL    HW214663   3.626   5.058   3.455
 4873SOL     OW14664   2.915   5.074   3.198
 4873SOL    HW114665   2.833   5.044   3.248
 4873SOL    HW214666   2.996   5.033   3.240
 4874SOL     OW14667   3.476   5.354   3.519
 4874SOL    HW114668   3.460   5.389   3.427
 4874SOL    HW214669   3.561   5.302   3.521
 4875SOL     OW14670   3.000   4.945   2.967
 4875SOL    HW114671   2.940   4.979   3.039
 4875SOL    HW214672   2.967   4.976   2.878
 4876SOL     OW14673   3.485   4.820   2.941
 4876SOL    HW114674   3.481   4.886   3.017
 4876SOL    HW214675   3.410   4.837   2.878
 4877SOL     OW14676   2.780   3.828   3.243
 4877SOL    HW114677   2.804   3.798   3.151
 4877SOL    HW214678   2.856   3.880   3.283
 4878SOL     OW14679   2.841   4.839   3.583
 4878SOL    HW114680   2.747   4.858   3.611
 4878SOL    HW214681   2.843   4.756   3.527
 4879SOL     OW14682   2.576   4.783   2.235
 4879SOL    HW114683   2.558   4.765   2.332
 4879SOL    HW214684   2.654   4.729   2.205
 4880SOL     OW14685   2.285   4.540   3.116
 4880SOL    HW114686   2.358   4.553   3.183
 4880SOL    HW214687   2.246   4.448   3.126
 4881SOL     OW14688   3.127   4.111   3.133
 4881SOL    HW114689   3.163   4.189   3.185
 4881SOL    HW214690   3.032   4.129   3.107
 4882SOL     OW14691   1.937   5.296   3.216
 4882SOL    HW114692   1.901   5.366   3.154
 4882SOL    HW214693   2.037   5.294   3.209
 4883SOL     OW14694   2.202   4.844   2.349
 4883SOL    HW114695   2.207   4.926   2.292
 4883SOL    HW214696   2.201   4.763   2.290
 4884SOL     OW14697   2.409   4.267   2.724
 4884SOL    HW114698   2.423   4.326   2.645
 4884SOL    HW214699   2.479   4.287   2.793
 4885SOL     OW14700   3.108   5.079   2.254
 4885SOL    HW114701   3.169   5.151   2.286
 4885SOL    HW214702   3.014   5.099   2.285
 4886SOL     OW14703   3.151   5.186   3.009
 4886SOL    HW114704   3.209   5.192   3.091
 4886SOL    HW214705   3.097   5.102   3.013
 4887SOL     OW14706   3.438   4.344   2.346
 4887SOL    HW114707   3.388   4.392   2.417
 4887SOL    HW214708   3.486   4.411   2.289
 4888SOL     OW14709   2.210   5.254   3.171
 4888SOL    HW114710   2.194   5.209   3.083
 4888SOL    HW214711   2.308   5.268   3.183
 4889SOL     OW14712   2.280   4.469   3.463
 4889SOL    HW114713   2.344   4.517   3.403
 4889SOL    HW214714   2.317   4.379   3.487
 4890SOL     OW14715   3.471   4.510   3.547
 4890SOL    HW114716   3.380   4.552   3.544
 4890SOL    HW214717   3.528   4.550   3.476
 4891SOL     OW14718   2.863   3.872   3.624
 4891SOL    HW114719   2.913   3.956   3.607
 4891SOL    HW214720   2.911   3.795   3.582
 4892SOL     OW14721   2.377   3.836   3.610
 4892SOL    HW114722   2.354   3.764   3.544
 4892SOL    HW214723   2.298   3.895   3.624
 4893SOL     OW14724   2.447   4.596   2.897
 4893SOL    HW114725   2.483   4.689   2.893
 4893SOL    HW214726   2.386   4.586   2.976
 4894SOL     OW14727   3.212   4.581   2.885
 4894SOL    HW114728   3.121   4.572   2.844
 4894SOL    HW214729   3.262   4.495   2.876
 4895SOL     OW14730   3.059   4.250   2.126
 4895SOL    HW114731   3.072   4.168   2.180
 4895SOL    HW214732   3.015   4.321   2.181
 4896SOL     OW14733   2.162   3.917   3.111
 4896SOL    HW114734   2.118   3.952   3.193
 4896SOL    HW214735   2.147   3.818   3.104
 4897SOL     OW14736   1.916   5.034   3.137
 4897SOL    HW114737   1.947   4.973   3.209
 4897SOL    HW214738   1.917   5.128   3.170
 4898SOL     OW14739   2.586   4.355   2.917
 4898SOL    HW114740   2.663   4.335   2.856
 4898SOL    HW214741   2.551   4.446   2.898
 4899SOL     OW14742   3.599   4.685   3.719
 4899SOL    HW114743   3.556   4.616   3.661
 4899SOL    HW214744   3.539   4.704   3.797
 4900SOL     OW14745   2.169   3.785   2.490
 4900SOL    HW114746   2.144   3.880   2.508
 4900SOL    HW214747   2.181   3.737   2.576
 4901SOL     OW14748   3.490   4.105   2.223
 4901SOL    HW114749   3.516   4.031   2.285
 4901SOL    HW214750   3.461   4.185   2.276
 4902SOL     OW14751   2.886   4.479   2.819
 4902SOL    HW114752   2.880   4.501   2.917
 4902SOL    HW214753   2.859   4.384   2.804
 4903SOL     OW14754   2.843   5.287   3.580
 4903SOL    HW114755   2.826   5.334   3.494
 4903SOL    HW214756   2.891   5.201   3.562
 4904SOL     OW14757   3.716   5.227   3.465
 4904SOL    HW114758   3.735   5.253   3.371
 4904SOL    HW214759   3.799   5.238   3.520
 4905SOL     OW14760   2.215   4.641   3.667
 4905SOL    HW114761   2.294   4.664   3.723
 4905SOL    HW214762   2.241   4.576   3.596
 4906SOL     OW14763   3.389   3.992   1.992
 4906SOL    HW114764   3.320   3.924   2.017
 4906SOL    HW214765   3.426   4.035   2.074
 4907SOL     OW14766   3.150   4.549   1.887
 4907SOL    HW114767   3.191   4.459   1.896
 4907SOL    HW214768   3.181   4.592   1.803
 4908SOL     OW14769   2.933   5.062   2.717
 4908SOL    HW114770   2.937   4.984   2.655
 4908SOL    HW214771   2.991   5.136   2.683
 4909SOL     OW14772   2.173   4.530   2.805
 4909SOL    HW114773   2.270   4.556   2.799
 4909SOL    HW214774   2.166   4.436   2.837
 4910SOL     OW14775   2.188   4.252   2.873
 4910SOL    HW114776   2.150   4.160   2.863
 4910SOL    HW214777   2.269   4.261   2.815
 4911SOL     OW14778   2.993   4.105   3.555
 4911SOL    HW114779   2.943   4.163   3.620
 4911SOL    HW214780   3.088   4.138   3.548
 4912SOL     OW14781   3.008   3.957   3.325
 4912SOL    HW114782   2.999   4.018   3.403
 4912SOL    HW214783   3.058   4.004   3.252
 4913SOL     OW14784   1.863   5.038   2.057
 4913SOL    HW114785   1.773   5.058   2.017
 4913SOL    HW214786   1.863   4.945   2.092
 4914SOL     OW14787   1.956   5.506   2.806
 4914SOL    HW114788   1.919   5.426   2.760
 4914SOL    HW214789   2.049   5.524   2.774
 4915SOL     OW14790   2.355   5.300   2.767
 4915SOL    HW114791   2.425   5.366   2.793
 4915SOL    HW214792   2.395   5.233   2.705
 4916SOL     OW14793   2.835   4.517   3.085
 4916SOL    HW114794   2.895   4.494   3.161
 4916SOL    HW214795   2.746   4.475   3.099
 4917SOL     OW14796   1.900   4.278   2.981
 4917SOL    HW114797   1.981   4.266   2.923
 4917SOL    HW214798   1.927   4.278   3.077
 4918SOL     OW14799   2.043   4.250   3.590
 4918SOL    HW114800   2.114   4.209   3.534
 4918SOL    HW214801   2.007   4.332   3.545
 4919SOL     OW14802   3.243   4.659   3.516
 4919SOL    HW114803   3.266   4.756   3.517
 4919SOL    HW214804   3.239   4.626   3.421
 4920SOL     OW14805   2.679   4.296   2.224
 4920SOL    HW114806   2.689   4.217   2.164
 4920SOL    HW214807   2.601   4.351   2.194
 4921SOL     OW14808   3.504   4.327   3.042
 4921SOL    HW114809   3.488   4.266   3.120
 4921SOL    HW214810   3.596   4.310   3.006
 4922SOL     OW14811   2.101   5.270   3.587
 4922SOL    HW114812   2.080   5.345   3.650
 4922SOL    HW214813   2.108   5.185   3.638
 4923SOL     OW14814   2.571   4.171   3.114
 4923SOL    HW114815   2.513   4.094   3.089
 4923SOL    HW214816   2.568   4.240   3.041
 4924SOL     OW14817   2.781   5.405   3.334
 4924SOL    HW114818   2.755   5.358   3.250
 4924SOL    HW214819   2.781   5.503   3.319
 4925SOL     OW14820   2.320   4.219   2.047
 4925SOL    HW114821   2.385   4.291   2.072
 4925SOL    HW214822   2.229   4.259   2.034
 4926SOL     OW14823   2.003   4.862   3.338
 4926SOL    HW114824   2.005   4.818   3.428
 4926SOL    HW214825   2.023   4.794   3.267
 4927SOL     OW14826   3.176   4.767   3.080
 4927SOL    HW114827   3.204   4.699   3.012
 4927SOL    HW214828   3.110   4.830   3.040
 4928SOL     OW14829   3.178   4.581   2.160
 4928SOL    HW114830   3.103   4.553   2.219
 4928SOL    HW214831   3.153   4.568   2.064
 4929SOL     OW14832   3.643   5.452   3.020
 4929SOL    HW114833   3.704   5.486   2.948
 4929SOL    HW214834   3.611   5.360   2.995
 4930SOL     OW14835   3.103   5.456   2.966
 4930SOL    HW114836   3.189   5.486   2.924
 4930SOL    HW214837   3.109   5.360   2.990
 4931SOL     OW14838   1.949   4.988   2.872
 4931SOL    HW114839   1.933   5.003   2.970
 4931SOL    HW214840   1.876   4.930   2.835
 4932SOL     OW14841   2.543   5.398   3.599
 4932SOL    HW114842   2.480   5.476   3.594
 4932SOL    HW214843   2.617   5.411   3.533
 4933SOL     OW14844   3.581   3.875   2.359
 4933SOL    HW114845   3.657   3.864   2.295
 4933SOL    HW214846   3.564   3.788   2.405
 4934SOL     OW14847   3.258   5.295   2.350
 4934SOL    HW114848   3.320   5.327   2.279
 4934SOL    HW214849   3.202   5.371   2.383
 4935SOL     OW14850   2.008   5.510   3.708
 4935SOL    HW114851   1.951   5.442   3.753
 4935SOL    HW214852   2.057   5.564   3.776
 4936SOL     OW14853   3.144   4.653   2.528
 4936SOL    HW114854   3.219   4.589   2.544
 4936SOL    HW214855   3.178   4.730   2.473
 4937SOL     OW14856   2.664   5.003   3.287
 4937SOL    HW114857   2.635   5.047   3.373
 4937SOL    HW214858   2.595   5.018   3.217
 4938SOL     OW14859   2.530   5.346   2.016
 4938SOL    HW114860   2.547   5.365   1.919
 4938SOL    HW214861   2.472   5.265   2.025
 4939SOL     OW14862   3.478   5.453   3.249
 4939SOL    HW114863   3.536   5.453   3.168
 4939SOL    HW214864   3.464   5.547   3.280
 4940SOL     OW14865   3.705   3.892   2.825
 4940SOL    HW114866   3.740   3.802   2.801
 4940SOL    HW214867   3.613   3.904   2.787
 4941SOL     OW14868   2.116   4.037   2.577
 4941SOL    HW114869   2.028   4.074   2.549
 4941SOL    HW214870   2.120   4.030   2.677
 4942SOL     OW14871   3.071   5.324   1.895
 4942SOL    HW114872   3.061   5.230   1.928
 4942SOL    HW214873   3.003   5.341   1.823
 4943SOL     OW14874   2.685   4.734   3.241
 4943SOL    HW114875   2.736   4.718   3.156
 4943SOL    HW214876   2.682   4.832   3.259
 4944SOL     OW14877   2.782   4.635   2.149
 4944SOL    HW114878   2.843   4.670   2.078
 4944SOL    HW214879   2.829   4.563   2.201
 4945SOL     OW14880   3.350   5.355   1.904
 4945SOL    HW114881   3.251   5.343   1.893
 4945SOL    HW214882   3.394   5.360   1.815
 4946SOL     OW14883   2.227   5.027   3.348
 4946SOL    HW114884   2.218   5.107   3.290
 4946SOL    HW214885   2.147   4.968   3.338
 4947SOL     OW14886   3.475   5.008   3.146
 4947SOL    HW114887   3.538   4.989   3.221
 4947SOL    HW214888   3.409   5.078   3.176
 4948SOL     OW14889   2.925   4.831   2.578
 4948SOL    HW114890   2.848   4.781   2.617
 4948SOL    HW214891   2.994   4.766   2.545
 4949SOL     OW14892   2.884   3.963   2.830
 4949SOL    HW114893   2.881   3.920   2.739
 4949SOL    HW214894   2.883   3.892   2.900
 4950SOL     OW14895   2.467   5.210   2.341
 4950SOL    HW114896   2.519   5.156   2.275
 4950SOL    HW214897   2.392   5.257   2.295
 4951SOL     OW14898   3.594   4.116   3.243
 4951SOL    HW114899   3.665   4.186   3.244
 4951SOL    HW214900   3.621   4.042   3.182
 4952SOL     OW14901   2.115   5.072   2.151
 4952SOL    HW114902   2.019   5.065   2.123
 4952SOL    HW214903   2.120   5.111   2.242
 4953SOL     OW14904   1.977   4.759   3.591
 4953SOL    HW114905   1.895   4.732   3.641
 4953SOL    HW214906   2.057   4.713   3.630
 4954SOL     OW14907   2.542   3.913   3.358
 4954SOL    HW114908   2.629   3.895   3.313
 4954SOL    HW214909   2.558   3.948   3.450
 4955SOL     OW14910   1.944   4.051   1.890
 4955SOL    HW114911   1.852   4.027   1.858
 4955SOL    HW214912   1.976   4.133   1.843
 4956SOL     OW14913   3.284   4.580   3.256
 4956SOL    HW114914   3.229   4.644   3.203
 4956SOL    HW214915   3.378   4.581   3.222
 4957SOL     OW14916   1.924   3.879   2.163
 4957SOL    HW114917   1.908   3.963   2.111
 4957SOL    HW214918   2.013   3.841   2.136
 4958SOL     OW14919   3.042   5.061   1.983
 4958SOL    HW114920   2.947   5.031   1.976
 4958SOL    HW214921   3.070   5.062   2.079
 4959SOL     OW14922   2.486   4.554   3.295
 4959SOL    HW114923   2.543   4.635   3.281
 4959SOL    HW214924   2.544   4.473   3.305
 4960SOL     OW14925   3.347   5.514   2.851
 4960SOL    HW114926   3.368   5.578   2.776
 4960SOL    HW214927   3.432   5.478   2.889
 4961SOL     OW14928   2.581   4.285   3.563
 4961SOL    HW114929   2.628   4.351   3.622
 4961SOL    HW214930   2.604   4.192   3.592
 4962SOL     OW14931   3.336   4.919   3.496
 4962SOL    HW114932   3.321   4.933   3.594
 4962SOL    HW214933   3.432   4.938   3.474
 4963SOL     OW14934   2.232   5.462   3.429
 4963SOL    HW114935   2.148   5.515   3.414
 4963SOL    HW214936   2.209   5.375   3.471
 4964SOL     OW14937   3.526   4.602   3.118
 4964SOL    HW114938   3.523   4.511   3.076
 4964SOL    HW214939   3.514   4.671   3.047
 4965SOL     OW14940   3.082   4.040   2.322
 4965SOL    HW114941   3.145   3.964   2.312
 4965SOL    HW214942   3.108   4.096   2.400
 4966SOL     OW14943   2.447   4.460   2.531
 4966SOL    HW114944   2.489   4.550   2.521
 4966SOL    HW214945   2.379   4.447   2.460
 4967SOL     OW14946   3.611   4.088   3.516
 4967SOL    HW114947   3.604   4.103   3.418
 4967SOL    HW214948   3.536   4.029   3.546
 4968SOL     OW14949   3.614   4.656   3.371
 4968SOL    HW114950   3.603   4.753   3.393
 4968SOL    HW214951   3.593   4.640   3.275
 4969SOL     OW14952   2.729   5.087   1.907
 4969SOL    HW114953   2.688   5.111   1.995
 4969SOL    HW214954   2.743   5.171   1.854
 4970SOL     OW14955   2.527   5.507   2.803
 4970SOL    HW114956   2.504   5.602   2.783
 4970SOL    HW214957   2.626   5.494   2.792
 4971SOL     OW14958   2.731   4.695   2.718
 4971SOL    HW114959   2.782   4.617   2.754
 4971SOL    HW214960   2.688   4.745   2.794
 4972SOL     OW14961   2.940   4.714   1.946
 4972SOL    HW114962   2.912   4.767   1.866
 4972SOL    HW214963   3.017   4.655   1.921
 4973SOL     OW14964   3.707   5.280   2.709
 4973SOL    HW114965   3.630   5.268   2.646
 4973SOL    HW214966   3.703   5.211   2.781
 4974SOL     OW14967   2.094   5.022   3.719
 4974SOL    HW114968   2.028   4.955   3.684
 4974SOL    HW214969   2.079   5.036   3.817
 4975SOL     OW14970   1.950   4.953   2.525
 4975SOL    HW114971   1.955   4.908   2.614
 4975SOL    HW214972   2.018   4.913   2.464
 4976SOL     OW14973   2.545   5.134   3.496
 4976SOL    HW114974   2.464   5.084   3.528
 4976SOL    HW214975   2.544   5.227   3.533
 4977SOL     OW14976   3.672   3.910   3.096
 4977SOL    HW114977   3.670   3.815   3.128
 4977SOL    HW214978   3.684   3.911   2.997
 4978SOL     OW14979   2.292   4.152   2.389
 4978SOL    HW114980   2.326   4.082   2.325
 4978SOL    HW214981   2.237   4.108   2.460
 4979SOL     OW14982   3.555   5.206   2.956
 4979SOL    HW114983   3.474   5.188   2.899
 4979SOL    HW214984   3.562   5.135   3.026
 4980SOL     OW14985   2.198   4.281   3.150
 4980SOL    HW114986   2.256   4.224   3.209
 4980SOL    HW214987   2.213   4.256   3.054
 4981SOL     OW14988   2.691   5.304   2.540
 4981SOL    HW114989   2.676   5.367   2.464
 4981SOL    HW214990   2.614   5.240   2.546
 4982SOL     OW14991   3.293   3.956   2.977
 4982SOL    HW114992   3.317   3.867   3.018
 4982SOL    HW214993   3.240   4.009   3.043
 4983SOL     OW14994   2.872   3.737   2.998
 4983SOL    HW114995   2.811   3.674   2.951
 4983SOL    HW214996   2.964   3.697   3.002
 4984SOL     OW14997   2.637   5.055   2.183
 4984SOL    HW114998   2.609   4.960   2.192
 4984SOL    HW214999   2.721   5.071   2.234
 4985SOL     OW15000   2.485   5.283   3.152
 4985SOL    HW115001   2.482   5.370   3.201
 4985SOL    HW215002   2.576   5.271   3.112
 4986SOL     OW15003   3.217   3.773   2.033
 4986SOL    HW115004   3.261   3.705   1.974
 4986SOL    HW215005   3.124   3.745   2.054
 4987SOL     OW15006   3.152   4.189   2.542
 4987SOL    HW115007   3.100   4.274   2.544
 4987SOL    HW215008   3.151   4.147   2.632
 4988SOL     OW15009   3.448   3.927   2.746
 4988SOL    HW115010   3.391   3.946   2.825
 4988SOL    HW215011   3.450   4.007   2.686
 4989SOL     OW15012   1.905   4.787   2.170
 4989SOL    HW115013   2.003   4.787   2.151
 4989SOL    HW215014   1.875   4.694   2.192
 4990SOL     OW15015   2.747   5.388   2.202
 4990SOL    HW115016   2.671   5.366   2.139
 4990SOL    HW215017   2.721   5.465   2.260
 4991SOL     OW15018   2.081   4.338   3.852
 4991SOL    HW115019   1.991   4.342   3.896
 4991SOL    HW215020   2.070   4.321   3.755
 4992SOL     OW15021   2.084   4.007   4.719
 4992SOL    HW115022   2.117   3.972   4.807
 4992SOL    HW215023   1.991   3.974   4.702
 4993SOL     OW15024   1.862   4.110   4.357
 4993SOL    HW115025   1.778   4.140   4.403
 4993SOL    HW215026   1.843   4.027   4.305
 4994SOL     OW15027   2.431   5.023   4.911
 4994SOL    HW115028   2.341   5.020   4.868
 4994SOL    HW215029   2.449   5.115   4.945
 4995SOL     OW15030   3.428   5.238   4.431
 4995SOL    HW115031   3.385   5.213   4.518
 4995SOL    HW215032   3.358   5.245   4.361
 4996SOL     OW15033   2.995   4.428   4.418
 4996SOL    HW115034   3.047   4.511   4.402
 4996SOL    HW215035   2.945   4.436   4.504
 4997SOL     OW15036   3.632   4.323   3.946
 4997SOL    HW115037   3.608   4.319   3.850
 4997SOL    HW215038   3.595   4.243   3.994
 4998SOL     OW15039   2.604   4.864   4.765
 4998SOL    HW115040   2.537   4.899   4.830
 4998SOL    HW215041   2.649   4.940   4.719
 4999SOL     OW15042   2.737   4.487   5.545
 4999SOL    HW115043   2.725   4.555   5.618
 4999SOL    HW215044   2.761   4.533   5.460
 5000SOL     OW15045   2.546   4.722   4.373
 5000SOL    HW115046   2.617   4.712   4.442
 5000SOL    HW215047   2.471   4.778   4.409
 5001SOL     OW15048   2.573   4.877   5.543
 5001SOL    HW115049   2.626   4.955   5.576
 5001SOL    HW215050   2.489   4.909   5.500
 5002SOL     OW15051   2.189   5.146   4.790
 5002SOL    HW115052   2.112   5.101   4.744
 5002SOL    HW215053   2.241   5.199   4.723
 5003SOL     OW15054   3.319   5.226   5.083
 5003SOL    HW115055   3.377   5.307   5.090
 5003SOL    HW215056   3.248   5.230   5.153
 5004SOL     OW15057   2.312   4.116   5.201
 5004SOL    HW115058   2.394   4.059   5.209
 5004SOL    HW215059   2.231   4.061   5.220
 5005SOL     OW15060   3.473   4.169   4.469
 5005SOL    HW115061   3.399   4.189   4.404
 5005SOL    HW215062   3.478   4.244   4.536
 5006SOL     OW15063   2.084   5.438   4.195
 5006SOL    HW115064   2.102   5.517   4.255
 5006SOL    HW215065   2.159   5.428   4.130
 5007SOL     OW15066   2.999   5.064   5.422
 5007SOL    HW115067   3.046   5.061   5.510
 5007SOL    HW215068   2.943   4.982   5.412
 5008SOL     OW15069   2.096   5.168   4.260
 5008SOL    HW115070   2.079   5.266   4.259
 5008SOL    HW215071   2.036   5.124   4.327
 5009SOL     OW15072   2.134   4.814   4.625
 5009SOL    HW115073   2.129   4.720   4.658
 5009SOL    HW215074   2.070   4.871   4.678
 5010SOL     OW15075   2.459   5.521   5.150
 5010SOL    HW115076   2.376   5.497   5.200
 5010SOL    HW215077   2.491   5.611   5.178
 5011SOL     OW15078   2.443   4.712   3.866
 5011SOL    HW115079   2.491   4.758   3.791
 5011SOL    HW215080   2.483   4.739   3.953
 5012SOL     OW15081   3.459   3.849   5.193
 5012SOL    HW115082   3.481   3.929   5.137
 5012SOL    HW215083   3.443   3.878   5.287
 5013SOL     OW15084   1.977   4.385   4.288
 5013SOL    HW115085   1.947   4.291   4.305
 5013SOL    HW215086   1.971   4.438   4.373
 5014SOL     OW15087   3.709   5.479   4.056
 5014SOL    HW115088   3.779   5.449   4.120
 5014SOL    HW215089   3.724   5.575   4.032
 5015SOL     OW15090   1.892   5.313   3.847
 5015SOL    HW115091   1.875   5.217   3.866
 5015SOL    HW215092   1.871   5.368   3.928
 5016SOL     OW15093   3.553   4.645   4.372
 5016SOL    HW115094   3.638   4.594   4.355
 5016SOL    HW215095   3.530   4.698   4.291
 5017SOL     OW15096   3.515   4.828   4.156
 5017SOL    HW115097   3.604   4.824   4.111
 5017SOL    HW215098   3.518   4.895   4.230
 5018SOL     OW15099   1.986   4.469   5.309
 5018SOL    HW115100   2.082   4.496   5.309
 5018SOL    HW215101   1.928   4.550   5.309
 5019SOL     OW15102   2.474   5.115   4.457
 5019SOL    HW115103   2.429   5.027   4.470
 5019SOL    HW215104   2.461   5.146   4.363
 5020SOL     OW15105   3.150   4.958   5.145
 5020SOL    HW115106   3.176   4.888   5.080
 5020SOL    HW215107   3.210   4.954   5.225
 5021SOL     OW15108   2.676   3.732   4.228
 5021SOL    HW115109   2.723   3.817   4.207
 5021SOL    HW215110   2.578   3.748   4.237
 5022SOL     OW15111   2.052   4.685   5.002
 5022SOL    HW115112   2.141   4.642   4.988
 5022SOL    HW215113   1.983   4.638   4.947
 5023SOL     OW15114   3.394   4.725   3.928
 5023SOL    HW115115   3.321   4.665   3.958
 5023SOL    HW215116   3.441   4.763   4.008
 5024SOL     OW15117   3.043   5.536   5.347
 5024SOL    HW115118   3.051   5.605   5.275
 5024SOL    HW215119   3.063   5.446   5.309
 5025SOL     OW15120   2.204   3.972   5.560
 5025SOL    HW115121   2.253   4.058   5.575
 5025SOL    HW215122   2.107   3.986   5.577
 5026SOL     OW15123   3.327   5.144   4.670
 5026SOL    HW115124   3.261   5.164   4.742
 5026SOL    HW215125   3.319   5.049   4.642
 5027SOL     OW15126   3.511   5.475   4.300
 5027SOL    HW115127   3.494   5.446   4.206
 5027SOL    HW215128   3.491   5.400   4.362
 5028SOL     OW15129   2.456   4.441   3.997
 5028SOL    HW115130   2.461   4.527   3.947
 5028SOL    HW215131   2.387   4.449   4.069
 5029SOL     OW15132   3.139   4.085   4.657
 5029SOL    HW115133   3.046   4.050   4.665
 5029SOL    HW215134   3.199   4.032   4.718
 5030SOL     OW15135   3.445   5.397   4.032
 5030SOL    HW115136   3.542   5.424   4.028
 5030SOL    HW215137   3.412   5.380   3.939
 5031SOL     OW15138   2.652   4.337   5.173
 5031SOL    HW115139   2.627   4.312   5.267
 5031SOL    HW215140   2.615   4.268   5.110
 5032SOL     OW15141   3.253   4.194   5.403
 5032SOL    HW115142   3.254   4.243   5.490
 5032SOL    HW215143   3.313   4.114   5.410
 5033SOL     OW15144   2.814   4.608   5.308
 5033SOL    HW115145   2.872   4.537   5.269
 5033SOL    HW215146   2.760   4.651   5.235
 5034SOL     OW15147   2.856   4.129   4.952
 5034SOL    HW115148   2.765   4.150   4.988
 5034SOL    HW215149   2.847   4.080   4.865
 5035SOL     OW15150   2.912   4.422   4.148
 5035SOL    HW115151   2.934   4.418   4.246
 5035SOL    HW215152   2.826   4.375   4.132
 5036SOL     OW15153   1.951   4.552   4.504
 5036SOL    HW115154   2.036   4.540   4.555
 5036SOL    HW215155   1.901   4.631   4.541
 5037SOL     OW15156   1.990   5.598   5.312
 5037SOL    HW115157   1.995   5.570   5.408
 5037SOL    HW215158   1.906   5.563   5.272
 5038SOL     OW15159   2.760   4.074   3.918
 5038SOL    HW115160   2.796   4.146   3.858
 5038SOL    HW215161   2.786   3.985   3.882
 5039SOL     OW15162   3.561   4.296   5.550
 5039SOL    HW115163   3.527   4.375   5.500
 5039SOL    HW215164   3.592   4.226   5.486
 5040SOL     OW15165   3.242   4.867   4.257
 5040SOL    HW115166   3.327   4.852   4.206
 5040SOL    HW215167   3.186   4.934   4.209
 5041SOL     OW15168   2.410   3.896   4.626
 5041SOL    HW115169   2.414   3.926   4.721
 5041SOL    HW215170   2.411   3.976   4.565
 5042SOL     OW15171   2.856   5.167   4.187
 5042SOL    HW115172   2.825   5.248   4.137
 5042SOL    HW215173   2.839   5.180   4.285
 5043SOL     OW15174   2.218   5.538   4.595
 5043SOL    HW115175   2.262   5.449   4.602
 5043SOL    HW215176   2.284   5.610   4.614
 5044SOL     OW15177   3.660   4.780   4.597
 5044SOL    HW115178   3.609   4.757   4.514
 5044SOL    HW215179   3.597   4.786   4.674
 5045SOL     OW15180   3.088   5.260   5.238
 5045SOL    HW115181   3.076   5.186   5.304
 5045SOL    HW215182   3.020   5.252   5.166
 5046SOL     OW15183   2.183   4.684   3.979
 5046SOL    HW115184   2.271   4.704   3.936
 5046SOL    HW215185   2.147   4.599   3.942
 5047SOL     OW15186   3.345   4.475   4.446
 5047SOL    HW115187   3.340   4.431   4.536
 5047SOL    HW215188   3.426   4.534   4.443
 5048SOL     OW15189   2.331   4.990   5.455
 5048SOL    HW115190   2.305   4.996   5.358
 5048SOL    HW215191   2.249   4.987   5.511
 5049SOL     OW15192   2.984   5.500   3.950
 5049SOL    HW115193   2.904   5.463   3.998
 5049SOL    HW215194   3.014   5.435   3.879
 5050SOL     OW15195   2.064   3.997   5.227
 5050SOL    HW115196   1.982   4.055   5.224
 5050SOL    HW215197   2.042   3.909   5.269
 5051SOL     OW15198   3.486   5.106   3.813
 5051SOL    HW115199   3.448   5.197   3.797
 5051SOL    HW215200   3.417   5.037   3.794
 5052SOL     OW15201   2.326   5.458   4.042
 5052SOL    HW115202   2.368   5.521   4.108
 5052SOL    HW215203   2.397   5.422   3.982
 5053SOL     OW15204   3.264   3.830   4.164
 5053SOL    HW115205   3.253   3.804   4.068
 5053SOL    HW215206   3.361   3.839   4.186
 5054SOL     OW15207   2.120   5.515   4.949
 5054SOL    HW115208   2.171   5.442   4.995
 5054SOL    HW215209   2.101   5.489   4.855
 5055SOL     OW15210   2.798   5.426   4.620
 5055SOL    HW115211   2.881   5.380   4.651
 5055SOL    HW215212   2.756   5.374   4.546
 5056SOL     OW15213   2.258   4.412   4.198
 5056SOL    HW115214   2.277   4.315   4.213
 5056SOL    HW215215   2.161   4.430   4.216
 5057SOL     OW15216   3.389   3.947   5.452
 5057SOL    HW115217   3.400   3.968   5.549
 5057SOL    HW215218   3.316   3.878   5.440
 5058SOL     OW15219   2.498   3.832   3.846
 5058SOL    HW115220   2.587   3.785   3.840
 5058SOL    HW215221   2.452   3.827   3.758
 5059SOL     OW15222   2.625   4.000   5.481
 5059SOL    HW115223   2.710   3.948   5.475
 5059SOL    HW215224   2.574   3.970   5.562
 5060SOL     OW15225   2.736   5.238   4.917
 5060SOL    HW115226   2.717   5.202   4.825
 5060SOL    HW215227   2.809   5.184   4.959
 5061SOL     OW15228   3.201   4.313   5.160
 5061SOL    HW115229   3.231   4.278   5.248
 5061SOL    HW215230   3.237   4.405   5.146
 5062SOL     OW15231   2.682   5.112   4.666
 5062SOL    HW115232   2.772   5.101   4.624
 5062SOL    HW215233   2.613   5.119   4.594
 5063SOL     OW15234   2.789   4.231   4.621
 5063SOL    HW115235   2.763   4.224   4.525
 5063SOL    HW215236   2.821   4.143   4.655
 5064SOL     OW15237   2.408   3.789   4.221
 5064SOL    HW115238   2.326   3.786   4.278
 5064SOL    HW215239   2.405   3.870   4.162
 5065SOL     OW15240   3.287   4.923   3.767
 5065SOL    HW115241   3.321   4.846   3.820
 5065SOL    HW215242   3.199   4.953   3.803
 5066SOL     OW15243   2.154   3.785   3.931
 5066SOL    HW115244   2.211   3.843   3.872
 5066SOL    HW215245   2.209   3.711   3.968
 5067SOL     OW15246   2.808   3.973   4.179
 5067SOL    HW115247   2.775   4.016   4.095
 5067SOL    HW215248   2.906   3.988   4.189
 5068SOL     OW15249   2.941   4.407   5.178
 5068SOL    HW115250   2.867   4.341   5.184
 5068SOL    HW215251   3.029   4.359   5.175
 5069SOL     OW15252   3.081   5.294   4.518
 5069SOL    HW115253   3.095   5.364   4.448
 5069SOL    HW215254   3.153   5.302   4.588
 5070SOL     OW15255   2.331   4.876   4.451
 5070SOL    HW115256   2.265   4.855   4.523
 5070SOL    HW215257   2.288   4.864   4.362
 5071SOL     OW15258   3.124   5.515   4.335
 5071SOL    HW115259   3.176   5.577   4.276
 5071SOL    HW215260   3.051   5.566   4.380
 5072SOL     OW15261   2.882   4.261   3.755
 5072SOL    HW115262   2.837   4.347   3.731
 5072SOL    HW215263   2.952   4.278   3.825
 5073SOL     OW15264   1.949   4.281   5.115
 5073SOL    HW115265   2.044   4.277   5.083
 5073SOL    HW215266   1.941   4.352   5.185
 5074SOL     OW15267   2.420   3.948   4.897
 5074SOL    HW115268   2.470   3.873   4.941
 5074SOL    HW215269   2.325   3.946   4.926
 5075SOL     OW15270   2.728   4.182   4.360
 5075SOL    HW115271   2.680   4.243   4.298
 5075SOL    HW215272   2.755   4.099   4.311
 5076SOL     OW15273   2.881   3.777   4.469
 5076SOL    HW115274   2.819   3.779   4.391
 5076SOL    HW215275   2.856   3.701   4.530
 5077SOL     OW15276   3.308   4.885   4.583
 5077SOL    HW115277   3.232   4.820   4.586
 5077SOL    HW215278   3.338   4.895   4.488
 5078SOL     OW15279   3.330   4.333   4.693
 5078SOL    HW115280   3.267   4.255   4.692
 5078SOL    HW215281   3.391   4.326   4.772
 5079SOL     OW15282   3.703   4.532   4.104
 5079SOL    HW115283   3.761   4.485   4.170
 5079SOL    HW215284   3.674   4.468   4.033
 5080SOL     OW15285   2.349   5.145   3.879
 5080SOL    HW115286   2.268   5.118   3.932
 5080SOL    HW215287   2.347   5.098   3.790
 5081SOL     OW15288   3.538   4.991   4.367
 5081SOL    HW115289   3.637   4.988   4.379
 5081SOL    HW215290   3.504   5.083   4.387
 5082SOL     OW15291   3.252   4.299   3.794
 5082SOL    HW115292   3.190   4.276   3.870
 5082SOL    HW215293   3.345   4.276   3.820
 5083SOL     OW15294   2.392   3.992   4.040
 5083SOL    HW115295   2.436   3.933   3.972
 5083SOL    HW215296   2.364   4.077   3.997
 5084SOL     OW15297   3.614   4.965   5.282
 5084SOL    HW115298   3.704   4.923   5.269
 5084SOL    HW215299   3.626   5.058   5.317
 5085SOL     OW15300   2.915   5.073   5.060
 5085SOL    HW115301   2.833   5.044   5.110
 5085SOL    HW215302   2.996   5.033   5.102
 5086SOL     OW15303   3.476   5.354   5.381
 5086SOL    HW115304   3.460   5.389   5.289
 5086SOL    HW215305   3.561   5.302   5.383
 5087SOL     OW15306   3.000   4.945   4.829
 5087SOL    HW115307   2.940   4.979   4.901
 5087SOL    HW215308   2.967   4.976   4.740
 5088SOL     OW15309   3.485   4.820   4.803
 5088SOL    HW115310   3.481   4.886   4.879
 5088SOL    HW215311   3.410   4.838   4.740
 5089SOL     OW15312   2.786   3.817   5.115
 5089SOL    HW115313   2.807   3.795   5.020
 5089SOL    HW215314   2.865   3.861   5.158
 5090SOL     OW15315   2.841   4.839   5.445
 5090SOL    HW115316   2.747   4.858   5.472
 5090SOL    HW215317   2.843   4.756   5.389
 5091SOL     OW15318   2.575   4.783   4.097
 5091SOL    HW115319   2.558   4.765   4.194
 5091SOL    HW215320   2.654   4.729   4.067
 5092SOL     OW15321   2.285   4.539   4.978
 5092SOL    HW115322   2.357   4.553   5.045
 5092SOL    HW215323   2.246   4.448   4.988
 5093SOL     OW15324   3.124   4.100   5.005
 5093SOL    HW115325   3.161   4.179   5.054
 5093SOL    HW215326   3.029   4.117   4.980
 5094SOL     OW15327   1.937   5.296   5.078
 5094SOL    HW115328   1.901   5.366   5.016
 5094SOL    HW215329   2.037   5.294   5.071
 5095SOL     OW15330   2.202   4.844   4.211
 5095SOL    HW115331   2.207   4.927   4.154
 5095SOL    HW215332   2.201   4.763   4.152
 5096SOL     OW15333   2.409   4.267   4.586
 5096SOL    HW115334   2.423   4.326   4.506
 5096SOL    HW215335   2.478   4.287   4.655
 5097SOL     OW15336   3.108   5.079   4.116
 5097SOL    HW115337   3.169   5.152   4.148
 5097SOL    HW215338   3.014   5.099   4.147
 5098SOL     OW15339   3.151   5.186   4.871
 5098SOL    HW115340   3.209   5.192   4.953
 5098SOL    HW215341   3.097   5.102   4.875
 5099SOL     OW15342   3.438   4.344   4.208
 5099SOL    HW115343   3.388   4.392   4.280
 5099SOL    HW215344   3.487   4.411   4.151
 5100SOL     OW15345   2.210   5.254   5.033
 5100SOL    HW115346   2.194   5.209   4.945
 5100SOL    HW215347   2.308   5.268   5.046
 5101SOL     OW15348   2.278   4.471   5.324
 5101SOL    HW115349   2.345   4.516   5.265
 5101SOL    HW215350   2.310   4.379   5.347
 5102SOL     OW15351   3.471   4.509   5.409
 5102SOL    HW115352   3.380   4.551   5.407
 5102SOL    HW215353   3.528   4.550   5.338
 5103SOL     OW15354   2.859   3.859   5.474
 5103SOL    HW115355   2.917   3.939   5.459
 5103SOL    HW215356   2.909   3.776   5.447
 5104SOL     OW15357   2.354   3.759   5.475
 5104SOL    HW115358   2.309   3.702   5.407
 5104SOL    HW215359   2.297   3.839   5.494
 5105SOL     OW15360   2.446   4.596   4.759
 5105SOL    HW115361   2.482   4.689   4.756
 5105SOL    HW215362   2.386   4.585   4.838
 5106SOL     OW15363   3.212   4.581   4.747
 5106SOL    HW115364   3.121   4.571   4.707
 5106SOL    HW215365   3.262   4.495   4.738
 5107SOL     OW15366   3.059   4.250   3.988
 5107SOL    HW115367   3.072   4.168   4.044
 5107SOL    HW215368   3.015   4.321   4.043
 5108SOL     OW15369   2.159   3.920   4.971
 5108SOL    HW115370   2.122   3.956   5.057
 5108SOL    HW215371   2.144   3.821   4.967
 5109SOL     OW15372   1.915   5.034   4.999
 5109SOL    HW115373   1.947   4.972   5.071
 5109SOL    HW215374   1.917   5.128   5.032
 5110SOL     OW15375   2.585   4.354   4.778
 5110SOL    HW115376   2.663   4.335   4.717
 5110SOL    HW215377   2.551   4.446   4.760
 5111SOL     OW15378   3.599   4.685   5.581
 5111SOL    HW115379   3.556   4.615   5.523
 5111SOL    HW215380   3.539   4.704   5.659
 5112SOL     OW15381   2.168   3.785   4.354
 5112SOL    HW115382   2.143   3.880   4.371
 5112SOL    HW215383   2.179   3.737   4.441
 5113SOL     OW15384   3.489   4.106   4.084
 5113SOL    HW115385   3.515   4.032   4.146
 5113SOL    HW215386   3.461   4.186   4.138
 5114SOL     OW15387   2.886   4.479   4.681
 5114SOL    HW115388   2.880   4.501   4.779
 5114SOL    HW215389   2.859   4.384   4.667
 5115SOL     OW15390   2.843   5.287   5.442
 5115SOL    HW115391   2.826   5.334   5.356
 5115SOL    HW215392   2.891   5.201   5.424
 5116SOL     OW15393   3.716   5.227   5.327
 5116SOL    HW115394   3.735   5.253   5.233
 5116SOL    HW215395   3.799   5.238   5.382
 5117SOL     OW15396   2.215   4.642   5.529
 5117SOL    HW115397   2.295   4.664   5.585
 5117SOL    HW215398   2.240   4.577   5.458
 5118SOL     OW15399   3.389   3.992   3.855
 5118SOL    HW115400   3.319   3.925   3.881
 5118SOL    HW215401   3.427   4.035   3.936
 5119SOL     OW15402   3.149   4.550   3.749
 5119SOL    HW115403   3.190   4.459   3.758
 5119SOL    HW215404   3.181   4.592   3.664
 5120SOL     OW15405   2.933   5.062   4.579
 5120SOL    HW115406   2.937   4.984   4.517
 5120SOL    HW215407   2.991   5.136   4.545
 5121SOL     OW15408   2.173   4.530   4.667
 5121SOL    HW115409   2.270   4.556   4.662
 5121SOL    HW215410   2.165   4.436   4.699
 5122SOL     OW15411   2.188   4.252   4.735
 5122SOL    HW115412   2.150   4.160   4.725
 5122SOL    HW215413   2.269   4.261   4.677
 5123SOL     OW15414   2.996   4.096   5.417
 5123SOL    HW115415   2.943   4.153   5.480
 5123SOL    HW215416   3.088   4.134   5.408
 5124SOL     OW15417   3.024   3.927   5.200
 5124SOL    HW115418   3.009   3.989   5.277
 5124SOL    HW215419   3.067   3.976   5.125
 5125SOL     OW15420   1.862   5.038   3.918
 5125SOL    HW115421   1.773   5.058   3.879
 5125SOL    HW215422   1.863   4.945   3.954
 5126SOL     OW15423   1.956   5.506   4.668
 5126SOL    HW115424   1.919   5.426   4.622
 5126SOL    HW215425   2.049   5.524   4.636
 5127SOL     OW15426   2.355   5.300   4.629
 5127SOL    HW115427   2.425   5.366   4.655
 5127SOL    HW215428   2.395   5.233   4.567
 5128SOL     OW15429   2.835   4.517   4.947
 5128SOL    HW115430   2.895   4.494   5.023
 5128SOL    HW215431   2.745   4.475   4.962
 5129SOL     OW15432   1.899   4.278   4.841
 5129SOL    HW115433   1.981   4.265   4.786
 5129SOL    HW215434   1.925   4.279   4.938
 5130SOL     OW15435   2.054   4.247   5.455
 5130SOL    HW115436   2.106   4.193   5.389
 5130SOL    HW215437   2.016   4.327   5.409
 5131SOL     OW15438   3.243   4.658   5.378
 5131SOL    HW115439   3.266   4.756   5.379
 5131SOL    HW215440   3.239   4.626   5.284
 5132SOL     OW15441   2.679   4.295   4.084
 5132SOL    HW115442   2.687   4.216   4.024
 5132SOL    HW215443   2.601   4.351   4.056
 5133SOL     OW15444   3.504   4.327   4.904
 5133SOL    HW115445   3.488   4.268   4.983
 5133SOL    HW215446   3.596   4.310   4.868
 5134SOL     OW15447   2.101   5.270   5.449
 5134SOL    HW115448   2.080   5.345   5.513
 5134SOL    HW215449   2.108   5.184   5.500
 5135SOL     OW15450   2.572   4.170   4.975
 5135SOL    HW115451   2.513   4.093   4.952
 5135SOL    HW215452   2.568   4.239   4.903
 5136SOL     OW15453   2.781   5.405   5.196
 5136SOL    HW115454   2.755   5.358   5.112
 5136SOL    HW215455   2.781   5.503   5.181
 5137SOL     OW15456   2.321   4.217   3.904
 5137SOL    HW115457   2.385   4.288   3.930
 5137SOL    HW215458   2.229   4.257   3.894
 5138SOL     OW15459   2.003   4.862   5.200
 5138SOL    HW115460   2.005   4.818   5.290
 5138SOL    HW215461   2.023   4.794   5.129
 5139SOL     OW15462   3.177   4.767   4.942
 5139SOL    HW115463   3.204   4.699   4.874
 5139SOL    HW215464   3.110   4.830   4.902
 5140SOL     OW15465   3.179   4.581   4.022
 5140SOL    HW115466   3.103   4.554   4.081
 5140SOL    HW215467   3.152   4.568   3.926
 5141SOL     OW15468   3.643   5.452   4.882
 5141SOL    HW115469   3.704   5.486   4.810
 5141SOL    HW215470   3.611   5.360   4.857
 5142SOL     OW15471   3.103   5.456   4.828
 5142SOL    HW115472   3.189   5.486   4.786
 5142SOL    HW215473   3.109   5.360   4.852
 5143SOL     OW15474   1.949   4.988   4.734
 5143SOL    HW115475   1.933   5.003   4.832
 5143SOL    HW215476   1.876   4.930   4.697
 5144SOL     OW15477   2.543   5.399   5.462
 5144SOL    HW115478   2.480   5.476   5.456
 5144SOL    HW215479   2.617   5.411   5.395
 5145SOL     OW15480   3.577   3.877   4.223
 5145SOL    HW115481   3.652   3.865   4.158
 5145SOL    HW215482   3.563   3.791   4.272
 5146SOL     OW15483   3.258   5.295   4.212
 5146SOL    HW115484   3.320   5.327   4.141
 5146SOL    HW215485   3.202   5.371   4.245
 5147SOL     OW15486   2.008   5.511   5.570
 5147SOL    HW115487   1.951   5.442   5.615
 5147SOL    HW215488   2.057   5.564   5.639
 5148SOL     OW15489   3.144   4.653   4.389
 5148SOL    HW115490   3.219   4.588   4.406
 5148SOL    HW215491   3.178   4.729   4.334
 5149SOL     OW15492   2.664   5.003   5.149
 5149SOL    HW115493   2.635   5.047   5.234
 5149SOL    HW215494   2.594   5.018   5.079
 5150SOL     OW15495   2.530   5.346   3.878
 5150SOL    HW115496   2.547   5.365   3.781
 5150SOL    HW215497   2.472   5.265   3.887
 5151SOL     OW15498   3.478   5.453   5.111
 5151SOL    HW115499   3.536   5.453   5.030
 5151SOL    HW215500   3.464   5.547   5.142
 5152SOL     OW15501   3.704   3.893   4.687
 5152SOL    HW115502   3.738   3.801   4.665
 5152SOL    HW215503   3.613   3.904   4.648
 5153SOL     OW15504   2.116   4.038   4.439
 5153SOL    HW115505   2.027   4.074   4.411
 5153SOL    HW215506   2.119   4.031   4.539
 5154SOL     OW15507   3.071   5.324   3.757
 5154SOL    HW115508   3.061   5.230   3.790
 5154SOL    HW215509   3.003   5.341   3.685
 5155SOL     OW15510   2.685   4.734   5.103
 5155SOL    HW115511   2.736   4.718   5.018
 5155SOL    HW215512   2.682   4.832   5.122
 5156SOL     OW15513   2.782   4.634   4.011
 5156SOL    HW115514   2.843   4.670   3.940
 5156SOL    HW215515   2.829   4.563   4.063
 5157SOL     OW15516   3.350   5.355   3.766
 5157SOL    HW115517   3.251   5.343   3.755
 5157SOL    HW215518   3.394   5.360   3.677
 5158SOL     OW15519   2.227   5.027   5.211
 5158SOL    HW115520   2.218   5.108   5.152
 5158SOL    HW215521   2.148   4.968   5.200
 5159SOL     OW15522   3.475   5.009   5.009
 5159SOL    HW115523   3.538   4.989   5.084
 5159SOL    HW215524   3.409   5.078   5.038
 5160SOL     OW15525   2.925   4.831   4.440
 5160SOL    HW115526   2.848   4.781   4.479
 5160SOL    HW215527   2.994   4.766   4.407
 5161SOL     OW15528   2.885   3.964   4.691
 5161SOL    HW115529   2.882   3.920   4.602
 5161SOL    HW215530   2.882   3.894   4.763
 5162SOL     OW15531   2.467   5.210   4.203
 5162SOL    HW115532   2.519   5.156   4.137
 5162SOL    HW215533   2.392   5.258   4.157
 5163SOL     OW15534   3.594   4.118   5.105
 5163SOL    HW115535   3.667   4.186   5.105
 5163SOL    HW215536   3.619   4.043   5.043
 5164SOL     OW15537   2.115   5.072   4.012
 5164SOL    HW115538   2.019   5.065   3.985
 5164SOL    HW215539   2.120   5.111   4.104
 5165SOL     OW15540   1.977   4.761   5.454
 5165SOL    HW115541   1.895   4.732   5.504
 5165SOL    HW215542   2.057   4.714   5.491
 5166SOL     OW15543   2.546   3.917   5.224
 5166SOL    HW115544   2.632   3.893   5.180
 5166SOL    HW215545   2.564   3.952   5.316
 5167SOL     OW15546   1.925   4.060   3.754
 5167SOL    HW115547   1.826   4.063   3.765
 5167SOL    HW215548   1.955   4.140   3.702
 5168SOL     OW15549   3.284   4.580   5.118
 5168SOL    HW115550   3.229   4.644   5.065
 5168SOL    HW215551   3.378   4.581   5.085
 5169SOL     OW15552   1.921   3.881   4.026
 5169SOL    HW115553   1.906   3.967   3.977
 5169SOL    HW215554   2.010   3.843   4.001
 5170SOL     OW15555   3.042   5.061   3.845
 5170SOL    HW115556   2.947   5.032   3.838
 5170SOL    HW215557   3.070   5.062   3.941
 5171SOL     OW15558   2.486   4.554   5.158
 5171SOL    HW115559   2.543   4.634   5.144
 5171SOL    HW215560   2.544   4.473   5.167
 5172SOL     OW15561   3.347   5.514   4.712
 5172SOL    HW115562   3.368   5.578   4.638
 5172SOL    HW215563   3.432   5.478   4.751
 5173SOL     OW15564   2.584   4.281   5.426
 5173SOL    HW115565   2.629   4.348   5.485
 5173SOL    HW215566   2.603   4.189   5.460
 5174SOL     OW15567   3.336   4.919   5.358
 5174SOL    HW115568   3.321   4.933   5.456
 5174SOL    HW215569   3.432   4.938   5.336
 5175SOL     OW15570   2.232   5.462   5.291
 5175SOL    HW115571   2.148   5.515   5.276
 5175SOL    HW215572   2.209   5.375   5.333
 5176SOL     OW15573   3.527   4.602   4.980
 5176SOL    HW115574   3.522   4.511   4.938
 5176SOL    HW215575   3.514   4.671   4.909
 5177SOL     OW15576   3.081   4.040   4.184
 5177SOL    HW115577   3.145   3.964   4.175
 5177SOL    HW215578   3.106   4.096   4.262
 5178SOL     OW15579   2.449   4.460   4.392
 5178SOL    HW115580   2.490   4.550   4.382
 5178SOL    HW215581   2.379   4.447   4.322
 5179SOL     OW15582   3.612   4.089   5.377
 5179SOL    HW115583   3.603   4.105   5.279
 5179SOL    HW215584   3.537   4.029   5.408
 5180SOL     OW15585   3.615   4.656   5.233
 5180SOL    HW115586   3.603   4.753   5.255
 5180SOL    HW215587   3.593   4.640   5.137
 5181SOL     OW15588   2.729   5.087   3.769
 5181SOL    HW115589   2.688   5.111   3.857
 5181SOL    HW215590   2.744   5.170   3.715
 5182SOL     OW15591   2.527   5.507   4.665
 5182SOL    HW115592   2.504   5.602   4.645
 5182SOL    HW215593   2.626   5.495   4.654
 5183SOL     OW15594   2.731   4.695   4.580
 5183SOL    HW115595   2.782   4.617   4.616
 5183SOL    HW215596   2.688   4.745   4.655
 5184SOL     OW15597   2.939   4.713   3.808
 5184SOL    HW115598   2.912   4.768   3.728
 5184SOL    HW215599   3.017   4.655   3.783
 5185SOL     OW15600   3.707   5.280   4.571
 5185SOL    HW115601   3.630   5.268   4.508
 5185SOL    HW215602   3.702   5.212   4.643
 5186SOL     OW15603   2.093   5.022   5.580
 5186SOL    HW115604   2.029   4.954   5.545
 5186SOL    HW215605   2.077   5.035   5.678
 5187SOL     OW15606   1.950   4.953   4.387
 5187SOL    HW115607   1.954   4.908   4.476
 5187SOL    HW215608   2.018   4.913   4.326
 5188SOL     OW15609   2.545   5.134   5.358
 5188SOL    HW115610   2.464   5.084   5.390
 5188SOL    HW215611   2.544   5.227   5.395
 5189SOL     OW15612   3.666   3.906   4.957
 5189SOL    HW115613   3.681   3.810   4.982
 5189SOL    HW215614   3.679   3.918   4.859
 5190SOL     OW15615   2.292   4.153   4.252
 5190SOL    HW115616   2.326   4.083   4.189
 5190SOL    HW215617   2.237   4.109   4.323
 5191SOL     OW15618   3.555   5.206   4.817
 5191SOL    HW115619   3.474   5.188   4.761
 5191SOL    HW215620   3.562   5.135   4.888
 5192SOL     OW15621   2.198   4.281   5.013
 5192SOL    HW115622   2.254   4.223   5.072
 5192SOL    HW215623   2.213   4.254   4.917
 5193SOL     OW15624   2.691   5.304   4.402
 5193SOL    HW115625   2.676   5.367   4.326
 5193SOL    HW215626   2.614   5.240   4.408
 5194SOL     OW15627   3.292   3.956   4.841
 5194SOL    HW115628   3.314   3.866   4.878
 5194SOL    HW215629   3.238   4.007   4.908
 5195SOL     OW15630   2.872   3.740   4.861
 5195SOL    HW115631   2.808   3.677   4.817
 5195SOL    HW215632   2.963   3.699   4.862
 5196SOL     OW15633   2.637   5.055   4.045
 5196SOL    HW115634   2.609   4.960   4.055
 5196SOL    HW215635   2.721   5.071   4.096
 5197SOL     OW15636   2.485   5.283   5.014
 5197SOL    HW115637   2.482   5.370   5.063
 5197SOL    HW215638   2.576   5.271   4.974
 5198SOL     OW15639   3.218   3.771   3.898
 5198SOL    HW115640   3.270   3.700   3.850
 5198SOL    HW215641   3.126   3.738   3.917
 5199SOL     OW15642   3.150   4.189   4.403
 5199SOL    HW115643   3.099   4.274   4.406
 5199SOL    HW215644   3.150   4.147   4.494
 5200SOL     OW15645   3.448   3.926   4.609
 5200SOL    HW115646   3.390   3.947   4.688
 5200SOL    HW215647   3.450   4.006   4.548
 5201SOL     OW15648   1.905   4.787   4.032
 5201SOL    HW115649   2.003   4.787   4.013
 5201SOL    HW215650   1.875   4.694   4.054
 5202SOL     OW15651   2.747   5.388   4.064
 5202SOL    HW115652   2.671   5.366   4.001
 5202SOL    HW215653   2.721   5.465   4.122
 5203SOL     OW15654   2.082   4.343   5.715
 5203SOL    HW115655   1.990   4.342   5.755
 5203SOL    HW215656   2.076   4.321   5.617
 5204SOL     OW15657   2.082   4.011   6.583
 5204SOL    HW115658   2.118   3.973   6.668
 5204SOL    HW215659   1.991   3.975   6.566
 5205SOL     OW15660   1.861   4.110   6.221
 5205SOL    HW115661   1.777   4.142   6.266
 5205SOL    HW215662   1.842   4.027   6.168
 5206SOL     OW15663   2.419   5.010   6.759
 5206SOL    HW115664   2.332   5.026   6.714
 5206SOL    HW215665   2.448   5.093   6.807
 5207SOL     OW15666   3.427   5.237   6.294
 5207SOL    HW115667   3.382   5.214   6.380
 5207SOL    HW215668   3.359   5.245   6.221
 5208SOL     OW15669   2.995   4.427   6.280
 5208SOL    HW115670   3.046   4.512   6.265
 5208SOL    HW215671   2.943   4.434   6.366
 5209SOL     OW15672   3.634   4.322   5.808
 5209SOL    HW115673   3.609   4.318   5.711
 5209SOL    HW215674   3.595   4.243   5.856
 5210SOL     OW15675   2.617   4.867   6.630
 5210SOL    HW115676   2.544   4.894   6.693
 5210SOL    HW215677   2.650   4.948   6.581
 5211SOL     OW15678   2.546   4.722   6.235
 5211SOL    HW115679   2.616   4.712   6.304
 5211SOL    HW215680   2.471   4.778   6.271
 5212SOL     OW15681   2.192   5.134   6.643
 5212SOL    HW115682   2.111   5.095   6.601
 5212SOL    HW215683   2.239   5.193   6.578
 5213SOL     OW15684   3.472   4.171   6.331
 5213SOL    HW115685   3.398   4.187   6.266
 5213SOL    HW215686   3.471   4.242   6.401
 5214SOL     OW15687   2.084   5.438   6.057
 5214SOL    HW115688   2.102   5.517   6.116
 5214SOL    HW215689   2.159   5.428   5.991
 5215SOL     OW15690   2.096   5.168   6.122
 5215SOL    HW115691   2.079   5.266   6.122
 5215SOL    HW215692   2.036   5.124   6.189
 5216SOL     OW15693   2.131   4.815   6.489
 5216SOL    HW115694   2.127   4.721   6.523
 5216SOL    HW215695   2.070   4.873   6.544
 5217SOL     OW15696   2.472   5.529   6.988
 5217SOL    HW115697   2.383   5.502   0.026
 5217SOL    HW215698   2.496   5.620   0.021
 5218SOL     OW15699   2.443   4.712   5.728
 5218SOL    HW115700   2.491   4.758   5.653
 5218SOL    HW215701   2.484   4.740   5.815
 5219SOL     OW15702   1.977   4.385   6.150
 5219SOL    HW115703   1.946   4.292   6.167
 5219SOL    HW215704   1.971   4.438   6.235
 5220SOL     OW15705   3.708   5.479   5.918
 5220SOL    HW115706   3.779   5.449   5.982
 5220SOL    HW215707   3.723   5.575   5.894
 5221SOL     OW15708   1.892   5.314   5.709
 5221SOL    HW115709   1.875   5.217   5.727
 5221SOL    HW215710   1.871   5.367   5.790
 5222SOL     OW15711   3.553   4.645   6.232
 5222SOL    HW115712   3.637   4.593   6.214
 5222SOL    HW215713   3.530   4.699   6.151
 5223SOL     OW15714   3.515   4.829   6.018
 5223SOL    HW115715   3.604   4.825   5.973
 5223SOL    HW215716   3.518   4.896   6.092
 5224SOL     OW15717   2.473   5.115   6.319
 5224SOL    HW115718   2.427   5.027   6.332
 5224SOL    HW215719   2.460   5.146   6.225
 5225SOL     OW15720   2.680   3.734   6.095
 5225SOL    HW115721   2.726   3.820   6.072
 5225SOL    HW215722   2.582   3.750   6.102
 5226SOL     OW15723   2.055   4.698   6.843
 5226SOL    HW115724   2.137   4.643   6.827
 5226SOL    HW215725   1.974   4.645   6.820
 5227SOL     OW15726   3.394   4.726   5.790
 5227SOL    HW115727   3.320   4.665   5.820
 5227SOL    HW215728   3.441   4.763   5.870
 5228SOL     OW15729   3.313   5.147   6.530
 5228SOL    HW115730   3.255   5.161   6.611
 5228SOL    HW215731   3.310   5.051   6.503
 5229SOL     OW15732   3.510   5.476   6.161
 5229SOL    HW115733   3.493   5.445   6.068
 5229SOL    HW215734   3.492   5.401   6.225
 5230SOL     OW15735   2.456   4.443   5.860
 5230SOL    HW115736   2.461   4.528   5.808
 5230SOL    HW215737   2.387   4.451   5.931
 5231SOL     OW15738   3.137   4.082   6.517
 5231SOL    HW115739   3.043   4.048   6.525
 5231SOL    HW215740   3.195   4.032   6.581
 5232SOL     OW15741   3.445   5.396   5.894
 5232SOL    HW115742   3.541   5.423   5.891
 5232SOL    HW215743   3.412   5.379   5.801
 5233SOL     OW15744   2.655   4.333   0.047
 5233SOL    HW115745   2.592   4.376   0.112
 5233SOL    HW215746   2.603   4.277   6.982
 5234SOL     OW15747   2.869   4.118   6.794
 5234SOL    HW115748   2.808   4.172   6.851
 5234SOL    HW215749   2.815   4.071   6.723
 5235SOL     OW15750   2.913   4.423   6.010
 5235SOL    HW115751   2.935   4.418   6.108
 5235SOL    HW215752   2.826   4.375   5.994
 5236SOL     OW15753   1.952   4.550   6.367
 5236SOL    HW115754   2.038   4.539   6.418
 5236SOL    HW215755   1.902   4.630   6.402
 5237SOL     OW15756   2.005   5.555   0.135
 5237SOL    HW115757   1.947   5.515   0.206
 5237SOL    HW215758   1.951   5.573   0.054
 5238SOL     OW15759   2.758   4.077   5.783
 5238SOL    HW115760   2.799   4.145   5.722
 5238SOL    HW215761   2.767   3.986   5.742
 5239SOL     OW15762   3.242   4.867   6.118
 5239SOL    HW115763   3.327   4.852   6.068
 5239SOL    HW215764   3.186   4.934   6.070
 5240SOL     OW15765   2.408   3.895   6.486
 5240SOL    HW115766   2.414   3.927   6.580
 5240SOL    HW215767   2.412   3.974   6.424
 5241SOL     OW15768   2.856   5.167   6.049
 5241SOL    HW115769   2.825   5.248   5.999
 5241SOL    HW215770   2.839   5.180   6.147
 5242SOL     OW15771   2.218   5.539   6.457
 5242SOL    HW115772   2.262   5.450   6.464
 5242SOL    HW215773   2.285   5.611   6.475
 5243SOL     OW15774   3.664   4.780   6.453
 5243SOL    HW115775   3.614   4.755   6.370
 5243SOL    HW215776   3.601   4.780   6.531
 5244SOL     OW15777   2.183   4.683   5.841
 5244SOL    HW115778   2.271   4.704   5.798
 5244SOL    HW215779   2.146   4.598   5.803
 5245SOL     OW15780   3.345   4.475   6.306
 5245SOL    HW115781   3.339   4.428   6.394
 5245SOL    HW215782   3.426   4.533   6.304
 5246SOL     OW15783   2.984   5.500   5.812
 5246SOL    HW115784   2.904   5.462   5.860
 5246SOL    HW215785   3.014   5.435   5.741
 5247SOL     OW15786   3.486   5.106   5.675
 5247SOL    HW115787   3.448   5.197   5.659
 5247SOL    HW215788   3.417   5.037   5.656
 5248SOL     OW15789   2.326   5.459   5.904
 5248SOL    HW115790   2.368   5.521   5.970
 5248SOL    HW215791   2.397   5.422   5.843
 5249SOL     OW15792   3.263   3.828   6.024
 5249SOL    HW115793   3.251   3.802   5.928
 5249SOL    HW215794   3.360   3.836   6.045
 5250SOL     OW15795   2.124   5.520   6.812
 5250SOL    HW115796   2.168   5.450   6.868
 5250SOL    HW215797   2.105   5.483   6.721
 5251SOL     OW15798   2.799   5.424   6.481
 5251SOL    HW115799   2.885   5.380   6.507
 5251SOL    HW215800   2.756   5.373   6.406
 5252SOL     OW15801   2.258   4.412   6.060
 5252SOL    HW115802   2.277   4.315   6.074
 5252SOL    HW215803   2.161   4.429   6.077
 5253SOL     OW15804   2.504   3.840   5.688
 5253SOL    HW115805   2.572   3.770   5.710
 5253SOL    HW215806   2.447   3.809   5.612
 5254SOL     OW15807   2.725   5.240   6.764
 5254SOL    HW115808   2.709   5.207   6.671
 5254SOL    HW215809   2.768   5.168   6.818
 5255SOL     OW15810   2.681   5.112   6.520
 5255SOL    HW115811   2.771   5.101   6.479
 5255SOL    HW215812   2.611   5.118   6.448
 5256SOL     OW15813   2.789   4.232   6.484
 5256SOL    HW115814   2.762   4.224   6.388
 5256SOL    HW215815   2.827   4.144   6.515
 5257SOL     OW15816   2.410   3.789   6.079
 5257SOL    HW115817   2.328   3.786   6.137
 5257SOL    HW215818   2.406   3.869   6.020
 5258SOL     OW15819   3.287   4.923   5.629
 5258SOL    HW115820   3.321   4.846   5.682
 5258SOL    HW215821   3.199   4.952   5.665
 5259SOL     OW15822   2.152   3.772   5.772
 5259SOL    HW115823   2.204   3.844   5.724
 5259SOL    HW215824   2.215   3.708   5.815
 5260SOL     OW15825   2.809   3.975   6.042
 5260SOL    HW115826   2.778   4.017   5.956
 5260SOL    HW215827   2.907   3.989   6.051
 5261SOL     OW15828   3.079   5.296   6.382
 5261SOL    HW115829   3.094   5.366   6.312
 5261SOL    HW215830   3.159   5.292   6.443
 5262SOL     OW15831   2.330   4.875   6.314
 5262SOL    HW115832   2.264   4.856   6.386
 5262SOL    HW215833   2.287   4.863   6.225
 5263SOL     OW15834   3.123   5.515   6.197
 5263SOL    HW115835   3.176   5.577   6.139
 5263SOL    HW215836   3.049   5.566   6.242
 5264SOL     OW15837   2.883   4.259   5.616
 5264SOL    HW115838   2.838   4.345   5.592
 5264SOL    HW215839   2.953   4.276   5.686
 5265SOL     OW15840   2.423   3.945   6.757
 5265SOL    HW115841   2.470   3.863   6.790
 5265SOL    HW215842   2.328   3.943   6.789
 5266SOL     OW15843   2.727   4.183   6.222
 5266SOL    HW115844   2.680   4.244   6.158
 5266SOL    HW215845   2.756   4.100   6.174
 5267SOL     OW15846   2.880   3.772   6.326
 5267SOL    HW115847   2.818   3.772   6.247
 5267SOL    HW215848   2.855   3.698   6.388
 5268SOL     OW15849   3.303   4.884   6.442
 5268SOL    HW115850   3.233   4.812   6.443
 5268SOL    HW215851   3.335   4.897   6.348
 5269SOL     OW15852   3.329   4.330   6.549
 5269SOL    HW115853   3.266   4.253   6.554
 5269SOL    HW215854   3.391   4.328   6.627
 5270SOL     OW15855   3.703   4.532   5.966
 5270SOL    HW115856   3.762   4.485   6.032
 5270SOL    HW215857   3.674   4.468   5.894
 5271SOL     OW15858   2.349   5.145   5.741
 5271SOL    HW115859   2.268   5.118   5.794
 5271SOL    HW215860   2.347   5.098   5.652
 5272SOL     OW15861   3.537   4.991   6.229
 5272SOL    HW115862   3.636   4.987   6.242
 5272SOL    HW215863   3.505   5.083   6.250
 5273SOL     OW15864   3.252   4.299   5.656
 5273SOL    HW115865   3.189   4.275   5.731
 5273SOL    HW215866   3.345   4.273   5.682
 5274SOL     OW15867   2.390   3.988   5.895
 5274SOL    HW115868   2.438   3.936   5.824
 5274SOL    HW215869   2.361   4.076   5.857
 5275SOL     OW15870   3.622   4.901   0.170
 5275SOL    HW115871   3.720   4.889   0.151
 5275SOL    HW215872   3.594   4.993   0.144
 5276SOL     OW15873   2.979   4.963   6.694
 5276SOL    HW115874   2.897   4.917   6.727
 5276SOL    HW215875   2.967   4.988   6.598
 5277SOL     OW15876   3.480   4.807   6.650
 5277SOL    HW115877   3.480   4.878   6.720
 5277SOL    HW215878   3.406   4.825   6.585
 5278SOL     OW15879   2.576   4.783   5.959
 5278SOL    HW115880   2.558   4.765   6.056
 5278SOL    HW215881   2.654   4.729   5.929
 5279SOL     OW15882   2.287   4.538   6.846
 5279SOL    HW115883   2.342   4.565   6.925
 5279SOL    HW215884   2.252   4.445   6.860
 5280SOL     OW15885   3.132   4.113   6.855
 5280SOL    HW115886   3.159   4.186   6.918
 5280SOL    HW215887   3.037   4.127   6.826
 5281SOL     OW15888   1.932   5.302   6.937
 5281SOL    HW115889   1.896   5.371   6.873
 5281SOL    HW215890   2.031   5.295   6.925
 5282SOL     OW15891   2.202   4.844   6.073
 5282SOL    HW115892   2.207   4.926   6.016
 5282SOL    HW215893   2.201   4.763   6.014
 5283SOL     OW15894   2.408   4.269   6.449
 5283SOL    HW115895   2.421   4.328   6.369
 5283SOL    HW215896   2.479   4.287   6.517
 5284SOL     OW15897   3.108   5.079   5.978
 5284SOL    HW115898   3.169   5.152   6.010
 5284SOL    HW215899   3.014   5.099   6.008
 5285SOL     OW15900   3.144   5.174   6.748
 5285SOL    HW115901   3.182   5.162   6.840
 5285SOL    HW215902   3.082   5.099   6.727
 5286SOL     OW15903   3.438   4.345   6.069
 5286SOL    HW115904   3.388   4.391   6.141
 5286SOL    HW215905   3.486   4.412   6.012
 5287SOL     OW15906   2.204   5.254   6.882
 5287SOL    HW115907   2.188   5.199   6.799
 5287SOL    HW215908   2.302   5.269   6.894
 5288SOL     OW15909   2.447   4.594   6.623
 5288SOL    HW115910   2.480   4.688   6.617
 5288SOL    HW215911   2.387   4.584   6.703
 5289SOL     OW15912   3.207   4.580   6.594
 5289SOL    HW115913   3.116   4.564   6.555
 5289SOL    HW215914   3.261   4.496   6.590
 5290SOL     OW15915   3.059   4.250   5.850
 5290SOL    HW115916   3.072   4.168   5.905
 5290SOL    HW215917   3.015   4.321   5.905
 5291SOL     OW15918   2.163   3.922   6.835
 5291SOL    HW115919   2.117   3.956   6.917
 5291SOL    HW215920   2.149   3.823   6.828
 5292SOL     OW15921   1.898   5.038   6.870
 5292SOL    HW115922   1.942   4.979   6.937
 5292SOL    HW215923   1.906   5.133   6.899
 5293SOL     OW15924   2.586   4.350   6.641
 5293SOL    HW115925   2.664   4.330   6.582
 5293SOL    HW215926   2.555   4.443   6.624
 5294SOL     OW15927   2.169   3.785   6.214
 5294SOL    HW115928   2.144   3.880   6.231
 5294SOL    HW215929   2.180   3.736   6.300
 5295SOL     OW15930   3.490   4.106   5.947
 5295SOL    HW115931   3.516   4.032   6.009
 5295SOL    HW215932   3.461   4.185   6.000
 5296SOL     OW15933   2.884   4.481   6.550
 5296SOL    HW115934   2.878   4.501   6.647
 5296SOL    HW215935   2.859   4.385   6.534
 5297SOL     OW15936   3.389   3.992   5.716
 5297SOL    HW115937   3.320   3.924   5.741
 5297SOL    HW215938   3.426   4.035   5.798
 5298SOL     OW15939   3.150   4.549   5.611
 5298SOL    HW115940   3.191   4.459   5.620
 5298SOL    HW215941   3.181   4.592   5.527
 5299SOL     OW15942   2.934   5.062   6.439
 5299SOL    HW115943   2.938   4.984   6.377
 5299SOL    HW215944   2.991   5.136   6.404
 5300SOL     OW15945   2.175   4.529   6.528
 5300SOL    HW115946   2.272   4.555   6.522
 5300SOL    HW215947   2.169   4.434   6.559
 5301SOL     OW15948   2.192   4.253   6.604
 5301SOL    HW115949   2.153   4.162   6.591
 5301SOL    HW215950   2.273   4.263   6.545
 5302SOL     OW15951   3.003   3.965   0.054
 5302SOL    HW115952   3.073   3.977   0.124
 5302SOL    HW215953   3.036   4.004   6.968
 5303SOL     OW15954   1.863   5.038   5.781
 5303SOL    HW115955   1.773   5.058   5.741
 5303SOL    HW215956   1.863   4.945   5.816
 5304SOL     OW15957   1.955   5.510   6.528
 5304SOL    HW115958   1.918   5.428   6.482
 5304SOL    HW215959   2.049   5.525   6.497
 5305SOL     OW15960   2.355   5.302   6.489
 5305SOL    HW115961   2.425   5.367   6.518
 5305SOL    HW215962   2.395   5.234   6.428
 5306SOL     OW15963   2.841   4.519   6.823
 5306SOL    HW115964   2.920   4.497   6.880
 5306SOL    HW215965   2.760   4.473   6.859
 5307SOL     OW15966   1.913   4.283   6.711
 5307SOL    HW115967   1.969   4.249   6.635
 5307SOL    HW215968   1.973   4.318   6.783
 5308SOL     OW15969   2.679   4.296   5.948
 5308SOL    HW115970   2.689   4.217   5.888
 5308SOL    HW215971   2.601   4.351   5.918
 5309SOL     OW15972   3.510   4.334   6.752
 5309SOL    HW115973   3.494   4.275   6.831
 5309SOL    HW215974   3.605   4.323   6.721
 5310SOL     OW15975   2.534   4.187   6.850
 5310SOL    HW115976   2.498   4.099   6.819
 5310SOL    HW215977   2.550   4.247   6.771
 5311SOL     OW15978   2.806   5.386   6.995
 5311SOL    HW115979   2.772   5.373   6.902
 5311SOL    HW215980   2.787   5.480   0.025
 5312SOL     OW15981   2.320   4.219   5.771
 5312SOL    HW115982   2.385   4.291   5.796
 5312SOL    HW215983   2.229   4.259   5.758
 5313SOL     OW15984   2.019   4.868   0.050
 5313SOL    HW115985   2.069   4.831   0.128
 5313SOL    HW215986   2.031   4.808   6.971
 5314SOL     OW15987   3.145   4.728   6.814
 5314SOL    HW115988   3.182   4.677   6.736
 5314SOL    HW215989   3.122   4.821   6.785
 5315SOL     OW15990   3.178   4.582   5.884
 5315SOL    HW115991   3.103   4.553   5.943
 5315SOL    HW215992   3.153   4.568   5.788
 5316SOL     OW15993   3.619   5.481   6.726
 5316SOL    HW115994   3.693   5.503   6.663
 5316SOL    HW215995   3.595   5.385   6.716
 5317SOL     OW15996   3.110   5.449   6.700
 5317SOL    HW115997   3.194   5.478   6.653
 5317SOL    HW215998   3.115   5.351   6.718
 5318SOL     OW15999   1.944   4.994   6.600
 5318SOL    HW116000   1.927   5.005   6.698
 5318SOL    HW216001   1.876   4.931   6.562
 5319SOL     OW16002   3.582   3.876   6.084
 5319SOL    HW116003   3.657   3.865   6.019
 5319SOL    HW216004   3.564   3.788   6.129
 5320SOL     OW16005   3.258   5.295   6.075
 5320SOL    HW116006   3.320   5.326   6.003
 5320SOL    HW216007   3.202   5.371   6.107
 5321SOL     OW16008   3.144   4.653   6.253
 5321SOL    HW116009   3.218   4.588   6.268
 5321SOL    HW216010   3.177   4.729   6.197
 5322SOL     OW16011   2.530   5.346   5.740
 5322SOL    HW116012   2.547   5.365   5.643
 5322SOL    HW216013   2.472   5.265   5.749
 5323SOL     OW16014   3.704   3.898   6.557
 5323SOL    HW116015   3.739   3.807   6.534
 5323SOL    HW216016   3.612   3.909   6.518
 5324SOL     OW16017   2.116   4.037   6.301
 5324SOL    HW116018   2.027   4.074   6.273
 5324SOL    HW216019   2.119   4.031   6.401
 5325SOL     OW16020   3.071   5.324   5.619
 5325SOL    HW116021   3.061   5.230   5.652
 5325SOL    HW216022   3.003   5.341   5.547
 5326SOL     OW16023   2.637   4.749   6.953
 5326SOL    HW116024   2.697   4.704   6.886
 5326SOL    HW216025   2.683   4.831   6.988
 5327SOL     OW16026   2.782   4.635   5.873
 5327SOL    HW116027   2.843   4.670   5.802
 5327SOL    HW216028   2.830   4.563   5.925
 5328SOL     OW16029   3.350   5.355   5.628
 5328SOL    HW116030   3.251   5.343   5.617
 5328SOL    HW216031   3.394   5.360   5.539
 5329SOL     OW16032   3.478   5.003   6.834
 5329SOL    HW116033   3.568   5.002   6.876
 5329SOL    HW216034   3.409   4.981   6.903
 5330SOL     OW16035   2.924   4.830   6.302
 5330SOL    HW116036   2.847   4.780   6.340
 5330SOL    HW216037   2.993   4.766   6.269
 5331SOL     OW16038   2.882   3.961   6.540
 5331SOL    HW116039   2.881   3.912   6.452
 5331SOL    HW216040   2.884   3.895   6.615
 5332SOL     OW16041   2.467   5.210   6.066
 5332SOL    HW116042   2.519   5.156   6.000
 5332SOL    HW216043   2.392   5.257   6.019
 5333SOL     OW16044   3.557   4.147   6.946
 5333SOL    HW116045   3.620   4.155   0.023
 5333SOL    HW216046   3.565   4.056   6.905
 5334SOL     OW16047   2.115   5.072   5.875
 5334SOL    HW116048   2.019   5.065   5.847
 5334SOL    HW216049   2.120   5.111   5.967
 5335SOL     OW16050   2.537   3.912   0.080
 5335SOL    HW116051   2.629   3.882   0.053
 5335SOL    HW216052   2.544   3.996   0.134
 5336SOL     OW16053   1.944   4.051   5.614
 5336SOL    HW116054   1.852   4.027   5.582
 5336SOL    HW216055   1.976   4.133   5.567
 5337SOL     OW16056   1.924   3.879   5.887
 5337SOL    HW116057   1.908   3.963   5.835
 5337SOL    HW216058   2.013   3.840   5.860
 5338SOL     OW16059   3.042   5.061   5.707
 5338SOL    HW116060   2.947   5.031   5.700
 5338SOL    HW216061   3.070   5.062   5.803
 5339SOL     OW16062   3.353   5.510   6.580
 5339SOL    HW116063   3.366   5.572   6.503
 5339SOL    HW216064   3.442   5.490   6.622
 5340SOL     OW16065   3.354   5.018   0.282
 5340SOL    HW116066   3.263   5.020   0.322
 5340SOL    HW216067   3.380   4.924   0.261
 5341SOL     OW16068   2.248   5.450   0.100
 5341SOL    HW116069   2.159   5.494   0.116
 5341SOL    HW216070   2.246   5.357   0.136
 5342SOL     OW16071   3.563   4.602   6.828
 5342SOL    HW116072   3.530   4.512   6.800
 5342SOL    HW216073   3.527   4.671   6.765
 5343SOL     OW16074   3.082   4.040   6.045
 5343SOL    HW116075   3.145   3.964   6.036
 5343SOL    HW216076   3.108   4.096   6.125
 5344SOL     OW16077   2.446   4.461   6.256
 5344SOL    HW116078   2.489   4.551   6.244
 5344SOL    HW216079   2.378   4.447   6.184
 5345SOL     OW16080   3.630   4.627   0.095
 5345SOL    HW116081   3.620   4.722   0.122
 5345SOL    HW216082   3.606   4.616   6.998
 5346SOL     OW16083   2.729   5.088   5.631
 5346SOL    HW116084   2.687   5.112   5.719
 5346SOL    HW216085   2.744   5.170   5.577
 5347SOL     OW16086   2.529   5.508   6.532
 5347SOL    HW116087   2.505   5.602   6.507
 5347SOL    HW216088   2.627   5.494   6.519
 5348SOL     OW16089   2.731   4.695   6.443
 5348SOL    HW116090   2.780   4.616   6.480
 5348SOL    HW216091   2.691   4.747   6.518
 5349SOL     OW16092   2.939   4.713   5.670
 5349SOL    HW116093   2.912   4.767   5.590
 5349SOL    HW216094   3.017   4.655   5.645
 5350SOL     OW16095   3.710   5.282   6.432
 5350SOL    HW116096   3.631   5.268   6.373
 5350SOL    HW216097   3.706   5.218   6.509
 5351SOL     OW16098   1.950   4.954   6.250
 5351SOL    HW116099   1.948   4.905   6.337
 5351SOL    HW216100   2.019   4.913   6.190
 5352SOL     OW16101   3.671   3.899   6.834
 5352SOL    HW116102   3.646   3.802   6.836
 5352SOL    HW216103   3.687   3.928   6.740
 5353SOL     OW16104   2.292   4.152   6.113
 5353SOL    HW116105   2.326   4.082   6.049
 5353SOL    HW216106   2.237   4.108   6.184
 5354SOL     OW16107   3.537   5.227   6.678
 5354SOL    HW116108   3.461   5.208   6.614
 5354SOL    HW216109   3.545   5.152   6.743
 5355SOL     OW16110   2.180   4.277   6.878
 5355SOL    HW116111   2.249   4.222   6.926
 5355SOL    HW216112   2.189   4.263   6.779
 5356SOL     OW16113   2.691   5.304   6.262
 5356SOL    HW116114   2.678   5.368   6.187
 5356SOL    HW216115   2.613   5.241   6.266
 5357SOL     OW16116   3.296   3.961   6.702
 5357SOL    HW116117   3.327   3.877   6.747
 5357SOL    HW216118   3.242   4.016   6.766
 5358SOL     OW16119   2.880   3.741   6.710
 5358SOL    HW116120   2.817   3.675   6.668
 5358SOL    HW216121   2.970   3.699   6.721
 5359SOL     OW16122   2.636   5.056   5.908
 5359SOL    HW116123   2.609   4.960   5.916
 5359SOL    HW216124   2.722   5.070   5.958
 5360SOL     OW16125   2.478   5.285   6.867
 5360SOL    HW116126   2.475   5.380   6.898
 5360SOL    HW216127   2.565   5.267   6.822
 5361SOL     OW16128   3.217   3.773   5.757
 5361SOL    HW116129   3.260   3.705   5.698
 5361SOL    HW216130   3.124   3.745   5.778
 5362SOL     OW16131   3.153   4.188   6.266
 5362SOL    HW116132   3.101   4.273   6.268
 5362SOL    HW216133   3.150   4.145   6.356
 5363SOL     OW16134   3.449   3.928   6.472
 5363SOL    HW116135   3.388   3.948   6.549
 5363SOL    HW216136   3.450   4.007   6.410
 5364SOL     OW16137   1.905   4.787   5.894
 5364SOL    HW116138   2.003   4.787   5.875
 5364SOL    HW216139   1.875   4.694   5.915
 5365SOL     OW16140   2.746   5.388   5.926
 5365SOL    HW116141   2.671   5.366   5.863
 5365SOL    HW216142   2.721   5.465   5.984
 5366SOL     OW16143   2.081   6.221   0.137
 5366SOL    HW116144   1.985   6.208   0.160
 5366SOL    HW216145   2.093   6.206   0.039
 5367SOL     OW16146   2.085   5.869   0.995
 5367SOL    HW116147   2.117   5.835   1.083
 5367SOL    HW216148   1.992   5.836   0.978
 5368SOL     OW16149   1.863   5.977   0.636
 5368SOL    HW116150   1.779   6.006   0.682
 5368SOL    HW216151   1.846   5.893   0.585
 5369SOL     OW16152   2.431   6.874   1.176
 5369SOL    HW116153   2.357   6.884   1.110
 5369SOL    HW216154   2.399   6.907   1.266
 5370SOL     OW16155   3.402   0.054   0.687
 5370SOL    HW116156   3.384   0.052   0.785
 5370SOL    HW216157   3.321   0.087   0.639
 5371SOL     OW16158   2.993   6.286   0.695
 5371SOL    HW116159   3.046   6.369   0.680
 5371SOL    HW216160   2.942   6.294   0.781
 5372SOL     OW16161   3.645   6.169   0.202
 5372SOL    HW116162   3.578   6.211   0.141
 5372SOL    HW216163   3.599   6.104   0.262
 5373SOL     OW16164   2.623   6.747   1.024
 5373SOL    HW116165   2.557   6.785   1.088
 5373SOL    HW216166   2.622   6.800   0.939
 5374SOL     OW16167   2.739   6.349   1.823
 5374SOL    HW116168   2.723   6.415   1.896
 5374SOL    HW216169   2.763   6.397   1.739
 5375SOL     OW16170   2.547   6.580   0.649
 5375SOL    HW116171   2.618   6.571   0.719
 5375SOL    HW216172   2.472   6.636   0.686
 5376SOL     OW16173   2.553   6.733   1.815
 5376SOL    HW116174   2.589   6.825   1.834
 5376SOL    HW216175   2.476   6.741   1.751
 5377SOL     OW16176   2.199   0.005   1.058
 5377SOL    HW116177   2.119   6.960   1.018
 5377SOL    HW216178   2.245   0.059   0.987
 5378SOL     OW16179   2.313   5.978   1.477
 5378SOL    HW116180   2.394   5.921   1.485
 5378SOL    HW216181   2.231   5.924   1.497
 5379SOL     OW16182   3.473   6.035   0.749
 5379SOL    HW116183   3.401   6.055   0.683
 5379SOL    HW216184   3.479   6.108   0.817
 5380SOL     OW16185   2.122   6.675   0.903
 5380SOL    HW116186   2.120   6.581   0.936
 5380SOL    HW216187   2.062   6.732   0.960
 5381SOL     OW16188   2.453   6.546   0.140
 5381SOL    HW116189   2.517   6.560   0.064
 5381SOL    HW216190   2.489   6.590   0.222
 5382SOL     OW16191   3.459   5.711   1.469
 5382SOL    HW116192   3.481   5.791   1.413
 5382SOL    HW216193   3.443   5.740   1.563
 5383SOL     OW16194   1.976   6.242   0.563
 5383SOL    HW116195   1.945   6.149   0.583
 5383SOL    HW216196   1.971   6.297   0.645
 5384SOL     OW16197   3.553   6.493   0.651
 5384SOL    HW116198   3.642   6.447   0.643
 5384SOL    HW216199   3.536   6.548   0.570
 5385SOL     OW16200   3.522   6.671   0.445
 5385SOL    HW116201   3.585   6.696   0.371
 5385SOL    HW216202   3.533   6.735   0.521
 5386SOL     OW16203   1.989   6.331   1.585
 5386SOL    HW116204   2.086   6.354   1.585
 5386SOL    HW216205   1.935   6.415   1.593
 5387SOL     OW16206   3.177   6.816   1.431
 5387SOL    HW116207   3.200   6.746   1.363
 5387SOL    HW216208   3.236   6.807   1.511
 5388SOL     OW16209   2.681   5.600   0.515
 5388SOL    HW116210   2.727   5.685   0.491
 5388SOL    HW216211   2.583   5.616   0.522
 5389SOL     OW16212   2.054   6.550   1.276
 5389SOL    HW116213   2.141   6.503   1.262
 5389SOL    HW216214   1.982   6.502   1.226
 5390SOL     OW16215   3.363   6.593   0.212
 5390SOL    HW116216   3.293   6.528   0.241
 5390SOL    HW216217   3.439   6.592   0.276
 5391SOL     OW16218   2.205   5.835   1.835
 5391SOL    HW116219   2.253   5.921   1.853
 5391SOL    HW216220   2.107   5.848   1.853
 5392SOL     OW16221   3.320   6.988   0.947
 5392SOL    HW116222   3.251   0.016   1.014
 5392SOL    HW216223   3.303   6.894   0.918
 5393SOL     OW16224   2.462   6.300   0.268
 5393SOL    HW116225   2.467   6.390   0.224
 5393SOL    HW216226   2.397   6.304   0.344
 5394SOL     OW16227   3.139   5.945   0.933
 5394SOL    HW116228   3.046   5.911   0.941
 5394SOL    HW216229   3.199   5.893   0.994
 5395SOL     OW16230   2.652   6.197   1.449
 5395SOL    HW116231   2.628   6.173   1.543
 5395SOL    HW216232   2.615   6.128   1.386
 5396SOL     OW16233   3.253   6.056   1.680
 5396SOL    HW116234   3.254   6.105   1.767
 5396SOL    HW216235   3.313   5.976   1.686
 5397SOL     OW16236   2.817   6.473   1.585
 5397SOL    HW116237   2.876   6.400   1.549
 5397SOL    HW216238   2.762   6.511   1.511
 5398SOL     OW16239   2.856   5.991   1.228
 5398SOL    HW116240   2.765   6.012   1.265
 5398SOL    HW216241   2.846   5.942   1.142
 5399SOL     OW16242   2.914   6.288   0.428
 5399SOL    HW116243   2.937   6.285   0.525
 5399SOL    HW216244   2.827   6.240   0.412
 5400SOL     OW16245   1.951   6.412   0.777
 5400SOL    HW116246   2.036   6.400   0.828
 5400SOL    HW216247   1.899   6.489   0.816
 5401SOL     OW16248   2.749   5.927   0.209
 5401SOL    HW116249   2.795   5.989   0.146
 5401SOL    HW216250   2.768   5.832   0.182
 5402SOL     OW16251   3.561   6.158   1.826
 5402SOL    HW116252   3.527   6.237   1.775
 5402SOL    HW216253   3.592   6.088   1.761
 5403SOL     OW16254   3.256   6.723   0.561
 5403SOL    HW116255   3.345   6.713   0.517
 5403SOL    HW216256   3.217   6.813   0.538
 5404SOL     OW16257   2.409   5.759   0.901
 5404SOL    HW116258   2.413   5.788   0.997
 5404SOL    HW216259   2.413   5.840   0.842
 5405SOL     OW16260   3.661   6.638   0.879
 5405SOL    HW116261   3.610   6.626   0.794
 5405SOL    HW216262   3.598   6.645   0.956
 5406SOL     OW16263   2.191   6.535   0.251
 5406SOL    HW116264   2.276   6.551   0.200
 5406SOL    HW216265   2.153   6.446   0.225
 5407SOL     OW16266   3.346   6.330   0.723
 5407SOL    HW116267   3.342   6.290   0.814
 5407SOL    HW216268   3.425   6.390   0.716
 5408SOL     OW16269   2.064   5.859   1.503
 5408SOL    HW116270   1.982   5.916   1.500
 5408SOL    HW216271   2.042   5.771   1.545
 5409SOL     OW16272   3.509   0.027   0.078
 5409SOL    HW116273   3.488   0.124   0.095
 5409SOL    HW216274   3.424   6.975   0.078
 5410SOL     OW16275   2.260   6.272   0.469
 5410SOL    HW116276   2.278   6.176   0.488
 5410SOL    HW216277   2.164   6.293   0.487
 5411SOL     OW16278   3.389   5.808   1.728
 5411SOL    HW116279   3.400   5.830   1.825
 5411SOL    HW216280   3.317   5.740   1.716
 5412SOL     OW16281   2.625   5.862   1.757
 5412SOL    HW116282   2.710   5.810   1.751
 5412SOL    HW216283   2.573   5.832   1.838
 5413SOL     OW16284   3.201   6.173   1.436
 5413SOL    HW116285   3.231   6.138   1.525
 5413SOL    HW216286   3.237   6.266   1.423
 5414SOL     OW16287   2.789   6.092   0.899
 5414SOL    HW116288   2.762   6.084   0.802
 5414SOL    HW216289   2.821   6.003   0.931
 5415SOL     OW16290   2.412   5.659   0.503
 5415SOL    HW116291   2.329   5.655   0.559
 5415SOL    HW216292   2.406   5.735   0.439
 5416SOL     OW16293   3.278   6.793   0.038
 5416SOL    HW116294   3.323   6.725   0.095
 5416SOL    HW216295   3.204   6.749   6.986
 5417SOL     OW16296   2.812   5.836   0.462
 5417SOL    HW116297   2.778   5.876   0.376
 5417SOL    HW216298   2.911   5.851   0.469
 5418SOL     OW16299   2.942   6.270   1.456
 5418SOL    HW116300   2.867   6.204   1.461
 5418SOL    HW216301   3.029   6.221   1.451
 5419SOL     OW16302   3.131   0.148   0.739
 5419SOL    HW116303   3.100   0.232   0.694
 5419SOL    HW216304   3.143   0.164   0.837
 5420SOL     OW16305   2.329   6.714   0.736
 5420SOL    HW116306   2.258   6.705   0.806
 5420SOL    HW216307   2.286   6.713   0.645
 5421SOL     OW16308   2.927   6.177   0.030
 5421SOL    HW116309   2.829   6.189   0.049
 5421SOL    HW216310   2.975   6.155   0.115
 5422SOL     OW16311   1.949   6.144   1.390
 5422SOL    HW116312   2.044   6.139   1.359
 5422SOL    HW216313   1.941   6.215   1.460
 5423SOL     OW16314   2.420   5.809   1.173
 5423SOL    HW116315   2.470   5.734   1.217
 5423SOL    HW216316   2.325   5.808   1.202
 5424SOL     OW16317   2.728   6.042   0.639
 5424SOL    HW116318   2.684   6.106   0.575
 5424SOL    HW216319   2.756   5.959   0.590
 5425SOL     OW16320   2.882   5.634   0.741
 5425SOL    HW116321   2.817   5.636   0.665
 5425SOL    HW216322   2.857   5.562   0.804
 5426SOL     OW16323   3.303   6.731   0.863
 5426SOL    HW116324   3.226   6.667   0.864
 5426SOL    HW216325   3.333   6.745   0.769
 5427SOL     OW16326   3.330   6.192   0.969
 5427SOL    HW116327   3.268   6.114   0.970
 5427SOL    HW216328   3.391   6.187   1.049
 5428SOL     OW16329   3.697   6.394   0.385
 5428SOL    HW116330   3.754   6.335   0.444
 5428SOL    HW216331   3.685   6.349   0.296
 5429SOL     OW16332   3.543   6.830   0.654
 5429SOL    HW116333   3.641   6.844   0.670
 5429SOL    HW216334   3.495   6.916   0.670
 5430SOL     OW16335   3.251   6.138   0.067
 5430SOL    HW116336   3.190   6.138   0.146
 5430SOL    HW216337   3.313   6.060   0.072
 5431SOL     OW16338   2.373   5.849   0.311
 5431SOL    HW116339   2.391   5.784   0.237
 5431SOL    HW216340   2.350   5.938   0.272
 5432SOL     OW16341   3.616   6.812   1.566
 5432SOL    HW116342   3.700   6.762   1.589
 5432SOL    HW216343   3.633   6.911   1.576
 5433SOL     OW16344   2.937   6.894   1.326
 5433SOL    HW116345   2.858   6.879   1.384
 5433SOL    HW216346   3.021   6.877   1.378
 5434SOL     OW16347   2.998   6.760   1.100
 5434SOL    HW116348   2.966   6.811   1.180
 5434SOL    HW216349   2.943   6.785   1.020
 5435SOL     OW16350   3.484   6.680   1.083
 5435SOL    HW116351   3.472   6.737   1.165
 5435SOL    HW216352   3.408   6.697   1.020
 5436SOL     OW16353   2.786   5.679   1.391
 5436SOL    HW116354   2.807   5.657   1.296
 5436SOL    HW216355   2.865   5.723   1.433
 5437SOL     OW16356   2.828   6.696   1.740
 5437SOL    HW116357   2.730   6.709   1.757
 5437SOL    HW216358   2.840   6.621   1.673
 5438SOL     OW16359   2.570   6.631   0.373
 5438SOL    HW116360   2.555   6.621   0.471
 5438SOL    HW216361   2.652   6.582   0.346
 5439SOL     OW16362   2.284   6.400   1.254
 5439SOL    HW116363   2.356   6.414   1.322
 5439SOL    HW216364   2.245   6.309   1.265
 5440SOL     OW16365   3.124   5.962   1.281
 5440SOL    HW116366   3.160   6.041   1.330
 5440SOL    HW216367   3.029   5.979   1.256
 5441SOL     OW16368   2.212   6.702   0.488
 5441SOL    HW116369   2.258   6.779   0.444
 5441SOL    HW216370   2.217   6.622   0.428
 5442SOL     OW16371   2.409   6.129   0.861
 5442SOL    HW116372   2.424   6.188   0.782
 5442SOL    HW216373   2.478   6.149   0.931
 5443SOL     OW16374   3.448   6.211   0.482
 5443SOL    HW116375   3.392   6.253   0.554
 5443SOL    HW216376   3.503   6.282   0.437
 5444SOL     OW16377   2.278   6.330   1.601
 5444SOL    HW116378   2.345   6.375   1.542
 5444SOL    HW216379   2.310   6.238   1.624
 5445SOL     OW16380   3.471   6.371   1.685
 5445SOL    HW116381   3.379   6.411   1.682
 5445SOL    HW216382   3.527   6.412   1.613
 5446SOL     OW16383   2.859   5.721   1.750
 5446SOL    HW116384   2.917   5.801   1.735
 5446SOL    HW216385   2.908   5.638   1.723
 5447SOL     OW16386   2.354   5.622   1.751
 5447SOL    HW116387   2.309   5.564   1.683
 5447SOL    HW216388   2.297   5.702   1.770
 5448SOL     OW16389   2.444   6.453   1.035
 5448SOL    HW116390   2.472   6.548   1.026
 5448SOL    HW216391   2.383   6.443   1.114
 5449SOL     OW16392   3.217   6.439   1.025
 5449SOL    HW116393   3.126   6.436   0.985
 5449SOL    HW216394   3.262   6.351   1.012
 5450SOL     OW16395   3.055   6.113   0.271
 5450SOL    HW116396   3.070   6.032   0.328
 5450SOL    HW216397   3.015   6.186   0.325
 5451SOL     OW16398   2.159   5.782   1.247
 5451SOL    HW116399   2.122   5.818   1.332
 5451SOL    HW216400   2.144   5.684   1.243
 5452SOL     OW16401   1.923   6.898   1.282
 5452SOL    HW116402   1.957   6.842   1.357
 5452SOL    HW216403   1.917   6.993   1.311
 5453SOL     OW16404   2.586   6.215   1.054
 5453SOL    HW116405   2.663   6.197   0.993
 5453SOL    HW216406   2.550   6.307   1.036
 5454SOL     OW16407   3.597   6.547   1.854
 5454SOL    HW116408   3.554   6.477   1.798
 5454SOL    HW216409   3.541   6.564   1.936
 5455SOL     OW16410   2.167   5.652   0.630
 5455SOL    HW116411   2.143   5.747   0.651
 5455SOL    HW216412   2.179   5.601   0.716
 5456SOL     OW16413   3.491   5.964   0.374
 5456SOL    HW116414   3.516   5.894   0.441
 5456SOL    HW216415   3.468   6.049   0.421
 5457SOL     OW16416   2.886   6.339   0.958
 5457SOL    HW116417   2.881   6.361   1.055
 5457SOL    HW216418   2.859   6.243   0.944
 5458SOL     OW16419   3.718   0.064   1.601
 5458SOL    HW116420   3.755   0.141   1.549
 5458SOL    HW216421   3.772   0.050   1.683
 5459SOL     OW16422   2.216   6.508   1.801
 5459SOL    HW116423   2.291   6.518   1.867
 5459SOL    HW216424   2.241   6.440   1.732
 5460SOL     OW16425   3.345   5.881   0.156
 5460SOL    HW116426   3.307   5.790   0.169
 5460SOL    HW216427   3.405   5.905   0.232
 5461SOL     OW16428   3.155   6.410   0.030
 5461SOL    HW116429   3.198   6.320   0.022
 5461SOL    HW216430   3.185   6.468   6.955
 5462SOL     OW16431   2.172   6.391   0.942
 5462SOL    HW116432   2.268   6.417   0.936
 5462SOL    HW216433   2.164   6.297   0.975
 5463SOL     OW16434   2.189   6.114   1.011
 5463SOL    HW116435   2.150   6.022   1.001
 5463SOL    HW216436   2.269   6.123   0.953
 5464SOL     OW16437   2.996   5.958   1.693
 5464SOL    HW116438   2.943   6.015   1.756
 5464SOL    HW216439   3.088   5.996   1.684
 5465SOL     OW16440   3.024   5.789   1.476
 5465SOL    HW116441   3.009   5.851   1.553
 5465SOL    HW216442   3.067   5.838   1.401
 5466SOL     OW16443   2.835   6.377   1.224
 5466SOL    HW116444   2.896   6.354   1.300
 5466SOL    HW216445   2.747   6.332   1.238
 5467SOL     OW16446   1.900   6.139   1.117
 5467SOL    HW116447   1.982   6.127   1.062
 5467SOL    HW216448   1.924   6.141   1.214
 5468SOL     OW16449   2.053   6.109   1.731
 5468SOL    HW116450   2.105   6.054   1.665
 5468SOL    HW216451   2.016   6.189   1.684
 5469SOL     OW16452   3.243   6.522   1.654
 5469SOL    HW116453   3.273   6.617   1.654
 5469SOL    HW216454   3.239   6.487   1.561
 5470SOL     OW16455   2.681   6.155   0.372
 5470SOL    HW116456   2.688   6.076   0.311
 5470SOL    HW216457   2.604   6.212   0.344
 5471SOL     OW16458   3.504   6.187   1.180
 5471SOL    HW116459   3.489   6.128   1.259
 5471SOL    HW216460   3.596   6.171   1.144
 5472SOL     OW16461   2.572   6.032   1.252
 5472SOL    HW116462   2.513   5.954   1.229
 5472SOL    HW216463   2.568   6.100   1.179
 5473SOL     OW16464   2.316   6.084   0.188
 5473SOL    HW116465   2.380   6.156   0.215
 5473SOL    HW216466   2.223   6.122   0.184
 5474SOL     OW16467   2.030   6.728   1.477
 5474SOL    HW116468   2.019   6.680   1.564
 5474SOL    HW216469   2.040   6.662   1.403
 5475SOL     OW16470   3.191   6.622   1.223
 5475SOL    HW116471   3.221   6.555   1.156
 5475SOL    HW216472   3.118   6.679   1.185
 5476SOL     OW16473   3.163   6.433   0.304
 5476SOL    HW116474   3.084   6.404   0.357
 5476SOL    HW216475   3.147   6.414   0.207
 5477SOL     OW16476   1.945   6.859   1.013
 5477SOL    HW116477   1.931   6.868   1.112
 5477SOL    HW216478   1.875   6.798   0.976
 5478SOL     OW16479   2.802   5.663   0.111
 5478SOL    HW116480   2.873   5.718   0.067
 5478SOL    HW216481   2.845   5.602   0.178
 5479SOL     OW16482   3.591   5.748   0.528
 5479SOL    HW116483   3.661   5.738   0.457
 5479SOL    HW216484   3.562   5.657   0.559
 5480SOL     OW16485   3.144   6.507   0.671
 5480SOL    HW116486   3.218   6.442   0.686
 5480SOL    HW216487   3.178   6.586   0.620
 5481SOL     OW16488   2.677   6.844   1.419
 5481SOL    HW116489   2.650   6.885   1.505
 5481SOL    HW216490   2.607   6.861   1.350
 5482SOL     OW16491   3.704   5.755   0.963
 5482SOL    HW116492   3.739   5.663   0.941
 5482SOL    HW216493   3.613   5.766   0.923
 5483SOL     OW16494   2.117   5.903   0.717
 5483SOL    HW116495   2.028   5.941   0.690
 5483SOL    HW216496   2.121   5.894   0.816
 5484SOL     OW16497   2.688   6.581   1.371
 5484SOL    HW116498   2.746   6.558   1.293
 5484SOL    HW216499   2.692   6.680   1.387
 5485SOL     OW16500   2.787   6.500   0.290
 5485SOL    HW116501   2.847   6.537   0.219
 5485SOL    HW216502   2.836   6.429   0.341
 5486SOL     OW16503   2.256   6.891   1.492
 5486SOL    HW116504   2.220   6.984   1.483
 5486SOL    HW216505   2.180   6.827   1.499
 5487SOL     OW16506   3.466   6.844   1.314
 5487SOL    HW116507   3.541   6.831   1.379
 5487SOL    HW216508   3.398   6.905   1.354
 5488SOL     OW16509   2.924   6.698   0.732
 5488SOL    HW116510   2.845   6.647   0.764
 5488SOL    HW216511   2.990   6.635   0.691
 5489SOL     OW16512   2.885   5.825   0.966
 5489SOL    HW116513   2.881   5.781   0.876
 5489SOL    HW216514   2.882   5.754   1.037
 5490SOL     OW16515   3.594   5.980   1.381
 5490SOL    HW116516   3.667   6.048   1.381
 5490SOL    HW216517   3.620   5.905   1.319
 5491SOL     OW16518   1.971   6.610   1.717
 5491SOL    HW116519   1.891   6.588   1.774
 5491SOL    HW216520   2.054   6.575   1.760
 5492SOL     OW16521   2.546   5.779   1.500
 5492SOL    HW116522   2.632   5.755   1.456
 5492SOL    HW216523   2.564   5.814   1.592
 5493SOL     OW16524   1.970   5.902   0.012
 5493SOL    HW116525   1.907   5.850   6.955
 5493SOL    HW216526   1.994   5.988   6.966
 5494SOL     OW16527   3.288   6.437   1.398
 5494SOL    HW116528   3.234   6.501   1.344
 5494SOL    HW216529   3.383   6.437   1.366
 5495SOL     OW16530   1.912   5.759   0.334
 5495SOL    HW116531   1.891   5.842   0.282
 5495SOL    HW216532   2.001   5.724   0.305
 5496SOL     OW16533   2.485   6.413   1.435
 5496SOL    HW116534   2.544   6.491   1.415
 5496SOL    HW216535   2.541   6.331   1.444
 5497SOL     OW16536   2.585   6.143   1.703
 5497SOL    HW116537   2.630   6.209   1.762
 5497SOL    HW216538   2.603   6.050   1.736
 5498SOL     OW16539   3.348   6.777   1.646
 5498SOL    HW116540   3.335   6.797   1.743
 5498SOL    HW216541   3.444   6.792   1.622
 5499SOL     OW16542   3.528   6.460   1.253
 5499SOL    HW116543   3.522   6.370   1.212
 5499SOL    HW216544   3.515   6.530   1.183
 5500SOL     OW16545   3.084   5.903   0.456
 5500SOL    HW116546   3.165   5.852   0.428
 5500SOL    HW216547   3.105   5.955   0.539
 5501SOL     OW16548   2.448   6.320   0.667
 5501SOL    HW116549   2.489   6.411   0.660
 5501SOL    HW216550   2.379   6.310   0.596
 5502SOL     OW16551   3.612   5.950   1.653
 5502SOL    HW116552   3.603   5.967   1.554
 5502SOL    HW216553   3.537   5.891   1.683
 5503SOL     OW16554   3.606   6.519   1.506
 5503SOL    HW116555   3.599   6.618   1.523
 5503SOL    HW216556   3.590   6.501   1.410
 5504SOL     OW16557   2.730   6.550   0.858
 5504SOL    HW116558   2.783   6.473   0.893
 5504SOL    HW216559   2.697   6.606   0.934
 5505SOL     OW16560   2.950   6.584   0.085
 5505SOL    HW116561   2.896   6.589   0.001
 5505SOL    HW216562   3.029   6.524   0.070
 5506SOL     OW16563   2.075   6.910   1.811
 5506SOL    HW116564   2.017   6.829   1.822
 5506SOL    HW216565   2.088   6.954   1.900
 5507SOL     OW16566   1.957   6.821   0.674
 5507SOL    HW116567   1.975   6.761   0.752
 5507SOL    HW216568   2.014   6.794   0.597
 5508SOL     OW16569   2.565   6.971   1.632
 5508SOL    HW116570   2.468   6.967   1.656
 5508SOL    HW216571   2.589   0.065   1.607
 5509SOL     OW16572   3.666   5.768   1.233
 5509SOL    HW116573   3.681   5.672   1.258
 5509SOL    HW216574   3.679   5.780   1.135
 5510SOL     OW16575   2.292   6.014   0.527
 5510SOL    HW116576   2.323   5.942   0.465
 5510SOL    HW216577   2.238   5.974   0.601
 5511SOL     OW16578   3.505   0.044   1.140
 5511SOL    HW116579   3.459   0.027   1.053
 5511SOL    HW216580   3.500   6.961   1.196
 5512SOL     OW16581   2.198   6.142   1.289
 5512SOL    HW116582   2.254   6.084   1.348
 5512SOL    HW216583   2.213   6.116   1.193
 5513SOL     OW16584   3.292   5.818   1.117
 5513SOL    HW116585   3.314   5.728   1.154
 5513SOL    HW216586   3.238   5.869   1.184
 5514SOL     OW16587   2.872   5.602   1.136
 5514SOL    HW116588   2.808   5.538   1.093
 5514SOL    HW216589   2.963   5.561   1.137
 5515SOL     OW16590   2.670   6.878   0.290
 5515SOL    HW116591   2.629   6.790   0.314
 5515SOL    HW216592   2.681   6.933   0.373
 5516SOL     OW16593   3.215   5.640   0.186
 5516SOL    HW116594   3.256   5.580   0.117
 5516SOL    HW216595   3.128   5.600   0.217
 5517SOL     OW16596   3.146   6.046   0.678
 5517SOL    HW116597   3.097   6.133   0.681
 5517SOL    HW216598   3.148   6.006   0.770
 5518SOL     OW16599   3.447   5.788   0.884
 5518SOL    HW116600   3.390   5.809   0.964
 5518SOL    HW216601   3.451   5.868   0.824
 5519SOL     OW16602   1.940   6.643   0.316
 5519SOL    HW116603   2.039   6.626   0.318
 5519SOL    HW216604   1.891   6.560   0.342
 5520SOL     OW16605   2.082   6.206   1.990
 5520SOL    HW116606   1.991   6.204   2.031
 5520SOL    HW216607   2.075   6.183   1.893
 5521SOL     OW16608   2.085   5.869   2.857
 5521SOL    HW116609   2.117   5.835   2.945
 5521SOL    HW216610   1.991   5.836   2.840
 5522SOL     OW16611   1.862   5.972   2.496
 5522SOL    HW116612   1.778   6.003   2.542
 5522SOL    HW216613   1.843   5.889   2.444
 5523SOL     OW16614   2.431   6.874   3.038
 5523SOL    HW116615   2.357   6.883   2.971
 5523SOL    HW216616   2.400   6.908   3.127
 5524SOL     OW16617   3.404   0.054   2.551
 5524SOL    HW116618   3.384   0.050   2.649
 5524SOL    HW216619   3.325   0.089   2.502
 5525SOL     OW16620   2.994   6.287   2.556
 5525SOL    HW116621   3.046   6.371   2.540
 5525SOL    HW216622   2.943   6.295   2.642
 5526SOL     OW16623   3.635   6.181   2.083
 5526SOL    HW116624   3.609   6.178   1.987
 5526SOL    HW216625   3.594   6.103   2.131
 5527SOL     OW16626   2.625   6.749   2.886
 5527SOL    HW116627   2.558   6.786   2.950
 5527SOL    HW216628   2.622   6.801   2.801
 5528SOL     OW16629   2.739   6.349   3.685
 5528SOL    HW116630   2.723   6.415   3.758
 5528SOL    HW216631   2.763   6.397   3.601
 5529SOL     OW16632   2.549   6.582   2.509
 5529SOL    HW116633   2.619   6.572   2.580
 5529SOL    HW216634   2.473   6.636   2.545
 5530SOL     OW16635   2.553   6.733   3.676
 5530SOL    HW116636   2.589   6.825   3.696
 5530SOL    HW216637   2.476   6.741   3.613
 5531SOL     OW16638   2.198   0.005   2.920
 5531SOL    HW116639   2.119   6.960   2.880
 5531SOL    HW216640   2.245   0.059   2.850
 5532SOL     OW16641   2.313   5.979   3.339
 5532SOL    HW116642   2.394   5.921   3.347
 5532SOL    HW216643   2.231   5.924   3.359
 5533SOL     OW16644   3.472   6.031   2.607
 5533SOL    HW116645   3.397   6.050   2.543
 5533SOL    HW216646   3.479   6.106   2.673
 5534SOL     OW16647   2.122   6.676   2.765
 5534SOL    HW116648   2.120   6.581   2.797
 5534SOL    HW216649   2.062   6.731   2.822
 5535SOL     OW16650   2.440   6.566   2.005
 5535SOL    HW116651   2.485   6.616   1.931
 5535SOL    HW216652   2.481   6.591   2.093
 5536SOL     OW16653   3.459   5.711   3.331
 5536SOL    HW116654   3.481   5.790   3.274
 5536SOL    HW216655   3.443   5.740   3.425
 5537SOL     OW16656   1.977   6.245   2.427
 5537SOL    HW116657   1.947   6.152   2.445
 5537SOL    HW216658   1.970   6.299   2.512
 5538SOL     OW16659   3.551   6.502   2.507
 5538SOL    HW116660   3.640   6.458   2.494
 5538SOL    HW216661   3.529   6.558   2.427
 5539SOL     OW16662   3.515   6.691   2.289
 5539SOL    HW116663   3.604   6.684   2.243
 5539SOL    HW216664   3.523   6.750   2.369
 5540SOL     OW16665   1.989   6.331   3.447
 5540SOL    HW116666   2.086   6.354   3.447
 5540SOL    HW216667   1.935   6.415   3.455
 5541SOL     OW16668   3.177   6.816   3.293
 5541SOL    HW116669   3.200   6.746   3.226
 5541SOL    HW216670   3.236   6.807   3.373
 5542SOL     OW16671   2.680   5.596   2.370
 5542SOL    HW116672   2.726   5.682   2.347
 5542SOL    HW216673   2.582   5.612   2.378
 5543SOL     OW16674   2.053   6.550   3.138
 5543SOL    HW116675   2.141   6.503   3.124
 5543SOL    HW216676   1.982   6.502   3.087
 5544SOL     OW16677   3.398   6.588   2.064
 5544SOL    HW116678   3.324   6.527   2.093
 5544SOL    HW216679   3.446   6.623   2.145
 5545SOL     OW16680   2.205   5.835   3.697
 5545SOL    HW116681   2.253   5.920   3.714
 5545SOL    HW216682   2.107   5.848   3.715
 5546SOL     OW16683   3.321   6.987   2.809
 5546SOL    HW116684   3.250   0.014   2.876
 5546SOL    HW216685   3.304   6.894   2.778
 5547SOL     OW16686   2.456   6.302   2.137
 5547SOL    HW116687   2.460   6.388   2.086
 5547SOL    HW216688   2.388   6.310   2.209
 5548SOL     OW16689   3.139   5.947   2.796
 5548SOL    HW116690   3.046   5.912   2.802
 5548SOL    HW216691   3.199   5.894   2.857
 5549SOL     OW16692   2.652   6.197   3.311
 5549SOL    HW116693   2.627   6.173   3.405
 5549SOL    HW216694   2.615   6.128   3.248
 5550SOL     OW16695   3.253   6.056   3.542
 5550SOL    HW116696   3.254   6.105   3.629
 5550SOL    HW216697   3.313   5.976   3.548
 5551SOL     OW16698   2.817   6.473   3.447
 5551SOL    HW116699   2.876   6.400   3.411
 5551SOL    HW216700   2.762   6.511   3.373
 5552SOL     OW16701   2.856   5.991   3.090
 5552SOL    HW116702   2.765   6.011   3.126
 5552SOL    HW216703   2.847   5.943   3.003
 5553SOL     OW16704   2.912   6.285   2.286
 5553SOL    HW116705   2.934   6.281   2.384
 5553SOL    HW216706   2.826   6.238   2.269
 5554SOL     OW16707   1.948   6.414   2.642
 5554SOL    HW116708   2.034   6.402   2.692
 5554SOL    HW216709   1.897   6.491   2.680
 5555SOL     OW16710   2.758   5.938   2.059
 5555SOL    HW116711   2.799   6.006   1.997
 5555SOL    HW216712   2.766   5.847   2.018
 5556SOL     OW16713   3.561   6.158   3.688
 5556SOL    HW116714   3.527   6.237   3.637
 5556SOL    HW216715   3.592   6.088   3.623
 5557SOL     OW16716   3.250   6.722   2.409
 5557SOL    HW116717   3.331   6.715   2.350
 5557SOL    HW216718   3.199   6.805   2.386
 5558SOL     OW16719   2.409   5.758   2.763
 5558SOL    HW116720   2.413   5.788   2.859
 5558SOL    HW216721   2.412   5.838   2.703
 5559SOL     OW16722   3.660   6.638   2.740
 5559SOL    HW116723   3.609   6.629   2.655
 5559SOL    HW216724   3.597   6.645   2.817
 5560SOL     OW16725   2.183   6.546   2.121
 5560SOL    HW116726   2.271   6.563   2.077
 5560SOL    HW216727   2.144   6.461   2.087
 5561SOL     OW16728   3.347   6.333   2.584
 5561SOL    HW116729   3.343   6.291   2.675
 5561SOL    HW216730   3.426   6.394   2.579
 5562SOL     OW16731   2.064   5.860   3.365
 5562SOL    HW116732   1.982   5.917   3.362
 5562SOL    HW216733   2.042   5.772   3.408
 5563SOL     OW16734   3.502   6.970   1.948
 5563SOL    HW116735   3.469   0.062   1.966
 5563SOL    HW216736   3.424   6.909   1.933
 5564SOL     OW16737   3.263   5.690   2.300
 5564SOL    HW116738   3.251   5.664   2.204
 5564SOL    HW216739   3.361   5.699   2.320
 5565SOL     OW16740   2.258   6.273   2.336
 5565SOL    HW116741   2.277   6.176   2.350
 5565SOL    HW216742   2.161   6.291   2.354
 5566SOL     OW16743   3.389   5.809   3.589
 5566SOL    HW116744   3.400   5.830   3.687
 5566SOL    HW216745   3.316   5.740   3.578
 5567SOL     OW16746   2.504   5.702   1.963
 5567SOL    HW116747   2.571   5.632   1.987
 5567SOL    HW216748   2.447   5.671   1.887
 5568SOL     OW16749   2.625   5.862   3.619
 5568SOL    HW116750   2.710   5.810   3.613
 5568SOL    HW216751   2.574   5.832   3.700
 5569SOL     OW16752   3.201   6.174   3.298
 5569SOL    HW116753   3.231   6.138   3.387
 5569SOL    HW216754   3.237   6.266   3.284
 5570SOL     OW16755   2.789   6.092   2.759
 5570SOL    HW116756   2.763   6.085   2.663
 5570SOL    HW216757   2.821   6.003   2.792
 5571SOL     OW16758   2.409   5.650   2.355
 5571SOL    HW116759   2.328   5.648   2.413
 5571SOL    HW216760   2.406   5.730   2.296
 5572SOL     OW16761   3.280   6.788   1.922
 5572SOL    HW116762   3.334   6.718   1.969
 5572SOL    HW216763   3.187   6.755   1.906
 5573SOL     OW16764   2.152   5.634   2.048
 5573SOL    HW116765   2.204   5.706   2.002
 5573SOL    HW216766   2.215   5.570   2.091
 5574SOL     OW16767   2.809   5.837   2.318
 5574SOL    HW116768   2.778   5.878   2.232
 5574SOL    HW216769   2.908   5.851   2.327
 5575SOL     OW16770   2.941   6.270   3.318
 5575SOL    HW116771   2.866   6.204   3.323
 5575SOL    HW216772   3.028   6.220   3.313
 5576SOL     OW16773   3.132   0.148   2.600
 5576SOL    HW116774   3.099   0.232   2.556
 5576SOL    HW216775   3.143   0.164   2.698
 5577SOL     OW16776   2.328   6.712   2.596
 5577SOL    HW116777   2.258   6.704   2.667
 5577SOL    HW216778   2.285   6.711   2.506
 5578SOL     OW16779   2.884   6.121   1.892
 5578SOL    HW116780   2.839   6.207   1.869
 5578SOL    HW216781   2.952   6.137   1.963
 5579SOL     OW16782   1.949   6.144   3.253
 5579SOL    HW116783   2.044   6.139   3.221
 5579SOL    HW216784   1.941   6.215   3.322
 5580SOL     OW16785   2.420   5.810   3.035
 5580SOL    HW116786   2.470   5.734   3.078
 5580SOL    HW216787   2.325   5.808   3.064
 5581SOL     OW16788   2.727   6.044   2.498
 5581SOL    HW116789   2.680   6.106   2.436
 5581SOL    HW216790   2.756   5.962   2.448
 5582SOL     OW16791   2.879   5.639   2.607
 5582SOL    HW116792   2.819   5.639   2.527
 5582SOL    HW216793   2.854   5.563   2.667
 5583SOL     OW16794   3.303   6.732   2.720
 5583SOL    HW116795   3.226   6.668   2.722
 5583SOL    HW216796   3.334   6.744   2.626
 5584SOL     OW16797   3.330   6.192   2.831
 5584SOL    HW116798   3.268   6.115   2.830
 5584SOL    HW216799   3.391   6.186   2.910
 5585SOL     OW16800   3.704   6.389   2.242
 5585SOL    HW116801   3.762   6.343   2.309
 5585SOL    HW216802   3.676   6.325   2.171
 5586SOL     OW16803   3.543   6.830   2.511
 5586SOL    HW116804   3.641   6.841   2.528
 5586SOL    HW216805   3.496   6.916   2.531
 5587SOL     OW16806   3.252   6.161   1.933
 5587SOL    HW116807   3.189   6.138   2.007
 5587SOL    HW216808   3.345   6.135   1.959
 5588SOL     OW16809   2.390   5.850   2.170
 5588SOL    HW116810   2.438   5.798   2.100
 5588SOL    HW216811   2.360   5.938   2.133
 5589SOL     OW16812   3.616   6.812   3.428
 5589SOL    HW116813   3.700   6.762   3.451
 5589SOL    HW216814   3.633   6.911   3.439
 5590SOL     OW16815   2.937   6.894   3.188
 5590SOL    HW116816   2.858   6.878   3.246
 5590SOL    HW216817   3.021   6.877   3.240
 5591SOL     OW16818   3.000   6.762   2.961
 5591SOL    HW116819   2.967   6.811   3.042
 5591SOL    HW216820   2.941   6.783   2.883
 5592SOL     OW16821   3.483   6.680   2.945
 5592SOL    HW116822   3.472   6.736   3.027
 5592SOL    HW216823   3.408   6.697   2.882
 5593SOL     OW16824   2.786   5.679   3.253
 5593SOL    HW116825   2.807   5.657   3.158
 5593SOL    HW216826   2.865   5.723   3.295
 5594SOL     OW16827   2.828   6.696   3.602
 5594SOL    HW116828   2.730   6.709   3.619
 5594SOL    HW216829   2.840   6.621   3.535
 5595SOL     OW16830   2.571   6.638   2.231
 5595SOL    HW116831   2.558   6.628   2.329
 5595SOL    HW216832   2.653   6.587   2.203
 5596SOL     OW16833   2.284   6.401   3.117
 5596SOL    HW116834   2.356   6.414   3.184
 5596SOL    HW216835   2.245   6.309   3.127
 5597SOL     OW16836   3.124   5.961   3.143
 5597SOL    HW116837   3.160   6.041   3.192
 5597SOL    HW216838   3.029   5.979   3.118
 5598SOL     OW16839   2.201   6.706   2.353
 5598SOL    HW116840   2.246   6.784   2.310
 5598SOL    HW216841   2.194   6.631   2.287
 5599SOL     OW16842   2.409   6.129   2.724
 5599SOL    HW116843   2.423   6.189   2.645
 5599SOL    HW216844   2.479   6.149   2.793
 5600SOL     OW16845   3.439   6.207   2.345
 5600SOL    HW116846   3.389   6.252   2.419
 5600SOL    HW216847   3.490   6.275   2.292
 5601SOL     OW16848   2.278   6.330   3.463
 5601SOL    HW116849   2.345   6.375   3.403
 5601SOL    HW216850   2.310   6.238   3.486
 5602SOL     OW16851   3.471   6.371   3.547
 5602SOL    HW116852   3.379   6.411   3.544
 5602SOL    HW216853   3.527   6.412   3.475
 5603SOL     OW16854   2.859   5.721   3.612
 5603SOL    HW116855   2.917   5.801   3.597
 5603SOL    HW216856   2.909   5.638   3.585
 5604SOL     OW16857   2.354   5.621   3.613
 5604SOL    HW116858   2.309   5.564   3.545
 5604SOL    HW216859   2.297   5.701   3.632
 5605SOL     OW16860   2.445   6.452   2.898
 5605SOL    HW116861   2.471   6.548   2.887
 5605SOL    HW216862   2.384   6.443   2.976
 5606SOL     OW16863   3.217   6.439   2.887
 5606SOL    HW116864   3.125   6.436   2.848
 5606SOL    HW216865   3.263   6.351   2.874
 5607SOL     OW16866   3.058   6.113   2.126
 5607SOL    HW116867   3.072   6.030   2.180
 5607SOL    HW216868   3.014   6.183   2.182
 5608SOL     OW16869   2.159   5.782   3.109
 5608SOL    HW116870   2.122   5.818   3.195
 5608SOL    HW216871   2.143   5.683   3.105
 5609SOL     OW16872   1.923   6.898   3.144
 5609SOL    HW116873   1.957   6.842   3.219
 5609SOL    HW216874   1.918   6.993   3.172
 5610SOL     OW16875   2.587   6.215   2.917
 5610SOL    HW116876   2.663   6.196   2.855
 5610SOL    HW216877   2.551   6.306   2.899
 5611SOL     OW16878   3.597   6.547   3.716
 5611SOL    HW116879   3.554   6.477   3.660
 5611SOL    HW216880   3.541   6.564   3.798
 5612SOL     OW16881   2.169   5.647   2.490
 5612SOL    HW116882   2.144   5.742   2.508
 5612SOL    HW216883   2.181   5.598   2.577
 5613SOL     OW16884   3.489   5.968   2.223
 5613SOL    HW116885   3.516   5.894   2.285
 5613SOL    HW216886   3.461   6.048   2.275
 5614SOL     OW16887   2.886   6.339   2.820
 5614SOL    HW116888   2.881   6.361   2.917
 5614SOL    HW216889   2.859   6.244   2.805
 5615SOL     OW16890   3.718   0.064   3.463
 5615SOL    HW116891   3.756   0.140   3.411
 5615SOL    HW216892   3.772   0.049   3.545
 5616SOL     OW16893   2.216   6.508   3.663
 5616SOL    HW116894   2.291   6.518   3.729
 5616SOL    HW216895   2.241   6.440   3.594
 5617SOL     OW16896   3.388   5.855   1.992
 5617SOL    HW116897   3.320   5.786   2.017
 5617SOL    HW216898   3.426   5.897   2.074
 5618SOL     OW16899   3.149   6.410   1.884
 5618SOL    HW116900   3.190   6.319   1.895
 5618SOL    HW216901   3.181   6.450   1.799
 5619SOL     OW16902   2.171   6.392   2.804
 5619SOL    HW116903   2.268   6.416   2.794
 5619SOL    HW216904   2.164   6.298   2.837
 5620SOL     OW16905   2.188   6.114   2.873
 5620SOL    HW116906   2.150   6.022   2.863
 5620SOL    HW216907   2.269   6.123   2.816
 5621SOL     OW16908   2.996   5.958   3.555
 5621SOL    HW116909   2.943   6.015   3.618
 5621SOL    HW216910   3.088   5.996   3.546
 5622SOL     OW16911   3.024   5.788   3.338
 5622SOL    HW116912   3.009   5.851   3.415
 5622SOL    HW216913   3.066   5.838   3.263
 5623SOL     OW16914   1.885   6.894   2.044
 5623SOL    HW116915   1.797   6.923   2.007
 5623SOL    HW216916   1.875   6.805   2.089
 5624SOL     OW16917   2.835   6.377   3.086
 5624SOL    HW116918   2.895   6.354   3.162
 5624SOL    HW216919   2.747   6.331   3.098
 5625SOL     OW16920   1.899   6.139   2.979
 5625SOL    HW116921   1.982   6.127   2.924
 5625SOL    HW216922   1.925   6.141   3.076
 5626SOL     OW16923   2.054   6.109   3.593
 5626SOL    HW116924   2.105   6.054   3.527
 5626SOL    HW216925   2.016   6.189   3.546
 5627SOL     OW16926   3.243   6.522   3.516
 5627SOL    HW116927   3.273   6.617   3.516
 5627SOL    HW216928   3.239   6.487   3.423
 5628SOL     OW16929   2.680   6.158   2.223
 5628SOL    HW116930   2.689   6.078   2.163
 5628SOL    HW216931   2.601   6.212   2.194
 5629SOL     OW16932   3.504   6.187   3.042
 5629SOL    HW116933   3.488   6.128   3.121
 5629SOL    HW216934   3.596   6.171   3.006
 5630SOL     OW16935   2.572   6.032   3.114
 5630SOL    HW116936   2.513   5.954   3.090
 5630SOL    HW216937   2.568   6.100   3.041
 5631SOL     OW16938   2.319   6.080   2.045
 5631SOL    HW116939   2.384   6.152   2.072
 5631SOL    HW216940   2.229   6.121   2.033
 5632SOL     OW16941   2.030   6.728   3.339
 5632SOL    HW116942   2.019   6.680   3.426
 5632SOL    HW216943   2.040   6.662   3.265
 5633SOL     OW16944   3.191   6.622   3.085
 5633SOL    HW116945   3.220   6.555   3.018
 5633SOL    HW216946   3.119   6.679   3.046
 5634SOL     OW16947   3.180   6.447   2.157
 5634SOL    HW116948   3.108   6.417   2.220
 5634SOL    HW216949   3.151   6.431   2.063
 5635SOL     OW16950   1.945   6.859   2.876
 5635SOL    HW116951   1.931   6.868   2.974
 5635SOL    HW216952   1.875   6.798   2.838
 5636SOL     OW16953   3.582   5.737   2.360
 5636SOL    HW116954   3.657   5.727   2.295
 5636SOL    HW216955   3.564   5.650   2.405
 5637SOL     OW16956   3.145   6.509   2.532
 5637SOL    HW116957   3.219   6.444   2.548
 5637SOL    HW216958   3.180   6.586   2.479
 5638SOL     OW16959   2.677   6.844   3.280
 5638SOL    HW116960   2.650   6.885   3.367
 5638SOL    HW216961   2.607   6.861   3.212
 5639SOL     OW16962   3.704   5.755   2.826
 5639SOL    HW116963   3.738   5.663   2.803
 5639SOL    HW216964   3.613   5.767   2.786
 5640SOL     OW16965   2.116   5.899   2.577
 5640SOL    HW116966   2.028   5.936   2.549
 5640SOL    HW216967   2.120   5.892   2.677
 5641SOL     OW16968   3.114   0.209   1.871
 5641SOL    HW116969   3.117   0.142   1.945
 5641SOL    HW216970   3.022   0.213   1.833
 5642SOL     OW16971   2.688   6.581   3.233
 5642SOL    HW116972   2.746   6.557   3.155
 5642SOL    HW216973   2.692   6.680   3.249
 5643SOL     OW16974   2.783   6.495   2.141
 5643SOL    HW116975   2.850   6.537   2.079
 5643SOL    HW216976   2.829   6.425   2.197
 5644SOL     OW16977   2.256   6.891   3.356
 5644SOL    HW116978   2.220   6.984   3.344
 5644SOL    HW216979   2.180   6.827   3.362
 5645SOL     OW16980   3.466   6.844   3.176
 5645SOL    HW116981   3.541   6.831   3.241
 5645SOL    HW216982   3.398   6.905   3.216
 5646SOL     OW16983   2.927   6.696   2.591
 5646SOL    HW116984   2.846   6.647   2.624
 5646SOL    HW216985   2.993   6.631   2.555
 5647SOL     OW16986   2.885   5.825   2.829
 5647SOL    HW116987   2.881   5.782   2.739
 5647SOL    HW216988   2.882   5.755   2.900
 5648SOL     OW16989   3.595   5.980   3.243
 5648SOL    HW116990   3.667   6.048   3.243
 5648SOL    HW216991   3.620   5.905   3.181
 5649SOL     OW16992   1.971   6.611   3.579
 5649SOL    HW116993   1.892   6.588   3.636
 5649SOL    HW216994   2.054   6.576   3.622
 5650SOL     OW16995   2.546   5.779   3.362
 5650SOL    HW116996   2.632   5.755   3.318
 5650SOL    HW216997   2.564   5.814   3.454
 5651SOL     OW16998   1.944   5.913   1.890
 5651SOL    HW116999   1.852   5.889   1.859
 5651SOL    HW217000   1.975   5.995   1.842
 5652SOL     OW17001   3.288   6.437   3.260
 5652SOL    HW117002   3.234   6.501   3.206
 5652SOL    HW217003   3.383   6.437   3.228
 5653SOL     OW17004   1.924   5.741   2.163
 5653SOL    HW117005   1.908   5.825   2.112
 5653SOL    HW217006   2.013   5.702   2.136
 5654SOL     OW17007   2.485   6.413   3.297
 5654SOL    HW117008   2.544   6.491   3.277
 5654SOL    HW217009   2.541   6.331   3.306
 5655SOL     OW17010   2.585   6.143   3.565
 5655SOL    HW117011   2.630   6.209   3.624
 5655SOL    HW217012   2.603   6.050   3.598
 5656SOL     OW17013   3.348   6.777   3.508
 5656SOL    HW117014   3.335   6.797   3.605
 5656SOL    HW217015   3.444   6.792   3.484
 5657SOL     OW17016   3.528   6.460   3.116
 5657SOL    HW117017   3.522   6.369   3.074
 5657SOL    HW217018   3.515   6.530   3.045
 5658SOL     OW17019   3.082   5.903   2.321
 5658SOL    HW117020   3.145   5.826   2.312
 5658SOL    HW217021   3.108   5.958   2.400
 5659SOL     OW17022   2.447   6.323   2.531
 5659SOL    HW117023   2.489   6.413   2.521
 5659SOL    HW217024   2.378   6.309   2.460
 5660SOL     OW17025   3.612   5.950   3.515
 5660SOL    HW117026   3.603   5.967   3.417
 5660SOL    HW217027   3.537   5.891   3.545
 5661SOL     OW17028   3.607   6.519   3.368
 5661SOL    HW117029   3.599   6.618   3.385
 5661SOL    HW217030   3.591   6.501   3.272
 5662SOL     OW17031   2.730   6.552   2.720
 5662SOL    HW117032   2.783   6.474   2.754
 5662SOL    HW217033   2.698   6.607   2.797
 5663SOL     OW17034   2.955   6.588   1.953
 5663SOL    HW117035   2.914   6.634   1.875
 5663SOL    HW217036   3.021   6.520   1.920
 5664SOL     OW17037   2.073   6.911   3.672
 5664SOL    HW117038   2.017   6.829   3.683
 5664SOL    HW217039   2.086   6.954   3.761
 5665SOL     OW17040   1.956   6.819   2.536
 5665SOL    HW117041   1.977   6.759   2.613
 5665SOL    HW217042   2.018   6.798   2.460
 5666SOL     OW17043   2.565   6.971   3.493
 5666SOL    HW117044   2.468   6.967   3.517
 5666SOL    HW217045   2.589   0.065   3.468
 5667SOL     OW17046   3.666   5.768   3.096
 5667SOL    HW117047   3.681   5.672   3.120
 5667SOL    HW217048   3.679   5.780   2.997
 5668SOL     OW17049   2.292   6.013   2.388
 5668SOL    HW117050   2.326   5.943   2.326
 5668SOL    HW217051   2.237   5.970   2.460
 5669SOL     OW17052   3.505   0.044   3.002
 5669SOL    HW117053   3.459   0.027   2.915
 5669SOL    HW217054   3.501   6.961   3.059
 5670SOL     OW17055   2.198   6.142   3.151
 5670SOL    HW117056   2.254   6.085   3.210
 5670SOL    HW217057   2.212   6.116   3.055
 5671SOL     OW17058   3.292   5.817   2.979
 5671SOL    HW117059   3.314   5.727   3.016
 5671SOL    HW217060   3.238   5.868   3.046
 5672SOL     OW17061   2.872   5.602   2.999
 5672SOL    HW117062   2.808   5.539   2.954
 5672SOL    HW217063   2.963   5.561   3.000
 5673SOL     OW17064   2.617   6.908   2.130
 5673SOL    HW117065   2.598   6.812   2.150
 5673SOL    HW217066   2.655   6.952   2.212
 5674SOL     OW17067   3.217   5.635   2.033
 5674SOL    HW117068   3.261   5.567   1.974
 5674SOL    HW217069   3.124   5.607   2.054
 5675SOL     OW17070   3.152   6.050   2.542
 5675SOL    HW117071   3.099   6.135   2.543
 5675SOL    HW217072   3.151   6.008   2.633
 5676SOL     OW17073   3.448   5.788   2.747
 5676SOL    HW117074   3.390   5.809   2.826
 5676SOL    HW217075   3.450   5.868   2.686
 5677SOL     OW17076   1.898   6.645   2.173
 5677SOL    HW117077   1.996   6.651   2.152
 5677SOL    HW217078   1.875   6.550   2.195
 5678SOL     OW17079   2.082   6.206   3.852
 5678SOL    HW117080   1.991   6.204   3.893
 5678SOL    HW217081   2.075   6.183   3.755
 5679SOL     OW17082   2.084   5.869   4.719
 5679SOL    HW117083   2.117   5.835   4.807
 5679SOL    HW217084   1.991   5.836   4.702
 5680SOL     OW17085   1.862   5.972   4.358
 5680SOL    HW117086   1.778   6.003   4.404
 5680SOL    HW217087   1.843   5.889   4.306
 5681SOL     OW17088   2.431   6.874   4.900
 5681SOL    HW117089   2.357   6.882   4.833
 5681SOL    HW217090   2.400   6.908   4.989
 5682SOL     OW17091   3.404   0.054   4.413
 5682SOL    HW117092   3.384   0.050   4.511
 5682SOL    HW217093   3.324   0.089   4.364
 5683SOL     OW17094   2.994   6.287   4.418
 5683SOL    HW117095   3.046   6.371   4.402
 5683SOL    HW217096   2.943   6.295   4.504
 5684SOL     OW17097   3.635   6.181   3.945
 5684SOL    HW117098   3.609   6.178   3.849
 5684SOL    HW217099   3.594   6.103   3.993
 5685SOL     OW17100   2.625   6.749   4.748
 5685SOL    HW117101   2.558   6.786   4.812
 5685SOL    HW217102   2.622   6.801   4.663
 5686SOL     OW17103   2.739   6.349   5.547
 5686SOL    HW117104   2.723   6.415   5.620
 5686SOL    HW217105   2.763   6.397   5.462
 5687SOL     OW17106   2.549   6.582   4.371
 5687SOL    HW117107   2.619   6.572   4.442
 5687SOL    HW217108   2.473   6.636   4.407
 5688SOL     OW17109   2.553   6.733   5.539
 5688SOL    HW117110   2.589   6.825   5.558
 5688SOL    HW217111   2.476   6.741   5.475
 5689SOL     OW17112   2.198   0.005   4.782
 5689SOL    HW117113   2.119   6.960   4.742
 5689SOL    HW217114   2.245   0.059   4.712
 5690SOL     OW17115   2.313   5.979   5.202
 5690SOL    HW117116   2.394   5.921   5.209
 5690SOL    HW217117   2.231   5.924   5.221
 5691SOL     OW17118   3.472   6.031   4.469
 5691SOL    HW117119   3.397   6.050   4.405
 5691SOL    HW217120   3.479   6.106   4.535
 5692SOL     OW17121   2.122   6.676   4.627
 5692SOL    HW117122   2.120   6.581   4.659
 5692SOL    HW217123   2.062   6.731   4.684
 5693SOL     OW17124   2.440   6.566   3.867
 5693SOL    HW117125   2.485   6.616   3.793
 5693SOL    HW217126   2.481   6.592   3.955
 5694SOL     OW17127   3.459   5.711   5.193
 5694SOL    HW117128   3.481   5.791   5.136
 5694SOL    HW217129   3.443   5.740   5.287
 5695SOL     OW17130   1.977   6.245   4.289
 5695SOL    HW117131   1.947   6.152   4.307
 5695SOL    HW217132   1.970   6.299   4.374
 5696SOL     OW17133   3.551   6.502   4.369
 5696SOL    HW117134   3.640   6.458   4.356
 5696SOL    HW217135   3.529   6.558   4.289
 5697SOL     OW17136   3.515   6.691   4.151
 5697SOL    HW117137   3.604   6.684   4.106
 5697SOL    HW217138   3.523   6.750   4.231
 5698SOL     OW17139   1.989   6.331   5.309
 5698SOL    HW117140   2.086   6.354   5.309
 5698SOL    HW217141   1.935   6.415   5.317
 5699SOL     OW17142   3.177   6.816   5.155
 5699SOL    HW117143   3.200   6.746   5.088
 5699SOL    HW217144   3.236   6.807   5.235
 5700SOL     OW17145   2.680   5.596   4.232
 5700SOL    HW117146   2.726   5.682   4.209
 5700SOL    HW217147   2.581   5.612   4.240
 5701SOL     OW17148   2.053   6.550   5.000
 5701SOL    HW117149   2.141   6.504   4.986
 5701SOL    HW217150   1.982   6.502   4.949
 5702SOL     OW17151   3.398   6.589   3.926
 5702SOL    HW117152   3.324   6.527   3.955
 5702SOL    HW217153   3.446   6.623   4.007
 5703SOL     OW17154   2.204   5.835   5.560
 5703SOL    HW117155   2.253   5.920   5.576
 5703SOL    HW217156   2.107   5.848   5.577
 5704SOL     OW17157   3.321   6.988   4.671
 5704SOL    HW117158   3.251   0.014   4.738
 5704SOL    HW217159   3.304   6.894   4.640
 5705SOL     OW17160   2.456   6.302   3.999
 5705SOL    HW117161   2.461   6.388   3.948
 5705SOL    HW217162   2.388   6.310   4.071
 5706SOL     OW17163   3.139   5.947   4.658
 5706SOL    HW117164   3.046   5.912   4.664
 5706SOL    HW217165   3.199   5.894   4.719
 5707SOL     OW17166   2.652   6.197   5.173
 5707SOL    HW117167   2.627   6.173   5.267
 5707SOL    HW217168   2.615   6.128   5.110
 5708SOL     OW17169   3.253   6.056   5.404
 5708SOL    HW117170   3.254   6.105   5.491
 5708SOL    HW217171   3.313   5.976   5.410
 5709SOL     OW17172   2.817   6.473   5.309
 5709SOL    HW117173   2.876   6.400   5.273
 5709SOL    HW217174   2.762   6.511   5.235
 5710SOL     OW17175   2.856   5.991   4.952
 5710SOL    HW117176   2.765   6.011   4.988
 5710SOL    HW217177   2.847   5.943   4.865
 5711SOL     OW17178   2.912   6.285   4.148
 5711SOL    HW117179   2.934   6.281   4.246
 5711SOL    HW217180   2.826   6.238   4.131
 5712SOL     OW17181   1.948   6.414   4.504
 5712SOL    HW117182   2.034   6.402   4.554
 5712SOL    HW217183   1.897   6.491   4.542
 5713SOL     OW17184   2.758   5.938   3.921
 5713SOL    HW117185   2.799   6.006   3.859
 5713SOL    HW217186   2.766   5.847   3.880
 5714SOL     OW17187   3.561   6.158   5.550
 5714SOL    HW117188   3.527   6.237   5.499
 5714SOL    HW217189   3.592   6.088   5.485
 5715SOL     OW17190   3.250   6.722   4.271
 5715SOL    HW117191   3.331   6.714   4.212
 5715SOL    HW217192   3.199   6.805   4.247
 5716SOL     OW17193   2.409   5.758   4.625
 5716SOL    HW117194   2.413   5.788   4.721
 5716SOL    HW217195   2.412   5.838   4.565
 5717SOL     OW17196   3.660   6.638   4.602
 5717SOL    HW117197   3.609   6.629   4.517
 5717SOL    HW217198   3.597   6.645   4.679
 5718SOL     OW17199   2.183   6.546   3.983
 5718SOL    HW117200   2.271   6.563   3.939
 5718SOL    HW217201   2.144   6.461   3.949
 5719SOL     OW17202   3.347   6.333   4.446
 5719SOL    HW117203   3.343   6.291   4.537
 5719SOL    HW217204   3.426   6.394   4.441
 5720SOL     OW17205   2.064   5.859   5.227
 5720SOL    HW117206   1.982   5.917   5.224
 5720SOL    HW217207   2.042   5.772   5.269
 5721SOL     OW17208   3.502   6.970   3.810
 5721SOL    HW117209   3.469   0.062   3.828
 5721SOL    HW217210   3.424   6.909   3.795
 5722SOL     OW17211   3.263   5.690   4.162
 5722SOL    HW117212   3.251   5.664   4.066
 5722SOL    HW217213   3.361   5.699   4.182
 5723SOL     OW17214   2.258   6.273   4.198
 5723SOL    HW117215   2.277   6.176   4.212
 5723SOL    HW217216   2.161   6.291   4.216
 5724SOL     OW17217   3.389   5.809   5.452
 5724SOL    HW117218   3.400   5.830   5.549
 5724SOL    HW217219   3.316   5.740   5.440
 5725SOL     OW17220   2.504   5.702   3.825
 5725SOL    HW117221   2.571   5.632   3.848
 5725SOL    HW217222   2.447   5.671   3.749
 5726SOL     OW17223   2.625   5.862   5.481
 5726SOL    HW117224   2.710   5.810   5.475
 5726SOL    HW217225   2.574   5.832   5.562
 5727SOL     OW17226   3.201   6.174   5.160
 5727SOL    HW117227   3.231   6.138   5.249
 5727SOL    HW217228   3.237   6.266   5.146
 5728SOL     OW17229   2.789   6.092   4.621
 5728SOL    HW117230   2.763   6.085   4.525
 5728SOL    HW217231   2.821   6.003   4.654
 5729SOL     OW17232   2.409   5.650   4.217
 5729SOL    HW117233   2.328   5.648   4.275
 5729SOL    HW217234   2.406   5.730   4.158
 5730SOL     OW17235   3.280   6.788   3.784
 5730SOL    HW117236   3.334   6.718   3.831
 5730SOL    HW217237   3.187   6.755   3.768
 5731SOL     OW17238   2.152   5.634   3.910
 5731SOL    HW117239   2.204   5.706   3.863
 5731SOL    HW217240   2.215   5.570   3.953
 5732SOL     OW17241   2.809   5.837   4.180
 5732SOL    HW117242   2.778   5.878   4.094
 5732SOL    HW217243   2.907   5.851   4.189
 5733SOL     OW17244   2.941   6.270   5.180
 5733SOL    HW117245   2.866   6.204   5.185
 5733SOL    HW217246   3.028   6.221   5.175
 5734SOL     OW17247   3.132   0.148   4.462
 5734SOL    HW117248   3.099   0.232   4.418
 5734SOL    HW217249   3.143   0.164   4.560
 5735SOL     OW17250   2.328   6.712   4.458
 5735SOL    HW117251   2.258   6.704   4.529
 5735SOL    HW217252   2.285   6.711   4.368
 5736SOL     OW17253   2.883   6.121   3.754
 5736SOL    HW117254   2.839   6.207   3.731
 5736SOL    HW217255   2.952   6.137   3.825
 5737SOL     OW17256   1.949   6.144   5.115
 5737SOL    HW117257   2.044   6.139   5.083
 5737SOL    HW217258   1.941   6.215   5.184
 5738SOL     OW17259   2.420   5.810   4.897
 5738SOL    HW117260   2.470   5.734   4.940
 5738SOL    HW217261   2.325   5.808   4.926
 5739SOL     OW17262   2.727   6.044   4.360
 5739SOL    HW117263   2.680   6.106   4.298
 5739SOL    HW217264   2.756   5.962   4.310
 5740SOL     OW17265   2.879   5.639   4.469
 5740SOL    HW117266   2.819   5.639   4.389
 5740SOL    HW217267   2.854   5.563   4.529
 5741SOL     OW17268   3.303   6.732   4.582
 5741SOL    HW117269   3.226   6.668   4.584
 5741SOL    HW217270   3.334   6.744   4.488
 5742SOL     OW17271   3.330   6.192   4.693
 5742SOL    HW117272   3.268   6.115   4.692
 5742SOL    HW217273   3.391   6.186   4.772
 5743SOL     OW17274   3.704   6.389   4.104
 5743SOL    HW117275   3.762   6.343   4.171
 5743SOL    HW217276   3.676   6.325   4.033
 5744SOL     OW17277   3.543   6.830   4.373
 5744SOL    HW117278   3.641   6.841   4.390
 5744SOL    HW217279   3.496   6.916   4.393
 5745SOL     OW17280   3.252   6.161   3.795
 5745SOL    HW117281   3.189   6.137   3.869
 5745SOL    HW217282   3.345   6.135   3.820
 5746SOL     OW17283   2.390   5.850   4.032
 5746SOL    HW117284   2.438   5.798   3.962
 5746SOL    HW217285   2.360   5.938   3.995
 5747SOL     OW17286   3.616   6.812   5.290
 5747SOL    HW117287   3.700   6.762   5.313
 5747SOL    HW217288   3.633   6.911   5.301
 5748SOL     OW17289   2.937   6.894   5.050
 5748SOL    HW117290   2.858   6.878   5.108
 5748SOL    HW217291   3.021   6.877   5.102
 5749SOL     OW17292   3.000   6.762   4.823
 5749SOL    HW117293   2.967   6.811   4.904
 5749SOL    HW217294   2.941   6.783   4.745
 5750SOL     OW17295   3.483   6.680   4.807
 5750SOL    HW117296   3.472   6.736   4.889
 5750SOL    HW217297   3.408   6.697   4.744
 5751SOL     OW17298   2.786   5.679   5.115
 5751SOL    HW117299   2.807   5.657   5.020
 5751SOL    HW217300   2.865   5.723   5.157
 5752SOL     OW17301   2.828   6.696   5.463
 5752SOL    HW117302   2.730   6.709   5.481
 5752SOL    HW217303   2.840   6.622   5.397
 5753SOL     OW17304   2.571   6.638   4.093
 5753SOL    HW117305   2.558   6.628   4.191
 5753SOL    HW217306   2.653   6.587   4.065
 5754SOL     OW17307   2.283   6.401   4.979
 5754SOL    HW117308   2.356   6.414   5.046
 5754SOL    HW217309   2.245   6.309   4.989
 5755SOL     OW17310   3.124   5.961   5.005
 5755SOL    HW117311   3.160   6.041   5.054
 5755SOL    HW217312   3.029   5.979   4.980
 5756SOL     OW17313   2.201   6.706   4.215
 5756SOL    HW117314   2.246   6.784   4.172
 5756SOL    HW217315   2.195   6.631   4.149
 5757SOL     OW17316   2.409   6.129   4.586
 5757SOL    HW117317   2.423   6.189   4.507
 5757SOL    HW217318   2.479   6.149   4.655
 5758SOL     OW17319   3.439   6.207   4.207
 5758SOL    HW117320   3.389   6.252   4.281
 5758SOL    HW217321   3.490   6.275   4.154
 5759SOL     OW17322   2.278   6.330   5.325
 5759SOL    HW117323   2.345   6.375   5.266
 5759SOL    HW217324   2.310   6.238   5.348
 5760SOL     OW17325   3.471   6.371   5.409
 5760SOL    HW117326   3.379   6.411   5.406
 5760SOL    HW217327   3.527   6.412   5.337
 5761SOL     OW17328   2.859   5.721   5.474
 5761SOL    HW117329   2.917   5.801   5.459
 5761SOL    HW217330   2.908   5.638   5.447
 5762SOL     OW17331   2.354   5.621   5.475
 5762SOL    HW117332   2.309   5.564   5.407
 5762SOL    HW217333   2.297   5.701   5.494
 5763SOL     OW17334   2.445   6.452   4.760
 5763SOL    HW117335   2.471   6.548   4.749
 5763SOL    HW217336   2.384   6.443   4.838
 5764SOL     OW17337   3.217   6.439   4.749
 5764SOL    HW117338   3.125   6.436   4.710
 5764SOL    HW217339   3.263   6.351   4.736
 5765SOL     OW17340   3.058   6.113   3.988
 5765SOL    HW117341   3.072   6.030   4.042
 5765SOL    HW217342   3.014   6.183   4.044
 5766SOL     OW17343   2.159   5.782   4.971
 5766SOL    HW117344   2.122   5.818   5.057
 5766SOL    HW217345   2.143   5.683   4.967
 5767SOL     OW17346   1.923   6.898   5.006
 5767SOL    HW117347   1.957   6.842   5.082
 5767SOL    HW217348   1.918   6.993   5.034
 5768SOL     OW17349   2.587   6.215   4.779
 5768SOL    HW117350   2.663   6.196   4.717
 5768SOL    HW217351   2.551   6.306   4.761
 5769SOL     OW17352   3.597   6.547   5.579
 5769SOL    HW117353   3.554   6.477   5.522
 5769SOL    HW217354   3.541   6.564   5.659
 5770SOL     OW17355   2.169   5.647   4.352
 5770SOL    HW117356   2.144   5.742   4.370
 5770SOL    HW217357   2.180   5.598   4.439
 5771SOL     OW17358   3.489   5.968   4.085
 5771SOL    HW117359   3.516   5.894   4.147
 5771SOL    HW217360   3.461   6.048   4.137
 5772SOL     OW17361   2.886   6.339   4.682
 5772SOL    HW117362   2.881   6.361   4.779
 5772SOL    HW217363   2.859   6.244   4.667
 5773SOL     OW17364   3.718   0.064   5.325
 5773SOL    HW117365   3.756   0.140   5.273
 5773SOL    HW217366   3.772   0.049   5.407
 5774SOL     OW17367   2.216   6.508   5.526
 5774SOL    HW117368   2.292   6.518   5.591
 5774SOL    HW217369   2.241   6.440   5.456
 5775SOL     OW17370   3.388   5.855   3.854
 5775SOL    HW117371   3.320   5.786   3.879
 5775SOL    HW217372   3.426   5.897   3.936
 5776SOL     OW17373   3.149   6.410   3.746
 5776SOL    HW117374   3.190   6.319   3.757
 5776SOL    HW217375   3.181   6.450   3.661
 5777SOL     OW17376   2.171   6.392   4.666
 5777SOL    HW117377   2.268   6.416   4.656
 5777SOL    HW217378   2.164   6.298   4.699
 5778SOL     OW17379   2.188   6.114   4.736
 5778SOL    HW117380   2.150   6.022   4.725
 5778SOL    HW217381   2.269   6.123   4.678
 5779SOL     OW17382   2.996   5.958   5.417
 5779SOL    HW117383   2.943   6.015   5.480
 5779SOL    HW217384   3.088   5.995   5.408
 5780SOL     OW17385   3.024   5.788   5.200
 5780SOL    HW117386   3.009   5.851   5.277
 5780SOL    HW217387   3.066   5.838   5.125
 5781SOL     OW17388   1.885   6.894   3.906
 5781SOL    HW117389   1.797   6.923   3.869
 5781SOL    HW217390   1.875   6.805   3.951
 5782SOL     OW17391   2.835   6.377   4.948
 5782SOL    HW117392   2.895   6.354   5.024
 5782SOL    HW217393   2.747   6.331   4.960
 5783SOL     OW17394   1.899   6.139   4.841
 5783SOL    HW117395   1.982   6.127   4.786
 5783SOL    HW217396   1.925   6.141   4.938
 5784SOL     OW17397   2.054   6.109   5.455
 5784SOL    HW117398   2.105   6.054   5.389
 5784SOL    HW217399   2.016   6.189   5.408
 5785SOL     OW17400   3.243   6.522   5.378
 5785SOL    HW117401   3.273   6.617   5.378
 5785SOL    HW217402   3.239   6.487   5.285
 5786SOL     OW17403   2.680   6.158   4.085
 5786SOL    HW117404   2.689   6.078   4.025
 5786SOL    HW217405   2.601   6.212   4.056
 5787SOL     OW17406   3.504   6.187   4.904
 5787SOL    HW117407   3.488   6.128   4.983
 5787SOL    HW217408   3.596   6.171   4.868
 5788SOL     OW17409   2.572   6.032   4.976
 5788SOL    HW117410   2.513   5.954   4.952
 5788SOL    HW217411   2.568   6.100   4.903
 5789SOL     OW17412   2.319   6.080   3.908
 5789SOL    HW117413   2.384   6.152   3.934
 5789SOL    HW217414   2.229   6.121   3.895
 5790SOL     OW17415   2.030   6.728   5.201
 5790SOL    HW117416   2.019   6.680   5.288
 5790SOL    HW217417   2.040   6.662   5.127
 5791SOL     OW17418   3.191   6.622   4.947
 5791SOL    HW117419   3.220   6.555   4.880
 5791SOL    HW217420   3.119   6.679   4.908
 5792SOL     OW17421   3.180   6.447   4.019
 5792SOL    HW117422   3.108   6.416   4.082
 5792SOL    HW217423   3.152   6.431   3.925
 5793SOL     OW17424   1.945   6.859   4.738
 5793SOL    HW117425   1.931   6.868   4.836
 5793SOL    HW217426   1.875   6.798   4.700
 5794SOL     OW17427   3.582   5.737   4.222
 5794SOL    HW117428   3.657   5.727   4.157
 5794SOL    HW217429   3.564   5.650   4.267
 5795SOL     OW17430   3.145   6.509   4.394
 5795SOL    HW117431   3.219   6.444   4.410
 5795SOL    HW217432   3.180   6.586   4.341
 5796SOL     OW17433   2.677   6.844   5.142
 5796SOL    HW117434   2.650   6.885   5.229
 5796SOL    HW217435   2.607   6.861   5.074
 5797SOL     OW17436   3.704   5.755   4.688
 5797SOL    HW117437   3.738   5.663   4.665
 5797SOL    HW217438   3.613   5.767   4.648
 5798SOL     OW17439   2.116   5.899   4.439
 5798SOL    HW117440   2.028   5.936   4.411
 5798SOL    HW217441   2.120   5.892   4.539
 5799SOL     OW17442   3.114   0.209   3.734
 5799SOL    HW117443   3.117   0.141   3.807
 5799SOL    HW217444   3.021   0.212   3.695
 5800SOL     OW17445   2.688   6.581   5.095
 5800SOL    HW117446   2.746   6.557   5.017
 5800SOL    HW217447   2.692   6.680   5.111
 5801SOL     OW17448   2.783   6.495   4.003
 5801SOL    HW117449   2.850   6.537   3.941
 5801SOL    HW217450   2.829   6.426   4.059
 5802SOL     OW17451   2.256   6.891   5.219
 5802SOL    HW117452   2.220   6.984   5.206
 5802SOL    HW217453   2.180   6.827   5.224
 5803SOL     OW17454   3.466   6.844   5.038
 5803SOL    HW117455   3.541   6.831   5.103
 5803SOL    HW217456   3.398   6.905   5.078
 5804SOL     OW17457   2.927   6.696   4.453
 5804SOL    HW117458   2.846   6.647   4.486
 5804SOL    HW217459   2.993   6.631   4.417
 5805SOL     OW17460   2.885   5.825   4.691
 5805SOL    HW117461   2.881   5.782   4.601
 5805SOL    HW217462   2.882   5.755   4.762
 5806SOL     OW17463   3.595   5.980   5.105
 5806SOL    HW117464   3.667   6.048   5.105
 5806SOL    HW217465   3.620   5.905   5.043
 5807SOL     OW17466   1.971   6.611   5.441
 5807SOL    HW117467   1.892   6.588   5.498
 5807SOL    HW217468   2.054   6.575   5.484
 5808SOL     OW17469   2.546   5.779   5.224
 5808SOL    HW117470   2.632   5.755   5.180
 5808SOL    HW217471   2.564   5.814   5.316
 5809SOL     OW17472   1.944   5.913   3.752
 5809SOL    HW117473   1.852   5.889   3.720
 5809SOL    HW217474   1.976   5.995   3.704
 5810SOL     OW17475   3.288   6.437   5.122
 5810SOL    HW117476   3.234   6.501   5.068
 5810SOL    HW217477   3.383   6.437   5.090
 5811SOL     OW17478   1.924   5.741   4.025
 5811SOL    HW117479   1.908   5.825   3.974
 5811SOL    HW217480   2.013   5.702   3.998
 5812SOL     OW17481   2.485   6.413   5.159
 5812SOL    HW117482   2.544   6.491   5.139
 5812SOL    HW217483   2.541   6.331   5.168
 5813SOL     OW17484   2.585   6.143   5.427
 5813SOL    HW117485   2.630   6.209   5.486
 5813SOL    HW217486   2.603   6.050   5.460
 5814SOL     OW17487   3.348   6.777   5.370
 5814SOL    HW117488   3.335   6.797   5.467
 5814SOL    HW217489   3.444   6.792   5.346
 5815SOL     OW17490   3.528   6.460   4.978
 5815SOL    HW117491   3.522   6.369   4.936
 5815SOL    HW217492   3.515   6.530   4.907
 5816SOL     OW17493   3.082   5.903   4.183
 5816SOL    HW117494   3.145   5.826   4.174
 5816SOL    HW217495   3.108   5.958   4.262
 5817SOL     OW17496   2.447   6.323   4.394
 5817SOL    HW117497   2.489   6.413   4.383
 5817SOL    HW217498   2.378   6.309   4.322
 5818SOL     OW17499   3.612   5.950   5.377
 5818SOL    HW117500   3.603   5.967   5.279
 5818SOL    HW217501   3.537   5.891   5.407
 5819SOL     OW17502   3.607   6.519   5.230
 5819SOL    HW117503   3.599   6.618   5.247
 5819SOL    HW217504   3.591   6.501   5.134
 5820SOL     OW17505   2.730   6.552   4.582
 5820SOL    HW117506   2.783   6.474   4.616
 5820SOL    HW217507   2.698   6.607   4.659
 5821SOL     OW17508   2.955   6.588   3.815
 5821SOL    HW117509   2.914   6.634   3.737
 5821SOL    HW217510   3.021   6.520   3.782
 5822SOL     OW17511   2.073   6.911   5.534
 5822SOL    HW117512   2.017   6.829   5.545
 5822SOL    HW217513   2.086   6.954   5.624
 5823SOL     OW17514   1.956   6.819   4.398
 5823SOL    HW117515   1.977   6.759   4.475
 5823SOL    HW217516   2.018   6.799   4.322
 5824SOL     OW17517   2.565   6.972   5.355
 5824SOL    HW117518   2.468   6.967   5.379
 5824SOL    HW217519   2.589   0.065   5.330
 5825SOL     OW17520   3.666   5.768   4.958
 5825SOL    HW117521   3.681   5.672   4.982
 5825SOL    HW217522   3.679   5.780   4.859
 5826SOL     OW17523   2.292   6.013   4.250
 5826SOL    HW117524   2.326   5.943   4.188
 5826SOL    HW217525   2.237   5.970   4.322
 5827SOL     OW17526   3.505   0.044   4.864
 5827SOL    HW117527   3.459   0.027   4.777
 5827SOL    HW217528   3.501   6.961   4.921
 5828SOL     OW17529   2.198   6.142   5.013
 5828SOL    HW117530   2.254   6.085   5.072
 5828SOL    HW217531   2.212   6.116   4.917
 5829SOL     OW17532   3.292   5.817   4.841
 5829SOL    HW117533   3.314   5.727   4.878
 5829SOL    HW217534   3.238   5.868   4.908
 5830SOL     OW17535   2.872   5.602   4.861
 5830SOL    HW117536   2.808   5.539   4.816
 5830SOL    HW217537   2.963   5.561   4.862
 5831SOL     OW17538   2.617   6.909   3.992
 5831SOL    HW117539   2.598   6.812   4.012
 5831SOL    HW217540   2.655   6.952   4.074
 5832SOL     OW17541   3.217   5.635   3.895
 5832SOL    HW117542   3.260   5.567   3.836
 5832SOL    HW217543   3.124   5.607   3.917
 5833SOL     OW17544   3.152   6.050   4.404
 5833SOL    HW117545   3.099   6.135   4.405
 5833SOL    HW217546   3.151   6.008   4.495
 5834SOL     OW17547   3.448   5.788   4.609
 5834SOL    HW117548   3.390   5.809   4.688
 5834SOL    HW217549   3.450   5.868   4.548
 5835SOL     OW17550   1.898   6.645   4.035
 5835SOL    HW117551   1.996   6.651   4.014
 5835SOL    HW217552   1.875   6.550   4.057
 5836SOL     OW17553   2.082   6.205   5.714
 5836SOL    HW117554   1.990   6.204   5.755
 5836SOL    HW217555   2.076   6.182   5.617
 5837SOL     OW17556   2.082   5.874   6.583
 5837SOL    HW117557   2.118   5.835   6.668
 5837SOL    HW217558   1.991   5.837   6.566
 5838SOL     OW17559   1.861   5.972   6.221
 5838SOL    HW117560   1.777   6.004   6.266
 5838SOL    HW217561   1.842   5.889   6.169
 5839SOL     OW17562   2.422   6.880   6.771
 5839SOL    HW117563   2.355   6.898   6.699
 5839SOL    HW217564   2.374   6.874   6.859
 5840SOL     OW17565   3.404   0.055   6.274
 5840SOL    HW117566   3.381   0.048   6.371
 5840SOL    HW217567   3.325   0.091   6.224
 5841SOL     OW17568   2.993   6.287   6.281
 5841SOL    HW117569   3.045   6.371   6.266
 5841SOL    HW217570   2.941   6.294   6.366
 5842SOL     OW17571   3.635   6.181   5.807
 5842SOL    HW117572   3.609   6.178   5.710
 5842SOL    HW217573   3.594   6.103   5.855
 5843SOL     OW17574   2.615   6.740   6.615
 5843SOL    HW117575   2.552   6.783   6.680
 5843SOL    HW217576   2.625   6.799   6.536
 5844SOL     OW17577   2.548   6.582   6.233
 5844SOL    HW117578   2.619   6.572   6.303
 5844SOL    HW217579   2.473   6.636   6.270
 5845SOL     OW17580   2.199   0.011   6.640
 5845SOL    HW117581   2.120   6.963   6.603
 5845SOL    HW217582   2.243   0.065   6.568
 5846SOL     OW17583   3.472   6.033   6.330
 5846SOL    HW117584   3.397   6.049   6.266
 5846SOL    HW217585   3.472   6.105   6.399
 5847SOL     OW17586   2.124   6.677   6.494
 5847SOL    HW117587   2.120   6.582   6.526
 5847SOL    HW217588   2.063   6.733   6.549
 5848SOL     OW17589   2.440   6.566   5.729
 5848SOL    HW117590   2.485   6.616   5.655
 5848SOL    HW217591   2.481   6.591   5.817
 5849SOL     OW17592   1.977   6.245   6.152
 5849SOL    HW117593   1.947   6.152   6.169
 5849SOL    HW217594   1.971   6.299   6.236
 5850SOL     OW17595   3.552   6.503   6.228
 5850SOL    HW117596   3.638   6.456   6.211
 5850SOL    HW217597   3.528   6.559   6.148
 5851SOL     OW17598   3.515   6.691   6.012
 5851SOL    HW117599   3.604   6.684   5.967
 5851SOL    HW217600   3.523   6.751   6.092
 5852SOL     OW17601   2.680   5.596   6.095
 5852SOL    HW117602   2.726   5.682   6.072
 5852SOL    HW217603   2.582   5.612   6.102
 5853SOL     OW17604   2.053   6.555   6.837
 5853SOL    HW117605   2.136   6.500   6.824
 5853SOL    HW217606   1.973   6.502   6.810
 5854SOL     OW17607   3.398   6.588   5.788
 5854SOL    HW117608   3.324   6.527   5.817
 5854SOL    HW217609   3.446   6.624   5.868
 5855SOL     OW17610   3.317   6.994   6.529
 5855SOL    HW117611   3.256   0.020   6.603
 5855SOL    HW217612   3.300   6.899   6.504
 5856SOL     OW17613   2.456   6.302   5.861
 5856SOL    HW117614   2.461   6.388   5.809
 5856SOL    HW217615   2.388   6.310   5.933
 5857SOL     OW17616   3.137   5.944   6.518
 5857SOL    HW117617   3.043   5.910   6.525
 5857SOL    HW217618   3.196   5.894   6.581
 5858SOL     OW17619   2.657   6.187   0.050
 5858SOL    HW117620   2.596   6.235   0.112
 5858SOL    HW217621   2.603   6.135   6.983
 5859SOL     OW17622   2.867   5.978   6.797
 5859SOL    HW117623   2.802   6.036   6.848
 5859SOL    HW217624   2.819   5.933   6.722
 5860SOL     OW17625   2.912   6.285   6.010
 5860SOL    HW117626   2.934   6.281   6.108
 5860SOL    HW217627   2.826   6.238   5.994
 5861SOL     OW17628   1.950   6.411   6.367
 5861SOL    HW117629   2.036   6.402   6.418
 5861SOL    HW217630   1.899   6.489   6.402
 5862SOL     OW17631   2.758   5.938   5.783
 5862SOL    HW117632   2.798   6.006   5.721
 5862SOL    HW217633   2.767   5.847   5.742
 5863SOL     OW17634   3.250   6.722   6.133
 5863SOL    HW117635   3.330   6.715   6.074
 5863SOL    HW217636   3.199   6.805   6.111
 5864SOL     OW17637   2.408   5.757   6.485
 5864SOL    HW117638   2.414   5.789   6.580
 5864SOL    HW217639   2.413   5.836   6.423
 5865SOL     OW17640   3.667   6.638   6.453
 5865SOL    HW117641   3.616   6.626   6.368
 5865SOL    HW217642   3.604   6.638   6.530
 5866SOL     OW17643   2.183   6.546   5.845
 5866SOL    HW117644   2.272   6.563   5.801
 5866SOL    HW217645   2.144   6.461   5.811
 5867SOL     OW17646   3.346   6.333   6.306
 5867SOL    HW117647   3.341   6.289   6.396
 5867SOL    HW217648   3.426   6.394   6.303
 5868SOL     OW17649   3.502   6.970   5.672
 5868SOL    HW117650   3.469   0.062   5.690
 5868SOL    HW217651   3.424   6.909   5.657
 5869SOL     OW17652   3.263   5.689   6.024
 5869SOL    HW117653   3.252   5.664   5.928
 5869SOL    HW217654   3.360   5.698   6.045
 5870SOL     OW17655   2.258   6.273   6.060
 5870SOL    HW117656   2.277   6.176   6.074
 5870SOL    HW217657   2.161   6.291   6.078
 5871SOL     OW17658   2.504   5.702   5.688
 5871SOL    HW117659   2.572   5.632   5.710
 5871SOL    HW217660   2.447   5.671   5.612
 5872SOL     OW17661   2.789   6.091   6.484
 5872SOL    HW117662   2.762   6.085   6.388
 5872SOL    HW217663   2.826   6.003   6.514
 5873SOL     OW17664   2.410   5.650   6.079
 5873SOL    HW117665   2.328   5.648   6.137
 5873SOL    HW217666   2.406   5.730   6.020
 5874SOL     OW17667   3.280   6.788   5.646
 5874SOL    HW117668   3.334   6.718   5.693
 5874SOL    HW217669   3.187   6.754   5.630
 5875SOL     OW17670   2.152   5.634   5.772
 5875SOL    HW117671   2.204   5.706   5.725
 5875SOL    HW217672   2.215   5.570   5.815
 5876SOL     OW17673   2.809   5.837   6.042
 5876SOL    HW117674   2.778   5.878   5.956
 5876SOL    HW217675   2.907   5.851   6.051
 5877SOL     OW17676   3.133   0.149   6.319
 5877SOL    HW117677   3.096   0.234   6.282
 5877SOL    HW217678   3.137   0.155   6.419
 5878SOL     OW17679   2.327   6.711   6.320
 5878SOL    HW117680   2.258   6.705   6.392
 5878SOL    HW217681   2.283   6.710   6.231
 5879SOL     OW17682   2.883   6.121   5.617
 5879SOL    HW117683   2.839   6.207   5.593
 5879SOL    HW217684   2.952   6.137   5.687
 5880SOL     OW17685   2.423   5.807   6.757
 5880SOL    HW117686   2.470   5.725   6.789
 5880SOL    HW217687   2.328   5.805   6.788
 5881SOL     OW17688   2.726   6.044   6.222
 5881SOL    HW117689   2.680   6.106   6.159
 5881SOL    HW217690   2.755   5.962   6.173
 5882SOL     OW17691   2.880   5.634   6.326
 5882SOL    HW117692   2.818   5.635   6.248
 5882SOL    HW217693   2.855   5.561   6.389
 5883SOL     OW17694   3.298   6.734   6.444
 5883SOL    HW117695   3.224   6.667   6.447
 5883SOL    HW217696   3.327   6.747   6.349
 5884SOL     OW17697   3.329   6.190   6.549
 5884SOL    HW117698   3.266   6.113   6.554
 5884SOL    HW217699   3.391   6.187   6.627
 5885SOL     OW17700   3.704   6.389   5.966
 5885SOL    HW117701   3.762   6.343   6.033
 5885SOL    HW217702   3.676   6.325   5.895
 5886SOL     OW17703   3.545   6.833   6.232
 5886SOL    HW117704   3.642   6.845   6.251
 5886SOL    HW217705   3.496   6.917   6.253
 5887SOL     OW17706   3.252   6.161   5.657
 5887SOL    HW117707   3.189   6.137   5.731
 5887SOL    HW217708   3.345   6.135   5.682
 5888SOL     OW17709   2.390   5.850   5.895
 5888SOL    HW117710   2.438   5.798   5.824
 5888SOL    HW217711   2.361   5.938   5.857
 5889SOL     OW17712   3.602   6.788   0.186
 5889SOL    HW117713   3.695   6.762   0.215
 5889SOL    HW217714   3.603   6.881   0.151
 5890SOL     OW17715   2.926   6.901   6.929
 5890SOL    HW117716   2.835   6.880   6.964
 5890SOL    HW217717   2.993   6.896   0.004
 5891SOL     OW17718   2.994   6.761   6.703
 5891SOL    HW117719   2.964   6.819   6.779
 5891SOL    HW217720   2.957   6.796   6.617
 5892SOL     OW17721   3.483   6.661   6.646
 5892SOL    HW117722   3.480   6.723   6.724
 5892SOL    HW217723   3.407   6.682   6.585
 5893SOL     OW17724   2.571   6.637   5.955
 5893SOL    HW117725   2.558   6.628   6.053
 5893SOL    HW217726   2.653   6.587   5.927
 5894SOL     OW17727   2.287   6.400   6.847
 5894SOL    HW117728   2.345   6.425   6.925
 5894SOL    HW217729   2.252   6.307   6.860
 5895SOL     OW17730   3.131   5.974   6.856
 5895SOL    HW117731   3.159   6.048   6.917
 5895SOL    HW217732   3.036   5.989   6.827
 5896SOL     OW17733   2.199   6.706   6.077
 5896SOL    HW117734   2.246   6.783   6.035
 5896SOL    HW217735   2.194   6.631   6.012
 5897SOL     OW17736   2.408   6.131   6.449
 5897SOL    HW117737   2.421   6.190   6.369
 5897SOL    HW217738   2.480   6.149   6.516
 5898SOL     OW17739   3.439   6.207   6.068
 5898SOL    HW117740   3.390   6.252   6.143
 5898SOL    HW217741   3.489   6.275   6.015
 5899SOL     OW17742   2.449   6.453   6.624
 5899SOL    HW117743   2.477   6.548   6.610
 5899SOL    HW217744   2.387   6.447   6.702
 5900SOL     OW17745   3.212   6.436   6.604
 5900SOL    HW117746   3.121   6.430   6.565
 5900SOL    HW217747   3.260   6.350   6.591
 5901SOL     OW17748   3.058   6.113   5.850
 5901SOL    HW117749   3.072   6.030   5.904
 5901SOL    HW217750   3.014   6.183   5.906
 5902SOL     OW17751   2.163   5.784   6.835
 5902SOL    HW117752   2.119   5.817   6.919
 5902SOL    HW217753   2.149   5.685   6.828
 5903SOL     OW17754   1.909   6.899   6.877
 5903SOL    HW117755   1.955   6.837   6.940
 5903SOL    HW217756   1.933   6.993   6.900
 5904SOL     OW17757   2.587   6.211   6.641
 5904SOL    HW117758   2.665   6.192   6.582
 5904SOL    HW217759   2.554   6.304   6.624
 5905SOL     OW17760   2.169   5.647   6.214
 5905SOL    HW117761   2.144   5.742   6.231
 5905SOL    HW217762   2.180   5.598   6.300
 5906SOL     OW17763   3.489   5.968   5.946
 5906SOL    HW117764   3.516   5.894   6.009
 5906SOL    HW217765   3.461   6.048   5.999
 5907SOL     OW17766   2.884   6.340   6.550
 5907SOL    HW117767   2.883   6.360   6.648
 5907SOL    HW217768   2.859   6.244   6.535
 5908SOL     OW17769   3.388   5.855   5.716
 5908SOL    HW117770   3.320   5.786   5.741
 5908SOL    HW217771   3.426   5.897   5.798
 5909SOL     OW17772   3.149   6.410   5.608
 5909SOL    HW117773   3.190   6.319   5.619
 5909SOL    HW217774   3.180   6.450   5.522
 5910SOL     OW17775   2.173   6.391   6.529
 5910SOL    HW117776   2.269   6.417   6.516
 5910SOL    HW217777   2.168   6.296   6.559
 5911SOL     OW17778   2.193   6.115   6.604
 5911SOL    HW117779   2.153   6.025   6.591
 5911SOL    HW217780   2.273   6.125   6.545
 5912SOL     OW17781   3.003   5.827   0.055
 5912SOL    HW117782   3.073   5.839   0.125
 5912SOL    HW217783   3.035   5.865   6.968
 5913SOL     OW17784   1.885   6.894   5.768
 5913SOL    HW117785   1.797   6.923   5.731
 5913SOL    HW217786   1.875   6.806   5.813
 5914SOL     OW17787   2.851   6.373   6.826
 5914SOL    HW117788   2.923   6.333   6.882
 5914SOL    HW217789   2.761   6.346   6.861
 5915SOL     OW17790   1.914   6.144   6.713
 5915SOL    HW117791   1.967   6.110   6.635
 5915SOL    HW217792   1.976   6.178   6.783
 5916SOL     OW17793   2.680   6.158   5.948
 5916SOL    HW117794   2.689   6.078   5.888
 5916SOL    HW217795   2.601   6.212   5.919
 5917SOL     OW17796   3.510   6.194   6.752
 5917SOL    HW117797   3.494   6.136   6.832
 5917SOL    HW217798   3.605   6.184   6.722
 5918SOL     OW17799   2.533   6.049   6.850
 5918SOL    HW117800   2.497   5.961   6.819
 5918SOL    HW217801   2.549   6.109   6.771
 5919SOL     OW17802   2.319   6.080   5.770
 5919SOL    HW117803   2.384   6.152   5.796
 5919SOL    HW217804   2.229   6.121   5.757
 5920SOL     OW17805   2.039   6.724   0.042
 5920SOL    HW117806   2.015   6.675   0.126
 5920SOL    HW217807   2.042   6.660   6.966
 5921SOL     OW17808   3.176   6.600   6.821
 5921SOL    HW117809   3.212   6.539   6.749
 5921SOL    HW217810   3.108   6.661   6.781
 5922SOL     OW17811   3.180   6.447   5.881
 5922SOL    HW117812   3.108   6.417   5.944
 5922SOL    HW217813   3.151   6.431   5.787
 5923SOL     OW17814   1.944   6.860   6.605
 5923SOL    HW117815   1.925   6.868   6.703
 5923SOL    HW217816   1.875   6.800   6.563
 5924SOL     OW17817   3.582   5.738   6.084
 5924SOL    HW117818   3.657   5.727   6.019
 5924SOL    HW217819   3.564   5.650   6.129
 5925SOL     OW17820   3.144   6.509   6.255
 5925SOL    HW117821   3.218   6.443   6.272
 5925SOL    HW217822   3.179   6.586   6.203
 5926SOL     OW17823   2.674   6.840   0.017
 5926SOL    HW117824   2.671   6.854   0.117
 5926SOL    HW217825   2.589   6.876   6.977
 5927SOL     OW17826   3.704   5.760   6.557
 5927SOL    HW117827   3.739   5.669   6.534
 5927SOL    HW217828   3.612   5.771   6.518
 5928SOL     OW17829   2.116   5.899   6.301
 5928SOL    HW117830   2.027   5.936   6.273
 5928SOL    HW217831   2.119   5.893   6.401
 5929SOL     OW17832   3.113   0.209   5.596
 5929SOL    HW117833   3.117   0.141   5.669
 5929SOL    HW217834   3.021   0.212   5.558
 5930SOL     OW17835   2.651   6.582   6.941
 5930SOL    HW117836   2.704   6.560   6.859
 5930SOL    HW217837   2.668   6.677   6.967
 5931SOL     OW17838   2.783   6.495   5.865
 5931SOL    HW117839   2.849   6.537   5.803
 5931SOL    HW217840   2.829   6.426   5.921
 5932SOL     OW17841   2.261   6.887   6.996
 5932SOL    HW117842   2.244   6.962   0.059
 5932SOL    HW217843   2.190   6.817   0.008
 5933SOL     OW17844   3.481   6.827   6.856
 5933SOL    HW117845   3.564   6.845   6.908
 5933SOL    HW217846   3.403   6.815   6.918
 5934SOL     OW17847   2.926   6.695   6.313
 5934SOL    HW117848   2.846   6.646   6.347
 5934SOL    HW217849   2.993   6.629   6.278
 5935SOL     OW17850   2.882   5.823   6.541
 5935SOL    HW117851   2.881   5.775   6.453
 5935SOL    HW217852   2.884   5.757   6.616
 5936SOL     OW17853   3.557   6.009   6.948
 5936SOL    HW117854   3.626   6.014   0.020
 5936SOL    HW217855   3.560   5.919   6.905
 5937SOL     OW17856   2.537   5.775   0.080
 5937SOL    HW117857   2.627   5.746   0.050
 5937SOL    HW217858   2.545   5.857   0.136
 5938SOL     OW17859   1.944   5.913   5.614
 5938SOL    HW117860   1.852   5.889   5.582
 5938SOL    HW217861   1.976   5.995   5.566
 5939SOL     OW17862   1.924   5.741   5.887
 5939SOL    HW117863   1.908   5.825   5.835
 5939SOL    HW217864   2.013   5.702   5.860
 5940SOL     OW17865   3.333   6.858   0.320
 5940SOL    HW117866   3.280   6.775   0.330
 5940SOL    HW217867   3.417   6.838   0.270
 5941SOL     OW17868   3.560   6.460   6.827
 5941SOL    HW117869   3.528   6.369   6.800
 5941SOL    HW217870   3.527   6.528   6.761
 5942SOL     OW17871   3.081   5.902   6.045
 5942SOL    HW117872   3.145   5.826   6.036
 5942SOL    HW217873   3.107   5.958   6.124
 5943SOL     OW17874   2.445   6.323   6.256
 5943SOL    HW117875   2.488   6.413   6.245
 5943SOL    HW217876   2.378   6.310   6.184
 5944SOL     OW17877   3.646   6.505   0.082
 5944SOL    HW117878   3.611   6.594   0.112
 5944SOL    HW217879   3.613   6.486   6.990
 5945SOL     OW17880   2.731   6.551   6.444
 5945SOL    HW117881   2.783   6.474   6.479
 5945SOL    HW217882   2.695   6.605   6.520
 5946SOL     OW17883   2.955   6.588   5.677
 5946SOL    HW117884   2.913   6.634   5.599
 5946SOL    HW217885   3.021   6.520   5.644
 5947SOL     OW17886   1.960   6.823   6.260
 5947SOL    HW117887   1.969   6.759   6.336
 5947SOL    HW217888   2.020   6.795   6.185
 5948SOL     OW17889   3.672   5.760   6.834
 5948SOL    HW117890   3.646   5.663   6.836
 5948SOL    HW217891   3.688   5.789   6.740
 5949SOL     OW17892   2.292   6.013   6.113
 5949SOL    HW117893   2.326   5.943   6.050
 5949SOL    HW217894   2.237   5.969   6.184
 5950SOL     OW17895   3.506   0.053   6.718
 5950SOL    HW117896   3.462   0.045   6.629
 5950SOL    HW217897   3.501   6.965   6.766
 5951SOL     OW17898   2.179   6.138   6.878
 5951SOL    HW117899   2.250   6.085   6.925
 5951SOL    HW217900   2.189   6.125   6.779
 5952SOL     OW17901   3.296   5.823   6.702
 5952SOL    HW117902   3.326   5.739   6.747
 5952SOL    HW217903   3.242   5.877   6.766
 5953SOL     OW17904   2.880   5.603   6.710
 5953SOL    HW117905   2.817   5.537   6.668
 5953SOL    HW217906   2.970   5.561   6.721
 5954SOL     OW17907   2.617   6.908   5.853
 5954SOL    HW117908   2.598   6.812   5.873
 5954SOL    HW217909   2.655   6.952   5.935
 5955SOL     OW17910   3.217   5.635   5.757
 5955SOL    HW117911   3.260   5.567   5.698
 5955SOL    HW217912   3.124   5.607   5.778
 5956SOL     OW17913   3.152   6.050   6.265
 5956SOL    HW117914   3.100   6.135   6.268
 5956SOL    HW217915   3.150   6.007   6.356
 5957SOL     OW17916   3.449   5.791   6.472
 5957SOL    HW117917   3.389   5.810   6.549
 5957SOL    HW217918   3.450   5.870   6.410
 5958SOL     OW17919   1.898   6.645   5.897
 5958SOL    HW117920   1.996   6.651   5.876
 5958SOL    HW217921   1.875   6.550   5.919
 5959SOL     OW17922   3.942   0.645   0.137
 5959SOL    HW117923   3.848   0.623   0.163
 5959SOL    HW217924   3.955   0.626   0.040
 5960SOL     OW17925   3.946   0.304   0.996
 5960SOL    HW117926   3.987   0.266   1.079
 5960SOL    HW217927   3.863   0.252   0.973
 5961SOL     OW17928   3.729   0.392   0.629
 5961SOL    HW117929   3.644   0.417   0.676
 5961SOL    HW217930   3.711   0.316   0.566
 5962SOL     OW17931   4.293   1.299   1.187
 5962SOL    HW117932   4.204   1.295   1.143
 5962SOL    HW217933   4.311   1.391   1.220
 5963SOL     OW17934   5.289   1.514   0.709
 5963SOL    HW117935   5.248   1.488   0.796
 5963SOL    HW217936   5.219   1.517   0.637
 5964SOL     OW17937   4.857   0.701   0.694
 5964SOL    HW117938   4.910   0.784   0.679
 5964SOL    HW217939   4.805   0.710   0.780
 5965SOL     OW17940   5.511   0.581   0.197
 5965SOL    HW117941   5.445   0.636   0.145
 5965SOL    HW217942   5.461   0.515   0.254
 5966SOL     OW17943   4.466   1.140   1.042
 5966SOL    HW117944   4.399   1.175   1.107
 5966SOL    HW217945   4.511   1.216   0.995
 5967SOL     OW17946   4.597   0.764   1.821
 5967SOL    HW117947   4.586   0.832   1.893
 5967SOL    HW217948   4.622   0.809   1.735
 5968SOL     OW17949   4.407   0.997   0.650
 5968SOL    HW117950   4.478   0.988   0.719
 5968SOL    HW217951   4.333   1.054   0.685
 5969SOL     OW17952   4.435   1.153   1.819
 5969SOL    HW117953   4.488   1.231   1.852
 5969SOL    HW217954   4.351   1.185   1.776
 5970SOL     OW17955   4.050   1.422   1.066
 5970SOL    HW117956   3.974   1.377   1.020
 5970SOL    HW217957   4.103   1.475   0.999
 5971SOL     OW17958   5.181   1.502   1.359
 5971SOL    HW117959   5.239   1.583   1.366
 5971SOL    HW217960   5.110   1.506   1.429
 5972SOL     OW17961   4.168   0.398   1.481
 5972SOL    HW117962   4.254   0.347   1.489
 5972SOL    HW217963   4.091   0.334   1.488
 5973SOL     OW17964   5.340   0.461   0.733
 5973SOL    HW117965   5.280   0.487   0.657
 5973SOL    HW217966   5.346   0.535   0.799
 5974SOL     OW17967   3.944   1.724   0.471
 5974SOL    HW117968   3.962   1.803   0.529
 5974SOL    HW217969   4.029   1.695   0.426
 5975SOL     OW17970   4.861   1.340   1.698
 5975SOL    HW117971   4.908   1.337   1.786
 5975SOL    HW217972   4.805   1.258   1.688
 5976SOL     OW17973   3.937   1.448   0.532
 5976SOL    HW117974   3.925   1.547   0.542
 5976SOL    HW217975   3.887   1.401   0.604
 5977SOL     OW17976   3.993   1.091   0.900
 5977SOL    HW117977   3.990   0.996   0.932
 5977SOL    HW217978   3.931   1.147   0.954
 5978SOL     OW17979   4.321   1.797   1.426
 5978SOL    HW117980   4.238   1.773   1.476
 5978SOL    HW217981   4.353   1.888   1.454
 5979SOL     OW17982   4.311   0.966   0.149
 5979SOL    HW117983   4.368   0.988   0.070
 5979SOL    HW217984   4.347   1.012   0.230
 5980SOL     OW17985   5.302   0.132   1.446
 5980SOL    HW117986   5.316   0.227   1.415
 5980SOL    HW217987   5.325   0.125   1.543
 5981SOL     OW17988   3.840   0.655   0.562
 5981SOL    HW117989   3.812   0.561   0.582
 5981SOL    HW217990   3.834   0.710   0.646
 5982SOL     OW17991   5.560   1.762   0.350
 5982SOL    HW117992   5.634   1.733   0.411
 5982SOL    HW217993   5.565   1.861   0.337
 5983SOL     OW17994   3.737   1.581   0.146
 5983SOL    HW117995   3.667   1.513   0.126
 5983SOL    HW217996   3.716   1.627   0.232
 5984SOL     OW17997   5.415   0.915   0.651
 5984SOL    HW117998   5.499   0.863   0.633
 5984SOL    HW217999   5.394   0.972   0.572
 5985SOL     OW18000   5.380   1.096   0.446
 5985SOL    HW118001   5.449   1.114   0.376
 5985SOL    HW218002   5.386   1.165   0.518
 5986SOL     OW18003   3.846   0.749   1.582
 5986SOL    HW118004   3.942   0.778   1.584
 5986SOL    HW218005   3.787   0.830   1.581
 5987SOL     OW18006   4.337   1.389   0.737
 5987SOL    HW118007   4.291   1.302   0.750
 5987SOL    HW218008   4.327   1.418   0.642
 5988SOL     OW18009   5.011   1.234   1.422
 5988SOL    HW118010   5.038   1.164   1.356
 5988SOL    HW218011   5.072   1.230   1.501
 5989SOL     OW18012   4.546   0.031   0.522
 5989SOL    HW118013   4.587   0.119   0.502
 5989SOL    HW218014   4.446   0.040   0.523
 5990SOL     OW18015   3.914   0.961   1.279
 5990SOL    HW118016   4.003   0.918   1.264
 5990SOL    HW218017   3.846   0.917   1.220
 5991SOL     OW18018   5.213   1.023   0.215
 5991SOL    HW118019   5.145   0.957   0.248
 5991SOL    HW218020   5.302   1.003   0.255
 5992SOL     OW18021   4.905   1.812   1.623
 5992SOL    HW118022   4.913   1.881   1.551
 5992SOL    HW218023   4.925   1.722   1.585
 5993SOL     OW18024   4.045   0.270   1.790
 5993SOL    HW118025   4.108   0.336   1.830
 5993SOL    HW218026   3.958   0.272   1.839
 5994SOL     OW18027   5.188   1.421   0.946
 5994SOL    HW118028   5.122   1.439   1.019
 5994SOL    HW218029   5.181   1.325   0.918
 5995SOL     OW18030   5.364   1.755   0.584
 5995SOL    HW118031   5.347   1.728   0.489
 5995SOL    HW218032   5.349   1.677   0.644
 5996SOL     OW18033   4.321   0.715   0.267
 5996SOL    HW118034   4.326   0.806   0.225
 5996SOL    HW218035   4.255   0.717   0.342
 5997SOL     OW18036   5.007   0.368   0.949
 5997SOL    HW118037   4.910   0.344   0.952
 5997SOL    HW218038   5.056   0.317   1.020
 5998SOL     OW18039   5.299   1.678   0.317
 5998SOL    HW118040   5.395   1.707   0.316
 5998SOL    HW218041   5.266   1.669   0.223
 5999SOL     OW18042   4.517   0.616   1.455
 5999SOL    HW118043   4.490   0.589   1.547
 5999SOL    HW218044   4.479   0.550   1.389
 6000SOL     OW18045   5.118   0.474   1.681
 6000SOL    HW118046   5.117   0.520   1.769
 6000SOL    HW218047   5.174   0.392   1.687
 6001SOL     OW18048   4.677   0.885   1.583
 6001SOL    HW118049   4.735   0.813   1.545
 6001SOL    HW218050   4.622   0.927   1.511
 6002SOL     OW18051   4.719   0.411   1.226
 6002SOL    HW118052   4.632   0.433   1.270
 6002SOL    HW218053   4.702   0.362   1.141
 6003SOL     OW18054   4.778   0.700   0.427
 6003SOL    HW118055   4.801   0.697   0.524
 6003SOL    HW218056   4.690   0.655   0.412
 6004SOL     OW18057   3.814   0.825   0.779
 6004SOL    HW118058   3.899   0.813   0.830
 6004SOL    HW218059   3.763   0.903   0.815
 6005SOL     OW18060   3.852   1.874   1.588
 6005SOL    HW118061   3.857   1.846   1.685
 6005SOL    HW218062   3.768   1.838   1.548
 6006SOL     OW18063   4.609   0.371   0.210
 6006SOL    HW118064   4.652   0.425   0.138
 6006SOL    HW218065   4.595   0.277   0.178
 6007SOL     OW18066   5.424   0.572   1.825
 6007SOL    HW118067   5.389   0.652   1.776
 6007SOL    HW218068   5.452   0.502   1.759
 6008SOL     OW18069   5.108   1.141   0.549
 6008SOL    HW118070   5.191   1.128   0.495
 6008SOL    HW218071   5.048   1.207   0.503
 6009SOL     OW18072   4.226   0.190   0.912
 6009SOL    HW118073   4.266   0.220   0.999
 6009SOL    HW218074   4.252   0.254   0.840
 6010SOL     OW18075   4.715   1.438   0.469
 6010SOL    HW118076   4.684   1.520   0.420
 6010SOL    HW218077   4.696   1.449   0.567
 6011SOL     OW18078   4.080   1.814   0.871
 6011SOL    HW118079   4.124   1.725   0.877
 6011SOL    HW218080   4.147   1.886   0.890
 6012SOL     OW18081   5.524   1.053   0.875
 6012SOL    HW118082   5.473   1.032   0.791
 6012SOL    HW218083   5.460   1.060   0.951
 6013SOL     OW18084   4.950   1.536   1.515
 6013SOL    HW118085   4.938   1.462   1.581
 6013SOL    HW218086   4.882   1.527   1.441
 6014SOL     OW18087   4.038   0.959   0.227
 6014SOL    HW118088   4.131   0.971   0.194
 6014SOL    HW218089   4.008   0.865   0.208
 6015SOL     OW18090   5.208   0.748   0.724
 6015SOL    HW118091   5.203   0.707   0.815
 6015SOL    HW218092   5.287   0.809   0.719
 6016SOL     OW18093   4.193   1.266   1.731
 6016SOL    HW118094   4.167   1.272   1.634
 6016SOL    HW218095   4.111   1.263   1.787
 6017SOL     OW18096   4.844   1.766   0.242
 6017SOL    HW118097   4.771   1.720   0.293
 6017SOL    HW218098   4.882   1.703   0.174
 6018SOL     OW18099   3.916   0.272   1.514
 6018SOL    HW118100   3.858   0.352   1.499
 6018SOL    HW218101   3.940   0.266   1.610
 6019SOL     OW18102   5.370   1.431   0.106
 6019SOL    HW118103   5.321   1.511   0.071
 6019SOL    HW218104   5.309   1.377   0.164
 6020SOL     OW18105   4.208   1.698   0.379
 6020SOL    HW118106   4.237   1.783   0.423
 6020SOL    HW218107   4.267   1.680   0.300
 6021SOL     OW18108   5.151   0.134   0.425
 6021SOL    HW118109   5.136   0.061   0.358
 6021SOL    HW218110   5.249   0.144   0.443
 6022SOL     OW18111   3.983   1.791   1.225
 6022SOL    HW118112   4.033   1.718   1.271
 6022SOL    HW218113   3.964   1.765   1.131
 6023SOL     OW18114   4.661   1.703   0.896
 6023SOL    HW118115   4.743   1.655   0.927
 6023SOL    HW218116   4.618   1.650   0.823
 6024SOL     OW18117   4.122   0.685   0.469
 6024SOL    HW118118   4.141   0.588   0.487
 6024SOL    HW218119   4.026   0.704   0.488
 6025SOL     OW18120   5.252   0.230   1.727
 6025SOL    HW118121   5.267   0.234   1.825
 6025SOL    HW218122   5.164   0.184   1.709
 6026SOL     OW18123   4.346   0.123   0.103
 6026SOL    HW118124   4.445   0.111   0.115
 6026SOL    HW218125   4.327   0.145   0.008
 6027SOL     OW18126   4.486   0.277   1.767
 6027SOL    HW118127   4.575   0.232   1.759
 6027SOL    HW218128   4.433   0.232   1.839
 6028SOL     OW18129   4.598   1.514   1.193
 6028SOL    HW118130   4.579   1.478   1.102
 6028SOL    HW218131   4.671   1.461   1.235
 6029SOL     OW18132   5.066   0.591   1.437
 6029SOL    HW118133   5.095   0.556   1.526
 6029SOL    HW218134   5.100   0.684   1.424
 6030SOL     OW18135   4.543   1.388   0.943
 6030SOL    HW118136   4.633   1.377   0.900
 6030SOL    HW218137   4.474   1.395   0.871
 6031SOL     OW18138   4.651   0.510   0.895
 6031SOL    HW118139   4.623   0.504   0.800
 6031SOL    HW218140   4.684   0.421   0.926
 6032SOL     OW18141   4.278   0.067   0.495
 6032SOL    HW118142   4.197   0.056   0.552
 6032SOL    HW218143   4.264   0.142   0.431
 6033SOL     OW18144   5.142   1.212   0.011
 6033SOL    HW118145   5.173   1.133   0.065
 6033SOL    HW218146   5.061   1.252   0.053
 6034SOL     OW18147   4.041   0.070   0.198
 6034SOL    HW118148   4.090   0.157   0.208
 6034SOL    HW218149   4.073   0.006   0.268
 6035SOL     OW18150   4.675   0.265   0.458
 6035SOL    HW118151   4.643   0.305   0.372
 6035SOL    HW218152   4.774   0.272   0.463
 6036SOL     OW18153   4.804   0.684   1.453
 6036SOL    HW118154   4.730   0.619   1.465
 6036SOL    HW218155   4.892   0.636   1.453
 6037SOL     OW18156   4.942   1.567   0.797
 6037SOL    HW118157   4.955   1.637   0.726
 6037SOL    HW218158   5.015   1.574   0.864
 6038SOL     OW18159   4.196   1.153   0.731
 6038SOL    HW118160   4.125   1.131   0.799
 6038SOL    HW218161   4.157   1.145   0.639
 6039SOL     OW18162   4.979   1.784   0.612
 6039SOL    HW118163   5.037   1.847   0.561
 6039SOL    HW218164   4.906   1.835   0.657
 6040SOL     OW18165   4.778   0.559   0.035
 6040SOL    HW118166   4.690   0.605   0.049
 6040SOL    HW218167   4.833   0.566   0.118
 6041SOL     OW18168   3.816   0.552   1.398
 6041SOL    HW118169   3.909   0.552   1.361
 6041SOL    HW218170   3.806   0.626   1.464
 6042SOL     OW18171   4.294   0.242   1.176
 6042SOL    HW118172   4.347   0.171   1.223
 6042SOL    HW218173   4.199   0.237   1.205
 6043SOL     OW18174   4.590   0.463   0.637
 6043SOL    HW118175   4.544   0.525   0.573
 6043SOL    HW218176   4.618   0.380   0.589
 6044SOL     OW18177   4.681   0.027   0.770
 6044SOL    HW118178   4.624   0.028   0.689
 6044SOL    HW218179   4.754   6.959   0.759
 6045SOL     OW18180   5.171   1.161   0.860
 6045SOL    HW118181   5.095   1.096   0.861
 6045SOL    HW218182   5.205   1.171   0.766
 6046SOL     OW18183   5.190   0.610   0.970
 6046SOL    HW118184   5.129   0.531   0.971
 6046SOL    HW218185   5.253   0.604   1.048
 6047SOL     OW18186   5.550   0.803   0.392
 6047SOL    HW118187   5.612   0.744   0.443
 6047SOL    HW218188   5.546   0.773   0.297
 6048SOL     OW18189   4.197   1.428   0.153
 6048SOL    HW118190   4.138   1.378   0.216
 6048SOL    HW218191   4.158   1.424   0.060
 6049SOL     OW18192   5.397   1.265   0.653
 6049SOL    HW118193   5.497   1.262   0.662
 6049SOL    HW218194   5.365   1.359   0.667
 6050SOL     OW18195   5.113   0.555   0.064
 6050SOL    HW118196   5.058   0.547   0.148
 6050SOL    HW218197   5.187   0.487   0.067
 6051SOL     OW18198   4.233   0.262   0.304
 6051SOL    HW118199   4.286   0.208   0.239
 6051SOL    HW218200   4.214   0.352   0.265
 6052SOL     OW18201   5.476   1.241   1.559
 6052SOL    HW118202   5.566   1.199   1.544
 6052SOL    HW218203   5.488   1.334   1.593
 6053SOL     OW18204   4.777   1.350   1.336
 6053SOL    HW118205   4.695   1.320   1.386
 6053SOL    HW218206   4.858   1.310   1.378
 6054SOL     OW18207   5.338   1.630   1.658
 6054SOL    HW118208   5.322   1.665   1.565
 6054SOL    HW218209   5.423   1.578   1.659
 6055SOL     OW18210   4.862   1.222   1.105
 6055SOL    HW118211   4.802   1.255   1.177
 6055SOL    HW218212   4.828   1.252   1.016
 6056SOL     OW18213   5.347   1.096   1.080
 6056SOL    HW118214   5.342   1.162   1.155
 6056SOL    HW218215   5.272   1.113   1.015
 6057SOL     OW18216   4.617   0.151   1.387
 6057SOL    HW118217   4.634   0.118   1.294
 6057SOL    HW218218   4.704   0.178   1.429
 6058SOL     OW18219   4.703   1.115   1.721
 6058SOL    HW118220   4.609   1.134   1.748
 6058SOL    HW218221   4.705   1.032   1.665
 6059SOL     OW18222   4.438   1.058   0.376
 6059SOL    HW118223   4.419   1.041   0.472
 6059SOL    HW218224   4.518   1.005   0.348
 6060SOL     OW18225   4.148   0.817   1.254
 6060SOL    HW118226   4.221   0.829   1.321
 6060SOL    HW218227   4.109   0.726   1.263
 6061SOL     OW18228   4.984   0.378   1.287
 6061SOL    HW118229   5.021   0.457   1.336
 6061SOL    HW218230   4.889   0.396   1.261
 6062SOL     OW18231   3.799   1.572   1.354
 6062SOL    HW118232   3.763   1.641   1.291
 6062SOL    HW218233   3.899   1.570   1.347
 6063SOL     OW18234   4.091   1.121   0.484
 6063SOL    HW118235   4.069   1.197   0.423
 6063SOL    HW218236   4.087   1.035   0.433
 6064SOL     OW18237   4.276   0.546   0.860
 6064SOL    HW118238   4.291   0.605   0.781
 6064SOL    HW218239   4.346   0.565   0.929
 6065SOL     OW18240   4.969   1.346   0.406
 6065SOL    HW118241   5.026   1.422   0.437
 6065SOL    HW218242   4.874   1.362   0.432
 6066SOL     OW18243   5.013   1.462   1.147
 6066SOL    HW118244   5.071   1.468   1.229
 6066SOL    HW218245   4.959   1.378   1.151
 6067SOL     OW18246   5.308   0.633   0.485
 6067SOL    HW118247   5.251   0.681   0.552
 6067SOL    HW218248   5.370   0.698   0.441
 6068SOL     OW18249   4.072   1.530   1.309
 6068SOL    HW118250   4.056   1.485   1.221
 6068SOL    HW218251   4.170   1.544   1.322
 6069SOL     OW18252   4.143   0.744   1.602
 6069SOL    HW118253   4.206   0.793   1.541
 6069SOL    HW218254   4.182   0.655   1.625
 6070SOL     OW18255   5.333   0.786   1.686
 6070SOL    HW118256   5.242   0.827   1.683
 6070SOL    HW218257   5.390   0.826   1.614
 6071SOL     OW18258   4.722   0.137   1.733
 6071SOL    HW118259   4.766   0.179   1.654
 6071SOL    HW218260   4.722   0.037   1.722
 6072SOL     OW18261   4.187   0.037   1.759
 6072SOL    HW118262   4.119   6.964   1.745
 6072SOL    HW218263   4.140   0.125   1.767
 6073SOL     OW18264   4.308   0.874   1.033
 6073SOL    HW118265   4.344   0.967   1.031
 6073SOL    HW218266   4.248   0.863   1.113
 6074SOL     OW18267   5.073   0.857   1.024
 6074SOL    HW118268   4.983   0.849   0.982
 6074SOL    HW218269   5.122   0.771   1.015
 6075SOL     OW18270   4.923   0.523   0.272
 6075SOL    HW118271   4.940   0.443   0.331
 6075SOL    HW218272   4.880   0.595   0.326
 6076SOL     OW18273   4.033   0.208   1.246
 6076SOL    HW118274   3.969   0.216   1.323
 6076SOL    HW218275   4.023   0.117   1.205
 6077SOL     OW18276   3.776   1.310   1.275
 6077SOL    HW118277   3.808   1.248   1.347
 6077SOL    HW218278   3.779   1.404   1.308
 6078SOL     OW18279   4.452   0.636   1.054
 6078SOL    HW118280   4.527   0.616   0.991
 6078SOL    HW218281   4.415   0.727   1.033
 6079SOL     OW18282   5.461   0.961   1.858
 6079SOL    HW118283   5.418   0.892   1.799
 6079SOL    HW218284   5.401   0.980   1.935
 6080SOL     OW18285   4.042   0.060   0.627
 6080SOL    HW118286   4.021   0.153   0.656
 6080SOL    HW218287   3.992   6.995   0.684
 6081SOL     OW18288   5.352   0.400   0.352
 6081SOL    HW118289   5.383   0.324   0.410
 6081SOL    HW218290   5.326   0.477   0.410
 6082SOL     OW18291   4.749   0.756   0.958
 6082SOL    HW118292   4.743   0.778   1.055
 6082SOL    HW218293   4.721   0.661   0.943
 6083SOL     OW18294   4.705   1.563   1.718
 6083SOL    HW118295   4.688   1.610   1.632
 6083SOL    HW218296   4.753   1.477   1.700
 6084SOL     OW18297   5.578   1.503   1.603
 6084SOL    HW118298   5.597   1.529   1.509
 6084SOL    HW218299   5.661   1.514   1.658
 6085SOL     OW18300   4.077   0.918   1.804
 6085SOL    HW118301   4.156   0.940   1.861
 6085SOL    HW218302   4.104   0.852   1.734
 6086SOL     OW18303   5.245   0.268   0.138
 6086SOL    HW118304   5.174   0.202   0.159
 6086SOL    HW218305   5.276   0.313   0.222
 6087SOL     OW18306   5.015   0.820   0.032
 6087SOL    HW118307   5.064   0.733   0.022
 6087SOL    HW218308   5.040   0.881   6.957
 6088SOL     OW18309   4.793   1.337   0.856
 6088SOL    HW118310   4.798   1.259   0.793
 6088SOL    HW218311   4.852   1.411   0.822
 6089SOL     OW18312   4.036   0.810   0.942
 6089SOL    HW118313   4.132   0.836   0.938
 6089SOL    HW218314   4.029   0.715   0.974
 6090SOL     OW18315   4.059   0.540   1.011
 6090SOL    HW118316   4.016   0.450   1.000
 6090SOL    HW218317   4.140   0.546   0.953
 6091SOL     OW18318   4.849   0.414   1.672
 6091SOL    HW118319   4.801   0.455   1.750
 6091SOL    HW218320   4.947   0.435   1.680
 6092SOL     OW18321   4.857   0.225   1.488
 6092SOL    HW118322   4.857   0.302   1.553
 6092SOL    HW218323   4.915   0.249   1.409
 6093SOL     OW18324   3.818   1.783   0.944
 6093SOL    HW118325   3.780   1.702   0.898
 6093SOL    HW218326   3.911   1.799   0.912
 6094SOL     OW18327   4.217   1.576   0.904
 6094SOL    HW118328   4.287   1.642   0.931
 6094SOL    HW218329   4.257   1.508   0.843
 6095SOL     OW18330   4.697   0.794   1.223
 6095SOL    HW118331   4.757   0.769   1.300
 6095SOL    HW218332   4.608   0.751   1.236
 6096SOL     OW18333   3.760   0.550   1.121
 6096SOL    HW118334   3.837   0.534   1.060
 6096SOL    HW218335   3.791   0.552   1.216
 6097SOL     OW18336   3.909   0.531   1.730
 6097SOL    HW118337   3.988   0.498   1.679
 6097SOL    HW218338   3.869   0.610   1.683
 6098SOL     OW18339   5.105   0.935   1.654
 6098SOL    HW118340   5.128   1.032   1.655
 6098SOL    HW218341   5.101   0.902   1.560
 6099SOL     OW18342   4.540   0.579   0.375
 6099SOL    HW118343   4.552   0.500   0.316
 6099SOL    HW218344   4.460   0.631   0.346
 6100SOL     OW18345   5.366   0.605   1.180
 6100SOL    HW118346   5.347   0.544   1.257
 6100SOL    HW218347   5.457   0.586   1.144
 6101SOL     OW18348   3.963   1.546   1.725
 6101SOL    HW118349   3.942   1.621   1.789
 6101SOL    HW218350   3.970   1.460   1.776
 6102SOL     OW18351   4.435   0.460   1.254
 6102SOL    HW118352   4.378   0.382   1.229
 6102SOL    HW218353   4.434   0.527   1.180
 6103SOL     OW18354   4.642   1.681   1.473
 6103SOL    HW118355   4.617   1.634   1.388
 6103SOL    HW218356   4.643   1.780   1.457
 6104SOL     OW18357   4.175   0.499   0.182
 6104SOL    HW118358   4.242   0.569   0.209
 6104SOL    HW218359   4.083   0.538   0.184
 6105SOL     OW18360   3.865   1.138   1.476
 6105SOL    HW118361   3.867   1.094   1.566
 6105SOL    HW218362   3.885   1.070   1.405
 6106SOL     OW18363   5.038   1.043   1.219
 6106SOL    HW118364   5.066   0.976   1.150
 6106SOL    HW218365   4.972   1.106   1.178
 6107SOL     OW18366   5.025   0.846   0.306
 6107SOL    HW118367   4.944   0.815   0.356
 6107SOL    HW218368   5.013   0.825   0.209
 6108SOL     OW18369   5.506   1.728   1.158
 6108SOL    HW118370   5.567   1.762   1.087
 6108SOL    HW218371   5.474   1.637   1.134
 6109SOL     OW18372   4.965   1.733   1.104
 6109SOL    HW118373   5.051   1.762   1.062
 6109SOL    HW218374   4.971   1.636   1.128
 6110SOL     OW18375   3.810   1.266   1.010
 6110SOL    HW118376   3.793   1.280   1.107
 6110SOL    HW218377   3.739   1.206   0.972
 6111SOL     OW18378   4.405   1.674   1.738
 6111SOL    HW118379   4.342   1.752   1.732
 6111SOL    HW218380   4.479   1.687   1.671
 6112SOL     OW18381   4.615   0.111   0.131
 6112SOL    HW118382   4.705   0.137   0.095
 6112SOL    HW218383   4.624   0.032   0.190
 6113SOL     OW18384   5.442   0.177   0.482
 6113SOL    HW118385   5.519   0.148   0.424
 6113SOL    HW218386   5.427   0.110   0.554
 6114SOL     OW18387   5.114   1.562   0.492
 6114SOL    HW118388   5.179   1.593   0.422
 6114SOL    HW218389   5.059   1.640   0.524
 6115SOL     OW18390   3.870   1.787   1.846
 6115SOL    HW118391   3.813   1.718   1.891
 6115SOL    HW218392   3.919   1.840   1.915
 6116SOL     OW18393   5.006   0.925   0.670
 6116SOL    HW118394   5.081   0.860   0.686
 6116SOL    HW218395   5.041   1.003   0.618
 6117SOL     OW18396   4.526   1.279   1.425
 6117SOL    HW118397   4.497   1.323   1.510
 6117SOL    HW218398   4.456   1.294   1.355
 6118SOL     OW18399   4.398   1.606   0.192
 6118SOL    HW118400   4.403   1.656   0.105
 6118SOL    HW218401   4.340   1.526   0.180
 6119SOL     OW18402   5.340   1.729   1.387
 6119SOL    HW118403   5.398   1.729   1.306
 6119SOL    HW218404   5.326   1.823   1.418
 6120SOL     OW18405   5.591   0.160   0.956
 6120SOL    HW118406   5.589   0.060   0.949
 6120SOL    HW218407   5.500   0.196   0.939
 6121SOL     OW18408   3.982   0.313   0.714
 6121SOL    HW118409   3.892   0.347   0.687
 6121SOL    HW218410   3.989   0.312   0.814
 6122SOL     OW18411   4.943   1.598   0.041
 6122SOL    HW118412   4.937   1.503   0.071
 6122SOL    HW218413   4.857   1.625   6.996
 6123SOL     OW18414   4.547   1.010   1.379
 6123SOL    HW118415   4.598   0.993   1.295
 6123SOL    HW218416   4.544   1.108   1.397
 6124SOL     OW18417   4.648   0.914   0.294
 6124SOL    HW118418   4.703   0.942   0.215
 6124SOL    HW218419   4.696   0.842   0.344
 6125SOL     OW18420   5.211   1.655   0.042
 6125SOL    HW118421   5.114   1.633   0.041
 6125SOL    HW218422   5.243   1.671   6.948
 6126SOL     OW18423   4.089   1.303   1.487
 6126SOL    HW118424   4.080   1.383   1.428
 6126SOL    HW218425   4.009   1.244   1.476
 6127SOL     OW18426   5.336   1.284   1.284
 6127SOL    HW118427   5.400   1.265   1.359
 6127SOL    HW218428   5.270   1.354   1.314
 6128SOL     OW18429   4.787   1.106   0.715
 6128SOL    HW118430   4.710   1.057   0.755
 6128SOL    HW218431   4.855   1.041   0.683
 6129SOL     OW18432   4.748   0.249   0.952
 6129SOL    HW118433   4.726   0.202   0.866
 6129SOL    HW218434   4.738   0.186   1.028
 6130SOL     OW18435   4.338   1.477   0.485
 6130SOL    HW118436   4.377   1.425   0.409
 6130SOL    HW218437   4.276   1.547   0.450
 6131SOL     OW18438   5.458   0.392   1.376
 6131SOL    HW118439   5.527   0.464   1.381
 6131SOL    HW218440   5.494   0.314   1.323
 6132SOL     OW18441   4.003   1.319   0.309
 6132SOL    HW118442   3.920   1.303   0.257
 6132SOL    HW218443   3.982   1.372   0.391
 6133SOL     OW18444   3.839   1.036   1.730
 6133SOL    HW118445   3.757   1.008   1.780
 6133SOL    HW218446   3.919   0.990   1.767
 6134SOL     OW18447   4.394   0.239   1.509
 6134SOL    HW118448   4.474   0.214   1.456
 6134SOL    HW218449   4.422   0.271   1.600
 6135SOL     OW18450   3.836   0.339   0.034
 6135SOL    HW118451   3.782   0.281   6.973
 6135SOL    HW218452   3.878   0.413   6.981
 6136SOL     OW18453   5.147   0.857   1.395
 6136SOL    HW118454   5.091   0.920   1.341
 6136SOL    HW218455   5.241   0.858   1.360
 6137SOL     OW18456   3.794   0.168   0.304
 6137SOL    HW118457   3.782   0.251   0.249
 6137SOL    HW218458   3.875   0.118   0.273
 6138SOL     OW18459   4.909   1.344   0.128
 6138SOL    HW118460   4.812   1.330   0.110
 6138SOL    HW218461   4.927   1.333   0.225
 6139SOL     OW18462   4.348   0.830   1.434
 6139SOL    HW118463   4.405   0.911   1.419
 6139SOL    HW218464   4.407   0.750   1.445
 6140SOL     OW18465   5.210   1.791   0.988
 6140SOL    HW118466   5.233   1.856   0.916
 6140SOL    HW218467   5.293   1.752   1.027
 6141SOL     OW18468   4.444   0.557   1.706
 6141SOL    HW118469   4.490   0.627   1.761
 6141SOL    HW218470   4.464   0.467   1.745
 6142SOL     OW18471   5.198   1.196   1.634
 6142SOL    HW118472   5.183   1.209   1.732
 6142SOL    HW218473   5.294   1.215   1.612
 6143SOL     OW18474   4.094   1.738   1.567
 6143SOL    HW118475   4.010   1.791   1.552
 6143SOL    HW218476   4.071   1.650   1.609
 6144SOL     OW18477   5.389   0.878   1.256
 6144SOL    HW118478   5.384   0.787   1.214
 6144SOL    HW218479   5.376   0.948   1.185
 6145SOL     OW18480   4.949   0.317   0.454
 6145SOL    HW118481   5.019   0.246   0.443
 6145SOL    HW218482   4.969   0.371   0.536
 6146SOL     OW18483   4.312   0.736   0.665
 6146SOL    HW118484   4.351   0.827   0.657
 6146SOL    HW218485   4.242   0.723   0.596
 6147SOL     OW18486   5.472   0.369   1.648
 6147SOL    HW118487   5.464   0.384   1.550
 6147SOL    HW218488   5.399   0.308   1.679
 6148SOL     OW18489   5.478   0.932   1.509
 6148SOL    HW118490   5.465   1.028   1.531
 6148SOL    HW218491   5.456   0.916   1.413
 6149SOL     OW18492   4.629   1.383   0.055
 6149SOL    HW118493   4.568   1.359   0.130
 6149SOL    HW218494   4.631   1.483   0.045
 6150SOL     OW18495   4.389   1.784   0.942
 6150SOL    HW118496   4.366   1.879   0.920
 6150SOL    HW218497   4.488   1.770   0.930
 6151SOL     OW18498   4.593   0.971   0.857
 6151SOL    HW118499   4.645   0.893   0.893
 6151SOL    HW218500   4.550   1.021   0.932
 6152SOL     OW18501   4.803   0.982   0.079
 6152SOL    HW118502   4.803   1.043   7.000
 6152SOL    HW218503   4.883   0.922   0.075
 6153SOL     OW18504   5.569   1.557   0.846
 6153SOL    HW118505   5.492   1.543   0.784
 6153SOL    HW218506   5.570   1.484   0.915
 6154SOL     OW18507   3.956   1.298   1.857
 6154SOL    HW118508   3.891   1.231   1.822
 6154SOL    HW218509   3.941   1.311   1.955
 6155SOL     OW18510   3.807   1.233   0.665
 6155SOL    HW118511   3.827   1.183   0.749
 6155SOL    HW218512   3.852   1.188   0.588
 6156SOL     OW18513   4.407   1.410   1.634
 6156SOL    HW118514   4.326   1.360   1.666
 6156SOL    HW218515   4.406   1.503   1.671
 6157SOL     OW18516   5.574   0.183   1.245
 6157SOL    HW118517   5.494   0.124   1.236
 6157SOL    HW218518   5.607   0.209   1.154
 6158SOL     OW18519   4.154   0.426   0.525
 6158SOL    HW118520   4.186   0.355   0.462
 6158SOL    HW218521   4.100   0.385   0.598
 6159SOL     OW18522   5.415   1.483   1.095
 6159SOL    HW118523   5.335   1.465   1.037
 6159SOL    HW218524   5.423   1.411   1.164
 6160SOL     OW18525   4.059   0.559   1.287
 6160SOL    HW118526   4.116   0.501   1.346
 6160SOL    HW218527   4.076   0.537   1.192
 6161SOL     OW18528   4.552   1.579   0.680
 6161SOL    HW118529   4.539   1.640   0.601
 6161SOL    HW218530   4.476   1.515   0.686
 6162SOL     OW18531   5.138   0.217   1.129
 6162SOL    HW118532   5.219   0.172   1.167
 6162SOL    HW218533   5.089   0.265   1.202
 6163SOL     OW18534   4.699   0.056   1.138
 6163SOL    HW118535   4.643   6.994   1.083
 6163SOL    HW218536   4.753   0.004   1.204
 6164SOL     OW18537   4.509   1.318   0.308
 6164SOL    HW118538   4.475   1.226   0.328
 6164SOL    HW218539   4.585   1.339   0.369
 6165SOL     OW18540   4.347   1.559   1.290
 6165SOL    HW118541   4.344   1.646   1.339
 6165SOL    HW218542   4.438   1.547   1.250
 6166SOL     OW18543   5.070   0.058   0.155
 6166SOL    HW118544   5.082   6.960   0.137
 6166SOL    HW218545   4.976   0.084   0.133
 6167SOL     OW18546   4.990   0.452   0.686
 6167SOL    HW118547   4.946   0.541   0.683
 6167SOL    HW218548   5.010   0.429   0.782
 6168SOL     OW18549   5.344   0.255   0.913
 6168SOL    HW118550   5.256   0.240   0.958
 6168SOL    HW218551   5.333   0.322   0.839
 6169SOL     OW18552   3.812   1.052   0.364
 6169SOL    HW118553   3.898   1.027   0.320
 6169SOL    HW218554   3.756   0.970   0.375
 6170SOL     OW18555   4.612   1.663   0.354
 6170SOL    HW118556   4.537   1.635   0.295
 6170SOL    HW218557   4.584   1.743   0.408
 6171SOL     OW18558   3.943   0.620   1.991
 6171SOL    HW118559   3.853   0.618   2.035
 6171SOL    HW218560   3.932   0.599   1.894
 6172SOL     OW18561   3.945   0.304   2.859
 6172SOL    HW118562   3.986   0.266   2.942
 6172SOL    HW218563   3.863   0.252   2.836
 6173SOL     OW18564   3.734   0.396   2.489
 6173SOL    HW118565   3.645   0.413   2.532
 6173SOL    HW218566   3.724   0.324   2.420
 6174SOL     OW18567   4.293   1.299   3.049
 6174SOL    HW118568   4.203   1.296   3.005
 6174SOL    HW218569   4.311   1.391   3.083
 6175SOL     OW18570   5.290   1.514   2.569
 6175SOL    HW118571   5.247   1.489   2.656
 6175SOL    HW218572   5.220   1.521   2.498
 6176SOL     OW18573   4.858   0.703   2.556
 6176SOL    HW118574   4.910   0.787   2.540
 6176SOL    HW218575   4.807   0.712   2.642
 6177SOL     OW18576   5.494   0.601   2.083
 6177SOL    HW118577   5.472   0.598   1.985
 6177SOL    HW218578   5.456   0.521   2.129
 6178SOL     OW18579   4.466   1.140   2.903
 6178SOL    HW118580   4.399   1.175   2.969
 6178SOL    HW218581   4.511   1.216   2.857
 6179SOL     OW18582   4.598   0.764   3.683
 6179SOL    HW118583   4.586   0.832   3.755
 6179SOL    HW218584   4.622   0.809   3.598
 6180SOL     OW18585   4.408   0.999   2.510
 6180SOL    HW118586   4.479   0.989   2.580
 6180SOL    HW218587   4.333   1.055   2.547
 6181SOL     OW18588   4.435   1.153   3.681
 6181SOL    HW118589   4.488   1.231   3.714
 6181SOL    HW218590   4.351   1.185   3.638
 6182SOL     OW18591   4.051   1.422   2.928
 6182SOL    HW118592   3.974   1.377   2.882
 6182SOL    HW218593   4.103   1.475   2.861
 6183SOL     OW18594   5.181   1.502   3.221
 6183SOL    HW118595   5.239   1.583   3.228
 6183SOL    HW218596   5.110   1.506   3.291
 6184SOL     OW18597   4.168   0.398   3.343
 6184SOL    HW118598   4.254   0.347   3.351
 6184SOL    HW218599   4.091   0.334   3.350
 6185SOL     OW18600   5.341   0.457   2.591
 6185SOL    HW118601   5.283   0.487   2.516
 6185SOL    HW218602   5.346   0.530   2.660
 6186SOL     OW18603   3.946   1.714   2.333
 6186SOL    HW118604   3.964   1.793   2.393
 6186SOL    HW218605   4.021   1.704   2.268
 6187SOL     OW18606   4.861   1.340   3.560
 6187SOL    HW118607   4.908   1.338   3.648
 6187SOL    HW218608   4.805   1.258   3.550
 6188SOL     OW18609   3.958   1.444   2.398
 6188SOL    HW118610   3.941   1.542   2.397
 6188SOL    HW218611   3.898   1.400   2.465
 6189SOL     OW18612   3.995   1.091   2.763
 6189SOL    HW118613   3.991   0.996   2.795
 6189SOL    HW218614   3.932   1.147   2.817
 6190SOL     OW18615   4.321   1.797   3.288
 6190SOL    HW118616   4.238   1.773   3.338
 6190SOL    HW218617   4.353   1.887   3.317
 6191SOL     OW18618   4.305   0.988   2.004
 6191SOL    HW118619   4.352   1.034   1.929
 6191SOL    HW218620   4.345   1.016   2.092
 6192SOL     OW18621   5.302   0.132   3.308
 6192SOL    HW118622   5.316   0.227   3.278
 6192SOL    HW218623   5.325   0.125   3.405
 6193SOL     OW18624   3.838   0.662   2.426
 6193SOL    HW118625   3.812   0.567   2.444
 6193SOL    HW218626   3.833   0.714   2.511
 6194SOL     OW18627   5.570   1.755   2.194
 6194SOL    HW118628   5.641   1.725   2.258
 6194SOL    HW218629   5.586   1.851   2.170
 6195SOL     OW18630   3.754   1.590   1.985
 6195SOL    HW118631   3.737   1.493   2.004
 6195SOL    HW218632   3.733   1.643   2.066
 6196SOL     OW18633   5.415   0.920   2.510
 6196SOL    HW118634   5.500   0.870   2.494
 6196SOL    HW218635   5.392   0.974   2.428
 6197SOL     OW18636   5.377   1.104   2.294
 6197SOL    HW118637   5.466   1.100   2.249
 6197SOL    HW218638   5.380   1.171   2.368
 6198SOL     OW18639   3.846   0.749   3.444
 6198SOL    HW118640   3.942   0.778   3.446
 6198SOL    HW218641   3.787   0.830   3.443
 6199SOL     OW18642   4.336   1.391   2.595
 6199SOL    HW118643   4.291   1.303   2.608
 6199SOL    HW218644   4.323   1.423   2.501
 6200SOL     OW18645   5.012   1.234   3.283
 6200SOL    HW118646   5.038   1.164   3.218
 6200SOL    HW218647   5.072   1.230   3.363
 6201SOL     OW18648   4.547   0.030   2.383
 6201SOL    HW118649   4.587   0.119   2.362
 6201SOL    HW218650   4.447   0.039   2.384
 6202SOL     OW18651   3.914   0.961   3.140
 6202SOL    HW118652   4.004   0.919   3.126
 6202SOL    HW218653   3.846   0.915   3.083
 6203SOL     OW18654   5.256   1.001   2.067
 6203SOL    HW118655   5.182   0.941   2.096
 6203SOL    HW218656   5.303   1.038   2.147
 6204SOL     OW18657   4.905   1.812   3.485
 6204SOL    HW118658   4.913   1.881   3.413
 6204SOL    HW218659   4.926   1.722   3.447
 6205SOL     OW18660   4.044   0.270   3.652
 6205SOL    HW118661   4.108   0.336   3.692
 6205SOL    HW218662   3.958   0.272   3.701
 6206SOL     OW18663   5.189   1.420   2.808
 6206SOL    HW118664   5.123   1.440   2.880
 6206SOL    HW218665   5.181   1.325   2.780
 6207SOL     OW18666   5.373   1.751   2.437
 6207SOL    HW118667   5.356   1.722   2.344
 6207SOL    HW218668   5.353   1.676   2.500
 6208SOL     OW18669   4.317   0.718   2.134
 6208SOL    HW118670   4.322   0.804   2.084
 6208SOL    HW218671   4.248   0.725   2.207
 6209SOL     OW18672   5.006   0.369   2.811
 6209SOL    HW118673   4.909   0.344   2.814
 6209SOL    HW218674   5.056   0.317   2.881
 6210SOL     OW18675   5.307   1.673   2.170
 6210SOL    HW118676   5.403   1.700   2.166
 6210SOL    HW218677   5.274   1.656   2.077
 6211SOL     OW18678   4.517   0.616   3.317
 6211SOL    HW118679   4.490   0.589   3.410
 6211SOL    HW218680   4.480   0.550   3.251
 6212SOL     OW18681   5.118   0.474   3.543
 6212SOL    HW118682   5.117   0.520   3.631
 6212SOL    HW218683   5.174   0.392   3.549
 6213SOL     OW18684   4.677   0.885   3.446
 6213SOL    HW118685   4.735   0.813   3.407
 6213SOL    HW218686   4.622   0.927   3.373
 6214SOL     OW18687   4.719   0.411   3.088
 6214SOL    HW118688   4.632   0.433   3.132
 6214SOL    HW218689   4.702   0.362   3.003
 6215SOL     OW18690   4.775   0.699   2.286
 6215SOL    HW118691   4.797   0.694   2.384
 6215SOL    HW218692   4.688   0.652   2.269
 6216SOL     OW18693   3.812   0.829   2.642
 6216SOL    HW118694   3.898   0.816   2.692
 6216SOL    HW218695   3.763   0.908   2.680
 6217SOL     OW18696   3.852   1.874   3.450
 6217SOL    HW118697   3.857   1.846   3.546
 6217SOL    HW218698   3.767   1.839   3.410
 6218SOL     OW18699   4.613   0.355   2.062
 6218SOL    HW118700   4.660   0.416   1.998
 6218SOL    HW218701   4.586   0.272   2.015
 6219SOL     OW18702   5.424   0.572   3.687
 6219SOL    HW118703   5.389   0.652   3.638
 6219SOL    HW218704   5.452   0.502   3.621
 6220SOL     OW18705   5.104   1.143   2.395
 6220SOL    HW118706   5.189   1.128   2.344
 6220SOL    HW218707   5.048   1.210   2.347
 6221SOL     OW18708   4.225   0.189   2.775
 6221SOL    HW118709   4.266   0.220   2.861
 6221SOL    HW218710   4.250   0.252   2.701
 6222SOL     OW18711   4.718   1.443   2.325
 6222SOL    HW118712   4.687   1.524   2.275
 6222SOL    HW218713   4.701   1.456   2.423
 6223SOL     OW18714   4.080   1.814   2.733
 6223SOL    HW118715   4.124   1.725   2.740
 6223SOL    HW218716   4.146   1.886   2.752
 6224SOL     OW18717   5.522   1.056   2.735
 6224SOL    HW118718   5.471   1.033   2.652
 6224SOL    HW218719   5.459   1.062   2.812
 6225SOL     OW18720   4.950   1.536   3.376
 6225SOL    HW118721   4.938   1.462   3.442
 6225SOL    HW218722   4.882   1.528   3.304
 6226SOL     OW18723   4.045   0.959   2.117
 6226SOL    HW118724   4.133   0.980   2.074
 6226SOL    HW218725   4.009   0.874   2.080
 6227SOL     OW18726   5.208   0.751   2.585
 6227SOL    HW118727   5.201   0.708   2.675
 6227SOL    HW218728   5.287   0.811   2.582
 6228SOL     OW18729   4.193   1.266   3.593
 6228SOL    HW118730   4.167   1.272   3.496
 6228SOL    HW218731   4.111   1.263   3.649
 6229SOL     OW18732   4.846   1.776   2.088
 6229SOL    HW118733   4.766   1.739   2.136
 6229SOL    HW218734   4.876   1.711   2.018
 6230SOL     OW18735   3.916   0.271   3.376
 6230SOL    HW118736   3.858   0.351   3.361
 6230SOL    HW218737   3.940   0.265   3.472
 6231SOL     OW18738   5.348   1.382   1.951
 6231SOL    HW118739   5.310   1.473   1.935
 6231SOL    HW218740   5.279   1.313   1.932
 6232SOL     OW18741   4.188   1.734   2.180
 6232SOL    HW118742   4.230   1.797   2.246
 6232SOL    HW218743   4.259   1.698   2.120
 6233SOL     OW18744   5.149   0.133   2.287
 6233SOL    HW118745   5.128   0.089   2.200
 6233SOL    HW218746   5.248   0.139   2.298
 6234SOL     OW18747   3.982   1.791   3.087
 6234SOL    HW118748   4.033   1.718   3.133
 6234SOL    HW218749   3.964   1.765   2.993
 6235SOL     OW18750   4.660   1.702   2.758
 6235SOL    HW118751   4.743   1.656   2.789
 6235SOL    HW218752   4.618   1.650   2.684
 6236SOL     OW18753   4.120   0.686   2.337
 6236SOL    HW118754   4.139   0.589   2.350
 6236SOL    HW218755   4.023   0.703   2.354
 6237SOL     OW18756   5.252   0.230   3.588
 6237SOL    HW118757   5.267   0.235   3.687
 6237SOL    HW218758   5.165   0.184   3.571
 6238SOL     OW18759   4.370   0.110   1.964
 6238SOL    HW118760   4.408   0.036   2.019
 6238SOL    HW218761   4.306   0.072   1.897
 6239SOL     OW18762   4.487   0.277   3.630
 6239SOL    HW118763   4.575   0.233   3.621
 6239SOL    HW218764   4.433   0.232   3.701
 6240SOL     OW18765   4.598   1.514   3.055
 6240SOL    HW118766   4.579   1.478   2.963
 6240SOL    HW218767   4.671   1.460   3.097
 6241SOL     OW18768   5.066   0.591   3.299
 6241SOL    HW118769   5.095   0.556   3.388
 6241SOL    HW218770   5.100   0.684   3.287
 6242SOL     OW18771   4.544   1.388   2.804
 6242SOL    HW118772   4.634   1.377   2.762
 6242SOL    HW218773   4.475   1.395   2.732
 6243SOL     OW18774   4.651   0.511   2.756
 6243SOL    HW118775   4.623   0.505   2.660
 6243SOL    HW218776   4.683   0.421   2.787
 6244SOL     OW18777   4.279   0.067   2.355
 6244SOL    HW118778   4.198   0.056   2.412
 6244SOL    HW218779   4.265   0.142   2.291
 6245SOL     OW18780   5.149   1.199   1.905
 6245SOL    HW118781   5.183   1.122   1.958
 6245SOL    HW218782   5.061   1.228   1.941
 6246SOL     OW18783   4.037   0.049   2.047
 6246SOL    HW118784   4.075   0.141   2.050
 6246SOL    HW218785   4.085   6.991   2.113
 6247SOL     OW18786   4.674   0.266   2.318
 6247SOL    HW118787   4.644   0.301   2.229
 6247SOL    HW218788   4.773   0.274   2.325
 6248SOL     OW18789   4.804   0.685   3.315
 6248SOL    HW118790   4.729   0.619   3.327
 6248SOL    HW218791   4.891   0.636   3.315
 6249SOL     OW18792   4.943   1.570   2.656
 6249SOL    HW118793   4.957   1.640   2.586
 6249SOL    HW218794   5.015   1.578   2.726
 6250SOL     OW18795   4.193   1.152   2.589
 6250SOL    HW118796   4.127   1.132   2.661
 6250SOL    HW218797   4.150   1.140   2.500
 6251SOL     OW18798   4.986   1.791   2.473
 6251SOL    HW118799   5.038   1.853   2.414
 6251SOL    HW218800   4.913   1.842   2.518
 6252SOL     OW18801   4.741   0.536   1.896
 6252SOL    HW118802   4.698   0.622   1.872
 6252SOL    HW218803   4.813   0.552   1.964
 6253SOL     OW18804   3.816   0.552   3.259
 6253SOL    HW118805   3.909   0.552   3.223
 6253SOL    HW218806   3.806   0.626   3.326
 6254SOL     OW18807   4.295   0.243   3.038
 6254SOL    HW118808   4.347   0.170   3.083
 6254SOL    HW218809   4.199   0.237   3.068
 6255SOL     OW18810   4.590   0.466   2.497
 6255SOL    HW118811   4.539   0.526   2.435
 6255SOL    HW218812   4.618   0.383   2.447
 6256SOL     OW18813   4.682   0.027   2.632
 6256SOL    HW118814   4.624   0.029   2.550
 6256SOL    HW218815   4.753   6.958   2.621
 6257SOL     OW18816   5.170   1.161   2.720
 6257SOL    HW118817   5.093   1.096   2.724
 6257SOL    HW218818   5.199   1.171   2.625
 6258SOL     OW18819   5.190   0.609   2.831
 6258SOL    HW118820   5.129   0.531   2.832
 6258SOL    HW218821   5.253   0.604   2.908
 6259SOL     OW18822   5.565   0.809   2.242
 6259SOL    HW118823   5.623   0.761   2.308
 6259SOL    HW218824   5.536   0.745   2.171
 6260SOL     OW18825   4.211   1.421   2.017
 6260SOL    HW118826   4.130   1.394   2.070
 6260SOL    HW218827   4.210   1.374   1.928
 6261SOL     OW18828   5.400   1.267   2.505
 6261SOL    HW118829   5.499   1.264   2.517
 6261SOL    HW218830   5.366   1.359   2.525
 6262SOL     OW18831   5.115   0.576   1.933
 6262SOL    HW118832   5.051   0.552   2.007
 6262SOL    HW218833   5.209   0.562   1.965
 6263SOL     OW18834   4.245   0.262   2.163
 6263SOL    HW118835   4.303   0.213   2.098
 6263SOL    HW218836   4.221   0.352   2.126
 6264SOL     OW18837   5.476   1.241   3.420
 6264SOL    HW118838   5.566   1.199   3.407
 6264SOL    HW218839   5.488   1.334   3.455
 6265SOL     OW18840   4.777   1.350   3.198
 6265SOL    HW118841   4.695   1.320   3.248
 6265SOL    HW218842   4.858   1.310   3.240
 6266SOL     OW18843   5.338   1.630   3.520
 6266SOL    HW118844   5.322   1.665   3.427
 6266SOL    HW218845   5.423   1.578   3.521
 6267SOL     OW18846   4.862   1.221   2.967
 6267SOL    HW118847   4.802   1.255   3.039
 6267SOL    HW218848   4.829   1.252   2.878
 6268SOL     OW18849   5.347   1.097   2.941
 6268SOL    HW118850   5.343   1.162   3.017
 6268SOL    HW218851   5.272   1.113   2.878
 6269SOL     OW18852   4.617   0.151   3.249
 6269SOL    HW118853   4.633   0.118   3.156
 6269SOL    HW218854   4.704   0.178   3.291
 6270SOL     OW18855   4.703   1.115   3.583
 6270SOL    HW118856   4.609   1.134   3.610
 6270SOL    HW218857   4.705   1.032   3.527
 6271SOL     OW18858   4.437   1.059   2.235
 6271SOL    HW118859   4.420   1.041   2.332
 6271SOL    HW218860   4.516   1.005   2.205
 6272SOL     OW18861   4.148   0.817   3.116
 6272SOL    HW118862   4.221   0.829   3.183
 6272SOL    HW218863   4.109   0.726   3.125
 6273SOL     OW18864   4.984   0.378   3.149
 6273SOL    HW118865   5.021   0.457   3.198
 6273SOL    HW218866   4.889   0.396   3.123
 6274SOL     OW18867   3.799   1.572   3.215
 6274SOL    HW118868   3.763   1.642   3.154
 6274SOL    HW218869   3.899   1.570   3.209
 6275SOL     OW18870   4.064   1.120   2.349
 6275SOL    HW118871   4.069   1.202   2.292
 6275SOL    HW218872   4.062   1.039   2.290
 6276SOL     OW18873   4.276   0.546   2.723
 6276SOL    HW118874   4.290   0.606   2.644
 6276SOL    HW218875   4.347   0.565   2.791
 6277SOL     OW18876   4.970   1.355   2.255
 6277SOL    HW118877   5.031   1.427   2.286
 6277SOL    HW218878   4.876   1.375   2.285
 6278SOL     OW18879   5.013   1.462   3.009
 6278SOL    HW118880   5.071   1.468   3.091
 6278SOL    HW218881   4.959   1.378   3.013
 6279SOL     OW18882   5.296   0.622   2.348
 6279SOL    HW118883   5.247   0.675   2.417
 6279SOL    HW218884   5.348   0.683   2.288
 6280SOL     OW18885   4.072   1.530   3.171
 6280SOL    HW118886   4.056   1.485   3.083
 6280SOL    HW218887   4.170   1.544   3.184
 6281SOL     OW18888   4.143   0.744   3.464
 6281SOL    HW118889   4.206   0.792   3.403
 6281SOL    HW218890   4.182   0.654   3.486
 6282SOL     OW18891   5.333   0.786   3.548
 6282SOL    HW118892   5.242   0.827   3.545
 6282SOL    HW218893   5.390   0.826   3.476
 6283SOL     OW18894   4.722   0.137   3.595
 6283SOL    HW118895   4.766   0.179   3.516
 6283SOL    HW218896   4.722   0.037   3.584
 6284SOL     OW18897   4.187   0.037   3.621
 6284SOL    HW118898   4.119   6.965   3.606
 6284SOL    HW218899   4.140   0.125   3.629
 6285SOL     OW18900   4.308   0.874   2.895
 6285SOL    HW118901   4.345   0.967   2.894
 6285SOL    HW218902   4.248   0.862   2.975
 6286SOL     OW18903   5.073   0.858   2.884
 6286SOL    HW118904   4.981   0.848   2.846
 6286SOL    HW218905   5.122   0.771   2.876
 6287SOL     OW18906   4.922   0.527   2.125
 6287SOL    HW118907   4.934   0.444   2.180
 6287SOL    HW218908   4.877   0.597   2.181
 6288SOL     OW18909   4.033   0.208   3.109
 6288SOL    HW118910   3.969   0.216   3.185
 6288SOL    HW218911   4.024   0.117   3.067
 6289SOL     OW18912   3.777   1.310   3.137
 6289SOL    HW118913   3.808   1.248   3.209
 6289SOL    HW218914   3.779   1.404   3.170
 6290SOL     OW18915   4.453   0.637   2.916
 6290SOL    HW118916   4.527   0.616   2.853
 6290SOL    HW218917   4.415   0.727   2.895
 6291SOL     OW18918   5.461   0.961   3.719
 6291SOL    HW118919   5.418   0.892   3.661
 6291SOL    HW218920   5.401   0.981   3.797
 6292SOL     OW18921   4.046   0.059   2.492
 6292SOL    HW118922   4.022   0.153   2.519
 6292SOL    HW218923   3.999   6.995   2.552
 6293SOL     OW18924   5.351   0.394   2.204
 6293SOL    HW118925   5.380   0.316   2.259
 6293SOL    HW218926   5.319   0.467   2.265
 6294SOL     OW18927   4.749   0.756   2.820
 6294SOL    HW118928   4.743   0.778   2.917
 6294SOL    HW218929   4.721   0.662   2.804
 6295SOL     OW18930   4.705   1.563   3.580
 6295SOL    HW118931   4.688   1.610   3.494
 6295SOL    HW218932   4.753   1.477   3.562
 6296SOL     OW18933   5.578   1.503   3.465
 6296SOL    HW118934   5.597   1.529   3.371
 6296SOL    HW218935   5.661   1.514   3.520
 6297SOL     OW18936   4.077   0.918   3.666
 6297SOL    HW118937   4.156   0.940   3.723
 6297SOL    HW218938   4.104   0.852   3.596
 6298SOL     OW18939   5.263   0.233   1.997
 6298SOL    HW118940   5.163   0.232   2.003
 6298SOL    HW218941   5.301   0.292   2.068
 6299SOL     OW18942   5.012   0.826   1.887
 6299SOL    HW118943   5.052   0.735   1.895
 6299SOL    HW218944   5.043   0.869   1.802
 6300SOL     OW18945   4.795   1.338   2.717
 6300SOL    HW118946   4.799   1.260   2.655
 6300SOL    HW218947   4.853   1.412   2.683
 6301SOL     OW18948   4.036   0.810   2.804
 6301SOL    HW118949   4.132   0.836   2.798
 6301SOL    HW218950   4.029   0.715   2.836
 6302SOL     OW18951   4.058   0.540   2.873
 6302SOL    HW118952   4.015   0.451   2.862
 6302SOL    HW218953   4.139   0.546   2.815
 6303SOL     OW18954   4.849   0.414   3.534
 6303SOL    HW118955   4.801   0.455   3.611
 6303SOL    HW218956   4.947   0.435   3.542
 6304SOL     OW18957   4.857   0.225   3.350
 6304SOL    HW118958   4.857   0.302   3.415
 6304SOL    HW218959   4.915   0.249   3.271
 6305SOL     OW18960   3.724   1.314   2.057
 6305SOL    HW118961   3.635   1.334   2.017
 6305SOL    HW218962   3.725   1.221   2.092
 6306SOL     OW18963   3.818   1.782   2.806
 6306SOL    HW118964   3.781   1.702   2.760
 6306SOL    HW218965   3.911   1.800   2.774
 6307SOL     OW18966   4.217   1.576   2.767
 6307SOL    HW118967   4.287   1.642   2.793
 6307SOL    HW218968   4.257   1.509   2.704
 6308SOL     OW18969   4.697   0.794   3.085
 6308SOL    HW118970   4.757   0.769   3.162
 6308SOL    HW218971   4.608   0.750   3.097
 6309SOL     OW18972   3.759   0.551   2.983
 6309SOL    HW118973   3.837   0.533   2.922
 6309SOL    HW218974   3.791   0.552   3.078
 6310SOL     OW18975   3.909   0.531   3.592
 6310SOL    HW118976   3.988   0.498   3.541
 6310SOL    HW218977   3.869   0.609   3.545
 6311SOL     OW18978   5.105   0.935   3.516
 6311SOL    HW118979   5.128   1.032   3.517
 6311SOL    HW218980   5.101   0.902   3.422
 6312SOL     OW18981   4.541   0.577   2.223
 6312SOL    HW118982   4.551   0.496   2.165
 6312SOL    HW218983   4.462   0.630   2.192
 6313SOL     OW18984   5.365   0.605   3.041
 6313SOL    HW118985   5.346   0.545   3.118
 6313SOL    HW218986   5.457   0.587   3.006
 6314SOL     OW18987   3.963   1.546   3.587
 6314SOL    HW118988   3.942   1.621   3.650
 6314SOL    HW218989   3.970   1.460   3.638
 6315SOL     OW18990   4.435   0.460   3.117
 6315SOL    HW118991   4.379   0.382   3.091
 6315SOL    HW218992   4.434   0.528   3.042
 6316SOL     OW18993   4.643   1.681   3.334
 6316SOL    HW118994   4.617   1.634   3.250
 6316SOL    HW218995   4.643   1.779   3.319
 6317SOL     OW18996   4.182   0.495   2.040
 6317SOL    HW118997   4.247   0.566   2.067
 6317SOL    HW218998   4.091   0.535   2.030
 6318SOL     OW18999   3.865   1.138   3.338
 6318SOL    HW119000   3.867   1.094   3.428
 6318SOL    HW219001   3.885   1.070   3.267
 6319SOL     OW19002   5.039   1.043   3.080
 6319SOL    HW119003   5.066   0.975   3.012
 6319SOL    HW219004   4.972   1.106   3.040
 6320SOL     OW19005   5.041   0.856   2.160
 6320SOL    HW119006   4.964   0.829   2.219
 6320SOL    HW219007   5.015   0.844   2.064
 6321SOL     OW19008   5.505   1.728   3.020
 6321SOL    HW119009   5.566   1.762   2.948
 6321SOL    HW219010   5.473   1.636   2.995
 6322SOL     OW19011   4.965   1.733   2.966
 6322SOL    HW119012   5.051   1.762   2.924
 6322SOL    HW219013   4.971   1.636   2.990
 6323SOL     OW19014   3.811   1.264   2.872
 6323SOL    HW119015   3.795   1.279   2.970
 6323SOL    HW219016   3.738   1.206   2.835
 6324SOL     OW19017   4.405   1.675   3.600
 6324SOL    HW119018   4.342   1.752   3.594
 6324SOL    HW219019   4.479   1.687   3.533
 6325SOL     OW19020   5.429   0.167   2.331
 6325SOL    HW119021   5.514   0.150   2.281
 6325SOL    HW219022   5.426   0.110   2.412
 6326SOL     OW19023   5.120   1.571   2.350
 6326SOL    HW119024   5.182   1.603   2.279
 6326SOL    HW219025   5.064   1.647   2.383
 6327SOL     OW19026   3.870   1.786   3.708
 6327SOL    HW119027   3.813   1.718   3.753
 6327SOL    HW219028   3.919   1.840   3.776
 6328SOL     OW19029   5.006   0.929   2.527
 6328SOL    HW119030   5.081   0.865   2.545
 6328SOL    HW219031   5.040   1.005   2.473
 6329SOL     OW19032   4.526   1.279   3.287
 6329SOL    HW119033   4.497   1.323   3.372
 6329SOL    HW219034   4.456   1.294   3.217
 6330SOL     OW19035   4.392   1.622   2.016
 6330SOL    HW119036   4.409   1.641   1.919
 6330SOL    HW219037   4.334   1.541   2.025
 6331SOL     OW19038   5.340   1.729   3.249
 6331SOL    HW119039   5.398   1.729   3.168
 6331SOL    HW219040   5.326   1.823   3.280
 6332SOL     OW19041   5.591   0.160   2.819
 6332SOL    HW119042   5.589   0.060   2.810
 6332SOL    HW219043   5.500   0.197   2.802
 6333SOL     OW19044   3.983   0.312   2.577
 6333SOL    HW119045   3.894   0.349   2.550
 6333SOL    HW219046   3.989   0.311   2.677
 6334SOL     OW19047   4.933   1.600   1.895
 6334SOL    HW119048   4.923   1.506   1.928
 6334SOL    HW219049   4.866   1.617   1.823
 6335SOL     OW19050   4.547   1.010   3.241
 6335SOL    HW119051   4.598   0.993   3.157
 6335SOL    HW219052   4.544   1.108   3.259
 6336SOL     OW19053   4.644   0.911   2.149
 6336SOL    HW119054   4.705   0.946   2.078
 6336SOL    HW219055   4.691   0.839   2.201
 6337SOL     OW19056   5.212   1.631   1.904
 6337SOL    HW119057   5.113   1.619   1.893
 6337SOL    HW219058   5.256   1.636   1.815
 6338SOL     OW19059   4.089   1.303   3.349
 6338SOL    HW119060   4.080   1.384   3.290
 6338SOL    HW219061   4.009   1.244   3.338
 6339SOL     OW19062   5.337   1.285   3.147
 6339SOL    HW119063   5.399   1.265   3.222
 6339SOL    HW219064   5.271   1.354   3.176
 6340SOL     OW19065   4.787   1.107   2.578
 6340SOL    HW119066   4.710   1.057   2.617
 6340SOL    HW219067   4.855   1.042   2.545
 6341SOL     OW19068   4.748   0.249   2.813
 6341SOL    HW119069   4.726   0.202   2.728
 6341SOL    HW219070   4.738   0.186   2.890
 6342SOL     OW19071   4.329   1.486   2.341
 6342SOL    HW119072   4.381   1.432   2.275
 6342SOL    HW219073   4.254   1.533   2.295
 6343SOL     OW19074   5.458   0.392   3.238
 6343SOL    HW119075   5.527   0.464   3.243
 6343SOL    HW219076   5.494   0.315   3.185
 6344SOL     OW19077   3.977   1.348   2.150
 6344SOL    HW119078   3.881   1.341   2.123
 6344SOL    HW219079   3.982   1.387   2.242
 6345SOL     OW19080   3.839   1.036   3.591
 6345SOL    HW119081   3.757   1.008   3.641
 6345SOL    HW219082   3.919   0.990   3.629
 6346SOL     OW19083   4.394   0.239   3.372
 6346SOL    HW119084   4.474   0.214   3.318
 6346SOL    HW219085   4.422   0.271   3.462
 6347SOL     OW19086   3.800   0.333   1.896
 6347SOL    HW119087   3.704   0.310   1.878
 6347SOL    HW219088   3.825   0.413   1.842
 6348SOL     OW19089   5.147   0.857   3.257
 6348SOL    HW119090   5.091   0.921   3.203
 6348SOL    HW219091   5.241   0.858   3.222
 6349SOL     OW19092   3.795   0.178   2.178
 6349SOL    HW119093   3.800   0.248   2.107
 6349SOL    HW219094   3.844   0.096   2.147
 6350SOL     OW19095   4.904   1.337   1.983
 6350SOL    HW119096   4.809   1.307   1.976
 6350SOL    HW219097   4.932   1.338   2.079
 6351SOL     OW19098   4.348   0.830   3.296
 6351SOL    HW119099   4.405   0.911   3.281
 6351SOL    HW219100   4.407   0.750   3.307
 6352SOL     OW19101   5.209   1.790   2.851
 6352SOL    HW119102   5.230   1.853   2.776
 6352SOL    HW219103   5.294   1.754   2.889
 6353SOL     OW19104   4.444   0.557   3.569
 6353SOL    HW119105   4.490   0.627   3.624
 6353SOL    HW219106   4.464   0.467   3.607
 6354SOL     OW19107   5.198   1.195   3.496
 6354SOL    HW119108   5.183   1.209   3.594
 6354SOL    HW219109   5.294   1.215   3.474
 6355SOL     OW19110   4.094   1.738   3.429
 6355SOL    HW119111   4.010   1.791   3.414
 6355SOL    HW219112   4.071   1.650   3.471
 6356SOL     OW19113   5.389   0.878   3.118
 6356SOL    HW119114   5.384   0.787   3.077
 6356SOL    HW219115   5.376   0.948   3.047
 6357SOL     OW19116   4.949   0.319   2.318
 6357SOL    HW119117   5.019   0.248   2.310
 6357SOL    HW219118   4.967   0.376   2.398
 6358SOL     OW19119   4.312   0.737   2.529
 6358SOL    HW119120   4.352   0.828   2.518
 6358SOL    HW219121   4.242   0.723   2.459
 6359SOL     OW19122   5.472   0.369   3.510
 6359SOL    HW119123   5.464   0.384   3.411
 6359SOL    HW219124   5.400   0.308   3.541
 6360SOL     OW19125   5.477   0.932   3.371
 6360SOL    HW119126   5.464   1.029   3.393
 6360SOL    HW219127   5.455   0.916   3.275
 6361SOL     OW19128   4.591   1.363   1.907
 6361SOL    HW119129   4.550   1.387   1.995
 6361SOL    HW219130   4.606   1.446   1.853
 6362SOL     OW19131   4.389   1.784   2.803
 6362SOL    HW119132   4.366   1.878   2.783
 6362SOL    HW219133   4.488   1.770   2.792
 6363SOL     OW19134   4.593   0.971   2.718
 6363SOL    HW119135   4.645   0.893   2.754
 6363SOL    HW219136   4.550   1.021   2.793
 6364SOL     OW19137   4.801   0.989   1.946
 6364SOL    HW119138   4.774   1.043   1.866
 6364SOL    HW219139   4.879   0.931   1.921
 6365SOL     OW19140   5.569   1.556   2.709
 6365SOL    HW119141   5.492   1.545   2.646
 6365SOL    HW219142   5.564   1.487   2.781
 6366SOL     OW19143   3.956   1.298   3.719
 6366SOL    HW119144   3.891   1.231   3.684
 6366SOL    HW219145   3.941   1.311   3.817
 6367SOL     OW19146   3.812   1.229   2.525
 6367SOL    HW119147   3.818   1.184   2.614
 6367SOL    HW219148   3.880   1.189   2.463
 6368SOL     OW19149   4.407   1.410   3.496
 6368SOL    HW119150   4.326   1.360   3.528
 6368SOL    HW219151   4.406   1.503   3.533
 6369SOL     OW19152   5.574   0.183   3.107
 6369SOL    HW119153   5.494   0.124   3.099
 6369SOL    HW219154   5.606   0.208   3.016
 6370SOL     OW19155   4.154   0.425   2.386
 6370SOL    HW119156   4.189   0.355   2.324
 6370SOL    HW219157   4.101   0.383   2.459
 6371SOL     OW19158   5.417   1.482   2.956
 6371SOL    HW119159   5.336   1.465   2.899
 6371SOL    HW219160   5.424   1.411   3.026
 6372SOL     OW19161   4.059   0.559   3.149
 6372SOL    HW119162   4.116   0.501   3.208
 6372SOL    HW219163   4.076   0.537   3.054
 6373SOL     OW19164   4.553   1.580   2.540
 6373SOL    HW119165   4.538   1.643   2.464
 6373SOL    HW219166   4.476   1.516   2.546
 6374SOL     OW19167   5.137   0.217   2.991
 6374SOL    HW119168   5.218   0.172   3.029
 6374SOL    HW219169   5.089   0.265   3.064
 6375SOL     OW19170   4.699   0.056   3.000
 6375SOL    HW119171   4.643   6.994   2.945
 6375SOL    HW219172   4.753   0.004   3.065
 6376SOL     OW19173   4.499   1.331   2.184
 6376SOL    HW119174   4.471   1.236   2.192
 6376SOL    HW219175   4.583   1.347   2.234
 6377SOL     OW19176   4.347   1.559   3.152
 6377SOL    HW119177   4.344   1.646   3.201
 6377SOL    HW219178   4.438   1.547   3.112
 6378SOL     OW19179   5.044   0.013   2.055
 6378SOL    HW119180   5.091   6.944   2.001
 6378SOL    HW219181   4.967   6.972   2.103
 6379SOL     OW19182   4.991   0.454   2.549
 6379SOL    HW119183   4.946   0.544   2.546
 6379SOL    HW219184   5.010   0.430   2.644
 6380SOL     OW19185   5.344   0.257   2.777
 6380SOL    HW119186   5.256   0.238   2.820
 6380SOL    HW219187   5.332   0.321   2.701
 6381SOL     OW19188   3.767   1.063   2.170
 6381SOL    HW119189   3.865   1.063   2.151
 6381SOL    HW219190   3.737   0.970   2.192
 6382SOL     OW19191   4.609   1.664   2.202
 6382SOL    HW119192   4.533   1.642   2.139
 6382SOL    HW219193   4.583   1.741   2.260
 6383SOL     OW19194   3.943   0.620   3.853
 6383SOL    HW119195   3.853   0.618   3.897
 6383SOL    HW219196   3.932   0.599   3.756
 6384SOL     OW19197   3.945   0.304   4.721
 6384SOL    HW119198   3.986   0.266   4.804
 6384SOL    HW219199   3.863   0.252   4.698
 6385SOL     OW19200   3.734   0.396   4.351
 6385SOL    HW119201   3.645   0.413   4.394
 6385SOL    HW219202   3.724   0.324   4.282
 6386SOL     OW19203   4.293   1.299   4.911
 6386SOL    HW119204   4.203   1.296   4.868
 6386SOL    HW219205   4.311   1.391   4.945
 6387SOL     OW19206   5.290   1.514   4.431
 6387SOL    HW119207   5.247   1.489   4.518
 6387SOL    HW219208   5.220   1.521   4.361
 6388SOL     OW19209   4.858   0.703   4.418
 6388SOL    HW119210   4.910   0.787   4.402
 6388SOL    HW219211   4.807   0.712   4.504
 6389SOL     OW19212   5.494   0.601   3.945
 6389SOL    HW119213   5.472   0.598   3.847
 6389SOL    HW219214   5.456   0.521   3.991
 6390SOL     OW19215   4.466   1.140   4.765
 6390SOL    HW119216   4.399   1.175   4.831
 6390SOL    HW219217   4.511   1.216   4.719
 6391SOL     OW19218   4.597   0.764   5.545
 6391SOL    HW119219   4.587   0.832   5.617
 6391SOL    HW219220   4.622   0.809   5.460
 6392SOL     OW19221   4.408   0.999   4.372
 6392SOL    HW119222   4.479   0.989   4.442
 6392SOL    HW219223   4.333   1.055   4.409
 6393SOL     OW19224   4.435   1.153   5.543
 6393SOL    HW119225   4.488   1.231   5.576
 6393SOL    HW219226   4.351   1.185   5.500
 6394SOL     OW19227   4.051   1.422   4.790
 6394SOL    HW119228   3.974   1.377   4.744
 6394SOL    HW219229   4.103   1.475   4.723
 6395SOL     OW19230   5.181   1.502   5.083
 6395SOL    HW119231   5.239   1.583   5.090
 6395SOL    HW219232   5.110   1.506   5.153
 6396SOL     OW19233   4.168   0.398   5.205
 6396SOL    HW119234   4.254   0.347   5.213
 6396SOL    HW219235   4.091   0.334   5.212
 6397SOL     OW19236   5.341   0.457   4.453
 6397SOL    HW119237   5.282   0.487   4.378
 6397SOL    HW219238   5.346   0.530   4.522
 6398SOL     OW19239   3.946   1.714   4.195
 6398SOL    HW119240   3.964   1.793   4.255
 6398SOL    HW219241   4.021   1.704   4.130
 6399SOL     OW19242   4.861   1.340   5.422
 6399SOL    HW119243   4.908   1.338   5.510
 6399SOL    HW219244   4.805   1.258   5.412
 6400SOL     OW19245   3.958   1.444   4.260
 6400SOL    HW119246   3.941   1.542   4.259
 6400SOL    HW219247   3.898   1.400   4.327
 6401SOL     OW19248   3.995   1.091   4.625
 6401SOL    HW119249   3.991   0.996   4.657
 6401SOL    HW219250   3.932   1.147   4.679
 6402SOL     OW19251   4.321   1.797   5.150
 6402SOL    HW119252   4.238   1.773   5.200
 6402SOL    HW219253   4.353   1.887   5.178
 6403SOL     OW19254   4.305   0.988   3.866
 6403SOL    HW119255   4.352   1.034   3.791
 6403SOL    HW219256   4.345   1.016   3.954
 6404SOL     OW19257   5.302   0.132   5.170
 6404SOL    HW119258   5.316   0.227   5.140
 6404SOL    HW219259   5.325   0.125   5.267
 6405SOL     OW19260   3.839   0.662   4.288
 6405SOL    HW119261   3.812   0.567   4.306
 6405SOL    HW219262   3.833   0.714   4.373
 6406SOL     OW19263   5.570   1.755   4.056
 6406SOL    HW119264   5.641   1.725   4.120
 6406SOL    HW219265   5.586   1.851   4.032
 6407SOL     OW19266   3.754   1.590   3.847
 6407SOL    HW119267   3.737   1.493   3.866
 6407SOL    HW219268   3.733   1.643   3.928
 6408SOL     OW19269   5.415   0.920   4.372
 6408SOL    HW119270   5.500   0.870   4.356
 6408SOL    HW219271   5.392   0.974   4.290
 6409SOL     OW19272   5.378   1.104   4.156
 6409SOL    HW119273   5.467   1.100   4.111
 6409SOL    HW219274   5.381   1.171   4.230
 6410SOL     OW19275   3.846   0.749   5.306
 6410SOL    HW119276   3.942   0.778   5.308
 6410SOL    HW219277   3.787   0.830   5.306
 6411SOL     OW19278   4.336   1.391   4.457
 6411SOL    HW119279   4.291   1.303   4.470
 6411SOL    HW219280   4.323   1.423   4.363
 6412SOL     OW19281   5.012   1.234   5.145
 6412SOL    HW119282   5.038   1.164   5.080
 6412SOL    HW219283   5.072   1.230   5.225
 6413SOL     OW19284   4.547   0.030   4.245
 6413SOL    HW119285   4.587   0.119   4.224
 6413SOL    HW219286   4.447   0.039   4.246
 6414SOL     OW19287   3.914   0.961   5.002
 6414SOL    HW119288   4.004   0.919   4.988
 6414SOL    HW219289   3.846   0.915   4.945
 6415SOL     OW19290   5.256   1.001   3.929
 6415SOL    HW119291   5.182   0.941   3.958
 6415SOL    HW219292   5.303   1.038   4.009
 6416SOL     OW19293   4.905   1.812   5.347
 6416SOL    HW119294   4.913   1.881   5.274
 6416SOL    HW219295   4.926   1.722   5.309
 6417SOL     OW19296   4.044   0.270   5.513
 6417SOL    HW119297   4.108   0.336   5.554
 6417SOL    HW219298   3.958   0.272   5.563
 6418SOL     OW19299   5.189   1.420   4.670
 6418SOL    HW119300   5.123   1.440   4.742
 6418SOL    HW219301   5.181   1.325   4.642
 6419SOL     OW19302   5.373   1.751   4.299
 6419SOL    HW119303   5.355   1.722   4.205
 6419SOL    HW219304   5.353   1.676   4.362
 6420SOL     OW19305   4.317   0.718   3.996
 6420SOL    HW119306   4.322   0.804   3.947
 6420SOL    HW219307   4.248   0.725   4.069
 6421SOL     OW19308   5.006   0.369   4.673
 6421SOL    HW119309   4.909   0.344   4.676
 6421SOL    HW219310   5.056   0.317   4.743
 6422SOL     OW19311   5.307   1.673   4.032
 6422SOL    HW119312   5.403   1.700   4.028
 6422SOL    HW219313   5.274   1.656   3.939
 6423SOL     OW19314   4.517   0.616   5.179
 6423SOL    HW119315   4.490   0.589   5.272
 6423SOL    HW219316   4.480   0.550   5.113
 6424SOL     OW19317   5.118   0.474   5.405
 6424SOL    HW119318   5.117   0.520   5.494
 6424SOL    HW219319   5.174   0.391   5.411
 6425SOL     OW19320   4.677   0.885   5.308
 6425SOL    HW119321   4.735   0.813   5.269
 6425SOL    HW219322   4.622   0.927   5.235
 6426SOL     OW19323   4.719   0.411   4.950
 6426SOL    HW119324   4.632   0.434   4.994
 6426SOL    HW219325   4.702   0.361   4.865
 6427SOL     OW19326   4.775   0.699   4.148
 6427SOL    HW119327   4.797   0.694   4.246
 6427SOL    HW219328   4.688   0.652   4.131
 6428SOL     OW19329   3.812   0.829   4.504
 6428SOL    HW119330   3.898   0.816   4.554
 6428SOL    HW219331   3.763   0.908   4.542
 6429SOL     OW19332   3.852   1.874   5.313
 6429SOL    HW119333   3.857   1.846   5.409
 6429SOL    HW219334   3.767   1.839   5.272
 6430SOL     OW19335   4.613   0.355   3.924
 6430SOL    HW119336   4.660   0.416   3.860
 6430SOL    HW219337   4.585   0.272   3.877
 6431SOL     OW19338   5.424   0.572   5.549
 6431SOL    HW119339   5.389   0.652   5.500
 6431SOL    HW219340   5.452   0.502   5.483
 6432SOL     OW19341   5.104   1.143   4.257
 6432SOL    HW119342   5.189   1.128   4.206
 6432SOL    HW219343   5.048   1.210   4.209
 6433SOL     OW19344   4.225   0.189   4.637
 6433SOL    HW119345   4.266   0.220   4.723
 6433SOL    HW219346   4.250   0.252   4.564
 6434SOL     OW19347   4.718   1.443   4.187
 6434SOL    HW119348   4.687   1.524   4.137
 6434SOL    HW219349   4.701   1.456   4.285
 6435SOL     OW19350   4.080   1.814   4.595
 6435SOL    HW119351   4.124   1.725   4.602
 6435SOL    HW219352   4.146   1.886   4.614
 6436SOL     OW19353   5.522   1.056   4.596
 6436SOL    HW119354   5.471   1.033   4.514
 6436SOL    HW219355   5.459   1.062   4.674
 6437SOL     OW19356   4.950   1.536   5.238
 6437SOL    HW119357   4.938   1.462   5.304
 6437SOL    HW219358   4.882   1.528   5.166
 6438SOL     OW19359   4.044   0.959   3.979
 6438SOL    HW119360   4.133   0.980   3.936
 6438SOL    HW219361   4.009   0.874   3.942
 6439SOL     OW19362   5.208   0.751   4.447
 6439SOL    HW119363   5.201   0.708   4.537
 6439SOL    HW219364   5.287   0.811   4.445
 6440SOL     OW19365   4.193   1.265   5.455
 6440SOL    HW119366   4.167   1.272   5.358
 6440SOL    HW219367   4.111   1.263   5.511
 6441SOL     OW19368   4.846   1.776   3.950
 6441SOL    HW119369   4.766   1.739   3.998
 6441SOL    HW219370   4.876   1.711   3.880
 6442SOL     OW19371   3.916   0.271   5.238
 6442SOL    HW119372   3.858   0.351   5.223
 6442SOL    HW219373   3.940   0.265   5.334
 6443SOL     OW19374   5.348   1.382   3.813
 6443SOL    HW119375   5.310   1.473   3.797
 6443SOL    HW219376   5.279   1.313   3.794
 6444SOL     OW19377   4.188   1.735   4.042
 6444SOL    HW119378   4.230   1.797   4.108
 6444SOL    HW219379   4.259   1.698   3.982
 6445SOL     OW19380   5.149   0.133   4.149
 6445SOL    HW119381   5.128   0.088   4.062
 6445SOL    HW219382   5.248   0.139   4.160
 6446SOL     OW19383   3.982   1.791   4.949
 6446SOL    HW119384   4.033   1.718   4.995
 6446SOL    HW219385   3.964   1.765   4.855
 6447SOL     OW19386   4.660   1.702   4.620
 6447SOL    HW119387   4.743   1.656   4.651
 6447SOL    HW219388   4.618   1.650   4.546
 6448SOL     OW19389   4.120   0.686   4.199
 6448SOL    HW119390   4.139   0.589   4.212
 6448SOL    HW219391   4.023   0.703   4.217
 6449SOL     OW19392   5.252   0.230   5.451
 6449SOL    HW119393   5.267   0.235   5.549
 6449SOL    HW219394   5.164   0.184   5.433
 6450SOL     OW19395   4.370   0.110   3.826
 6450SOL    HW119396   4.408   0.036   3.881
 6450SOL    HW219397   4.306   0.072   3.759
 6451SOL     OW19398   4.486   0.277   5.492
 6451SOL    HW119399   4.575   0.233   5.483
 6451SOL    HW219400   4.433   0.232   5.563
 6452SOL     OW19401   4.598   1.514   4.917
 6452SOL    HW119402   4.579   1.478   4.826
 6452SOL    HW219403   4.671   1.460   4.959
 6453SOL     OW19404   5.066   0.591   5.161
 6453SOL    HW119405   5.095   0.556   5.251
 6453SOL    HW219406   5.100   0.684   5.149
 6454SOL     OW19407   4.544   1.388   4.666
 6454SOL    HW119408   4.634   1.377   4.624
 6454SOL    HW219409   4.475   1.395   4.594
 6455SOL     OW19410   4.651   0.511   4.618
 6455SOL    HW119411   4.623   0.505   4.522
 6455SOL    HW219412   4.683   0.421   4.649
 6456SOL     OW19413   4.279   0.067   4.217
 6456SOL    HW119414   4.198   0.056   4.274
 6456SOL    HW219415   4.265   0.142   4.153
 6457SOL     OW19416   5.149   1.199   3.767
 6457SOL    HW119417   5.183   1.122   3.820
 6457SOL    HW219418   5.061   1.228   3.803
 6458SOL     OW19419   4.037   0.049   3.909
 6458SOL    HW119420   4.075   0.141   3.911
 6458SOL    HW219421   4.086   6.991   3.975
 6459SOL     OW19422   4.674   0.267   4.180
 6459SOL    HW119423   4.644   0.301   4.091
 6459SOL    HW219424   4.773   0.274   4.187
 6460SOL     OW19425   4.804   0.685   5.177
 6460SOL    HW119426   4.729   0.619   5.189
 6460SOL    HW219427   4.891   0.636   5.177
 6461SOL     OW19428   4.943   1.570   4.518
 6461SOL    HW119429   4.957   1.639   4.448
 6461SOL    HW219430   5.015   1.578   4.588
 6462SOL     OW19431   4.193   1.152   4.451
 6462SOL    HW119432   4.127   1.132   4.523
 6462SOL    HW219433   4.150   1.140   4.362
 6463SOL     OW19434   4.986   1.791   4.335
 6463SOL    HW119435   5.038   1.853   4.276
 6463SOL    HW219436   4.913   1.842   4.380
 6464SOL     OW19437   4.742   0.536   3.758
 6464SOL    HW119438   4.698   0.622   3.734
 6464SOL    HW219439   4.813   0.552   3.826
 6465SOL     OW19440   3.816   0.552   5.121
 6465SOL    HW119441   3.909   0.552   5.085
 6465SOL    HW219442   3.806   0.626   5.188
 6466SOL     OW19443   4.295   0.243   4.900
 6466SOL    HW119444   4.347   0.170   4.945
 6466SOL    HW219445   4.199   0.237   4.930
 6467SOL     OW19446   4.590   0.466   4.359
 6467SOL    HW119447   4.538   0.526   4.297
 6467SOL    HW219448   4.618   0.384   4.309
 6468SOL     OW19449   4.682   0.027   4.494
 6468SOL    HW119450   4.624   0.029   4.412
 6468SOL    HW219451   4.753   6.958   4.483
 6469SOL     OW19452   5.170   1.161   4.582
 6469SOL    HW119453   5.093   1.096   4.587
 6469SOL    HW219454   5.199   1.171   4.487
 6470SOL     OW19455   5.190   0.609   4.693
 6470SOL    HW119456   5.129   0.531   4.694
 6470SOL    HW219457   5.253   0.604   4.770
 6471SOL     OW19458   5.565   0.809   4.104
 6471SOL    HW119459   5.623   0.761   4.170
 6471SOL    HW219460   5.536   0.745   4.033
 6472SOL     OW19461   4.211   1.421   3.879
 6472SOL    HW119462   4.130   1.394   3.932
 6472SOL    HW219463   4.210   1.374   3.790
 6473SOL     OW19464   5.400   1.267   4.367
 6473SOL    HW119465   5.499   1.264   4.379
 6473SOL    HW219466   5.366   1.359   4.387
 6474SOL     OW19467   5.115   0.576   3.796
 6474SOL    HW119468   5.051   0.552   3.869
 6474SOL    HW219469   5.209   0.562   3.827
 6475SOL     OW19470   4.245   0.262   4.025
 6475SOL    HW119471   4.303   0.213   3.960
 6475SOL    HW219472   4.221   0.352   3.988
 6476SOL     OW19473   5.476   1.241   5.282
 6476SOL    HW119474   5.565   1.199   5.269
 6476SOL    HW219475   5.487   1.334   5.317
 6477SOL     OW19476   4.777   1.350   5.060
 6477SOL    HW119477   4.695   1.320   5.110
 6477SOL    HW219478   4.858   1.310   5.102
 6478SOL     OW19479   5.338   1.630   5.381
 6478SOL    HW119480   5.322   1.665   5.289
 6478SOL    HW219481   5.423   1.578   5.383
 6479SOL     OW19482   4.862   1.221   4.829
 6479SOL    HW119483   4.802   1.255   4.901
 6479SOL    HW219484   4.828   1.252   4.740
 6480SOL     OW19485   5.348   1.097   4.803
 6480SOL    HW119486   5.343   1.162   4.879
 6480SOL    HW219487   5.272   1.114   4.740
 6481SOL     OW19488   4.617   0.151   5.111
 6481SOL    HW119489   4.633   0.118   5.018
 6481SOL    HW219490   4.704   0.178   5.153
 6482SOL     OW19491   4.703   1.115   5.445
 6482SOL    HW119492   4.609   1.134   5.472
 6482SOL    HW219493   4.705   1.032   5.389
 6483SOL     OW19494   4.437   1.059   4.097
 6483SOL    HW119495   4.420   1.041   4.194
 6483SOL    HW219496   4.516   1.005   4.067
 6484SOL     OW19497   4.148   0.817   4.978
 6484SOL    HW119498   4.221   0.829   5.045
 6484SOL    HW219499   4.109   0.726   4.987
 6485SOL     OW19500   4.984   0.378   5.011
 6485SOL    HW119501   5.021   0.457   5.060
 6485SOL    HW219502   4.889   0.397   4.985
 6486SOL     OW19503   3.799   1.572   5.078
 6486SOL    HW119504   3.763   1.642   5.016
 6486SOL    HW219505   3.899   1.570   5.072
 6487SOL     OW19506   4.064   1.120   4.211
 6487SOL    HW119507   4.069   1.202   4.154
 6487SOL    HW219508   4.062   1.039   4.152
 6488SOL     OW19509   4.276   0.546   4.585
 6488SOL    HW119510   4.290   0.606   4.506
 6488SOL    HW219511   4.347   0.565   4.653
 6489SOL     OW19512   4.970   1.355   4.117
 6489SOL    HW119513   5.031   1.427   4.148
 6489SOL    HW219514   4.876   1.375   4.147
 6490SOL     OW19515   5.013   1.462   4.871
 6490SOL    HW119516   5.071   1.468   4.953
 6490SOL    HW219517   4.959   1.378   4.875
 6491SOL     OW19518   5.295   0.622   4.210
 6491SOL    HW119519   5.247   0.675   4.279
 6491SOL    HW219520   5.347   0.684   4.150
 6492SOL     OW19521   4.072   1.530   5.033
 6492SOL    HW119522   4.056   1.485   4.945
 6492SOL    HW219523   4.170   1.544   5.046
 6493SOL     OW19524   4.143   0.744   5.326
 6493SOL    HW119525   4.206   0.792   5.265
 6493SOL    HW219526   4.182   0.654   5.349
 6494SOL     OW19527   5.333   0.786   5.410
 6494SOL    HW119528   5.242   0.827   5.407
 6494SOL    HW219529   5.390   0.826   5.338
 6495SOL     OW19530   4.722   0.137   5.457
 6495SOL    HW119531   4.766   0.179   5.378
 6495SOL    HW219532   4.722   0.037   5.447
 6496SOL     OW19533   4.187   0.037   5.483
 6496SOL    HW119534   4.119   6.965   5.468
 6496SOL    HW219535   4.140   0.125   5.491
 6497SOL     OW19536   4.308   0.874   4.757
 6497SOL    HW119537   4.345   0.967   4.756
 6497SOL    HW219538   4.248   0.862   4.837
 6498SOL     OW19539   5.073   0.858   4.746
 6498SOL    HW119540   4.981   0.848   4.708
 6498SOL    HW219541   5.122   0.771   4.738
 6499SOL     OW19542   4.922   0.527   3.987
 6499SOL    HW119543   4.934   0.444   4.042
 6499SOL    HW219544   4.877   0.597   4.043
 6500SOL     OW19545   4.033   0.208   4.971
 6500SOL    HW119546   3.969   0.216   5.047
 6500SOL    HW219547   4.024   0.117   4.929
 6501SOL     OW19548   3.777   1.310   4.999
 6501SOL    HW119549   3.808   1.248   5.071
 6501SOL    HW219550   3.779   1.404   5.032
 6502SOL     OW19551   4.453   0.637   4.778
 6502SOL    HW119552   4.527   0.616   4.715
 6502SOL    HW219553   4.415   0.727   4.757
 6503SOL     OW19554   5.461   0.961   5.581
 6503SOL    HW119555   5.418   0.892   5.523
 6503SOL    HW219556   5.401   0.981   5.659
 6504SOL     OW19557   4.046   0.059   4.354
 6504SOL    HW119558   4.022   0.153   4.381
 6504SOL    HW219559   3.999   6.995   4.414
 6505SOL     OW19560   5.351   0.394   4.066
 6505SOL    HW119561   5.380   0.316   4.121
 6505SOL    HW219562   5.319   0.467   4.127
 6506SOL     OW19563   4.750   0.756   4.682
 6506SOL    HW119564   4.743   0.778   4.779
 6506SOL    HW219565   4.721   0.662   4.666
 6507SOL     OW19566   4.705   1.563   5.442
 6507SOL    HW119567   4.688   1.610   5.356
 6507SOL    HW219568   4.753   1.477   5.424
 6508SOL     OW19569   5.578   1.503   5.327
 6508SOL    HW119570   5.597   1.529   5.233
 6508SOL    HW219571   5.661   1.514   5.383
 6509SOL     OW19572   4.077   0.918   5.528
 6509SOL    HW119573   4.156   0.940   5.585
 6509SOL    HW219574   4.104   0.852   5.458
 6510SOL     OW19575   5.263   0.233   3.859
 6510SOL    HW119576   5.163   0.232   3.865
 6510SOL    HW219577   5.301   0.292   3.930
 6511SOL     OW19578   5.012   0.826   3.749
 6511SOL    HW119579   5.052   0.734   3.757
 6511SOL    HW219580   5.043   0.868   3.664
 6512SOL     OW19581   4.794   1.338   4.579
 6512SOL    HW119582   4.799   1.260   4.517
 6512SOL    HW219583   4.853   1.412   4.545
 6513SOL     OW19584   4.036   0.810   4.666
 6513SOL    HW119585   4.132   0.836   4.661
 6513SOL    HW219586   4.029   0.715   4.698
 6514SOL     OW19587   4.058   0.540   4.735
 6514SOL    HW119588   4.015   0.451   4.724
 6514SOL    HW219589   4.139   0.546   4.677
 6515SOL     OW19590   4.849   0.415   5.396
 6515SOL    HW119591   4.801   0.455   5.473
 6515SOL    HW219592   4.947   0.435   5.404
 6516SOL     OW19593   4.857   0.226   5.212
 6516SOL    HW119594   4.857   0.302   5.277
 6516SOL    HW219595   4.915   0.249   5.133
 6517SOL     OW19596   3.724   1.314   3.919
 6517SOL    HW119597   3.635   1.334   3.879
 6517SOL    HW219598   3.725   1.221   3.954
 6518SOL     OW19599   3.818   1.782   4.668
 6518SOL    HW119600   3.781   1.702   4.622
 6518SOL    HW219601   3.911   1.800   4.636
 6519SOL     OW19602   4.217   1.576   4.629
 6519SOL    HW119603   4.287   1.642   4.655
 6519SOL    HW219604   4.257   1.509   4.566
 6520SOL     OW19605   4.697   0.794   4.947
 6520SOL    HW119606   4.757   0.769   5.023
 6520SOL    HW219607   4.608   0.751   4.959
 6521SOL     OW19608   3.760   0.552   4.845
 6521SOL    HW119609   3.837   0.533   4.784
 6521SOL    HW219610   3.791   0.552   4.940
 6522SOL     OW19611   3.909   0.531   5.454
 6522SOL    HW119612   3.988   0.498   5.403
 6522SOL    HW219613   3.869   0.609   5.407
 6523SOL     OW19614   5.105   0.935   5.378
 6523SOL    HW119615   5.128   1.032   5.379
 6523SOL    HW219616   5.101   0.902   5.284
 6524SOL     OW19617   4.541   0.577   4.084
 6524SOL    HW119618   4.551   0.496   4.027
 6524SOL    HW219619   4.462   0.630   4.054
 6525SOL     OW19620   5.365   0.605   4.903
 6525SOL    HW119621   5.346   0.545   4.980
 6525SOL    HW219622   5.457   0.587   4.868
 6526SOL     OW19623   3.963   1.546   5.449
 6526SOL    HW119624   3.942   1.621   5.513
 6526SOL    HW219625   3.970   1.460   5.500
 6527SOL     OW19626   4.435   0.460   4.979
 6527SOL    HW119627   4.379   0.382   4.953
 6527SOL    HW219628   4.434   0.528   4.904
 6528SOL     OW19629   4.643   1.681   5.196
 6528SOL    HW119630   4.617   1.634   5.112
 6528SOL    HW219631   4.643   1.779   5.181
 6529SOL     OW19632   4.182   0.495   3.902
 6529SOL    HW119633   4.247   0.566   3.929
 6529SOL    HW219634   4.091   0.535   3.892
 6530SOL     OW19635   3.865   1.138   5.200
 6530SOL    HW119636   3.867   1.094   5.290
 6530SOL    HW219637   3.885   1.070   5.129
 6531SOL     OW19638   5.039   1.043   4.942
 6531SOL    HW119639   5.066   0.975   4.874
 6531SOL    HW219640   4.972   1.106   4.902
 6532SOL     OW19641   5.041   0.856   4.022
 6532SOL    HW119642   4.964   0.829   4.081
 6532SOL    HW219643   5.015   0.844   3.926
 6533SOL     OW19644   5.505   1.728   4.882
 6533SOL    HW119645   5.566   1.762   4.810
 6533SOL    HW219646   5.473   1.636   4.857
 6534SOL     OW19647   4.965   1.733   4.828
 6534SOL    HW119648   5.051   1.762   4.786
 6534SOL    HW219649   4.971   1.636   4.852
 6535SOL     OW19650   3.811   1.264   4.734
 6535SOL    HW119651   3.795   1.280   4.832
 6535SOL    HW219652   3.738   1.206   4.697
 6536SOL     OW19653   4.405   1.674   5.462
 6536SOL    HW119654   4.342   1.752   5.456
 6536SOL    HW219655   4.479   1.687   5.395
 6537SOL     OW19656   5.429   0.167   4.192
 6537SOL    HW119657   5.514   0.150   4.143
 6537SOL    HW219658   5.426   0.110   4.274
 6538SOL     OW19659   5.120   1.570   4.212
 6538SOL    HW119660   5.182   1.603   4.141
 6538SOL    HW219661   5.064   1.647   4.245
 6539SOL     OW19662   3.870   1.787   5.570
 6539SOL    HW119663   3.812   1.719   5.615
 6539SOL    HW219664   3.919   1.840   5.639
 6540SOL     OW19665   5.006   0.929   4.389
 6540SOL    HW119666   5.081   0.865   4.407
 6540SOL    HW219667   5.040   1.005   4.335
 6541SOL     OW19668   4.526   1.279   5.149
 6541SOL    HW119669   4.497   1.323   5.234
 6541SOL    HW219670   4.456   1.293   5.079
 6542SOL     OW19671   4.392   1.622   3.878
 6542SOL    HW119672   4.409   1.641   3.781
 6542SOL    HW219673   4.334   1.541   3.887
 6543SOL     OW19674   5.340   1.729   5.111
 6543SOL    HW119675   5.398   1.729   5.030
 6543SOL    HW219676   5.326   1.823   5.142
 6544SOL     OW19677   5.591   0.160   4.681
 6544SOL    HW119678   5.589   0.060   4.673
 6544SOL    HW219679   5.500   0.197   4.664
 6545SOL     OW19680   3.983   0.312   4.439
 6545SOL    HW119681   3.894   0.349   4.412
 6545SOL    HW219682   3.989   0.311   4.539
 6546SOL     OW19683   4.933   1.600   3.757
 6546SOL    HW119684   4.923   1.506   3.790
 6546SOL    HW219685   4.865   1.617   3.685
 6547SOL     OW19686   4.547   1.010   5.103
 6547SOL    HW119687   4.598   0.993   5.019
 6547SOL    HW219688   4.544   1.108   5.121
 6548SOL     OW19689   4.644   0.911   4.011
 6548SOL    HW119690   4.705   0.946   3.940
 6548SOL    HW219691   4.691   0.839   4.063
 6549SOL     OW19692   5.212   1.631   3.766
 6549SOL    HW119693   5.113   1.619   3.755
 6549SOL    HW219694   5.256   1.636   3.677
 6550SOL     OW19695   4.089   1.303   5.211
 6550SOL    HW119696   4.080   1.384   5.152
 6550SOL    HW219697   4.009   1.244   5.200
 6551SOL     OW19698   5.337   1.285   5.009
 6551SOL    HW119699   5.399   1.265   5.084
 6551SOL    HW219700   5.271   1.354   5.038
 6552SOL     OW19701   4.787   1.107   4.440
 6552SOL    HW119702   4.710   1.057   4.479
 6552SOL    HW219703   4.855   1.042   4.407
 6553SOL     OW19704   4.748   0.249   4.675
 6553SOL    HW119705   4.726   0.202   4.590
 6553SOL    HW219706   4.738   0.186   4.752
 6554SOL     OW19707   4.329   1.486   4.203
 6554SOL    HW119708   4.381   1.432   4.137
 6554SOL    HW219709   4.254   1.533   4.157
 6555SOL     OW19710   5.458   0.392   5.099
 6555SOL    HW119711   5.527   0.464   5.105
 6555SOL    HW219712   5.494   0.315   5.047
 6556SOL     OW19713   3.977   1.348   4.012
 6556SOL    HW119714   3.881   1.341   3.985
 6556SOL    HW219715   3.982   1.387   4.104
 6557SOL     OW19716   3.839   1.036   5.453
 6557SOL    HW119717   3.757   1.008   5.503
 6557SOL    HW219718   3.919   0.990   5.491
 6558SOL     OW19719   4.393   0.239   5.234
 6558SOL    HW119720   4.474   0.214   5.180
 6558SOL    HW219721   4.422   0.271   5.324
 6559SOL     OW19722   3.800   0.333   3.758
 6559SOL    HW119723   3.704   0.310   3.740
 6559SOL    HW219724   3.825   0.414   3.704
 6560SOL     OW19725   5.147   0.857   5.119
 6560SOL    HW119726   5.091   0.921   5.065
 6560SOL    HW219727   5.241   0.859   5.084
 6561SOL     OW19728   3.795   0.178   4.040
 6561SOL    HW119729   3.799   0.248   3.969
 6561SOL    HW219730   3.844   0.097   4.009
 6562SOL     OW19731   4.904   1.337   3.845
 6562SOL    HW119732   4.809   1.307   3.838
 6562SOL    HW219733   4.932   1.338   3.941
 6563SOL     OW19734   4.348   0.830   5.158
 6563SOL    HW119735   4.405   0.911   5.143
 6563SOL    HW219736   4.407   0.750   5.169
 6564SOL     OW19737   5.209   1.790   4.713
 6564SOL    HW119738   5.230   1.853   4.638
 6564SOL    HW219739   5.294   1.754   4.751
 6565SOL     OW19740   4.444   0.557   5.431
 6565SOL    HW119741   4.490   0.627   5.486
 6565SOL    HW219742   4.464   0.467   5.469
 6566SOL     OW19743   5.198   1.195   5.358
 6566SOL    HW119744   5.183   1.209   5.456
 6566SOL    HW219745   5.294   1.215   5.336
 6567SOL     OW19746   4.094   1.738   5.291
 6567SOL    HW119747   4.010   1.791   5.276
 6567SOL    HW219748   4.071   1.650   5.333
 6568SOL     OW19749   5.389   0.878   4.980
 6568SOL    HW119750   5.384   0.787   4.939
 6568SOL    HW219751   5.377   0.948   4.909
 6569SOL     OW19752   4.949   0.319   4.180
 6569SOL    HW119753   5.019   0.248   4.172
 6569SOL    HW219754   4.967   0.376   4.260
 6570SOL     OW19755   4.312   0.737   4.391
 6570SOL    HW119756   4.352   0.828   4.380
 6570SOL    HW219757   4.242   0.723   4.321
 6571SOL     OW19758   5.472   0.369   5.372
 6571SOL    HW119759   5.464   0.384   5.273
 6571SOL    HW219760   5.400   0.308   5.402
 6572SOL     OW19761   5.477   0.932   5.233
 6572SOL    HW119762   5.464   1.029   5.255
 6572SOL    HW219763   5.455   0.916   5.137
 6573SOL     OW19764   4.591   1.363   3.769
 6573SOL    HW119765   4.550   1.387   3.857
 6573SOL    HW219766   4.605   1.447   3.716
 6574SOL     OW19767   4.389   1.783   4.665
 6574SOL    HW119768   4.366   1.878   4.645
 6574SOL    HW219769   4.488   1.770   4.654
 6575SOL     OW19770   4.593   0.971   4.580
 6575SOL    HW119771   4.645   0.893   4.616
 6575SOL    HW219772   4.550   1.021   4.655
 6576SOL     OW19773   4.801   0.989   3.808
 6576SOL    HW119774   4.774   1.043   3.728
 6576SOL    HW219775   4.879   0.931   3.783
 6577SOL     OW19776   5.569   1.556   4.571
 6577SOL    HW119777   5.491   1.544   4.508
 6577SOL    HW219778   5.564   1.488   4.643
 6578SOL     OW19779   3.956   1.298   5.581
 6578SOL    HW119780   3.891   1.231   5.546
 6578SOL    HW219781   3.941   1.312   5.679
 6579SOL     OW19782   3.812   1.229   4.387
 6579SOL    HW119783   3.818   1.184   4.476
 6579SOL    HW219784   3.880   1.189   4.326
 6580SOL     OW19785   4.407   1.410   5.358
 6580SOL    HW119786   4.326   1.360   5.390
 6580SOL    HW219787   4.406   1.503   5.395
 6581SOL     OW19788   5.574   0.183   4.969
 6581SOL    HW119789   5.494   0.124   4.961
 6581SOL    HW219790   5.606   0.208   4.878
 6582SOL     OW19791   4.154   0.425   4.248
 6582SOL    HW119792   4.189   0.355   4.186
 6582SOL    HW219793   4.101   0.383   4.321
 6583SOL     OW19794   5.417   1.482   4.817
 6583SOL    HW119795   5.336   1.464   4.761
 6583SOL    HW219796   5.424   1.411   4.888
 6584SOL     OW19797   4.059   0.559   5.011
 6584SOL    HW119798   4.116   0.501   5.070
 6584SOL    HW219799   4.076   0.537   4.916
 6585SOL     OW19800   4.553   1.580   4.402
 6585SOL    HW119801   4.538   1.642   4.326
 6585SOL    HW219802   4.476   1.516   4.408
 6586SOL     OW19803   5.137   0.217   4.853
 6586SOL    HW119804   5.218   0.172   4.891
 6586SOL    HW219805   5.089   0.265   4.926
 6587SOL     OW19806   4.699   0.056   4.862
 6587SOL    HW119807   4.643   6.994   4.807
 6587SOL    HW219808   4.753   0.004   4.927
 6588SOL     OW19809   4.499   1.331   4.045
 6588SOL    HW119810   4.471   1.236   4.054
 6588SOL    HW219811   4.583   1.347   4.096
 6589SOL     OW19812   4.347   1.559   5.014
 6589SOL    HW119813   4.344   1.646   5.063
 6589SOL    HW219814   4.438   1.547   4.974
 6590SOL     OW19815   5.044   0.014   3.917
 6590SOL    HW119816   5.091   6.944   3.863
 6590SOL    HW219817   4.967   6.972   3.965
 6591SOL     OW19818   4.991   0.454   4.411
 6591SOL    HW119819   4.946   0.544   4.408
 6591SOL    HW219820   5.010   0.430   4.506
 6592SOL     OW19821   5.344   0.257   4.639
 6592SOL    HW119822   5.256   0.238   4.682
 6592SOL    HW219823   5.332   0.321   4.563
 6593SOL     OW19824   3.767   1.063   4.032
 6593SOL    HW119825   3.865   1.063   4.013
 6593SOL    HW219826   3.737   0.970   4.054
 6594SOL     OW19827   4.609   1.664   4.064
 6594SOL    HW119828   4.533   1.642   4.001
 6594SOL    HW219829   4.583   1.741   4.122
 6595SOL     OW19830   3.942   0.620   5.715
 6595SOL    HW119831   3.853   0.618   5.759
 6595SOL    HW219832   3.932   0.599   5.618
 6596SOL     OW19833   3.939   0.309   6.587
 6596SOL    HW119834   3.982   0.267   6.667
 6596SOL    HW219835   3.859   0.256   6.560
 6597SOL     OW19836   3.734   0.396   6.213
 6597SOL    HW119837   3.646   0.416   6.255
 6597SOL    HW219838   3.723   0.324   6.144
 6598SOL     OW19839   4.283   1.282   6.756
 6598SOL    HW119840   4.195   1.303   6.713
 6598SOL    HW219841   4.312   1.360   6.812
 6599SOL     OW19842   5.289   1.513   6.294
 6599SOL    HW119843   5.244   1.490   6.380
 6599SOL    HW219844   5.221   1.521   6.222
 6600SOL     OW19845   4.858   0.703   6.281
 6600SOL    HW119846   4.909   0.787   6.265
 6600SOL    HW219847   4.805   0.711   6.365
 6601SOL     OW19848   5.496   0.600   5.806
 6601SOL    HW119849   5.472   0.597   5.709
 6601SOL    HW219850   5.456   0.521   5.853
 6602SOL     OW19851   4.481   1.143   6.630
 6602SOL    HW119852   4.407   1.170   6.691
 6602SOL    HW219853   4.514   1.224   6.580
 6603SOL     OW19854   4.408   0.999   6.234
 6603SOL    HW119855   4.478   0.989   6.304
 6603SOL    HW219856   4.333   1.055   6.271
 6604SOL     OW19857   4.056   1.410   6.649
 6604SOL    HW119858   3.971   1.377   6.607
 6604SOL    HW219859   4.102   1.473   6.585
 6605SOL     OW19860   5.343   0.460   6.314
 6605SOL    HW119861   5.283   0.487   6.238
 6605SOL    HW219862   5.340   0.530   6.385
 6606SOL     OW19863   3.946   1.714   6.056
 6606SOL    HW119864   3.964   1.793   6.116
 6606SOL    HW219865   4.022   1.704   5.991
 6607SOL     OW19866   3.957   1.444   6.122
 6607SOL    HW119867   3.941   1.542   6.122
 6607SOL    HW219868   3.898   1.400   6.190
 6608SOL     OW19869   3.993   1.091   6.487
 6608SOL    HW119870   3.989   0.997   6.521
 6608SOL    HW219871   3.934   1.149   6.543
 6609SOL     OW19872   4.339   1.805   6.988
 6609SOL    HW119873   4.249   1.777   0.022
 6609SOL    HW219874   4.360   1.897   0.021
 6610SOL     OW19875   4.305   0.988   5.728
 6610SOL    HW119876   4.352   1.034   5.653
 6610SOL    HW219877   4.345   1.016   5.815
 6611SOL     OW19878   3.839   0.662   6.150
 6611SOL    HW119879   3.811   0.568   6.168
 6611SOL    HW219880   3.833   0.715   6.235
 6612SOL     OW19881   5.570   1.755   5.918
 6612SOL    HW119882   5.640   1.724   5.982
 6612SOL    HW219883   5.585   1.851   5.895
 6613SOL     OW19884   3.753   1.590   5.708
 6613SOL    HW119885   3.738   1.493   5.728
 6613SOL    HW219886   3.733   1.643   5.790
 6614SOL     OW19887   5.414   0.919   6.232
 6614SOL    HW119888   5.500   0.870   6.217
 6614SOL    HW219889   5.392   0.974   6.150
 6615SOL     OW19890   5.378   1.104   6.018
 6615SOL    HW119891   5.467   1.101   5.973
 6615SOL    HW219892   5.381   1.171   6.092
 6616SOL     OW19893   4.336   1.391   6.319
 6616SOL    HW119894   4.289   1.303   6.333
 6616SOL    HW219895   4.323   1.422   6.225
 6617SOL     OW19896   4.547   0.030   6.102
 6617SOL    HW119897   4.587   0.119   6.084
 6617SOL    HW219898   4.447   0.038   6.106
 6618SOL     OW19899   3.916   0.978   6.847
 6618SOL    HW119900   3.999   0.925   6.831
 6618SOL    HW219901   3.836   0.923   6.821
 6619SOL     OW19902   5.256   1.001   5.791
 6619SOL    HW119903   5.182   0.941   5.821
 6619SOL    HW219904   5.303   1.039   5.871
 6620SOL     OW19905   5.175   1.423   6.530
 6620SOL    HW119906   5.118   1.437   6.611
 6620SOL    HW219907   5.173   1.327   6.504
 6621SOL     OW19908   5.372   1.753   6.161
 6621SOL    HW119909   5.354   1.721   6.067
 6621SOL    HW219910   5.354   1.678   6.225
 6622SOL     OW19911   4.317   0.718   5.858
 6622SOL    HW119912   4.322   0.804   5.808
 6622SOL    HW219913   4.248   0.725   5.930
 6623SOL     OW19914   5.006   0.366   6.537
 6623SOL    HW119915   4.909   0.342   6.537
 6623SOL    HW219916   5.054   0.315   6.608
 6624SOL     OW19917   5.307   1.672   5.894
 6624SOL    HW119918   5.403   1.699   5.891
 6624SOL    HW219919   5.274   1.655   5.801
 6625SOL     OW19920   4.518   0.625   0.041
 6625SOL    HW119921   4.458   0.656   0.115
 6625SOL    HW219922   4.467   0.564   6.980
 6626SOL     OW19923   4.730   0.391   6.794
 6626SOL    HW119924   4.682   0.449   6.860
 6626SOL    HW219925   4.663   0.353   6.729
 6627SOL     OW19926   4.775   0.699   6.011
 6627SOL    HW119927   4.797   0.694   6.108
 6627SOL    HW219928   4.688   0.652   5.994
 6628SOL     OW19929   3.813   0.828   6.367
 6628SOL    HW119930   3.899   0.816   6.417
 6628SOL    HW219931   3.764   0.907   6.403
 6629SOL     OW19932   3.883   1.852   0.148
 6629SOL    HW119933   3.840   1.777   0.199
 6629SOL    HW219934   3.829   1.871   0.066
 6630SOL     OW19935   4.613   0.356   5.787
 6630SOL    HW119936   4.660   0.416   5.722
 6630SOL    HW219937   4.586   0.272   5.740
 6631SOL     OW19938   5.104   1.142   6.118
 6631SOL    HW119939   5.189   1.128   6.068
 6631SOL    HW219940   5.048   1.210   6.070
 6632SOL     OW19941   4.227   0.198   6.501
 6632SOL    HW119942   4.273   0.242   6.577
 6632SOL    HW219943   4.246   0.247   6.416
 6633SOL     OW19944   4.718   1.443   6.049
 6633SOL    HW119945   4.688   1.524   5.999
 6633SOL    HW219946   4.700   1.456   6.147
 6634SOL     OW19947   4.079   1.815   6.455
 6634SOL    HW119948   4.122   1.725   6.465
 6634SOL    HW219949   4.147   1.886   6.475
 6635SOL     OW19950   5.525   1.056   6.453
 6635SOL    HW119951   5.474   1.033   6.370
 6635SOL    HW219952   5.462   1.056   6.531
 6636SOL     OW19953   4.045   0.960   5.841
 6636SOL    HW119954   4.133   0.980   5.798
 6636SOL    HW219955   4.009   0.874   5.804
 6637SOL     OW19956   5.207   0.750   6.307
 6637SOL    HW119957   5.200   0.706   6.396
 6637SOL    HW219958   5.287   0.810   6.305
 6638SOL     OW19959   4.846   1.776   5.812
 6638SOL    HW119960   4.766   1.739   5.860
 6638SOL    HW219961   4.876   1.711   5.741
 6639SOL     OW19962   5.348   1.382   5.674
 6639SOL    HW119963   5.310   1.473   5.659
 6639SOL    HW219964   5.278   1.313   5.655
 6640SOL     OW19965   4.188   1.735   5.904
 6640SOL    HW119966   4.230   1.797   5.970
 6640SOL    HW219967   4.259   1.698   5.844
 6641SOL     OW19968   5.149   0.133   6.010
 6641SOL    HW119969   5.129   0.089   5.923
 6641SOL    HW219970   5.249   0.139   6.021
 6642SOL     OW19971   3.993   1.798   6.820
 6642SOL    HW119972   4.042   1.740   6.884
 6642SOL    HW219973   3.951   1.741   6.749
 6643SOL     OW19974   4.661   1.700   6.481
 6643SOL    HW119975   4.746   1.655   6.508
 6643SOL    HW219976   4.618   1.649   6.406
 6644SOL     OW19977   4.120   0.686   6.060
 6644SOL    HW119978   4.139   0.589   6.074
 6644SOL    HW219979   4.023   0.703   6.078
 6645SOL     OW19980   4.370   0.110   5.688
 6645SOL    HW119981   4.408   0.036   5.743
 6645SOL    HW219982   4.306   0.072   5.621
 6646SOL     OW19983   4.593   1.517   6.762
 6646SOL    HW119984   4.575   1.483   6.670
 6646SOL    HW219985   4.632   1.443   6.817
 6647SOL     OW19986   4.543   1.388   6.520
 6647SOL    HW119987   4.633   1.377   6.478
 6647SOL    HW219988   4.473   1.394   6.449
 6648SOL     OW19989   4.653   0.510   6.482
 6648SOL    HW119990   4.623   0.505   6.386
 6648SOL    HW219991   4.690   0.421   6.510
 6649SOL     OW19992   4.279   0.068   6.081
 6649SOL    HW119993   4.197   0.057   6.138
 6649SOL    HW219994   4.264   0.142   6.016
 6650SOL     OW19995   5.149   1.199   5.629
 6650SOL    HW119996   5.183   1.122   5.683
 6650SOL    HW219997   5.061   1.228   5.665
 6651SOL     OW19998   4.037   0.049   5.771
 6651SOL    HW119999   4.076   0.141   5.773
 6651SOL    HW220000   4.086   6.991   5.836
 6652SOL     OW20001   4.674   0.267   6.042
 6652SOL    HW120002   4.644   0.302   5.953
 6652SOL    HW220003   4.773   0.275   6.049
 6653SOL     OW20004   4.942   1.571   6.381
 6653SOL    HW120005   4.956   1.642   6.312
 6653SOL    HW220006   5.021   1.568   6.443
 6654SOL     OW20007   4.192   1.152   6.314
 6654SOL    HW120008   4.126   1.132   6.386
 6654SOL    HW220009   4.149   1.139   6.224
 6655SOL     OW20010   4.985   1.791   6.197
 6655SOL    HW120011   5.038   1.853   6.139
 6655SOL    HW220012   4.911   1.841   6.241
 6656SOL     OW20013   4.742   0.536   5.620
 6656SOL    HW120014   4.698   0.622   5.596
 6656SOL    HW220015   4.813   0.552   5.688
 6657SOL     OW20016   4.302   0.219   6.779
 6657SOL    HW120017   4.322   0.126   6.747
 6657SOL    HW220018   4.204   0.227   6.800
 6658SOL     OW20019   4.588   0.466   6.221
 6658SOL    HW120020   4.539   0.526   6.158
 6658SOL    HW220021   4.617   0.384   6.173
 6659SOL     OW20022   4.680   0.030   6.349
 6659SOL    HW120023   4.625   0.027   6.265
 6659SOL    HW220024   4.750   6.960   6.345
 6660SOL     OW20025   5.165   1.160   6.442
 6660SOL    HW120026   5.095   1.088   6.444
 6660SOL    HW220027   5.196   1.173   6.348
 6661SOL     OW20028   5.189   0.606   6.549
 6661SOL    HW120029   5.128   0.528   6.556
 6661SOL    HW220030   5.254   0.604   6.625
 6662SOL     OW20031   5.565   0.808   5.966
 6662SOL    HW120032   5.624   0.761   6.032
 6662SOL    HW220033   5.537   0.744   5.895
 6663SOL     OW20034   4.211   1.421   5.741
 6663SOL    HW120035   4.130   1.395   5.794
 6663SOL    HW220036   4.210   1.374   5.653
 6664SOL     OW20037   5.400   1.267   6.229
 6664SOL    HW120038   5.499   1.263   6.242
 6664SOL    HW220039   5.367   1.359   6.250
 6665SOL     OW20040   5.115   0.576   5.658
 6665SOL    HW120041   5.051   0.552   5.731
 6665SOL    HW220042   5.209   0.562   5.689
 6666SOL     OW20043   4.244   0.262   5.887
 6666SOL    HW120044   4.303   0.213   5.822
 6666SOL    HW220045   4.221   0.352   5.850
 6667SOL     OW20046   5.484   1.177   0.169
 6667SOL    HW120047   5.581   1.165   0.150
 6667SOL    HW220048   5.455   1.269   0.143
 6668SOL     OW20049   4.842   1.239   6.694
 6668SOL    HW120050   4.759   1.194   6.727
 6668SOL    HW220051   4.829   1.265   6.598
 6669SOL     OW20052   5.342   1.083   6.650
 6669SOL    HW120053   5.342   1.154   6.720
 6669SOL    HW220054   5.268   1.101   6.585
 6670SOL     OW20055   4.437   1.059   5.959
 6670SOL    HW120056   4.420   1.041   6.056
 6670SOL    HW220057   4.516   1.005   5.929
 6671SOL     OW20058   4.149   0.815   6.847
 6671SOL    HW120059   4.206   0.841   6.926
 6671SOL    HW220060   4.113   0.723   6.861
 6672SOL     OW20061   4.988   0.383   6.873
 6672SOL    HW120062   5.018   0.460   6.928
 6672SOL    HW220063   4.896   0.400   6.838
 6673SOL     OW20064   3.815   1.560   6.858
 6673SOL    HW120065   3.752   1.634   6.885
 6673SOL    HW220066   3.892   1.558   6.921
 6674SOL     OW20067   4.064   1.120   6.073
 6674SOL    HW120068   4.069   1.202   6.016
 6674SOL    HW220069   4.063   1.039   6.014
 6675SOL     OW20070   4.275   0.546   6.447
 6675SOL    HW120071   4.288   0.605   6.367
 6675SOL    HW220072   4.345   0.566   6.515
 6676SOL     OW20073   4.970   1.355   5.978
 6676SOL    HW120074   5.031   1.428   6.010
 6676SOL    HW220075   4.876   1.375   6.009
 6677SOL     OW20076   5.006   1.450   6.748
 6677SOL    HW120077   5.043   1.439   6.840
 6677SOL    HW220078   4.944   1.375   6.727
 6678SOL     OW20079   5.295   0.623   6.070
 6678SOL    HW120080   5.247   0.675   6.140
 6678SOL    HW220081   5.348   0.685   6.012
 6679SOL     OW20082   4.091   1.495   6.904
 6679SOL    HW120083   4.059   1.458   6.817
 6679SOL    HW220084   4.185   1.526   6.894
 6680SOL     OW20085   4.309   0.870   6.624
 6680SOL    HW120086   4.342   0.965   6.618
 6680SOL    HW220087   4.249   0.860   6.703
 6681SOL     OW20088   5.068   0.856   6.593
 6681SOL    HW120089   4.977   0.840   6.556
 6681SOL    HW220090   5.121   0.771   6.590
 6682SOL     OW20091   4.921   0.527   5.849
 6682SOL    HW120092   4.934   0.444   5.904
 6682SOL    HW220093   4.877   0.597   5.905
 6683SOL     OW20094   4.036   0.209   6.833
 6683SOL    HW120095   3.979   0.209   6.915
 6683SOL    HW220096   4.034   0.118   6.790
 6684SOL     OW20097   3.750   1.300   6.869
 6684SOL    HW120098   3.804   1.253   6.939
 6684SOL    HW220099   3.777   1.396   6.865
 6685SOL     OW20100   4.449   0.627   6.640
 6685SOL    HW120101   4.528   0.609   6.581
 6685SOL    HW220102   4.417   0.721   6.624
 6686SOL     OW20103   4.046   0.059   6.219
 6686SOL    HW120104   4.021   0.152   6.245
 6686SOL    HW220105   3.988   6.994   6.268
 6687SOL     OW20106   5.351   0.395   5.928
 6687SOL    HW120107   5.380   0.316   5.983
 6687SOL    HW220108   5.319   0.468   5.988
 6688SOL     OW20109   4.747   0.757   6.550
 6688SOL    HW120110   4.739   0.777   6.647
 6688SOL    HW220111   4.721   0.662   6.533
 6689SOL     OW20112   5.263   0.233   5.721
 6689SOL    HW120113   5.164   0.232   5.728
 6689SOL    HW220114   5.301   0.293   5.792
 6690SOL     OW20115   5.011   0.826   5.611
 6690SOL    HW120116   5.051   0.734   5.619
 6690SOL    HW220117   5.043   0.868   5.526
 6691SOL     OW20118   4.797   1.338   6.439
 6691SOL    HW120119   4.801   1.260   6.376
 6691SOL    HW220120   4.854   1.412   6.404
 6692SOL     OW20121   4.037   0.808   6.527
 6692SOL    HW120122   4.134   0.834   6.521
 6692SOL    HW220123   4.031   0.714   6.560
 6693SOL     OW20124   4.064   0.540   6.608
 6693SOL    HW120125   4.017   0.453   6.593
 6693SOL    HW220126   4.143   0.547   6.547
 6694SOL     OW20127   4.858   0.220   0.067
 6694SOL    HW120128   4.880   0.286   0.138
 6694SOL    HW220129   4.888   0.254   6.979
 6695SOL     OW20130   3.724   1.314   5.780
 6695SOL    HW120131   3.635   1.334   5.741
 6695SOL    HW220132   3.725   1.221   5.816
 6696SOL     OW20133   3.815   1.789   6.528
 6696SOL    HW120134   3.780   1.706   6.484
 6696SOL    HW220135   3.910   1.802   6.502
 6697SOL     OW20136   4.217   1.578   6.491
 6697SOL    HW120137   4.287   1.643   6.519
 6697SOL    HW220138   4.257   1.510   6.430
 6698SOL     OW20139   4.702   0.794   6.822
 6698SOL    HW120140   4.782   0.777   6.879
 6698SOL    HW220141   4.622   0.751   6.864
 6699SOL     OW20142   3.774   0.559   6.710
 6699SOL    HW120143   3.821   0.507   6.638
 6699SOL    HW220144   3.841   0.587   6.779
 6700SOL     OW20145   4.541   0.577   5.947
 6700SOL    HW120146   4.551   0.496   5.889
 6700SOL    HW220147   4.462   0.630   5.917
 6701SOL     OW20148   5.372   0.611   6.750
 6701SOL    HW120149   5.358   0.554   6.831
 6701SOL    HW220150   5.467   0.602   6.719
 6702SOL     OW20151   4.400   0.468   6.853
 6702SOL    HW120152   4.369   0.377   6.825
 6702SOL    HW220153   4.413   0.526   6.773
 6703SOL     OW20154   4.669   1.662   6.995
 6703SOL    HW120155   4.636   1.649   6.902
 6703SOL    HW220156   4.648   1.756   0.025
 6704SOL     OW20157   4.182   0.495   5.764
 6704SOL    HW120158   4.247   0.566   5.791
 6704SOL    HW220159   4.091   0.535   5.754
 6705SOL     OW20160   3.881   1.142   0.059
 6705SOL    HW120161   3.937   1.101   0.131
 6705SOL    HW220162   3.890   1.088   6.975
 6706SOL     OW20163   5.007   1.003   6.814
 6706SOL    HW120164   5.044   0.953   6.736
 6706SOL    HW220165   4.984   1.097   6.786
 6707SOL     OW20166   5.040   0.856   5.884
 6707SOL    HW120167   4.964   0.829   5.943
 6707SOL    HW220168   5.014   0.844   5.788
 6708SOL     OW20169   5.478   1.758   6.723
 6708SOL    HW120170   5.555   1.780   6.662
 6708SOL    HW220171   5.457   1.661   6.716
 6709SOL     OW20172   4.972   1.725   6.699
 6709SOL    HW120173   5.056   1.754   6.653
 6709SOL    HW220174   4.977   1.627   6.718
 6710SOL     OW20175   3.805   1.264   6.599
 6710SOL    HW120176   3.785   1.272   6.697
 6710SOL    HW220177   3.739   1.203   6.556
 6711SOL     OW20178   5.429   0.168   6.055
 6711SOL    HW120179   5.514   0.149   6.005
 6711SOL    HW220180   5.425   0.110   6.136
 6712SOL     OW20181   5.119   1.571   6.074
 6712SOL    HW120182   5.182   1.603   6.003
 6712SOL    HW220183   5.064   1.647   6.107
 6713SOL     OW20184   5.006   0.929   6.252
 6713SOL    HW120185   5.081   0.865   6.269
 6713SOL    HW220186   5.039   1.005   6.197
 6714SOL     OW20187   4.392   1.622   5.740
 6714SOL    HW120188   4.409   1.641   5.643
 6714SOL    HW220189   4.334   1.541   5.749
 6715SOL     OW20190   5.590   0.162   6.537
 6715SOL    HW120191   5.587   0.062   6.533
 6715SOL    HW220192   5.498   0.199   6.520
 6716SOL     OW20193   3.983   0.312   6.303
 6716SOL    HW120194   3.894   0.349   6.274
 6716SOL    HW220195   3.988   0.314   6.403
 6717SOL     OW20196   4.933   1.600   5.619
 6717SOL    HW120197   4.923   1.506   5.652
 6717SOL    HW220198   4.865   1.617   5.547
 6718SOL     OW20199   4.498   1.026   6.953
 6718SOL    HW120200   4.556   0.983   6.884
 6718SOL    HW220201   4.543   1.108   6.988
 6719SOL     OW20202   4.644   0.911   5.873
 6719SOL    HW120203   4.705   0.946   5.802
 6719SOL    HW220204   4.691   0.839   5.925
 6720SOL     OW20205   5.212   1.631   5.628
 6720SOL    HW120206   5.113   1.619   5.617
 6720SOL    HW220207   5.255   1.636   5.538
 6721SOL     OW20208   5.339   1.279   6.834
 6721SOL    HW120209   5.430   1.279   6.876
 6721SOL    HW220210   5.271   1.257   6.904
 6722SOL     OW20211   4.787   1.106   6.301
 6722SOL    HW120212   4.709   1.056   6.340
 6722SOL    HW220213   4.855   1.042   6.268
 6723SOL     OW20214   4.750   0.246   6.522
 6723SOL    HW120215   4.722   0.194   6.441
 6723SOL    HW220216   4.748   0.186   6.603
 6724SOL     OW20217   4.329   1.486   6.066
 6724SOL    HW120218   4.381   1.432   5.999
 6724SOL    HW220219   4.254   1.533   6.019
 6725SOL     OW20220   5.424   0.432   6.948
 6725SOL    HW120221   5.485   0.441   0.027
 6725SOL    HW220222   5.440   0.343   6.904
 6726SOL     OW20223   3.976   1.348   5.874
 6726SOL    HW120224   3.881   1.341   5.847
 6726SOL    HW220225   3.982   1.387   5.966
 6727SOL     OW20226   3.800   0.333   5.620
 6727SOL    HW120227   3.704   0.310   5.603
 6727SOL    HW220228   3.825   0.413   5.566
 6728SOL     OW20229   3.796   0.178   5.902
 6728SOL    HW120230   3.799   0.248   5.831
 6728SOL    HW220231   3.845   0.096   5.871
 6729SOL     OW20232   4.904   1.337   5.707
 6729SOL    HW120233   4.809   1.307   5.700
 6729SOL    HW220234   4.932   1.338   5.803
 6730SOL     OW20235   5.216   1.786   6.580
 6730SOL    HW120236   5.229   1.848   6.503
 6730SOL    HW220237   5.305   1.767   6.623
 6731SOL     OW20238   5.217   1.295   0.282
 6731SOL    HW120239   5.125   1.295   0.322
 6731SOL    HW220240   5.244   1.201   0.262
 6732SOL     OW20241   4.110   1.726   0.088
 6732SOL    HW120242   4.031   1.780   0.117
 6732SOL    HW220243   4.103   1.634   0.126
 6733SOL     OW20244   5.424   0.878   6.828
 6733SOL    HW120245   5.392   0.788   6.799
 6733SOL    HW220246   5.389   0.947   6.765
 6734SOL     OW20247   4.949   0.319   6.042
 6734SOL    HW120248   5.018   0.248   6.034
 6734SOL    HW220249   4.967   0.376   6.122
 6735SOL     OW20250   4.310   0.737   6.253
 6735SOL    HW120251   4.351   0.828   6.242
 6735SOL    HW220252   4.241   0.723   6.183
 6736SOL     OW20253   5.489   0.902   0.095
 6736SOL    HW120254   5.482   0.999   0.122
 6736SOL    HW220255   5.466   0.892   6.998
 6737SOL     OW20256   4.591   1.363   5.631
 6737SOL    HW120257   4.550   1.387   5.719
 6737SOL    HW220258   4.605   1.447   5.578
 6738SOL     OW20259   4.391   1.784   6.532
 6738SOL    HW120260   4.367   1.878   6.507
 6738SOL    HW220261   4.489   1.771   6.518
 6739SOL     OW20262   4.593   0.970   6.442
 6739SOL    HW120263   4.643   0.892   6.480
 6739SOL    HW220264   4.553   1.023   6.517
 6740SOL     OW20265   4.801   0.989   5.669
 6740SOL    HW120266   4.774   1.043   5.590
 6740SOL    HW220267   4.879   0.931   5.645
 6741SOL     OW20268   5.572   1.557   6.432
 6741SOL    HW120269   5.492   1.544   6.374
 6741SOL    HW220270   5.567   1.495   6.510
 6742SOL     OW20271   3.812   1.228   6.249
 6742SOL    HW120272   3.816   1.182   6.338
 6742SOL    HW220273   3.881   1.189   6.188
 6743SOL     OW20274   5.572   0.190   6.848
 6743SOL    HW120275   5.500   0.122   6.862
 6743SOL    HW220276   5.583   0.208   6.750
 6744SOL     OW20277   4.154   0.425   6.110
 6744SOL    HW120278   4.188   0.355   6.048
 6744SOL    HW220279   4.100   0.382   6.183
 6745SOL     OW20280   5.400   1.502   6.676
 6745SOL    HW120281   5.324   1.483   6.615
 6745SOL    HW220282   5.409   1.427   6.742
 6746SOL     OW20283   4.037   0.552   6.880
 6746SOL    HW120284   4.106   0.499   6.929
 6746SOL    HW220285   4.052   0.544   6.782
 6747SOL     OW20286   4.553   1.579   6.262
 6747SOL    HW120287   4.539   1.643   6.187
 6747SOL    HW220288   4.476   1.516   6.268
 6748SOL     OW20289   5.135   0.215   6.719
 6748SOL    HW120290   5.222   0.180   6.753
 6748SOL    HW220291   5.091   0.269   6.791
 6749SOL     OW20292   4.719   0.052   6.711
 6749SOL    HW120293   4.636   6.999   6.692
 6749SOL    HW220294   4.761   0.020   6.796
 6750SOL     OW20295   4.499   1.331   5.907
 6750SOL    HW120296   4.471   1.236   5.916
 6750SOL    HW220297   4.583   1.347   5.958
 6751SOL     OW20298   4.348   1.565   6.864
 6751SOL    HW120299   4.345   1.660   6.895
 6751SOL    HW220300   4.435   1.547   6.818
 6752SOL     OW20301   5.044   0.014   5.778
 6752SOL    HW120302   5.090   6.943   5.724
 6752SOL    HW220303   4.968   6.973   5.828
 6753SOL     OW20304   4.991   0.454   6.274
 6753SOL    HW120305   4.946   0.543   6.272
 6753SOL    HW220306   5.010   0.429   6.369
 6754SOL     OW20307   5.342   0.260   6.497
 6754SOL    HW120308   5.251   0.240   6.534
 6754SOL    HW220309   5.333   0.324   6.421
 6755SOL     OW20310   3.767   1.063   5.894
 6755SOL    HW120311   3.865   1.063   5.875
 6755SOL    HW220312   3.737   0.970   5.915
 6756SOL     OW20313   4.609   1.664   5.925
 6756SOL    HW120314   4.533   1.643   5.863
 6756SOL    HW220315   4.583   1.741   5.984
 6757SOL     OW20316   3.942   2.499   0.136
 6757SOL    HW120317   3.847   2.482   0.160
 6757SOL    HW220318   3.956   2.481   0.039
 6758SOL     OW20319   3.946   2.145   0.994
 6758SOL    HW120320   3.979   2.110   1.083
 6758SOL    HW220321   3.853   2.112   0.978
 6759SOL     OW20322   3.724   2.251   0.637
 6759SOL    HW120323   3.643   2.286   0.685
 6759SOL    HW220324   3.701   2.164   0.593
 6760SOL     OW20325   4.293   3.161   1.187
 6760SOL    HW120326   4.203   3.157   1.143
 6760SOL    HW220327   4.311   3.253   1.220
 6761SOL     OW20328   5.289   3.376   0.709
 6761SOL    HW120329   5.248   3.350   0.796
 6761SOL    HW220330   5.219   3.379   0.637
 6762SOL     OW20331   4.856   2.564   0.695
 6762SOL    HW120332   4.910   2.647   0.680
 6762SOL    HW220333   4.806   2.572   0.781
 6763SOL     OW20334   5.510   2.439   0.198
 6763SOL    HW120335   5.445   2.492   0.144
 6763SOL    HW220336   5.461   2.378   0.260
 6764SOL     OW20337   4.466   3.002   1.042
 6764SOL    HW120338   4.399   3.037   1.107
 6764SOL    HW220339   4.511   3.078   0.995
 6765SOL     OW20340   4.599   2.625   1.821
 6765SOL    HW120341   4.587   2.692   1.894
 6765SOL    HW220342   4.623   2.671   1.736
 6766SOL     OW20343   4.407   2.858   0.650
 6766SOL    HW120344   4.478   2.849   0.719
 6766SOL    HW220345   4.333   2.916   0.685
 6767SOL     OW20346   4.435   3.015   1.819
 6767SOL    HW120347   4.488   3.093   1.852
 6767SOL    HW220348   4.351   3.047   1.776
 6768SOL     OW20349   4.050   3.284   1.066
 6768SOL    HW120350   3.974   3.239   1.020
 6768SOL    HW220351   4.103   3.337   0.999
 6769SOL     OW20352   5.181   3.364   1.359
 6769SOL    HW120353   5.239   3.445   1.366
 6769SOL    HW220354   5.110   3.368   1.429
 6770SOL     OW20355   4.174   2.254   1.477
 6770SOL    HW120356   4.256   2.197   1.486
 6770SOL    HW220357   4.093   2.199   1.496
 6771SOL     OW20358   5.335   2.311   0.749
 6771SOL    HW120359   5.263   2.331   0.683
 6771SOL    HW220360   5.341   2.385   0.815
 6772SOL     OW20361   3.944   3.586   0.471
 6772SOL    HW120362   3.962   3.665   0.529
 6772SOL    HW220363   4.029   3.557   0.426
 6773SOL     OW20364   4.861   3.202   1.698
 6773SOL    HW120365   4.908   3.200   1.786
 6773SOL    HW220366   4.805   3.120   1.688
 6774SOL     OW20367   3.937   3.310   0.532
 6774SOL    HW120368   3.925   3.409   0.542
 6774SOL    HW220369   3.887   3.263   0.604
 6775SOL     OW20370   3.993   2.952   0.900
 6775SOL    HW120371   3.989   2.858   0.933
 6775SOL    HW220372   3.931   3.009   0.954
 6776SOL     OW20373   4.321   3.659   1.425
 6776SOL    HW120374   4.238   3.635   1.476
 6776SOL    HW220375   4.353   3.750   1.454
 6777SOL     OW20376   4.311   2.829   0.148
 6777SOL    HW120377   4.369   2.850   0.069
 6777SOL    HW220378   4.348   2.874   0.229
 6778SOL     OW20379   5.321   1.987   1.469
 6778SOL    HW120380   5.343   2.067   1.413
 6778SOL    HW220381   5.305   2.016   1.563
 6779SOL     OW20382   3.839   2.516   0.562
 6779SOL    HW120383   3.809   2.423   0.582
 6779SOL    HW220384   3.834   2.572   0.644
 6780SOL     OW20385   5.561   3.624   0.350
 6780SOL    HW120386   5.634   3.595   0.411
 6780SOL    HW220387   5.565   3.723   0.337
 6781SOL     OW20388   3.738   3.443   0.146
 6781SOL    HW120389   3.667   3.375   0.126
 6781SOL    HW220390   3.717   3.489   0.232
 6782SOL     OW20391   5.416   2.777   0.651
 6782SOL    HW120392   5.499   2.725   0.632
 6782SOL    HW220393   5.394   2.834   0.572
 6783SOL     OW20394   5.380   2.958   0.446
 6783SOL    HW120395   5.448   2.977   0.375
 6783SOL    HW220396   5.386   3.027   0.518
 6784SOL     OW20397   3.848   2.607   1.585
 6784SOL    HW120398   3.944   2.634   1.585
 6784SOL    HW220399   3.791   2.688   1.586
 6785SOL     OW20400   4.337   3.251   0.737
 6785SOL    HW120401   4.291   3.164   0.750
 6785SOL    HW220402   4.327   3.280   0.642
 6786SOL     OW20403   5.012   3.096   1.422
 6786SOL    HW120404   5.038   3.026   1.356
 6786SOL    HW220405   5.072   3.092   1.501
 6787SOL     OW20406   4.544   1.876   0.515
 6787SOL    HW120407   4.589   1.961   0.491
 6787SOL    HW220408   4.445   1.891   0.522
 6788SOL     OW20409   3.914   2.823   1.278
 6788SOL    HW120410   4.003   2.780   1.264
 6788SOL    HW220411   3.846   2.777   1.222
 6789SOL     OW20412   5.213   2.885   0.215
 6789SOL    HW120413   5.146   2.819   0.247
 6789SOL    HW220414   5.302   2.866   0.258
 6790SOL     OW20415   4.905   3.674   1.622
 6790SOL    HW120416   4.913   3.743   1.550
 6790SOL    HW220417   4.925   3.584   1.585
 6791SOL     OW20418   4.066   2.111   1.835
 6791SOL    HW120419   4.115   2.196   1.852
 6791SOL    HW220420   3.969   2.124   1.853
 6792SOL     OW20421   5.188   3.283   0.946
 6792SOL    HW120422   5.122   3.301   1.019
 6792SOL    HW220423   5.181   3.187   0.918
 6793SOL     OW20424   5.364   3.617   0.584
 6793SOL    HW120425   5.347   3.590   0.489
 6793SOL    HW220426   5.350   3.539   0.644
 6794SOL     OW20427   4.324   2.578   0.267
 6794SOL    HW120428   4.329   2.668   0.225
 6794SOL    HW220429   4.259   2.581   0.343
 6795SOL     OW20430   5.001   2.221   0.932
 6795SOL    HW120431   4.907   2.187   0.941
 6795SOL    HW220432   5.061   2.170   0.994
 6796SOL     OW20433   5.299   3.540   0.317
 6796SOL    HW120434   5.395   3.569   0.316
 6796SOL    HW220435   5.266   3.531   0.223
 6797SOL     OW20436   4.514   2.474   1.449
 6797SOL    HW120437   4.489   2.450   1.542
 6797SOL    HW220438   4.477   2.406   1.386
 6798SOL     OW20439   5.115   2.332   1.679
 6798SOL    HW120440   5.115   2.381   1.766
 6798SOL    HW220441   5.175   2.252   1.686
 6799SOL     OW20442   4.676   2.746   1.584
 6799SOL    HW120443   4.734   2.675   1.545
 6799SOL    HW220444   4.622   2.789   1.511
 6800SOL     OW20445   4.718   2.267   1.228
 6800SOL    HW120446   4.628   2.289   1.265
 6800SOL    HW220447   4.708   2.217   1.142
 6801SOL     OW20448   4.775   2.564   0.429
 6801SOL    HW120449   4.798   2.560   0.526
 6801SOL    HW220450   4.689   2.515   0.413
 6802SOL     OW20451   3.814   2.686   0.778
 6802SOL    HW120452   3.899   2.675   0.829
 6802SOL    HW220453   3.764   2.765   0.814
 6803SOL     OW20454   3.852   3.736   1.589
 6803SOL    HW120455   3.857   3.708   1.685
 6803SOL    HW220456   3.768   3.700   1.548
 6804SOL     OW20457   4.613   2.205   0.207
 6804SOL    HW120458   4.664   2.265   0.146
 6804SOL    HW220459   4.629   2.110   0.182
 6805SOL     OW20460   5.424   2.434   1.826
 6805SOL    HW120461   5.389   2.514   1.776
 6805SOL    HW220462   5.454   2.364   1.761
 6806SOL     OW20463   5.107   3.003   0.549
 6806SOL    HW120464   5.191   2.990   0.495
 6806SOL    HW220465   5.048   3.069   0.503
 6807SOL     OW20466   4.271   2.035   0.901
 6807SOL    HW120467   4.275   2.064   0.997
 6807SOL    HW220468   4.274   2.115   0.842
 6808SOL     OW20469   4.715   3.300   0.469
 6808SOL    HW120470   4.684   3.382   0.420
 6808SOL    HW220471   4.696   3.311   0.567
 6809SOL     OW20472   4.080   3.676   0.871
 6809SOL    HW120473   4.124   3.587   0.877
 6809SOL    HW220474   4.147   3.748   0.890
 6810SOL     OW20475   5.524   2.915   0.875
 6810SOL    HW120476   5.473   2.894   0.791
 6810SOL    HW220477   5.460   2.922   0.951
 6811SOL     OW20478   4.950   3.398   1.514
 6811SOL    HW120479   4.938   3.324   1.581
 6811SOL    HW220480   4.882   3.389   1.442
 6812SOL     OW20481   4.039   2.822   0.228
 6812SOL    HW120482   4.132   2.835   0.195
 6812SOL    HW220483   4.010   2.728   0.209
 6813SOL     OW20484   5.208   2.608   0.722
 6813SOL    HW120485   5.204   2.568   0.814
 6813SOL    HW220486   5.288   2.669   0.716
 6814SOL     OW20487   4.193   3.128   1.731
 6814SOL    HW120488   4.167   3.134   1.634
 6814SOL    HW220489   4.111   3.125   1.787
 6815SOL     OW20490   4.844   3.628   0.242
 6815SOL    HW120491   4.771   3.582   0.293
 6815SOL    HW220492   4.882   3.565   0.174
 6816SOL     OW20493   3.926   2.135   1.502
 6816SOL    HW120494   3.845   2.193   1.501
 6816SOL    HW220495   3.904   2.047   1.545
 6817SOL     OW20496   5.370   3.293   0.106
 6817SOL    HW120497   5.321   3.373   0.071
 6817SOL    HW220498   5.309   3.239   0.164
 6818SOL     OW20499   4.208   3.560   0.378
 6818SOL    HW120500   4.237   3.645   0.422
 6818SOL    HW220501   4.267   3.542   0.300
 6819SOL     OW20502   3.982   3.653   1.225
 6819SOL    HW120503   4.033   3.581   1.272
 6819SOL    HW220504   3.964   3.626   1.131
 6820SOL     OW20505   4.661   3.565   0.896
 6820SOL    HW120506   4.743   3.517   0.927
 6820SOL    HW220507   4.618   3.512   0.823
 6821SOL     OW20508   4.122   2.549   0.469
 6821SOL    HW120509   4.141   2.452   0.487
 6821SOL    HW220510   4.026   2.568   0.487
 6822SOL     OW20511   5.251   2.085   1.728
 6822SOL    HW120512   5.262   2.106   1.825
 6822SOL    HW220513   5.178   2.017   1.716
 6823SOL     OW20514   4.487   2.138   1.757
 6823SOL    HW120515   4.572   2.086   1.751
 6823SOL    HW220516   4.436   2.108   1.838
 6824SOL     OW20517   4.598   3.376   1.193
 6824SOL    HW120518   4.579   3.340   1.102
 6824SOL    HW220519   4.671   3.323   1.235
 6825SOL     OW20520   5.063   2.451   1.436
 6825SOL    HW120521   5.093   2.416   1.524
 6825SOL    HW220522   5.099   2.543   1.422
 6826SOL     OW20523   4.544   3.250   0.943
 6826SOL    HW120524   4.633   3.239   0.900
 6826SOL    HW220525   4.474   3.257   0.871
 6827SOL     OW20526   4.651   2.369   0.899
 6827SOL    HW120527   4.624   2.361   0.802
 6827SOL    HW220528   4.683   2.280   0.932
 6828SOL     OW20529   4.274   1.934   0.502
 6828SOL    HW120530   4.190   1.930   0.558
 6828SOL    HW220531   4.269   2.011   0.440
 6829SOL     OW20532   5.143   3.075   0.011
 6829SOL    HW120533   5.173   2.995   0.064
 6829SOL    HW220534   5.061   3.114   0.053
 6830SOL     OW20535   4.674   2.112   0.461
 6830SOL    HW120536   4.641   2.152   0.376
 6830SOL    HW220537   4.773   2.127   0.469
 6831SOL     OW20538   4.803   2.546   1.454
 6831SOL    HW120539   4.729   2.479   1.460
 6831SOL    HW220540   4.891   2.497   1.451
 6832SOL     OW20541   4.942   3.429   0.797
 6832SOL    HW120542   4.955   3.499   0.726
 6832SOL    HW220543   5.015   3.436   0.864
 6833SOL     OW20544   4.196   3.015   0.731
 6833SOL    HW120545   4.125   2.993   0.799
 6833SOL    HW220546   4.157   3.007   0.639
 6834SOL     OW20547   4.979   3.646   0.612
 6834SOL    HW120548   5.037   3.709   0.561
 6834SOL    HW220549   4.906   3.697   0.657
 6835SOL     OW20550   4.785   2.441   0.031
 6835SOL    HW120551   4.690   2.465   0.051
 6835SOL    HW220552   4.835   2.429   0.117
 6836SOL     OW20553   3.811   2.419   1.391
 6836SOL    HW120554   3.906   2.415   1.359
 6836SOL    HW220555   3.803   2.490   1.461
 6837SOL     OW20556   4.282   2.086   1.173
 6837SOL    HW120557   4.332   2.010   1.217
 6837SOL    HW220558   4.187   2.084   1.202
 6838SOL     OW20559   4.590   2.318   0.638
 6838SOL    HW120560   4.546   2.381   0.574
 6838SOL    HW220561   4.618   2.236   0.590
 6839SOL     OW20562   4.743   1.911   0.741
 6839SOL    HW120563   4.678   1.912   0.665
 6839SOL    HW220564   4.718   1.838   0.804
 6840SOL     OW20565   5.171   3.023   0.860
 6840SOL    HW120566   5.095   2.958   0.861
 6840SOL    HW220567   5.204   3.033   0.766
 6841SOL     OW20568   5.192   2.471   0.970
 6841SOL    HW120569   5.130   2.393   0.970
 6841SOL    HW220570   5.253   2.465   1.049
 6842SOL     OW20571   5.550   2.666   0.391
 6842SOL    HW120572   5.612   2.606   0.442
 6842SOL    HW220573   5.546   2.637   0.296
 6843SOL     OW20574   4.197   3.290   0.153
 6843SOL    HW120575   4.137   3.240   0.216
 6843SOL    HW220576   4.158   3.286   0.060
 6844SOL     OW20577   5.397   3.127   0.653
 6844SOL    HW120578   5.497   3.125   0.661
 6844SOL    HW220579   5.365   3.221   0.667
 6845SOL     OW20580   5.113   2.413   0.066
 6845SOL    HW120581   5.052   2.412   0.145
 6845SOL    HW220582   5.175   2.335   0.071
 6846SOL     OW20583   4.237   2.127   0.311
 6846SOL    HW120584   4.251   2.060   0.238
 6846SOL    HW220585   4.213   2.215   0.272
 6847SOL     OW20586   5.476   3.103   1.559
 6847SOL    HW120587   5.566   3.061   1.545
 6847SOL    HW220588   5.488   3.196   1.593
 6848SOL     OW20589   4.777   3.212   1.336
 6848SOL    HW120590   4.695   3.182   1.386
 6848SOL    HW220591   4.858   3.172   1.378
 6849SOL     OW20592   5.338   3.492   1.657
 6849SOL    HW120593   5.322   3.527   1.565
 6849SOL    HW220594   5.423   3.440   1.659
 6850SOL     OW20595   4.862   3.083   1.105
 6850SOL    HW120596   4.802   3.117   1.177
 6850SOL    HW220597   4.828   3.114   1.016
 6851SOL     OW20598   5.347   2.958   1.080
 6851SOL    HW120599   5.342   3.024   1.155
 6851SOL    HW220600   5.273   2.976   1.015
 6852SOL     OW20601   4.648   1.955   1.391
 6852SOL    HW120602   4.669   1.933   1.296
 6852SOL    HW220603   4.727   1.999   1.433
 6853SOL     OW20604   4.703   2.977   1.721
 6853SOL    HW120605   4.609   2.996   1.749
 6853SOL    HW220606   4.705   2.894   1.665
 6854SOL     OW20607   4.438   2.919   0.376
 6854SOL    HW120608   4.419   2.902   0.473
 6854SOL    HW220609   4.518   2.866   0.348
 6855SOL     OW20610   4.147   2.677   1.254
 6855SOL    HW120611   4.219   2.691   1.321
 6855SOL    HW220612   4.108   2.586   1.265
 6856SOL     OW20613   4.986   2.238   1.281
 6856SOL    HW120614   5.023   2.317   1.330
 6856SOL    HW220615   4.891   2.255   1.256
 6857SOL     OW20616   3.799   3.434   1.354
 6857SOL    HW120617   3.764   3.504   1.292
 6857SOL    HW220618   3.899   3.431   1.348
 6858SOL     OW20619   4.091   2.983   0.484
 6858SOL    HW120620   4.068   3.059   0.424
 6858SOL    HW220621   4.087   2.897   0.432
 6859SOL     OW20622   4.271   2.405   0.861
 6859SOL    HW120623   4.286   2.464   0.782
 6859SOL    HW220624   4.340   2.425   0.931
 6860SOL     OW20625   4.969   3.208   0.406
 6860SOL    HW120626   5.025   3.284   0.437
 6860SOL    HW220627   4.874   3.224   0.432
 6861SOL     OW20628   5.013   3.324   1.148
 6861SOL    HW120629   5.071   3.330   1.229
 6861SOL    HW220630   4.959   3.240   1.151
 6862SOL     OW20631   5.312   2.489   0.482
 6862SOL    HW120632   5.254   2.531   0.551
 6862SOL    HW220633   5.370   2.559   0.439
 6863SOL     OW20634   4.072   3.392   1.309
 6863SOL    HW120635   4.056   3.347   1.221
 6863SOL    HW220636   4.170   3.406   1.322
 6864SOL     OW20637   4.140   2.609   1.600
 6864SOL    HW120638   4.207   2.654   1.541
 6864SOL    HW220639   4.173   2.517   1.624
 6865SOL     OW20640   5.333   2.647   1.685
 6865SOL    HW120641   5.242   2.689   1.683
 6865SOL    HW220642   5.390   2.688   1.614
 6866SOL     OW20643   4.721   1.997   1.750
 6866SOL    HW120644   4.779   2.077   1.735
 6866SOL    HW220645   4.771   1.914   1.723
 6867SOL     OW20646   4.216   1.897   1.751
 6867SOL    HW120647   4.171   1.840   1.683
 6867SOL    HW220648   4.159   1.977   1.770
 6868SOL     OW20649   4.308   2.734   1.034
 6868SOL    HW120650   4.344   2.827   1.031
 6868SOL    HW220651   4.248   2.724   1.114
 6869SOL     OW20652   5.074   2.719   1.024
 6869SOL    HW120653   4.984   2.711   0.981
 6869SOL    HW220654   5.123   2.633   1.014
 6870SOL     OW20655   4.918   2.389   0.271
 6870SOL    HW120656   4.933   2.309   0.329
 6870SOL    HW220657   4.878   2.463   0.327
 6871SOL     OW20658   4.020   2.058   1.246
 6871SOL    HW120659   3.984   2.094   1.332
 6871SOL    HW220660   4.005   1.959   1.243
 6872SOL     OW20661   3.776   3.172   1.275
 6872SOL    HW120662   3.808   3.110   1.347
 6872SOL    HW220663   3.779   3.266   1.308
 6873SOL     OW20664   4.447   2.492   1.054
 6873SOL    HW120665   4.525   2.473   0.994
 6873SOL    HW220666   4.412   2.584   1.036
 6874SOL     OW20667   5.461   2.822   1.857
 6874SOL    HW120668   5.418   2.753   1.799
 6874SOL    HW220669   5.401   2.842   1.935
 6875SOL     OW20670   4.030   1.927   0.630
 6875SOL    HW120671   4.005   2.022   0.650
 6875SOL    HW220672   4.042   1.877   0.716
 6876SOL     OW20673   5.352   2.240   0.374
 6876SOL    HW120674   5.377   2.170   0.441
 6876SOL    HW220675   5.330   2.325   0.421
 6877SOL     OW20676   4.747   2.617   0.958
 6877SOL    HW120677   4.742   2.639   1.055
 6877SOL    HW220678   4.720   2.521   0.943
 6878SOL     OW20679   4.705   3.425   1.718
 6878SOL    HW120680   4.688   3.472   1.632
 6878SOL    HW220681   4.753   3.339   1.700
 6879SOL     OW20682   5.578   3.365   1.603
 6879SOL    HW120683   5.597   3.391   1.509
 6879SOL    HW220684   5.661   3.376   1.658
 6880SOL     OW20685   4.077   2.780   1.805
 6880SOL    HW120686   4.156   2.802   1.861
 6880SOL    HW220687   4.103   2.715   1.734
 6881SOL     OW20688   5.207   2.157   0.155
 6881SOL    HW120689   5.169   2.066   0.169
 6881SOL    HW220690   5.267   2.181   0.232
 6882SOL     OW20691   5.018   2.682   0.034
 6882SOL    HW120692   5.064   2.594   0.022
 6882SOL    HW220693   5.041   2.742   6.957
 6883SOL     OW20694   4.793   3.199   0.855
 6883SOL    HW120695   4.798   3.121   0.793
 6883SOL    HW220696   4.852   3.273   0.822
 6884SOL     OW20697   4.036   2.668   0.943
 6884SOL    HW120698   4.132   2.694   0.939
 6884SOL    HW220699   4.028   2.573   0.975
 6885SOL     OW20700   4.050   2.390   1.011
 6885SOL    HW120701   4.012   2.298   1.001
 6885SOL    HW220702   4.131   2.398   0.953
 6886SOL     OW20703   4.858   2.234   1.693
 6886SOL    HW120704   4.805   2.291   1.756
 6886SOL    HW220705   4.950   2.272   1.684
 6887SOL     OW20706   4.885   2.065   1.476
 6887SOL    HW120707   4.871   2.127   1.553
 6887SOL    HW220708   4.929   2.114   1.401
 6888SOL     OW20709   3.818   3.645   0.944
 6888SOL    HW120710   3.780   3.564   0.898
 6888SOL    HW220711   3.911   3.661   0.912
 6889SOL     OW20712   4.216   3.438   0.904
 6889SOL    HW120713   4.287   3.504   0.931
 6889SOL    HW220714   4.257   3.370   0.843
 6890SOL     OW20715   4.697   2.655   1.224
 6890SOL    HW120716   4.758   2.632   1.299
 6890SOL    HW220717   4.607   2.613   1.239
 6891SOL     OW20718   3.762   2.415   1.117
 6891SOL    HW120719   3.844   2.403   1.062
 6891SOL    HW220720   3.787   2.417   1.214
 6892SOL     OW20721   3.916   2.385   1.731
 6892SOL    HW120722   3.969   2.331   1.665
 6892SOL    HW220723   3.878   2.465   1.685
 6893SOL     OW20724   5.105   2.796   1.654
 6893SOL    HW120725   5.128   2.894   1.655
 6893SOL    HW220726   5.101   2.764   1.560
 6894SOL     OW20727   4.543   2.431   0.371
 6894SOL    HW120728   4.551   2.353   0.310
 6894SOL    HW220729   4.466   2.488   0.343
 6895SOL     OW20730   5.366   2.465   1.180
 6895SOL    HW120731   5.350   2.405   1.259
 6895SOL    HW220732   5.458   2.448   1.144
 6896SOL     OW20733   3.963   3.408   1.725
 6896SOL    HW120734   3.942   3.483   1.789
 6896SOL    HW220735   3.970   3.322   1.776
 6897SOL     OW20736   4.434   2.308   1.251
 6897SOL    HW120737   4.375   2.231   1.228
 6897SOL    HW220738   4.429   2.377   1.179
 6898SOL     OW20739   4.642   3.543   1.473
 6898SOL    HW120740   4.617   3.496   1.388
 6898SOL    HW220741   4.643   3.642   1.457
 6899SOL     OW20742   4.178   2.361   0.188
 6899SOL    HW120743   4.242   2.433   0.214
 6899SOL    HW220744   4.085   2.398   0.185
 6900SOL     OW20745   3.865   3.000   1.476
 6900SOL    HW120746   3.867   2.956   1.566
 6900SOL    HW220747   3.885   2.932   1.405
 6901SOL     OW20748   5.038   2.905   1.219
 6901SOL    HW120749   5.066   2.837   1.150
 6901SOL    HW220750   4.972   2.968   1.178
 6902SOL     OW20751   5.025   2.709   0.306
 6902SOL    HW120752   4.944   2.679   0.356
 6902SOL    HW220753   5.014   2.687   0.209
 6903SOL     OW20754   5.506   3.590   1.158
 6903SOL    HW120755   5.567   3.624   1.087
 6903SOL    HW220756   5.474   3.499   1.134
 6904SOL     OW20757   4.965   3.595   1.104
 6904SOL    HW120758   5.051   3.624   1.062
 6904SOL    HW220759   4.971   3.498   1.128
 6905SOL     OW20760   3.810   3.128   1.009
 6905SOL    HW120761   3.794   3.142   1.107
 6905SOL    HW220762   3.739   3.068   0.972
 6906SOL     OW20763   4.405   3.536   1.737
 6906SOL    HW120764   4.342   3.614   1.732
 6906SOL    HW220765   4.479   3.549   1.672
 6907SOL     OW20766   4.664   1.940   0.112
 6907SOL    HW120767   4.734   1.995   0.067
 6907SOL    HW220768   4.706   1.879   0.179
 6908SOL     OW20769   5.453   2.024   0.529
 6908SOL    HW120770   5.522   2.015   0.457
 6908SOL    HW220771   5.424   1.934   0.559
 6909SOL     OW20772   5.114   3.424   0.492
 6909SOL    HW120773   5.179   3.455   0.422
 6909SOL    HW220774   5.059   3.502   0.524
 6910SOL     OW20775   3.870   3.649   1.846
 6910SOL    HW120776   3.813   3.581   1.891
 6910SOL    HW220777   3.919   3.702   1.915
 6911SOL     OW20778   5.007   2.786   0.670
 6911SOL    HW120779   5.081   2.721   0.685
 6911SOL    HW220780   5.041   2.864   0.618
 6912SOL     OW20781   4.526   3.141   1.425
 6912SOL    HW120782   4.497   3.185   1.510
 6912SOL    HW220783   4.456   3.155   1.355
 6913SOL     OW20784   4.398   3.468   0.192
 6913SOL    HW120785   4.403   3.518   0.105
 6913SOL    HW220786   4.340   3.387   0.180
 6914SOL     OW20787   5.340   3.591   1.387
 6914SOL    HW120788   5.398   3.591   1.306
 6914SOL    HW220789   5.326   3.685   1.418
 6915SOL     OW20790   5.566   2.031   0.963
 6915SOL    HW120791   5.601   1.939   0.941
 6915SOL    HW220792   5.475   2.042   0.923
 6916SOL     OW20793   3.979   2.179   0.716
 6916SOL    HW120794   3.889   2.214   0.688
 6916SOL    HW220795   3.982   2.170   0.816
 6917SOL     OW20796   4.943   3.460   0.041
 6917SOL    HW120797   4.937   3.365   0.071
 6917SOL    HW220798   4.858   3.487   6.996
 6918SOL     OW20799   4.547   2.872   1.379
 6918SOL    HW120800   4.598   2.856   1.294
 6918SOL    HW220801   4.544   2.970   1.398
 6919SOL     OW20802   4.647   2.775   0.293
 6919SOL    HW120803   4.702   2.804   0.214
 6919SOL    HW220804   4.696   2.704   0.344
 6920SOL     OW20805   5.211   3.517   0.042
 6920SOL    HW120806   5.114   3.495   0.041
 6920SOL    HW220807   5.243   3.533   6.948
 6921SOL     OW20808   4.089   3.165   1.487
 6921SOL    HW120809   4.080   3.245   1.428
 6921SOL    HW220810   4.009   3.106   1.476
 6922SOL     OW20811   5.336   3.146   1.284
 6922SOL    HW120812   5.400   3.127   1.359
 6922SOL    HW220813   5.271   3.216   1.314
 6923SOL     OW20814   4.787   2.968   0.715
 6923SOL    HW120815   4.710   2.919   0.755
 6923SOL    HW220816   4.855   2.902   0.683
 6924SOL     OW20817   4.747   2.101   0.966
 6924SOL    HW120818   4.743   2.057   0.876
 6924SOL    HW220819   4.744   2.030   1.037
 6925SOL     OW20820   4.338   3.339   0.485
 6925SOL    HW120821   4.377   3.287   0.408
 6925SOL    HW220822   4.276   3.409   0.449
 6926SOL     OW20823   5.457   2.255   1.381
 6926SOL    HW120824   5.530   2.324   1.381
 6926SOL    HW220825   5.482   2.180   1.319
 6927SOL     OW20826   4.003   3.181   0.309
 6927SOL    HW120827   3.919   3.166   0.257
 6927SOL    HW220828   3.982   3.235   0.391
 6928SOL     OW20829   3.839   2.898   1.729
 6928SOL    HW120830   3.757   2.870   1.779
 6928SOL    HW220831   3.919   2.852   1.767
 6929SOL     OW20832   4.408   2.055   1.500
 6929SOL    HW120833   4.494   2.031   1.456
 6929SOL    HW220834   4.426   2.090   1.592
 6930SOL     OW20835   3.833   2.180   0.010
 6930SOL    HW120836   3.768   2.128   6.953
 6930SOL    HW220837   3.858   2.265   6.963
 6931SOL     OW20838   5.146   2.718   1.394
 6931SOL    HW120839   5.091   2.782   1.341
 6931SOL    HW220840   5.240   2.719   1.360
 6932SOL     OW20841   3.772   2.034   0.326
 6932SOL    HW120842   3.759   2.127   0.290
 6932SOL    HW220843   3.847   1.990   0.276
 6933SOL     OW20844   4.910   3.206   0.128
 6933SOL    HW120845   4.812   3.192   0.110
 6933SOL    HW220846   4.927   3.195   0.225
 6934SOL     OW20847   4.348   2.692   1.434
 6934SOL    HW120848   4.405   2.773   1.420
 6934SOL    HW220849   4.406   2.611   1.443
 6935SOL     OW20850   5.210   3.653   0.988
 6935SOL    HW120851   5.234   3.718   0.916
 6935SOL    HW220852   5.293   3.614   1.027
 6936SOL     OW20853   4.446   2.419   1.702
 6936SOL    HW120854   4.491   2.486   1.761
 6936SOL    HW220855   4.465   2.327   1.736
 6937SOL     OW20856   5.198   3.057   1.634
 6937SOL    HW120857   5.183   3.071   1.732
 6937SOL    HW220858   5.294   3.076   1.612
 6938SOL     OW20859   4.094   3.600   1.567
 6938SOL    HW120860   4.010   3.653   1.553
 6938SOL    HW220861   4.071   3.512   1.609
 6939SOL     OW20862   5.388   2.740   1.256
 6939SOL    HW120863   5.384   2.649   1.214
 6939SOL    HW220864   5.376   2.809   1.185
 6940SOL     OW20865   4.946   2.179   0.456
 6940SOL    HW120866   5.027   2.128   0.427
 6940SOL    HW220867   4.967   2.231   0.539
 6941SOL     OW20868   4.311   2.596   0.666
 6941SOL    HW120869   4.352   2.687   0.659
 6941SOL    HW220870   4.241   2.585   0.596
 6942SOL     OW20871   5.474   2.227   1.653
 6942SOL    HW120872   5.465   2.243   1.555
 6942SOL    HW220873   5.399   2.167   1.684
 6943SOL     OW20874   5.477   2.793   1.509
 6943SOL    HW120875   5.465   2.890   1.531
 6943SOL    HW220876   5.455   2.778   1.413
 6944SOL     OW20877   4.629   3.245   0.055
 6944SOL    HW120878   4.568   3.221   0.130
 6944SOL    HW220879   4.631   3.345   0.045
 6945SOL     OW20880   4.389   3.646   0.941
 6945SOL    HW120881   4.366   3.741   0.920
 6945SOL    HW220882   4.488   3.632   0.930
 6946SOL     OW20883   4.593   2.833   0.856
 6946SOL    HW120884   4.644   2.755   0.893
 6946SOL    HW220885   4.550   2.883   0.932
 6947SOL     OW20886   4.805   2.844   0.080
 6947SOL    HW120887   4.805   2.904   6.999
 6947SOL    HW220888   4.883   2.783   0.076
 6948SOL     OW20889   5.569   3.419   0.846
 6948SOL    HW120890   5.492   3.405   0.784
 6948SOL    HW220891   5.570   3.346   0.915
 6949SOL     OW20892   3.956   3.160   1.856
 6949SOL    HW120893   3.891   3.092   1.822
 6949SOL    HW220894   3.941   3.173   1.954
 6950SOL     OW20895   3.807   3.095   0.665
 6950SOL    HW120896   3.826   3.045   0.749
 6950SOL    HW220897   3.853   3.050   0.588
 6951SOL     OW20898   4.407   3.272   1.634
 6951SOL    HW120899   4.326   3.222   1.666
 6951SOL    HW220900   4.406   3.365   1.671
 6952SOL     OW20901   5.528   2.044   1.233
 6952SOL    HW120902   5.542   1.948   1.257
 6952SOL    HW220903   5.541   2.056   1.135
 6953SOL     OW20904   4.155   2.291   0.528
 6953SOL    HW120905   4.185   2.219   0.465
 6953SOL    HW220906   4.100   2.250   0.601
 6954SOL     OW20907   5.415   3.345   1.095
 6954SOL    HW120908   5.335   3.327   1.037
 6954SOL    HW220909   5.423   3.273   1.164
 6955SOL     OW20910   4.060   2.418   1.289
 6955SOL    HW120911   4.116   2.361   1.348
 6955SOL    HW220912   4.075   2.392   1.193
 6956SOL     OW20913   4.552   3.441   0.680
 6956SOL    HW120914   4.539   3.502   0.601
 6956SOL    HW220915   4.476   3.377   0.686
 6957SOL     OW20916   5.154   2.094   1.117
 6957SOL    HW120917   5.176   2.004   1.153
 6957SOL    HW220918   5.100   2.145   1.184
 6958SOL     OW20919   4.734   1.878   1.136
 6958SOL    HW120920   4.670   1.814   1.093
 6958SOL    HW220921   4.825   1.837   1.138
 6959SOL     OW20922   4.508   3.180   0.308
 6959SOL    HW120923   4.475   3.088   0.329
 6959SOL    HW220924   4.585   3.201   0.369
 6960SOL     OW20925   4.347   3.421   1.290
 6960SOL    HW120926   4.344   3.508   1.339
 6960SOL    HW220927   4.438   3.409   1.250
 6961SOL     OW20928   5.076   1.916   0.186
 6961SOL    HW120929   5.119   1.856   0.118
 6961SOL    HW220930   4.990   1.876   0.217
 6962SOL     OW20931   5.008   2.323   0.678
 6962SOL    HW120932   4.959   2.410   0.681
 6962SOL    HW220933   5.010   2.283   0.770
 6963SOL     OW20934   5.309   2.064   0.884
 6963SOL    HW120935   5.252   2.086   0.964
 6963SOL    HW220936   5.313   2.144   0.824
 6964SOL     OW20937   3.812   2.914   0.364
 6964SOL    HW120938   3.898   2.890   0.321
 6964SOL    HW220939   3.756   2.832   0.375
 6965SOL     OW20940   4.612   3.525   0.354
 6965SOL    HW120941   4.537   3.497   0.295
 6965SOL    HW220942   4.584   3.604   0.408
 6966SOL     OW20943   3.944   2.481   1.991
 6966SOL    HW120944   3.852   2.480   2.031
 6966SOL    HW220945   3.938   2.459   1.893
 6967SOL     OW20946   3.946   2.145   2.857
 6967SOL    HW120947   3.979   2.110   2.945
 6967SOL    HW220948   3.853   2.112   2.840
 6968SOL     OW20949   3.724   2.248   2.496
 6968SOL    HW120950   3.640   2.279   2.542
 6968SOL    HW220951   3.705   2.165   2.444
 6969SOL     OW20952   4.289   3.158   3.048
 6969SOL    HW120953   4.199   3.162   3.004
 6969SOL    HW220954   4.317   3.250   3.076
 6970SOL     OW20955   5.290   3.376   2.570
 6970SOL    HW120956   5.248   3.353   2.658
 6970SOL    HW220957   5.219   3.383   2.500
 6971SOL     OW20958   4.858   2.565   2.556
 6971SOL    HW120959   4.909   2.649   2.539
 6971SOL    HW220960   4.807   2.574   2.642
 6972SOL     OW20961   5.496   2.460   2.084
 6972SOL    HW120962   5.471   2.456   1.987
 6972SOL    HW220963   5.457   2.381   2.131
 6973SOL     OW20964   4.464   3.000   2.904
 6973SOL    HW120965   4.398   3.035   2.970
 6973SOL    HW220966   4.507   3.076   2.856
 6974SOL     OW20967   4.600   2.624   3.683
 6974SOL    HW120968   4.582   2.692   3.754
 6974SOL    HW220969   4.622   2.670   3.597
 6975SOL     OW20970   4.407   2.860   2.511
 6975SOL    HW120971   4.479   2.851   2.580
 6975SOL    HW220972   4.333   2.916   2.547
 6976SOL     OW20973   4.439   3.010   3.669
 6976SOL    HW120974   4.486   3.084   3.717
 6976SOL    HW220975   4.350   3.043   3.638
 6977SOL     OW20976   4.051   3.285   2.934
 6977SOL    HW120977   3.973   3.241   2.890
 6977SOL    HW220978   4.102   3.338   2.866
 6978SOL     OW20979   4.175   2.254   3.339
 6978SOL    HW120980   4.256   2.197   3.347
 6978SOL    HW220981   4.093   2.200   3.358
 6979SOL     OW20982   5.334   2.307   2.607
 6979SOL    HW120983   5.260   2.326   2.543
 6979SOL    HW220984   5.339   2.382   2.674
 6980SOL     OW20985   3.946   3.577   2.333
 6980SOL    HW120986   3.964   3.655   2.393
 6980SOL    HW220987   4.022   3.566   2.268
 6981SOL     OW20988   4.844   3.203   3.582
 6981SOL    HW120989   4.895   3.193   3.668
 6981SOL    HW220990   4.789   3.121   3.566
 6982SOL     OW20991   3.957   3.306   2.398
 6982SOL    HW120992   3.941   3.404   2.397
 6982SOL    HW220993   3.898   3.263   2.466
 6983SOL     OW20994   3.994   2.952   2.763
 6983SOL    HW120995   3.991   2.858   2.796
 6983SOL    HW220996   3.933   3.009   2.818
 6984SOL     OW20997   4.338   3.668   3.271
 6984SOL    HW120998   4.249   3.659   3.316
 6984SOL    HW220999   4.383   3.752   3.302
 6985SOL     OW21000   4.305   2.850   2.004
 6985SOL    HW121001   4.353   2.896   1.929
 6985SOL    HW221002   4.345   2.878   2.091
 6986SOL     OW21003   5.321   1.987   3.331
 6986SOL    HW121004   5.342   2.067   3.275
 6986SOL    HW221005   5.305   2.016   3.425
 6987SOL     OW21006   3.838   2.523   2.426
 6987SOL    HW121007   3.809   2.429   2.443
 6987SOL    HW221008   3.833   2.576   2.511
 6988SOL     OW21009   5.570   3.617   2.193
 6988SOL    HW121010   5.640   3.587   2.258
 6988SOL    HW221011   5.586   3.713   2.170
 6989SOL     OW21012   3.753   3.452   1.984
 6989SOL    HW121013   3.738   3.355   2.004
 6989SOL    HW221014   3.733   3.506   2.066
 6990SOL     OW21015   5.415   2.783   2.509
 6990SOL    HW121016   5.499   2.732   2.491
 6990SOL    HW221017   5.391   2.837   2.428
 6991SOL     OW21018   5.377   2.967   2.294
 6991SOL    HW121019   5.466   2.963   2.249
 6991SOL    HW221020   5.380   3.034   2.368
 6992SOL     OW21021   3.849   2.605   3.447
 6992SOL    HW121022   3.944   2.634   3.448
 6992SOL    HW221023   3.789   2.685   3.447
 6993SOL     OW21024   4.335   3.253   2.594
 6993SOL    HW121025   4.289   3.165   2.607
 6993SOL    HW221026   4.322   3.284   2.500
 6994SOL     OW21027   5.042   3.114   3.265
 6994SOL    HW121028   5.047   3.030   3.211
 6994SOL    HW221029   5.080   3.097   3.356
 6995SOL     OW21030   4.542   1.872   2.370
 6995SOL    HW121031   4.588   1.958   2.347
 6995SOL    HW221032   4.443   1.888   2.378
 6996SOL     OW21033   3.916   2.825   3.139
 6996SOL    HW121034   4.004   2.780   3.124
 6996SOL    HW221035   3.845   2.778   3.086
 6997SOL     OW21036   5.256   2.863   2.067
 6997SOL    HW121037   5.183   2.803   2.096
 6997SOL    HW221038   5.303   2.901   2.147
 6998SOL     OW21039   4.066   2.111   3.697
 6998SOL    HW121040   4.115   2.196   3.713
 6998SOL    HW221041   3.969   2.124   3.715
 6999SOL     OW21042   5.191   3.281   2.812
 6999SOL    HW121043   5.126   3.299   2.885
 6999SOL    HW221044   5.183   3.186   2.782
 7000SOL     OW21045   5.374   3.612   2.437
 7000SOL    HW121046   5.356   3.582   2.344
 7000SOL    HW221047   5.353   3.539   2.501
 7001SOL     OW21048   4.318   2.580   2.135
 7001SOL    HW121049   4.324   2.666   2.084
 7001SOL    HW221050   4.249   2.588   2.207
 7002SOL     OW21051   5.001   2.223   2.796
 7002SOL    HW121052   4.908   2.188   2.802
 7002SOL    HW221053   5.061   2.170   2.857
 7003SOL     OW21054   5.307   3.535   2.170
 7003SOL    HW121055   5.403   3.562   2.166
 7003SOL    HW221056   5.274   3.518   2.077
 7004SOL     OW21057   4.514   2.474   3.311
 7004SOL    HW121058   4.489   2.450   3.404
 7004SOL    HW221059   4.477   2.406   3.248
 7005SOL     OW21060   5.115   2.332   3.542
 7005SOL    HW121061   5.116   2.381   3.629
 7005SOL    HW221062   5.175   2.252   3.548
 7006SOL     OW21063   4.675   2.744   3.443
 7006SOL    HW121064   4.733   2.672   3.404
 7006SOL    HW221065   4.622   2.786   3.369
 7007SOL     OW21066   4.718   2.266   3.090
 7007SOL    HW121067   4.627   2.288   3.126
 7007SOL    HW221068   4.709   2.218   3.003
 7008SOL     OW21069   4.774   2.561   2.286
 7008SOL    HW121070   4.797   2.556   2.384
 7008SOL    HW221071   4.688   2.513   2.270
 7009SOL     OW21072   3.813   2.690   2.642
 7009SOL    HW121073   3.898   2.677   2.693
 7009SOL    HW221074   3.764   2.769   2.679
 7010SOL     OW21075   3.848   3.758   3.418
 7010SOL    HW121076   3.833   3.730   3.513
 7010SOL    HW221077   3.770   3.729   3.363
 7011SOL     OW21078   4.621   2.214   2.059
 7011SOL    HW121079   4.661   2.282   1.998
 7011SOL    HW221080   4.628   2.124   2.018
 7012SOL     OW21081   5.424   2.434   3.688
 7012SOL    HW121082   5.389   2.513   3.638
 7012SOL    HW221083   5.454   2.364   3.623
 7013SOL     OW21084   5.104   3.005   2.395
 7013SOL    HW121085   5.189   2.990   2.344
 7013SOL    HW221086   5.048   3.073   2.348
 7014SOL     OW21087   4.271   2.034   2.763
 7014SOL    HW121088   4.275   2.064   2.859
 7014SOL    HW221089   4.274   2.114   2.703
 7015SOL     OW21090   4.718   3.305   2.325
 7015SOL    HW121091   4.688   3.386   2.275
 7015SOL    HW221092   4.700   3.318   2.423
 7016SOL     OW21093   4.083   3.677   2.731
 7016SOL    HW121094   4.127   3.587   2.740
 7016SOL    HW221095   4.150   3.749   2.751
 7017SOL     OW21096   5.523   2.917   2.732
 7017SOL    HW121097   5.472   2.894   2.649
 7017SOL    HW221098   5.460   2.922   2.809
 7018SOL     OW21099   4.045   2.821   2.117
 7018SOL    HW121100   4.133   2.842   2.074
 7018SOL    HW221101   4.009   2.736   2.079
 7019SOL     OW21102   5.208   2.613   2.584
 7019SOL    HW121103   5.202   2.568   2.673
 7019SOL    HW221104   5.288   2.672   2.581
 7020SOL     OW21105   4.193   3.095   3.601
 7020SOL    HW121106   4.169   3.127   3.510
 7020SOL    HW221107   4.110   3.086   3.656
 7021SOL     OW21108   4.846   3.638   2.087
 7021SOL    HW121109   4.767   3.601   2.136
 7021SOL    HW221110   4.876   3.573   2.017
 7022SOL     OW21111   3.926   2.135   3.364
 7022SOL    HW121112   3.845   2.194   3.363
 7022SOL    HW221113   3.904   2.048   3.408
 7023SOL     OW21114   5.348   3.244   1.950
 7023SOL    HW121115   5.310   3.335   1.935
 7023SOL    HW221116   5.279   3.175   1.932
 7024SOL     OW21117   4.188   3.596   2.180
 7024SOL    HW121118   4.230   3.659   2.246
 7024SOL    HW221119   4.259   3.560   2.120
 7025SOL     OW21120   5.125   1.966   2.300
 7025SOL    HW121121   5.113   1.940   2.204
 7025SOL    HW221122   5.222   1.975   2.320
 7026SOL     OW21123   3.981   3.654   3.092
 7026SOL    HW121124   4.041   3.583   3.129
 7026SOL    HW221125   3.952   3.628   3.000
 7027SOL     OW21126   4.658   3.564   2.757
 7027SOL    HW121127   4.740   3.518   2.793
 7027SOL    HW221128   4.619   3.511   2.682
 7028SOL     OW21129   4.120   2.550   2.336
 7028SOL    HW121130   4.139   2.453   2.350
 7028SOL    HW221131   4.023   2.567   2.354
 7029SOL     OW21132   5.251   2.085   3.590
 7029SOL    HW121133   5.262   2.105   3.687
 7029SOL    HW221134   5.178   2.017   3.578
 7030SOL     OW21135   4.366   1.978   1.964
 7030SOL    HW121136   4.433   1.908   1.986
 7030SOL    HW221137   4.309   1.947   1.887
 7031SOL     OW21138   4.487   2.138   3.619
 7031SOL    HW121139   4.572   2.086   3.613
 7031SOL    HW221140   4.435   2.108   3.700
 7032SOL     OW21141   4.592   3.358   3.043
 7032SOL    HW121142   4.575   3.321   2.951
 7032SOL    HW221143   4.667   3.308   3.085
 7033SOL     OW21144   5.064   2.450   3.298
 7033SOL    HW121145   5.094   2.415   3.386
 7033SOL    HW221146   5.099   2.543   3.285
 7034SOL     OW21147   4.542   3.241   2.796
 7034SOL    HW121148   4.633   3.236   2.754
 7034SOL    HW221149   4.473   3.252   2.724
 7035SOL     OW21150   4.651   2.369   2.759
 7035SOL    HW121151   4.624   2.362   2.663
 7035SOL    HW221152   4.683   2.280   2.792
 7036SOL     OW21153   4.271   1.926   2.355
 7036SOL    HW121154   4.190   1.924   2.413
 7036SOL    HW221155   4.268   2.007   2.296
 7037SOL     OW21156   5.149   3.061   1.905
 7037SOL    HW121157   5.183   2.984   1.958
 7037SOL    HW221158   5.061   3.091   1.941
 7038SOL     OW21159   4.014   1.910   2.048
 7038SOL    HW121160   4.066   1.982   2.001
 7038SOL    HW221161   4.077   1.846   2.091
 7039SOL     OW21162   4.671   2.113   2.318
 7039SOL    HW121163   4.640   2.154   2.232
 7039SOL    HW221164   4.770   2.127   2.327
 7040SOL     OW21165   4.804   2.544   3.315
 7040SOL    HW121166   4.729   2.477   3.321
 7040SOL    HW221167   4.891   2.495   3.312
 7041SOL     OW21168   4.948   3.430   2.654
 7041SOL    HW121169   4.958   3.501   2.584
 7041SOL    HW221170   5.015   3.445   2.727
 7042SOL     OW21171   4.193   3.014   2.589
 7042SOL    HW121172   4.126   2.993   2.661
 7042SOL    HW221173   4.149   3.001   2.500
 7043SOL     OW21174   4.985   3.653   2.472
 7043SOL    HW121175   5.037   3.716   2.414
 7043SOL    HW221176   4.912   3.703   2.519
 7044SOL     OW21177   4.745   2.397   1.892
 7044SOL    HW121178   4.700   2.483   1.868
 7044SOL    HW221179   4.814   2.414   1.962
 7045SOL     OW21180   3.811   2.419   3.252
 7045SOL    HW121181   3.906   2.414   3.220
 7045SOL    HW221182   3.803   2.489   3.323
 7046SOL     OW21183   4.282   2.086   3.035
 7046SOL    HW121184   4.332   2.011   3.078
 7046SOL    HW221185   4.186   2.084   3.064
 7047SOL     OW21186   4.590   2.320   2.498
 7047SOL    HW121187   4.542   2.382   2.436
 7047SOL    HW221188   4.618   2.238   2.448
 7048SOL     OW21189   4.741   1.915   2.607
 7048SOL    HW121190   4.681   1.915   2.527
 7048SOL    HW221191   4.716   1.839   2.667
 7049SOL     OW21192   5.170   3.022   2.720
 7049SOL    HW121193   5.091   2.960   2.723
 7049SOL    HW221194   5.199   3.033   2.625
 7050SOL     OW21195   5.192   2.470   2.830
 7050SOL    HW121196   5.129   2.392   2.830
 7050SOL    HW221197   5.253   2.464   2.910
 7051SOL     OW21198   5.566   2.670   2.242
 7051SOL    HW121199   5.624   2.623   2.308
 7051SOL    HW221200   5.537   2.606   2.171
 7052SOL     OW21201   4.211   3.283   2.017
 7052SOL    HW121202   4.130   3.256   2.070
 7052SOL    HW221203   4.210   3.236   1.928
 7053SOL     OW21204   5.400   3.129   2.505
 7053SOL    HW121205   5.499   3.127   2.517
 7053SOL    HW221206   5.366   3.221   2.526
 7054SOL     OW21207   5.114   2.436   1.932
 7054SOL    HW121208   5.051   2.414   2.007
 7054SOL    HW221209   5.207   2.411   1.958
 7055SOL     OW21210   4.252   2.126   2.171
 7055SOL    HW121211   4.300   2.074   2.100
 7055SOL    HW221212   4.223   2.214   2.133
 7056SOL     OW21213   5.477   3.086   3.429
 7056SOL    HW121214   5.564   3.041   3.408
 7056SOL    HW221215   5.495   3.179   3.459
 7057SOL     OW21216   4.768   3.179   3.179
 7057SOL    HW121217   4.687   3.164   3.236
 7057SOL    HW221218   4.850   3.166   3.235
 7058SOL     OW21219   4.865   3.074   2.951
 7058SOL    HW121220   4.809   3.104   3.028
 7058SOL    HW221221   4.825   3.106   2.865
 7059SOL     OW21222   5.346   2.953   2.936
 7059SOL    HW121223   5.342   3.020   3.010
 7059SOL    HW221224   5.272   2.971   2.871
 7060SOL     OW21225   4.648   1.955   3.253
 7060SOL    HW121226   4.669   1.933   3.158
 7060SOL    HW221227   4.727   1.999   3.295
 7061SOL     OW21228   4.698   2.971   3.583
 7061SOL    HW121229   4.603   2.985   3.613
 7061SOL    HW221230   4.703   2.889   3.525
 7062SOL     OW21231   4.437   2.921   2.235
 7062SOL    HW121232   4.420   2.903   2.332
 7062SOL    HW221233   4.516   2.867   2.205
 7063SOL     OW21234   4.147   2.677   3.116
 7063SOL    HW121235   4.219   2.691   3.183
 7063SOL    HW221236   4.108   2.586   3.127
 7064SOL     OW21237   4.986   2.237   3.143
 7064SOL    HW121238   5.023   2.317   3.192
 7064SOL    HW221239   4.891   2.255   3.118
 7065SOL     OW21240   3.796   3.423   3.184
 7065SOL    HW121241   3.746   3.509   3.185
 7065SOL    HW221242   3.895   3.442   3.189
 7066SOL     OW21243   4.063   2.982   2.349
 7066SOL    HW121244   4.069   3.064   2.292
 7066SOL    HW221245   4.062   2.901   2.290
 7067SOL     OW21246   4.271   2.405   2.724
 7067SOL    HW121247   4.285   2.464   2.645
 7067SOL    HW221248   4.340   2.425   2.793
 7068SOL     OW21249   4.970   3.217   2.255
 7068SOL    HW121250   5.031   3.290   2.286
 7068SOL    HW221251   4.876   3.237   2.285
 7069SOL     OW21252   5.004   3.308   3.007
 7069SOL    HW121253   5.021   3.301   3.106
 7069SOL    HW221254   4.952   3.228   2.977
 7070SOL     OW21255   5.301   2.482   2.346
 7070SOL    HW121256   5.250   2.529   2.418
 7070SOL    HW221257   5.347   2.549   2.288
 7071SOL     OW21258   4.085   3.399   3.175
 7071SOL    HW121259   4.062   3.353   3.090
 7071SOL    HW221260   4.185   3.408   3.182
 7072SOL     OW21261   4.142   2.608   3.461
 7072SOL    HW121262   4.208   2.653   3.403
 7072SOL    HW221263   4.175   2.516   3.484
 7073SOL     OW21264   5.333   2.647   3.548
 7073SOL    HW121265   5.242   2.688   3.545
 7073SOL    HW221266   5.389   2.687   3.476
 7074SOL     OW21267   4.721   1.997   3.612
 7074SOL    HW121268   4.779   2.077   3.597
 7074SOL    HW221269   4.771   1.914   3.586
 7075SOL     OW21270   4.216   1.897   3.613
 7075SOL    HW121271   4.171   1.840   3.545
 7075SOL    HW221272   4.159   1.977   3.632
 7076SOL     OW21273   4.309   2.734   2.897
 7076SOL    HW121274   4.345   2.827   2.894
 7076SOL    HW221275   4.248   2.724   2.976
 7077SOL     OW21276   5.075   2.717   2.887
 7077SOL    HW121277   4.984   2.710   2.845
 7077SOL    HW221278   5.124   2.630   2.875
 7078SOL     OW21279   4.921   2.388   2.126
 7078SOL    HW121280   4.934   2.306   2.181
 7078SOL    HW221281   4.877   2.459   2.181
 7079SOL     OW21282   4.020   2.058   3.109
 7079SOL    HW121283   3.984   2.094   3.194
 7079SOL    HW221284   4.005   1.959   3.105
 7080SOL     OW21285   3.755   3.161   3.146
 7080SOL    HW121286   3.807   3.108   3.213
 7080SOL    HW221287   3.770   3.259   3.162
 7081SOL     OW21288   4.448   2.493   2.916
 7081SOL    HW121289   4.525   2.474   2.855
 7081SOL    HW221290   4.413   2.584   2.898
 7082SOL     OW21291   5.460   2.821   3.721
 7082SOL    HW121292   5.417   2.753   3.662
 7082SOL    HW221293   5.400   2.841   3.798
 7083SOL     OW21294   4.031   1.923   2.490
 7083SOL    HW121295   4.006   2.018   2.508
 7083SOL    HW221296   4.042   1.874   2.577
 7084SOL     OW21297   5.352   2.243   2.223
 7084SOL    HW121298   5.378   2.170   2.285
 7084SOL    HW221299   5.323   2.323   2.276
 7085SOL     OW21300   4.748   2.617   2.819
 7085SOL    HW121301   4.742   2.638   2.916
 7085SOL    HW221302   4.721   2.522   2.804
 7086SOL     OW21303   5.605   3.325   3.467
 7086SOL    HW121304   5.621   3.367   3.377
 7086SOL    HW221305   5.679   3.351   3.529
 7087SOL     OW21306   4.070   2.772   3.668
 7087SOL    HW121307   4.149   2.807   3.719
 7087SOL    HW221308   4.102   2.709   3.597
 7088SOL     OW21309   5.251   2.130   1.992
 7088SOL    HW121310   5.182   2.062   2.017
 7088SOL    HW221311   5.288   2.173   2.075
 7089SOL     OW21312   5.012   2.687   1.887
 7089SOL    HW121313   5.053   2.597   1.896
 7089SOL    HW221314   5.043   2.730   1.803
 7090SOL     OW21315   4.795   3.203   2.712
 7090SOL    HW121316   4.800   3.124   2.649
 7090SOL    HW221317   4.855   3.275   2.679
 7091SOL     OW21318   4.036   2.668   2.804
 7091SOL    HW121319   4.132   2.694   2.800
 7091SOL    HW221320   4.028   2.574   2.837
 7092SOL     OW21321   4.050   2.390   2.873
 7092SOL    HW121322   4.011   2.298   2.863
 7092SOL    HW221323   4.131   2.399   2.815
 7093SOL     OW21324   4.858   2.234   3.555
 7093SOL    HW121325   4.805   2.291   3.618
 7093SOL    HW221326   4.950   2.272   3.546
 7094SOL     OW21327   4.886   2.064   3.338
 7094SOL    HW121328   4.871   2.127   3.415
 7094SOL    HW221329   4.928   2.114   3.263
 7095SOL     OW21330   3.724   3.176   2.056
 7095SOL    HW121331   3.635   3.196   2.017
 7095SOL    HW221332   3.725   3.083   2.092
 7096SOL     OW21333   3.821   3.646   2.800
 7096SOL    HW121334   3.786   3.563   2.755
 7096SOL    HW221335   3.915   3.662   2.770
 7097SOL     OW21336   4.218   3.436   2.769
 7097SOL    HW121337   4.287   3.504   2.794
 7097SOL    HW221338   4.257   3.369   2.706
 7098SOL     OW21339   4.697   2.654   3.085
 7098SOL    HW121340   4.758   2.630   3.161
 7098SOL    HW221341   4.607   2.613   3.099
 7099SOL     OW21342   3.762   2.415   2.979
 7099SOL    HW121343   3.844   2.404   2.924
 7099SOL    HW221344   3.786   2.417   3.076
 7100SOL     OW21345   3.917   2.385   3.593
 7100SOL    HW121346   3.970   2.331   3.527
 7100SOL    HW221347   3.879   2.465   3.547
 7101SOL     OW21348   5.105   2.797   3.516
 7101SOL    HW121349   5.129   2.894   3.517
 7101SOL    HW221350   5.102   2.764   3.422
 7102SOL     OW21351   4.541   2.434   2.223
 7102SOL    HW121352   4.551   2.355   2.164
 7102SOL    HW221353   4.463   2.489   2.194
 7103SOL     OW21354   5.366   2.465   3.042
 7103SOL    HW121355   5.350   2.405   3.121
 7103SOL    HW221356   5.458   2.447   3.006
 7104SOL     OW21357   4.434   2.308   3.113
 7104SOL    HW121358   4.375   2.231   3.090
 7104SOL    HW221359   4.430   2.377   3.041
 7105SOL     OW21360   4.182   2.357   2.046
 7105SOL    HW121361   4.247   2.429   2.072
 7105SOL    HW221362   4.091   2.397   2.034
 7106SOL     OW21363   3.878   3.000   3.340
 7106SOL    HW121364   3.879   2.954   3.428
 7106SOL    HW221365   3.896   2.933   3.267
 7107SOL     OW21366   5.037   2.903   3.081
 7107SOL    HW121367   5.067   2.835   3.014
 7107SOL    HW221368   4.972   2.966   3.037
 7108SOL     OW21369   5.041   2.719   2.160
 7108SOL    HW121370   4.965   2.692   2.219
 7108SOL    HW221371   5.015   2.706   2.064
 7109SOL     OW21372   5.468   3.609   2.959
 7109SOL    HW121373   5.548   3.628   2.903
 7109SOL    HW221374   5.452   3.510   2.963
 7110SOL     OW21375   4.965   3.586   2.957
 7110SOL    HW121376   5.053   3.618   2.923
 7110SOL    HW221377   4.972   3.490   2.984
 7111SOL     OW21378   3.812   3.123   2.879
 7111SOL    HW121379   3.788   3.137   2.976
 7111SOL    HW221380   3.740   3.069   2.835
 7112SOL     OW21381   5.444   2.013   2.360
 7112SOL    HW121382   5.519   2.003   2.295
 7112SOL    HW221383   5.427   1.926   2.405
 7113SOL     OW21384   5.119   3.433   2.350
 7113SOL    HW121385   5.182   3.465   2.279
 7113SOL    HW221386   5.064   3.509   2.383
 7114SOL     OW21387   5.006   2.791   2.527
 7114SOL    HW121388   5.081   2.726   2.543
 7114SOL    HW221389   5.039   2.867   2.472
 7115SOL     OW21390   4.527   3.138   3.301
 7115SOL    HW121391   4.514   3.160   3.397
 7115SOL    HW221392   4.450   3.174   3.248
 7116SOL     OW21393   4.392   3.484   2.016
 7116SOL    HW121394   4.409   3.503   1.919
 7116SOL    HW221395   4.334   3.403   2.025
 7117SOL     OW21396   5.566   2.031   2.826
 7117SOL    HW121397   5.600   1.939   2.803
 7117SOL    HW221398   5.475   2.043   2.786
 7118SOL     OW21399   3.979   2.175   2.577
 7118SOL    HW121400   3.890   2.212   2.549
 7118SOL    HW221401   3.982   2.168   2.677
 7119SOL     OW21402   4.933   3.462   1.895
 7119SOL    HW121403   4.923   3.368   1.928
 7119SOL    HW221404   4.865   3.479   1.823
 7120SOL     OW21405   4.547   2.871   3.237
 7120SOL    HW121406   4.597   2.856   3.152
 7120SOL    HW221407   4.541   2.970   3.255
 7121SOL     OW21408   4.644   2.772   2.149
 7121SOL    HW121409   4.705   2.808   2.078
 7121SOL    HW221410   4.691   2.701   2.201
 7122SOL     OW21411   5.212   3.493   1.904
 7122SOL    HW121412   5.113   3.481   1.893
 7122SOL    HW221413   5.256   3.498   1.814
 7123SOL     OW21414   4.092   3.181   3.362
 7123SOL    HW121415   4.085   3.253   3.293
 7123SOL    HW221416   4.018   3.115   3.348
 7124SOL     OW21417   5.330   3.137   3.139
 7124SOL    HW121418   5.413   3.129   3.195
 7124SOL    HW221419   5.252   3.154   3.199
 7125SOL     OW21420   4.787   2.968   2.577
 7125SOL    HW121421   4.710   2.919   2.617
 7125SOL    HW221422   4.856   2.903   2.545
 7126SOL     OW21423   4.747   2.102   2.829
 7126SOL    HW121424   4.743   2.058   2.739
 7126SOL    HW221425   4.744   2.031   2.900
 7127SOL     OW21426   4.328   3.348   2.341
 7127SOL    HW121427   4.381   3.294   2.275
 7127SOL    HW221428   4.254   3.396   2.294
 7128SOL     OW21429   5.457   2.256   3.243
 7128SOL    HW121430   5.529   2.324   3.243
 7128SOL    HW221431   5.482   2.181   3.182
 7129SOL     OW21432   3.977   3.210   2.150
 7129SOL    HW121433   3.881   3.203   2.123
 7129SOL    HW221434   3.982   3.249   2.242
 7130SOL     OW21435   3.835   2.886   3.588
 7130SOL    HW121436   3.753   2.860   3.638
 7130SOL    HW221437   3.915   2.840   3.628
 7131SOL     OW21438   4.408   2.055   3.362
 7131SOL    HW121439   4.494   2.031   3.318
 7131SOL    HW221440   4.426   2.090   3.454
 7132SOL     OW21441   3.806   2.189   1.890
 7132SOL    HW121442   3.714   2.166   1.858
 7132SOL    HW221443   3.838   2.271   1.843
 7133SOL     OW21444   5.147   2.718   3.257
 7133SOL    HW121445   5.090   2.780   3.202
 7133SOL    HW221446   5.241   2.719   3.222
 7134SOL     OW21447   3.786   2.017   2.163
 7134SOL    HW121448   3.770   2.101   2.111
 7134SOL    HW221449   3.875   1.978   2.136
 7135SOL     OW21450   4.904   3.199   1.983
 7135SOL    HW121451   4.809   3.169   1.977
 7135SOL    HW221452   4.932   3.200   2.079
 7136SOL     OW21453   4.348   2.692   3.295
 7136SOL    HW121454   4.406   2.772   3.280
 7136SOL    HW221455   4.406   2.611   3.304
 7137SOL     OW21456   5.213   3.649   2.852
 7137SOL    HW121457   5.226   3.713   2.777
 7137SOL    HW221458   5.301   3.633   2.898
 7138SOL     OW21459   4.447   2.418   3.564
 7138SOL    HW121460   4.491   2.485   3.623
 7138SOL    HW221461   4.464   2.326   3.597
 7139SOL     OW21462   5.200   3.058   3.495
 7139SOL    HW121463   5.182   3.071   3.593
 7139SOL    HW221464   5.298   3.070   3.477
 7140SOL     OW21465   4.102   3.642   3.395
 7140SOL    HW121466   4.014   3.688   3.387
 7140SOL    HW221467   4.088   3.543   3.403
 7141SOL     OW21468   5.387   2.739   3.117
 7141SOL    HW121469   5.384   2.648   3.076
 7141SOL    HW221470   5.376   2.808   3.045
 7142SOL     OW21471   4.943   2.179   2.322
 7142SOL    HW121472   5.007   2.102   2.312
 7142SOL    HW221473   4.970   2.234   2.401
 7143SOL     OW21474   4.310   2.598   2.531
 7143SOL    HW121475   4.352   2.688   2.521
 7143SOL    HW221476   4.241   2.585   2.460
 7144SOL     OW21477   5.474   2.227   3.515
 7144SOL    HW121478   5.465   2.243   3.417
 7144SOL    HW221479   5.399   2.167   3.546
 7145SOL     OW21480   5.474   2.793   3.371
 7145SOL    HW121481   5.460   2.889   3.394
 7145SOL    HW221482   5.454   2.778   3.274
 7146SOL     OW21483   4.591   3.225   1.907
 7146SOL    HW121484   4.550   3.249   1.995
 7146SOL    HW221485   4.605   3.309   1.854
 7147SOL     OW21486   4.389   3.644   2.801
 7147SOL    HW121487   4.367   3.740   2.783
 7147SOL    HW221488   4.488   3.631   2.794
 7148SOL     OW21489   4.593   2.833   2.718
 7148SOL    HW121490   4.644   2.755   2.754
 7148SOL    HW221491   4.550   2.882   2.793
 7149SOL     OW21492   4.801   2.851   1.946
 7149SOL    HW121493   4.774   2.905   1.866
 7149SOL    HW221494   4.879   2.793   1.921
 7150SOL     OW21495   5.572   3.413   2.708
 7150SOL    HW121496   5.493   3.408   2.647
 7150SOL    HW221497   5.558   3.354   2.787
 7151SOL     OW21498   3.960   3.088   3.737
 7151SOL    HW121499   3.894   3.030   3.690
 7151SOL    HW221500   3.914   3.137   3.811
 7152SOL     OW21501   3.812   3.090   2.525
 7152SOL    HW121502   3.817   3.044   2.613
 7152SOL    HW221503   3.881   3.051   2.463
 7153SOL     OW21504   5.529   2.044   3.096
 7153SOL    HW121505   5.542   1.948   3.120
 7153SOL    HW221506   5.542   2.056   2.997
 7154SOL     OW21507   4.154   2.290   2.388
 7154SOL    HW121508   4.188   2.220   2.326
 7154SOL    HW221509   4.099   2.246   2.460
 7155SOL     OW21510   5.422   3.340   2.951
 7155SOL    HW121511   5.339   3.326   2.898
 7155SOL    HW221512   5.426   3.273   3.025
 7156SOL     OW21513   4.060   2.418   3.151
 7156SOL    HW121514   4.116   2.361   3.210
 7156SOL    HW221515   4.075   2.392   3.055
 7157SOL     OW21516   4.554   3.440   2.538
 7157SOL    HW121517   4.539   3.505   2.464
 7157SOL    HW221518   4.476   3.378   2.545
 7158SOL     OW21519   5.154   2.093   2.979
 7158SOL    HW121520   5.175   2.003   3.015
 7158SOL    HW221521   5.100   2.144   3.046
 7159SOL     OW21522   4.734   1.878   2.998
 7159SOL    HW121523   4.670   1.815   2.954
 7159SOL    HW221524   4.825   1.837   3.000
 7160SOL     OW21525   4.499   3.193   2.183
 7160SOL    HW121526   4.472   3.098   2.193
 7160SOL    HW221527   4.583   3.209   2.234
 7161SOL     OW21528   4.359   3.418   3.163
 7161SOL    HW121529   4.358   3.510   3.202
 7161SOL    HW221530   4.446   3.402   3.117
 7162SOL     OW21531   5.079   1.911   2.033
 7162SOL    HW121532   5.122   1.843   1.974
 7162SOL    HW221533   4.986   1.883   2.055
 7163SOL     OW21534   5.015   2.327   2.542
 7163SOL    HW121535   4.962   2.412   2.543
 7163SOL    HW221536   5.013   2.285   2.633
 7164SOL     OW21537   5.310   2.064   2.747
 7164SOL    HW121538   5.252   2.085   2.826
 7164SOL    HW221539   5.312   2.144   2.686
 7165SOL     OW21540   3.766   2.925   2.170
 7165SOL    HW121541   3.865   2.925   2.151
 7165SOL    HW221542   3.737   2.832   2.191
 7166SOL     OW21543   4.609   3.526   2.201
 7166SOL    HW121544   4.533   3.504   2.139
 7166SOL    HW221545   4.583   3.602   2.260
 7167SOL     OW21546   3.944   2.479   3.853
 7167SOL    HW121547   3.852   2.480   3.893
 7167SOL    HW221548   3.938   2.458   3.756
 7168SOL     OW21549   3.946   2.145   4.719
 7168SOL    HW121550   3.979   2.110   4.807
 7168SOL    HW221551   3.853   2.112   4.702
 7169SOL     OW21552   3.724   2.248   4.358
 7169SOL    HW121553   3.640   2.278   4.404
 7169SOL    HW221554   3.705   2.165   4.305
 7170SOL     OW21555   4.293   3.161   4.911
 7170SOL    HW121556   4.203   3.158   4.868
 7170SOL    HW221557   4.311   3.254   4.945
 7171SOL     OW21558   5.290   3.375   4.432
 7171SOL    HW121559   5.248   3.351   4.519
 7171SOL    HW221560   5.219   3.382   4.362
 7172SOL     OW21561   4.858   2.565   4.418
 7172SOL    HW121562   4.909   2.649   4.402
 7172SOL    HW221563   4.807   2.573   4.504
 7173SOL     OW21564   5.495   2.460   3.946
 7173SOL    HW121565   5.471   2.456   3.849
 7173SOL    HW221566   5.457   2.381   3.994
 7174SOL     OW21567   4.466   3.002   4.766
 7174SOL    HW121568   4.399   3.037   4.831
 7174SOL    HW221569   4.511   3.079   4.720
 7175SOL     OW21570   4.599   2.625   5.546
 7175SOL    HW121571   4.587   2.692   5.618
 7175SOL    HW221572   4.623   2.671   5.460
 7176SOL     OW21573   4.408   2.861   4.372
 7176SOL    HW121574   4.479   2.851   4.442
 7176SOL    HW221575   4.333   2.917   4.408
 7177SOL     OW21576   4.435   3.015   5.543
 7177SOL    HW121577   4.488   3.093   5.576
 7177SOL    HW221578   4.351   3.047   5.500
 7178SOL     OW21579   4.050   3.284   4.790
 7178SOL    HW121580   3.974   3.239   4.744
 7178SOL    HW221581   4.103   3.337   4.722
 7179SOL     OW21582   5.181   3.364   5.083
 7179SOL    HW121583   5.239   3.445   5.090
 7179SOL    HW221584   5.110   3.368   5.153
 7180SOL     OW21585   4.174   2.254   5.201
 7180SOL    HW121586   4.256   2.197   5.210
 7180SOL    HW221587   4.093   2.200   5.221
 7181SOL     OW21588   5.334   2.307   4.469
 7181SOL    HW121589   5.260   2.326   4.405
 7181SOL    HW221590   5.339   2.381   4.537
 7182SOL     OW21591   3.948   3.576   4.204
 7182SOL    HW121592   3.966   3.656   4.261
 7182SOL    HW221593   4.023   3.565   4.138
 7183SOL     OW21594   4.861   3.202   5.422
 7183SOL    HW121595   4.908   3.200   5.510
 7183SOL    HW221596   4.805   3.120   5.412
 7184SOL     OW21597   3.956   3.309   4.271
 7184SOL    HW121598   3.939   3.407   4.269
 7184SOL    HW221599   3.895   3.266   4.337
 7185SOL     OW21600   3.996   2.952   4.625
 7185SOL    HW121601   3.991   2.858   4.657
 7185SOL    HW221602   3.933   3.009   4.678
 7186SOL     OW21603   4.321   3.659   5.149
 7186SOL    HW121604   4.238   3.635   5.200
 7186SOL    HW221605   4.353   3.749   5.178
 7187SOL     OW21606   4.306   2.850   3.863
 7187SOL    HW121607   4.353   2.894   3.786
 7187SOL    HW221608   4.346   2.882   3.949
 7188SOL     OW21609   5.321   1.987   5.193
 7188SOL    HW121610   5.342   2.067   5.137
 7188SOL    HW221611   5.305   2.016   5.287
 7189SOL     OW21612   3.838   2.523   4.288
 7189SOL    HW121613   3.809   2.429   4.305
 7189SOL    HW221614   3.833   2.575   4.373
 7190SOL     OW21615   5.570   3.617   4.057
 7190SOL    HW121616   5.642   3.589   4.121
 7190SOL    HW221617   5.585   3.712   4.030
 7191SOL     OW21618   3.671   3.451   3.880
 7191SOL    HW121619   3.710   3.360   3.897
 7191SOL    HW221620   3.704   3.515   3.948
 7192SOL     OW21621   5.415   2.783   4.372
 7192SOL    HW121622   5.500   2.732   4.355
 7192SOL    HW221623   5.392   2.837   4.291
 7193SOL     OW21624   5.377   2.966   4.156
 7193SOL    HW121625   5.467   2.962   4.111
 7193SOL    HW221626   5.381   3.033   4.230
 7194SOL     OW21627   3.848   2.607   5.309
 7194SOL    HW121628   3.944   2.634   5.309
 7194SOL    HW221629   3.791   2.688   5.310
 7195SOL     OW21630   4.337   3.256   4.451
 7195SOL    HW121631   4.292   3.168   4.465
 7195SOL    HW221632   4.323   3.287   4.357
 7196SOL     OW21633   5.012   3.096   5.145
 7196SOL    HW121634   5.039   3.026   5.080
 7196SOL    HW221635   5.072   3.092   5.225
 7197SOL     OW21636   4.542   1.872   4.232
 7197SOL    HW121637   4.588   1.958   4.209
 7197SOL    HW221638   4.443   1.888   4.240
 7198SOL     OW21639   3.914   2.823   5.002
 7198SOL    HW121640   4.004   2.780   4.988
 7198SOL    HW221641   3.845   2.776   4.947
 7199SOL     OW21642   5.256   2.864   3.928
 7199SOL    HW121643   5.182   2.803   3.957
 7199SOL    HW221644   5.303   2.901   4.008
 7200SOL     OW21645   4.905   3.674   5.346
 7200SOL    HW121646   4.913   3.743   5.274
 7200SOL    HW221647   4.926   3.584   5.309
 7201SOL     OW21648   4.066   2.111   5.559
 7201SOL    HW121649   4.115   2.196   5.576
 7201SOL    HW221650   3.969   2.124   5.577
 7202SOL     OW21651   5.189   3.282   4.670
 7202SOL    HW121652   5.123   3.301   4.743
 7202SOL    HW221653   5.180   3.186   4.642
 7203SOL     OW21654   5.374   3.613   4.302
 7203SOL    HW121655   5.357   3.584   4.208
 7203SOL    HW221656   5.353   3.538   4.365
 7204SOL     OW21657   4.318   2.582   3.997
 7204SOL    HW121658   4.321   2.668   3.945
 7204SOL    HW221659   4.248   2.590   4.069
 7205SOL     OW21660   5.001   2.223   4.657
 7205SOL    HW121661   4.908   2.188   4.664
 7205SOL    HW221662   5.061   2.170   4.719
 7206SOL     OW21663   5.309   3.536   4.036
 7206SOL    HW121664   5.405   3.563   4.033
 7206SOL    HW221665   5.277   3.518   3.943
 7207SOL     OW21666   4.514   2.475   5.173
 7207SOL    HW121667   4.489   2.450   5.267
 7207SOL    HW221668   4.477   2.406   5.110
 7208SOL     OW21669   5.115   2.332   5.404
 7208SOL    HW121670   5.115   2.381   5.490
 7208SOL    HW221671   5.175   2.252   5.410
 7209SOL     OW21672   4.676   2.746   5.308
 7209SOL    HW121673   4.734   2.675   5.269
 7209SOL    HW221674   4.622   2.788   5.235
 7210SOL     OW21675   4.718   2.267   4.952
 7210SOL    HW121676   4.628   2.288   4.988
 7210SOL    HW221677   4.709   2.218   4.865
 7211SOL     OW21678   4.774   2.561   4.148
 7211SOL    HW121679   4.796   2.556   4.246
 7211SOL    HW221680   4.688   2.514   4.131
 7212SOL     OW21681   3.813   2.690   4.504
 7212SOL    HW121682   3.898   2.677   4.555
 7212SOL    HW221683   3.763   2.768   4.541
 7213SOL     OW21684   3.852   3.736   5.313
 7213SOL    HW121685   3.857   3.708   5.409
 7213SOL    HW221686   3.767   3.701   5.272
 7214SOL     OW21687   4.620   2.214   3.921
 7214SOL    HW121688   4.661   2.282   3.860
 7214SOL    HW221689   4.627   2.124   3.880
 7215SOL     OW21690   5.424   2.434   5.550
 7215SOL    HW121691   5.389   2.513   5.500
 7215SOL    HW221692   5.454   2.364   5.485
 7216SOL     OW21693   5.106   3.004   4.258
 7216SOL    HW121694   5.190   2.989   4.207
 7216SOL    HW221695   5.050   3.072   4.211
 7217SOL     OW21696   4.271   2.034   4.625
 7217SOL    HW121697   4.275   2.064   4.721
 7217SOL    HW221698   4.273   2.114   4.565
 7218SOL     OW21699   4.726   3.306   4.199
 7218SOL    HW121700   4.700   3.387   4.146
 7218SOL    HW221701   4.703   3.321   4.295
 7219SOL     OW21702   4.080   3.676   4.597
 7219SOL    HW121703   4.124   3.587   4.603
 7219SOL    HW221704   4.147   3.748   4.615
 7220SOL     OW21705   5.522   2.918   4.596
 7220SOL    HW121706   5.471   2.894   4.514
 7220SOL    HW221707   5.459   2.924   4.674
 7221SOL     OW21708   4.950   3.398   5.238
 7221SOL    HW121709   4.938   3.324   5.305
 7221SOL    HW221710   4.881   3.390   5.166
 7222SOL     OW21711   4.045   2.819   3.980
 7222SOL    HW121712   4.130   2.846   3.935
 7222SOL    HW221713   4.010   2.735   3.938
 7223SOL     OW21714   5.207   2.613   4.446
 7223SOL    HW121715   5.202   2.568   4.535
 7223SOL    HW221716   5.288   2.672   4.443
 7224SOL     OW21717   4.193   3.128   5.455
 7224SOL    HW121718   4.167   3.134   5.358
 7224SOL    HW221719   4.111   3.125   5.511
 7225SOL     OW21720   4.844   3.633   3.939
 7225SOL    HW121721   4.765   3.598   3.990
 7225SOL    HW221722   4.875   3.564   3.874
 7226SOL     OW21723   3.926   2.135   5.227
 7226SOL    HW121724   3.845   2.193   5.225
 7226SOL    HW221725   3.904   2.048   5.270
 7227SOL     OW21726   5.348   3.240   3.818
 7227SOL    HW121727   5.308   3.332   3.809
 7227SOL    HW221728   5.279   3.171   3.796
 7228SOL     OW21729   4.186   3.598   4.057
 7228SOL    HW121730   4.224   3.664   4.121
 7228SOL    HW221731   4.251   3.582   3.982
 7229SOL     OW21732   5.125   1.966   4.162
 7229SOL    HW121733   5.113   1.940   4.066
 7229SOL    HW221734   5.222   1.975   4.182
 7230SOL     OW21735   3.982   3.653   4.949
 7230SOL    HW121736   4.033   3.580   4.995
 7230SOL    HW221737   3.964   3.627   4.855
 7231SOL     OW21738   4.660   3.565   4.621
 7231SOL    HW121739   4.743   3.519   4.653
 7231SOL    HW221740   4.619   3.511   4.547
 7232SOL     OW21741   4.121   2.549   4.199
 7232SOL    HW121742   4.140   2.452   4.213
 7232SOL    HW221743   4.023   2.567   4.215
 7233SOL     OW21744   5.251   2.084   5.452
 7233SOL    HW121745   5.262   2.106   5.549
 7233SOL    HW221746   5.178   2.016   5.440
 7234SOL     OW21747   4.366   1.978   3.825
 7234SOL    HW121748   4.433   1.908   3.848
 7234SOL    HW221749   4.309   1.947   3.750
 7235SOL     OW21750   4.487   2.138   5.481
 7235SOL    HW121751   4.572   2.086   5.475
 7235SOL    HW221752   4.436   2.108   5.562
 7236SOL     OW21753   4.598   3.376   4.916
 7236SOL    HW121754   4.579   3.340   4.826
 7236SOL    HW221755   4.671   3.323   4.959
 7237SOL     OW21756   5.063   2.451   5.160
 7237SOL    HW121757   5.093   2.416   5.248
 7237SOL    HW221758   5.099   2.543   5.147
 7238SOL     OW21759   4.544   3.250   4.666
 7238SOL    HW121760   4.634   3.239   4.624
 7238SOL    HW221761   4.475   3.257   4.594
 7239SOL     OW21762   4.651   2.370   4.621
 7239SOL    HW121763   4.624   2.362   4.525
 7239SOL    HW221764   4.683   2.281   4.654
 7240SOL     OW21765   4.271   1.926   4.217
 7240SOL    HW121766   4.190   1.924   4.275
 7240SOL    HW221767   4.268   2.007   4.158
 7241SOL     OW21768   5.148   3.061   3.767
 7241SOL    HW121769   5.184   2.983   3.818
 7241SOL    HW221770   5.059   3.088   3.804
 7242SOL     OW21771   4.014   1.910   3.910
 7242SOL    HW121772   4.066   1.982   3.863
 7242SOL    HW221773   4.077   1.846   3.953
 7243SOL     OW21774   4.671   2.113   4.180
 7243SOL    HW121775   4.640   2.154   4.094
 7243SOL    HW221776   4.770   2.127   4.189
 7244SOL     OW21777   4.803   2.545   5.178
 7244SOL    HW121778   4.728   2.479   5.184
 7244SOL    HW221779   4.890   2.497   5.175
 7245SOL     OW21780   4.944   3.431   4.517
 7245SOL    HW121781   4.958   3.502   4.448
 7245SOL    HW221782   5.014   3.439   4.588
 7246SOL     OW21783   4.193   3.016   4.450
 7246SOL    HW121784   4.127   2.995   4.522
 7246SOL    HW221785   4.151   3.003   4.361
 7247SOL     OW21786   4.986   3.653   4.334
 7247SOL    HW121787   5.039   3.716   4.278
 7247SOL    HW221788   4.913   3.704   4.381
 7248SOL     OW21789   4.745   2.397   3.754
 7248SOL    HW121790   4.700   2.483   3.730
 7248SOL    HW221791   4.814   2.414   3.824
 7249SOL     OW21792   3.811   2.419   5.115
 7249SOL    HW121793   3.906   2.415   5.083
 7249SOL    HW221794   3.803   2.490   5.185
 7250SOL     OW21795   4.282   2.086   4.897
 7250SOL    HW121796   4.332   2.011   4.940
 7250SOL    HW221797   4.187   2.084   4.926
 7251SOL     OW21798   4.590   2.321   4.360
 7251SOL    HW121799   4.542   2.382   4.298
 7251SOL    HW221800   4.618   2.238   4.310
 7252SOL     OW21801   4.741   1.915   4.469
 7252SOL    HW121802   4.681   1.915   4.389
 7252SOL    HW221803   4.716   1.839   4.529
 7253SOL     OW21804   5.169   3.022   4.582
 7253SOL    HW121805   5.094   2.957   4.587
 7253SOL    HW221806   5.198   3.033   4.487
 7254SOL     OW21807   5.192   2.470   4.692
 7254SOL    HW121808   5.129   2.393   4.692
 7254SOL    HW221809   5.252   2.464   4.772
 7255SOL     OW21810   5.565   2.670   4.104
 7255SOL    HW121811   5.623   2.623   4.170
 7255SOL    HW221812   5.536   2.606   4.033
 7256SOL     OW21813   4.227   3.212   3.935
 7256SOL    HW121814   4.133   3.210   3.968
 7256SOL    HW221815   4.228   3.193   3.836
 7257SOL     OW21816   5.400   3.129   4.366
 7257SOL    HW121817   5.499   3.126   4.379
 7257SOL    HW221818   5.366   3.221   4.388
 7258SOL     OW21819   5.114   2.437   3.795
 7258SOL    HW121820   5.051   2.414   3.869
 7258SOL    HW221821   5.207   2.411   3.820
 7259SOL     OW21822   4.252   2.126   4.032
 7259SOL    HW121823   4.300   2.074   3.962
 7259SOL    HW221824   4.223   2.214   3.995
 7260SOL     OW21825   5.476   3.103   5.282
 7260SOL    HW121826   5.565   3.061   5.269
 7260SOL    HW221827   5.488   3.196   5.317
 7261SOL     OW21828   4.777   3.212   5.060
 7261SOL    HW121829   4.695   3.182   5.110
 7261SOL    HW221830   4.858   3.172   5.102
 7262SOL     OW21831   5.337   3.492   5.381
 7262SOL    HW121832   5.322   3.527   5.289
 7262SOL    HW221833   5.423   3.440   5.383
 7263SOL     OW21834   4.862   3.083   4.829
 7263SOL    HW121835   4.802   3.117   4.901
 7263SOL    HW221836   4.828   3.113   4.740
 7264SOL     OW21837   5.348   2.958   4.803
 7264SOL    HW121838   5.344   3.024   4.879
 7264SOL    HW221839   5.272   2.976   4.740
 7265SOL     OW21840   4.648   1.955   5.115
 7265SOL    HW121841   4.669   1.933   5.020
 7265SOL    HW221842   4.727   1.999   5.158
 7266SOL     OW21843   4.703   2.977   5.445
 7266SOL    HW121844   4.609   2.996   5.473
 7266SOL    HW221845   4.705   2.894   5.389
 7267SOL     OW21846   4.439   2.925   4.096
 7267SOL    HW121847   4.419   2.905   4.192
 7267SOL    HW221848   4.517   2.870   4.066
 7268SOL     OW21849   4.147   2.677   4.978
 7268SOL    HW121850   4.219   2.691   5.046
 7268SOL    HW221851   4.108   2.586   4.989
 7269SOL     OW21852   4.986   2.238   5.005
 7269SOL    HW121853   5.023   2.317   5.054
 7269SOL    HW221854   4.891   2.255   4.980
 7270SOL     OW21855   3.799   3.434   5.078
 7270SOL    HW121856   3.763   3.504   5.016
 7270SOL    HW221857   3.899   3.432   5.072
 7271SOL     OW21858   4.066   2.983   4.209
 7271SOL    HW121859   4.069   3.064   4.152
 7271SOL    HW221860   4.064   2.901   4.152
 7272SOL     OW21861   4.271   2.405   4.586
 7272SOL    HW121862   4.285   2.464   4.507
 7272SOL    HW221863   4.340   2.425   4.655
 7273SOL     OW21864   4.972   3.216   4.122
 7273SOL    HW121865   5.034   3.289   4.152
 7273SOL    HW221866   4.880   3.235   4.155
 7274SOL     OW21867   5.013   3.324   4.871
 7274SOL    HW121868   5.071   3.330   4.953
 7274SOL    HW221869   4.959   3.240   4.875
 7275SOL     OW21870   5.300   2.482   4.207
 7275SOL    HW121871   5.250   2.529   4.280
 7275SOL    HW221872   5.348   2.550   4.151
 7276SOL     OW21873   4.072   3.392   5.033
 7276SOL    HW121874   4.056   3.347   4.945
 7276SOL    HW221875   4.170   3.406   5.046
 7277SOL     OW21876   4.140   2.609   5.324
 7277SOL    HW121877   4.207   2.654   5.265
 7277SOL    HW221878   4.172   2.517   5.347
 7278SOL     OW21879   5.333   2.647   5.409
 7278SOL    HW121880   5.242   2.689   5.407
 7278SOL    HW221881   5.390   2.688   5.338
 7279SOL     OW21882   4.721   1.997   5.474
 7279SOL    HW121883   4.779   2.077   5.459
 7279SOL    HW221884   4.771   1.914   5.447
 7280SOL     OW21885   4.216   1.897   5.475
 7280SOL    HW121886   4.171   1.839   5.407
 7280SOL    HW221887   4.159   1.977   5.494
 7281SOL     OW21888   4.309   2.733   4.759
 7281SOL    HW121889   4.344   2.827   4.756
 7281SOL    HW221890   4.248   2.723   4.838
 7282SOL     OW21891   5.074   2.719   4.746
 7282SOL    HW121892   4.982   2.709   4.707
 7282SOL    HW221893   5.124   2.633   4.737
 7283SOL     OW21894   4.921   2.389   3.988
 7283SOL    HW121895   4.934   2.306   4.043
 7283SOL    HW221896   4.877   2.459   4.043
 7284SOL     OW21897   4.020   2.058   4.971
 7284SOL    HW121898   3.985   2.094   5.057
 7284SOL    HW221899   4.005   1.959   4.967
 7285SOL     OW21900   3.777   3.172   4.999
 7285SOL    HW121901   3.808   3.110   5.071
 7285SOL    HW221902   3.779   3.266   5.032
 7286SOL     OW21903   4.448   2.492   4.778
 7286SOL    HW121904   4.525   2.473   4.717
 7286SOL    HW221905   4.413   2.584   4.760
 7287SOL     OW21906   5.461   2.823   5.581
 7287SOL    HW121907   5.418   2.753   5.523
 7287SOL    HW221908   5.401   2.843   5.659
 7288SOL     OW21909   4.031   1.923   4.352
 7288SOL    HW121910   4.006   2.018   4.370
 7288SOL    HW221911   4.043   1.874   4.439
 7289SOL     OW21912   5.352   2.244   4.085
 7289SOL    HW121913   5.378   2.170   4.147
 7289SOL    HW221914   5.323   2.323   4.138
 7290SOL     OW21915   4.748   2.617   4.681
 7290SOL    HW121916   4.742   2.639   4.779
 7290SOL    HW221917   4.721   2.522   4.666
 7291SOL     OW21918   4.705   3.425   5.442
 7291SOL    HW121919   4.688   3.472   5.356
 7291SOL    HW221920   4.753   3.339   5.424
 7292SOL     OW21921   5.578   3.365   5.327
 7292SOL    HW121922   5.598   3.391   5.233
 7292SOL    HW221923   5.661   3.376   5.383
 7293SOL     OW21924   4.077   2.781   5.529
 7293SOL    HW121925   4.156   2.802   5.585
 7293SOL    HW221926   4.103   2.715   5.458
 7294SOL     OW21927   5.251   2.130   3.854
 7294SOL    HW121928   5.182   2.062   3.879
 7294SOL    HW221929   5.288   2.173   3.937
 7295SOL     OW21930   5.012   2.688   3.749
 7295SOL    HW121931   5.052   2.597   3.758
 7295SOL    HW221932   5.043   2.730   3.664
 7296SOL     OW21933   4.794   3.200   4.578
 7296SOL    HW121934   4.799   3.122   4.517
 7296SOL    HW221935   4.853   3.273   4.544
 7297SOL     OW21936   4.035   2.668   4.667
 7297SOL    HW121937   4.132   2.693   4.661
 7297SOL    HW221938   4.027   2.574   4.699
 7298SOL     OW21939   4.050   2.390   4.735
 7298SOL    HW121940   4.011   2.298   4.725
 7298SOL    HW221941   4.131   2.399   4.677
 7299SOL     OW21942   4.858   2.234   5.417
 7299SOL    HW121943   4.805   2.291   5.480
 7299SOL    HW221944   4.950   2.272   5.408
 7300SOL     OW21945   4.886   2.065   5.200
 7300SOL    HW121946   4.871   2.127   5.277
 7300SOL    HW221947   4.929   2.114   5.125
 7301SOL     OW21948   3.733   3.172   3.918
 7301SOL    HW121949   3.641   3.189   3.881
 7301SOL    HW221950   3.736   3.079   3.956
 7302SOL     OW21951   3.817   3.644   4.669
 7302SOL    HW121952   3.781   3.564   4.622
 7302SOL    HW221953   3.911   3.662   4.636
 7303SOL     OW21954   4.217   3.437   4.628
 7303SOL    HW121955   4.287   3.504   4.655
 7303SOL    HW221956   4.257   3.371   4.565
 7304SOL     OW21957   4.697   2.655   4.947
 7304SOL    HW121958   4.757   2.632   5.023
 7304SOL    HW221959   4.607   2.613   4.961
 7305SOL     OW21960   3.761   2.416   4.841
 7305SOL    HW121961   3.844   2.403   4.786
 7305SOL    HW221962   3.787   2.417   4.938
 7306SOL     OW21963   3.916   2.385   5.455
 7306SOL    HW121964   3.968   2.331   5.389
 7306SOL    HW221965   3.878   2.465   5.409
 7307SOL     OW21966   5.105   2.796   5.378
 7307SOL    HW121967   5.128   2.894   5.379
 7307SOL    HW221968   5.101   2.764   5.284
 7308SOL     OW21969   4.541   2.435   4.085
 7308SOL    HW121970   4.550   2.355   4.025
 7308SOL    HW221971   4.463   2.490   4.056
 7309SOL     OW21972   5.366   2.465   4.904
 7309SOL    HW121973   5.349   2.406   4.982
 7309SOL    HW221974   5.458   2.448   4.868
 7310SOL     OW21975   3.963   3.408   5.449
 7310SOL    HW121976   3.942   3.483   5.513
 7310SOL    HW221977   3.970   3.322   5.500
 7311SOL     OW21978   4.434   2.308   4.975
 7311SOL    HW121979   4.375   2.231   4.952
 7311SOL    HW221980   4.430   2.377   4.903
 7312SOL     OW21981   4.643   3.543   5.196
 7312SOL    HW121982   4.617   3.496   5.112
 7312SOL    HW221983   4.643   3.641   5.181
 7313SOL     OW21984   4.183   2.358   3.909
 7313SOL    HW121985   4.247   2.430   3.934
 7313SOL    HW221986   4.092   2.397   3.896
 7314SOL     OW21987   3.865   3.000   5.200
 7314SOL    HW121988   3.867   2.956   5.289
 7314SOL    HW221989   3.885   2.932   5.129
 7315SOL     OW21990   5.039   2.905   4.942
 7315SOL    HW121991   5.066   2.837   4.874
 7315SOL    HW221992   4.972   2.968   4.902
 7316SOL     OW21993   5.040   2.720   4.022
 7316SOL    HW121994   4.965   2.691   4.081
 7316SOL    HW221995   5.014   2.706   3.926
 7317SOL     OW21996   5.505   3.590   4.881
 7317SOL    HW121997   5.566   3.624   4.810
 7317SOL    HW221998   5.473   3.498   4.857
 7318SOL     OW21999   4.965   3.594   4.827
 7318SOL    HW122000   5.051   3.624   4.785
 7318SOL    HW222001   4.971   3.497   4.852
 7319SOL     OW22002   3.811   3.126   4.734
 7319SOL    HW122003   3.795   3.141   4.831
 7319SOL    HW222004   3.739   3.068   4.697
 7320SOL     OW22005   4.405   3.536   5.462
 7320SOL    HW122006   4.342   3.614   5.456
 7320SOL    HW222007   4.479   3.549   5.396
 7321SOL     OW22008   5.444   2.013   4.222
 7321SOL    HW122009   5.519   2.003   4.157
 7321SOL    HW222010   5.426   1.926   4.267
 7322SOL     OW22011   5.119   3.433   4.212
 7322SOL    HW122012   5.184   3.467   4.144
 7322SOL    HW222013   5.065   3.510   4.246
 7323SOL     OW22014   3.870   3.649   5.570
 7323SOL    HW122015   3.813   3.581   5.615
 7323SOL    HW222016   3.919   3.702   5.639
 7324SOL     OW22017   5.006   2.791   4.390
 7324SOL    HW122018   5.081   2.726   4.406
 7324SOL    HW222019   5.040   2.867   4.335
 7325SOL     OW22020   4.526   3.141   5.149
 7325SOL    HW122021   4.497   3.185   5.234
 7325SOL    HW222022   4.456   3.155   5.079
 7326SOL     OW22023   5.340   3.591   5.111
 7326SOL    HW122024   5.398   3.591   5.030
 7326SOL    HW222025   5.326   3.685   5.142
 7327SOL     OW22026   5.566   2.031   4.687
 7327SOL    HW122027   5.600   1.939   4.665
 7327SOL    HW222028   5.475   2.043   4.648
 7328SOL     OW22029   3.978   2.175   4.439
 7328SOL    HW122030   3.890   2.212   4.411
 7328SOL    HW222031   3.982   2.168   4.539
 7329SOL     OW22032   4.941   3.447   3.753
 7329SOL    HW122033   4.932   3.358   3.798
 7329SOL    HW222034   4.901   3.443   3.662
 7330SOL     OW22035   4.547   2.872   5.103
 7330SOL    HW122036   4.598   2.856   5.018
 7330SOL    HW222037   4.544   2.970   5.122
 7331SOL     OW22038   4.645   2.774   4.010
 7331SOL    HW122039   4.708   2.810   3.941
 7331SOL    HW222040   4.691   2.702   4.062
 7332SOL     OW22041   5.214   3.491   3.776
 7332SOL    HW122042   5.116   3.474   3.765
 7332SOL    HW222043   5.257   3.500   3.686
 7333SOL     OW22044   4.089   3.165   5.210
 7333SOL    HW122045   4.079   3.246   5.152
 7333SOL    HW222046   4.010   3.106   5.200
 7334SOL     OW22047   5.337   3.147   5.009
 7334SOL    HW122048   5.399   3.126   5.084
 7334SOL    HW222049   5.271   3.216   5.038
 7335SOL     OW22050   4.787   2.969   4.439
 7335SOL    HW122051   4.710   2.919   4.479
 7335SOL    HW222052   4.856   2.904   4.407
 7336SOL     OW22053   4.747   2.102   4.691
 7336SOL    HW122054   4.743   2.058   4.601
 7336SOL    HW222055   4.744   2.031   4.762
 7337SOL     OW22056   4.329   3.357   4.193
 7337SOL    HW122057   4.359   3.290   4.125
 7337SOL    HW222058   4.247   3.404   4.161
 7338SOL     OW22059   5.456   2.256   5.104
 7338SOL    HW122060   5.529   2.324   5.105
 7338SOL    HW222061   5.481   2.181   5.043
 7339SOL     OW22062   3.976   3.209   4.028
 7339SOL    HW122063   3.883   3.204   3.991
 7339SOL    HW222064   3.974   3.250   4.119
 7340SOL     OW22065   3.839   2.898   5.453
 7340SOL    HW122066   3.757   2.870   5.503
 7340SOL    HW222067   3.919   2.852   5.491
 7341SOL     OW22068   4.408   2.055   5.224
 7341SOL    HW122069   4.494   2.031   5.180
 7341SOL    HW222070   4.426   2.090   5.316
 7342SOL     OW22071   3.806   2.189   3.752
 7342SOL    HW122072   3.714   2.166   3.719
 7342SOL    HW222073   3.838   2.271   3.705
 7343SOL     OW22074   5.146   2.718   5.118
 7343SOL    HW122075   5.091   2.782   5.065
 7343SOL    HW222076   5.241   2.719   5.085
 7344SOL     OW22077   3.786   2.017   4.025
 7344SOL    HW122078   3.769   2.101   3.973
 7344SOL    HW222079   3.874   1.978   3.998
 7345SOL     OW22080   4.905   3.194   3.856
 7345SOL    HW122081   4.813   3.154   3.850
 7345SOL    HW222082   4.934   3.195   3.952
 7346SOL     OW22083   4.348   2.692   5.158
 7346SOL    HW122084   4.405   2.772   5.144
 7346SOL    HW222085   4.406   2.611   5.167
 7347SOL     OW22086   5.209   3.652   4.712
 7347SOL    HW122087   5.231   3.716   4.639
 7347SOL    HW222088   5.294   3.616   4.751
 7348SOL     OW22089   4.446   2.419   5.426
 7348SOL    HW122090   4.491   2.486   5.486
 7348SOL    HW222091   4.465   2.327   5.460
 7349SOL     OW22092   5.198   3.057   5.358
 7349SOL    HW122093   5.183   3.071   5.456
 7349SOL    HW222094   5.294   3.076   5.336
 7350SOL     OW22095   4.094   3.600   5.291
 7350SOL    HW122096   4.010   3.653   5.276
 7350SOL    HW222097   4.071   3.512   5.333
 7351SOL     OW22098   5.389   2.740   4.980
 7351SOL    HW122099   5.384   2.649   4.938
 7351SOL    HW222100   5.376   2.809   4.909
 7352SOL     OW22101   4.944   2.179   4.184
 7352SOL    HW122102   5.007   2.102   4.174
 7352SOL    HW222103   4.970   2.234   4.263
 7353SOL     OW22104   4.310   2.598   4.393
 7353SOL    HW122105   4.352   2.689   4.382
 7353SOL    HW222106   4.241   2.584   4.322
 7354SOL     OW22107   5.474   2.227   5.376
 7354SOL    HW122108   5.464   2.243   5.278
 7354SOL    HW222109   5.399   2.167   5.407
 7355SOL     OW22110   5.477   2.793   5.233
 7355SOL    HW122111   5.465   2.890   5.255
 7355SOL    HW222112   5.455   2.778   5.137
 7356SOL     OW22113   4.596   3.197   3.788
 7356SOL    HW122114   4.562   3.205   3.882
 7356SOL    HW222115   4.617   3.288   3.753
 7357SOL     OW22116   4.389   3.645   4.664
 7357SOL    HW122117   4.365   3.740   4.644
 7357SOL    HW222118   4.488   3.633   4.655
 7358SOL     OW22119   4.593   2.833   4.580
 7358SOL    HW122120   4.644   2.755   4.616
 7358SOL    HW222121   4.550   2.883   4.656
 7359SOL     OW22122   4.805   2.857   3.809
 7359SOL    HW122123   4.773   2.905   3.728
 7359SOL    HW222124   4.880   2.796   3.784
 7360SOL     OW22125   5.569   3.418   4.571
 7360SOL    HW122126   5.492   3.406   4.509
 7360SOL    HW222127   5.564   3.350   4.644
 7361SOL     OW22128   3.956   3.160   5.580
 7361SOL    HW122129   3.891   3.092   5.545
 7361SOL    HW222130   3.940   3.173   5.678
 7362SOL     OW22131   3.811   3.091   4.388
 7362SOL    HW122132   3.817   3.044   4.476
 7362SOL    HW222133   3.879   3.053   4.325
 7363SOL     OW22134   4.407   3.272   5.357
 7363SOL    HW122135   4.326   3.222   5.390
 7363SOL    HW222136   4.406   3.365   5.395
 7364SOL     OW22137   5.529   2.044   4.957
 7364SOL    HW122138   5.542   1.948   4.982
 7364SOL    HW222139   5.542   2.056   4.859
 7365SOL     OW22140   4.154   2.289   4.251
 7365SOL    HW122141   4.188   2.219   4.188
 7365SOL    HW222142   4.099   2.246   4.322
 7366SOL     OW22143   5.417   3.343   4.817
 7366SOL    HW122144   5.336   3.326   4.761
 7366SOL    HW222145   5.424   3.273   4.888
 7367SOL     OW22146   4.060   2.419   5.013
 7367SOL    HW122147   4.116   2.361   5.072
 7367SOL    HW222148   4.075   2.392   4.917
 7368SOL     OW22149   4.553   3.441   4.403
 7368SOL    HW122150   4.532   3.509   4.332
 7368SOL    HW222151   4.478   3.376   4.411
 7369SOL     OW22152   5.154   2.093   4.841
 7369SOL    HW122153   5.175   2.003   4.878
 7369SOL    HW222154   5.100   2.145   4.908
 7370SOL     OW22155   4.734   1.878   4.860
 7370SOL    HW122156   4.670   1.815   4.816
 7370SOL    HW222157   4.825   1.837   4.862
 7371SOL     OW22158   4.517   3.195   4.045
 7371SOL    HW122159   4.473   3.106   4.054
 7371SOL    HW222160   4.592   3.203   4.110
 7372SOL     OW22161   4.347   3.421   5.014
 7372SOL    HW122162   4.344   3.508   5.063
 7372SOL    HW222163   4.438   3.409   4.974
 7373SOL     OW22164   5.079   1.911   3.895
 7373SOL    HW122165   5.122   1.843   3.836
 7373SOL    HW222166   4.986   1.883   3.917
 7374SOL     OW22167   5.015   2.327   4.404
 7374SOL    HW122168   4.962   2.412   4.405
 7374SOL    HW222169   5.013   2.285   4.495
 7375SOL     OW22170   5.310   2.064   4.609
 7375SOL    HW122171   5.252   2.084   4.688
 7375SOL    HW222172   5.312   2.144   4.548
 7376SOL     OW22173   3.769   2.923   4.032
 7376SOL    HW122174   3.867   2.922   4.012
 7376SOL    HW222175   3.738   2.831   4.055
 7377SOL     OW22176   4.611   3.520   4.066
 7377SOL    HW122177   4.531   3.461   4.052
 7377SOL    HW222178   4.585   3.599   4.122
 7378SOL     OW22179   3.944   2.481   5.715
 7378SOL    HW122180   3.852   2.480   5.755
 7378SOL    HW222181   3.938   2.459   5.617
 7379SOL     OW22182   3.944   2.150   6.583
 7379SOL    HW122183   3.981   2.112   6.667
 7379SOL    HW222184   3.853   2.114   6.566
 7380SOL     OW22185   3.723   2.249   6.221
 7380SOL    HW122186   3.640   2.279   6.266
 7380SOL    HW222187   3.704   2.165   6.169
 7381SOL     OW22188   4.283   3.144   6.756
 7381SOL    HW122189   4.195   3.165   6.713
 7381SOL    HW222190   4.312   3.221   6.812
 7382SOL     OW22191   5.289   3.375   6.294
 7382SOL    HW122192   5.244   3.352   6.380
 7382SOL    HW222193   5.221   3.383   6.222
 7383SOL     OW22194   4.857   2.565   6.280
 7383SOL    HW122195   4.908   2.649   6.265
 7383SOL    HW222196   4.805   2.572   6.365
 7384SOL     OW22197   5.497   2.459   5.808
 7384SOL    HW122198   5.471   2.456   5.711
 7384SOL    HW222199   5.457   2.381   5.856
 7385SOL     OW22200   4.481   3.005   6.629
 7385SOL    HW122201   4.406   3.031   6.690
 7385SOL    HW222202   4.514   3.086   6.580
 7386SOL     OW22203   4.408   2.860   6.234
 7386SOL    HW122204   4.479   2.850   6.304
 7386SOL    HW222205   4.333   2.916   6.271
 7387SOL     OW22206   4.056   3.273   6.649
 7387SOL    HW122207   3.971   3.240   6.607
 7387SOL    HW222208   4.102   3.335   6.585
 7388SOL     OW22209   5.334   2.309   6.331
 7388SOL    HW122210   5.259   2.325   6.266
 7388SOL    HW222211   5.333   2.380   6.402
 7389SOL     OW22212   3.946   3.576   6.056
 7389SOL    HW122213   3.964   3.655   6.116
 7389SOL    HW222214   4.022   3.566   5.992
 7390SOL     OW22215   3.957   3.306   6.122
 7390SOL    HW122216   3.941   3.404   6.122
 7390SOL    HW222217   3.898   3.262   6.190
 7391SOL     OW22218   3.993   2.953   6.487
 7391SOL    HW122219   3.989   2.859   6.522
 7391SOL    HW222220   3.934   3.011   6.542
 7392SOL     OW22221   4.339   3.667   6.988
 7392SOL    HW122222   4.249   3.639   0.022
 7392SOL    HW222223   4.360   3.759   0.021
 7393SOL     OW22224   4.305   2.850   5.728
 7393SOL    HW122225   4.353   2.896   5.653
 7393SOL    HW222226   4.345   2.878   5.815
 7394SOL     OW22227   3.838   2.524   6.150
 7394SOL    HW122228   3.809   2.430   6.167
 7394SOL    HW222229   3.833   2.576   6.235
 7395SOL     OW22230   5.570   3.617   5.918
 7395SOL    HW122231   5.640   3.586   5.982
 7395SOL    HW222232   5.585   3.713   5.895
 7396SOL     OW22233   3.753   3.452   5.708
 7396SOL    HW122234   3.738   3.355   5.728
 7396SOL    HW222235   3.733   3.506   5.790
 7397SOL     OW22236   5.415   2.783   6.232
 7397SOL    HW122237   5.499   2.732   6.215
 7397SOL    HW222238   5.392   2.836   6.151
 7398SOL     OW22239   5.377   2.967   6.018
 7398SOL    HW122240   5.467   2.963   5.973
 7398SOL    HW222241   5.380   3.034   6.092
 7399SOL     OW22242   4.336   3.253   6.319
 7399SOL    HW122243   4.289   3.165   6.333
 7399SOL    HW222244   4.323   3.284   6.225
 7400SOL     OW22245   4.542   1.872   6.095
 7400SOL    HW122246   4.588   1.958   6.072
 7400SOL    HW222247   4.444   1.888   6.102
 7401SOL     OW22248   3.916   2.839   6.848
 7401SOL    HW122249   3.998   2.786   6.831
 7401SOL    HW222250   3.835   2.786   6.820
 7402SOL     OW22251   5.256   2.864   5.790
 7402SOL    HW122252   5.183   2.803   5.820
 7402SOL    HW222253   5.303   2.901   5.870
 7403SOL     OW22254   5.175   3.285   6.530
 7403SOL    HW122255   5.118   3.299   6.611
 7403SOL    HW222256   5.172   3.189   6.504
 7404SOL     OW22257   5.372   3.615   6.161
 7404SOL    HW122258   5.354   3.583   6.068
 7404SOL    HW222259   5.354   3.540   6.225
 7405SOL     OW22260   4.318   2.580   5.859
 7405SOL    HW122261   4.323   2.666   5.808
 7405SOL    HW222262   4.249   2.588   5.931
 7406SOL     OW22263   4.999   2.220   6.517
 7406SOL    HW122264   4.905   2.186   6.525
 7406SOL    HW222265   5.057   2.170   6.581
 7407SOL     OW22266   5.307   3.534   5.894
 7407SOL    HW122267   5.403   3.561   5.891
 7407SOL    HW222268   5.274   3.517   5.801
 7408SOL     OW22269   4.517   2.472   0.047
 7408SOL    HW122270   4.454   2.514   0.112
 7408SOL    HW222271   4.465   2.416   6.982
 7409SOL     OW22272   4.731   2.257   6.793
 7409SOL    HW122273   4.671   2.310   6.852
 7409SOL    HW222274   4.677   2.209   6.724
 7410SOL     OW22275   4.774   2.561   6.010
 7410SOL    HW122276   4.797   2.556   6.108
 7410SOL    HW222277   4.688   2.513   5.994
 7411SOL     OW22278   3.814   2.689   6.367
 7411SOL    HW122279   3.899   2.678   6.417
 7411SOL    HW222280   3.764   2.768   6.403
 7412SOL     OW22281   3.883   3.714   0.148
 7412SOL    HW122282   3.840   3.639   0.199
 7412SOL    HW222283   3.829   3.733   0.066
 7413SOL     OW22284   4.620   2.215   5.783
 7413SOL    HW122285   4.661   2.282   5.722
 7413SOL    HW222286   4.628   2.124   5.743
 7414SOL     OW22287   5.104   3.005   6.119
 7414SOL    HW122288   5.189   2.990   6.068
 7414SOL    HW222289   5.048   3.072   6.070
 7415SOL     OW22290   4.271   2.034   6.485
 7415SOL    HW122291   4.277   2.065   6.580
 7415SOL    HW222292   4.275   2.113   6.424
 7416SOL     OW22293   4.718   3.305   6.049
 7416SOL    HW122294   4.687   3.386   5.999
 7416SOL    HW222295   4.700   3.318   6.147
 7417SOL     OW22296   4.079   3.677   6.455
 7417SOL    HW122297   4.122   3.587   6.465
 7417SOL    HW222298   4.147   3.748   6.475
 7418SOL     OW22299   5.525   2.917   6.453
 7418SOL    HW122300   5.475   2.893   6.370
 7418SOL    HW222301   5.462   2.918   6.531
 7419SOL     OW22302   4.045   2.821   5.841
 7419SOL    HW122303   4.133   2.842   5.798
 7419SOL    HW222304   4.008   2.736   5.804
 7420SOL     OW22305   5.206   2.612   6.305
 7420SOL    HW122306   5.201   2.566   6.394
 7420SOL    HW222307   5.287   2.671   6.304
 7421SOL     OW22308   4.846   3.638   5.812
 7421SOL    HW122309   4.766   3.601   5.860
 7421SOL    HW222310   4.876   3.573   5.741
 7422SOL     OW22311   5.348   3.244   5.674
 7422SOL    HW122312   5.310   3.335   5.659
 7422SOL    HW222313   5.279   3.175   5.655
 7423SOL     OW22314   4.188   3.597   5.904
 7423SOL    HW122315   4.230   3.659   5.970
 7423SOL    HW222316   4.259   3.560   5.844
 7424SOL     OW22317   5.125   1.966   6.024
 7424SOL    HW122318   5.114   1.940   5.928
 7424SOL    HW222319   5.222   1.974   6.045
 7425SOL     OW22320   3.993   3.660   6.820
 7425SOL    HW122321   4.042   3.602   6.884
 7425SOL    HW222322   3.951   3.603   6.749
 7426SOL     OW22323   4.661   3.562   6.481
 7426SOL    HW122324   4.746   3.517   6.508
 7426SOL    HW222325   4.618   3.511   6.406
 7427SOL     OW22326   4.120   2.550   6.060
 7427SOL    HW122327   4.139   2.453   6.074
 7427SOL    HW222328   4.023   2.567   6.077
 7428SOL     OW22329   4.366   1.978   5.688
 7428SOL    HW122330   4.433   1.908   5.711
 7428SOL    HW222331   4.309   1.947   5.611
 7429SOL     OW22332   4.593   3.379   6.762
 7429SOL    HW122333   4.575   3.345   6.670
 7429SOL    HW222334   4.633   3.305   6.817
 7430SOL     OW22335   4.543   3.250   6.520
 7430SOL    HW122336   4.633   3.239   6.478
 7430SOL    HW222337   4.473   3.256   6.449
 7431SOL     OW22338   4.651   2.370   6.484
 7431SOL    HW122339   4.624   2.362   6.388
 7431SOL    HW222340   4.689   2.283   6.515
 7432SOL     OW22341   4.272   1.926   6.079
 7432SOL    HW122342   4.190   1.924   6.137
 7432SOL    HW222343   4.268   2.007   6.020
 7433SOL     OW22344   5.149   3.061   5.629
 7433SOL    HW122345   5.183   2.984   5.682
 7433SOL    HW222346   5.061   3.090   5.665
 7434SOL     OW22347   4.014   1.910   5.772
 7434SOL    HW122348   4.066   1.982   5.725
 7434SOL    HW222349   4.077   1.846   5.815
 7435SOL     OW22350   4.671   2.113   6.042
 7435SOL    HW122351   4.640   2.155   5.956
 7435SOL    HW222352   4.769   2.127   6.052
 7436SOL     OW22353   4.942   3.433   6.381
 7436SOL    HW122354   4.956   3.504   6.312
 7436SOL    HW222355   5.021   3.430   6.443
 7437SOL     OW22356   4.192   3.013   6.314
 7437SOL    HW122357   4.126   2.994   6.386
 7437SOL    HW222358   4.149   3.001   6.224
 7438SOL     OW22359   4.985   3.653   6.197
 7438SOL    HW122360   5.038   3.716   6.139
 7438SOL    HW222361   4.911   3.703   6.241
 7439SOL     OW22362   4.745   2.397   5.616
 7439SOL    HW122363   4.700   2.483   5.592
 7439SOL    HW222364   4.814   2.414   5.686
 7440SOL     OW22365   4.287   2.083   6.757
 7440SOL    HW122366   4.333   2.001   6.789
 7440SOL    HW222367   4.192   2.082   6.787
 7441SOL     OW22368   4.589   2.321   6.222
 7441SOL    HW122369   4.542   2.382   6.158
 7441SOL    HW222370   4.618   2.238   6.174
 7442SOL     OW22371   4.743   1.910   6.325
 7442SOL    HW122372   4.680   1.910   6.247
 7442SOL    HW222373   4.717   1.837   6.388
 7443SOL     OW22374   5.164   3.022   6.442
 7443SOL    HW122375   5.095   2.950   6.444
 7443SOL    HW222376   5.196   3.035   6.348
 7444SOL     OW22377   5.191   2.468   6.549
 7444SOL    HW122378   5.127   2.391   6.554
 7444SOL    HW222379   5.253   2.465   6.627
 7445SOL     OW22380   5.566   2.670   5.965
 7445SOL    HW122381   5.624   2.623   6.032
 7445SOL    HW222382   5.537   2.606   5.894
 7446SOL     OW22383   4.211   3.283   5.741
 7446SOL    HW122384   4.130   3.257   5.794
 7446SOL    HW222385   4.210   3.236   5.653
 7447SOL     OW22386   5.400   3.129   6.229
 7447SOL    HW122387   5.499   3.125   6.242
 7447SOL    HW222388   5.367   3.221   6.250
 7448SOL     OW22389   5.114   2.436   5.657
 7448SOL    HW122390   5.051   2.414   5.731
 7448SOL    HW222391   5.207   2.411   5.683
 7449SOL     OW22392   4.252   2.126   5.895
 7449SOL    HW122393   4.300   2.074   5.824
 7449SOL    HW222394   4.223   2.214   5.857
 7450SOL     OW22395   5.484   3.039   0.169
 7450SOL    HW122396   5.581   3.027   0.150
 7450SOL    HW222397   5.455   3.131   0.143
 7451SOL     OW22398   4.842   3.101   6.694
 7451SOL    HW122399   4.759   3.056   6.727
 7451SOL    HW222400   4.829   3.127   6.598
 7452SOL     OW22401   5.342   2.945   6.650
 7452SOL    HW122402   5.342   3.016   6.720
 7452SOL    HW222403   5.268   2.963   6.585
 7453SOL     OW22404   4.437   2.921   5.959
 7453SOL    HW122405   4.420   2.903   6.056
 7453SOL    HW222406   4.516   2.867   5.929
 7454SOL     OW22407   4.148   2.677   6.847
 7454SOL    HW122408   4.205   2.703   6.925
 7454SOL    HW222409   4.114   2.584   6.860
 7455SOL     OW22410   4.994   2.251   6.855
 7455SOL    HW122411   5.021   2.324   6.918
 7455SOL    HW222412   4.900   2.266   6.826
 7456SOL     OW22413   3.815   3.422   6.858
 7456SOL    HW122414   3.752   3.496   6.884
 7456SOL    HW222415   3.892   3.420   6.922
 7457SOL     OW22416   4.064   2.982   6.073
 7457SOL    HW122417   4.069   3.064   6.016
 7457SOL    HW222418   4.063   2.901   6.014
 7458SOL     OW22419   4.270   2.407   6.449
 7458SOL    HW122420   4.284   2.466   6.369
 7458SOL    HW222421   4.341   2.425   6.516
 7459SOL     OW22422   4.970   3.217   5.978
 7459SOL    HW122423   5.031   3.290   6.010
 7459SOL    HW222424   4.876   3.237   6.008
 7460SOL     OW22425   5.006   3.312   6.748
 7460SOL    HW122426   5.043   3.300   6.840
 7460SOL    HW222427   4.944   3.237   6.727
 7461SOL     OW22428   5.300   2.483   6.068
 7461SOL    HW122429   5.250   2.529   6.142
 7461SOL    HW222430   5.348   2.551   6.013
 7462SOL     OW22431   4.091   3.357   6.904
 7462SOL    HW122432   4.059   3.320   6.817
 7462SOL    HW222433   4.186   3.388   6.894
 7463SOL     OW22434   4.309   2.732   6.624
 7463SOL    HW122435   4.342   2.826   6.617
 7463SOL    HW222436   4.248   2.723   6.703
 7464SOL     OW22437   5.069   2.718   6.594
 7464SOL    HW122438   4.978   2.701   6.555
 7464SOL    HW222439   5.123   2.634   6.590
 7465SOL     OW22440   4.921   2.388   5.850
 7465SOL    HW122441   4.934   2.306   5.904
 7465SOL    HW222442   4.877   2.459   5.905
 7466SOL     OW22443   4.027   2.062   6.834
 7466SOL    HW122444   3.983   2.094   6.918
 7466SOL    HW222445   4.014   1.963   6.826
 7467SOL     OW22446   3.750   3.162   6.869
 7467SOL    HW122447   3.804   3.115   6.939
 7467SOL    HW222448   3.777   3.259   6.865
 7468SOL     OW22449   4.448   2.488   6.641
 7468SOL    HW122450   4.526   2.468   6.582
 7468SOL    HW222451   4.417   2.581   6.624
 7469SOL     OW22452   4.031   1.923   6.213
 7469SOL    HW122453   4.006   2.018   6.231
 7469SOL    HW222454   4.042   1.874   6.299
 7470SOL     OW22455   5.352   2.244   5.946
 7470SOL    HW122456   5.378   2.170   6.009
 7470SOL    HW222457   5.323   2.324   6.000
 7471SOL     OW22458   4.746   2.619   6.550
 7471SOL    HW122459   4.740   2.639   6.648
 7471SOL    HW222460   4.721   2.523   6.534
 7472SOL     OW22461   5.251   2.130   5.716
 7472SOL    HW122462   5.182   2.062   5.741
 7472SOL    HW222463   5.288   2.173   5.798
 7473SOL     OW22464   5.012   2.687   5.611
 7473SOL    HW122465   5.052   2.596   5.620
 7473SOL    HW222466   5.043   2.730   5.527
 7474SOL     OW22467   4.797   3.200   6.439
 7474SOL    HW122468   4.801   3.122   6.376
 7474SOL    HW222469   4.854   3.274   6.404
 7475SOL     OW22470   4.037   2.667   6.528
 7475SOL    HW122471   4.133   2.693   6.522
 7475SOL    HW222472   4.031   2.572   6.559
 7476SOL     OW22473   4.055   2.391   6.604
 7476SOL    HW122474   4.015   2.301   6.591
 7476SOL    HW222475   4.135   2.401   6.545
 7477SOL     OW22476   4.865   2.103   0.054
 7477SOL    HW122477   4.935   2.114   0.124
 7477SOL    HW222478   4.898   2.142   6.967
 7478SOL     OW22479   3.724   3.176   5.780
 7478SOL    HW122480   3.635   3.196   5.741
 7478SOL    HW222481   3.725   3.083   5.816
 7479SOL     OW22482   3.815   3.651   6.528
 7479SOL    HW122483   3.780   3.568   6.484
 7479SOL    HW222484   3.910   3.664   6.502
 7480SOL     OW22485   4.217   3.440   6.491
 7480SOL    HW122486   4.287   3.505   6.519
 7480SOL    HW222487   4.257   3.372   6.430
 7481SOL     OW22488   4.703   2.657   6.823
 7481SOL    HW122489   4.783   2.635   6.880
 7481SOL    HW222490   4.622   2.611   6.859
 7482SOL     OW22491   3.775   2.420   6.712
 7482SOL    HW122492   3.829   2.386   6.635
 7482SOL    HW222493   3.837   2.455   6.783
 7483SOL     OW22494   4.541   2.434   5.948
 7483SOL    HW122495   4.551   2.355   5.888
 7483SOL    HW222496   4.463   2.489   5.918
 7484SOL     OW22497   5.372   2.472   6.752
 7484SOL    HW122498   5.356   2.413   6.831
 7484SOL    HW222499   5.467   2.462   6.721
 7485SOL     OW22500   4.396   2.325   6.850
 7485SOL    HW122501   4.361   2.237   6.819
 7485SOL    HW222502   4.411   2.385   6.771
 7486SOL     OW22503   4.669   3.524   6.995
 7486SOL    HW122504   4.636   3.511   6.902
 7486SOL    HW222505   4.648   3.618   0.025
 7487SOL     OW22506   4.182   2.357   5.770
 7487SOL    HW122507   4.247   2.429   5.796
 7487SOL    HW222508   4.091   2.397   5.758
 7488SOL     OW22509   3.881   3.004   0.059
 7488SOL    HW122510   3.937   2.964   0.132
 7488SOL    HW222511   3.890   2.950   6.976
 7489SOL     OW22512   5.007   2.865   6.814
 7489SOL    HW122513   5.044   2.815   6.736
 7489SOL    HW222514   4.984   2.959   6.785
 7490SOL     OW22515   5.040   2.720   5.884
 7490SOL    HW122516   4.965   2.691   5.943
 7490SOL    HW222517   5.014   2.706   5.788
 7491SOL     OW22518   5.478   3.620   6.723
 7491SOL    HW122519   5.555   3.642   6.662
 7491SOL    HW222520   5.457   3.523   6.716
 7492SOL     OW22521   4.972   3.587   6.699
 7492SOL    HW122522   5.056   3.616   6.653
 7492SOL    HW222523   4.977   3.489   6.718
 7493SOL     OW22524   3.806   3.125   6.599
 7493SOL    HW122525   3.785   3.134   6.697
 7493SOL    HW222526   3.739   3.065   6.556
 7494SOL     OW22527   5.443   2.014   6.084
 7494SOL    HW122528   5.519   2.003   6.019
 7494SOL    HW222529   5.426   1.926   6.129
 7495SOL     OW22530   5.119   3.433   6.074
 7495SOL    HW122531   5.182   3.465   6.003
 7495SOL    HW222532   5.064   3.509   6.107
 7496SOL     OW22533   5.006   2.791   6.252
 7496SOL    HW122534   5.080   2.726   6.268
 7496SOL    HW222535   5.039   2.867   6.197
 7497SOL     OW22536   4.392   3.484   5.740
 7497SOL    HW122537   4.409   3.503   5.643
 7497SOL    HW222538   4.334   3.403   5.749
 7498SOL     OW22539   5.566   2.036   6.556
 7498SOL    HW122540   5.601   1.945   6.534
 7498SOL    HW222541   5.474   2.047   6.518
 7499SOL     OW22542   3.978   2.176   6.301
 7499SOL    HW122543   3.889   2.212   6.273
 7499SOL    HW222544   3.982   2.169   6.401
 7500SOL     OW22545   4.933   3.462   5.619
 7500SOL    HW122546   4.923   3.368   5.652
 7500SOL    HW222547   4.865   3.479   5.547
 7501SOL     OW22548   4.499   2.887   6.953
 7501SOL    HW122549   4.558   2.843   6.886
 7501SOL    HW222550   4.544   2.969   6.988
 7502SOL     OW22551   4.644   2.773   5.873
 7502SOL    HW122552   4.705   2.808   5.802
 7502SOL    HW222553   4.691   2.701   5.925
 7503SOL     OW22554   5.212   3.493   5.628
 7503SOL    HW122555   5.113   3.481   5.617
 7503SOL    HW222556   5.255   3.498   5.538
 7504SOL     OW22557   5.340   3.141   6.834
 7504SOL    HW122558   5.430   3.141   6.876
 7504SOL    HW222559   5.271   3.119   6.904
 7505SOL     OW22560   4.786   2.968   6.301
 7505SOL    HW122561   4.709   2.917   6.340
 7505SOL    HW222562   4.856   2.904   6.269
 7506SOL     OW22563   4.744   2.099   6.539
 7506SOL    HW122564   4.743   2.050   6.452
 7506SOL    HW222565   4.747   2.033   6.614
 7507SOL     OW22566   4.329   3.348   6.066
 7507SOL    HW122567   4.381   3.294   5.999
 7507SOL    HW222568   4.254   3.395   6.019
 7508SOL     OW22569   5.419   2.285   6.946
 7508SOL    HW122570   5.482   2.292   0.023
 7508SOL    HW222571   5.426   2.194   6.905
 7509SOL     OW22572   3.977   3.210   5.874
 7509SOL    HW122573   3.881   3.203   5.847
 7509SOL    HW222574   3.982   3.249   5.966
 7510SOL     OW22575   4.399   2.051   0.081
 7510SOL    HW122576   4.490   2.021   0.053
 7510SOL    HW222577   4.405   2.134   0.135
 7511SOL     OW22578   3.806   2.189   5.614
 7511SOL    HW122579   3.714   2.165   5.582
 7511SOL    HW222580   3.838   2.271   5.567
 7512SOL     OW22581   3.786   2.017   5.887
 7512SOL    HW122582   3.770   2.101   5.835
 7512SOL    HW222583   3.875   1.978   5.860
 7513SOL     OW22584   4.904   3.199   5.707
 7513SOL    HW122585   4.809   3.169   5.700
 7513SOL    HW222586   4.932   3.200   5.803
 7514SOL     OW22587   5.216   3.648   6.580
 7514SOL    HW122588   5.229   3.710   6.503
 7514SOL    HW222589   5.305   3.629   6.623
 7515SOL     OW22590   5.217   3.157   0.282
 7515SOL    HW122591   5.125   3.157   0.322
 7515SOL    HW222592   5.243   3.063   0.261
 7516SOL     OW22593   4.110   3.588   0.088
 7516SOL    HW122594   4.031   3.642   0.117
 7516SOL    HW222595   4.104   3.496   0.126
 7517SOL     OW22596   5.425   2.740   6.828
 7517SOL    HW122597   5.392   2.650   6.800
 7517SOL    HW222598   5.389   2.809   6.766
 7518SOL     OW22599   4.944   2.179   6.045
 7518SOL    HW122600   5.007   2.102   6.036
 7518SOL    HW222601   4.970   2.234   6.124
 7519SOL     OW22602   4.308   2.599   6.255
 7519SOL    HW122603   4.351   2.689   6.244
 7519SOL    HW222604   4.240   2.585   6.184
 7520SOL     OW22605   5.492   2.765   0.095
 7520SOL    HW122606   5.482   2.860   0.122
 7520SOL    HW222607   5.468   2.754   6.998
 7521SOL     OW22608   4.590   3.225   5.631
 7521SOL    HW122609   4.550   3.249   5.719
 7521SOL    HW222610   4.605   3.309   5.578
 7522SOL     OW22611   4.391   3.646   6.532
 7522SOL    HW122612   4.367   3.740   6.507
 7522SOL    HW222613   4.489   3.633   6.518
 7523SOL     OW22614   4.593   2.832   6.442
 7523SOL    HW122615   4.643   2.754   6.480
 7523SOL    HW222616   4.553   2.885   6.517
 7524SOL     OW22617   4.801   2.852   5.669
 7524SOL    HW122618   4.774   2.905   5.590
 7524SOL    HW222619   4.879   2.793   5.645
 7525SOL     OW22620   5.572   3.419   6.432
 7525SOL    HW122621   5.492   3.406   6.373
 7525SOL    HW222622   5.567   3.358   6.510
 7526SOL     OW22623   3.812   3.090   6.249
 7526SOL    HW122624   3.815   3.044   6.337
 7526SOL    HW222625   3.881   3.051   6.188
 7527SOL     OW22626   5.533   2.037   6.834
 7527SOL    HW122627   5.508   1.940   6.836
 7527SOL    HW222628   5.549   2.066   6.740
 7528SOL     OW22629   4.154   2.290   6.112
 7528SOL    HW122630   4.188   2.220   6.050
 7528SOL    HW222631   4.099   2.246   6.184
 7529SOL     OW22632   5.400   3.364   6.676
 7529SOL    HW122633   5.324   3.345   6.614
 7529SOL    HW222634   5.409   3.289   6.742
 7530SOL     OW22635   4.041   2.414   6.878
 7530SOL    HW122636   4.111   2.361   6.926
 7530SOL    HW222637   4.051   2.401   6.779
 7531SOL     OW22638   4.553   3.441   6.262
 7531SOL    HW122639   4.539   3.505   6.187
 7531SOL    HW222640   4.476   3.378   6.268
 7532SOL     OW22641   5.158   2.099   6.702
 7532SOL    HW122642   5.190   2.015   6.747
 7532SOL    HW222643   5.105   2.154   6.766
 7533SOL     OW22644   4.742   1.880   6.710
 7533SOL    HW122645   4.679   1.814   6.669
 7533SOL    HW222646   4.832   1.837   6.721
 7534SOL     OW22647   4.499   3.193   5.907
 7534SOL    HW122648   4.471   3.098   5.916
 7534SOL    HW222649   4.583   3.209   5.958
 7535SOL     OW22650   4.348   3.427   6.864
 7535SOL    HW122651   4.345   3.522   6.895
 7535SOL    HW222652   4.435   3.409   6.818
 7536SOL     OW22653   5.079   1.911   5.757
 7536SOL    HW122654   5.123   1.843   5.698
 7536SOL    HW222655   4.986   1.883   5.778
 7537SOL     OW22656   5.015   2.326   6.266
 7537SOL    HW122657   4.963   2.411   6.268
 7537SOL    HW222658   5.012   2.283   6.356
 7538SOL     OW22659   5.311   2.066   6.471
 7538SOL    HW122660   5.250   2.086   6.549
 7538SOL    HW222661   5.312   2.145   6.410
 7539SOL     OW22662   3.766   2.925   5.894
 7539SOL    HW122663   3.865   2.925   5.875
 7539SOL    HW222664   3.737   2.832   5.915
 7540SOL     OW22665   4.609   3.526   5.925
 7540SOL    HW122666   4.533   3.505   5.863
 7540SOL    HW222667   4.583   3.603   5.984
 7541SOL     OW22668   3.942   4.361   0.136
 7541SOL    HW122669   3.847   4.344   0.160
 7541SOL    HW222670   3.956   4.343   0.039
 7542SOL     OW22671   3.946   4.007   0.994
 7542SOL    HW122672   3.979   3.972   1.083
 7542SOL    HW222673   3.853   3.974   0.978
 7543SOL     OW22674   3.724   4.113   0.637
 7543SOL    HW122675   3.643   4.148   0.685
 7543SOL    HW222676   3.701   4.026   0.593
 7544SOL     OW22677   4.293   5.023   1.187
 7544SOL    HW122678   4.203   5.019   1.143
 7544SOL    HW222679   4.311   5.115   1.220
 7545SOL     OW22680   5.290   5.238   0.709
 7545SOL    HW122681   5.248   5.212   0.796
 7545SOL    HW222682   5.219   5.240   0.637
 7546SOL     OW22683   4.856   4.426   0.695
 7546SOL    HW122684   4.910   4.509   0.680
 7546SOL    HW222685   4.806   4.434   0.781
 7547SOL     OW22686   5.510   4.301   0.198
 7547SOL    HW122687   5.445   4.354   0.144
 7547SOL    HW222688   5.461   4.240   0.260
 7548SOL     OW22689   4.466   4.864   1.042
 7548SOL    HW122690   4.399   4.899   1.107
 7548SOL    HW222691   4.511   4.940   0.995
 7549SOL     OW22692   4.599   4.487   1.822
 7549SOL    HW122693   4.587   4.554   1.894
 7549SOL    HW222694   4.623   4.533   1.736
 7550SOL     OW22695   4.407   4.720   0.650
 7550SOL    HW122696   4.478   4.711   0.719
 7550SOL    HW222697   4.333   4.778   0.685
 7551SOL     OW22698   4.435   4.877   1.819
 7551SOL    HW122699   4.488   4.955   1.852
 7551SOL    HW222700   4.351   4.909   1.776
 7552SOL     OW22701   4.050   5.146   1.066
 7552SOL    HW122702   3.974   5.101   1.020
 7552SOL    HW222703   4.103   5.199   0.999
 7553SOL     OW22704   5.181   5.226   1.359
 7553SOL    HW122705   5.239   5.307   1.366
 7553SOL    HW222706   5.110   5.230   1.429
 7554SOL     OW22707   4.174   4.116   1.477
 7554SOL    HW122708   4.256   4.059   1.486
 7554SOL    HW222709   4.093   4.061   1.497
 7555SOL     OW22710   5.335   4.173   0.749
 7555SOL    HW122711   5.263   4.193   0.683
 7555SOL    HW222712   5.341   4.247   0.816
 7556SOL     OW22713   3.944   5.448   0.471
 7556SOL    HW122714   3.962   5.527   0.529
 7556SOL    HW222715   4.029   5.419   0.426
 7557SOL     OW22716   4.861   5.064   1.698
 7557SOL    HW122717   4.908   5.061   1.786
 7557SOL    HW222718   4.805   4.982   1.688
 7558SOL     OW22719   3.937   5.172   0.532
 7558SOL    HW122720   3.925   5.271   0.542
 7558SOL    HW222721   3.887   5.125   0.604
 7559SOL     OW22722   3.993   4.814   0.900
 7559SOL    HW122723   3.989   4.720   0.933
 7559SOL    HW222724   3.931   4.871   0.954
 7560SOL     OW22725   4.321   5.521   1.425
 7560SOL    HW122726   4.238   5.497   1.476
 7560SOL    HW222727   4.353   5.612   1.454
 7561SOL     OW22728   4.311   4.691   0.148
 7561SOL    HW122729   4.369   4.712   0.069
 7561SOL    HW222730   4.348   4.736   0.229
 7562SOL     OW22731   5.321   3.849   1.469
 7562SOL    HW122732   5.343   3.929   1.413
 7562SOL    HW222733   5.305   3.878   1.563
 7563SOL     OW22734   3.839   4.378   0.562
 7563SOL    HW122735   3.809   4.285   0.582
 7563SOL    HW222736   3.834   4.434   0.644
 7564SOL     OW22737   5.560   5.486   0.350
 7564SOL    HW122738   5.634   5.457   0.411
 7564SOL    HW222739   5.565   5.585   0.337
 7565SOL     OW22740   3.738   5.305   0.146
 7565SOL    HW122741   3.667   5.237   0.126
 7565SOL    HW222742   3.717   5.351   0.232
 7566SOL     OW22743   5.416   4.639   0.651
 7566SOL    HW122744   5.499   4.587   0.632
 7566SOL    HW222745   5.394   4.696   0.572
 7567SOL     OW22746   5.380   4.820   0.446
 7567SOL    HW122747   5.448   4.839   0.375
 7567SOL    HW222748   5.386   4.889   0.518
 7568SOL     OW22749   3.848   4.469   1.585
 7568SOL    HW122750   3.944   4.496   1.585
 7568SOL    HW222751   3.791   4.550   1.586
 7569SOL     OW22752   4.337   5.113   0.737
 7569SOL    HW122753   4.291   5.026   0.750
 7569SOL    HW222754   4.327   5.142   0.642
 7570SOL     OW22755   5.012   4.958   1.422
 7570SOL    HW122756   5.038   4.888   1.356
 7570SOL    HW222757   5.072   4.954   1.501
 7571SOL     OW22758   4.544   3.738   0.515
 7571SOL    HW122759   4.589   3.823   0.491
 7571SOL    HW222760   4.445   3.753   0.522
 7572SOL     OW22761   3.914   4.685   1.278
 7572SOL    HW122762   4.004   4.642   1.264
 7572SOL    HW222763   3.846   4.638   1.222
 7573SOL     OW22764   5.213   4.747   0.215
 7573SOL    HW122765   5.146   4.681   0.247
 7573SOL    HW222766   5.302   4.728   0.258
 7574SOL     OW22767   4.905   5.536   1.622
 7574SOL    HW122768   4.913   5.605   1.550
 7574SOL    HW222769   4.925   5.446   1.585
 7575SOL     OW22770   4.067   3.973   1.834
 7575SOL    HW122771   4.115   4.058   1.852
 7575SOL    HW222772   3.969   3.986   1.853
 7576SOL     OW22773   5.188   5.145   0.946
 7576SOL    HW122774   5.122   5.163   1.019
 7576SOL    HW222775   5.180   5.049   0.918
 7577SOL     OW22776   5.364   5.479   0.584
 7577SOL    HW122777   5.347   5.452   0.489
 7577SOL    HW222778   5.349   5.401   0.644
 7578SOL     OW22779   4.324   4.440   0.267
 7578SOL    HW122780   4.329   4.530   0.225
 7578SOL    HW222781   4.259   4.443   0.343
 7579SOL     OW22782   5.001   4.083   0.932
 7579SOL    HW122783   4.907   4.049   0.941
 7579SOL    HW222784   5.061   4.032   0.994
 7580SOL     OW22785   5.299   5.402   0.317
 7580SOL    HW122786   5.395   5.431   0.316
 7580SOL    HW222787   5.266   5.393   0.223
 7581SOL     OW22788   4.513   4.337   1.449
 7581SOL    HW122789   4.489   4.312   1.543
 7581SOL    HW222790   4.477   4.268   1.386
 7582SOL     OW22791   5.115   4.194   1.680
 7582SOL    HW122792   5.115   4.243   1.766
 7582SOL    HW222793   5.175   4.114   1.686
 7583SOL     OW22794   4.676   4.609   1.584
 7583SOL    HW122795   4.734   4.537   1.545
 7583SOL    HW222796   4.622   4.651   1.511
 7584SOL     OW22797   4.718   4.129   1.228
 7584SOL    HW122798   4.628   4.151   1.265
 7584SOL    HW222799   4.708   4.079   1.142
 7585SOL     OW22800   4.775   4.426   0.429
 7585SOL    HW122801   4.798   4.422   0.526
 7585SOL    HW222802   4.689   4.377   0.413
 7586SOL     OW22803   3.815   4.548   0.778
 7586SOL    HW122804   3.899   4.537   0.829
 7586SOL    HW222805   3.764   4.627   0.814
 7587SOL     OW22806   3.852   5.598   1.589
 7587SOL    HW122807   3.857   5.571   1.685
 7587SOL    HW222808   3.768   5.562   1.548
 7588SOL     OW22809   4.613   4.067   0.207
 7588SOL    HW122810   4.664   4.127   0.146
 7588SOL    HW222811   4.629   3.972   0.182
 7589SOL     OW22812   5.424   4.296   1.826
 7589SOL    HW122813   5.389   4.375   1.776
 7589SOL    HW222814   5.454   4.226   1.761
 7590SOL     OW22815   5.107   4.865   0.549
 7590SOL    HW122816   5.191   4.852   0.495
 7590SOL    HW222817   5.048   4.931   0.503
 7591SOL     OW22818   4.271   3.897   0.901
 7591SOL    HW122819   4.275   3.926   0.997
 7591SOL    HW222820   4.274   3.977   0.842
 7592SOL     OW22821   4.715   5.162   0.469
 7592SOL    HW122822   4.684   5.244   0.420
 7592SOL    HW222823   4.696   5.173   0.567
 7593SOL     OW22824   4.080   5.538   0.871
 7593SOL    HW122825   4.124   5.449   0.877
 7593SOL    HW222826   4.147   5.610   0.890
 7594SOL     OW22827   5.524   4.777   0.875
 7594SOL    HW122828   5.473   4.755   0.791
 7594SOL    HW222829   5.460   4.784   0.951
 7595SOL     OW22830   4.950   5.260   1.515
 7595SOL    HW122831   4.938   5.186   1.581
 7595SOL    HW222832   4.882   5.251   1.441
 7596SOL     OW22833   4.039   4.684   0.228
 7596SOL    HW122834   4.132   4.697   0.195
 7596SOL    HW222835   4.010   4.590   0.209
 7597SOL     OW22836   5.208   4.470   0.722
 7597SOL    HW122837   5.204   4.430   0.814
 7597SOL    HW222838   5.288   4.531   0.716
 7598SOL     OW22839   4.193   4.990   1.731
 7598SOL    HW122840   4.167   4.996   1.634
 7598SOL    HW222841   4.111   4.987   1.787
 7599SOL     OW22842   4.844   5.490   0.242
 7599SOL    HW122843   4.771   5.444   0.294
 7599SOL    HW222844   4.882   5.426   0.174
 7600SOL     OW22845   3.926   3.997   1.502
 7600SOL    HW122846   3.845   4.055   1.501
 7600SOL    HW222847   3.904   3.909   1.546
 7601SOL     OW22848   5.370   5.155   0.106
 7601SOL    HW122849   5.322   5.235   0.071
 7601SOL    HW222850   5.309   5.101   0.163
 7602SOL     OW22851   4.208   5.422   0.379
 7602SOL    HW122852   4.237   5.507   0.423
 7602SOL    HW222853   4.267   5.404   0.300
 7603SOL     OW22854   3.983   5.515   1.225
 7603SOL    HW122855   4.033   5.442   1.271
 7603SOL    HW222856   3.964   5.489   1.131
 7604SOL     OW22857   4.661   5.427   0.896
 7604SOL    HW122858   4.743   5.379   0.927
 7604SOL    HW222859   4.618   5.374   0.823
 7605SOL     OW22860   4.122   4.411   0.469
 7605SOL    HW122861   4.141   4.314   0.487
 7605SOL    HW222862   4.026   4.430   0.487
 7606SOL     OW22863   5.251   3.947   1.728
 7606SOL    HW122864   5.262   3.968   1.825
 7606SOL    HW222865   5.179   3.878   1.716
 7607SOL     OW22866   4.487   4.000   1.757
 7607SOL    HW122867   4.572   3.948   1.751
 7607SOL    HW222868   4.436   3.970   1.838
 7608SOL     OW22869   4.598   5.239   1.193
 7608SOL    HW122870   4.579   5.202   1.102
 7608SOL    HW222871   4.671   5.185   1.235
 7609SOL     OW22872   5.063   4.313   1.436
 7609SOL    HW122873   5.093   4.278   1.524
 7609SOL    HW222874   5.099   4.405   1.422
 7610SOL     OW22875   4.544   5.112   0.943
 7610SOL    HW122876   4.633   5.101   0.900
 7610SOL    HW222877   4.474   5.119   0.871
 7611SOL     OW22878   4.651   4.231   0.899
 7611SOL    HW122879   4.624   4.223   0.802
 7611SOL    HW222880   4.683   4.142   0.932
 7612SOL     OW22881   4.273   3.795   0.502
 7612SOL    HW122882   4.190   3.792   0.558
 7612SOL    HW222883   4.269   3.873   0.440
 7613SOL     OW22884   5.143   4.937   0.011
 7613SOL    HW122885   5.173   4.857   0.064
 7613SOL    HW222886   5.061   4.976   0.053
 7614SOL     OW22887   4.674   3.974   0.461
 7614SOL    HW122888   4.641   4.014   0.376
 7614SOL    HW222889   4.773   3.989   0.469
 7615SOL     OW22890   4.803   4.407   1.454
 7615SOL    HW122891   4.729   4.341   1.460
 7615SOL    HW222892   4.891   4.359   1.451
 7616SOL     OW22893   4.942   5.291   0.797
 7616SOL    HW122894   4.955   5.361   0.726
 7616SOL    HW222895   5.015   5.297   0.864
 7617SOL     OW22896   4.196   4.877   0.731
 7617SOL    HW122897   4.125   4.855   0.799
 7617SOL    HW222898   4.157   4.869   0.639
 7618SOL     OW22899   4.979   5.508   0.612
 7618SOL    HW122900   5.037   5.571   0.561
 7618SOL    HW222901   4.906   5.559   0.657
 7619SOL     OW22902   4.785   4.303   0.031
 7619SOL    HW122903   4.690   4.327   0.051
 7619SOL    HW222904   4.835   4.291   0.117
 7620SOL     OW22905   3.811   4.281   1.391
 7620SOL    HW122906   3.906   4.277   1.359
 7620SOL    HW222907   3.803   4.352   1.461
 7621SOL     OW22908   4.282   3.947   1.173
 7621SOL    HW122909   4.332   3.872   1.217
 7621SOL    HW222910   4.187   3.946   1.202
 7622SOL     OW22911   4.590   4.180   0.638
 7622SOL    HW122912   4.546   4.243   0.574
 7622SOL    HW222913   4.618   4.098   0.590
 7623SOL     OW22914   4.743   3.773   0.741
 7623SOL    HW122915   4.678   3.774   0.665
 7623SOL    HW222916   4.718   3.700   0.805
 7624SOL     OW22917   5.171   4.885   0.860
 7624SOL    HW122918   5.095   4.820   0.862
 7624SOL    HW222919   5.204   4.895   0.766
 7625SOL     OW22920   5.192   4.333   0.970
 7625SOL    HW122921   5.130   4.255   0.970
 7625SOL    HW222922   5.253   4.327   1.049
 7626SOL     OW22923   5.550   4.528   0.391
 7626SOL    HW122924   5.612   4.468   0.442
 7626SOL    HW222925   5.546   4.499   0.296
 7627SOL     OW22926   4.197   5.152   0.153
 7627SOL    HW122927   4.137   5.102   0.216
 7627SOL    HW222928   4.158   5.148   0.060
 7628SOL     OW22929   5.397   4.989   0.653
 7628SOL    HW122930   5.497   4.987   0.661
 7628SOL    HW222931   5.365   5.083   0.667
 7629SOL     OW22932   5.113   4.275   0.066
 7629SOL    HW122933   5.052   4.274   0.145
 7629SOL    HW222934   5.175   4.197   0.071
 7630SOL     OW22935   4.237   3.989   0.312
 7630SOL    HW122936   4.251   3.922   0.238
 7630SOL    HW222937   4.213   4.077   0.272
 7631SOL     OW22938   5.476   4.965   1.559
 7631SOL    HW122939   5.566   4.923   1.545
 7631SOL    HW222940   5.488   5.058   1.593
 7632SOL     OW22941   4.777   5.074   1.336
 7632SOL    HW122942   4.695   5.044   1.386
 7632SOL    HW222943   4.858   5.034   1.378
 7633SOL     OW22944   5.338   5.354   1.657
 7633SOL    HW122945   5.322   5.389   1.565
 7633SOL    HW222946   5.423   5.302   1.659
 7634SOL     OW22947   4.862   4.945   1.105
 7634SOL    HW122948   4.802   4.979   1.177
 7634SOL    HW222949   4.828   4.976   1.016
 7635SOL     OW22950   5.347   4.820   1.080
 7635SOL    HW122951   5.342   4.886   1.155
 7635SOL    HW222952   5.273   4.838   1.015
 7636SOL     OW22953   4.648   3.817   1.391
 7636SOL    HW122954   4.669   3.795   1.296
 7636SOL    HW222955   4.727   3.861   1.433
 7637SOL     OW22956   4.703   4.839   1.721
 7637SOL    HW122957   4.609   4.858   1.749
 7637SOL    HW222958   4.705   4.756   1.665
 7638SOL     OW22959   4.438   4.781   0.376
 7638SOL    HW122960   4.419   4.764   0.473
 7638SOL    HW222961   4.518   4.728   0.348
 7639SOL     OW22962   4.147   4.539   1.254
 7639SOL    HW122963   4.219   4.553   1.322
 7639SOL    HW222964   4.108   4.448   1.265
 7640SOL     OW22965   4.986   4.100   1.281
 7640SOL    HW122966   5.023   4.179   1.330
 7640SOL    HW222967   4.891   4.117   1.256
 7641SOL     OW22968   3.799   5.296   1.354
 7641SOL    HW122969   3.763   5.366   1.291
 7641SOL    HW222970   3.899   5.293   1.347
 7642SOL     OW22971   4.091   4.845   0.484
 7642SOL    HW122972   4.068   4.921   0.424
 7642SOL    HW222973   4.087   4.759   0.432
 7643SOL     OW22974   4.271   4.267   0.861
 7643SOL    HW122975   4.286   4.326   0.782
 7643SOL    HW222976   4.340   4.287   0.931
 7644SOL     OW22977   4.969   5.070   0.406
 7644SOL    HW122978   5.025   5.146   0.437
 7644SOL    HW222979   4.874   5.086   0.432
 7645SOL     OW22980   5.013   5.186   1.147
 7645SOL    HW122981   5.071   5.192   1.229
 7645SOL    HW222982   4.959   5.102   1.151
 7646SOL     OW22983   5.312   4.351   0.482
 7646SOL    HW122984   5.254   4.393   0.551
 7646SOL    HW222985   5.370   4.421   0.439
 7647SOL     OW22986   4.072   5.254   1.309
 7647SOL    HW122987   4.056   5.209   1.221
 7647SOL    HW222988   4.170   5.268   1.322
 7648SOL     OW22989   4.140   4.470   1.600
 7648SOL    HW122990   4.207   4.516   1.541
 7648SOL    HW222991   4.173   4.379   1.624
 7649SOL     OW22992   5.333   4.509   1.685
 7649SOL    HW122993   5.242   4.551   1.683
 7649SOL    HW222994   5.390   4.550   1.614
 7650SOL     OW22995   4.721   3.859   1.750
 7650SOL    HW122996   4.779   3.939   1.735
 7650SOL    HW222997   4.771   3.776   1.723
 7651SOL     OW22998   4.216   3.759   1.751
 7651SOL    HW122999   4.171   3.701   1.683
 7651SOL    HW223000   4.159   3.839   1.770
 7652SOL     OW23001   4.308   4.596   1.034
 7652SOL    HW123002   4.344   4.689   1.031
 7652SOL    HW223003   4.248   4.586   1.114
 7653SOL     OW23004   5.074   4.581   1.024
 7653SOL    HW123005   4.984   4.572   0.981
 7653SOL    HW223006   5.124   4.495   1.014
 7654SOL     OW23007   4.918   4.251   0.271
 7654SOL    HW123008   4.933   4.171   0.329
 7654SOL    HW223009   4.878   4.325   0.327
 7655SOL     OW23010   4.020   3.920   1.246
 7655SOL    HW123011   3.985   3.956   1.332
 7655SOL    HW223012   4.005   3.821   1.243
 7656SOL     OW23013   3.776   5.034   1.275
 7656SOL    HW123014   3.808   4.972   1.347
 7656SOL    HW223015   3.779   5.128   1.308
 7657SOL     OW23016   4.447   4.354   1.054
 7657SOL    HW123017   4.525   4.335   0.994
 7657SOL    HW223018   4.412   4.446   1.036
 7658SOL     OW23019   5.461   4.685   1.857
 7658SOL    HW123020   5.418   4.615   1.799
 7658SOL    HW223021   5.401   4.704   1.935
 7659SOL     OW23022   4.030   3.789   0.630
 7659SOL    HW123023   4.005   3.884   0.650
 7659SOL    HW223024   4.042   3.739   0.716
 7660SOL     OW23025   5.352   4.102   0.374
 7660SOL    HW123026   5.377   4.032   0.441
 7660SOL    HW223027   5.330   4.187   0.421
 7661SOL     OW23028   4.747   4.479   0.958
 7661SOL    HW123029   4.742   4.501   1.055
 7661SOL    HW223030   4.720   4.384   0.943
 7662SOL     OW23031   4.705   5.287   1.718
 7662SOL    HW123032   4.688   5.334   1.632
 7662SOL    HW223033   4.753   5.201   1.700
 7663SOL     OW23034   5.578   5.227   1.603
 7663SOL    HW123035   5.597   5.253   1.509
 7663SOL    HW223036   5.661   5.238   1.658
 7664SOL     OW23037   4.077   4.643   1.804
 7664SOL    HW123038   4.156   4.664   1.861
 7664SOL    HW223039   4.103   4.577   1.734
 7665SOL     OW23040   5.207   4.019   0.155
 7665SOL    HW123041   5.169   3.928   0.169
 7665SOL    HW223042   5.267   4.043   0.232
 7666SOL     OW23043   5.018   4.544   0.034
 7666SOL    HW123044   5.064   4.456   0.022
 7666SOL    HW223045   5.041   4.604   6.957
 7667SOL     OW23046   4.793   5.061   0.855
 7667SOL    HW123047   4.798   4.983   0.793
 7667SOL    HW223048   4.852   5.135   0.822
 7668SOL     OW23049   4.036   4.530   0.943
 7668SOL    HW123050   4.132   4.556   0.940
 7668SOL    HW223051   4.028   4.435   0.975
 7669SOL     OW23052   4.050   4.252   1.011
 7669SOL    HW123053   4.012   4.160   1.001
 7669SOL    HW223054   4.131   4.260   0.953
 7670SOL     OW23055   4.858   4.096   1.693
 7670SOL    HW123056   4.805   4.153   1.756
 7670SOL    HW223057   4.950   4.134   1.684
 7671SOL     OW23058   4.885   3.927   1.476
 7671SOL    HW123059   4.871   3.989   1.553
 7671SOL    HW223060   4.929   3.977   1.401
 7672SOL     OW23061   3.818   5.506   0.944
 7672SOL    HW123062   3.780   5.426   0.898
 7672SOL    HW223063   3.911   5.523   0.912
 7673SOL     OW23064   4.217   5.300   0.904
 7673SOL    HW123065   4.287   5.366   0.931
 7673SOL    HW223066   4.257   5.232   0.843
 7674SOL     OW23067   4.697   4.517   1.224
 7674SOL    HW123068   4.758   4.494   1.299
 7674SOL    HW223069   4.607   4.475   1.239
 7675SOL     OW23070   3.762   4.277   1.117
 7675SOL    HW123071   3.844   4.265   1.062
 7675SOL    HW223072   3.787   4.279   1.214
 7676SOL     OW23073   3.916   4.247   1.731
 7676SOL    HW123074   3.969   4.193   1.666
 7676SOL    HW223075   3.878   4.327   1.685
 7677SOL     OW23076   5.105   4.658   1.654
 7677SOL    HW123077   5.128   4.756   1.655
 7677SOL    HW223078   5.101   4.626   1.560
 7678SOL     OW23079   4.543   4.293   0.371
 7678SOL    HW123080   4.551   4.215   0.310
 7678SOL    HW223081   4.466   4.350   0.343
 7679SOL     OW23082   5.366   4.327   1.180
 7679SOL    HW123083   5.350   4.267   1.259
 7679SOL    HW223084   5.458   4.310   1.144
 7680SOL     OW23085   3.963   5.270   1.725
 7680SOL    HW123086   3.942   5.345   1.789
 7680SOL    HW223087   3.970   5.184   1.776
 7681SOL     OW23088   4.434   4.170   1.251
 7681SOL    HW123089   4.375   4.093   1.228
 7681SOL    HW223090   4.429   4.239   1.179
 7682SOL     OW23091   4.642   5.405   1.473
 7682SOL    HW123092   4.617   5.358   1.388
 7682SOL    HW223093   4.643   5.504   1.457
 7683SOL     OW23094   4.178   4.223   0.188
 7683SOL    HW123095   4.242   4.295   0.214
 7683SOL    HW223096   4.085   4.260   0.185
 7684SOL     OW23097   3.865   4.862   1.476
 7684SOL    HW123098   3.867   4.818   1.565
 7684SOL    HW223099   3.885   4.794   1.405
 7685SOL     OW23100   5.038   4.767   1.219
 7685SOL    HW123101   5.066   4.699   1.150
 7685SOL    HW223102   4.972   4.830   1.178
 7686SOL     OW23103   5.025   4.571   0.306
 7686SOL    HW123104   4.944   4.541   0.356
 7686SOL    HW223105   5.014   4.549   0.209
 7687SOL     OW23106   5.506   5.452   1.158
 7687SOL    HW123107   5.567   5.486   1.087
 7687SOL    HW223108   5.474   5.361   1.134
 7688SOL     OW23109   4.965   5.457   1.104
 7688SOL    HW123110   5.051   5.486   1.062
 7688SOL    HW223111   4.971   5.360   1.128
 7689SOL     OW23112   3.810   4.990   1.009
 7689SOL    HW123113   3.794   5.004   1.107
 7689SOL    HW223114   3.739   4.930   0.972
 7690SOL     OW23115   4.405   5.398   1.738
 7690SOL    HW123116   4.342   5.476   1.732
 7690SOL    HW223117   4.479   5.410   1.671
 7691SOL     OW23118   4.664   3.802   0.112
 7691SOL    HW123119   4.734   3.857   0.067
 7691SOL    HW223120   4.706   3.741   0.179
 7692SOL     OW23121   5.453   3.886   0.529
 7692SOL    HW123122   5.522   3.877   0.457
 7692SOL    HW223123   5.424   3.796   0.559
 7693SOL     OW23124   5.114   5.286   0.492
 7693SOL    HW123125   5.179   5.317   0.422
 7693SOL    HW223126   5.059   5.363   0.524
 7694SOL     OW23127   3.870   5.511   1.846
 7694SOL    HW123128   3.813   5.443   1.891
 7694SOL    HW223129   3.919   5.564   1.915
 7695SOL     OW23130   5.007   4.648   0.670
 7695SOL    HW123131   5.081   4.583   0.685
 7695SOL    HW223132   5.041   4.726   0.618
 7696SOL     OW23133   4.526   5.003   1.425
 7696SOL    HW123134   4.497   5.047   1.510
 7696SOL    HW223135   4.456   5.017   1.355
 7697SOL     OW23136   4.398   5.330   0.192
 7697SOL    HW123137   4.403   5.380   0.105
 7697SOL    HW223138   4.340   5.249   0.180
 7698SOL     OW23139   5.340   5.453   1.387
 7698SOL    HW123140   5.398   5.453   1.306
 7698SOL    HW223141   5.326   5.547   1.418
 7699SOL     OW23142   5.566   3.893   0.963
 7699SOL    HW123143   5.601   3.801   0.941
 7699SOL    HW223144   5.475   3.904   0.923
 7700SOL     OW23145   3.979   4.041   0.716
 7700SOL    HW123146   3.889   4.076   0.688
 7700SOL    HW223147   3.982   4.032   0.816
 7701SOL     OW23148   4.943   5.322   0.041
 7701SOL    HW123149   4.937   5.227   0.071
 7701SOL    HW223150   4.858   5.349   6.996
 7702SOL     OW23151   4.547   4.734   1.379
 7702SOL    HW123152   4.598   4.718   1.294
 7702SOL    HW223153   4.544   4.832   1.397
 7703SOL     OW23154   4.647   4.637   0.293
 7703SOL    HW123155   4.702   4.666   0.214
 7703SOL    HW223156   4.696   4.566   0.344
 7704SOL     OW23157   5.211   5.379   0.042
 7704SOL    HW123158   5.114   5.357   0.041
 7704SOL    HW223159   5.243   5.395   6.948
 7705SOL     OW23160   4.089   5.027   1.487
 7705SOL    HW123161   4.079   5.107   1.428
 7705SOL    HW223162   4.009   4.968   1.476
 7706SOL     OW23163   5.336   5.008   1.285
 7706SOL    HW123164   5.400   4.988   1.359
 7706SOL    HW223165   5.271   5.078   1.314
 7707SOL     OW23166   4.787   4.830   0.715
 7707SOL    HW123167   4.710   4.781   0.755
 7707SOL    HW223168   4.855   4.764   0.683
 7708SOL     OW23169   4.747   3.963   0.966
 7708SOL    HW123170   4.743   3.919   0.876
 7708SOL    HW223171   4.744   3.892   1.037
 7709SOL     OW23172   4.338   5.201   0.485
 7709SOL    HW123173   4.377   5.149   0.408
 7709SOL    HW223174   4.276   5.271   0.450
 7710SOL     OW23175   5.457   4.117   1.381
 7710SOL    HW123176   5.529   4.186   1.381
 7710SOL    HW223177   5.482   4.043   1.319
 7711SOL     OW23178   4.003   5.043   0.309
 7711SOL    HW123179   3.919   5.028   0.257
 7711SOL    HW223180   3.982   5.097   0.391
 7712SOL     OW23181   3.839   4.760   1.729
 7712SOL    HW123182   3.757   4.732   1.780
 7712SOL    HW223183   3.919   4.714   1.767
 7713SOL     OW23184   4.408   3.917   1.500
 7713SOL    HW123185   4.494   3.893   1.456
 7713SOL    HW223186   4.426   3.951   1.592
 7714SOL     OW23187   3.833   4.042   0.010
 7714SOL    HW123188   3.768   3.990   6.953
 7714SOL    HW223189   3.858   4.127   6.963
 7715SOL     OW23190   5.146   4.580   1.394
 7715SOL    HW123191   5.091   4.644   1.341
 7715SOL    HW223192   5.240   4.581   1.360
 7716SOL     OW23193   3.772   3.896   0.326
 7716SOL    HW123194   3.759   3.989   0.290
 7716SOL    HW223195   3.847   3.852   0.277
 7717SOL     OW23196   4.909   5.068   0.127
 7717SOL    HW123197   4.812   5.054   0.109
 7717SOL    HW223198   4.927   5.057   0.225
 7718SOL     OW23199   4.348   4.554   1.434
 7718SOL    HW123200   4.405   4.635   1.420
 7718SOL    HW223201   4.405   4.473   1.443
 7719SOL     OW23202   5.210   5.515   0.989
 7719SOL    HW123203   5.234   5.580   0.916
 7719SOL    HW223204   5.293   5.476   1.027
 7720SOL     OW23205   4.446   4.281   1.702
 7720SOL    HW123206   4.491   4.348   1.761
 7720SOL    HW223207   4.465   4.189   1.736
 7721SOL     OW23208   5.198   4.920   1.634
 7721SOL    HW123209   5.183   4.933   1.732
 7721SOL    HW223210   5.294   4.938   1.612
 7722SOL     OW23211   4.094   5.462   1.567
 7722SOL    HW123212   4.010   5.515   1.553
 7722SOL    HW223213   4.071   5.374   1.609
 7723SOL     OW23214   5.388   4.602   1.256
 7723SOL    HW123215   5.385   4.511   1.214
 7723SOL    HW223216   5.376   4.671   1.185
 7724SOL     OW23217   4.946   4.041   0.456
 7724SOL    HW123218   5.027   3.990   0.427
 7724SOL    HW223219   4.967   4.093   0.539
 7725SOL     OW23220   4.311   4.458   0.666
 7725SOL    HW123221   4.352   4.549   0.659
 7725SOL    HW223222   4.241   4.447   0.596
 7726SOL     OW23223   5.474   4.089   1.653
 7726SOL    HW123224   5.465   4.105   1.554
 7726SOL    HW223225   5.399   4.029   1.684
 7727SOL     OW23226   5.477   4.655   1.509
 7727SOL    HW123227   5.465   4.752   1.531
 7727SOL    HW223228   5.455   4.640   1.413
 7728SOL     OW23229   4.629   5.107   0.055
 7728SOL    HW123230   4.568   5.083   0.130
 7728SOL    HW223231   4.631   5.207   0.045
 7729SOL     OW23232   4.389   5.508   0.942
 7729SOL    HW123233   4.366   5.603   0.920
 7729SOL    HW223234   4.488   5.494   0.930
 7730SOL     OW23235   4.593   4.695   0.856
 7730SOL    HW123236   4.644   4.617   0.893
 7730SOL    HW223237   4.550   4.745   0.932
 7731SOL     OW23238   4.805   4.707   0.080
 7731SOL    HW123239   4.805   4.765   6.999
 7731SOL    HW223240   4.883   4.645   0.076
 7732SOL     OW23241   5.569   5.281   0.846
 7732SOL    HW123242   5.492   5.267   0.784
 7732SOL    HW223243   5.571   5.208   0.915
 7733SOL     OW23244   3.955   5.022   1.856
 7733SOL    HW123245   3.891   4.954   1.822
 7733SOL    HW223246   3.940   5.035   1.954
 7734SOL     OW23247   3.807   4.957   0.665
 7734SOL    HW123248   3.826   4.907   0.749
 7734SOL    HW223249   3.852   4.912   0.588
 7735SOL     OW23250   4.407   5.134   1.633
 7735SOL    HW123251   4.326   5.084   1.666
 7735SOL    HW223252   4.406   5.227   1.671
 7736SOL     OW23253   5.528   3.906   1.233
 7736SOL    HW123254   5.542   3.810   1.257
 7736SOL    HW223255   5.541   3.918   1.135
 7737SOL     OW23256   4.155   4.153   0.528
 7737SOL    HW123257   4.185   4.081   0.465
 7737SOL    HW223258   4.100   4.112   0.601
 7738SOL     OW23259   5.415   5.207   1.095
 7738SOL    HW123260   5.335   5.189   1.037
 7738SOL    HW223261   5.423   5.135   1.164
 7739SOL     OW23262   4.060   4.280   1.289
 7739SOL    HW123263   4.116   4.223   1.348
 7739SOL    HW223264   4.075   4.254   1.193
 7740SOL     OW23265   4.552   5.303   0.680
 7740SOL    HW123266   4.539   5.364   0.601
 7740SOL    HW223267   4.476   5.239   0.686
 7741SOL     OW23268   5.154   3.956   1.117
 7741SOL    HW123269   5.176   3.866   1.153
 7741SOL    HW223270   5.100   4.007   1.184
 7742SOL     OW23271   4.734   3.740   1.136
 7742SOL    HW123272   4.670   3.676   1.093
 7742SOL    HW223273   4.825   3.699   1.137
 7743SOL     OW23274   4.508   5.042   0.308
 7743SOL    HW123275   4.475   4.950   0.329
 7743SOL    HW223276   4.585   5.063   0.369
 7744SOL     OW23277   4.347   5.283   1.290
 7744SOL    HW123278   4.344   5.370   1.339
 7744SOL    HW223279   4.438   5.271   1.250
 7745SOL     OW23280   5.076   3.778   0.186
 7745SOL    HW123281   5.119   3.718   0.118
 7745SOL    HW223282   4.990   3.738   0.217
 7746SOL     OW23283   5.008   4.185   0.678
 7746SOL    HW123284   4.959   4.272   0.681
 7746SOL    HW223285   5.010   4.144   0.770
 7747SOL     OW23286   5.309   3.926   0.884
 7747SOL    HW123287   5.252   3.948   0.964
 7747SOL    HW223288   5.313   4.006   0.824
 7748SOL     OW23289   3.812   4.776   0.365
 7748SOL    HW123290   3.898   4.752   0.321
 7748SOL    HW223291   3.756   4.694   0.375
 7749SOL     OW23292   4.612   5.387   0.354
 7749SOL    HW123293   4.537   5.359   0.295
 7749SOL    HW223294   4.584   5.467   0.408
 7750SOL     OW23295   3.944   4.344   1.991
 7750SOL    HW123296   3.852   4.342   2.031
 7750SOL    HW223297   3.938   4.321   1.893
 7751SOL     OW23298   3.946   4.008   2.856
 7751SOL    HW123299   3.980   3.973   2.944
 7751SOL    HW223300   3.853   3.974   2.840
 7752SOL     OW23301   3.724   4.111   2.496
 7752SOL    HW123302   3.640   4.140   2.542
 7752SOL    HW223303   3.706   4.027   2.444
 7753SOL     OW23304   4.293   5.023   3.049
 7753SOL    HW123305   4.203   5.020   3.006
 7753SOL    HW223306   4.311   5.116   3.083
 7754SOL     OW23307   5.290   5.238   2.570
 7754SOL    HW123308   5.248   5.213   2.656
 7754SOL    HW223309   5.220   5.245   2.499
 7755SOL     OW23310   4.857   4.427   2.556
 7755SOL    HW123311   4.909   4.511   2.540
 7755SOL    HW223312   4.807   4.435   2.642
 7756SOL     OW23313   5.496   4.322   2.084
 7756SOL    HW123314   5.471   4.318   1.987
 7756SOL    HW223315   5.457   4.243   2.132
 7757SOL     OW23316   4.465   4.864   2.903
 7757SOL    HW123317   4.399   4.899   2.969
 7757SOL    HW223318   4.511   4.940   2.857
 7758SOL     OW23319   4.600   4.487   3.684
 7758SOL    HW123320   4.587   4.556   3.755
 7758SOL    HW223321   4.623   4.533   3.598
 7759SOL     OW23322   4.408   4.722   2.510
 7759SOL    HW123323   4.479   4.712   2.580
 7759SOL    HW223324   4.333   4.778   2.547
 7760SOL     OW23325   4.435   4.877   3.681
 7760SOL    HW123326   4.488   4.955   3.714
 7760SOL    HW223327   4.351   4.909   3.638
 7761SOL     OW23328   4.050   5.146   2.928
 7761SOL    HW123329   3.974   5.101   2.882
 7761SOL    HW223330   4.103   5.199   2.861
 7762SOL     OW23331   5.181   5.226   3.221
 7762SOL    HW123332   5.239   5.307   3.228
 7762SOL    HW223333   5.110   5.229   3.291
 7763SOL     OW23334   4.179   4.120   3.340
 7763SOL    HW123335   4.259   4.060   3.346
 7763SOL    HW223336   4.097   4.067   3.358
 7764SOL     OW23337   5.334   4.170   2.608
 7764SOL    HW123338   5.259   4.188   2.544
 7764SOL    HW223339   5.337   4.243   2.676
 7765SOL     OW23340   3.946   5.439   2.333
 7765SOL    HW123341   3.964   5.517   2.393
 7765SOL    HW223342   4.021   5.428   2.268
 7766SOL     OW23343   4.861   5.064   3.560
 7766SOL    HW123344   4.908   5.061   3.648
 7766SOL    HW223345   4.805   4.982   3.550
 7767SOL     OW23346   3.958   5.168   2.398
 7767SOL    HW123347   3.941   5.266   2.397
 7767SOL    HW223348   3.898   5.124   2.465
 7768SOL     OW23349   3.995   4.814   2.763
 7768SOL    HW123350   3.991   4.719   2.795
 7768SOL    HW223351   3.932   4.870   2.817
 7769SOL     OW23352   4.321   5.521   3.288
 7769SOL    HW123353   4.238   5.497   3.338
 7769SOL    HW223354   4.353   5.612   3.316
 7770SOL     OW23355   4.305   4.712   2.004
 7770SOL    HW123356   4.353   4.758   1.929
 7770SOL    HW223357   4.345   4.740   2.092
 7771SOL     OW23358   5.259   3.929   3.310
 7771SOL    HW123359   5.317   3.998   3.269
 7771SOL    HW223360   5.274   3.926   3.409
 7772SOL     OW23361   3.838   4.385   2.426
 7772SOL    HW123362   3.809   4.291   2.443
 7772SOL    HW223363   3.833   4.438   2.511
 7773SOL     OW23364   5.570   5.479   2.194
 7773SOL    HW123365   5.641   5.449   2.258
 7773SOL    HW223366   5.586   5.575   2.170
 7774SOL     OW23367   3.754   5.314   1.984
 7774SOL    HW123368   3.738   5.217   2.003
 7774SOL    HW223369   3.733   5.367   2.066
 7775SOL     OW23370   5.416   4.645   2.510
 7775SOL    HW123371   5.500   4.594   2.493
 7775SOL    HW223372   5.392   4.699   2.429
 7776SOL     OW23373   5.377   4.828   2.294
 7776SOL    HW123374   5.466   4.824   2.249
 7776SOL    HW223375   5.380   4.895   2.368
 7777SOL     OW23376   3.849   4.469   3.447
 7777SOL    HW123377   3.946   4.495   3.447
 7777SOL    HW223378   3.792   4.551   3.448
 7778SOL     OW23379   4.336   5.115   2.595
 7778SOL    HW123380   4.291   5.027   2.608
 7778SOL    HW223381   4.323   5.146   2.501
 7779SOL     OW23382   5.012   4.958   3.283
 7779SOL    HW123383   5.038   4.888   3.218
 7779SOL    HW223384   5.072   4.954   3.363
 7780SOL     OW23385   4.542   3.734   2.369
 7780SOL    HW123386   4.588   3.820   2.347
 7780SOL    HW223387   4.443   3.750   2.377
 7781SOL     OW23388   3.914   4.685   3.140
 7781SOL    HW123389   4.004   4.642   3.126
 7781SOL    HW223390   3.846   4.638   3.084
 7782SOL     OW23391   5.256   4.726   2.066
 7782SOL    HW123392   5.182   4.665   2.096
 7782SOL    HW223393   5.303   4.762   2.147
 7783SOL     OW23394   4.905   5.536   3.485
 7783SOL    HW123395   4.913   5.605   3.412
 7783SOL    HW223396   4.925   5.446   3.447
 7784SOL     OW23397   4.052   3.978   3.699
 7784SOL    HW123398   4.103   4.062   3.718
 7784SOL    HW223399   3.956   3.992   3.722
 7785SOL     OW23400   5.189   5.144   2.808
 7785SOL    HW123401   5.122   5.163   2.880
 7785SOL    HW223402   5.180   5.049   2.780
 7786SOL     OW23403   5.373   5.475   2.437
 7786SOL    HW123404   5.356   5.446   2.344
 7786SOL    HW223405   5.353   5.400   2.500
 7787SOL     OW23406   4.318   4.442   2.135
 7787SOL    HW123407   4.323   4.528   2.084
 7787SOL    HW223408   4.249   4.450   2.207
 7788SOL     OW23409   5.003   4.082   2.797
 7788SOL    HW123410   4.909   4.049   2.804
 7788SOL    HW223411   5.061   4.031   2.859
 7789SOL     OW23412   5.307   5.397   2.170
 7789SOL    HW123413   5.403   5.424   2.166
 7789SOL    HW223414   5.274   5.380   2.077
 7790SOL     OW23415   4.513   4.337   3.310
 7790SOL    HW123416   4.487   4.314   3.404
 7790SOL    HW223417   4.477   4.268   3.248
 7791SOL     OW23418   5.116   4.197   3.542
 7791SOL    HW123419   5.117   4.246   3.629
 7791SOL    HW223420   5.179   4.120   3.546
 7792SOL     OW23421   4.676   4.608   3.446
 7792SOL    HW123422   4.734   4.536   3.407
 7792SOL    HW223423   4.622   4.650   3.373
 7793SOL     OW23424   4.718   4.136   3.088
 7793SOL    HW123425   4.627   4.150   3.127
 7793SOL    HW223426   4.711   4.076   3.008
 7794SOL     OW23427   4.774   4.423   2.286
 7794SOL    HW123428   4.797   4.418   2.384
 7794SOL    HW223429   4.688   4.375   2.270
 7795SOL     OW23430   3.813   4.552   2.642
 7795SOL    HW123431   3.898   4.539   2.692
 7795SOL    HW223432   3.764   4.631   2.679
 7796SOL     OW23433   3.852   5.598   3.450
 7796SOL    HW123434   3.857   5.570   3.547
 7796SOL    HW223435   3.768   5.563   3.410
 7797SOL     OW23436   4.620   4.077   2.059
 7797SOL    HW123437   4.661   4.144   1.997
 7797SOL    HW223438   4.629   3.985   2.019
 7798SOL     OW23439   5.423   4.296   3.687
 7798SOL    HW123440   5.389   4.375   3.637
 7798SOL    HW223441   5.456   4.227   3.623
 7799SOL     OW23442   5.104   4.867   2.395
 7799SOL    HW123443   5.189   4.852   2.344
 7799SOL    HW223444   5.048   4.934   2.347
 7800SOL     OW23445   4.271   3.896   2.764
 7800SOL    HW123446   4.276   3.925   2.859
 7800SOL    HW223447   4.274   3.977   2.705
 7801SOL     OW23448   4.718   5.167   2.325
 7801SOL    HW123449   4.687   5.248   2.276
 7801SOL    HW223450   4.702   5.179   2.423
 7802SOL     OW23451   4.080   5.538   2.734
 7802SOL    HW123452   4.124   5.449   2.740
 7802SOL    HW223453   4.147   5.610   2.752
 7803SOL     OW23454   5.522   4.781   2.734
 7803SOL    HW123455   5.472   4.756   2.652
 7803SOL    HW223456   5.459   4.786   2.812
 7804SOL     OW23457   4.950   5.260   3.376
 7804SOL    HW123458   4.938   5.186   3.443
 7804SOL    HW223459   4.882   5.251   3.303
 7805SOL     OW23460   4.045   4.684   2.117
 7805SOL    HW123461   4.133   4.704   2.074
 7805SOL    HW223462   4.009   4.598   2.080
 7806SOL     OW23463   5.207   4.475   2.584
 7806SOL    HW123464   5.202   4.430   2.673
 7806SOL    HW223465   5.288   4.534   2.581
 7807SOL     OW23466   4.193   4.990   3.593
 7807SOL    HW123467   4.167   4.996   3.496
 7807SOL    HW223468   4.111   4.987   3.649
 7808SOL     OW23469   4.846   5.500   2.088
 7808SOL    HW123470   4.766   5.463   2.136
 7808SOL    HW223471   4.876   5.435   2.017
 7809SOL     OW23472   3.929   4.011   3.359
 7809SOL    HW123473   3.848   4.069   3.354
 7809SOL    HW223474   3.902   3.920   3.391
 7810SOL     OW23475   5.348   5.106   1.951
 7810SOL    HW123476   5.310   5.197   1.935
 7810SOL    HW223477   5.279   5.037   1.932
 7811SOL     OW23478   4.188   5.459   2.180
 7811SOL    HW123479   4.230   5.521   2.246
 7811SOL    HW223480   4.259   5.422   2.120
 7812SOL     OW23481   5.125   3.828   2.300
 7812SOL    HW123482   5.114   3.802   2.204
 7812SOL    HW223483   5.222   3.837   2.321
 7813SOL     OW23484   3.982   5.515   3.087
 7813SOL    HW123485   4.033   5.442   3.133
 7813SOL    HW223486   3.964   5.489   2.993
 7814SOL     OW23487   4.660   5.426   2.758
 7814SOL    HW123488   4.743   5.380   2.789
 7814SOL    HW223489   4.618   5.374   2.684
 7815SOL     OW23490   4.119   4.412   2.336
 7815SOL    HW123491   4.139   4.315   2.350
 7815SOL    HW223492   4.022   4.429   2.353
 7816SOL     OW23493   5.257   3.955   3.593
 7816SOL    HW123494   5.265   3.973   3.691
 7816SOL    HW223495   5.184   3.889   3.577
 7817SOL     OW23496   4.366   3.841   1.964
 7817SOL    HW123497   4.433   3.770   1.987
 7817SOL    HW223498   4.310   3.809   1.887
 7818SOL     OW23499   4.482   4.013   3.618
 7818SOL    HW123500   4.568   3.961   3.619
 7818SOL    HW223501   4.427   3.987   3.698
 7819SOL     OW23502   4.598   5.238   3.055
 7819SOL    HW123503   4.579   5.202   2.964
 7819SOL    HW223504   4.671   5.185   3.097
 7820SOL     OW23505   5.063   4.314   3.298
 7820SOL    HW123506   5.093   4.278   3.386
 7820SOL    HW223507   5.099   4.406   3.285
 7821SOL     OW23508   4.544   5.112   2.804
 7821SOL    HW123509   4.634   5.101   2.762
 7821SOL    HW223510   4.475   5.119   2.732
 7822SOL     OW23511   4.650   4.232   2.759
 7822SOL    HW123512   4.625   4.223   2.663
 7822SOL    HW223513   4.682   4.144   2.794
 7823SOL     OW23514   4.271   3.788   2.355
 7823SOL    HW123515   4.190   3.786   2.413
 7823SOL    HW223516   4.267   3.869   2.296
 7824SOL     OW23517   5.149   4.923   1.905
 7824SOL    HW123518   5.183   4.846   1.958
 7824SOL    HW223519   5.061   4.952   1.941
 7825SOL     OW23520   4.014   3.772   2.048
 7825SOL    HW123521   4.067   3.844   2.002
 7825SOL    HW223522   4.077   3.708   2.091
 7826SOL     OW23523   4.671   3.975   2.318
 7826SOL    HW123524   4.640   4.017   2.232
 7826SOL    HW223525   4.769   3.989   2.327
 7827SOL     OW23526   4.803   4.407   3.317
 7827SOL    HW123527   4.728   4.340   3.319
 7827SOL    HW223528   4.890   4.359   3.311
 7828SOL     OW23529   4.943   5.294   2.656
 7828SOL    HW123530   4.957   5.364   2.586
 7828SOL    HW223531   5.015   5.301   2.725
 7829SOL     OW23532   4.193   4.876   2.589
 7829SOL    HW123533   4.127   4.855   2.661
 7829SOL    HW223534   4.150   4.864   2.500
 7830SOL     OW23535   4.986   5.515   2.473
 7830SOL    HW123536   5.038   5.577   2.414
 7830SOL    HW223537   4.913   5.566   2.518
 7831SOL     OW23538   4.745   4.259   1.892
 7831SOL    HW123539   4.700   4.345   1.868
 7831SOL    HW223540   4.814   4.276   1.962
 7832SOL     OW23541   3.811   4.280   3.254
 7832SOL    HW123542   3.905   4.275   3.221
 7832SOL    HW223543   3.803   4.352   3.323
 7833SOL     OW23544   4.284   3.947   3.035
 7833SOL    HW123545   4.336   3.876   3.082
 7833SOL    HW223546   4.189   3.944   3.064
 7834SOL     OW23547   4.590   4.182   2.498
 7834SOL    HW123548   4.542   4.244   2.435
 7834SOL    HW223549   4.618   4.100   2.449
 7835SOL     OW23550   4.742   3.776   2.606
 7835SOL    HW123551   4.681   3.777   2.528
 7835SOL    HW223552   4.717   3.702   2.668
 7836SOL     OW23553   5.169   4.885   2.720
 7836SOL    HW123554   5.094   4.819   2.725
 7836SOL    HW223555   5.199   4.895   2.625
 7837SOL     OW23556   5.192   4.332   2.830
 7837SOL    HW123557   5.129   4.254   2.831
 7837SOL    HW223558   5.252   4.326   2.910
 7838SOL     OW23559   5.565   4.532   2.242
 7838SOL    HW123560   5.623   4.485   2.308
 7838SOL    HW223561   5.536   4.468   2.171
 7839SOL     OW23562   4.211   5.145   2.017
 7839SOL    HW123563   4.130   5.118   2.069
 7839SOL    HW223564   4.210   5.098   1.929
 7840SOL     OW23565   5.400   4.991   2.505
 7840SOL    HW123566   5.499   4.988   2.517
 7840SOL    HW223567   5.366   5.083   2.525
 7841SOL     OW23568   5.114   4.298   1.933
 7841SOL    HW123569   5.051   4.276   2.007
 7841SOL    HW223570   5.207   4.273   1.958
 7842SOL     OW23571   4.252   3.988   2.170
 7842SOL    HW123572   4.300   3.936   2.100
 7842SOL    HW223573   4.223   4.076   2.133
 7843SOL     OW23574   5.476   4.965   3.420
 7843SOL    HW123575   5.566   4.923   3.407
 7843SOL    HW223576   5.488   5.058   3.455
 7844SOL     OW23577   4.777   5.074   3.198
 7844SOL    HW123578   4.696   5.044   3.248
 7844SOL    HW223579   4.858   5.034   3.240
 7845SOL     OW23580   5.338   5.354   3.520
 7845SOL    HW123581   5.322   5.389   3.427
 7845SOL    HW223582   5.423   5.302   3.521
 7846SOL     OW23583   4.863   4.945   2.967
 7846SOL    HW123584   4.802   4.979   3.039
 7846SOL    HW223585   4.829   4.976   2.878
 7847SOL     OW23586   5.348   4.820   2.941
 7847SOL    HW123587   5.343   4.886   3.017
 7847SOL    HW223588   5.272   4.837   2.878
 7848SOL     OW23589   4.636   3.849   3.242
 7848SOL    HW123590   4.660   3.802   3.157
 7848SOL    HW223591   4.720   3.881   3.287
 7849SOL     OW23592   4.703   4.838   3.583
 7849SOL    HW123593   4.609   4.858   3.610
 7849SOL    HW223594   4.705   4.756   3.527
 7850SOL     OW23595   4.437   4.783   2.235
 7850SOL    HW123596   4.420   4.765   2.332
 7850SOL    HW223597   4.516   4.729   2.205
 7851SOL     OW23598   4.147   4.539   3.116
 7851SOL    HW123599   4.219   4.552   3.184
 7851SOL    HW223600   4.108   4.447   3.126
 7852SOL     OW23601   4.986   4.102   3.141
 7852SOL    HW123602   5.022   4.180   3.192
 7852SOL    HW223603   4.890   4.119   3.118
 7853SOL     OW23604   3.799   5.296   3.216
 7853SOL    HW123605   3.763   5.366   3.154
 7853SOL    HW223606   3.899   5.294   3.209
 7854SOL     OW23607   4.063   4.844   2.349
 7854SOL    HW123608   4.070   4.926   2.292
 7854SOL    HW223609   4.062   4.763   2.290
 7855SOL     OW23610   4.271   4.267   2.724
 7855SOL    HW123611   4.285   4.327   2.645
 7855SOL    HW223612   4.340   4.286   2.793
 7856SOL     OW23613   4.970   5.079   2.254
 7856SOL    HW123614   5.031   5.151   2.286
 7856SOL    HW223615   4.877   5.098   2.285
 7857SOL     OW23616   5.013   5.186   3.009
 7857SOL    HW123617   5.071   5.192   3.090
 7857SOL    HW223618   4.959   5.102   3.013
 7858SOL     OW23619   5.300   4.345   2.345
 7858SOL    HW123620   5.249   4.391   2.417
 7858SOL    HW223621   5.348   4.413   2.289
 7859SOL     OW23622   4.072   5.254   3.171
 7859SOL    HW123623   4.056   5.209   3.083
 7859SOL    HW223624   4.170   5.268   3.184
 7860SOL     OW23625   4.140   4.470   3.462
 7860SOL    HW123626   4.207   4.515   3.403
 7860SOL    HW223627   4.172   4.378   3.484
 7861SOL     OW23628   5.333   4.510   3.547
 7861SOL    HW123629   5.242   4.551   3.544
 7861SOL    HW223630   5.390   4.550   3.475
 7862SOL     OW23631   4.716   3.876   3.627
 7862SOL    HW123632   4.775   3.953   3.605
 7862SOL    HW223633   4.741   3.797   3.572
 7863SOL     OW23634   4.226   3.801   3.598
 7863SOL    HW123635   4.197   3.745   3.521
 7863SOL    HW223636   4.155   3.868   3.620
 7864SOL     OW23637   4.307   4.596   2.896
 7864SOL    HW123638   4.345   4.689   2.895
 7864SOL    HW223639   4.248   4.585   2.976
 7865SOL     OW23640   5.074   4.581   2.885
 7865SOL    HW123641   4.982   4.571   2.846
 7865SOL    HW223642   5.124   4.494   2.876
 7866SOL     OW23643   4.921   4.250   2.126
 7866SOL    HW123644   4.934   4.168   2.181
 7866SOL    HW223645   4.877   4.321   2.181
 7867SOL     OW23646   4.023   3.921   3.107
 7867SOL    HW123647   3.987   3.961   3.191
 7867SOL    HW223648   4.005   3.823   3.106
 7868SOL     OW23649   3.776   5.034   3.137
 7868SOL    HW123650   3.808   4.972   3.209
 7868SOL    HW223651   3.779   5.128   3.170
 7869SOL     OW23652   4.448   4.354   2.915
 7869SOL    HW123653   4.525   4.334   2.855
 7869SOL    HW223654   4.414   4.446   2.896
 7870SOL     OW23655   5.461   4.685   3.719
 7870SOL    HW123656   5.418   4.616   3.661
 7870SOL    HW223657   5.401   4.704   3.797
 7871SOL     OW23658   4.031   3.785   2.490
 7871SOL    HW123659   4.006   3.880   2.508
 7871SOL    HW223660   4.044   3.737   2.576
 7872SOL     OW23661   5.352   4.106   2.223
 7872SOL    HW123662   5.378   4.032   2.285
 7872SOL    HW223663   5.323   4.185   2.276
 7873SOL     OW23664   4.748   4.480   2.820
 7873SOL    HW123665   4.742   4.501   2.918
 7873SOL    HW223666   4.721   4.385   2.805
 7874SOL     OW23667   4.705   5.287   3.580
 7874SOL    HW123668   4.688   5.334   3.494
 7874SOL    HW223669   4.753   5.201   3.562
 7875SOL     OW23670   5.578   5.227   3.465
 7875SOL    HW123671   5.597   5.253   3.371
 7875SOL    HW223672   5.661   5.238   3.520
 7876SOL     OW23673   4.077   4.642   3.667
 7876SOL    HW123674   4.157   4.664   3.723
 7876SOL    HW223675   4.103   4.577   3.595
 7877SOL     OW23676   5.251   3.992   1.992
 7877SOL    HW123677   5.182   3.924   2.017
 7877SOL    HW223678   5.288   4.035   2.075
 7878SOL     OW23679   5.012   4.549   1.887
 7878SOL    HW123680   5.052   4.458   1.896
 7878SOL    HW223681   5.043   4.592   1.803
 7879SOL     OW23682   4.794   5.062   2.717
 7879SOL    HW123683   4.799   4.984   2.655
 7879SOL    HW223684   4.853   5.135   2.683
 7880SOL     OW23685   4.035   4.530   2.805
 7880SOL    HW123686   4.132   4.556   2.800
 7880SOL    HW223687   4.027   4.436   2.836
 7881SOL     OW23688   4.049   4.253   2.873
 7881SOL    HW123689   4.011   4.161   2.863
 7881SOL    HW223690   4.131   4.261   2.815
 7882SOL     OW23691   4.859   4.102   3.561
 7882SOL    HW123692   4.808   4.161   3.623
 7882SOL    HW223693   4.952   4.138   3.549
 7883SOL     OW23694   4.873   3.936   3.343
 7883SOL    HW123695   4.867   4.002   3.418
 7883SOL    HW223696   4.929   3.973   3.270
 7884SOL     OW23697   3.724   5.038   2.057
 7884SOL    HW123698   3.635   5.058   2.017
 7884SOL    HW223699   3.725   4.945   2.092
 7885SOL     OW23700   3.818   5.506   2.806
 7885SOL    HW123701   3.781   5.426   2.760
 7885SOL    HW223702   3.911   5.524   2.774
 7886SOL     OW23703   4.217   5.300   2.767
 7886SOL    HW123704   4.287   5.366   2.794
 7886SOL    HW223705   4.257   5.233   2.705
 7887SOL     OW23706   4.696   4.518   3.086
 7887SOL    HW123707   4.757   4.494   3.162
 7887SOL    HW223708   4.608   4.472   3.098
 7888SOL     OW23709   3.762   4.279   2.979
 7888SOL    HW123710   3.843   4.265   2.923
 7888SOL    HW223711   3.787   4.279   3.076
 7889SOL     OW23712   3.914   4.247   3.593
 7889SOL    HW123713   3.965   4.190   3.528
 7889SOL    HW223714   3.879   4.328   3.546
 7890SOL     OW23715   5.105   4.659   3.516
 7890SOL    HW123716   5.128   4.756   3.517
 7890SOL    HW223717   5.101   4.626   3.422
 7891SOL     OW23718   4.541   4.296   2.223
 7891SOL    HW123719   4.551   4.217   2.164
 7891SOL    HW223720   4.463   4.351   2.194
 7892SOL     OW23721   5.366   4.328   3.042
 7892SOL    HW123722   5.347   4.267   3.118
 7892SOL    HW223723   5.458   4.310   3.006
 7893SOL     OW23724   3.963   5.270   3.587
 7893SOL    HW123725   3.942   5.345   3.651
 7893SOL    HW223726   3.970   5.184   3.638
 7894SOL     OW23727   4.433   4.172   3.114
 7894SOL    HW123728   4.375   4.093   3.090
 7894SOL    HW223729   4.429   4.239   3.040
 7895SOL     OW23730   4.642   5.405   3.335
 7895SOL    HW123731   4.617   5.358   3.250
 7895SOL    HW223732   4.643   5.504   3.319
 7896SOL     OW23733   4.182   4.219   2.046
 7896SOL    HW123734   4.247   4.291   2.071
 7896SOL    HW223735   4.091   4.259   2.033
 7897SOL     OW23736   3.865   4.862   3.337
 7897SOL    HW123737   3.867   4.818   3.427
 7897SOL    HW223738   3.885   4.794   3.267
 7898SOL     OW23739   5.039   4.767   3.080
 7898SOL    HW123740   5.066   4.699   3.012
 7898SOL    HW223741   4.972   4.830   3.040
 7899SOL     OW23742   5.040   4.582   2.160
 7899SOL    HW123743   4.965   4.553   2.219
 7899SOL    HW223744   5.014   4.568   2.064
 7900SOL     OW23745   5.505   5.452   3.020
 7900SOL    HW123746   5.566   5.486   2.948
 7900SOL    HW223747   5.473   5.360   2.995
 7901SOL     OW23748   4.965   5.457   2.966
 7901SOL    HW123749   5.051   5.486   2.924
 7901SOL    HW223750   4.971   5.360   2.990
 7902SOL     OW23751   3.810   4.989   2.872
 7902SOL    HW123752   3.794   5.004   2.970
 7902SOL    HW223753   3.739   4.930   2.835
 7903SOL     OW23754   4.405   5.399   3.600
 7903SOL    HW123755   4.342   5.476   3.594
 7903SOL    HW223756   4.479   5.410   3.533
 7904SOL     OW23757   5.443   3.875   2.359
 7904SOL    HW123758   5.519   3.864   2.295
 7904SOL    HW223759   5.426   3.788   2.405
 7905SOL     OW23760   5.120   5.295   2.350
 7905SOL    HW123761   5.182   5.327   2.279
 7905SOL    HW223762   5.064   5.371   2.383
 7906SOL     OW23763   3.870   5.511   3.708
 7906SOL    HW123764   3.813   5.443   3.753
 7906SOL    HW223765   3.919   5.564   3.777
 7907SOL     OW23766   5.006   4.653   2.528
 7907SOL    HW123767   5.081   4.589   2.544
 7907SOL    HW223768   5.040   4.730   2.473
 7908SOL     OW23769   4.526   5.003   3.287
 7908SOL    HW123770   4.497   5.047   3.372
 7908SOL    HW223771   4.456   5.017   3.217
 7909SOL     OW23772   4.392   5.346   2.016
 7909SOL    HW123773   4.409   5.365   1.919
 7909SOL    HW223774   4.334   5.266   2.025
 7910SOL     OW23775   5.340   5.453   3.249
 7910SOL    HW123776   5.398   5.453   3.168
 7910SOL    HW223777   5.326   5.547   3.280
 7911SOL     OW23778   5.570   3.892   2.818
 7911SOL    HW123779   5.603   3.800   2.795
 7911SOL    HW223780   5.477   3.903   2.784
 7912SOL     OW23781   3.979   4.037   2.577
 7912SOL    HW123782   3.890   4.075   2.550
 7912SOL    HW223783   3.983   4.030   2.677
 7913SOL     OW23784   4.933   5.324   1.895
 7913SOL    HW123785   4.923   5.230   1.928
 7913SOL    HW223786   4.865   5.341   1.823
 7914SOL     OW23787   4.547   4.733   3.242
 7914SOL    HW123788   4.598   4.716   3.158
 7914SOL    HW223789   4.544   4.832   3.259
 7915SOL     OW23790   4.644   4.634   2.148
 7915SOL    HW123791   4.705   4.670   2.078
 7915SOL    HW223792   4.691   4.563   2.201
 7916SOL     OW23793   5.212   5.355   1.904
 7916SOL    HW123794   5.113   5.343   1.893
 7916SOL    HW223795   5.256   5.360   1.815
 7917SOL     OW23796   4.089   5.027   3.349
 7917SOL    HW123797   4.080   5.108   3.290
 7917SOL    HW223798   4.009   4.968   3.338
 7918SOL     OW23799   5.337   5.009   3.147
 7918SOL    HW123800   5.400   4.988   3.222
 7918SOL    HW223801   5.271   5.078   3.176
 7919SOL     OW23802   4.787   4.831   2.578
 7919SOL    HW123803   4.710   4.781   2.617
 7919SOL    HW223804   4.856   4.766   2.545
 7920SOL     OW23805   4.747   3.962   2.831
 7920SOL    HW123806   4.744   3.918   2.741
 7920SOL    HW223807   4.744   3.891   2.902
 7921SOL     OW23808   4.329   5.210   2.341
 7921SOL    HW123809   4.381   5.156   2.275
 7921SOL    HW223810   4.254   5.257   2.294
 7922SOL     OW23811   5.458   4.115   3.240
 7922SOL    HW123812   5.529   4.185   3.240
 7922SOL    HW223813   5.484   4.041   3.179
 7923SOL     OW23814   3.977   5.072   2.150
 7923SOL    HW123815   3.881   5.065   2.123
 7923SOL    HW223816   3.982   5.111   2.242
 7924SOL     OW23817   3.839   4.760   3.591
 7924SOL    HW123818   3.757   4.732   3.642
 7924SOL    HW223819   3.919   4.714   3.629
 7925SOL     OW23820   4.404   3.931   3.358
 7925SOL    HW123821   4.491   3.912   3.313
 7925SOL    HW223822   4.421   3.958   3.453
 7926SOL     OW23823   3.806   4.052   1.891
 7926SOL    HW123824   3.714   4.027   1.858
 7926SOL    HW223825   3.838   4.133   1.843
 7927SOL     OW23826   5.147   4.581   3.257
 7927SOL    HW123827   5.091   4.644   3.203
 7927SOL    HW223828   5.241   4.582   3.222
 7928SOL     OW23829   3.786   3.879   2.163
 7928SOL    HW123830   3.770   3.963   2.111
 7928SOL    HW223831   3.875   3.840   2.137
 7929SOL     OW23832   4.904   5.061   1.983
 7929SOL    HW123833   4.809   5.030   1.976
 7929SOL    HW223834   4.932   5.062   2.079
 7930SOL     OW23835   4.347   4.554   3.296
 7930SOL    HW123836   4.405   4.634   3.282
 7930SOL    HW223837   4.405   4.473   3.305
 7931SOL     OW23838   5.209   5.514   2.851
 7931SOL    HW123839   5.231   5.578   2.776
 7931SOL    HW223840   5.294   5.478   2.889
 7932SOL     OW23841   4.443   4.286   3.564
 7932SOL    HW123842   4.491   4.350   3.624
 7932SOL    HW223843   4.462   4.192   3.593
 7933SOL     OW23844   5.198   4.920   3.496
 7933SOL    HW123845   5.183   4.933   3.594
 7933SOL    HW223846   5.294   4.938   3.474
 7934SOL     OW23847   4.094   5.462   3.429
 7934SOL    HW123848   4.010   5.515   3.414
 7934SOL    HW223849   4.071   5.374   3.471
 7935SOL     OW23850   5.389   4.602   3.118
 7935SOL    HW123851   5.384   4.510   3.077
 7935SOL    HW223852   5.376   4.671   3.047
 7936SOL     OW23853   4.944   4.041   2.322
 7936SOL    HW123854   5.007   3.964   2.312
 7936SOL    HW223855   4.970   4.096   2.401
 7937SOL     OW23856   4.310   4.460   2.531
 7937SOL    HW123857   4.352   4.550   2.520
 7937SOL    HW223858   4.241   4.447   2.460
 7938SOL     OW23859   5.482   4.087   3.513
 7938SOL    HW123860   5.472   4.102   3.415
 7938SOL    HW223861   5.407   4.030   3.546
 7939SOL     OW23862   5.477   4.656   3.371
 7939SOL    HW123863   5.465   4.753   3.393
 7939SOL    HW223864   5.455   4.640   3.275
 7940SOL     OW23865   4.590   5.087   1.907
 7940SOL    HW123866   4.550   5.111   1.995
 7940SOL    HW223867   4.605   5.171   1.854
 7941SOL     OW23868   4.389   5.508   2.804
 7941SOL    HW123869   4.366   5.602   2.783
 7941SOL    HW223870   4.488   5.494   2.792
 7942SOL     OW23871   4.593   4.695   2.718
 7942SOL    HW123872   4.644   4.617   2.754
 7942SOL    HW223873   4.550   4.744   2.794
 7943SOL     OW23874   4.802   4.714   1.945
 7943SOL    HW123875   4.774   4.767   1.866
 7943SOL    HW223876   4.879   4.655   1.921
 7944SOL     OW23877   5.569   5.280   2.709
 7944SOL    HW123878   5.492   5.268   2.646
 7944SOL    HW223879   5.565   5.211   2.781
 7945SOL     OW23880   3.955   5.022   3.718
 7945SOL    HW123881   3.891   4.954   3.683
 7945SOL    HW223882   3.940   5.035   3.816
 7946SOL     OW23883   3.812   4.953   2.525
 7946SOL    HW123884   3.818   4.908   2.614
 7946SOL    HW223885   3.880   4.913   2.463
 7947SOL     OW23886   4.407   5.134   3.496
 7947SOL    HW123887   4.326   5.084   3.528
 7947SOL    HW223888   4.406   5.227   3.533
 7948SOL     OW23889   5.530   3.908   3.087
 7948SOL    HW123890   5.508   3.813   3.109
 7948SOL    HW223891   5.547   3.917   2.989
 7949SOL     OW23892   4.153   4.152   2.388
 7949SOL    HW123893   4.188   4.082   2.326
 7949SOL    HW223894   4.100   4.109   2.460
 7950SOL     OW23895   5.416   5.206   2.956
 7950SOL    HW123896   5.336   5.188   2.899
 7950SOL    HW223897   5.424   5.135   3.026
 7951SOL     OW23898   4.059   4.280   3.151
 7951SOL    HW123899   4.118   4.224   3.211
 7951SOL    HW223900   4.075   4.254   3.056
 7952SOL     OW23901   4.553   5.304   2.540
 7952SOL    HW123902   4.538   5.366   2.463
 7952SOL    HW223903   4.476   5.240   2.547
 7953SOL     OW23904   5.156   3.955   2.983
 7953SOL    HW123905   5.190   3.872   3.028
 7953SOL    HW223906   5.100   4.007   3.048
 7954SOL     OW23907   4.735   3.738   3.002
 7954SOL    HW123908   4.669   3.671   2.968
 7954SOL    HW223909   4.827   3.698   3.001
 7955SOL     OW23910   4.499   5.055   2.184
 7955SOL    HW123911   4.472   4.960   2.192
 7955SOL    HW223912   4.584   5.071   2.234
 7956SOL     OW23913   4.347   5.283   3.152
 7956SOL    HW123914   4.344   5.370   3.201
 7956SOL    HW223915   4.438   5.271   3.112
 7957SOL     OW23916   5.079   3.774   2.033
 7957SOL    HW123917   5.122   3.705   1.974
 7957SOL    HW223918   4.986   3.745   2.054
 7958SOL     OW23919   5.015   4.188   2.543
 7958SOL    HW123920   4.962   4.273   2.545
 7958SOL    HW223921   5.013   4.145   2.633
 7959SOL     OW23922   5.311   3.927   2.749
 7959SOL    HW123923   5.252   3.945   2.828
 7959SOL    HW223924   5.311   4.007   2.689
 7960SOL     OW23925   3.767   4.787   2.170
 7960SOL    HW123926   3.865   4.787   2.151
 7960SOL    HW223927   3.737   4.694   2.191
 7961SOL     OW23928   4.609   5.388   2.202
 7961SOL    HW123929   4.533   5.366   2.139
 7961SOL    HW223930   4.583   5.465   2.260
 7962SOL     OW23931   3.945   4.342   3.853
 7962SOL    HW123932   3.854   4.342   3.893
 7962SOL    HW223933   3.939   4.321   3.755
 7963SOL     OW23934   3.946   4.007   4.719
 7963SOL    HW123935   3.979   3.972   4.807
 7963SOL    HW223936   3.853   3.974   4.702
 7964SOL     OW23937   3.724   4.111   4.358
 7964SOL    HW123938   3.640   4.140   4.404
 7964SOL    HW223939   3.706   4.029   4.304
 7965SOL     OW23940   4.293   5.023   4.911
 7965SOL    HW123941   4.203   5.020   4.867
 7965SOL    HW223942   4.311   5.115   4.945
 7966SOL     OW23943   5.290   5.238   4.431
 7966SOL    HW123944   5.247   5.213   4.518
 7966SOL    HW223945   5.220   5.245   4.361
 7967SOL     OW23946   4.857   4.427   4.418
 7967SOL    HW123947   4.909   4.511   4.401
 7967SOL    HW223948   4.807   4.436   4.504
 7968SOL     OW23949   5.493   4.323   3.946
 7968SOL    HW123950   5.470   4.319   3.849
 7968SOL    HW223951   5.458   4.242   3.993
 7969SOL     OW23952   4.466   4.864   4.765
 7969SOL    HW123953   4.398   4.899   4.830
 7969SOL    HW223954   4.511   4.940   4.719
 7970SOL     OW23955   4.599   4.487   5.545
 7970SOL    HW123956   4.587   4.554   5.618
 7970SOL    HW223957   4.623   4.533   5.460
 7971SOL     OW23958   4.408   4.722   4.373
 7971SOL    HW123959   4.479   4.712   4.442
 7971SOL    HW223960   4.333   4.778   4.409
 7972SOL     OW23961   4.435   4.877   5.543
 7972SOL    HW123962   4.488   4.955   5.576
 7972SOL    HW223963   4.351   4.909   5.500
 7973SOL     OW23964   4.051   5.146   4.789
 7973SOL    HW123965   3.974   5.101   4.744
 7973SOL    HW223966   4.103   5.199   4.723
 7974SOL     OW23967   5.181   5.226   5.083
 7974SOL    HW123968   5.239   5.307   5.090
 7974SOL    HW223969   5.110   5.230   5.153
 7975SOL     OW23970   4.174   4.116   5.201
 7975SOL    HW123971   4.256   4.059   5.210
 7975SOL    HW223972   4.093   4.061   5.221
 7976SOL     OW23973   5.334   4.169   4.469
 7976SOL    HW123974   5.261   4.189   4.404
 7976SOL    HW223975   5.340   4.243   4.536
 7977SOL     OW23976   3.946   5.438   4.195
 7977SOL    HW123977   3.964   5.517   4.255
 7977SOL    HW223978   4.021   5.428   4.130
 7978SOL     OW23979   4.861   5.064   5.422
 7978SOL    HW123980   4.908   5.062   5.510
 7978SOL    HW223981   4.805   4.982   5.412
 7979SOL     OW23982   3.958   5.168   4.260
 7979SOL    HW123983   3.941   5.266   4.259
 7979SOL    HW223984   3.898   5.125   4.327
 7980SOL     OW23985   3.995   4.814   4.625
 7980SOL    HW123986   3.991   4.720   4.658
 7980SOL    HW223987   3.932   4.871   4.678
 7981SOL     OW23988   4.321   5.521   5.150
 7981SOL    HW123989   4.238   5.497   5.200
 7981SOL    HW223990   4.353   5.611   5.178
 7982SOL     OW23991   4.305   4.712   3.866
 7982SOL    HW123992   4.353   4.758   3.791
 7982SOL    HW223993   4.346   4.740   3.954
 7983SOL     OW23994   5.321   3.849   5.193
 7983SOL    HW123995   5.343   3.929   5.137
 7983SOL    HW223996   5.305   3.878   5.287
 7984SOL     OW23997   3.838   4.385   4.288
 7984SOL    HW123998   3.809   4.291   4.305
 7984SOL    HW223999   3.833   4.438   4.373
 7985SOL     OW24000   5.570   5.479   4.056
 7985SOL    HW124001   5.641   5.449   4.120
 7985SOL    HW224002   5.586   5.575   4.032
 7986SOL     OW24003   3.754   5.314   3.847
 7986SOL    HW124004   3.738   5.217   3.866
 7986SOL    HW224005   3.733   5.368   3.928
 7987SOL     OW24006   5.415   4.645   4.372
 7987SOL    HW124007   5.499   4.594   4.354
 7987SOL    HW224008   5.392   4.699   4.291
 7988SOL     OW24009   5.377   4.828   4.156
 7988SOL    HW124010   5.466   4.824   4.111
 7988SOL    HW224011   5.380   4.895   4.230
 7989SOL     OW24012   3.848   4.469   5.309
 7989SOL    HW124013   3.945   4.496   5.309
 7989SOL    HW224014   3.791   4.550   5.310
 7990SOL     OW24015   4.336   5.115   4.457
 7990SOL    HW124016   4.291   5.027   4.470
 7990SOL    HW224017   4.323   5.146   4.363
 7991SOL     OW24018   5.012   4.958   5.145
 7991SOL    HW124019   5.039   4.888   5.080
 7991SOL    HW224020   5.072   4.954   5.225
 7992SOL     OW24021   4.540   3.731   4.228
 7992SOL    HW124022   4.587   3.816   4.207
 7992SOL    HW224023   4.442   3.749   4.238
 7993SOL     OW24024   3.914   4.685   5.002
 7993SOL    HW124025   4.004   4.642   4.988
 7993SOL    HW224026   3.846   4.638   4.947
 7994SOL     OW24027   5.256   4.726   3.928
 7994SOL    HW124028   5.183   4.665   3.958
 7994SOL    HW224029   5.303   4.763   4.009
 7995SOL     OW24030   4.905   5.536   5.347
 7995SOL    HW124031   4.913   5.605   5.274
 7995SOL    HW224032   4.926   5.446   5.309
 7996SOL     OW24033   4.067   3.973   5.559
 7996SOL    HW124034   4.115   4.058   5.576
 7996SOL    HW224035   3.969   3.986   5.577
 7997SOL     OW24036   5.189   5.144   4.670
 7997SOL    HW124037   5.123   5.164   4.742
 7997SOL    HW224038   5.180   5.049   4.642
 7998SOL     OW24039   5.373   5.475   4.299
 7998SOL    HW124040   5.356   5.446   4.206
 7998SOL    HW224041   5.353   5.400   4.362
 7999SOL     OW24042   4.319   4.442   3.998
 7999SOL    HW124043   4.323   4.528   3.946
 7999SOL    HW224044   4.249   4.450   4.069
 8000SOL     OW24045   5.001   4.085   4.658
 8000SOL    HW124046   4.908   4.051   4.665
 8000SOL    HW224047   5.061   4.032   4.719
 8001SOL     OW24048   5.307   5.397   4.032
 8001SOL    HW124049   5.403   5.424   4.028
 8001SOL    HW224050   5.274   5.380   3.939
 8002SOL     OW24051   4.514   4.336   5.173
 8002SOL    HW124052   4.489   4.312   5.267
 8002SOL    HW224053   4.477   4.268   5.110
 8003SOL     OW24054   5.115   4.194   5.404
 8003SOL    HW124055   5.115   4.243   5.490
 8003SOL    HW224056   5.175   4.114   5.410
 8004SOL     OW24057   4.676   4.609   5.308
 8004SOL    HW124058   4.734   4.537   5.269
 8004SOL    HW224059   4.622   4.651   5.235
 8005SOL     OW24060   4.718   4.129   4.952
 8005SOL    HW124061   4.628   4.150   4.988
 8005SOL    HW224062   4.709   4.080   4.865
 8006SOL     OW24063   4.774   4.422   4.148
 8006SOL    HW124064   4.796   4.418   4.246
 8006SOL    HW224065   4.688   4.375   4.132
 8007SOL     OW24066   3.813   4.552   4.504
 8007SOL    HW124067   3.898   4.540   4.554
 8007SOL    HW224068   3.763   4.631   4.541
 8008SOL     OW24069   3.852   5.598   5.313
 8008SOL    HW124070   3.857   5.570   5.409
 8008SOL    HW224071   3.767   5.563   5.272
 8009SOL     OW24072   4.623   4.073   3.917
 8009SOL    HW124073   4.658   4.146   3.858
 8009SOL    HW224074   4.649   3.984   3.880
 8010SOL     OW24075   5.424   4.296   5.550
 8010SOL    HW124076   5.389   4.375   5.500
 8010SOL    HW224077   5.454   4.226   5.485
 8011SOL     OW24078   5.104   4.867   4.257
 8011SOL    HW124079   5.189   4.852   4.206
 8011SOL    HW224080   5.048   4.934   4.209
 8012SOL     OW24081   4.271   3.896   4.626
 8012SOL    HW124082   4.275   3.926   4.721
 8012SOL    HW224083   4.273   3.976   4.565
 8013SOL     OW24084   4.718   5.167   4.187
 8013SOL    HW124085   4.687   5.248   4.137
 8013SOL    HW224086   4.701   5.180   4.285
 8014SOL     OW24087   4.080   5.538   4.596
 8014SOL    HW124088   4.124   5.449   4.602
 8014SOL    HW224089   4.146   5.610   4.614
 8015SOL     OW24090   5.522   4.780   4.597
 8015SOL    HW124091   5.471   4.757   4.514
 8015SOL    HW224092   5.459   4.786   4.674
 8016SOL     OW24093   4.950   5.260   5.238
 8016SOL    HW124094   4.938   5.186   5.304
 8016SOL    HW224095   4.882   5.252   5.166
 8017SOL     OW24096   4.045   4.683   3.979
 8017SOL    HW124097   4.133   4.704   3.936
 8017SOL    HW224098   4.009   4.598   3.941
 8018SOL     OW24099   5.207   4.475   4.446
 8018SOL    HW124100   5.202   4.431   4.536
 8018SOL    HW224101   5.288   4.534   4.443
 8019SOL     OW24102   4.193   4.990   5.455
 8019SOL    HW124103   4.167   4.996   5.358
 8019SOL    HW224104   4.111   4.987   5.511
 8020SOL     OW24105   4.846   5.500   3.950
 8020SOL    HW124106   4.766   5.463   3.998
 8020SOL    HW224107   4.876   5.435   3.879
 8021SOL     OW24108   3.926   3.997   5.227
 8021SOL    HW124109   3.845   4.055   5.225
 8021SOL    HW224110   3.904   3.910   5.270
 8022SOL     OW24111   5.348   5.106   3.813
 8022SOL    HW124112   5.310   5.197   3.797
 8022SOL    HW224113   5.279   5.037   3.794
 8023SOL     OW24114   4.188   5.458   4.042
 8023SOL    HW124115   4.230   5.521   4.108
 8023SOL    HW224116   4.259   5.422   3.982
 8024SOL     OW24117   5.126   3.828   4.164
 8024SOL    HW124118   5.114   3.804   4.068
 8024SOL    HW224119   5.223   3.840   4.184
 8025SOL     OW24120   3.982   5.515   4.949
 8025SOL    HW124121   4.033   5.442   4.995
 8025SOL    HW224122   3.964   5.489   4.855
 8026SOL     OW24123   4.660   5.426   4.620
 8026SOL    HW124124   4.743   5.380   4.651
 8026SOL    HW224125   4.618   5.374   4.546
 8027SOL     OW24126   4.120   4.412   4.199
 8027SOL    HW124127   4.139   4.315   4.212
 8027SOL    HW224128   4.023   4.429   4.215
 8028SOL     OW24129   5.251   3.946   5.452
 8028SOL    HW124130   5.262   3.968   5.549
 8028SOL    HW224131   5.178   3.879   5.441
 8029SOL     OW24132   4.353   3.826   3.834
 8029SOL    HW124133   4.444   3.786   3.829
 8029SOL    HW224134   4.305   3.811   3.748
 8030SOL     OW24135   4.487   4.000   5.481
 8030SOL    HW124136   4.572   3.948   5.475
 8030SOL    HW224137   4.436   3.970   5.562
 8031SOL     OW24138   4.598   5.238   4.917
 8031SOL    HW124139   4.579   5.202   4.825
 8031SOL    HW224140   4.671   5.184   4.959
 8032SOL     OW24141   5.063   4.313   5.160
 8032SOL    HW124142   5.093   4.278   5.248
 8032SOL    HW224143   5.099   4.405   5.146
 8033SOL     OW24144   4.544   5.112   4.666
 8033SOL    HW124145   4.634   5.101   4.624
 8033SOL    HW224146   4.475   5.119   4.594
 8034SOL     OW24147   4.651   4.231   4.621
 8034SOL    HW124148   4.625   4.224   4.525
 8034SOL    HW224149   4.683   4.143   4.654
 8035SOL     OW24150   4.271   3.792   4.223
 8035SOL    HW124151   4.189   3.791   4.280
 8035SOL    HW224152   4.269   3.872   4.163
 8036SOL     OW24153   5.149   4.923   3.767
 8036SOL    HW124154   5.183   4.846   3.820
 8036SOL    HW224155   5.061   4.952   3.803
 8037SOL     OW24156   4.011   3.781   3.926
 8037SOL    HW124157   4.058   3.835   3.856
 8037SOL    HW224158   4.074   3.712   3.963
 8038SOL     OW24159   4.670   3.972   4.179
 8038SOL    HW124160   4.638   4.014   4.095
 8038SOL    HW224161   4.769   3.988   4.189
 8039SOL     OW24162   4.803   4.407   5.178
 8039SOL    HW124163   4.729   4.341   5.184
 8039SOL    HW224164   4.891   4.359   5.175
 8040SOL     OW24165   4.943   5.294   4.518
 8040SOL    HW124166   4.957   5.364   4.448
 8040SOL    HW224167   5.015   5.302   4.588
 8041SOL     OW24168   4.193   4.876   4.451
 8041SOL    HW124169   4.127   4.855   4.523
 8041SOL    HW224170   4.150   4.864   4.361
 8042SOL     OW24171   4.986   5.515   4.335
 8042SOL    HW124172   5.038   5.577   4.276
 8042SOL    HW224173   4.913   5.566   4.380
 8043SOL     OW24174   4.744   4.262   3.756
 8043SOL    HW124175   4.699   4.348   3.731
 8043SOL    HW224176   4.814   4.280   3.826
 8044SOL     OW24177   3.811   4.281   5.115
 8044SOL    HW124178   3.906   4.277   5.083
 8044SOL    HW224179   3.803   4.352   5.185
 8045SOL     OW24180   4.282   3.948   4.897
 8045SOL    HW124181   4.332   3.873   4.942
 8045SOL    HW224182   4.186   3.946   4.926
 8046SOL     OW24183   4.590   4.182   4.360
 8046SOL    HW124184   4.542   4.243   4.298
 8046SOL    HW224185   4.617   4.099   4.310
 8047SOL     OW24186   4.744   3.777   4.470
 8047SOL    HW124187   4.682   3.780   4.391
 8047SOL    HW224188   4.718   3.701   4.530
 8048SOL     OW24189   5.170   4.885   4.582
 8048SOL    HW124190   5.094   4.820   4.586
 8048SOL    HW224191   5.200   4.895   4.488
 8049SOL     OW24192   5.192   4.333   4.693
 8049SOL    HW124193   5.129   4.255   4.692
 8049SOL    HW224194   5.252   4.326   4.772
 8050SOL     OW24195   5.565   4.533   4.104
 8050SOL    HW124196   5.624   4.485   4.169
 8050SOL    HW224197   5.536   4.469   4.033
 8051SOL     OW24198   4.211   5.145   3.879
 8051SOL    HW124199   4.130   5.118   3.931
 8051SOL    HW224200   4.210   5.098   3.791
 8052SOL     OW24201   5.400   4.991   4.367
 8052SOL    HW124202   5.499   4.988   4.379
 8052SOL    HW224203   5.366   5.083   4.387
 8053SOL     OW24204   5.114   4.299   3.795
 8053SOL    HW124205   5.052   4.276   3.870
 8053SOL    HW224206   5.208   4.274   3.821
 8054SOL     OW24207   4.255   3.989   4.037
 8054SOL    HW124208   4.293   3.929   3.966
 8054SOL    HW224209   4.227   4.076   3.996
 8055SOL     OW24210   5.476   4.965   5.282
 8055SOL    HW124211   5.566   4.923   5.269
 8055SOL    HW224212   5.488   5.058   5.317
 8056SOL     OW24213   4.777   5.074   5.060
 8056SOL    HW124214   4.695   5.044   5.110
 8056SOL    HW224215   4.858   5.034   5.102
 8057SOL     OW24216   5.338   5.354   5.381
 8057SOL    HW124217   5.322   5.389   5.289
 8057SOL    HW224218   5.423   5.302   5.383
 8058SOL     OW24219   4.862   4.945   4.829
 8058SOL    HW124220   4.802   4.979   4.901
 8058SOL    HW224221   4.829   4.976   4.740
 8059SOL     OW24222   5.347   4.820   4.803
 8059SOL    HW124223   5.343   4.886   4.879
 8059SOL    HW224224   5.272   4.838   4.740
 8060SOL     OW24225   4.648   3.817   5.115
 8060SOL    HW124226   4.669   3.795   5.020
 8060SOL    HW224227   4.727   3.861   5.158
 8061SOL     OW24228   4.703   4.839   5.445
 8061SOL    HW124229   4.609   4.858   5.473
 8061SOL    HW224230   4.705   4.756   5.389
 8062SOL     OW24231   4.438   4.783   4.098
 8062SOL    HW124232   4.420   4.765   4.194
 8062SOL    HW224233   4.516   4.729   4.067
 8063SOL     OW24234   4.147   4.539   4.978
 8063SOL    HW124235   4.219   4.553   5.045
 8063SOL    HW224236   4.108   4.448   4.989
 8064SOL     OW24237   4.986   4.100   5.005
 8064SOL    HW124238   5.023   4.179   5.054
 8064SOL    HW224239   4.891   4.117   4.980
 8065SOL     OW24240   3.799   5.296   5.078
 8065SOL    HW124241   3.763   5.366   5.016
 8065SOL    HW224242   3.899   5.294   5.072
 8066SOL     OW24243   4.064   4.844   4.211
 8066SOL    HW124244   4.070   4.926   4.154
 8066SOL    HW224245   4.062   4.763   4.152
 8067SOL     OW24246   4.271   4.267   4.586
 8067SOL    HW124247   4.285   4.326   4.507
 8067SOL    HW224248   4.340   4.287   4.655
 8068SOL     OW24249   4.970   5.079   4.117
 8068SOL    HW124250   5.031   5.151   4.148
 8068SOL    HW224251   4.876   5.099   4.147
 8069SOL     OW24252   5.013   5.186   4.871
 8069SOL    HW124253   5.071   5.192   4.953
 8069SOL    HW224254   4.959   5.102   4.875
 8070SOL     OW24255   5.301   4.344   4.209
 8070SOL    HW124256   5.250   4.393   4.280
 8070SOL    HW224257   5.347   4.410   4.150
 8071SOL     OW24258   4.072   5.254   5.033
 8071SOL    HW124259   4.056   5.209   4.945
 8071SOL    HW224260   4.170   5.268   5.046
 8072SOL     OW24261   4.140   4.471   5.324
 8072SOL    HW124262   4.207   4.516   5.265
 8072SOL    HW224263   4.173   4.379   5.348
 8073SOL     OW24264   5.333   4.509   5.409
 8073SOL    HW124265   5.242   4.551   5.407
 8073SOL    HW224266   5.390   4.550   5.338
 8074SOL     OW24267   4.721   3.859   5.474
 8074SOL    HW124268   4.779   3.939   5.459
 8074SOL    HW224269   4.771   3.776   5.447
 8075SOL     OW24270   4.216   3.759   5.475
 8075SOL    HW124271   4.171   3.701   5.407
 8075SOL    HW224272   4.159   3.839   5.494
 8076SOL     OW24273   4.308   4.596   4.759
 8076SOL    HW124274   4.344   4.689   4.756
 8076SOL    HW224275   4.248   4.586   4.838
 8077SOL     OW24276   5.074   4.581   4.747
 8077SOL    HW124277   4.983   4.571   4.707
 8077SOL    HW224278   5.124   4.495   4.737
 8078SOL     OW24279   4.922   4.250   3.989
 8078SOL    HW124280   4.934   4.168   4.044
 8078SOL    HW224281   4.877   4.321   4.044
 8079SOL     OW24282   4.020   3.920   4.971
 8079SOL    HW124283   3.984   3.956   5.057
 8079SOL    HW224284   4.005   3.821   4.967
 8080SOL     OW24285   3.777   5.034   4.999
 8080SOL    HW124286   3.808   4.972   5.071
 8080SOL    HW224287   3.779   5.128   5.032
 8081SOL     OW24288   4.448   4.355   4.778
 8081SOL    HW124289   4.525   4.335   4.717
 8081SOL    HW224290   4.413   4.446   4.760
 8082SOL     OW24291   5.461   4.685   5.581
 8082SOL    HW124292   5.418   4.615   5.523
 8082SOL    HW224293   5.401   4.704   5.659
 8083SOL     OW24294   4.031   3.786   4.355
 8083SOL    HW124295   4.006   3.882   4.372
 8083SOL    HW224296   4.042   3.738   4.442
 8084SOL     OW24297   5.351   4.105   4.087
 8084SOL    HW124298   5.378   4.032   4.149
 8084SOL    HW224299   5.323   4.185   4.140
 8085SOL     OW24300   4.748   4.479   4.681
 8085SOL    HW124301   4.742   4.501   4.779
 8085SOL    HW224302   4.721   4.384   4.666
 8086SOL     OW24303   4.705   5.287   5.442
 8086SOL    HW124304   4.688   5.334   5.356
 8086SOL    HW224305   4.753   5.201   5.424
 8087SOL     OW24306   5.578   5.227   5.327
 8087SOL    HW124307   5.597   5.253   5.233
 8087SOL    HW224308   5.661   5.238   5.382
 8088SOL     OW24309   4.077   4.643   5.529
 8088SOL    HW124310   4.156   4.664   5.585
 8088SOL    HW224311   4.103   4.577   5.458
 8089SOL     OW24312   5.249   3.993   3.858
 8089SOL    HW124313   5.179   3.927   3.884
 8089SOL    HW224314   5.287   4.035   3.940
 8090SOL     OW24315   5.012   4.550   3.750
 8090SOL    HW124316   5.053   4.459   3.758
 8090SOL    HW224317   5.043   4.592   3.665
 8091SOL     OW24318   4.795   5.062   4.579
 8091SOL    HW124319   4.799   4.984   4.517
 8091SOL    HW224320   4.853   5.136   4.545
 8092SOL     OW24321   4.035   4.530   4.667
 8092SOL    HW124322   4.132   4.556   4.662
 8092SOL    HW224323   4.027   4.436   4.699
 8093SOL     OW24324   4.050   4.252   4.735
 8093SOL    HW124325   4.011   4.160   4.725
 8093SOL    HW224326   4.131   4.261   4.677
 8094SOL     OW24327   4.858   4.096   5.417
 8094SOL    HW124328   4.805   4.153   5.480
 8094SOL    HW224329   4.950   4.134   5.408
 8095SOL     OW24330   4.886   3.927   5.200
 8095SOL    HW124331   4.871   3.989   5.277
 8095SOL    HW224332   4.929   3.977   5.125
 8096SOL     OW24333   3.724   5.038   3.919
 8096SOL    HW124334   3.635   5.058   3.879
 8096SOL    HW224335   3.725   4.945   3.954
 8097SOL     OW24336   3.818   5.506   4.668
 8097SOL    HW124337   3.781   5.426   4.622
 8097SOL    HW224338   3.911   5.524   4.636
 8098SOL     OW24339   4.217   5.300   4.629
 8098SOL    HW124340   4.287   5.366   4.655
 8098SOL    HW224341   4.257   5.233   4.566
 8099SOL     OW24342   4.697   4.517   4.947
 8099SOL    HW124343   4.757   4.494   5.023
 8099SOL    HW224344   4.607   4.475   4.962
 8100SOL     OW24345   3.762   4.278   4.841
 8100SOL    HW124346   3.844   4.265   4.786
 8100SOL    HW224347   3.787   4.279   4.938
 8101SOL     OW24348   3.916   4.247   5.455
 8101SOL    HW124349   3.969   4.193   5.389
 8101SOL    HW224350   3.878   4.327   5.409
 8102SOL     OW24351   5.105   4.658   5.378
 8102SOL    HW124352   5.128   4.756   5.379
 8102SOL    HW224353   5.101   4.626   5.284
 8103SOL     OW24354   4.541   4.295   4.085
 8103SOL    HW124355   4.549   4.215   4.024
 8103SOL    HW224356   4.463   4.351   4.056
 8104SOL     OW24357   5.366   4.327   4.904
 8104SOL    HW124358   5.350   4.268   4.983
 8104SOL    HW224359   5.458   4.310   4.868
 8105SOL     OW24360   3.963   5.270   5.449
 8105SOL    HW124361   3.942   5.345   5.513
 8105SOL    HW224362   3.970   5.184   5.500
 8106SOL     OW24363   4.434   4.170   4.975
 8106SOL    HW124364   4.375   4.093   4.952
 8106SOL    HW224365   4.430   4.239   4.903
 8107SOL     OW24366   4.643   5.405   5.196
 8107SOL    HW124367   4.617   5.358   5.112
 8107SOL    HW224368   4.643   5.503   5.181
 8108SOL     OW24369   4.184   4.218   3.908
 8108SOL    HW124370   4.248   4.290   3.933
 8108SOL    HW224371   4.093   4.258   3.896
 8109SOL     OW24372   3.865   4.862   5.200
 8109SOL    HW124373   3.867   4.818   5.289
 8109SOL    HW224374   3.885   4.794   5.129
 8110SOL     OW24375   5.039   4.767   4.942
 8110SOL    HW124376   5.066   4.699   4.874
 8110SOL    HW224377   4.972   4.830   4.902
 8111SOL     OW24378   5.041   4.581   4.022
 8111SOL    HW124379   4.964   4.554   4.081
 8111SOL    HW224380   5.015   4.568   3.926
 8112SOL     OW24381   5.505   5.452   4.882
 8112SOL    HW124382   5.566   5.486   4.810
 8112SOL    HW224383   5.473   5.360   4.857
 8113SOL     OW24384   4.965   5.457   4.828
 8113SOL    HW124385   5.051   5.486   4.786
 8113SOL    HW224386   4.971   5.360   4.852
 8114SOL     OW24387   3.811   4.988   4.734
 8114SOL    HW124388   3.795   5.004   4.832
 8114SOL    HW224389   3.738   4.930   4.697
 8115SOL     OW24390   4.405   5.398   5.462
 8115SOL    HW124391   4.342   5.476   5.456
 8115SOL    HW224392   4.479   5.411   5.395
 8116SOL     OW24393   5.443   3.875   4.222
 8116SOL    HW124394   5.518   3.865   4.157
 8116SOL    HW224395   5.427   3.787   4.267
 8117SOL     OW24396   5.120   5.295   4.212
 8117SOL    HW124397   5.182   5.327   4.141
 8117SOL    HW224398   5.064   5.371   4.245
 8118SOL     OW24399   3.870   5.511   5.570
 8118SOL    HW124400   3.813   5.443   5.615
 8118SOL    HW224401   3.919   5.564   5.639
 8119SOL     OW24402   5.006   4.653   4.389
 8119SOL    HW124403   5.081   4.589   4.406
 8119SOL    HW224404   5.040   4.729   4.334
 8120SOL     OW24405   4.526   5.003   5.149
 8120SOL    HW124406   4.497   5.047   5.234
 8120SOL    HW224407   4.456   5.018   5.079
 8121SOL     OW24408   4.392   5.346   3.878
 8121SOL    HW124409   4.409   5.365   3.781
 8121SOL    HW224410   4.334   5.265   3.887
 8122SOL     OW24411   5.340   5.453   5.111
 8122SOL    HW124412   5.398   5.453   5.030
 8122SOL    HW224413   5.326   5.547   5.142
 8123SOL     OW24414   5.566   3.893   4.687
 8123SOL    HW124415   5.600   3.801   4.665
 8123SOL    HW224416   5.475   3.905   4.648
 8124SOL     OW24417   3.978   4.038   4.439
 8124SOL    HW124418   3.890   4.075   4.412
 8124SOL    HW224419   3.982   4.031   4.539
 8125SOL     OW24420   4.933   5.324   3.757
 8125SOL    HW124421   4.923   5.230   3.790
 8125SOL    HW224422   4.865   5.341   3.685
 8126SOL     OW24423   4.547   4.734   5.103
 8126SOL    HW124424   4.598   4.718   5.018
 8126SOL    HW224425   4.544   4.832   5.122
 8127SOL     OW24426   4.644   4.635   4.011
 8127SOL    HW124427   4.705   4.671   3.940
 8127SOL    HW224428   4.692   4.563   4.063
 8128SOL     OW24429   5.212   5.355   3.766
 8128SOL    HW124430   5.113   5.343   3.755
 8128SOL    HW224431   5.256   5.360   3.677
 8129SOL     OW24432   4.089   5.027   5.211
 8129SOL    HW124433   4.080   5.107   5.152
 8129SOL    HW224434   4.009   4.968   5.200
 8130SOL     OW24435   5.337   5.009   5.009
 8130SOL    HW124436   5.400   4.989   5.084
 8130SOL    HW224437   5.271   5.078   5.038
 8131SOL     OW24438   4.787   4.831   4.440
 8131SOL    HW124439   4.710   4.781   4.479
 8131SOL    HW224440   4.855   4.766   4.407
 8132SOL     OW24441   4.747   3.964   4.691
 8132SOL    HW124442   4.745   3.920   4.601
 8132SOL    HW224443   4.744   3.894   4.763
 8133SOL     OW24444   4.329   5.210   4.203
 8133SOL    HW124445   4.381   5.156   4.137
 8133SOL    HW224446   4.254   5.257   4.157
 8134SOL     OW24447   5.456   4.118   5.105
 8134SOL    HW124448   5.529   4.186   5.105
 8134SOL    HW224449   5.481   4.043   5.043
 8135SOL     OW24450   3.977   5.072   4.012
 8135SOL    HW124451   3.881   5.065   3.985
 8135SOL    HW224452   3.982   5.111   4.104
 8136SOL     OW24453   3.839   4.760   5.453
 8136SOL    HW124454   3.757   4.732   5.503
 8136SOL    HW224455   3.919   4.714   5.491
 8137SOL     OW24456   4.408   3.917   5.224
 8137SOL    HW124457   4.494   3.893   5.180
 8137SOL    HW224458   4.425   3.951   5.316
 8138SOL     OW24459   3.796   4.058   3.755
 8138SOL    HW124460   3.705   4.036   3.720
 8138SOL    HW224461   3.832   4.137   3.706
 8139SOL     OW24462   5.146   4.580   5.118
 8139SOL    HW124463   5.091   4.644   5.065
 8139SOL    HW224464   5.241   4.581   5.085
 8140SOL     OW24465   3.784   3.888   4.026
 8140SOL    HW124466   3.768   3.971   3.972
 8140SOL    HW224467   3.872   3.848   3.999
 8141SOL     OW24468   4.904   5.061   3.845
 8141SOL    HW124469   4.809   5.031   3.838
 8141SOL    HW224470   4.932   5.062   3.941
 8142SOL     OW24471   4.348   4.554   5.158
 8142SOL    HW124472   4.405   4.634   5.144
 8142SOL    HW224473   4.406   4.473   5.167
 8143SOL     OW24474   5.209   5.514   4.713
 8143SOL    HW124475   5.230   5.578   4.638
 8143SOL    HW224476   5.294   5.478   4.751
 8144SOL     OW24477   4.446   4.281   5.426
 8144SOL    HW124478   4.491   4.348   5.485
 8144SOL    HW224479   4.465   4.189   5.460
 8145SOL     OW24480   5.198   4.919   5.358
 8145SOL    HW124481   5.183   4.933   5.456
 8145SOL    HW224482   5.294   4.938   5.336
 8146SOL     OW24483   4.094   5.462   5.291
 8146SOL    HW124484   4.010   5.515   5.276
 8146SOL    HW224485   4.071   5.374   5.333
 8147SOL     OW24486   5.389   4.602   4.980
 8147SOL    HW124487   5.384   4.511   4.938
 8147SOL    HW224488   5.376   4.671   4.909
 8148SOL     OW24489   4.943   4.040   4.184
 8148SOL    HW124490   5.007   3.964   4.176
 8148SOL    HW224491   4.968   4.096   4.263
 8149SOL     OW24492   4.310   4.460   4.393
 8149SOL    HW124493   4.352   4.550   4.383
 8149SOL    HW224494   4.241   4.446   4.322
 8150SOL     OW24495   5.474   4.089   5.377
 8150SOL    HW124496   5.464   4.105   5.278
 8150SOL    HW224497   5.399   4.029   5.408
 8151SOL     OW24498   5.477   4.655   5.233
 8151SOL    HW124499   5.465   4.752   5.255
 8151SOL    HW224500   5.455   4.640   5.137
 8152SOL     OW24501   4.591   5.087   3.769
 8152SOL    HW124502   4.550   5.111   3.857
 8152SOL    HW224503   4.606   5.171   3.715
 8153SOL     OW24504   4.389   5.507   4.665
 8153SOL    HW124505   4.366   5.602   4.645
 8153SOL    HW224506   4.488   5.494   4.654
 8154SOL     OW24507   4.593   4.695   4.580
 8154SOL    HW124508   4.644   4.617   4.616
 8154SOL    HW224509   4.550   4.745   4.656
 8155SOL     OW24510   4.802   4.714   3.808
 8155SOL    HW124511   4.774   4.767   3.728
 8155SOL    HW224512   4.879   4.655   3.783
 8156SOL     OW24513   5.569   5.280   4.571
 8156SOL    HW124514   5.492   5.268   4.508
 8156SOL    HW224515   5.564   5.212   4.643
 8157SOL     OW24516   3.956   5.022   5.580
 8157SOL    HW124517   3.891   4.954   5.546
 8157SOL    HW224518   3.940   5.035   5.678
 8158SOL     OW24519   3.812   4.953   4.387
 8158SOL    HW124520   3.818   4.908   4.476
 8158SOL    HW224521   3.880   4.913   4.325
 8159SOL     OW24522   4.407   5.134   5.358
 8159SOL    HW124523   4.326   5.084   5.390
 8159SOL    HW224524   4.406   5.227   5.395
 8160SOL     OW24525   5.528   3.906   4.957
 8160SOL    HW124526   5.543   3.810   4.982
 8160SOL    HW224527   5.541   3.918   4.859
 8161SOL     OW24528   4.155   4.152   4.251
 8161SOL    HW124529   4.188   4.083   4.187
 8161SOL    HW224530   4.100   4.108   4.322
 8162SOL     OW24531   5.417   5.206   4.817
 8162SOL    HW124532   5.336   5.188   4.761
 8162SOL    HW224533   5.424   5.135   4.888
 8163SOL     OW24534   4.060   4.281   5.013
 8163SOL    HW124535   4.116   4.223   5.072
 8163SOL    HW224536   4.075   4.254   4.917
 8164SOL     OW24537   4.553   5.304   4.402
 8164SOL    HW124538   4.538   5.367   4.326
 8164SOL    HW224539   4.476   5.240   4.408
 8165SOL     OW24540   5.154   3.955   4.841
 8165SOL    HW124541   5.176   3.866   4.879
 8165SOL    HW224542   5.100   4.007   4.908
 8166SOL     OW24543   4.734   3.740   4.861
 8166SOL    HW124544   4.670   3.677   4.817
 8166SOL    HW224545   4.825   3.699   4.862
 8167SOL     OW24546   4.499   5.056   4.046
 8167SOL    HW124547   4.471   4.960   4.054
 8167SOL    HW224548   4.583   5.071   4.096
 8168SOL     OW24549   4.347   5.283   5.014
 8168SOL    HW124550   4.344   5.370   5.063
 8168SOL    HW224551   4.438   5.271   4.974
 8169SOL     OW24552   5.077   3.775   3.899
 8169SOL    HW124553   5.125   3.706   3.845
 8169SOL    HW224554   4.983   3.744   3.916
 8170SOL     OW24555   5.013   4.189   4.404
 8170SOL    HW124556   4.961   4.274   4.406
 8170SOL    HW224557   5.012   4.147   4.494
 8171SOL     OW24558   5.309   3.926   4.609
 8171SOL    HW124559   5.252   3.946   4.688
 8171SOL    HW224560   5.312   4.005   4.548
 8172SOL     OW24561   3.767   4.787   4.032
 8172SOL    HW124562   3.865   4.787   4.013
 8172SOL    HW224563   3.737   4.694   4.054
 8173SOL     OW24564   4.609   5.388   4.064
 8173SOL    HW124565   4.533   5.366   4.001
 8173SOL    HW224566   4.583   5.465   4.122
 8174SOL     OW24567   3.944   4.343   5.715
 8174SOL    HW124568   3.852   4.342   5.755
 8174SOL    HW224569   3.938   4.321   5.617
 8175SOL     OW24570   3.944   4.012   6.583
 8175SOL    HW124571   3.981   3.974   6.667
 8175SOL    HW224572   3.853   3.976   6.566
 8176SOL     OW24573   3.723   4.111   6.221
 8176SOL    HW124574   3.640   4.141   6.266
 8176SOL    HW224575   3.705   4.027   6.169
 8177SOL     OW24576   4.283   5.006   6.756
 8177SOL    HW124577   4.195   5.027   6.713
 8177SOL    HW224578   4.312   5.084   6.812
 8178SOL     OW24579   5.289   5.237   6.294
 8178SOL    HW124580   5.244   5.214   6.380
 8178SOL    HW224581   5.221   5.245   6.222
 8179SOL     OW24582   4.857   4.427   6.280
 8179SOL    HW124583   4.908   4.511   6.265
 8179SOL    HW224584   4.805   4.434   6.365
 8180SOL     OW24585   5.497   4.321   5.808
 8180SOL    HW124586   5.471   4.318   5.711
 8180SOL    HW224587   5.457   4.243   5.856
 8181SOL     OW24588   4.481   4.867   6.629
 8181SOL    HW124589   4.406   4.893   6.690
 8181SOL    HW224590   4.514   4.948   6.580
 8182SOL     OW24591   4.408   4.722   6.235
 8182SOL    HW124592   4.479   4.712   6.304
 8182SOL    HW224593   4.333   4.778   6.271
 8183SOL     OW24594   4.056   5.135   6.649
 8183SOL    HW124595   3.971   5.102   6.607
 8183SOL    HW224596   4.102   5.197   6.585
 8184SOL     OW24597   5.334   4.171   6.331
 8184SOL    HW124598   5.259   4.187   6.266
 8184SOL    HW224599   5.333   4.242   6.402
 8185SOL     OW24600   3.946   5.438   6.056
 8185SOL    HW124601   3.964   5.516   6.116
 8185SOL    HW224602   4.022   5.428   5.991
 8186SOL     OW24603   3.957   5.168   6.122
 8186SOL    HW124604   3.941   5.266   6.122
 8186SOL    HW224605   3.898   5.124   6.190
 8187SOL     OW24606   3.993   4.815   6.487
 8187SOL    HW124607   3.989   4.721   6.522
 8187SOL    HW224608   3.934   4.873   6.542
 8188SOL     OW24609   4.339   5.530   6.988
 8188SOL    HW124610   4.249   5.501   0.022
 8188SOL    HW224611   4.360   5.621   0.021
 8189SOL     OW24612   4.305   4.712   5.728
 8189SOL    HW124613   4.353   4.758   5.653
 8189SOL    HW224614   4.345   4.740   5.815
 8190SOL     OW24615   3.838   4.386   6.150
 8190SOL    HW124616   3.809   4.292   6.167
 8190SOL    HW224617   3.833   4.438   6.235
 8191SOL     OW24618   5.570   5.479   5.918
 8191SOL    HW124619   5.640   5.448   5.982
 8191SOL    HW224620   5.585   5.575   5.895
 8192SOL     OW24621   3.753   5.314   5.708
 8192SOL    HW124622   3.738   5.217   5.728
 8192SOL    HW224623   3.733   5.368   5.790
 8193SOL     OW24624   5.415   4.645   6.232
 8193SOL    HW124625   5.499   4.594   6.215
 8193SOL    HW224626   5.392   4.698   6.151
 8194SOL     OW24627   5.377   4.829   6.018
 8194SOL    HW124628   5.467   4.825   5.973
 8194SOL    HW224629   5.380   4.896   6.092
 8195SOL     OW24630   4.336   5.115   6.319
 8195SOL    HW124631   4.289   5.027   6.333
 8195SOL    HW224632   4.323   5.146   6.225
 8196SOL     OW24633   4.542   3.734   6.095
 8196SOL    HW124634   4.588   3.820   6.072
 8196SOL    HW224635   4.444   3.750   6.102
 8197SOL     OW24636   3.916   4.701   6.848
 8197SOL    HW124637   3.998   4.648   6.831
 8197SOL    HW224638   3.835   4.648   6.820
 8198SOL     OW24639   5.256   4.726   5.790
 8198SOL    HW124640   5.183   4.665   5.820
 8198SOL    HW224641   5.303   4.763   5.870
 8199SOL     OW24642   5.175   5.147   6.530
 8199SOL    HW124643   5.118   5.161   6.611
 8199SOL    HW224644   5.172   5.051   6.503
 8200SOL     OW24645   5.372   5.477   6.161
 8200SOL    HW124646   5.354   5.445   6.067
 8200SOL    HW224647   5.354   5.402   6.225
 8201SOL     OW24648   4.318   4.442   5.859
 8201SOL    HW124649   4.323   4.528   5.808
 8201SOL    HW224650   4.249   4.450   5.931
 8202SOL     OW24651   4.999   4.082   6.517
 8202SOL    HW124652   4.905   4.048   6.525
 8202SOL    HW224653   5.057   4.032   6.581
 8203SOL     OW24654   5.307   5.397   5.894
 8203SOL    HW124655   5.403   5.423   5.891
 8203SOL    HW224656   5.274   5.379   5.801
 8204SOL     OW24657   4.517   4.334   0.047
 8204SOL    HW124658   4.454   4.376   0.112
 8204SOL    HW224659   4.465   4.278   6.982
 8205SOL     OW24660   4.731   4.119   6.793
 8205SOL    HW124661   4.671   4.172   6.852
 8205SOL    HW224662   4.677   4.071   6.724
 8206SOL     OW24663   4.774   4.423   6.010
 8206SOL    HW124664   4.797   4.418   6.108
 8206SOL    HW224665   4.688   4.375   5.994
 8207SOL     OW24666   3.814   4.551   6.367
 8207SOL    HW124667   3.899   4.540   6.418
 8207SOL    HW224668   3.764   4.630   6.403
 8208SOL     OW24669   3.883   5.576   0.148
 8208SOL    HW124670   3.841   5.501   0.200
 8208SOL    HW224671   3.829   5.593   0.065
 8209SOL     OW24672   4.620   4.077   5.783
 8209SOL    HW124673   4.661   4.144   5.721
 8209SOL    HW224674   4.629   3.986   5.743
 8210SOL     OW24675   5.104   4.867   6.119
 8210SOL    HW124676   5.189   4.852   6.068
 8210SOL    HW224677   5.048   4.934   6.070
 8211SOL     OW24678   4.271   3.896   6.485
 8211SOL    HW124679   4.277   3.927   6.580
 8211SOL    HW224680   4.275   3.974   6.424
 8212SOL     OW24681   4.718   5.167   6.049
 8212SOL    HW124682   4.687   5.248   5.999
 8212SOL    HW224683   4.700   5.180   6.147
 8213SOL     OW24684   4.079   5.539   6.455
 8213SOL    HW124685   4.122   5.449   6.465
 8213SOL    HW224686   4.147   5.610   6.475
 8214SOL     OW24687   5.525   4.779   6.453
 8214SOL    HW124688   5.475   4.755   6.370
 8214SOL    HW224689   5.462   4.780   6.531
 8215SOL     OW24690   4.045   4.683   5.841
 8215SOL    HW124691   4.133   4.704   5.798
 8215SOL    HW224692   4.009   4.598   5.804
 8216SOL     OW24693   5.206   4.474   6.305
 8216SOL    HW124694   5.201   4.428   6.394
 8216SOL    HW224695   5.287   4.533   6.304
 8217SOL     OW24696   4.846   5.500   5.812
 8217SOL    HW124697   4.766   5.463   5.860
 8217SOL    HW224698   4.876   5.435   5.741
 8218SOL     OW24699   5.348   5.106   5.674
 8218SOL    HW124700   5.310   5.197   5.659
 8218SOL    HW224701   5.279   5.037   5.655
 8219SOL     OW24702   4.188   5.459   5.904
 8219SOL    HW124703   4.230   5.521   5.970
 8219SOL    HW224704   4.259   5.422   5.844
 8220SOL     OW24705   5.125   3.828   6.024
 8220SOL    HW124706   5.114   3.802   5.928
 8220SOL    HW224707   5.222   3.836   6.045
 8221SOL     OW24708   3.992   5.522   6.820
 8221SOL    HW124709   4.042   5.463   6.884
 8221SOL    HW224710   3.951   5.466   6.748
 8222SOL     OW24711   4.661   5.424   6.480
 8222SOL    HW124712   4.746   5.379   6.508
 8222SOL    HW224713   4.618   5.373   6.406
 8223SOL     OW24714   4.120   4.412   6.060
 8223SOL    HW124715   4.139   4.315   6.074
 8223SOL    HW224716   4.023   4.429   6.077
 8224SOL     OW24717   4.366   3.840   5.688
 8224SOL    HW124718   4.433   3.770   5.711
 8224SOL    HW224719   4.309   3.809   5.611
 8225SOL     OW24720   4.593   5.241   6.762
 8225SOL    HW124721   4.575   5.207   6.670
 8225SOL    HW224722   4.633   5.167   6.817
 8226SOL     OW24723   4.543   5.112   6.520
 8226SOL    HW124724   4.633   5.101   6.478
 8226SOL    HW224725   4.473   5.118   6.449
 8227SOL     OW24726   4.651   4.232   6.484
 8227SOL    HW124727   4.624   4.224   6.388
 8227SOL    HW224728   4.689   4.145   6.515
 8228SOL     OW24729   4.272   3.788   6.079
 8228SOL    HW124730   4.190   3.786   6.137
 8228SOL    HW224731   4.268   3.869   6.020
 8229SOL     OW24732   5.149   4.923   5.629
 8229SOL    HW124733   5.183   4.846   5.682
 8229SOL    HW224734   5.061   4.952   5.665
 8230SOL     OW24735   4.014   3.772   5.772
 8230SOL    HW124736   4.066   3.844   5.725
 8230SOL    HW224737   4.077   3.708   5.815
 8231SOL     OW24738   4.671   3.975   6.042
 8231SOL    HW124739   4.640   4.017   5.956
 8231SOL    HW224740   4.769   3.989   6.052
 8232SOL     OW24741   4.942   5.295   6.382
 8232SOL    HW124742   4.956   5.366   6.312
 8232SOL    HW224743   5.021   5.292   6.443
 8233SOL     OW24744   4.192   4.875   6.314
 8233SOL    HW124745   4.126   4.856   6.386
 8233SOL    HW224746   4.150   4.863   6.224
 8234SOL     OW24747   4.985   5.515   6.197
 8234SOL    HW124748   5.038   5.577   6.139
 8234SOL    HW224749   4.911   5.566   6.241
 8235SOL     OW24750   4.745   4.259   5.616
 8235SOL    HW124751   4.700   4.345   5.592
 8235SOL    HW224752   4.814   4.276   5.686
 8236SOL     OW24753   4.287   3.945   6.757
 8236SOL    HW124754   4.333   3.863   6.789
 8236SOL    HW224755   4.192   3.944   6.787
 8237SOL     OW24756   4.589   4.183   6.222
 8237SOL    HW124757   4.542   4.244   6.158
 8237SOL    HW224758   4.618   4.100   6.174
 8238SOL     OW24759   4.743   3.772   6.325
 8238SOL    HW124760   4.680   3.772   6.247
 8238SOL    HW224761   4.717   3.699   6.388
 8239SOL     OW24762   5.164   4.884   6.442
 8239SOL    HW124763   5.095   4.812   6.444
 8239SOL    HW224764   5.196   4.897   6.348
 8240SOL     OW24765   5.191   4.330   6.549
 8240SOL    HW124766   5.127   4.253   6.554
 8240SOL    HW224767   5.253   4.327   6.627
 8241SOL     OW24768   5.566   4.532   5.965
 8241SOL    HW124769   5.624   4.485   6.032
 8241SOL    HW224770   5.537   4.468   5.894
 8242SOL     OW24771   4.211   5.145   5.741
 8242SOL    HW124772   4.130   5.119   5.794
 8242SOL    HW224773   4.210   5.098   5.653
 8243SOL     OW24774   5.400   4.991   6.229
 8243SOL    HW124775   5.499   4.987   6.242
 8243SOL    HW224776   5.367   5.083   6.250
 8244SOL     OW24777   5.114   4.298   5.656
 8244SOL    HW124778   5.051   4.276   5.731
 8244SOL    HW224779   5.207   4.273   5.682
 8245SOL     OW24780   4.252   3.988   5.895
 8245SOL    HW124781   4.300   3.936   5.824
 8245SOL    HW224782   4.223   4.076   5.857
 8246SOL     OW24783   5.484   4.901   0.169
 8246SOL    HW124784   5.581   4.889   0.150
 8246SOL    HW224785   5.455   4.993   0.143
 8247SOL     OW24786   4.842   4.963   6.694
 8247SOL    HW124787   4.759   4.918   6.727
 8247SOL    HW224788   4.829   4.989   6.598
 8248SOL     OW24789   5.342   4.807   6.650
 8248SOL    HW124790   5.342   4.878   6.720
 8248SOL    HW224791   5.268   4.825   6.585
 8249SOL     OW24792   4.437   4.783   5.959
 8249SOL    HW124793   4.420   4.765   6.056
 8249SOL    HW224794   4.516   4.729   5.929
 8250SOL     OW24795   4.148   4.539   6.847
 8250SOL    HW124796   4.205   4.565   6.925
 8250SOL    HW224797   4.114   4.446   6.860
 8251SOL     OW24798   4.994   4.113   6.855
 8251SOL    HW124799   5.021   4.186   6.918
 8251SOL    HW224800   4.900   4.128   6.826
 8252SOL     OW24801   3.814   5.284   6.858
 8252SOL    HW124802   3.752   5.359   6.882
 8252SOL    HW224803   3.891   5.282   6.922
 8253SOL     OW24804   4.064   4.844   6.073
 8253SOL    HW124805   4.069   4.926   6.016
 8253SOL    HW224806   4.063   4.763   6.014
 8254SOL     OW24807   4.270   4.269   6.449
 8254SOL    HW124808   4.284   4.328   6.369
 8254SOL    HW224809   4.341   4.287   6.516
 8255SOL     OW24810   4.970   5.079   5.978
 8255SOL    HW124811   5.031   5.152   6.010
 8255SOL    HW224812   4.876   5.099   6.009
 8256SOL     OW24813   5.006   5.174   6.748
 8256SOL    HW124814   5.044   5.162   6.840
 8256SOL    HW224815   4.944   5.099   6.727
 8257SOL     OW24816   5.300   4.345   6.068
 8257SOL    HW124817   5.250   4.391   6.142
 8257SOL    HW224818   5.348   4.413   6.013
 8258SOL     OW24819   4.091   5.219   6.904
 8258SOL    HW124820   4.059   5.182   6.817
 8258SOL    HW224821   4.186   5.250   6.894
 8259SOL     OW24822   4.309   4.594   6.624
 8259SOL    HW124823   4.342   4.688   6.617
 8259SOL    HW224824   4.248   4.585   6.703
 8260SOL     OW24825   5.069   4.580   6.594
 8260SOL    HW124826   4.978   4.563   6.555
 8260SOL    HW224827   5.123   4.496   6.590
 8261SOL     OW24828   4.921   4.250   5.850
 8261SOL    HW124829   4.934   4.168   5.904
 8261SOL    HW224830   4.877   4.321   5.905
 8262SOL     OW24831   4.027   3.924   6.834
 8262SOL    HW124832   3.983   3.956   6.918
 8262SOL    HW224833   4.014   3.825   6.826
 8263SOL     OW24834   3.750   5.024   6.869
 8263SOL    HW124835   3.804   4.977   6.939
 8263SOL    HW224836   3.776   5.120   6.865
 8264SOL     OW24837   4.448   4.350   6.641
 8264SOL    HW124838   4.526   4.330   6.582
 8264SOL    HW224839   4.417   4.443   6.624
 8265SOL     OW24840   4.031   3.785   6.213
 8265SOL    HW124841   4.006   3.880   6.231
 8265SOL    HW224842   4.042   3.736   6.299
 8266SOL     OW24843   5.352   4.106   5.946
 8266SOL    HW124844   5.378   4.032   6.009
 8266SOL    HW224845   5.323   4.186   6.000
 8267SOL     OW24846   4.746   4.481   6.550
 8267SOL    HW124847   4.740   4.501   6.648
 8267SOL    HW224848   4.721   4.385   6.534
 8268SOL     OW24849   5.251   3.992   5.716
 8268SOL    HW124850   5.182   3.924   5.741
 8268SOL    HW224851   5.288   4.035   5.798
 8269SOL     OW24852   5.012   4.549   5.611
 8269SOL    HW124853   5.052   4.458   5.620
 8269SOL    HW224854   5.043   4.592   5.527
 8270SOL     OW24855   4.797   5.062   6.439
 8270SOL    HW124856   4.801   4.984   6.376
 8270SOL    HW224857   4.854   5.136   6.404
 8271SOL     OW24858   4.037   4.529   6.528
 8271SOL    HW124859   4.133   4.555   6.522
 8271SOL    HW224860   4.031   4.434   6.559
 8272SOL     OW24861   4.055   4.253   6.604
 8272SOL    HW124862   4.015   4.163   6.591
 8272SOL    HW224863   4.135   4.263   6.545
 8273SOL     OW24864   4.865   3.965   0.054
 8273SOL    HW124865   4.935   3.976   0.124
 8273SOL    HW224866   4.898   4.004   6.967
 8274SOL     OW24867   3.724   5.038   5.780
 8274SOL    HW124868   3.635   5.058   5.741
 8274SOL    HW224869   3.725   4.945   5.816
 8275SOL     OW24870   3.815   5.513   6.528
 8275SOL    HW124871   3.780   5.430   6.484
 8275SOL    HW224872   3.910   5.526   6.502
 8276SOL     OW24873   4.217   5.302   6.491
 8276SOL    HW124874   4.287   5.367   6.519
 8276SOL    HW224875   4.257   5.234   6.430
 8277SOL     OW24876   4.703   4.519   6.823
 8277SOL    HW124877   4.783   4.497   6.880
 8277SOL    HW224878   4.622   4.473   6.859
 8278SOL     OW24879   3.775   4.282   6.712
 8278SOL    HW124880   3.829   4.248   6.635
 8278SOL    HW224881   3.837   4.317   6.783
 8279SOL     OW24882   4.541   4.296   5.948
 8279SOL    HW124883   4.551   4.217   5.888
 8279SOL    HW224884   4.463   4.351   5.918
 8280SOL     OW24885   5.372   4.334   6.752
 8280SOL    HW124886   5.356   4.275   6.831
 8280SOL    HW224887   5.467   4.324   6.721
 8281SOL     OW24888   4.396   4.187   6.850
 8281SOL    HW124889   4.361   4.099   6.819
 8281SOL    HW224890   4.411   4.247   6.771
 8282SOL     OW24891   4.669   5.386   6.995
 8282SOL    HW124892   4.636   5.373   6.902
 8282SOL    HW224893   4.648   5.480   0.025
 8283SOL     OW24894   4.182   4.219   5.770
 8283SOL    HW124895   4.247   4.291   5.796
 8283SOL    HW224896   4.091   4.259   5.758
 8284SOL     OW24897   3.881   4.866   0.059
 8284SOL    HW124898   3.937   4.826   0.132
 8284SOL    HW224899   3.890   4.812   6.976
 8285SOL     OW24900   5.007   4.728   6.814
 8285SOL    HW124901   5.044   4.677   6.736
 8285SOL    HW224902   4.984   4.821   6.785
 8286SOL     OW24903   5.040   4.582   5.884
 8286SOL    HW124904   4.965   4.553   5.943
 8286SOL    HW224905   5.014   4.568   5.788
 8287SOL     OW24906   5.479   5.482   6.724
 8287SOL    HW124907   5.555   5.504   6.662
 8287SOL    HW224908   5.457   5.385   6.716
 8288SOL     OW24909   4.972   5.449   6.699
 8288SOL    HW124910   5.056   5.478   6.653
 8288SOL    HW224911   4.977   5.351   6.718
 8289SOL     OW24912   3.806   4.987   6.599
 8289SOL    HW124913   3.785   4.996   6.697
 8289SOL    HW224914   3.739   4.926   6.556
 8290SOL     OW24915   5.444   3.876   6.084
 8290SOL    HW124916   5.519   3.865   6.019
 8290SOL    HW224917   5.426   3.788   6.129
 8291SOL     OW24918   5.119   5.295   6.074
 8291SOL    HW124919   5.182   5.327   6.003
 8291SOL    HW224920   5.064   5.371   6.107
 8292SOL     OW24921   5.006   4.653   6.252
 8292SOL    HW124922   5.080   4.588   6.268
 8292SOL    HW224923   5.039   4.729   6.197
 8293SOL     OW24924   4.392   5.346   5.740
 8293SOL    HW124925   4.409   5.365   5.643
 8293SOL    HW224926   4.334   5.265   5.749
 8294SOL     OW24927   5.566   3.898   6.556
 8294SOL    HW124928   5.601   3.807   6.534
 8294SOL    HW224929   5.474   3.909   6.518
 8295SOL     OW24930   3.978   4.038   6.301
 8295SOL    HW124931   3.889   4.074   6.273
 8295SOL    HW224932   3.982   4.031   6.401
 8296SOL     OW24933   4.933   5.324   5.619
 8296SOL    HW124934   4.923   5.230   5.652
 8296SOL    HW224935   4.865   5.341   5.547
 8297SOL     OW24936   4.499   4.749   6.953
 8297SOL    HW124937   4.558   4.705   6.886
 8297SOL    HW224938   4.544   4.831   6.988
 8298SOL     OW24939   4.644   4.635   5.873
 8298SOL    HW124940   4.705   4.670   5.802
 8298SOL    HW224941   4.691   4.563   5.925
 8299SOL     OW24942   5.212   5.355   5.628
 8299SOL    HW124943   5.113   5.343   5.617
 8299SOL    HW224944   5.256   5.360   5.538
 8300SOL     OW24945   5.339   5.003   6.834
 8300SOL    HW124946   5.430   5.003   6.876
 8300SOL    HW224947   5.271   4.981   6.904
 8301SOL     OW24948   4.786   4.830   6.302
 8301SOL    HW124949   4.709   4.779   6.340
 8301SOL    HW224950   4.856   4.766   6.269
 8302SOL     OW24951   4.744   3.961   6.539
 8302SOL    HW124952   4.743   3.912   6.452
 8302SOL    HW224953   4.747   3.895   6.614
 8303SOL     OW24954   4.329   5.210   6.066
 8303SOL    HW124955   4.381   5.156   5.999
 8303SOL    HW224956   4.254   5.257   6.019
 8304SOL     OW24957   5.419   4.147   6.946
 8304SOL    HW124958   5.482   4.154   0.023
 8304SOL    HW224959   5.426   4.056   6.905
 8305SOL     OW24960   3.977   5.072   5.874
 8305SOL    HW124961   3.881   5.065   5.847
 8305SOL    HW224962   3.982   5.111   5.966
 8306SOL     OW24963   4.399   3.913   0.081
 8306SOL    HW124964   4.490   3.883   0.053
 8306SOL    HW224965   4.405   3.996   0.135
 8307SOL     OW24966   3.806   4.051   5.614
 8307SOL    HW124967   3.714   4.027   5.582
 8307SOL    HW224968   3.838   4.133   5.567
 8308SOL     OW24969   3.786   3.879   5.887
 8308SOL    HW124970   3.770   3.963   5.835
 8308SOL    HW224971   3.875   3.840   5.861
 8309SOL     OW24972   4.904   5.061   5.707
 8309SOL    HW124973   4.809   5.031   5.700
 8309SOL    HW224974   4.932   5.062   5.803
 8310SOL     OW24975   5.216   5.510   6.581
 8310SOL    HW124976   5.229   5.572   6.503
 8310SOL    HW224977   5.305   5.490   6.623
 8311SOL     OW24978   5.217   5.019   0.283
 8311SOL    HW124979   5.125   5.019   0.322
 8311SOL    HW224980   5.244   4.925   0.261
 8312SOL     OW24981   4.110   5.450   0.088
 8312SOL    HW124982   4.031   5.504   0.117
 8312SOL    HW224983   4.103   5.358   0.126
 8313SOL     OW24984   5.425   4.602   6.828
 8313SOL    HW124985   5.392   4.512   6.800
 8313SOL    HW224986   5.389   4.671   6.765
 8314SOL     OW24987   4.944   4.041   6.045
 8314SOL    HW124988   5.007   3.964   6.036
 8314SOL    HW224989   4.970   4.096   6.124
 8315SOL     OW24990   4.308   4.461   6.255
 8315SOL    HW124991   4.351   4.551   6.244
 8315SOL    HW224992   4.240   4.447   6.184
 8316SOL     OW24993   5.492   4.627   0.095
 8316SOL    HW124994   5.482   4.722   0.122
 8316SOL    HW224995   5.468   4.616   6.998
 8317SOL     OW24996   4.591   5.087   5.631
 8317SOL    HW124997   4.550   5.111   5.719
 8317SOL    HW224998   4.605   5.171   5.577
 8318SOL     OW24999   4.391   5.508   6.532
 8318SOL    HW125000   4.367   5.602   6.507
 8318SOL    HW225001   4.489   5.495   6.518
 8319SOL     OW25002   4.593   4.694   6.442
 8319SOL    HW125003   4.643   4.616   6.480
 8319SOL    HW225004   4.553   4.747   6.517
 8320SOL     OW25005   4.801   4.713   5.669
 8320SOL    HW125006   4.774   4.767   5.590
 8320SOL    HW225007   4.879   4.655   5.645
 8321SOL     OW25008   5.572   5.282   6.432
 8321SOL    HW125009   5.492   5.268   6.373
 8321SOL    HW225010   5.567   5.219   6.510
 8322SOL     OW25011   3.812   4.952   6.249
 8322SOL    HW125012   3.816   4.906   6.337
 8322SOL    HW225013   3.881   4.913   6.188
 8323SOL     OW25014   5.533   3.899   6.834
 8323SOL    HW125015   5.508   3.802   6.836
 8323SOL    HW225016   5.549   3.928   6.740
 8324SOL     OW25017   4.154   4.152   6.112
 8324SOL    HW125018   4.188   4.082   6.049
 8324SOL    HW225019   4.099   4.108   6.184
 8325SOL     OW25020   5.400   5.226   6.677
 8325SOL    HW125021   5.324   5.207   6.615
 8325SOL    HW225022   5.409   5.151   6.742
 8326SOL     OW25023   4.041   4.276   6.878
 8326SOL    HW125024   4.111   4.223   6.926
 8326SOL    HW225025   4.051   4.263   6.779
 8327SOL     OW25026   4.553   5.303   6.262
 8327SOL    HW125027   4.539   5.367   6.187
 8327SOL    HW225028   4.476   5.240   6.267
 8328SOL     OW25029   5.158   3.961   6.702
 8328SOL    HW125030   5.190   3.877   6.747
 8328SOL    HW225031   5.105   4.016   6.766
 8329SOL     OW25032   4.742   3.742   6.710
 8329SOL    HW125033   4.679   3.676   6.669
 8329SOL    HW225034   4.832   3.699   6.721
 8330SOL     OW25035   4.499   5.055   5.907
 8330SOL    HW125036   4.471   4.960   5.916
 8330SOL    HW225037   4.583   5.071   5.958
 8331SOL     OW25038   4.348   5.289   6.864
 8331SOL    HW125039   4.346   5.384   6.895
 8331SOL    HW225040   4.435   5.271   6.818
 8332SOL     OW25041   5.079   3.773   5.757
 8332SOL    HW125042   5.123   3.705   5.698
 8332SOL    HW225043   4.986   3.745   5.778
 8333SOL     OW25044   5.015   4.188   6.266
 8333SOL    HW125045   4.963   4.273   6.268
 8333SOL    HW225046   5.012   4.145   6.356
 8334SOL     OW25047   5.311   3.928   6.471
 8334SOL    HW125048   5.250   3.948   6.549
 8334SOL    HW225049   5.312   4.007   6.410
 8335SOL     OW25050   3.766   4.787   5.894
 8335SOL    HW125051   3.865   4.787   5.875
 8335SOL    HW225052   3.737   4.694   5.915
 8336SOL     OW25053   4.608   5.388   5.925
 8336SOL    HW125054   4.533   5.367   5.863
 8336SOL    HW225055   4.583   5.465   5.984
 8337SOL     OW25056   3.944   6.223   0.136
 8337SOL    HW125057   3.848   6.209   0.161
 8337SOL    HW225058   3.956   6.206   0.039
 8338SOL     OW25059   3.946   5.869   0.995
 8338SOL    HW125060   3.979   5.835   1.083
 8338SOL    HW225061   3.853   5.836   0.978
 8339SOL     OW25062   3.724   5.975   0.637
 8339SOL    HW125063   3.643   6.010   0.685
 8339SOL    HW225064   3.701   5.888   0.593
 8340SOL     OW25065   4.293   6.874   1.176
 8340SOL    HW125066   4.219   6.884   1.110
 8340SOL    HW225067   4.262   6.907   1.265
 8341SOL     OW25068   5.264   0.054   0.687
 8341SOL    HW125069   5.245   0.052   0.785
 8341SOL    HW225070   5.183   0.087   0.638
 8342SOL     OW25071   4.855   6.286   0.695
 8342SOL    HW125072   4.908   6.369   0.680
 8342SOL    HW225073   4.804   6.294   0.781
 8343SOL     OW25074   5.506   6.170   0.204
 8343SOL    HW125075   5.439   6.209   0.141
 8343SOL    HW225076   5.461   6.103   0.263
 8344SOL     OW25077   4.485   6.747   1.024
 8344SOL    HW125078   4.419   6.785   1.088
 8344SOL    HW225079   4.485   6.800   0.939
 8345SOL     OW25080   4.601   6.349   1.823
 8345SOL    HW125081   4.585   6.415   1.896
 8345SOL    HW225082   4.625   6.397   1.739
 8346SOL     OW25083   4.409   6.581   0.649
 8346SOL    HW125084   4.480   6.571   0.719
 8346SOL    HW225085   4.334   6.636   0.686
 8347SOL     OW25086   4.415   6.733   1.815
 8347SOL    HW125087   4.451   6.825   1.834
 8347SOL    HW225088   4.338   6.741   1.751
 8348SOL     OW25089   4.061   0.005   1.058
 8348SOL    HW125090   3.981   6.960   1.018
 8348SOL    HW225091   4.107   0.059   0.988
 8349SOL     OW25092   4.175   5.978   1.477
 8349SOL    HW125093   4.256   5.921   1.485
 8349SOL    HW225094   4.093   5.924   1.497
 8350SOL     OW25095   5.336   6.034   0.749
 8350SOL    HW125096   5.263   6.055   0.683
 8350SOL    HW225097   5.341   6.108   0.816
 8351SOL     OW25098   3.984   6.675   0.903
 8351SOL    HW125099   3.982   6.581   0.936
 8351SOL    HW225100   3.924   6.732   0.960
 8352SOL     OW25101   4.315   6.546   0.140
 8352SOL    HW125102   4.379   6.560   0.064
 8352SOL    HW225103   4.351   6.590   0.222
 8353SOL     OW25104   5.320   5.711   1.469
 8353SOL    HW125105   5.343   5.791   1.412
 8353SOL    HW225106   5.305   5.740   1.563
 8354SOL     OW25107   3.838   6.241   0.562
 8354SOL    HW125108   3.808   6.148   0.582
 8354SOL    HW225109   3.833   6.296   0.646
 8355SOL     OW25110   5.416   6.493   0.652
 8355SOL    HW125111   5.504   6.447   0.643
 8355SOL    HW225112   5.398   6.548   0.570
 8356SOL     OW25113   5.384   6.671   0.445
 8356SOL    HW125114   5.447   6.696   0.371
 8356SOL    HW225115   5.395   6.735   0.521
 8357SOL     OW25116   3.851   6.331   1.585
 8357SOL    HW125117   3.948   6.354   1.585
 8357SOL    HW225118   3.797   6.415   1.593
 8358SOL     OW25119   5.039   6.816   1.431
 8358SOL    HW125120   5.062   6.746   1.363
 8358SOL    HW225121   5.098   6.807   1.511
 8359SOL     OW25122   4.543   5.600   0.515
 8359SOL    HW125123   4.589   5.685   0.491
 8359SOL    HW225124   4.445   5.615   0.522
 8360SOL     OW25125   3.916   6.550   1.276
 8360SOL    HW125126   4.003   6.503   1.262
 8360SOL    HW225127   3.844   6.502   1.225
 8361SOL     OW25128   5.225   6.593   0.212
 8361SOL    HW125129   5.155   6.529   0.241
 8361SOL    HW225130   5.301   6.591   0.276
 8362SOL     OW25131   4.067   5.835   1.835
 8362SOL    HW125132   4.115   5.920   1.853
 8362SOL    HW225133   3.969   5.848   1.853
 8363SOL     OW25134   5.182   6.988   0.947
 8363SOL    HW125135   5.113   0.016   1.014
 8363SOL    HW225136   5.165   6.894   0.918
 8364SOL     OW25137   4.324   6.300   0.268
 8364SOL    HW125138   4.329   6.390   0.224
 8364SOL    HW225139   4.259   6.304   0.344
 8365SOL     OW25140   5.001   5.945   0.933
 8365SOL    HW125141   4.908   5.911   0.941
 8365SOL    HW225142   5.061   5.894   0.994
 8366SOL     OW25143   4.514   6.197   1.449
 8366SOL    HW125144   4.489   6.173   1.543
 8366SOL    HW225145   4.477   6.128   1.386
 8367SOL     OW25146   5.115   6.056   1.680
 8367SOL    HW125147   5.116   6.105   1.767
 8367SOL    HW225148   5.175   5.976   1.686
 8368SOL     OW25149   4.679   6.473   1.585
 8368SOL    HW125150   4.738   6.400   1.549
 8368SOL    HW225151   4.624   6.511   1.511
 8369SOL     OW25152   4.718   5.991   1.228
 8369SOL    HW125153   4.627   6.012   1.265
 8369SOL    HW225154   4.708   5.942   1.142
 8370SOL     OW25155   4.776   6.288   0.428
 8370SOL    HW125156   4.799   6.285   0.525
 8370SOL    HW225157   4.689   6.240   0.412
 8371SOL     OW25158   3.812   6.412   0.778
 8371SOL    HW125159   3.897   6.400   0.828
 8371SOL    HW225160   3.761   6.489   0.816
 8372SOL     OW25161   4.611   5.927   0.209
 8372SOL    HW125162   4.657   5.989   0.146
 8372SOL    HW225163   4.629   5.832   0.183
 8373SOL     OW25164   5.423   6.158   1.826
 8373SOL    HW125165   5.389   6.237   1.775
 8373SOL    HW225166   5.454   6.088   1.761
 8374SOL     OW25167   5.118   6.723   0.562
 8374SOL    HW125168   5.207   6.713   0.517
 8374SOL    HW225169   5.079   6.813   0.538
 8375SOL     OW25170   4.271   5.759   0.901
 8375SOL    HW125171   4.275   5.788   0.997
 8375SOL    HW225172   4.274   5.839   0.842
 8376SOL     OW25173   5.524   6.638   0.879
 8376SOL    HW125174   5.472   6.625   0.794
 8376SOL    HW225175   5.460   6.645   0.955
 8377SOL     OW25176   4.053   6.535   0.250
 8377SOL    HW125177   4.138   6.551   0.199
 8377SOL    HW225178   4.015   6.446   0.224
 8378SOL     OW25179   5.208   6.330   0.723
 8378SOL    HW125180   5.204   6.290   0.814
 8378SOL    HW225181   5.287   6.391   0.716
 8379SOL     OW25182   3.926   5.859   1.503
 8379SOL    HW125183   3.844   5.917   1.501
 8379SOL    HW225184   3.905   5.771   1.546
 8380SOL     OW25185   5.371   0.027   0.078
 8380SOL    HW125186   5.350   0.124   0.095
 8380SOL    HW225187   5.286   6.974   0.078
 8381SOL     OW25188   4.123   6.272   0.469
 8381SOL    HW125189   4.140   6.176   0.488
 8381SOL    HW225190   4.026   6.292   0.487
 8382SOL     OW25191   5.251   5.809   1.728
 8382SOL    HW125192   5.262   5.830   1.825
 8382SOL    HW225193   5.179   5.740   1.716
 8383SOL     OW25194   4.487   5.862   1.757
 8383SOL    HW125195   4.572   5.810   1.751
 8383SOL    HW225196   4.436   5.832   1.838
 8384SOL     OW25197   5.063   6.174   1.436
 8384SOL    HW125198   5.093   6.138   1.525
 8384SOL    HW225199   5.099   6.266   1.423
 8385SOL     OW25200   4.651   6.092   0.899
 8385SOL    HW125201   4.624   6.084   0.802
 8385SOL    HW225202   4.683   6.003   0.931
 8386SOL     OW25203   4.273   5.657   0.502
 8386SOL    HW125204   4.190   5.654   0.558
 8386SOL    HW225205   4.268   5.735   0.440
 8387SOL     OW25206   5.140   6.793   0.038
 8387SOL    HW125207   5.185   6.725   0.095
 8387SOL    HW225208   5.067   6.749   6.986
 8388SOL     OW25209   4.674   5.836   0.462
 8388SOL    HW125210   4.640   5.876   0.376
 8388SOL    HW225211   4.773   5.851   0.469
 8389SOL     OW25212   4.804   6.270   1.456
 8389SOL    HW125213   4.729   6.204   1.461
 8389SOL    HW225214   4.891   6.221   1.451
 8390SOL     OW25215   4.993   0.148   0.739
 8390SOL    HW125216   4.962   0.232   0.694
 8390SOL    HW225217   5.005   0.165   0.837
 8391SOL     OW25218   4.191   6.714   0.736
 8391SOL    HW125219   4.120   6.705   0.806
 8391SOL    HW225220   4.148   6.713   0.645
 8392SOL     OW25221   4.789   6.179   0.030
 8392SOL    HW125222   4.691   6.190   0.049
 8392SOL    HW225223   4.837   6.156   0.115
 8393SOL     OW25224   3.811   6.144   1.391
 8393SOL    HW125225   3.906   6.139   1.359
 8393SOL    HW225226   3.803   6.215   1.460
 8394SOL     OW25227   4.282   5.809   1.173
 8394SOL    HW125228   4.331   5.734   1.216
 8394SOL    HW225229   4.187   5.808   1.202
 8395SOL     OW25230   4.590   6.042   0.639
 8395SOL    HW125231   4.546   6.106   0.575
 8395SOL    HW225232   4.618   5.959   0.590
 8396SOL     OW25233   4.743   5.635   0.741
 8396SOL    HW125234   4.678   5.636   0.665
 8396SOL    HW225235   4.718   5.562   0.804
 8397SOL     OW25236   5.165   6.731   0.863
 8397SOL    HW125237   5.088   6.667   0.864
 8397SOL    HW225238   5.195   6.745   0.769
 8398SOL     OW25239   5.192   6.192   0.970
 8398SOL    HW125240   5.130   6.114   0.970
 8398SOL    HW225241   5.253   6.187   1.049
 8399SOL     OW25242   5.560   6.394   0.385
 8399SOL    HW125243   5.616   6.336   0.444
 8399SOL    HW225244   5.546   6.348   0.297
 8400SOL     OW25245   5.405   6.830   0.654
 8400SOL    HW125246   5.503   6.844   0.670
 8400SOL    HW225247   5.357   6.916   0.669
 8401SOL     OW25248   5.113   6.139   0.067
 8401SOL    HW125249   5.052   6.138   0.146
 8401SOL    HW225250   5.175   6.060   0.072
 8402SOL     OW25251   4.237   5.850   0.311
 8402SOL    HW125252   4.252   5.784   0.238
 8402SOL    HW225253   4.213   5.939   0.272
 8403SOL     OW25254   5.478   6.812   1.566
 8403SOL    HW125255   5.562   6.762   1.589
 8403SOL    HW225256   5.495   6.910   1.576
 8404SOL     OW25257   4.799   6.894   1.326
 8404SOL    HW125258   4.720   6.879   1.384
 8404SOL    HW225259   4.883   6.877   1.378
 8405SOL     OW25260   4.860   6.760   1.100
 8405SOL    HW125261   4.828   6.811   1.180
 8405SOL    HW225262   4.805   6.785   1.020
 8406SOL     OW25263   5.346   6.680   1.083
 8406SOL    HW125264   5.334   6.736   1.164
 8406SOL    HW225265   5.270   6.697   1.019
 8407SOL     OW25266   4.648   5.679   1.391
 8407SOL    HW125267   4.669   5.657   1.296
 8407SOL    HW225268   4.727   5.723   1.433
 8408SOL     OW25269   4.690   6.696   1.739
 8408SOL    HW125270   4.592   6.709   1.757
 8408SOL    HW225271   4.702   6.621   1.673
 8409SOL     OW25272   4.432   6.631   0.373
 8409SOL    HW125273   4.417   6.621   0.471
 8409SOL    HW225274   4.515   6.582   0.346
 8410SOL     OW25275   4.146   6.401   1.255
 8410SOL    HW125276   4.218   6.414   1.322
 8410SOL    HW225277   4.107   6.309   1.265
 8411SOL     OW25278   4.986   5.962   1.281
 8411SOL    HW125279   5.022   6.041   1.330
 8411SOL    HW225280   4.891   5.979   1.256
 8412SOL     OW25281   4.074   6.702   0.488
 8412SOL    HW125282   4.120   6.779   0.444
 8412SOL    HW225283   4.079   6.622   0.428
 8413SOL     OW25284   4.271   6.129   0.861
 8413SOL    HW125285   4.286   6.188   0.782
 8413SOL    HW225286   4.340   6.149   0.931
 8414SOL     OW25287   5.310   6.211   0.483
 8414SOL    HW125288   5.254   6.253   0.554
 8414SOL    HW225289   5.364   6.281   0.437
 8415SOL     OW25290   4.140   6.330   1.601
 8415SOL    HW125291   4.207   6.375   1.542
 8415SOL    HW225292   4.173   6.238   1.624
 8416SOL     OW25293   5.333   6.371   1.685
 8416SOL    HW125294   5.241   6.411   1.682
 8416SOL    HW225295   5.389   6.412   1.613
 8417SOL     OW25296   4.721   5.721   1.750
 8417SOL    HW125297   4.779   5.801   1.735
 8417SOL    HW225298   4.770   5.638   1.723
 8418SOL     OW25299   4.216   5.622   1.751
 8418SOL    HW125300   4.171   5.564   1.683
 8418SOL    HW225301   4.159   5.702   1.770
 8419SOL     OW25302   4.306   6.453   1.035
 8419SOL    HW125303   4.334   6.548   1.026
 8419SOL    HW225304   4.245   6.443   1.114
 8420SOL     OW25305   5.079   6.439   1.025
 8420SOL    HW125306   4.988   6.436   0.985
 8420SOL    HW225307   5.124   6.351   1.012
 8421SOL     OW25308   4.917   6.113   0.270
 8421SOL    HW125309   4.932   6.032   0.328
 8421SOL    HW225310   4.877   6.186   0.325
 8422SOL     OW25311   4.020   5.782   1.246
 8422SOL    HW125312   3.984   5.818   1.332
 8422SOL    HW225313   4.005   5.683   1.243
 8423SOL     OW25314   3.785   6.898   1.282
 8423SOL    HW125315   3.819   6.842   1.357
 8423SOL    HW225316   3.779   6.993   1.311
 8424SOL     OW25317   4.448   6.215   1.055
 8424SOL    HW125318   4.525   6.197   0.993
 8424SOL    HW225319   4.412   6.307   1.036
 8425SOL     OW25320   5.459   6.547   1.854
 8425SOL    HW125321   5.416   6.477   1.798
 8425SOL    HW225322   5.403   6.564   1.935
 8426SOL     OW25323   4.030   5.651   0.630
 8426SOL    HW125324   4.005   5.746   0.650
 8426SOL    HW225325   4.042   5.601   0.716
 8427SOL     OW25326   5.354   5.964   0.373
 8427SOL    HW125327   5.378   5.893   0.440
 8427SOL    HW225328   5.330   6.048   0.421
 8428SOL     OW25329   4.748   6.339   0.958
 8428SOL    HW125330   4.743   6.361   1.055
 8428SOL    HW225331   4.721   6.243   0.944
 8429SOL     OW25332   5.580   0.063   1.601
 8429SOL    HW125333   5.617   0.140   1.549
 8429SOL    HW225334   5.634   0.049   1.683
 8430SOL     OW25335   4.078   6.508   1.801
 8430SOL    HW125336   4.153   6.518   1.867
 8430SOL    HW225337   4.103   6.440   1.732
 8431SOL     OW25338   5.206   5.882   0.156
 8431SOL    HW125339   5.169   5.790   0.169
 8431SOL    HW225340   5.266   5.905   0.232
 8432SOL     OW25341   5.017   6.410   0.031
 8432SOL    HW125342   5.060   6.320   0.022
 8432SOL    HW225343   5.047   6.468   6.955
 8433SOL     OW25344   4.034   6.391   0.942
 8433SOL    HW125345   4.130   6.417   0.936
 8433SOL    HW225346   4.026   6.297   0.975
 8434SOL     OW25347   4.050   6.114   1.011
 8434SOL    HW125348   4.012   6.022   1.001
 8434SOL    HW225349   4.131   6.123   0.953
 8435SOL     OW25350   4.858   5.959   1.693
 8435SOL    HW125351   4.805   6.015   1.756
 8435SOL    HW225352   4.950   5.996   1.684
 8436SOL     OW25353   4.885   5.789   1.476
 8436SOL    HW125354   4.871   5.851   1.553
 8436SOL    HW225355   4.928   5.838   1.401
 8437SOL     OW25356   4.697   6.377   1.224
 8437SOL    HW125357   4.758   6.354   1.300
 8437SOL    HW225358   4.609   6.332   1.237
 8438SOL     OW25359   3.761   6.139   1.117
 8438SOL    HW125360   3.844   6.127   1.062
 8438SOL    HW225361   3.786   6.141   1.214
 8439SOL     OW25362   3.916   6.109   1.731
 8439SOL    HW125363   3.967   6.054   1.665
 8439SOL    HW225364   3.878   6.189   1.684
 8440SOL     OW25365   5.105   6.522   1.654
 8440SOL    HW125366   5.135   6.617   1.654
 8440SOL    HW225367   5.101   6.487   1.561
 8441SOL     OW25368   4.543   6.155   0.372
 8441SOL    HW125369   4.551   6.076   0.311
 8441SOL    HW225370   4.465   6.212   0.343
 8442SOL     OW25371   5.366   6.187   1.180
 8442SOL    HW125372   5.350   6.128   1.259
 8442SOL    HW225373   5.458   6.171   1.144
 8443SOL     OW25374   4.434   6.032   1.252
 8443SOL    HW125375   4.375   5.954   1.229
 8443SOL    HW225376   4.430   6.100   1.179
 8444SOL     OW25377   4.178   6.085   0.188
 8444SOL    HW125378   4.242   6.156   0.214
 8444SOL    HW225379   4.085   6.123   0.184
 8445SOL     OW25380   3.892   6.728   1.477
 8445SOL    HW125381   3.881   6.680   1.564
 8445SOL    HW225382   3.902   6.662   1.403
 8446SOL     OW25383   5.053   6.622   1.223
 8446SOL    HW125384   5.083   6.555   1.156
 8446SOL    HW225385   4.980   6.679   1.185
 8447SOL     OW25386   5.025   6.433   0.304
 8447SOL    HW125387   4.946   6.404   0.357
 8447SOL    HW225388   5.010   6.414   0.207
 8448SOL     OW25389   3.807   6.859   1.013
 8448SOL    HW125390   3.793   6.868   1.112
 8448SOL    HW225391   3.737   6.798   0.976
 8449SOL     OW25392   4.664   5.663   0.112
 8449SOL    HW125393   4.734   5.719   0.067
 8449SOL    HW225394   4.707   5.602   0.178
 8450SOL     OW25395   5.453   5.748   0.528
 8450SOL    HW125396   5.522   5.738   0.458
 8450SOL    HW225397   5.424   5.658   0.560
 8451SOL     OW25398   5.006   6.507   0.671
 8451SOL    HW125399   5.080   6.442   0.687
 8451SOL    HW225400   5.040   6.586   0.621
 8452SOL     OW25401   4.539   6.844   1.419
 8452SOL    HW125402   4.512   6.885   1.505
 8452SOL    HW225403   4.469   6.861   1.350
 8453SOL     OW25404   5.566   5.755   0.963
 8453SOL    HW125405   5.601   5.663   0.941
 8453SOL    HW225406   5.475   5.766   0.923
 8454SOL     OW25407   3.978   5.903   0.716
 8454SOL    HW125408   3.889   5.938   0.688
 8454SOL    HW225409   3.982   5.894   0.816
 8455SOL     OW25410   4.550   6.581   1.371
 8455SOL    HW125411   4.608   6.557   1.293
 8455SOL    HW225412   4.554   6.680   1.387
 8456SOL     OW25413   4.649   6.500   0.290
 8456SOL    HW125414   4.709   6.537   0.219
 8456SOL    HW225415   4.698   6.429   0.341
 8457SOL     OW25416   4.118   6.891   1.493
 8457SOL    HW125417   4.082   6.984   1.483
 8457SOL    HW225418   4.042   6.827   1.499
 8458SOL     OW25419   5.328   6.844   1.314
 8458SOL    HW125420   5.403   6.831   1.379
 8458SOL    HW225421   5.260   6.905   1.354
 8459SOL     OW25422   4.786   6.698   0.732
 8459SOL    HW125423   4.707   6.647   0.764
 8459SOL    HW225424   4.852   6.635   0.691
 8460SOL     OW25425   4.747   5.825   0.966
 8460SOL    HW125426   4.743   5.781   0.876
 8460SOL    HW225427   4.744   5.754   1.037
 8461SOL     OW25428   5.457   5.980   1.381
 8461SOL    HW125429   5.530   6.048   1.381
 8461SOL    HW225430   5.482   5.905   1.319
 8462SOL     OW25431   3.832   6.610   1.717
 8462SOL    HW125432   3.753   6.588   1.774
 8462SOL    HW225433   3.916   6.575   1.760
 8463SOL     OW25434   4.408   5.779   1.500
 8463SOL    HW125435   4.494   5.755   1.456
 8463SOL    HW225436   4.426   5.814   1.592
 8464SOL     OW25437   3.830   5.907   0.011
 8464SOL    HW125438   3.768   5.853   6.953
 8464SOL    HW225439   3.860   5.988   6.960
 8465SOL     OW25440   5.150   6.437   1.398
 8465SOL    HW125441   5.096   6.501   1.344
 8465SOL    HW225442   5.245   6.437   1.366
 8466SOL     OW25443   3.772   5.758   0.326
 8466SOL    HW125444   3.759   5.851   0.291
 8466SOL    HW225445   3.847   5.714   0.277
 8467SOL     OW25446   4.347   6.413   1.435
 8467SOL    HW125447   4.406   6.491   1.415
 8467SOL    HW225448   4.403   6.331   1.444
 8468SOL     OW25449   4.447   6.143   1.703
 8468SOL    HW125450   4.492   6.209   1.762
 8468SOL    HW225451   4.465   6.050   1.736
 8469SOL     OW25452   5.210   6.777   1.646
 8469SOL    HW125453   5.197   6.797   1.743
 8469SOL    HW225454   5.306   6.792   1.622
 8470SOL     OW25455   5.390   6.460   1.254
 8470SOL    HW125456   5.384   6.370   1.212
 8470SOL    HW225457   5.377   6.530   1.183
 8471SOL     OW25458   4.946   5.903   0.456
 8471SOL    HW125459   5.026   5.852   0.427
 8471SOL    HW225460   4.967   5.955   0.539
 8472SOL     OW25461   4.310   6.321   0.667
 8472SOL    HW125462   4.351   6.412   0.660
 8472SOL    HW225463   4.241   6.310   0.596
 8473SOL     OW25464   5.474   5.950   1.653
 8473SOL    HW125465   5.465   5.967   1.554
 8473SOL    HW225466   5.399   5.891   1.683
 8474SOL     OW25467   5.469   6.519   1.506
 8474SOL    HW125468   5.461   6.618   1.523
 8474SOL    HW225469   5.453   6.501   1.410
 8475SOL     OW25470   4.592   6.550   0.858
 8475SOL    HW125471   4.645   6.473   0.893
 8475SOL    HW225472   4.559   6.606   0.934
 8476SOL     OW25473   4.813   6.584   0.084
 8476SOL    HW125474   4.758   6.589   0.000
 8476SOL    HW225475   4.891   6.524   0.070
 8477SOL     OW25476   3.936   6.911   1.811
 8477SOL    HW125477   3.879   6.829   1.822
 8477SOL    HW225478   3.950   6.955   1.900
 8478SOL     OW25479   3.819   6.821   0.674
 8478SOL    HW125480   3.838   6.761   0.751
 8478SOL    HW225481   3.876   6.795   0.596
 8479SOL     OW25482   4.427   6.971   1.632
 8479SOL    HW125483   4.330   6.967   1.656
 8479SOL    HW225484   4.451   0.065   1.607
 8480SOL     OW25485   5.528   5.768   1.233
 8480SOL    HW125486   5.542   5.672   1.258
 8480SOL    HW225487   5.541   5.780   1.135
 8481SOL     OW25488   4.154   6.014   0.528
 8481SOL    HW125489   4.184   5.943   0.465
 8481SOL    HW225490   4.099   5.973   0.601
 8482SOL     OW25491   5.367   0.044   1.140
 8482SOL    HW125492   5.321   0.027   1.053
 8482SOL    HW225493   5.362   6.961   1.196
 8483SOL     OW25494   4.060   6.142   1.289
 8483SOL    HW125495   4.116   6.085   1.348
 8483SOL    HW225496   4.075   6.116   1.193
 8484SOL     OW25497   5.154   5.818   1.117
 8484SOL    HW125498   5.176   5.727   1.153
 8484SOL    HW225499   5.100   5.869   1.184
 8485SOL     OW25500   4.734   5.602   1.136
 8485SOL    HW125501   4.670   5.538   1.093
 8485SOL    HW225502   4.825   5.561   1.138
 8486SOL     OW25503   4.532   6.878   0.290
 8486SOL    HW125504   4.492   6.790   0.314
 8486SOL    HW225505   4.543   6.933   0.373
 8487SOL     OW25506   5.076   5.640   0.185
 8487SOL    HW125507   5.119   5.579   0.118
 8487SOL    HW225508   4.990   5.600   0.216
 8488SOL     OW25509   5.008   6.046   0.678
 8488SOL    HW125510   4.959   6.133   0.681
 8488SOL    HW225511   5.010   6.006   0.770
 8489SOL     OW25512   5.309   5.788   0.884
 8489SOL    HW125513   5.252   5.810   0.964
 8489SOL    HW225514   5.313   5.868   0.824
 8490SOL     OW25515   3.802   6.643   0.316
 8490SOL    HW125516   3.900   6.626   0.318
 8490SOL    HW225517   3.753   6.560   0.342
 8491SOL     OW25518   3.944   6.206   1.990
 8491SOL    HW125519   3.853   6.204   2.031
 8491SOL    HW225520   3.937   6.183   1.893
 8492SOL     OW25521   3.946   5.869   2.857
 8492SOL    HW125522   3.979   5.835   2.945
 8492SOL    HW225523   3.853   5.836   2.840
 8493SOL     OW25524   3.724   5.972   2.496
 8493SOL    HW125525   3.640   6.003   2.542
 8493SOL    HW225526   3.705   5.889   2.444
 8494SOL     OW25527   4.293   6.874   3.038
 8494SOL    HW125528   4.219   6.883   2.972
 8494SOL    HW225529   4.262   6.908   3.127
 8495SOL     OW25530   5.266   0.054   2.551
 8495SOL    HW125531   5.246   0.050   2.649
 8495SOL    HW225532   5.187   0.089   2.502
 8496SOL     OW25533   4.856   6.287   2.556
 8496SOL    HW125534   4.908   6.371   2.540
 8496SOL    HW225535   4.805   6.295   2.642
 8497SOL     OW25536   5.497   6.181   2.083
 8497SOL    HW125537   5.471   6.178   1.987
 8497SOL    HW225538   5.456   6.103   2.131
 8498SOL     OW25539   4.487   6.749   2.886
 8498SOL    HW125540   4.420   6.786   2.950
 8498SOL    HW225541   4.484   6.801   2.801
 8499SOL     OW25542   4.601   6.349   3.685
 8499SOL    HW125543   4.585   6.415   3.758
 8499SOL    HW225544   4.625   6.397   3.601
 8500SOL     OW25545   4.411   6.582   2.509
 8500SOL    HW125546   4.481   6.572   2.580
 8500SOL    HW225547   4.335   6.636   2.545
 8501SOL     OW25548   4.415   6.733   3.676
 8501SOL    HW125549   4.451   6.825   3.696
 8501SOL    HW225550   4.338   6.741   3.613
 8502SOL     OW25551   4.061   0.005   2.920
 8502SOL    HW125552   3.981   6.960   2.880
 8502SOL    HW225553   4.107   0.059   2.850
 8503SOL     OW25554   4.175   5.979   3.340
 8503SOL    HW125555   4.256   5.921   3.347
 8503SOL    HW225556   4.093   5.924   3.359
 8504SOL     OW25557   5.334   6.031   2.607
 8504SOL    HW125558   5.259   6.050   2.543
 8504SOL    HW225559   5.341   6.106   2.673
 8505SOL     OW25560   3.984   6.676   2.765
 8505SOL    HW125561   3.982   6.581   2.797
 8505SOL    HW225562   3.923   6.731   2.822
 8506SOL     OW25563   4.302   6.566   2.005
 8506SOL    HW125564   4.347   6.616   1.931
 8506SOL    HW225565   4.343   6.592   2.093
 8507SOL     OW25566   5.321   5.711   3.331
 8507SOL    HW125567   5.342   5.791   3.274
 8507SOL    HW225568   5.305   5.740   3.425
 8508SOL     OW25569   3.839   6.245   2.427
 8508SOL    HW125570   3.809   6.152   2.445
 8508SOL    HW225571   3.832   6.299   2.512
 8509SOL     OW25572   5.413   6.502   2.507
 8509SOL    HW125573   5.502   6.458   2.494
 8509SOL    HW225574   5.391   6.558   2.427
 8510SOL     OW25575   5.377   6.691   2.289
 8510SOL    HW125576   5.466   6.684   2.243
 8510SOL    HW225577   5.385   6.750   2.369
 8511SOL     OW25578   3.851   6.331   3.447
 8511SOL    HW125579   3.948   6.354   3.447
 8511SOL    HW225580   3.797   6.415   3.455
 8512SOL     OW25581   5.039   6.816   3.293
 8512SOL    HW125582   5.062   6.746   3.226
 8512SOL    HW225583   5.098   6.807   3.373
 8513SOL     OW25584   4.542   5.596   2.370
 8513SOL    HW125585   4.588   5.682   2.347
 8513SOL    HW225586   4.443   5.612   2.378
 8514SOL     OW25587   3.915   6.550   3.138
 8514SOL    HW125588   4.003   6.503   3.124
 8514SOL    HW225589   3.844   6.502   3.087
 8515SOL     OW25590   5.260   6.589   2.064
 8515SOL    HW125591   5.186   6.528   2.093
 8515SOL    HW225592   5.308   6.623   2.145
 8516SOL     OW25593   4.066   5.835   3.697
 8516SOL    HW125594   4.115   5.920   3.714
 8516SOL    HW225595   3.969   5.848   3.715
 8517SOL     OW25596   5.183   6.987   2.809
 8517SOL    HW125597   5.113   0.014   2.876
 8517SOL    HW225598   5.166   6.894   2.778
 8518SOL     OW25599   4.318   6.302   2.137
 8518SOL    HW125600   4.323   6.388   2.086
 8518SOL    HW225601   4.250   6.310   2.209
 8519SOL     OW25602   5.001   5.947   2.796
 8519SOL    HW125603   4.908   5.912   2.802
 8519SOL    HW225604   5.061   5.894   2.857
 8520SOL     OW25605   4.514   6.197   3.311
 8520SOL    HW125606   4.489   6.173   3.405
 8520SOL    HW225607   4.477   6.128   3.248
 8521SOL     OW25608   5.115   6.056   3.542
 8521SOL    HW125609   5.116   6.105   3.629
 8521SOL    HW225610   5.175   5.976   3.548
 8522SOL     OW25611   4.679   6.473   3.447
 8522SOL    HW125612   4.738   6.400   3.411
 8522SOL    HW225613   4.624   6.511   3.373
 8523SOL     OW25614   4.718   5.991   3.090
 8523SOL    HW125615   4.627   6.011   3.126
 8523SOL    HW225616   4.709   5.943   3.003
 8524SOL     OW25617   4.774   6.285   2.286
 8524SOL    HW125618   4.796   6.281   2.384
 8524SOL    HW225619   4.688   6.238   2.269
 8525SOL     OW25620   3.810   6.414   2.642
 8525SOL    HW125621   3.896   6.402   2.692
 8525SOL    HW225622   3.759   6.491   2.680
 8526SOL     OW25623   4.620   5.938   2.059
 8526SOL    HW125624   4.661   6.006   1.997
 8526SOL    HW225625   4.628   5.847   2.018
 8527SOL     OW25626   5.423   6.158   3.688
 8527SOL    HW125627   5.389   6.237   3.637
 8527SOL    HW225628   5.454   6.088   3.623
 8528SOL     OW25629   5.112   6.722   2.409
 8528SOL    HW125630   5.193   6.714   2.350
 8528SOL    HW225631   5.061   6.804   2.385
 8529SOL     OW25632   4.271   5.758   2.763
 8529SOL    HW125633   4.275   5.788   2.859
 8529SOL    HW225634   4.274   5.838   2.703
 8530SOL     OW25635   5.522   6.638   2.740
 8530SOL    HW125636   5.471   6.629   2.655
 8530SOL    HW225637   5.459   6.645   2.817
 8531SOL     OW25638   4.045   6.546   2.121
 8531SOL    HW125639   4.133   6.563   2.077
 8531SOL    HW225640   4.006   6.461   2.087
 8532SOL     OW25641   5.209   6.333   2.584
 8532SOL    HW125642   5.205   6.291   2.675
 8532SOL    HW225643   5.288   6.394   2.579
 8533SOL     OW25644   3.926   5.859   3.365
 8533SOL    HW125645   3.845   5.917   3.362
 8533SOL    HW225646   3.904   5.772   3.408
 8534SOL     OW25647   5.364   6.970   1.948
 8534SOL    HW125648   5.331   0.062   1.966
 8534SOL    HW225649   5.286   6.909   1.933
 8535SOL     OW25650   5.125   5.690   2.299
 8535SOL    HW125651   5.113   5.664   2.204
 8535SOL    HW225652   5.222   5.699   2.320
 8536SOL     OW25653   4.120   6.273   2.336
 8536SOL    HW125654   4.139   6.176   2.350
 8536SOL    HW225655   4.023   6.291   2.354
 8537SOL     OW25656   5.251   5.809   3.590
 8537SOL    HW125657   5.262   5.830   3.687
 8537SOL    HW225658   5.179   5.740   3.578
 8538SOL     OW25659   4.366   5.702   1.963
 8538SOL    HW125660   4.433   5.632   1.987
 8538SOL    HW225661   4.309   5.671   1.887
 8539SOL     OW25662   4.487   5.862   3.619
 8539SOL    HW125663   4.572   5.810   3.613
 8539SOL    HW225664   4.436   5.832   3.700
 8540SOL     OW25665   5.063   6.174   3.298
 8540SOL    HW125666   5.093   6.138   3.387
 8540SOL    HW225667   5.099   6.266   3.285
 8541SOL     OW25668   4.651   6.092   2.759
 8541SOL    HW125669   4.625   6.085   2.663
 8541SOL    HW225670   4.683   6.003   2.792
 8542SOL     OW25671   4.271   5.650   2.355
 8542SOL    HW125672   4.190   5.648   2.413
 8542SOL    HW225673   4.267   5.730   2.296
 8543SOL     OW25674   5.142   6.788   1.922
 8543SOL    HW125675   5.196   6.718   1.969
 8543SOL    HW225676   5.049   6.755   1.906
 8544SOL     OW25677   4.014   5.634   2.048
 8544SOL    HW125678   4.066   5.706   2.002
 8544SOL    HW225679   4.077   5.570   2.091
 8545SOL     OW25680   4.671   5.837   2.318
 8545SOL    HW125681   4.640   5.878   2.232
 8545SOL    HW225682   4.770   5.851   2.327
 8546SOL     OW25683   4.803   6.269   3.318
 8546SOL    HW125684   4.728   6.204   3.323
 8546SOL    HW225685   4.890   6.220   3.313
 8547SOL     OW25686   4.994   0.148   2.600
 8547SOL    HW125687   4.961   0.232   2.556
 8547SOL    HW225688   5.004   0.165   2.698
 8548SOL     OW25689   4.190   6.712   2.596
 8548SOL    HW125690   4.120   6.704   2.667
 8548SOL    HW225691   4.147   6.711   2.506
 8549SOL     OW25692   4.746   6.121   1.892
 8549SOL    HW125693   4.701   6.207   1.869
 8549SOL    HW225694   4.814   6.137   1.963
 8550SOL     OW25695   3.811   6.144   3.253
 8550SOL    HW125696   3.906   6.139   3.221
 8550SOL    HW225697   3.803   6.215   3.322
 8551SOL     OW25698   4.282   5.810   3.035
 8551SOL    HW125699   4.332   5.734   3.078
 8551SOL    HW225700   4.187   5.808   3.064
 8552SOL     OW25701   4.589   6.044   2.498
 8552SOL    HW125702   4.542   6.106   2.436
 8552SOL    HW225703   4.618   5.962   2.448
 8553SOL     OW25704   4.741   5.639   2.607
 8553SOL    HW125705   4.681   5.639   2.527
 8553SOL    HW225706   4.716   5.563   2.667
 8554SOL     OW25707   5.165   6.732   2.720
 8554SOL    HW125708   5.088   6.668   2.723
 8554SOL    HW225709   5.195   6.744   2.626
 8555SOL     OW25710   5.192   6.192   2.831
 8555SOL    HW125711   5.129   6.115   2.830
 8555SOL    HW225712   5.253   6.186   2.910
 8556SOL     OW25713   5.566   6.389   2.242
 8556SOL    HW125714   5.624   6.343   2.309
 8556SOL    HW225715   5.538   6.325   2.171
 8557SOL     OW25716   5.406   6.830   2.511
 8557SOL    HW125717   5.503   6.842   2.528
 8557SOL    HW225718   5.358   6.916   2.531
 8558SOL     OW25719   5.114   6.161   1.933
 8558SOL    HW125720   5.051   6.137   2.007
 8558SOL    HW225721   5.207   6.134   1.959
 8559SOL     OW25722   4.252   5.850   2.170
 8559SOL    HW125723   4.300   5.798   2.100
 8559SOL    HW225724   4.222   5.938   2.133
 8560SOL     OW25725   5.478   6.812   3.428
 8560SOL    HW125726   5.561   6.762   3.452
 8560SOL    HW225727   5.495   6.910   3.439
 8561SOL     OW25728   4.799   6.894   3.188
 8561SOL    HW125729   4.720   6.878   3.246
 8561SOL    HW225730   4.883   6.877   3.240
 8562SOL     OW25731   4.862   6.762   2.961
 8562SOL    HW125732   4.829   6.811   3.042
 8562SOL    HW225733   4.803   6.783   2.883
 8563SOL     OW25734   5.346   6.680   2.945
 8563SOL    HW125735   5.334   6.736   3.027
 8563SOL    HW225736   5.270   6.697   2.882
 8564SOL     OW25737   4.648   5.679   3.253
 8564SOL    HW125738   4.669   5.657   3.158
 8564SOL    HW225739   4.727   5.723   3.295
 8565SOL     OW25740   4.690   6.696   3.602
 8565SOL    HW125741   4.592   6.709   3.619
 8565SOL    HW225742   4.702   6.621   3.535
 8566SOL     OW25743   4.433   6.638   2.231
 8566SOL    HW125744   4.420   6.628   2.329
 8566SOL    HW225745   4.515   6.587   2.203
 8567SOL     OW25746   4.146   6.401   3.117
 8567SOL    HW125747   4.218   6.414   3.184
 8567SOL    HW225748   4.107   6.309   3.127
 8568SOL     OW25749   4.986   5.961   3.143
 8568SOL    HW125750   5.022   6.041   3.192
 8568SOL    HW225751   4.891   5.979   3.118
 8569SOL     OW25752   4.063   6.706   2.353
 8569SOL    HW125753   4.108   6.784   2.310
 8569SOL    HW225754   4.056   6.631   2.287
 8570SOL     OW25755   4.271   6.130   2.724
 8570SOL    HW125756   4.285   6.189   2.645
 8570SOL    HW225757   4.341   6.149   2.793
 8571SOL     OW25758   5.301   6.207   2.345
 8571SOL    HW125759   5.251   6.253   2.419
 8571SOL    HW225760   5.352   6.275   2.292
 8572SOL     OW25761   4.140   6.330   3.463
 8572SOL    HW125762   4.207   6.375   3.403
 8572SOL    HW225763   4.172   6.238   3.486
 8573SOL     OW25764   5.333   6.371   3.547
 8573SOL    HW125765   5.241   6.411   3.544
 8573SOL    HW225766   5.389   6.412   3.475
 8574SOL     OW25767   4.721   5.721   3.612
 8574SOL    HW125768   4.779   5.801   3.597
 8574SOL    HW225769   4.770   5.638   3.585
 8575SOL     OW25770   4.216   5.621   3.613
 8575SOL    HW125771   4.171   5.564   3.545
 8575SOL    HW225772   4.159   5.702   3.632
 8576SOL     OW25773   4.307   6.452   2.898
 8576SOL    HW125774   4.333   6.548   2.887
 8576SOL    HW225775   4.246   6.442   2.976
 8577SOL     OW25776   5.079   6.439   2.887
 8577SOL    HW125777   4.987   6.436   2.848
 8577SOL    HW225778   5.125   6.351   2.874
 8578SOL     OW25779   4.920   6.113   2.126
 8578SOL    HW125780   4.934   6.030   2.180
 8578SOL    HW225781   4.876   6.183   2.182
 8579SOL     OW25782   4.021   5.782   3.109
 8579SOL    HW125783   3.985   5.818   3.195
 8579SOL    HW225784   4.005   5.683   3.105
 8580SOL     OW25785   3.785   6.898   3.144
 8580SOL    HW125786   3.819   6.842   3.220
 8580SOL    HW225787   3.780   6.993   3.173
 8581SOL     OW25788   4.449   6.215   2.917
 8581SOL    HW125789   4.525   6.196   2.855
 8581SOL    HW225790   4.413   6.306   2.899
 8582SOL     OW25791   5.459   6.547   3.716
 8582SOL    HW125792   5.416   6.477   3.660
 8582SOL    HW225793   5.403   6.564   3.797
 8583SOL     OW25794   4.031   5.647   2.490
 8583SOL    HW125795   4.006   5.742   2.508
 8583SOL    HW225796   4.043   5.598   2.577
 8584SOL     OW25797   5.352   5.968   2.223
 8584SOL    HW125798   5.378   5.894   2.285
 8584SOL    HW225799   5.323   6.048   2.275
 8585SOL     OW25800   4.748   6.339   2.820
 8585SOL    HW125801   4.743   6.361   2.917
 8585SOL    HW225802   4.721   6.244   2.805
 8586SOL     OW25803   5.580   0.063   3.463
 8586SOL    HW125804   5.617   0.140   3.411
 8586SOL    HW225805   5.635   0.049   3.545
 8587SOL     OW25806   4.078   6.508   3.663
 8587SOL    HW125807   4.153   6.518   3.729
 8587SOL    HW225808   4.103   6.440   3.594
 8588SOL     OW25809   5.250   5.855   1.992
 8588SOL    HW125810   5.182   5.786   2.017
 8588SOL    HW225811   5.288   5.897   2.074
 8589SOL     OW25812   5.011   6.410   1.884
 8589SOL    HW125813   5.052   6.319   1.895
 8589SOL    HW225814   5.043   6.450   1.799
 8590SOL     OW25815   4.033   6.392   2.804
 8590SOL    HW125816   4.130   6.416   2.794
 8590SOL    HW225817   4.026   6.298   2.837
 8591SOL     OW25818   4.050   6.114   2.873
 8591SOL    HW125819   4.011   6.022   2.863
 8591SOL    HW225820   4.131   6.123   2.816
 8592SOL     OW25821   4.858   5.958   3.555
 8592SOL    HW125822   4.805   6.015   3.618
 8592SOL    HW225823   4.950   5.996   3.546
 8593SOL     OW25824   4.885   5.789   3.338
 8593SOL    HW125825   4.871   5.851   3.415
 8593SOL    HW225826   4.928   5.838   3.263
 8594SOL     OW25827   3.747   6.894   2.044
 8594SOL    HW125828   3.659   6.923   2.007
 8594SOL    HW225829   3.737   6.805   2.089
 8595SOL     OW25830   4.697   6.377   3.086
 8595SOL    HW125831   4.757   6.354   3.162
 8595SOL    HW225832   4.609   6.331   3.098
 8596SOL     OW25833   3.761   6.139   2.979
 8596SOL    HW125834   3.844   6.127   2.924
 8596SOL    HW225835   3.787   6.141   3.076
 8597SOL     OW25836   3.916   6.109   3.593
 8597SOL    HW125837   3.968   6.054   3.527
 8597SOL    HW225838   3.878   6.189   3.546
 8598SOL     OW25839   5.105   6.522   3.516
 8598SOL    HW125840   5.135   6.617   3.516
 8598SOL    HW225841   5.101   6.487   3.423
 8599SOL     OW25842   4.542   6.158   2.223
 8599SOL    HW125843   4.551   6.078   2.163
 8599SOL    HW225844   4.463   6.212   2.194
 8600SOL     OW25845   5.366   6.187   3.042
 8600SOL    HW125846   5.350   6.128   3.121
 8600SOL    HW225847   5.458   6.171   3.006
 8601SOL     OW25848   4.434   6.032   3.114
 8601SOL    HW125849   4.375   5.954   3.091
 8601SOL    HW225850   4.430   6.100   3.041
 8602SOL     OW25851   4.181   6.080   2.045
 8602SOL    HW125852   4.246   6.152   2.072
 8602SOL    HW225853   4.091   6.121   2.033
 8603SOL     OW25854   3.892   6.728   3.339
 8603SOL    HW125855   3.881   6.680   3.426
 8603SOL    HW225856   3.902   6.662   3.265
 8604SOL     OW25857   5.053   6.622   3.085
 8604SOL    HW125858   5.082   6.554   3.018
 8604SOL    HW225859   4.981   6.679   3.046
 8605SOL     OW25860   5.042   6.447   2.157
 8605SOL    HW125861   4.970   6.416   2.220
 8605SOL    HW225862   5.014   6.431   2.063
 8606SOL     OW25863   3.807   6.859   2.876
 8606SOL    HW125864   3.793   6.868   2.974
 8606SOL    HW225865   3.737   6.798   2.838
 8607SOL     OW25866   5.444   5.737   2.360
 8607SOL    HW125867   5.519   5.727   2.295
 8607SOL    HW225868   5.426   5.650   2.405
 8608SOL     OW25869   5.007   6.509   2.532
 8608SOL    HW125870   5.081   6.444   2.548
 8608SOL    HW225871   5.042   6.586   2.479
 8609SOL     OW25872   4.539   6.844   3.280
 8609SOL    HW125873   4.512   6.885   3.367
 8609SOL    HW225874   4.469   6.861   3.211
 8610SOL     OW25875   5.566   5.755   2.826
 8610SOL    HW125876   5.600   5.663   2.804
 8610SOL    HW225877   5.475   5.767   2.786
 8611SOL     OW25878   3.978   5.899   2.577
 8611SOL    HW125879   3.890   5.936   2.549
 8611SOL    HW225880   3.982   5.892   2.677
 8612SOL     OW25881   4.976   0.209   1.872
 8612SOL    HW125882   4.979   0.141   1.945
 8612SOL    HW225883   4.884   0.213   1.833
 8613SOL     OW25884   4.550   6.581   3.233
 8613SOL    HW125885   4.608   6.557   3.155
 8613SOL    HW225886   4.554   6.680   3.249
 8614SOL     OW25887   4.645   6.495   2.141
 8614SOL    HW125888   4.712   6.537   2.079
 8614SOL    HW225889   4.691   6.425   2.197
 8615SOL     OW25890   4.118   6.892   3.356
 8615SOL    HW125891   4.082   6.984   3.344
 8615SOL    HW225892   4.042   6.827   3.362
 8616SOL     OW25893   5.328   6.844   3.176
 8616SOL    HW125894   5.403   6.831   3.241
 8616SOL    HW225895   5.259   6.905   3.216
 8617SOL     OW25896   4.789   6.696   2.591
 8617SOL    HW125897   4.708   6.647   2.624
 8617SOL    HW225898   4.855   6.631   2.555
 8618SOL     OW25899   4.747   5.825   2.829
 8618SOL    HW125900   4.743   5.782   2.739
 8618SOL    HW225901   4.744   5.755   2.900
 8619SOL     OW25902   5.457   5.980   3.243
 8619SOL    HW125903   5.529   6.048   3.243
 8619SOL    HW225904   5.482   5.905   3.181
 8620SOL     OW25905   3.833   6.611   3.579
 8620SOL    HW125906   3.754   6.588   3.636
 8620SOL    HW225907   3.916   6.575   3.622
 8621SOL     OW25908   4.408   5.779   3.362
 8621SOL    HW125909   4.494   5.755   3.318
 8621SOL    HW225910   4.426   5.814   3.454
 8622SOL     OW25911   3.806   5.913   1.890
 8622SOL    HW125912   3.714   5.889   1.858
 8622SOL    HW225913   3.837   5.995   1.842
 8623SOL     OW25914   5.150   6.437   3.260
 8623SOL    HW125915   5.096   6.501   3.206
 8623SOL    HW225916   5.245   6.437   3.228
 8624SOL     OW25917   3.786   5.741   2.163
 8624SOL    HW125918   3.770   5.825   2.112
 8624SOL    HW225919   3.875   5.702   2.136
 8625SOL     OW25920   4.347   6.413   3.297
 8625SOL    HW125921   4.406   6.491   3.277
 8625SOL    HW225922   4.403   6.331   3.306
 8626SOL     OW25923   4.447   6.143   3.565
 8626SOL    HW125924   4.492   6.209   3.624
 8626SOL    HW225925   4.465   6.050   3.598
 8627SOL     OW25926   5.210   6.777   3.508
 8627SOL    HW125927   5.197   6.797   3.605
 8627SOL    HW225928   5.306   6.792   3.484
 8628SOL     OW25929   5.390   6.460   3.116
 8628SOL    HW125930   5.384   6.369   3.074
 8628SOL    HW225931   5.377   6.530   3.045
 8629SOL     OW25932   4.944   5.903   2.321
 8629SOL    HW125933   5.007   5.826   2.312
 8629SOL    HW225934   4.970   5.958   2.400
 8630SOL     OW25935   4.309   6.323   2.531
 8630SOL    HW125936   4.351   6.413   2.521
 8630SOL    HW225937   4.240   6.309   2.460
 8631SOL     OW25938   5.474   5.950   3.515
 8631SOL    HW125939   5.465   5.967   3.417
 8631SOL    HW225940   5.399   5.891   3.545
 8632SOL     OW25941   5.469   6.519   3.368
 8632SOL    HW125942   5.461   6.618   3.385
 8632SOL    HW225943   5.453   6.501   3.272
 8633SOL     OW25944   4.592   6.552   2.720
 8633SOL    HW125945   4.645   6.474   2.754
 8633SOL    HW225946   4.560   6.607   2.797
 8634SOL     OW25947   4.817   6.588   1.953
 8634SOL    HW125948   4.776   6.634   1.875
 8634SOL    HW225949   4.883   6.520   1.920
 8635SOL     OW25950   3.936   6.911   3.672
 8635SOL    HW125951   3.879   6.829   3.683
 8635SOL    HW225952   3.949   6.954   3.762
 8636SOL     OW25953   3.818   6.819   2.536
 8636SOL    HW125954   3.839   6.759   2.613
 8636SOL    HW225955   3.880   6.798   2.460
 8637SOL     OW25956   4.427   6.972   3.493
 8637SOL    HW125957   4.330   6.967   3.517
 8637SOL    HW225958   4.451   0.065   3.468
 8638SOL     OW25959   5.528   5.768   3.096
 8638SOL    HW125960   5.542   5.672   3.120
 8638SOL    HW225961   5.541   5.780   2.997
 8639SOL     OW25962   4.154   6.013   2.388
 8639SOL    HW125963   4.188   5.943   2.326
 8639SOL    HW225964   4.099   5.970   2.460
 8640SOL     OW25965   5.367   0.044   3.002
 8640SOL    HW125966   5.321   0.027   2.915
 8640SOL    HW225967   5.362   6.961   3.059
 8641SOL     OW25968   4.060   6.142   3.151
 8641SOL    HW125969   4.116   6.085   3.210
 8641SOL    HW225970   4.074   6.116   3.055
 8642SOL     OW25971   5.154   5.817   2.979
 8642SOL    HW125972   5.175   5.727   3.015
 8642SOL    HW225973   5.100   5.868   3.046
 8643SOL     OW25974   4.734   5.602   2.999
 8643SOL    HW125975   4.670   5.539   2.954
 8643SOL    HW225976   4.825   5.561   3.000
 8644SOL     OW25977   4.480   6.908   2.130
 8644SOL    HW125978   4.460   6.812   2.150
 8644SOL    HW225979   4.517   6.952   2.212
 8645SOL     OW25980   5.079   5.635   2.033
 8645SOL    HW125981   5.123   5.567   1.974
 8645SOL    HW225982   4.986   5.607   2.054
 8646SOL     OW25983   5.014   6.050   2.542
 8646SOL    HW125984   4.961   6.135   2.543
 8646SOL    HW225985   5.013   6.008   2.633
 8647SOL     OW25986   5.310   5.789   2.747
 8647SOL    HW125987   5.252   5.809   2.826
 8647SOL    HW225988   5.312   5.868   2.686
 8648SOL     OW25989   3.760   6.645   2.173
 8648SOL    HW125990   3.858   6.651   2.152
 8648SOL    HW225991   3.737   6.551   2.195
 8649SOL     OW25992   3.944   6.206   3.852
 8649SOL    HW125993   3.853   6.204   3.893
 8649SOL    HW225994   3.937   6.183   3.755
 8650SOL     OW25995   3.946   5.869   4.719
 8650SOL    HW125996   3.979   5.835   4.807
 8650SOL    HW225997   3.853   5.836   4.702
 8651SOL     OW25998   3.724   5.972   4.358
 8651SOL    HW125999   3.640   6.003   4.404
 8651SOL    HW226000   3.705   5.889   4.306
 8652SOL     OW26001   4.293   6.874   4.900
 8652SOL    HW126002   4.219   6.883   4.834
 8652SOL    HW226003   4.262   6.907   4.989
 8653SOL     OW26004   5.266   0.054   4.413
 8653SOL    HW126005   5.246   0.050   4.511
 8653SOL    HW226006   5.186   0.089   4.364
 8654SOL     OW26007   4.856   6.287   4.418
 8654SOL    HW126008   4.908   6.371   4.402
 8654SOL    HW226009   4.805   6.295   4.504
 8655SOL     OW26010   5.496   6.181   3.945
 8655SOL    HW126011   5.471   6.178   3.849
 8655SOL    HW226012   5.456   6.103   3.993
 8656SOL     OW26013   4.487   6.749   4.748
 8656SOL    HW126014   4.420   6.786   4.812
 8656SOL    HW226015   4.484   6.801   4.663
 8657SOL     OW26016   4.601   6.349   5.547
 8657SOL    HW126017   4.585   6.415   5.620
 8657SOL    HW226018   4.625   6.397   5.463
 8658SOL     OW26019   4.411   6.582   4.371
 8658SOL    HW126020   4.481   6.572   4.442
 8658SOL    HW226021   4.335   6.636   4.407
 8659SOL     OW26022   4.415   6.733   5.539
 8659SOL    HW126023   4.451   6.824   5.559
 8659SOL    HW226024   4.338   6.741   5.475
 8660SOL     OW26025   4.061   0.005   4.782
 8660SOL    HW126026   3.981   6.960   4.742
 8660SOL    HW226027   4.107   0.059   4.712
 8661SOL     OW26028   4.175   5.979   5.201
 8661SOL    HW126029   4.256   5.921   5.209
 8661SOL    HW226030   4.093   5.924   5.221
 8662SOL     OW26031   5.334   6.031   4.469
 8662SOL    HW126032   5.259   6.050   4.405
 8662SOL    HW226033   5.341   6.106   4.535
 8663SOL     OW26034   3.984   6.676   4.627
 8663SOL    HW126035   3.982   6.581   4.659
 8663SOL    HW226036   3.923   6.731   4.684
 8664SOL     OW26037   4.302   6.566   3.868
 8664SOL    HW126038   4.347   6.616   3.793
 8664SOL    HW226039   4.343   6.592   3.955
 8665SOL     OW26040   5.321   5.711   5.193
 8665SOL    HW126041   5.342   5.791   5.137
 8665SOL    HW226042   5.305   5.740   5.287
 8666SOL     OW26043   3.839   6.245   4.289
 8666SOL    HW126044   3.809   6.152   4.307
 8666SOL    HW226045   3.832   6.299   4.374
 8667SOL     OW26046   5.413   6.502   4.369
 8667SOL    HW126047   5.502   6.458   4.355
 8667SOL    HW226048   5.391   6.558   4.289
 8668SOL     OW26049   5.377   6.691   4.151
 8668SOL    HW126050   5.466   6.684   4.105
 8668SOL    HW226051   5.385   6.750   4.231
 8669SOL     OW26052   3.851   6.331   5.309
 8669SOL    HW126053   3.948   6.354   5.309
 8669SOL    HW226054   3.797   6.415   5.317
 8670SOL     OW26055   5.039   6.817   5.154
 8670SOL    HW126056   5.062   6.746   5.088
 8670SOL    HW226057   5.098   6.807   5.235
 8671SOL     OW26058   4.542   5.596   4.232
 8671SOL    HW126059   4.588   5.682   4.209
 8671SOL    HW226060   4.443   5.612   4.240
 8672SOL     OW26061   3.915   6.550   5.000
 8672SOL    HW126062   4.003   6.503   4.986
 8672SOL    HW226063   3.844   6.502   4.949
 8673SOL     OW26064   5.260   6.589   3.926
 8673SOL    HW126065   5.186   6.528   3.955
 8673SOL    HW226066   5.308   6.623   4.007
 8674SOL     OW26067   4.067   5.835   5.559
 8674SOL    HW126068   4.115   5.920   5.576
 8674SOL    HW226069   3.969   5.848   5.577
 8675SOL     OW26070   5.183   6.987   4.671
 8675SOL    HW126071   5.113   0.014   4.738
 8675SOL    HW226072   5.166   6.894   4.640
 8676SOL     OW26073   4.318   6.302   3.999
 8676SOL    HW126074   4.323   6.388   3.948
 8676SOL    HW226075   4.250   6.310   4.071
 8677SOL     OW26076   5.001   5.947   4.658
 8677SOL    HW126077   4.908   5.912   4.664
 8677SOL    HW226078   5.061   5.894   4.719
 8678SOL     OW26079   4.514   6.197   5.173
 8678SOL    HW126080   4.489   6.173   5.267
 8678SOL    HW226081   4.477   6.128   5.111
 8679SOL     OW26082   5.115   6.056   5.404
 8679SOL    HW126083   5.116   6.105   5.491
 8679SOL    HW226084   5.175   5.976   5.410
 8680SOL     OW26085   4.679   6.473   5.309
 8680SOL    HW126086   4.738   6.400   5.273
 8680SOL    HW226087   4.624   6.511   5.235
 8681SOL     OW26088   4.718   5.991   4.952
 8681SOL    HW126089   4.627   6.011   4.988
 8681SOL    HW226090   4.709   5.943   4.865
 8682SOL     OW26091   4.774   6.285   4.148
 8682SOL    HW126092   4.796   6.281   4.246
 8682SOL    HW226093   4.688   6.238   4.131
 8683SOL     OW26094   3.810   6.414   4.504
 8683SOL    HW126095   3.896   6.402   4.554
 8683SOL    HW226096   3.759   6.491   4.542
 8684SOL     OW26097   4.620   5.938   3.921
 8684SOL    HW126098   4.661   6.006   3.859
 8684SOL    HW226099   4.628   5.847   3.880
 8685SOL     OW26100   5.424   6.158   5.550
 8685SOL    HW126101   5.389   6.237   5.499
 8685SOL    HW226102   5.454   6.088   5.485
 8686SOL     OW26103   5.112   6.722   4.271
 8686SOL    HW126104   5.193   6.714   4.212
 8686SOL    HW226105   5.061   6.804   4.247
 8687SOL     OW26106   4.271   5.758   4.625
 8687SOL    HW126107   4.275   5.788   4.721
 8687SOL    HW226108   4.274   5.838   4.565
 8688SOL     OW26109   5.522   6.638   4.602
 8688SOL    HW126110   5.471   6.629   4.517
 8688SOL    HW226111   5.459   6.645   4.679
 8689SOL     OW26112   4.045   6.546   3.983
 8689SOL    HW126113   4.133   6.563   3.939
 8689SOL    HW226114   4.006   6.461   3.949
 8690SOL     OW26115   5.209   6.333   4.446
 8690SOL    HW126116   5.205   6.291   4.537
 8690SOL    HW226117   5.288   6.394   4.441
 8691SOL     OW26118   3.926   5.859   5.227
 8691SOL    HW126119   3.845   5.917   5.224
 8691SOL    HW226120   3.904   5.772   5.270
 8692SOL     OW26121   5.364   6.970   3.810
 8692SOL    HW126122   5.331   0.062   3.828
 8692SOL    HW226123   5.286   6.909   3.795
 8693SOL     OW26124   5.125   5.690   4.162
 8693SOL    HW126125   5.113   5.664   4.066
 8693SOL    HW226126   5.222   5.699   4.182
 8694SOL     OW26127   4.120   6.273   4.198
 8694SOL    HW126128   4.139   6.176   4.212
 8694SOL    HW226129   4.023   6.291   4.216
 8695SOL     OW26130   5.251   5.809   5.452
 8695SOL    HW126131   5.262   5.830   5.549
 8695SOL    HW226132   5.179   5.740   5.440
 8696SOL     OW26133   4.366   5.702   3.825
 8696SOL    HW126134   4.433   5.632   3.848
 8696SOL    HW226135   4.309   5.671   3.749
 8697SOL     OW26136   4.487   5.862   5.481
 8697SOL    HW126137   4.572   5.810   5.475
 8697SOL    HW226138   4.436   5.832   5.562
 8698SOL     OW26139   5.063   6.174   5.160
 8698SOL    HW126140   5.093   6.138   5.249
 8698SOL    HW226141   5.099   6.266   5.147
 8699SOL     OW26142   4.651   6.092   4.621
 8699SOL    HW126143   4.625   6.085   4.525
 8699SOL    HW226144   4.683   6.003   4.654
 8700SOL     OW26145   4.271   5.650   4.217
 8700SOL    HW126146   4.190   5.648   4.275
 8700SOL    HW226147   4.268   5.730   4.158
 8701SOL     OW26148   5.142   6.788   3.784
 8701SOL    HW126149   5.196   6.718   3.831
 8701SOL    HW226150   5.049   6.754   3.768
 8702SOL     OW26151   4.014   5.634   3.910
 8702SOL    HW126152   4.066   5.706   3.863
 8702SOL    HW226153   4.077   5.570   3.953
 8703SOL     OW26154   4.671   5.837   4.180
 8703SOL    HW126155   4.640   5.878   4.094
 8703SOL    HW226156   4.770   5.851   4.189
 8704SOL     OW26157   4.803   6.270   5.180
 8704SOL    HW126158   4.728   6.204   5.185
 8704SOL    HW226159   4.890   6.220   5.175
 8705SOL     OW26160   4.994   0.148   4.462
 8705SOL    HW126161   4.961   0.232   4.418
 8705SOL    HW226162   5.004   0.164   4.560
 8706SOL     OW26163   4.190   6.712   4.458
 8706SOL    HW126164   4.120   6.704   4.529
 8706SOL    HW226165   4.147   6.711   4.368
 8707SOL     OW26166   4.746   6.121   3.754
 8707SOL    HW126167   4.701   6.207   3.731
 8707SOL    HW226168   4.814   6.137   3.825
 8708SOL     OW26169   3.811   6.144   5.115
 8708SOL    HW126170   3.906   6.139   5.083
 8708SOL    HW226171   3.803   6.215   5.184
 8709SOL     OW26172   4.282   5.810   4.897
 8709SOL    HW126173   4.332   5.734   4.940
 8709SOL    HW226174   4.187   5.808   4.926
 8710SOL     OW26175   4.589   6.044   4.360
 8710SOL    HW126176   4.542   6.106   4.298
 8710SOL    HW226177   4.618   5.962   4.310
 8711SOL     OW26178   4.741   5.639   4.469
 8711SOL    HW126179   4.681   5.639   4.389
 8711SOL    HW226180   4.716   5.563   4.529
 8712SOL     OW26181   5.165   6.732   4.582
 8712SOL    HW126182   5.088   6.668   4.585
 8712SOL    HW226183   5.195   6.744   4.488
 8713SOL     OW26184   5.192   6.192   4.693
 8713SOL    HW126185   5.129   6.115   4.692
 8713SOL    HW226186   5.253   6.186   4.772
 8714SOL     OW26187   5.566   6.390   4.104
 8714SOL    HW126188   5.624   6.343   4.171
 8714SOL    HW226189   5.538   6.325   4.033
 8715SOL     OW26190   5.406   6.830   4.373
 8715SOL    HW126191   5.504   6.842   4.390
 8715SOL    HW226192   5.358   6.916   4.392
 8716SOL     OW26193   5.114   6.161   3.795
 8716SOL    HW126194   5.051   6.137   3.869
 8716SOL    HW226195   5.207   6.134   3.821
 8717SOL     OW26196   4.252   5.850   4.032
 8717SOL    HW126197   4.300   5.798   3.962
 8717SOL    HW226198   4.222   5.938   3.995
 8718SOL     OW26199   5.478   6.812   5.290
 8718SOL    HW126200   5.561   6.762   5.313
 8718SOL    HW226201   5.495   6.910   5.300
 8719SOL     OW26202   4.799   6.894   5.050
 8719SOL    HW126203   4.720   6.878   5.108
 8719SOL    HW226204   4.883   6.877   5.102
 8720SOL     OW26205   4.862   6.762   4.823
 8720SOL    HW126206   4.829   6.811   4.904
 8720SOL    HW226207   4.803   6.783   4.745
 8721SOL     OW26208   5.346   6.680   4.807
 8721SOL    HW126209   5.334   6.736   4.888
 8721SOL    HW226210   5.270   6.697   4.744
 8722SOL     OW26211   4.648   5.679   5.115
 8722SOL    HW126212   4.669   5.657   5.020
 8722SOL    HW226213   4.727   5.723   5.157
 8723SOL     OW26214   4.690   6.696   5.463
 8723SOL    HW126215   4.592   6.709   5.481
 8723SOL    HW226216   4.702   6.622   5.397
 8724SOL     OW26217   4.433   6.638   4.093
 8724SOL    HW126218   4.420   6.628   4.191
 8724SOL    HW226219   4.515   6.587   4.065
 8725SOL     OW26220   4.146   6.401   4.979
 8725SOL    HW126221   4.218   6.414   5.046
 8725SOL    HW226222   4.107   6.309   4.989
 8726SOL     OW26223   4.986   5.961   5.005
 8726SOL    HW126224   5.022   6.041   5.054
 8726SOL    HW226225   4.891   5.979   4.980
 8727SOL     OW26226   4.063   6.706   4.215
 8727SOL    HW126227   4.108   6.784   4.172
 8727SOL    HW226228   4.057   6.631   4.149
 8728SOL     OW26229   4.271   6.129   4.586
 8728SOL    HW126230   4.285   6.189   4.507
 8728SOL    HW226231   4.341   6.149   4.655
 8729SOL     OW26232   5.301   6.207   4.207
 8729SOL    HW126233   5.251   6.253   4.281
 8729SOL    HW226234   5.352   6.275   4.154
 8730SOL     OW26235   4.140   6.330   5.325
 8730SOL    HW126236   4.207   6.375   5.265
 8730SOL    HW226237   4.172   6.238   5.348
 8731SOL     OW26238   5.333   6.371   5.409
 8731SOL    HW126239   5.241   6.411   5.406
 8731SOL    HW226240   5.389   6.412   5.337
 8732SOL     OW26241   4.721   5.721   5.474
 8732SOL    HW126242   4.779   5.801   5.459
 8732SOL    HW226243   4.770   5.638   5.447
 8733SOL     OW26244   4.216   5.621   5.475
 8733SOL    HW126245   4.171   5.564   5.407
 8733SOL    HW226246   4.159   5.701   5.494
 8734SOL     OW26247   4.307   6.452   4.760
 8734SOL    HW126248   4.333   6.548   4.749
 8734SOL    HW226249   4.246   6.442   4.838
 8735SOL     OW26250   5.079   6.439   4.749
 8735SOL    HW126251   4.987   6.436   4.710
 8735SOL    HW226252   5.125   6.351   4.736
 8736SOL     OW26253   4.920   6.113   3.988
 8736SOL    HW126254   4.934   6.030   4.042
 8736SOL    HW226255   4.876   6.183   4.044
 8737SOL     OW26256   4.020   5.782   4.971
 8737SOL    HW126257   3.985   5.818   5.057
 8737SOL    HW226258   4.005   5.683   4.967
 8738SOL     OW26259   3.785   6.898   5.006
 8738SOL    HW126260   3.819   6.842   5.082
 8738SOL    HW226261   3.780   6.993   5.034
 8739SOL     OW26262   4.449   6.215   4.779
 8739SOL    HW126263   4.525   6.196   4.717
 8739SOL    HW226264   4.413   6.306   4.761
 8740SOL     OW26265   5.459   6.547   5.578
 8740SOL    HW126266   5.416   6.477   5.522
 8740SOL    HW226267   5.403   6.564   5.659
 8741SOL     OW26268   4.031   5.647   4.352
 8741SOL    HW126269   4.006   5.742   4.370
 8741SOL    HW226270   4.043   5.598   4.439
 8742SOL     OW26271   5.351   5.968   4.085
 8742SOL    HW126272   5.378   5.894   4.147
 8742SOL    HW226273   5.323   6.048   4.137
 8743SOL     OW26274   4.748   6.339   4.682
 8743SOL    HW126275   4.743   6.361   4.779
 8743SOL    HW226276   4.721   6.244   4.667
 8744SOL     OW26277   5.580   0.063   5.325
 8744SOL    HW126278   5.617   0.140   5.273
 8744SOL    HW226279   5.634   0.050   5.407
 8745SOL     OW26280   4.078   6.508   5.525
 8745SOL    HW126281   4.154   6.518   5.591
 8745SOL    HW226282   4.103   6.440   5.456
 8746SOL     OW26283   5.250   5.855   3.854
 8746SOL    HW126284   5.182   5.786   3.879
 8746SOL    HW226285   5.288   5.897   3.936
 8747SOL     OW26286   5.011   6.410   3.746
 8747SOL    HW126287   5.052   6.319   3.757
 8747SOL    HW226288   5.043   6.450   3.661
 8748SOL     OW26289   4.033   6.392   4.666
 8748SOL    HW126290   4.130   6.416   4.656
 8748SOL    HW226291   4.026   6.298   4.699
 8749SOL     OW26292   4.050   6.114   4.735
 8749SOL    HW126293   4.011   6.022   4.725
 8749SOL    HW226294   4.131   6.123   4.678
 8750SOL     OW26295   4.858   5.958   5.417
 8750SOL    HW126296   4.805   6.015   5.480
 8750SOL    HW226297   4.950   5.996   5.408
 8751SOL     OW26298   4.886   5.789   5.200
 8751SOL    HW126299   4.871   5.851   5.277
 8751SOL    HW226300   4.928   5.838   5.125
 8752SOL     OW26301   3.747   6.894   3.906
 8752SOL    HW126302   3.659   6.923   3.869
 8752SOL    HW226303   3.737   6.805   3.951
 8753SOL     OW26304   4.697   6.377   4.948
 8753SOL    HW126305   4.757   6.354   5.024
 8753SOL    HW226306   4.609   6.331   4.960
 8754SOL     OW26307   3.761   6.139   4.841
 8754SOL    HW126308   3.844   6.127   4.786
 8754SOL    HW226309   3.787   6.141   4.938
 8755SOL     OW26310   3.916   6.109   5.455
 8755SOL    HW126311   3.968   6.054   5.389
 8755SOL    HW226312   3.878   6.189   5.408
 8756SOL     OW26313   5.105   6.522   5.378
 8756SOL    HW126314   5.135   6.617   5.378
 8756SOL    HW226315   5.101   6.487   5.285
 8757SOL     OW26316   4.542   6.158   4.085
 8757SOL    HW126317   4.551   6.078   4.025
 8757SOL    HW226318   4.463   6.212   4.056
 8758SOL     OW26319   5.366   6.187   4.904
 8758SOL    HW126320   5.350   6.128   4.983
 8758SOL    HW226321   5.458   6.171   4.868
 8759SOL     OW26322   4.434   6.032   4.976
 8759SOL    HW126323   4.375   5.954   4.953
 8759SOL    HW226324   4.430   6.100   4.903
 8760SOL     OW26325   4.181   6.080   3.908
 8760SOL    HW126326   4.246   6.152   3.934
 8760SOL    HW226327   4.091   6.121   3.895
 8761SOL     OW26328   3.892   6.728   5.201
 8761SOL    HW126329   3.881   6.680   5.288
 8761SOL    HW226330   3.902   6.662   5.127
 8762SOL     OW26331   5.053   6.622   4.947
 8762SOL    HW126332   5.082   6.554   4.880
 8762SOL    HW226333   4.981   6.679   4.908
 8763SOL     OW26334   5.042   6.447   4.019
 8763SOL    HW126335   4.970   6.416   4.082
 8763SOL    HW226336   5.014   6.431   3.925
 8764SOL     OW26337   3.807   6.859   4.738
 8764SOL    HW126338   3.793   6.868   4.836
 8764SOL    HW226339   3.737   6.798   4.700
 8765SOL     OW26340   5.444   5.737   4.222
 8765SOL    HW126341   5.519   5.727   4.157
 8765SOL    HW226342   5.426   5.650   4.267
 8766SOL     OW26343   5.007   6.509   4.394
 8766SOL    HW126344   5.081   6.444   4.410
 8766SOL    HW226345   5.042   6.586   4.341
 8767SOL     OW26346   4.539   6.844   5.142
 8767SOL    HW126347   4.512   6.885   5.229
 8767SOL    HW226348   4.469   6.861   5.074
 8768SOL     OW26349   5.566   5.755   4.688
 8768SOL    HW126350   5.600   5.663   4.665
 8768SOL    HW226351   5.475   5.767   4.648
 8769SOL     OW26352   3.978   5.899   4.439
 8769SOL    HW126353   3.890   5.936   4.411
 8769SOL    HW226354   3.982   5.892   4.539
 8770SOL     OW26355   4.975   0.209   3.734
 8770SOL    HW126356   4.979   0.141   3.807
 8770SOL    HW226357   4.883   0.212   3.695
 8771SOL     OW26358   4.550   6.581   5.095
 8771SOL    HW126359   4.608   6.557   5.017
 8771SOL    HW226360   4.554   6.680   5.111
 8772SOL     OW26361   4.645   6.495   4.003
 8772SOL    HW126362   4.712   6.537   3.941
 8772SOL    HW226363   4.691   6.426   4.059
 8773SOL     OW26364   4.118   6.892   5.218
 8773SOL    HW126365   4.082   6.984   5.206
 8773SOL    HW226366   4.042   6.827   5.223
 8774SOL     OW26367   5.328   6.844   5.038
 8774SOL    HW126368   5.403   6.831   5.103
 8774SOL    HW226369   5.259   6.904   5.078
 8775SOL     OW26370   4.789   6.696   4.453
 8775SOL    HW126371   4.708   6.647   4.486
 8775SOL    HW226372   4.855   6.631   4.417
 8776SOL     OW26373   4.747   5.825   4.691
 8776SOL    HW126374   4.743   5.782   4.601
 8776SOL    HW226375   4.744   5.755   4.762
 8777SOL     OW26376   5.457   5.980   5.105
 8777SOL    HW126377   5.529   6.048   5.105
 8777SOL    HW226378   5.482   5.905   5.043
 8778SOL     OW26379   3.833   6.611   5.441
 8778SOL    HW126380   3.754   6.588   5.498
 8778SOL    HW226381   3.916   6.575   5.484
 8779SOL     OW26382   4.408   5.779   5.224
 8779SOL    HW126383   4.494   5.755   5.180
 8779SOL    HW226384   4.426   5.813   5.316
 8780SOL     OW26385   3.806   5.913   3.752
 8780SOL    HW126386   3.714   5.889   3.720
 8780SOL    HW226387   3.838   5.995   3.704
 8781SOL     OW26388   5.150   6.437   5.122
 8781SOL    HW126389   5.096   6.501   5.068
 8781SOL    HW226390   5.245   6.437   5.089
 8782SOL     OW26391   3.786   5.741   4.025
 8782SOL    HW126392   3.770   5.825   3.974
 8782SOL    HW226393   3.875   5.702   3.998
 8783SOL     OW26394   4.347   6.413   5.159
 8783SOL    HW126395   4.406   6.491   5.139
 8783SOL    HW226396   4.403   6.331   5.168
 8784SOL     OW26397   4.447   6.143   5.427
 8784SOL    HW126398   4.492   6.209   5.486
 8784SOL    HW226399   4.465   6.050   5.460
 8785SOL     OW26400   5.210   6.777   5.370
 8785SOL    HW126401   5.197   6.797   5.467
 8785SOL    HW226402   5.306   6.792   5.346
 8786SOL     OW26403   5.390   6.460   4.978
 8786SOL    HW126404   5.384   6.369   4.936
 8786SOL    HW226405   5.377   6.530   4.907
 8787SOL     OW26406   4.944   5.903   4.183
 8787SOL    HW126407   5.007   5.826   4.174
 8787SOL    HW226408   4.970   5.958   4.262
 8788SOL     OW26409   4.309   6.323   4.394
 8788SOL    HW126410   4.351   6.413   4.383
 8788SOL    HW226411   4.240   6.309   4.322
 8789SOL     OW26412   5.474   5.950   5.377
 8789SOL    HW126413   5.465   5.967   5.278
 8789SOL    HW226414   5.399   5.891   5.407
 8790SOL     OW26415   5.469   6.519   5.230
 8790SOL    HW126416   5.461   6.618   5.247
 8790SOL    HW226417   5.453   6.501   5.134
 8791SOL     OW26418   4.592   6.552   4.582
 8791SOL    HW126419   4.645   6.474   4.616
 8791SOL    HW226420   4.560   6.607   4.659
 8792SOL     OW26421   4.817   6.588   3.815
 8792SOL    HW126422   4.776   6.634   3.737
 8792SOL    HW226423   4.883   6.520   3.782
 8793SOL     OW26424   3.936   6.911   5.535
 8793SOL    HW126425   3.879   6.829   5.545
 8793SOL    HW226426   3.948   6.954   5.624
 8794SOL     OW26427   3.818   6.819   4.398
 8794SOL    HW126428   3.839   6.759   4.475
 8794SOL    HW226429   3.880   6.799   4.322
 8795SOL     OW26430   4.427   6.971   5.355
 8795SOL    HW126431   4.330   6.967   5.379
 8795SOL    HW226432   4.451   0.065   5.331
 8796SOL     OW26433   5.528   5.768   4.957
 8796SOL    HW126434   5.543   5.672   4.982
 8796SOL    HW226435   5.541   5.780   4.859
 8797SOL     OW26436   4.154   6.013   4.250
 8797SOL    HW126437   4.188   5.943   4.188
 8797SOL    HW226438   4.099   5.970   4.322
 8798SOL     OW26439   5.367   0.044   4.864
 8798SOL    HW126440   5.321   0.027   4.777
 8798SOL    HW226441   5.363   6.961   4.921
 8799SOL     OW26442   4.060   6.142   5.013
 8799SOL    HW126443   4.116   6.085   5.072
 8799SOL    HW226444   4.074   6.116   4.917
 8800SOL     OW26445   5.154   5.817   4.841
 8800SOL    HW126446   5.176   5.727   4.878
 8800SOL    HW226447   5.100   5.868   4.908
 8801SOL     OW26448   4.734   5.602   4.861
 8801SOL    HW126449   4.670   5.539   4.816
 8801SOL    HW226450   4.825   5.561   4.862
 8802SOL     OW26451   4.480   6.909   3.992
 8802SOL    HW126452   4.460   6.812   4.012
 8802SOL    HW226453   4.517   6.952   4.074
 8803SOL     OW26454   5.079   5.635   3.895
 8803SOL    HW126455   5.122   5.567   3.836
 8803SOL    HW226456   4.986   5.607   3.916
 8804SOL     OW26457   5.014   6.050   4.404
 8804SOL    HW126458   4.961   6.135   4.405
 8804SOL    HW226459   5.013   6.008   4.495
 8805SOL     OW26460   5.310   5.789   4.609
 8805SOL    HW126461   5.252   5.809   4.688
 8805SOL    HW226462   5.312   5.868   4.548
 8806SOL     OW26463   3.760   6.645   4.035
 8806SOL    HW126464   3.858   6.651   4.014
 8806SOL    HW226465   3.737   6.551   4.057
 8807SOL     OW26466   3.944   6.206   5.714
 8807SOL    HW126467   3.852   6.204   5.755
 8807SOL    HW226468   3.937   6.183   5.617
 8808SOL     OW26469   3.944   5.875   6.583
 8808SOL    HW126470   3.981   5.836   6.667
 8808SOL    HW226471   3.853   5.838   6.566
 8809SOL     OW26472   3.723   5.972   6.221
 8809SOL    HW126473   3.639   6.003   6.266
 8809SOL    HW226474   3.704   5.889   6.169
 8810SOL     OW26475   4.284   6.880   6.771
 8810SOL    HW126476   4.217   6.898   6.699
 8810SOL    HW226477   4.236   6.875   6.859
 8811SOL     OW26478   5.266   0.055   6.274
 8811SOL    HW126479   5.243   0.048   6.371
 8811SOL    HW226480   5.187   0.091   6.224
 8812SOL     OW26481   4.855   6.287   6.280
 8812SOL    HW126482   4.907   6.371   6.266
 8812SOL    HW226483   4.803   6.294   6.366
 8813SOL     OW26484   5.497   6.181   5.807
 8813SOL    HW126485   5.472   6.178   5.710
 8813SOL    HW226486   5.457   6.104   5.855
 8814SOL     OW26487   4.476   6.740   6.615
 8814SOL    HW126488   4.414   6.783   6.680
 8814SOL    HW226489   4.487   6.800   6.535
 8815SOL     OW26490   4.410   6.582   6.233
 8815SOL    HW126491   4.481   6.572   6.303
 8815SOL    HW226492   4.335   6.636   6.270
 8816SOL     OW26493   4.061   0.011   6.640
 8816SOL    HW126494   3.982   6.963   6.603
 8816SOL    HW226495   4.105   0.065   6.568
 8817SOL     OW26496   5.334   6.033   6.330
 8817SOL    HW126497   5.259   6.049   6.266
 8817SOL    HW226498   5.334   6.105   6.400
 8818SOL     OW26499   3.986   6.677   6.493
 8818SOL    HW126500   3.982   6.582   6.526
 8818SOL    HW226501   3.925   6.733   6.549
 8819SOL     OW26502   4.302   6.566   5.729
 8819SOL    HW126503   4.347   6.616   5.655
 8819SOL    HW226504   4.343   6.591   5.817
 8820SOL     OW26505   3.839   6.245   6.151
 8820SOL    HW126506   3.809   6.152   6.169
 8820SOL    HW226507   3.833   6.299   6.236
 8821SOL     OW26508   5.414   6.503   6.228
 8821SOL    HW126509   5.500   6.456   6.211
 8821SOL    HW226510   5.390   6.559   6.148
 8822SOL     OW26511   5.377   6.691   6.012
 8822SOL    HW126512   5.466   6.684   5.967
 8822SOL    HW226513   5.385   6.751   6.092
 8823SOL     OW26514   4.542   5.596   6.095
 8823SOL    HW126515   4.588   5.682   6.072
 8823SOL    HW226516   4.444   5.612   6.102
 8824SOL     OW26517   3.915   6.555   6.837
 8824SOL    HW126518   3.998   6.500   6.824
 8824SOL    HW226519   3.835   6.501   6.811
 8825SOL     OW26520   5.260   6.588   5.788
 8825SOL    HW126521   5.186   6.527   5.817
 8825SOL    HW226522   5.308   6.624   5.868
 8826SOL     OW26523   5.179   6.994   6.529
 8826SOL    HW126524   5.118   0.020   6.603
 8826SOL    HW226525   5.162   6.899   6.504
 8827SOL     OW26526   4.318   6.302   5.861
 8827SOL    HW126527   4.323   6.388   5.809
 8827SOL    HW226528   4.250   6.310   5.933
 8828SOL     OW26529   4.999   5.944   6.518
 8828SOL    HW126530   4.905   5.910   6.525
 8828SOL    HW226531   5.058   5.894   6.581
 8829SOL     OW26532   4.519   6.186   0.050
 8829SOL    HW126533   4.458   6.235   0.112
 8829SOL    HW226534   4.466   6.135   6.983
 8830SOL     OW26535   4.729   5.979   6.797
 8830SOL    HW126536   4.663   6.035   6.847
 8830SOL    HW226537   4.682   5.932   6.722
 8831SOL     OW26538   4.774   6.285   6.010
 8831SOL    HW126539   4.796   6.281   6.108
 8831SOL    HW226540   4.688   6.238   5.994
 8832SOL     OW26541   3.812   6.411   6.367
 8832SOL    HW126542   3.898   6.402   6.418
 8832SOL    HW226543   3.761   6.489   6.402
 8833SOL     OW26544   4.620   5.938   5.783
 8833SOL    HW126545   4.660   6.006   5.721
 8833SOL    HW226546   4.629   5.847   5.743
 8834SOL     OW26547   5.113   6.722   6.134
 8834SOL    HW126548   5.192   6.715   6.074
 8834SOL    HW226549   5.061   6.805   6.111
 8835SOL     OW26550   4.271   5.758   6.485
 8835SOL    HW126551   4.277   5.789   6.580
 8835SOL    HW226552   4.275   5.836   6.424
 8836SOL     OW26553   5.529   6.639   6.452
 8836SOL    HW126554   5.478   6.625   6.368
 8836SOL    HW226555   5.466   6.638   6.530
 8837SOL     OW26556   4.045   6.546   5.845
 8837SOL    HW126557   4.134   6.563   5.801
 8837SOL    HW226558   4.006   6.461   5.811
 8838SOL     OW26559   5.208   6.333   6.306
 8838SOL    HW126560   5.203   6.289   6.396
 8838SOL    HW226561   5.288   6.394   6.303
 8839SOL     OW26562   5.364   6.970   5.672
 8839SOL    HW126563   5.331   0.062   5.690
 8839SOL    HW226564   5.286   6.909   5.657
 8840SOL     OW26565   5.125   5.690   6.024
 8840SOL    HW126566   5.114   5.664   5.928
 8840SOL    HW226567   5.222   5.698   6.045
 8841SOL     OW26568   4.120   6.273   6.060
 8841SOL    HW126569   4.139   6.176   6.074
 8841SOL    HW226570   4.023   6.291   6.078
 8842SOL     OW26571   4.366   5.702   5.687
 8842SOL    HW126572   4.433   5.632   5.710
 8842SOL    HW226573   4.309   5.671   5.611
 8843SOL     OW26574   4.651   6.092   6.484
 8843SOL    HW126575   4.624   6.085   6.388
 8843SOL    HW226576   4.688   6.004   6.514
 8844SOL     OW26577   4.272   5.650   6.079
 8844SOL    HW126578   4.190   5.648   6.137
 8844SOL    HW226579   4.268   5.730   6.020
 8845SOL     OW26580   5.142   6.788   5.646
 8845SOL    HW126581   5.196   6.718   5.693
 8845SOL    HW226582   5.049   6.754   5.630
 8846SOL     OW26583   4.014   5.634   5.772
 8846SOL    HW126584   4.066   5.706   5.725
 8846SOL    HW226585   4.077   5.570   5.815
 8847SOL     OW26586   4.671   5.837   6.042
 8847SOL    HW126587   4.640   5.879   5.956
 8847SOL    HW226588   4.769   5.851   6.051
 8848SOL     OW26589   4.995   0.149   6.319
 8848SOL    HW126590   4.958   0.234   6.282
 8848SOL    HW226591   4.999   0.155   6.419
 8849SOL     OW26592   4.189   6.711   6.320
 8849SOL    HW126593   4.120   6.705   6.392
 8849SOL    HW226594   4.145   6.710   6.231
 8850SOL     OW26595   4.746   6.121   5.616
 8850SOL    HW126596   4.701   6.207   5.593
 8850SOL    HW226597   4.814   6.137   5.687
 8851SOL     OW26598   4.287   5.807   6.757
 8851SOL    HW126599   4.333   5.724   6.788
 8851SOL    HW226600   4.192   5.806   6.787
 8852SOL     OW26601   4.588   6.044   6.222
 8852SOL    HW126602   4.542   6.106   6.159
 8852SOL    HW226603   4.617   5.962   6.173
 8853SOL     OW26604   4.742   5.635   6.326
 8853SOL    HW126605   4.680   5.635   6.248
 8853SOL    HW226606   4.717   5.561   6.388
 8854SOL     OW26607   5.160   6.734   6.444
 8854SOL    HW126608   5.086   6.666   6.447
 8854SOL    HW226609   5.188   6.747   6.349
 8855SOL     OW26610   5.191   6.190   6.549
 8855SOL    HW126611   5.128   6.113   6.554
 8855SOL    HW226612   5.253   6.187   6.627
 8856SOL     OW26613   5.566   6.389   5.966
 8856SOL    HW126614   5.624   6.342   6.033
 8856SOL    HW226615   5.538   6.325   5.895
 8857SOL     OW26616   5.407   6.833   6.231
 8857SOL    HW126617   5.505   6.845   6.250
 8857SOL    HW226618   5.358   6.918   6.253
 8858SOL     OW26619   5.114   6.161   5.657
 8858SOL    HW126620   5.051   6.137   5.731
 8858SOL    HW226621   5.207   6.134   5.683
 8859SOL     OW26622   4.252   5.850   5.894
 8859SOL    HW126623   4.300   5.798   5.824
 8859SOL    HW226624   4.222   5.938   5.857
 8860SOL     OW26625   5.464   6.788   0.187
 8860SOL    HW126626   5.557   6.762   0.215
 8860SOL    HW226627   5.465   6.881   0.151
 8861SOL     OW26628   4.788   6.901   6.930
 8861SOL    HW126629   4.697   6.880   6.964
 8861SOL    HW226630   4.855   6.896   0.004
 8862SOL     OW26631   4.856   6.761   6.703
 8862SOL    HW126632   4.827   6.819   6.779
 8862SOL    HW226633   4.819   6.796   6.617
 8863SOL     OW26634   5.345   6.661   6.646
 8863SOL    HW126635   5.342   6.724   6.724
 8863SOL    HW226636   5.269   6.682   6.585
 8864SOL     OW26637   4.433   6.637   5.955
 8864SOL    HW126638   4.420   6.628   6.053
 8864SOL    HW226639   4.515   6.587   5.927
 8865SOL     OW26640   4.149   6.400   6.848
 8865SOL    HW126641   4.207   6.425   6.925
 8865SOL    HW226642   4.114   6.307   6.860
 8866SOL     OW26643   4.993   5.975   6.856
 8866SOL    HW126644   5.021   6.048   6.917
 8866SOL    HW226645   4.898   5.989   6.827
 8867SOL     OW26646   4.061   6.706   6.077
 8867SOL    HW126647   4.108   6.783   6.035
 8867SOL    HW226648   4.056   6.631   6.012
 8868SOL     OW26649   4.270   6.132   6.449
 8868SOL    HW126650   4.283   6.191   6.369
 8868SOL    HW226651   4.342   6.149   6.516
 8869SOL     OW26652   5.300   6.207   6.068
 8869SOL    HW126653   5.252   6.252   6.143
 8869SOL    HW226654   5.351   6.276   6.015
 8870SOL     OW26655   4.311   6.453   6.624
 8870SOL    HW126656   4.339   6.548   6.610
 8870SOL    HW226657   4.249   6.447   6.702
 8871SOL     OW26658   5.074   6.437   6.604
 8871SOL    HW126659   4.983   6.430   6.565
 8871SOL    HW226660   5.122   6.350   6.591
 8872SOL     OW26661   4.920   6.113   5.850
 8872SOL    HW126662   4.934   6.030   5.904
 8872SOL    HW226663   4.876   6.183   5.906
 8873SOL     OW26664   4.027   5.786   6.834
 8873SOL    HW126665   3.985   5.817   6.920
 8873SOL    HW226666   4.014   5.687   6.825
 8874SOL     OW26667   3.770   6.899   6.877
 8874SOL    HW126668   3.816   6.836   6.940
 8874SOL    HW226669   3.796   6.993   6.899
 8875SOL     OW26670   4.449   6.211   6.641
 8875SOL    HW126671   4.527   6.191   6.582
 8875SOL    HW226672   4.417   6.304   6.624
 8876SOL     OW26673   4.031   5.647   6.213
 8876SOL    HW126674   4.006   5.742   6.231
 8876SOL    HW226675   4.042   5.598   6.299
 8877SOL     OW26676   5.352   5.968   5.946
 8877SOL    HW126677   5.378   5.894   6.009
 8877SOL    HW226678   5.323   6.048   5.999
 8878SOL     OW26679   4.747   6.340   6.550
 8878SOL    HW126680   4.745   6.360   6.648
 8878SOL    HW226681   4.721   6.245   6.535
 8879SOL     OW26682   5.250   5.855   5.716
 8879SOL    HW126683   5.182   5.786   5.741
 8879SOL    HW226684   5.288   5.897   5.798
 8880SOL     OW26685   5.011   6.410   5.608
 8880SOL    HW126686   5.052   6.319   5.619
 8880SOL    HW226687   5.042   6.450   5.522
 8881SOL     OW26688   4.035   6.391   6.529
 8881SOL    HW126689   4.131   6.417   6.516
 8881SOL    HW226690   4.030   6.296   6.559
 8882SOL     OW26691   4.055   6.116   6.604
 8882SOL    HW126692   4.015   6.025   6.591
 8882SOL    HW226693   4.135   6.125   6.545
 8883SOL     OW26694   4.865   5.828   0.055
 8883SOL    HW126695   4.935   5.838   0.124
 8883SOL    HW226696   4.898   5.865   6.968
 8884SOL     OW26697   3.747   6.894   5.768
 8884SOL    HW126698   3.659   6.923   5.731
 8884SOL    HW226699   3.737   6.806   5.813
 8885SOL     OW26700   4.712   6.374   6.826
 8885SOL    HW126701   4.784   6.333   6.882
 8885SOL    HW226702   4.623   6.344   6.860
 8886SOL     OW26703   3.776   6.143   6.714
 8886SOL    HW126704   3.827   6.109   6.635
 8886SOL    HW226705   3.839   6.177   6.783
 8887SOL     OW26706   4.542   6.158   5.948
 8887SOL    HW126707   4.551   6.078   5.888
 8887SOL    HW226708   4.463   6.212   5.919
 8888SOL     OW26709   5.372   6.194   6.752
 8888SOL    HW126710   5.357   6.136   6.832
 8888SOL    HW226711   5.467   6.184   6.722
 8889SOL     OW26712   4.395   6.049   6.850
 8889SOL    HW126713   4.360   5.961   6.819
 8889SOL    HW226714   4.411   6.109   6.771
 8890SOL     OW26715   4.181   6.080   5.770
 8890SOL    HW126716   4.246   6.152   5.796
 8890SOL    HW226717   4.091   6.121   5.757
 8891SOL     OW26718   3.901   6.724   0.042
 8891SOL    HW126719   3.878   6.674   0.126
 8891SOL    HW226720   3.904   6.660   6.965
 8892SOL     OW26721   5.039   6.600   6.820
 8892SOL    HW126722   5.074   6.539   6.749
 8892SOL    HW226723   4.970   6.661   6.781
 8893SOL     OW26724   5.042   6.447   5.881
 8893SOL    HW126725   4.970   6.417   5.944
 8893SOL    HW226726   5.013   6.431   5.787
 8894SOL     OW26727   3.805   6.860   6.605
 8894SOL    HW126728   3.787   6.868   6.703
 8894SOL    HW226729   3.737   6.800   6.563
 8895SOL     OW26730   5.444   5.738   6.084
 8895SOL    HW126731   5.519   5.727   6.019
 8895SOL    HW226732   5.426   5.650   6.129
 8896SOL     OW26733   5.006   6.509   6.255
 8896SOL    HW126734   5.080   6.443   6.272
 8896SOL    HW226735   5.041   6.586   6.203
 8897SOL     OW26736   4.536   6.840   0.017
 8897SOL    HW126737   4.533   6.854   0.116
 8897SOL    HW226738   4.451   6.875   6.977
 8898SOL     OW26739   5.566   5.760   6.556
 8898SOL    HW126740   5.601   5.669   6.534
 8898SOL    HW226741   5.474   5.771   6.518
 8899SOL     OW26742   3.978   5.899   6.301
 8899SOL    HW126743   3.889   5.936   6.273
 8899SOL    HW226744   3.982   5.893   6.401
 8900SOL     OW26745   4.975   0.209   5.595
 8900SOL    HW126746   4.979   0.141   5.669
 8900SOL    HW226747   4.883   0.212   5.557
 8901SOL     OW26748   4.512   6.582   6.941
 8901SOL    HW126749   4.567   6.559   6.860
 8901SOL    HW226750   4.530   6.677   6.967
 8902SOL     OW26751   4.645   6.495   5.865
 8902SOL    HW126752   4.711   6.537   5.803
 8902SOL    HW226753   4.691   6.426   5.921
 8903SOL     OW26754   4.122   6.887   6.996
 8903SOL    HW126755   4.106   6.963   0.059
 8903SOL    HW226756   4.052   6.817   0.008
 8904SOL     OW26757   5.343   6.827   6.856
 8904SOL    HW126758   5.426   6.845   6.908
 8904SOL    HW226759   5.265   6.815   6.918
 8905SOL     OW26760   4.788   6.695   6.313
 8905SOL    HW126761   4.708   6.646   6.347
 8905SOL    HW226762   4.855   6.629   6.278
 8906SOL     OW26763   4.744   5.823   6.541
 8906SOL    HW126764   4.743   5.775   6.453
 8906SOL    HW226765   4.746   5.756   6.616
 8907SOL     OW26766   5.419   6.009   6.948
 8907SOL    HW126767   5.489   6.013   0.019
 8907SOL    HW226768   5.420   5.920   6.904
 8908SOL     OW26769   4.398   5.775   0.080
 8908SOL    HW126770   4.489   5.746   0.051
 8908SOL    HW226771   4.406   5.858   0.137
 8909SOL     OW26772   3.806   5.913   5.614
 8909SOL    HW126773   3.714   5.889   5.582
 8909SOL    HW226774   3.838   5.995   5.566
 8910SOL     OW26775   3.786   5.741   5.887
 8910SOL    HW126776   3.770   5.825   5.835
 8910SOL    HW226777   3.875   5.702   5.860
 8911SOL     OW26778   5.195   6.858   0.320
 8911SOL    HW126779   5.142   6.774   0.330
 8911SOL    HW226780   5.279   6.838   0.270
 8912SOL     OW26781   5.422   6.460   6.827
 8912SOL    HW126782   5.390   6.370   6.800
 8912SOL    HW226783   5.388   6.528   6.761
 8913SOL     OW26784   4.944   5.903   6.045
 8913SOL    HW126785   5.007   5.826   6.036
 8913SOL    HW226786   4.970   5.958   6.124
 8914SOL     OW26787   4.307   6.323   6.256
 8914SOL    HW126788   4.350   6.413   6.245
 8914SOL    HW226789   4.240   6.310   6.184
 8915SOL     OW26790   5.508   6.506   0.082
 8915SOL    HW126791   5.473   6.595   0.112
 8915SOL    HW226792   5.475   6.487   6.989
 8916SOL     OW26793   4.593   6.551   6.444
 8916SOL    HW126794   4.645   6.474   6.479
 8916SOL    HW226795   4.557   6.605   6.520
 8917SOL     OW26796   4.817   6.588   5.677
 8917SOL    HW126797   4.776   6.634   5.599
 8917SOL    HW226798   4.883   6.520   5.644
 8918SOL     OW26799   3.821   6.823   6.260
 8918SOL    HW126800   3.832   6.759   6.336
 8918SOL    HW226801   3.882   6.795   6.185
 8919SOL     OW26802   5.534   5.760   6.834
 8919SOL    HW126803   5.509   5.664   6.836
 8919SOL    HW226804   5.550   5.789   6.740
 8920SOL     OW26805   4.154   6.013   6.112
 8920SOL    HW126806   4.188   5.943   6.050
 8920SOL    HW226807   4.099   5.970   6.184
 8921SOL     OW26808   5.369   0.052   6.718
 8921SOL    HW126809   5.324   0.044   6.628
 8921SOL    HW226810   5.363   6.964   6.765
 8922SOL     OW26811   4.041   6.137   6.878
 8922SOL    HW126812   4.112   6.085   6.925
 8922SOL    HW226813   4.051   6.125   6.779
 8923SOL     OW26814   5.158   5.823   6.702
 8923SOL    HW126815   5.188   5.738   6.747
 8923SOL    HW226816   5.104   5.877   6.766
 8924SOL     OW26817   4.742   5.603   6.710
 8924SOL    HW126818   4.679   5.538   6.669
 8924SOL    HW226819   4.832   5.561   6.721
 8925SOL     OW26820   4.479   6.908   5.853
 8925SOL    HW126821   4.460   6.812   5.873
 8925SOL    HW226822   4.517   6.952   5.935
 8926SOL     OW26823   5.079   5.635   5.757
 8926SOL    HW126824   5.123   5.567   5.698
 8926SOL    HW226825   4.986   5.607   5.778
 8927SOL     OW26826   5.014   6.050   6.266
 8927SOL    HW126827   4.962   6.135   6.268
 8927SOL    HW226828   5.012   6.007   6.356
 8928SOL     OW26829   5.311   5.791   6.471
 8928SOL    HW126830   5.251   5.810   6.549
 8928SOL    HW226831   5.312   5.870   6.410
 8929SOL     OW26832   3.760   6.645   5.897
 8929SOL    HW126833   3.858   6.651   5.876
 8929SOL    HW226834   3.737   6.550   5.919
 8930SOL     OW26835   5.804   0.643   0.137
 8930SOL    HW126836   5.710   0.622   0.163
 8930SOL    HW226837   5.817   0.626   0.040
 8931SOL     OW26838   5.808   0.304   0.996
 8931SOL    HW126839   5.849   0.265   1.079
 8931SOL    HW226840   5.725   0.252   0.973
 8932SOL     OW26841   5.591   0.391   0.629
 8932SOL    HW126842   5.506   0.417   0.676
 8932SOL    HW226843   5.573   0.316   0.566
 8933SOL     OW26844   6.155   1.299   1.188
 8933SOL    HW126845   6.066   1.295   1.143
 8933SOL    HW226846   6.173   1.392   1.220
 8934SOL     OW26847   0.065   1.546   0.762
 8934SOL    HW126848   0.101   1.453   0.773
 8934SOL    HW226849   0.028   1.557   0.670
 8935SOL     OW26850   6.693   0.721   0.688
 8935SOL    HW126851   6.761   0.794   0.677
 8935SOL    HW226852   6.657   0.722   0.781
 8936SOL     OW26853   6.328   1.140   1.044
 8936SOL    HW126854   6.261   1.176   1.108
 8936SOL    HW226855   6.372   1.216   0.996
 8937SOL     OW26856   6.460   0.765   1.823
 8937SOL    HW126857   6.443   0.831   1.896
 8937SOL    HW226858   6.483   0.813   1.739
 8938SOL     OW26859   6.268   0.997   0.650
 8938SOL    HW126860   6.340   0.987   0.719
 8938SOL    HW226861   6.195   1.054   0.685
 8939SOL     OW26862   6.292   1.149   1.815
 8939SOL    HW126863   6.342   1.230   1.848
 8939SOL    HW226864   6.207   1.178   1.772
 8940SOL     OW26865   5.913   1.422   1.066
 8940SOL    HW126866   5.836   1.377   1.020
 8940SOL    HW226867   5.965   1.475   0.999
 8941SOL     OW26868   6.029   0.398   1.482
 8941SOL    HW126869   6.115   0.348   1.490
 8941SOL    HW226870   5.952   0.335   1.488
 8942SOL     OW26871   5.805   1.723   0.472
 8942SOL    HW126872   5.823   1.803   0.530
 8942SOL    HW226873   5.889   1.696   0.426
 8943SOL     OW26874   6.720   1.346   1.705
 8943SOL    HW126875   6.815   1.313   1.698
 8943SOL    HW226876   6.658   1.268   1.709
 8944SOL     OW26877   5.799   1.448   0.531
 8944SOL    HW126878   5.788   1.547   0.541
 8944SOL    HW226879   5.749   1.402   0.604
 8945SOL     OW26880   5.855   1.091   0.900
 8945SOL    HW126881   5.851   0.996   0.932
 8945SOL    HW226882   5.793   1.147   0.954
 8946SOL     OW26883   6.182   1.799   1.424
 8946SOL    HW126884   6.100   1.774   1.476
 8946SOL    HW226885   6.213   1.889   1.454
 8947SOL     OW26886   6.173   0.967   0.147
 8947SOL    HW126887   6.230   0.990   0.068
 8947SOL    HW226888   6.209   1.012   0.228
 8948SOL     OW26889   5.702   0.655   0.562
 8948SOL    HW126890   5.674   0.561   0.582
 8948SOL    HW226891   5.696   0.710   0.646
 8949SOL     OW26892   5.596   1.585   0.145
 8949SOL    HW126893   5.528   1.515   0.125
 8949SOL    HW226894   5.576   1.628   0.233
 8950SOL     OW26895   5.707   0.749   1.582
 8950SOL    HW126896   5.803   0.779   1.584
 8950SOL    HW226897   5.648   0.830   1.580
 8951SOL     OW26898   6.198   1.389   0.737
 8951SOL    HW126899   6.152   1.302   0.750
 8951SOL    HW226900   6.189   1.418   0.642
 8952SOL     OW26901   6.838   1.221   1.430
 8952SOL    HW126902   6.875   1.151   1.369
 8952SOL    HW226903   6.901   1.234   1.508
 8953SOL     OW26904   6.409   0.030   0.520
 8953SOL    HW126905   6.450   0.119   0.502
 8953SOL    HW226906   6.309   0.038   0.522
 8954SOL     OW26907   5.776   0.960   1.279
 8954SOL    HW126908   5.865   0.918   1.264
 8954SOL    HW226909   5.708   0.917   1.219
 8955SOL     OW26910   6.781   1.815   1.616
 8955SOL    HW126911   6.765   1.884   1.546
 8955SOL    HW226912   6.779   1.724   1.575
 8956SOL     OW26913   5.906   0.271   1.790
 8956SOL    HW126914   5.969   0.337   1.831
 8956SOL    HW226915   5.819   0.272   1.839
 8957SOL     OW26916   6.183   0.715   0.268
 8957SOL    HW126917   6.189   0.806   0.225
 8957SOL    HW226918   6.117   0.718   0.343
 8958SOL     OW26919   6.849   0.371   0.888
 8958SOL    HW126920   6.753   0.356   0.912
 8958SOL    HW226921   6.907   0.331   0.959
 8959SOL     OW26922   6.387   0.614   1.456
 8959SOL    HW126923   6.357   0.589   1.547
 8959SOL    HW226924   6.348   0.551   1.389
 8960SOL     OW26925   6.943   0.470   1.677
 8960SOL    HW126926   6.903   0.550   1.722
 8960SOL    HW226927   0.042   0.473   1.684
 8961SOL     OW26928   6.543   0.886   1.584
 8961SOL    HW126929   6.599   0.812   1.546
 8961SOL    HW226930   6.490   0.928   1.511
 8962SOL     OW26931   6.593   0.411   1.230
 8962SOL    HW126932   6.505   0.430   1.274
 8962SOL    HW226933   6.577   0.368   1.141
 8963SOL     OW26934   6.638   0.702   0.424
 8963SOL    HW126935   6.658   0.706   0.522
 8963SOL    HW226936   6.550   0.656   0.410
 8964SOL     OW26937   5.675   0.824   0.779
 8964SOL    HW126938   5.761   0.813   0.830
 8964SOL    HW226939   5.625   0.903   0.814
 8965SOL     OW26940   5.714   1.874   1.588
 8965SOL    HW126941   5.719   1.847   1.684
 8965SOL    HW226942   5.630   1.838   1.548
 8966SOL     OW26943   6.468   0.363   0.212
 8966SOL    HW126944   6.461   0.431   0.138
 8966SOL    HW226945   6.473   0.272   0.173
 8967SOL     OW26946   6.928   1.136   0.527
 8967SOL    HW126947   6.987   1.107   0.452
 8967SOL    HW226948   6.877   1.218   0.498
 8968SOL     OW26949   6.089   0.190   0.913
 8968SOL    HW126950   6.129   0.221   1.000
 8968SOL    HW226951   6.113   0.254   0.840
 8969SOL     OW26952   6.570   1.440   0.474
 8969SOL    HW126953   6.536   1.519   0.423
 8969SOL    HW226954   6.546   1.450   0.570
 8970SOL     OW26955   5.942   1.815   0.871
 8970SOL    HW126956   5.986   1.725   0.877
 8970SOL    HW226957   6.009   1.886   0.890
 8971SOL     OW26958   6.796   1.559   1.504
 8971SOL    HW126959   6.800   1.484   1.570
 8971SOL    HW226960   6.750   1.527   1.420
 8972SOL     OW26961   5.900   0.959   0.228
 8972SOL    HW126962   5.993   0.973   0.195
 8972SOL    HW226963   5.871   0.866   0.209
 8973SOL     OW26964   6.053   1.263   1.730
 8973SOL    HW126965   6.027   1.271   1.634
 8973SOL    HW226966   5.971   1.263   1.787
 8974SOL     OW26967   6.681   1.764   0.234
 8974SOL    HW126968   6.615   1.710   0.286
 8974SOL    HW226969   6.709   1.712   0.153
 8975SOL     OW26970   5.778   0.272   1.513
 8975SOL    HW126971   5.720   0.352   1.498
 8975SOL    HW226972   5.802   0.266   1.610
 8976SOL     OW26973   0.234   1.381   0.043
 8976SOL    HW126974   0.164   1.429   0.097
 8976SOL    HW226975   0.212   1.284   0.039
 8977SOL     OW26976   6.067   1.699   0.377
 8977SOL    HW126977   6.097   1.783   0.421
 8977SOL    HW226978   6.128   1.678   0.301
 8978SOL     OW26979   5.845   1.791   1.225
 8978SOL    HW126980   5.896   1.718   1.270
 8978SOL    HW226981   5.826   1.765   1.131
 8979SOL     OW26982   6.525   1.701   0.896
 8979SOL    HW126983   6.611   1.654   0.915
 8979SOL    HW226984   6.476   1.652   0.823
 8980SOL     OW26985   5.984   0.685   0.469
 8980SOL    HW126986   6.003   0.588   0.487
 8980SOL    HW226987   5.888   0.704   0.487
 8981SOL     OW26988   6.219   0.125   0.108
 8981SOL    HW126989   6.318   0.111   0.116
 8981SOL    HW226990   6.196   0.139   0.012
 8982SOL     OW26991   6.349   0.276   1.769
 8982SOL    HW126992   6.436   0.227   1.763
 8982SOL    HW226993   6.292   0.233   1.840
 8983SOL     OW26994   6.459   1.518   1.191
 8983SOL    HW126995   6.439   1.482   1.100
 8983SOL    HW226996   6.531   1.463   1.234
 8984SOL     OW26997   6.401   1.389   0.943
 8984SOL    HW126998   6.492   1.376   0.902
 8984SOL    HW226999   6.332   1.395   0.871
 8985SOL     OW27000   6.508   0.512   0.897
 8985SOL    HW127001   6.483   0.508   0.800
 8985SOL    HW227002   6.536   0.422   0.928
 8986SOL     OW27003   6.142   0.066   0.495
 8986SOL    HW127004   6.061   0.055   0.553
 8986SOL    HW227005   6.127   0.142   0.431
 8987SOL     OW27006   5.905   0.070   0.198
 8987SOL    HW127007   5.952   0.158   0.209
 8987SOL    HW227008   5.934   0.007   0.269
 8988SOL     OW27009   6.541   0.262   0.457
 8988SOL    HW127010   6.505   0.301   0.373
 8988SOL    HW227011   6.641   0.275   0.460
 8989SOL     OW27012   6.655   0.669   1.460
 8989SOL    HW127013   6.560   0.638   1.462
 8989SOL    HW227014   6.716   0.590   1.466
 8990SOL     OW27015   6.780   1.575   0.802
 8990SOL    HW127016   6.795   1.639   0.727
 8990SOL    HW227017   6.866   1.556   0.848
 8991SOL     OW27018   6.057   1.153   0.731
 8991SOL    HW127019   5.987   1.131   0.799
 8991SOL    HW227020   6.019   1.145   0.639
 8992SOL     OW27021   6.836   1.795   0.604
 8992SOL    HW127022   6.862   1.856   0.530
 8992SOL    HW227023   6.766   1.839   0.660
 8993SOL     OW27024   6.678   0.581   0.023
 8993SOL    HW127025   6.579   0.594   0.033
 8993SOL    HW227026   6.718   0.561   0.112
 8994SOL     OW27027   5.678   0.551   1.398
 8994SOL    HW127028   5.771   0.553   1.361
 8994SOL    HW227029   5.668   0.626   1.464
 8995SOL     OW27030   6.157   0.244   1.177
 8995SOL    HW127031   6.210   0.171   1.221
 8995SOL    HW227032   6.062   0.239   1.206
 8996SOL     OW27033   6.449   0.458   0.638
 8996SOL    HW127034   6.409   0.525   0.575
 8996SOL    HW227035   6.478   0.377   0.587
 8997SOL     OW27036   6.527   0.033   0.776
 8997SOL    HW127037   6.474   0.020   0.692
 8997SOL    HW227038   6.611   6.979   0.770
 8998SOL     OW27039   6.058   1.427   0.150
 8998SOL    HW127040   5.999   1.376   0.213
 8998SOL    HW227041   6.018   1.424   0.058
 8999SOL     OW27042   6.095   0.262   0.304
 8999SOL    HW127043   6.151   0.209   0.240
 8999SOL    HW227044   6.076   0.352   0.265
 9000SOL     OW27045   6.626   1.348   1.331
 9000SOL    HW127046   6.543   1.321   1.380
 9000SOL    HW227047   6.705   1.303   1.374
 9001SOL     OW27048   6.729   1.228   1.100
 9001SOL    HW127049   6.670   1.258   1.175
 9001SOL    HW227050   6.688   1.254   1.013
 9002SOL     OW27051   6.473   0.150   1.385
 9002SOL    HW127052   6.489   0.116   1.292
 9002SOL    HW227053   6.561   0.170   1.428
 9003SOL     OW27054   6.566   1.114   1.728
 9003SOL    HW127055   6.471   1.136   1.753
 9003SOL    HW227056   6.566   1.034   1.668
 9004SOL     OW27057   6.298   1.057   0.375
 9004SOL    HW127058   6.280   1.041   0.472
 9004SOL    HW227059   6.377   1.003   0.347
 9005SOL     OW27060   6.010   0.818   1.254
 9005SOL    HW127061   6.083   0.829   1.321
 9005SOL    HW227062   5.970   0.726   1.263
 9006SOL     OW27063   6.857   0.363   1.284
 9006SOL    HW127064   6.915   0.441   1.308
 9006SOL    HW227065   6.766   0.395   1.259
 9007SOL     OW27066   5.661   1.572   1.353
 9007SOL    HW127067   5.625   1.641   1.291
 9007SOL    HW227068   5.761   1.570   1.347
 9008SOL     OW27069   5.952   1.121   0.484
 9008SOL    HW127070   5.931   1.197   0.424
 9008SOL    HW227071   5.949   1.035   0.432
 9009SOL     OW27072   6.139   0.547   0.861
 9009SOL    HW127073   6.152   0.606   0.782
 9009SOL    HW227074   6.210   0.566   0.929
 9010SOL     OW27075   6.826   1.366   0.418
 9010SOL    HW127076   6.877   1.445   0.451
 9010SOL    HW227077   6.728   1.382   0.432
 9011SOL     OW27078   6.851   1.479   1.141
 9011SOL    HW127079   6.931   1.474   1.202
 9011SOL    HW227080   6.811   1.388   1.131
 9012SOL     OW27081   5.934   1.530   1.309
 9012SOL    HW127082   5.918   1.485   1.221
 9012SOL    HW227083   6.032   1.544   1.322
 9013SOL     OW27084   6.005   0.744   1.601
 9013SOL    HW127085   6.068   0.793   1.541
 9013SOL    HW227086   6.041   0.654   1.622
 9014SOL     OW27087   6.582   0.132   1.751
 9014SOL    HW127088   6.625   0.194   1.686
 9014SOL    HW227089   6.595   0.037   1.721
 9015SOL     OW27090   6.048   0.037   1.759
 9015SOL    HW127091   5.980   6.965   1.745
 9015SOL    HW227092   6.001   0.125   1.767
 9016SOL     OW27093   6.170   0.874   1.033
 9016SOL    HW127094   6.205   0.967   1.030
 9016SOL    HW227095   6.110   0.864   1.112
 9017SOL     OW27096   6.950   0.845   1.034
 9017SOL    HW127097   6.859   0.834   0.994
 9017SOL    HW227098   6.986   0.755   1.059
 9018SOL     OW27099   6.769   0.519   0.270
 9018SOL    HW127100   6.793   0.442   0.329
 9018SOL    HW227101   6.730   0.593   0.324
 9019SOL     OW27102   5.896   0.208   1.247
 9019SOL    HW127103   5.832   0.216   1.323
 9019SOL    HW227104   5.886   0.118   1.204
 9020SOL     OW27105   5.637   1.310   1.275
 9020SOL    HW127106   5.669   1.248   1.347
 9020SOL    HW227107   5.641   1.404   1.308
 9021SOL     OW27108   6.316   0.639   1.056
 9021SOL    HW127109   6.388   0.617   0.991
 9021SOL    HW227110   6.277   0.728   1.033
 9022SOL     OW27111   5.905   0.059   0.627
 9022SOL    HW127112   5.883   0.153   0.656
 9022SOL    HW227113   5.854   6.994   0.683
 9023SOL     OW27114   0.188   0.406   0.370
 9023SOL    HW127115   0.252   0.351   0.423
 9023SOL    HW227116   0.171   0.493   0.418
 9024SOL     OW27117   6.610   0.757   0.959
 9024SOL    HW127118   6.604   0.777   1.056
 9024SOL    HW227119   6.583   0.662   0.942
 9025SOL     OW27120   6.554   1.566   1.706
 9025SOL    HW127121   6.541   1.609   1.617
 9025SOL    HW227122   6.607   1.482   1.695
 9026SOL     OW27123   5.938   0.917   1.805
 9026SOL    HW127124   6.018   0.941   1.861
 9026SOL    HW227125   5.965   0.852   1.734
 9027SOL     OW27126   6.887   0.840   0.032
 9027SOL    HW127127   6.943   0.759   0.020
 9027SOL    HW227128   6.904   0.904   6.957
 9028SOL     OW27129   6.649   1.334   0.857
 9028SOL    HW127130   6.654   1.258   0.792
 9028SOL    HW227131   6.700   1.412   0.821
 9029SOL     OW27132   5.898   0.809   0.942
 9029SOL    HW127133   5.994   0.836   0.936
 9029SOL    HW227134   5.891   0.715   0.974
 9030SOL     OW27135   5.921   0.540   1.012
 9030SOL    HW127136   5.878   0.451   1.000
 9030SOL    HW227137   6.002   0.546   0.954
 9031SOL     OW27138   6.689   0.385   1.679
 9031SOL    HW127139   6.645   0.438   1.752
 9031SOL    HW227140   6.788   0.401   1.682
 9032SOL     OW27141   6.717   0.219   1.476
 9032SOL    HW127142   6.709   0.287   1.548
 9032SOL    HW227143   6.766   0.258   1.398
 9033SOL     OW27144   5.680   1.783   0.945
 9033SOL    HW127145   5.642   1.702   0.899
 9033SOL    HW227146   5.773   1.799   0.912
 9034SOL     OW27147   6.078   1.576   0.904
 9034SOL    HW127148   6.149   1.642   0.932
 9034SOL    HW227149   6.118   1.508   0.843
 9035SOL     OW27150   6.563   0.792   1.224
 9035SOL    HW127151   6.621   0.766   1.301
 9035SOL    HW227152   6.473   0.749   1.235
 9036SOL     OW27153   5.621   0.550   1.121
 9036SOL    HW127154   5.699   0.534   1.060
 9036SOL    HW227155   5.653   0.551   1.216
 9037SOL     OW27156   5.770   0.531   1.730
 9037SOL    HW127157   5.849   0.497   1.678
 9037SOL    HW227158   5.731   0.610   1.683
 9038SOL     OW27159   6.401   0.577   0.378
 9038SOL    HW127160   6.413   0.497   0.320
 9038SOL    HW227161   6.322   0.629   0.347
 9039SOL     OW27162   5.825   1.546   1.725
 9039SOL    HW127163   5.804   1.621   1.789
 9039SOL    HW227164   5.832   1.460   1.776
 9040SOL     OW27165   6.302   0.461   1.255
 9040SOL    HW127166   6.244   0.383   1.232
 9040SOL    HW227167   6.299   0.528   1.181
 9041SOL     OW27168   6.498   1.687   1.467
 9041SOL    HW127169   6.479   1.636   1.382
 9041SOL    HW227170   6.494   1.785   1.448
 9042SOL     OW27171   6.039   0.500   0.181
 9042SOL    HW127172   6.105   0.570   0.209
 9042SOL    HW227173   5.947   0.538   0.183
 9043SOL     OW27174   5.726   1.138   1.476
 9043SOL    HW127175   5.728   1.094   1.566
 9043SOL    HW227176   5.746   1.070   1.405
 9044SOL     OW27177   6.893   1.045   1.222
 9044SOL    HW127178   6.918   0.971   1.160
 9044SOL    HW227179   6.832   1.109   1.176
 9045SOL     OW27180   6.885   0.863   0.310
 9045SOL    HW127181   6.809   0.821   0.358
 9045SOL    HW227182   6.876   0.847   0.212
 9046SOL     OW27183   6.847   1.749   1.115
 9046SOL    HW127184   6.926   1.766   1.056
 9046SOL    HW227185   6.836   1.651   1.129
 9047SOL     OW27186   5.672   1.266   1.010
 9047SOL    HW127187   5.655   1.280   1.107
 9047SOL    HW227188   5.601   1.206   0.972
 9048SOL     OW27189   6.267   1.675   1.741
 9048SOL    HW127190   6.206   1.753   1.730
 9048SOL    HW227191   6.344   1.683   1.677
 9049SOL     OW27192   6.498   0.106   0.130
 9049SOL    HW127193   6.570   0.085   0.063
 9049SOL    HW227194   6.489   0.029   0.194
 9050SOL     OW27195   6.974   1.581   0.497
 9050SOL    HW127196   0.060   1.616   0.458
 9050SOL    HW227197   6.918   1.658   0.527
 9051SOL     OW27198   5.732   1.787   1.846
 9051SOL    HW127199   5.674   1.719   1.891
 9051SOL    HW227200   5.781   1.840   1.915
 9052SOL     OW27201   6.871   0.918   0.664
 9052SOL    HW127202   6.958   0.869   0.678
 9052SOL    HW227203   6.889   1.001   0.611
 9053SOL     OW27204   6.380   1.277   1.424
 9053SOL    HW127205   6.351   1.323   1.508
 9053SOL    HW227206   6.311   1.291   1.353
 9054SOL     OW27207   6.252   1.610   0.196
 9054SOL    HW127208   6.308   1.633   0.116
 9054SOL    HW227209   6.194   1.531   0.175
 9055SOL     OW27210   5.844   0.312   0.714
 9055SOL    HW127211   5.754   0.347   0.687
 9055SOL    HW227212   5.851   0.312   0.814
 9056SOL     OW27213   6.743   1.624   0.005
 9056SOL    HW127214   6.827   1.592   0.048
 9056SOL    HW227215   6.733   1.581   6.915
 9057SOL     OW27216   6.412   1.009   1.380
 9057SOL    HW127217   6.458   0.996   1.292
 9057SOL    HW227218   6.403   1.107   1.399
 9058SOL     OW27219   6.503   0.908   0.290
 9058SOL    HW127220   6.556   0.937   0.210
 9058SOL    HW227221   6.556   0.841   0.342
 9059SOL     OW27222   5.950   1.303   1.486
 9059SOL    HW127223   5.942   1.383   1.427
 9059SOL    HW227224   5.870   1.244   1.475
 9060SOL     OW27225   6.642   1.108   0.713
 9060SOL    HW127226   6.568   1.056   0.754
 9060SOL    HW227227   6.709   1.044   0.673
 9061SOL     OW27228   6.597   0.254   0.955
 9061SOL    HW127229   6.568   0.208   0.871
 9061SOL    HW227230   6.592   0.190   1.031
 9062SOL     OW27231   6.199   1.477   0.484
 9062SOL    HW127232   6.239   1.426   0.409
 9062SOL    HW227233   6.136   1.546   0.448
 9063SOL     OW27234   5.865   1.318   0.309
 9063SOL    HW127235   5.781   1.305   0.255
 9063SOL    HW227236   5.844   1.372   0.391
 9064SOL     OW27237   5.701   1.036   1.730
 9064SOL    HW127238   5.619   1.008   1.780
 9064SOL    HW227239   5.781   0.990   1.768
 9065SOL     OW27240   6.254   0.241   1.511
 9065SOL    HW127241   6.334   0.214   1.457
 9065SOL    HW227242   6.285   0.271   1.602
 9066SOL     OW27243   5.700   0.337   0.033
 9066SOL    HW127244   5.644   0.281   6.972
 9066SOL    HW227245   5.739   0.414   6.982
 9067SOL     OW27246   5.656   0.168   0.304
 9067SOL    HW127247   5.644   0.251   0.249
 9067SOL    HW227248   5.737   0.118   0.272
 9068SOL     OW27249   6.212   0.828   1.434
 9068SOL    HW127250   6.268   0.910   1.419
 9068SOL    HW227251   6.271   0.749   1.445
 9069SOL     OW27252   6.310   0.556   1.705
 9069SOL    HW127253   6.352   0.625   1.763
 9069SOL    HW227254   6.325   0.466   1.744
 9070SOL     OW27255   6.998   1.262   1.650
 9070SOL    HW127256   6.998   1.198   1.727
 9070SOL    HW227257   0.077   1.245   1.591
 9071SOL     OW27258   5.956   1.739   1.568
 9071SOL    HW127259   5.872   1.791   1.553
 9071SOL    HW227260   5.934   1.650   1.609
 9072SOL     OW27261   6.818   0.308   0.447
 9072SOL    HW127262   6.888   0.257   0.396
 9072SOL    HW227263   6.861   0.358   0.522
 9073SOL     OW27264   6.173   0.736   0.666
 9073SOL    HW127265   6.213   0.827   0.657
 9073SOL    HW227266   6.103   0.723   0.595
 9074SOL     OW27267   6.447   1.383   0.031
 9074SOL    HW127268   6.411   1.348   0.118
 9074SOL    HW227269   6.459   1.482   0.038
 9075SOL     OW27270   6.251   1.784   0.942
 9075SOL    HW127271   6.228   1.878   0.921
 9075SOL    HW227272   6.350   1.771   0.932
 9076SOL     OW27273   6.454   0.970   0.857
 9076SOL    HW127274   6.506   0.893   0.892
 9076SOL    HW227275   6.412   1.020   0.933
 9077SOL     OW27276   6.658   0.979   0.079
 9077SOL    HW127277   6.693   1.072   0.066
 9077SOL    HW227278   6.733   0.914   0.066
 9078SOL     OW27279   5.817   1.298   1.856
 9078SOL    HW127280   5.752   1.231   1.822
 9078SOL    HW227281   5.802   1.311   1.955
 9079SOL     OW27282   5.669   1.233   0.665
 9079SOL    HW127283   5.690   1.183   0.749
 9079SOL    HW227284   5.714   1.189   0.587
 9080SOL     OW27285   6.262   1.412   1.628
 9080SOL    HW127286   6.185   1.361   1.665
 9080SOL    HW227287   6.266   1.502   1.671
 9081SOL     OW27288   6.016   0.426   0.525
 9081SOL    HW127289   6.047   0.354   0.462
 9081SOL    HW227290   5.962   0.385   0.598
 9082SOL     OW27291   5.921   0.559   1.288
 9082SOL    HW127292   5.978   0.501   1.346
 9082SOL    HW227293   5.938   0.537   1.192
 9083SOL     OW27294   6.411   1.581   0.681
 9083SOL    HW127295   6.401   1.638   0.599
 9083SOL    HW227296   6.335   1.516   0.686
 9084SOL     OW27297   6.973   0.218   1.079
 9084SOL    HW127298   0.004   0.133   1.122
 9084SOL    HW227299   6.929   0.277   1.148
 9085SOL     OW27300   6.558   0.058   1.135
 9085SOL    HW127301   6.505   6.997   1.077
 9085SOL    HW227302   6.610   0.004   1.202
 9086SOL     OW27303   6.368   1.318   0.307
 9086SOL    HW127304   6.334   1.226   0.328
 9086SOL    HW227305   6.448   1.338   0.363
 9087SOL     OW27306   6.209   1.560   1.289
 9087SOL    HW127307   6.206   1.647   1.339
 9087SOL    HW227308   6.300   1.547   1.249
 9088SOL     OW27309   5.672   1.051   0.365
 9088SOL    HW127310   5.759   1.029   0.321
 9088SOL    HW227311   5.617   0.969   0.375
 9089SOL     OW27312   6.462   1.660   0.363
 9089SOL    HW127313   6.386   1.635   0.303
 9089SOL    HW227314   6.440   1.743   0.413
 9090SOL     OW27315   5.805   0.619   1.991
 9090SOL    HW127316   5.715   0.618   2.035
 9090SOL    HW227317   5.794   0.599   1.894
 9091SOL     OW27318   5.807   0.304   2.859
 9091SOL    HW127319   5.849   0.266   2.941
 9091SOL    HW227320   5.725   0.252   2.836
 9092SOL     OW27321   5.596   0.396   2.489
 9092SOL    HW127322   5.507   0.413   2.532
 9092SOL    HW227323   5.586   0.324   2.420
 9093SOL     OW27324   6.155   1.299   3.050
 9093SOL    HW127325   6.065   1.296   3.006
 9093SOL    HW227326   6.173   1.392   3.082
 9094SOL     OW27327   0.068   1.544   2.623
 9094SOL    HW127328   0.104   1.451   2.630
 9094SOL    HW227329   0.038   1.562   2.529
 9095SOL     OW27330   6.692   0.721   2.549
 9095SOL    HW127331   6.760   0.794   2.537
 9095SOL    HW227332   6.658   0.722   2.642
 9096SOL     OW27333   6.328   1.140   2.905
 9096SOL    HW127334   6.260   1.176   2.970
 9096SOL    HW227335   6.373   1.216   2.858
 9097SOL     OW27336   6.460   0.765   3.685
 9097SOL    HW127337   6.443   0.831   3.758
 9097SOL    HW227338   6.483   0.813   3.601
 9098SOL     OW27339   6.269   0.999   2.510
 9098SOL    HW127340   6.341   0.988   2.579
 9098SOL    HW227341   6.195   1.055   2.547
 9099SOL     OW27342   6.292   1.149   3.677
 9099SOL    HW127343   6.342   1.230   3.710
 9099SOL    HW227344   6.207   1.178   3.634
 9100SOL     OW27345   5.913   1.422   2.928
 9100SOL    HW127346   5.836   1.377   2.882
 9100SOL    HW227347   5.965   1.475   2.861
 9101SOL     OW27348   6.029   0.398   3.344
 9101SOL    HW127349   6.115   0.348   3.352
 9101SOL    HW227350   5.952   0.335   3.350
 9102SOL     OW27351   5.808   1.714   2.333
 9102SOL    HW127352   5.826   1.793   2.392
 9102SOL    HW227353   5.883   1.705   2.267
 9103SOL     OW27354   6.720   1.346   3.567
 9103SOL    HW127355   6.814   1.313   3.560
 9103SOL    HW227356   6.658   1.268   3.571
 9104SOL     OW27357   5.820   1.444   2.398
 9104SOL    HW127358   5.803   1.542   2.397
 9104SOL    HW227359   5.760   1.400   2.465
 9105SOL     OW27360   5.857   1.091   2.763
 9105SOL    HW127361   5.853   0.996   2.795
 9105SOL    HW227362   5.794   1.147   2.817
 9106SOL     OW27363   6.181   1.799   3.286
 9106SOL    HW127364   6.099   1.773   3.337
 9106SOL    HW227365   6.213   1.889   3.316
 9107SOL     OW27366   6.167   0.987   2.004
 9107SOL    HW127367   6.214   1.034   1.929
 9107SOL    HW227368   6.207   1.015   2.091
 9108SOL     OW27369   5.701   0.662   2.426
 9108SOL    HW127370   5.674   0.567   2.444
 9108SOL    HW227371   5.695   0.714   2.511
 9109SOL     OW27372   5.616   1.590   1.985
 9109SOL    HW127373   5.599   1.493   2.003
 9109SOL    HW227374   5.595   1.643   2.066
 9110SOL     OW27375   5.708   0.749   3.444
 9110SOL    HW127376   5.803   0.779   3.446
 9110SOL    HW227377   5.648   0.830   3.443
 9111SOL     OW27378   6.198   1.392   2.595
 9111SOL    HW127379   6.153   1.304   2.607
 9111SOL    HW227380   6.186   1.423   2.500
 9112SOL     OW27381   6.839   1.221   3.292
 9112SOL    HW127382   6.876   1.151   3.231
 9112SOL    HW227383   6.900   1.234   3.369
 9113SOL     OW27384   6.411   0.028   2.378
 9113SOL    HW127385   6.450   0.119   2.360
 9113SOL    HW227386   6.311   0.035   2.382
 9114SOL     OW27387   5.776   0.961   3.140
 9114SOL    HW127388   5.865   0.919   3.126
 9114SOL    HW227389   5.708   0.915   3.083
 9115SOL     OW27390   6.781   1.815   3.478
 9115SOL    HW127391   6.765   1.884   3.408
 9115SOL    HW227392   6.779   1.724   3.437
 9116SOL     OW27393   5.906   0.271   3.652
 9116SOL    HW127394   5.969   0.337   3.693
 9116SOL    HW227395   5.819   0.272   3.701
 9117SOL     OW27396   6.178   0.718   2.134
 9117SOL    HW127397   6.183   0.805   2.085
 9117SOL    HW227398   6.110   0.725   2.207
 9118SOL     OW27399   6.849   0.372   2.750
 9118SOL    HW127400   6.753   0.356   2.773
 9118SOL    HW227401   6.908   0.331   2.820
 9119SOL     OW27402   6.387   0.615   3.318
 9119SOL    HW127403   6.357   0.589   3.410
 9119SOL    HW227404   6.348   0.551   3.251
 9120SOL     OW27405   6.943   0.470   3.539
 9120SOL    HW127406   6.903   0.549   3.586
 9120SOL    HW227407   0.043   0.473   3.546
 9121SOL     OW27408   6.543   0.885   3.446
 9121SOL    HW127409   6.599   0.812   3.408
 9121SOL    HW227410   6.489   0.928   3.373
 9122SOL     OW27411   6.593   0.411   3.091
 9122SOL    HW127412   6.505   0.429   3.136
 9122SOL    HW227413   6.577   0.367   3.003
 9123SOL     OW27414   6.634   0.701   2.285
 9123SOL    HW127415   6.653   0.703   2.383
 9123SOL    HW227416   6.548   0.653   2.268
 9124SOL     OW27417   5.674   0.829   2.642
 9124SOL    HW127418   5.760   0.816   2.692
 9124SOL    HW227419   5.625   0.908   2.680
 9125SOL     OW27420   5.714   1.874   3.450
 9125SOL    HW127421   5.719   1.847   3.546
 9125SOL    HW227422   5.630   1.839   3.410
 9126SOL     OW27423   6.475   0.354   2.061
 9126SOL    HW127424   6.522   0.414   1.997
 9126SOL    HW227425   6.450   0.269   2.015
 9127SOL     OW27426   6.929   1.134   2.377
 9127SOL    HW127427   6.996   1.115   2.306
 9127SOL    HW227428   6.877   1.216   2.354
 9128SOL     OW27429   6.087   0.189   2.776
 9128SOL    HW127430   6.128   0.222   2.861
 9128SOL    HW227431   6.112   0.251   2.701
 9129SOL     OW27432   6.570   1.450   2.333
 9129SOL    HW127433   6.540   1.527   2.278
 9129SOL    HW227434   6.544   1.464   2.428
 9130SOL     OW27435   5.942   1.814   2.733
 9130SOL    HW127436   5.986   1.725   2.740
 9130SOL    HW227437   6.009   1.886   2.752
 9131SOL     OW27438   6.795   1.559   3.365
 9131SOL    HW127439   6.801   1.484   3.432
 9131SOL    HW227440   6.750   1.527   3.282
 9132SOL     OW27441   5.907   0.959   2.117
 9132SOL    HW127442   5.995   0.980   2.074
 9132SOL    HW227443   5.870   0.874   2.080
 9133SOL     OW27444   6.053   1.263   3.592
 9133SOL    HW127445   6.027   1.271   3.496
 9133SOL    HW227446   5.971   1.263   3.649
 9134SOL     OW27447   6.713   1.771   2.104
 9134SOL    HW127448   6.630   1.743   2.153
 9134SOL    HW227449   6.726   1.714   2.024
 9135SOL     OW27450   5.778   0.272   3.375
 9135SOL    HW127451   5.719   0.351   3.361
 9135SOL    HW227452   5.802   0.265   3.472
 9136SOL     OW27453   6.049   1.735   2.180
 9136SOL    HW127454   6.091   1.797   2.246
 9136SOL    HW227455   6.119   1.698   2.119
 9137SOL     OW27456   5.845   1.791   3.087
 9137SOL    HW127457   5.895   1.718   3.133
 9137SOL    HW227458   5.826   1.765   2.993
 9138SOL     OW27459   6.525   1.701   2.758
 9138SOL    HW127460   6.611   1.655   2.779
 9138SOL    HW227461   6.477   1.651   2.685
 9139SOL     OW27462   5.982   0.686   2.336
 9139SOL    HW127463   6.001   0.589   2.350
 9139SOL    HW227464   5.885   0.703   2.354
 9140SOL     OW27465   6.230   0.110   1.964
 9140SOL    HW127466   6.269   0.035   2.018
 9140SOL    HW227467   6.167   0.072   1.896
 9141SOL     OW27468   6.349   0.276   3.631
 9141SOL    HW127469   6.436   0.227   3.625
 9141SOL    HW227470   6.292   0.233   3.702
 9142SOL     OW27471   6.460   1.518   3.053
 9142SOL    HW127472   6.440   1.482   2.962
 9142SOL    HW227473   6.531   1.463   3.096
 9143SOL     OW27474   6.402   1.389   2.805
 9143SOL    HW127475   6.492   1.376   2.764
 9143SOL    HW227476   6.333   1.395   2.732
 9144SOL     OW27477   6.508   0.513   2.758
 9144SOL    HW127478   6.484   0.508   2.661
 9144SOL    HW227479   6.536   0.422   2.790
 9145SOL     OW27480   6.143   0.067   2.356
 9145SOL    HW127481   6.061   0.056   2.413
 9145SOL    HW227482   6.128   0.142   2.291
 9146SOL     OW27483   6.988   1.123   1.882
 9146SOL    HW127484   0.025   1.075   1.962
 9146SOL    HW227485   6.919   1.189   1.911
 9147SOL     OW27486   5.899   0.049   2.047
 9147SOL    HW127487   5.938   0.141   2.049
 9147SOL    HW227488   5.948   6.991   2.112
 9148SOL     OW27489   6.541   0.265   2.316
 9148SOL    HW127490   6.505   0.300   2.229
 9148SOL    HW227491   6.640   0.276   2.317
 9149SOL     OW27492   6.655   0.669   3.321
 9149SOL    HW127493   6.560   0.638   3.323
 9149SOL    HW227494   6.716   0.590   3.329
 9150SOL     OW27495   6.781   1.574   2.663
 9150SOL    HW127496   6.797   1.640   2.590
 9150SOL    HW227497   6.867   1.555   2.710
 9151SOL     OW27498   6.055   1.153   2.589
 9151SOL    HW127499   5.989   1.132   2.661
 9151SOL    HW227500   6.012   1.140   2.500
 9152SOL     OW27501   6.836   1.792   2.470
 9152SOL    HW127502   6.873   1.854   2.400
 9152SOL    HW227503   6.766   1.840   2.522
 9153SOL     OW27504   6.607   0.537   1.891
 9153SOL    HW127505   6.561   0.624   1.873
 9153SOL    HW227506   6.672   0.549   1.966
 9154SOL     OW27507   5.678   0.552   3.259
 9154SOL    HW127508   5.771   0.553   3.222
 9154SOL    HW227509   5.668   0.626   3.326
 9155SOL     OW27510   6.158   0.245   3.039
 9155SOL    HW127511   6.210   0.170   3.080
 9155SOL    HW227512   6.062   0.239   3.069
 9156SOL     OW27513   6.449   0.460   2.498
 9156SOL    HW127514   6.402   0.525   2.438
 9156SOL    HW227515   6.478   0.381   2.445
 9157SOL     OW27516   6.528   0.033   2.636
 9157SOL    HW127517   6.475   0.021   2.553
 9157SOL    HW227518   6.610   6.976   2.632
 9158SOL     OW27519   6.072   1.422   2.020
 9158SOL    HW127520   5.991   1.394   2.070
 9158SOL    HW227521   6.076   1.374   1.932
 9159SOL     OW27522   6.108   0.262   2.163
 9159SOL    HW127523   6.165   0.213   2.097
 9159SOL    HW227524   6.084   0.352   2.126
 9160SOL     OW27525   6.626   1.347   3.193
 9160SOL    HW127526   6.543   1.321   3.241
 9160SOL    HW227527   6.705   1.304   3.235
 9161SOL     OW27528   6.729   1.228   2.962
 9161SOL    HW127529   6.670   1.258   3.037
 9161SOL    HW227530   6.688   1.254   2.875
 9162SOL     OW27531   6.473   0.150   3.247
 9162SOL    HW127532   6.488   0.116   3.154
 9162SOL    HW227533   6.561   0.170   3.290
 9163SOL     OW27534   6.566   1.114   3.590
 9163SOL    HW127535   6.471   1.136   3.615
 9163SOL    HW227536   6.566   1.034   3.530
 9164SOL     OW27537   6.299   1.058   2.235
 9164SOL    HW127538   6.282   1.041   2.332
 9164SOL    HW227539   6.377   1.005   2.205
 9165SOL     OW27540   6.010   0.817   3.116
 9165SOL    HW127541   6.083   0.829   3.183
 9165SOL    HW227542   5.971   0.726   3.125
 9166SOL     OW27543   6.858   0.363   3.146
 9166SOL    HW127544   6.915   0.441   3.171
 9166SOL    HW227545   6.766   0.395   3.122
 9167SOL     OW27546   5.661   1.572   3.216
 9167SOL    HW127547   5.625   1.642   3.153
 9167SOL    HW227548   5.761   1.570   3.209
 9168SOL     OW27549   5.926   1.120   2.349
 9168SOL    HW127550   5.931   1.202   2.292
 9168SOL    HW227551   5.924   1.039   2.290
 9169SOL     OW27552   6.139   0.547   2.724
 9169SOL    HW127553   6.152   0.606   2.644
 9169SOL    HW227554   6.210   0.566   2.792
 9170SOL     OW27555   6.824   1.372   2.282
 9170SOL    HW127556   6.878   1.449   2.316
 9170SOL    HW227557   6.727   1.389   2.298
 9171SOL     OW27558   6.851   1.479   3.003
 9171SOL    HW127559   6.931   1.475   3.063
 9171SOL    HW227560   6.812   1.388   2.993
 9172SOL     OW27561   5.934   1.530   3.171
 9172SOL    HW127562   5.918   1.485   3.083
 9172SOL    HW227563   6.032   1.544   3.184
 9173SOL     OW27564   6.005   0.744   3.463
 9173SOL    HW127565   6.068   0.793   3.403
 9173SOL    HW227566   6.041   0.653   3.484
 9174SOL     OW27567   6.582   0.132   3.613
 9174SOL    HW127568   6.625   0.193   3.546
 9174SOL    HW227569   6.595   0.037   3.583
 9175SOL     OW27570   6.048   0.038   3.621
 9175SOL    HW127571   5.981   6.965   3.606
 9175SOL    HW227572   6.001   0.125   3.629
 9176SOL     OW27573   6.170   0.874   2.895
 9176SOL    HW127574   6.206   0.967   2.894
 9176SOL    HW227575   6.110   0.863   2.974
 9177SOL     OW27576   6.950   0.844   2.892
 9177SOL    HW127577   6.857   0.833   2.857
 9177SOL    HW227578   6.986   0.755   2.920
 9178SOL     OW27579   6.768   0.538   2.111
 9178SOL    HW127580   6.790   0.452   2.159
 9178SOL    HW227581   6.729   0.602   2.177
 9179SOL     OW27582   5.896   0.208   3.109
 9179SOL    HW127583   5.832   0.216   3.185
 9179SOL    HW227584   5.886   0.118   3.066
 9180SOL     OW27585   5.639   1.310   3.137
 9180SOL    HW127586   5.670   1.248   3.209
 9180SOL    HW227587   5.641   1.404   3.170
 9181SOL     OW27588   6.316   0.639   2.918
 9181SOL    HW127589   6.389   0.617   2.853
 9181SOL    HW227590   6.277   0.728   2.895
 9182SOL     OW27591   5.909   0.059   2.492
 9182SOL    HW127592   5.885   0.153   2.519
 9182SOL    HW227593   5.861   6.994   2.551
 9183SOL     OW27594   0.197   0.447   2.207
 9183SOL    HW127595   0.213   0.356   2.244
 9183SOL    HW227596   0.178   0.511   2.281
 9184SOL     OW27597   6.611   0.757   2.821
 9184SOL    HW127598   6.604   0.777   2.918
 9184SOL    HW227599   6.583   0.662   2.804
 9185SOL     OW27600   6.554   1.566   3.568
 9185SOL    HW127601   6.541   1.609   3.479
 9185SOL    HW227602   6.607   1.482   3.557
 9186SOL     OW27603   5.939   0.918   3.666
 9186SOL    HW127604   6.018   0.941   3.723
 9186SOL    HW227605   5.965   0.852   3.596
 9187SOL     OW27606   6.884   0.817   1.890
 9187SOL    HW127607   6.944   0.748   1.931
 9187SOL    HW227608   6.926   0.851   1.806
 9188SOL     OW27609   6.649   1.334   2.718
 9188SOL    HW127610   6.655   1.258   2.653
 9188SOL    HW227611   6.701   1.412   2.683
 9189SOL     OW27612   5.897   0.810   2.804
 9189SOL    HW127613   5.994   0.836   2.798
 9189SOL    HW227614   5.890   0.715   2.836
 9190SOL     OW27615   5.921   0.540   2.874
 9190SOL    HW127616   5.877   0.451   2.862
 9190SOL    HW227617   6.002   0.546   2.816
 9191SOL     OW27618   6.689   0.386   3.540
 9191SOL    HW127619   6.645   0.438   3.614
 9191SOL    HW227620   6.788   0.402   3.544
 9192SOL     OW27621   6.716   0.219   3.338
 9192SOL    HW127622   6.709   0.287   3.410
 9192SOL    HW227623   6.766   0.257   3.261
 9193SOL     OW27624   5.586   1.314   2.057
 9193SOL    HW127625   5.496   1.334   2.017
 9193SOL    HW227626   5.587   1.221   2.092
 9194SOL     OW27627   5.680   1.782   2.806
 9194SOL    HW127628   5.643   1.702   2.760
 9194SOL    HW227629   5.773   1.799   2.774
 9195SOL     OW27630   6.079   1.576   2.766
 9195SOL    HW127631   6.149   1.642   2.793
 9195SOL    HW227632   6.119   1.508   2.704
 9196SOL     OW27633   6.562   0.792   3.086
 9196SOL    HW127634   6.621   0.766   3.163
 9196SOL    HW227635   6.473   0.749   3.096
 9197SOL     OW27636   5.621   0.551   2.983
 9197SOL    HW127637   5.698   0.532   2.922
 9197SOL    HW227638   5.653   0.552   3.077
 9198SOL     OW27639   5.770   0.531   3.592
 9198SOL    HW127640   5.849   0.497   3.541
 9198SOL    HW227641   5.731   0.610   3.545
 9199SOL     OW27642   6.403   0.576   2.221
 9199SOL    HW127643   6.412   0.495   2.163
 9199SOL    HW227644   6.324   0.629   2.192
 9200SOL     OW27645   5.825   1.546   3.587
 9200SOL    HW127646   5.804   1.621   3.651
 9200SOL    HW227647   5.832   1.460   3.638
 9201SOL     OW27648   6.302   0.462   3.118
 9201SOL    HW127649   6.244   0.383   3.094
 9201SOL    HW227650   6.299   0.528   3.043
 9202SOL     OW27651   6.498   1.687   3.329
 9202SOL    HW127652   6.480   1.636   3.244
 9202SOL    HW227653   6.494   1.785   3.311
 9203SOL     OW27654   6.045   0.495   2.039
 9203SOL    HW127655   6.109   0.567   2.067
 9203SOL    HW227656   5.953   0.535   2.029
 9204SOL     OW27657   5.726   1.138   3.338
 9204SOL    HW127658   5.729   1.094   3.428
 9204SOL    HW227659   5.746   1.070   3.267
 9205SOL     OW27660   6.894   1.044   3.083
 9205SOL    HW127661   6.918   0.971   3.020
 9205SOL    HW227662   6.832   1.108   3.038
 9206SOL     OW27663   6.888   0.871   2.170
 9206SOL    HW127664   6.822   0.833   2.235
 9206SOL    HW227665   6.856   0.853   2.077
 9207SOL     OW27666   6.847   1.749   2.976
 9207SOL    HW127667   6.926   1.766   2.918
 9207SOL    HW227668   6.836   1.651   2.990
 9208SOL     OW27669   5.673   1.264   2.872
 9208SOL    HW127670   5.657   1.280   2.970
 9208SOL    HW227671   5.600   1.206   2.835
 9209SOL     OW27672   6.267   1.674   3.603
 9209SOL    HW127673   6.206   1.753   3.592
 9209SOL    HW227674   6.344   1.683   3.540
 9210SOL     OW27675   6.979   1.586   2.354
 9210SOL    HW127676   0.064   1.627   2.322
 9210SOL    HW227677   6.917   1.658   2.386
 9211SOL     OW27678   5.732   1.787   3.708
 9211SOL    HW127679   5.674   1.719   3.753
 9211SOL    HW227680   5.781   1.840   3.777
 9212SOL     OW27681   6.870   0.919   2.521
 9212SOL    HW127682   6.957   0.874   2.545
 9212SOL    HW227683   6.889   1.000   2.466
 9213SOL     OW27684   6.380   1.277   3.286
 9213SOL    HW127685   6.351   1.323   3.370
 9213SOL    HW227686   6.311   1.290   3.215
 9214SOL     OW27687   6.253   1.624   2.017
 9214SOL    HW127688   6.270   1.642   1.920
 9214SOL    HW227689   6.197   1.542   2.027
 9215SOL     OW27690   5.845   0.312   2.577
 9215SOL    HW127691   5.756   0.349   2.550
 9215SOL    HW227692   5.851   0.311   2.677
 9216SOL     OW27693   6.747   1.607   1.899
 9216SOL    HW127694   6.772   1.510   1.899
 9216SOL    HW227695   6.685   1.626   1.823
 9217SOL     OW27696   6.412   1.009   3.242
 9217SOL    HW127697   6.459   0.996   3.155
 9217SOL    HW227698   6.404   1.107   3.261
 9218SOL     OW27699   6.504   0.910   2.146
 9218SOL    HW127700   6.569   0.947   2.079
 9218SOL    HW227701   6.550   0.840   2.201
 9219SOL     OW27702   5.950   1.303   3.348
 9219SOL    HW127703   5.941   1.383   3.290
 9219SOL    HW227704   5.870   1.244   3.337
 9220SOL     OW27705   6.644   1.106   2.574
 9220SOL    HW127706   6.569   1.056   2.615
 9220SOL    HW227707   6.712   1.042   2.539
 9221SOL     OW27708   6.598   0.254   2.816
 9221SOL    HW127709   6.568   0.208   2.732
 9221SOL    HW227710   6.593   0.190   2.893
 9222SOL     OW27711   6.192   1.486   2.341
 9222SOL    HW127712   6.244   1.432   2.275
 9222SOL    HW227713   6.115   1.531   2.294
 9223SOL     OW27714   5.838   1.347   2.150
 9223SOL    HW127715   5.742   1.340   2.123
 9223SOL    HW227716   5.844   1.387   2.242
 9224SOL     OW27717   5.701   1.036   3.591
 9224SOL    HW127718   5.619   1.008   3.642
 9224SOL    HW227719   5.781   0.990   3.629
 9225SOL     OW27720   6.254   0.241   3.373
 9225SOL    HW127721   6.333   0.214   3.319
 9225SOL    HW227722   6.285   0.271   3.464
 9226SOL     OW27723   5.662   0.333   1.896
 9226SOL    HW127724   5.566   0.310   1.879
 9226SOL    HW227725   5.686   0.414   1.842
 9227SOL     OW27726   5.657   0.178   2.178
 9227SOL    HW127727   5.661   0.248   2.107
 9227SOL    HW227728   5.707   0.097   2.147
 9228SOL     OW27729   6.212   0.828   3.296
 9228SOL    HW127730   6.268   0.910   3.281
 9228SOL    HW227731   6.271   0.749   3.307
 9229SOL     OW27732   6.310   0.556   3.567
 9229SOL    HW127733   6.352   0.625   3.626
 9229SOL    HW227734   6.325   0.465   3.606
 9230SOL     OW27735   6.997   1.262   3.511
 9230SOL    HW127736   6.998   1.199   3.589
 9230SOL    HW227737   0.077   1.245   3.453
 9231SOL     OW27738   5.956   1.739   3.430
 9231SOL    HW127739   5.872   1.791   3.415
 9231SOL    HW227740   5.934   1.650   3.471
 9232SOL     OW27741   6.820   0.308   2.303
 9232SOL    HW127742   6.892   0.258   2.256
 9232SOL    HW227743   6.859   0.362   2.377
 9233SOL     OW27744   6.173   0.737   2.529
 9233SOL    HW127745   6.214   0.828   2.518
 9233SOL    HW227746   6.104   0.723   2.459
 9234SOL     OW27747   6.427   1.367   1.895
 9234SOL    HW127748   6.410   1.388   1.991
 9234SOL    HW227749   6.459   1.450   1.848
 9235SOL     OW27750   6.251   1.783   2.802
 9235SOL    HW127751   6.228   1.879   2.783
 9235SOL    HW227752   6.350   1.772   2.795
 9236SOL     OW27753   6.454   0.971   2.718
 9236SOL    HW127754   6.506   0.893   2.753
 9236SOL    HW227755   6.412   1.020   2.795
 9237SOL     OW27756   6.672   0.989   1.949
 9237SOL    HW127757   6.637   1.043   1.873
 9237SOL    HW227758   6.744   0.928   1.916
 9238SOL     OW27759   5.817   1.298   3.718
 9238SOL    HW127760   5.752   1.231   3.684
 9238SOL    HW227761   5.803   1.311   3.817
 9239SOL     OW27762   5.674   1.229   2.525
 9239SOL    HW127763   5.680   1.184   2.614
 9239SOL    HW227764   5.742   1.189   2.463
 9240SOL     OW27765   6.262   1.412   3.489
 9240SOL    HW127766   6.185   1.361   3.527
 9240SOL    HW227767   6.266   1.502   3.533
 9241SOL     OW27768   6.016   0.425   2.385
 9241SOL    HW127769   6.051   0.354   2.324
 9241SOL    HW227770   5.963   0.383   2.459
 9242SOL     OW27771   5.922   0.560   3.150
 9242SOL    HW127772   5.978   0.501   3.208
 9242SOL    HW227773   5.938   0.537   3.054
 9243SOL     OW27774   6.412   1.580   2.541
 9243SOL    HW127775   6.394   1.643   2.465
 9243SOL    HW227776   6.336   1.516   2.550
 9244SOL     OW27777   6.972   0.218   2.941
 9244SOL    HW127778   0.003   0.133   2.983
 9244SOL    HW227779   6.929   0.276   3.010
 9245SOL     OW27780   6.558   0.058   2.997
 9245SOL    HW127781   6.505   6.997   2.938
 9245SOL    HW227782   6.609   0.004   3.064
 9246SOL     OW27783   6.360   1.332   2.183
 9246SOL    HW127784   6.333   1.236   2.191
 9246SOL    HW227785   6.445   1.346   2.234
 9247SOL     OW27786   6.209   1.560   3.151
 9247SOL    HW127787   6.206   1.647   3.201
 9247SOL    HW227788   6.300   1.547   3.111
 9248SOL     OW27789   5.629   1.063   2.170
 9248SOL    HW127790   5.727   1.063   2.151
 9248SOL    HW227791   5.599   0.970   2.192
 9249SOL     OW27792   6.466   1.667   2.203
 9249SOL    HW127793   6.393   1.645   2.139
 9249SOL    HW227794   6.438   1.743   2.262
 9250SOL     OW27795   5.805   0.619   3.853
 9250SOL    HW127796   5.715   0.618   3.898
 9250SOL    HW227797   5.794   0.599   3.756
 9251SOL     OW27798   5.807   0.304   4.721
 9251SOL    HW127799   5.849   0.266   4.803
 9251SOL    HW227800   5.725   0.252   4.698
 9252SOL     OW27801   5.596   0.396   4.351
 9252SOL    HW127802   5.507   0.413   4.394
 9252SOL    HW227803   5.586   0.324   4.282
 9253SOL     OW27804   6.155   1.299   4.912
 9253SOL    HW127805   6.065   1.296   4.868
 9253SOL    HW227806   6.173   1.392   4.945
 9254SOL     OW27807   0.068   1.545   4.485
 9254SOL    HW127808   0.104   1.451   4.492
 9254SOL    HW227809   0.038   1.561   4.391
 9255SOL     OW27810   6.692   0.721   4.411
 9255SOL    HW127811   6.760   0.794   4.399
 9255SOL    HW227812   6.658   0.722   4.504
 9256SOL     OW27813   6.328   1.140   4.767
 9256SOL    HW127814   6.260   1.176   4.832
 9256SOL    HW227815   6.373   1.216   4.720
 9257SOL     OW27816   6.460   0.765   5.547
 9257SOL    HW127817   6.442   0.831   5.620
 9257SOL    HW227818   6.483   0.813   5.463
 9258SOL     OW27819   6.269   0.999   4.372
 9258SOL    HW127820   6.341   0.988   4.441
 9258SOL    HW227821   6.195   1.055   4.409
 9259SOL     OW27822   6.293   1.149   5.539
 9259SOL    HW127823   6.342   1.230   5.572
 9259SOL    HW227824   6.207   1.178   5.496
 9260SOL     OW27825   5.913   1.422   4.790
 9260SOL    HW127826   5.836   1.377   4.744
 9260SOL    HW227827   5.965   1.475   4.723
 9261SOL     OW27828   6.030   0.398   5.206
 9261SOL    HW127829   6.115   0.347   5.214
 9261SOL    HW227830   5.952   0.335   5.212
 9262SOL     OW27831   5.808   1.715   4.195
 9262SOL    HW127832   5.826   1.793   4.255
 9262SOL    HW227833   5.883   1.705   4.129
 9263SOL     OW27834   6.720   1.346   5.429
 9263SOL    HW127835   6.814   1.313   5.423
 9263SOL    HW227836   6.657   1.268   5.432
 9264SOL     OW27837   5.820   1.444   4.260
 9264SOL    HW127838   5.803   1.542   4.259
 9264SOL    HW227839   5.760   1.400   4.327
 9265SOL     OW27840   5.857   1.091   4.625
 9265SOL    HW127841   5.853   0.996   4.657
 9265SOL    HW227842   5.794   1.147   4.679
 9266SOL     OW27843   6.181   1.799   5.148
 9266SOL    HW127844   6.099   1.773   5.199
 9266SOL    HW227845   6.213   1.889   5.178
 9267SOL     OW27846   6.167   0.987   3.866
 9267SOL    HW127847   6.213   1.034   3.791
 9267SOL    HW227848   6.207   1.015   3.953
 9268SOL     OW27849   5.701   0.662   4.288
 9268SOL    HW127850   5.674   0.567   4.306
 9268SOL    HW227851   5.695   0.714   4.373
 9269SOL     OW27852   5.616   1.590   3.846
 9269SOL    HW127853   5.599   1.493   3.865
 9269SOL    HW227854   5.595   1.643   3.928
 9270SOL     OW27855   5.708   0.749   5.306
 9270SOL    HW127856   5.803   0.779   5.308
 9270SOL    HW227857   5.648   0.830   5.305
 9271SOL     OW27858   6.198   1.392   4.457
 9271SOL    HW127859   6.153   1.304   4.469
 9271SOL    HW227860   6.186   1.422   4.362
 9272SOL     OW27861   6.839   1.222   5.153
 9272SOL    HW127862   6.876   1.151   5.093
 9272SOL    HW227863   6.900   1.235   5.231
 9273SOL     OW27864   6.411   0.028   4.240
 9273SOL    HW127865   6.450   0.119   4.222
 9273SOL    HW227866   6.311   0.035   4.244
 9274SOL     OW27867   5.776   0.961   5.002
 9274SOL    HW127868   5.865   0.919   4.987
 9274SOL    HW227869   5.708   0.915   4.945
 9275SOL     OW27870   6.782   1.815   5.340
 9275SOL    HW127871   6.766   1.884   5.270
 9275SOL    HW227872   6.780   1.724   5.299
 9276SOL     OW27873   5.906   0.271   5.514
 9276SOL    HW127874   5.969   0.337   5.556
 9276SOL    HW227875   5.819   0.272   5.563
 9277SOL     OW27876   6.178   0.718   3.996
 9277SOL    HW127877   6.183   0.805   3.947
 9277SOL    HW227878   6.110   0.724   4.069
 9278SOL     OW27879   6.849   0.372   4.612
 9278SOL    HW127880   6.753   0.356   4.635
 9278SOL    HW227881   6.908   0.331   4.682
 9279SOL     OW27882   6.387   0.615   5.180
 9279SOL    HW127883   6.357   0.589   5.272
 9279SOL    HW227884   6.348   0.551   5.113
 9280SOL     OW27885   6.943   0.470   5.401
 9280SOL    HW127886   6.903   0.549   5.447
 9280SOL    HW227887   0.043   0.473   5.408
 9281SOL     OW27888   6.543   0.885   5.308
 9281SOL    HW127889   6.599   0.812   5.270
 9281SOL    HW227890   6.489   0.928   5.235
 9282SOL     OW27891   6.593   0.411   4.953
 9282SOL    HW127892   6.505   0.429   4.998
 9282SOL    HW227893   6.577   0.367   4.865
 9283SOL     OW27894   6.634   0.701   4.147
 9283SOL    HW127895   6.653   0.703   4.245
 9283SOL    HW227896   6.548   0.653   4.130
 9284SOL     OW27897   5.674   0.829   4.504
 9284SOL    HW127898   5.760   0.816   4.554
 9284SOL    HW227899   5.625   0.908   4.542
 9285SOL     OW27900   5.714   1.874   5.313
 9285SOL    HW127901   5.719   1.847   5.409
 9285SOL    HW227902   5.630   1.839   5.272
 9286SOL     OW27903   6.475   0.354   3.923
 9286SOL    HW127904   6.522   0.413   3.859
 9286SOL    HW227905   6.449   0.269   3.877
 9287SOL     OW27906   6.928   1.134   4.239
 9287SOL    HW127907   6.996   1.115   4.168
 9287SOL    HW227908   6.877   1.216   4.216
 9288SOL     OW27909   6.087   0.189   4.638
 9288SOL    HW127910   6.128   0.222   4.723
 9288SOL    HW227911   6.112   0.251   4.563
 9289SOL     OW27912   6.570   1.449   4.195
 9289SOL    HW127913   6.540   1.527   4.140
 9289SOL    HW227914   6.544   1.464   4.290
 9290SOL     OW27915   5.942   1.814   4.595
 9290SOL    HW127916   5.986   1.725   4.602
 9290SOL    HW227917   6.009   1.886   4.615
 9291SOL     OW27918   6.796   1.559   5.227
 9291SOL    HW127919   6.801   1.484   5.294
 9291SOL    HW227920   6.750   1.527   5.144
 9292SOL     OW27921   5.907   0.959   3.979
 9292SOL    HW127922   5.995   0.980   3.936
 9292SOL    HW227923   5.870   0.874   3.942
 9293SOL     OW27924   6.053   1.263   5.454
 9293SOL    HW127925   6.027   1.270   5.357
 9293SOL    HW227926   5.971   1.263   5.511
 9294SOL     OW27927   6.713   1.772   3.966
 9294SOL    HW127928   6.630   1.743   4.015
 9294SOL    HW227929   6.726   1.714   3.886
 9295SOL     OW27930   5.778   0.272   5.237
 9295SOL    HW127931   5.719   0.351   5.223
 9295SOL    HW227932   5.802   0.265   5.334
 9296SOL     OW27933   6.049   1.735   4.041
 9296SOL    HW127934   6.091   1.797   4.108
 9296SOL    HW227935   6.119   1.698   3.981
 9297SOL     OW27936   5.845   1.792   4.949
 9297SOL    HW127937   5.895   1.719   4.995
 9297SOL    HW227938   5.826   1.765   4.855
 9298SOL     OW27939   6.525   1.701   4.620
 9298SOL    HW127940   6.610   1.655   4.642
 9298SOL    HW227941   6.477   1.651   4.547
 9299SOL     OW27942   5.982   0.686   4.198
 9299SOL    HW127943   6.001   0.589   4.212
 9299SOL    HW227944   5.885   0.703   4.216
 9300SOL     OW27945   6.230   0.110   3.826
 9300SOL    HW127946   6.269   0.035   3.880
 9300SOL    HW227947   6.167   0.072   3.758
 9301SOL     OW27948   6.349   0.276   5.493
 9301SOL    HW127949   6.436   0.227   5.488
 9301SOL    HW227950   6.292   0.233   5.564
 9302SOL     OW27951   6.460   1.518   4.915
 9302SOL    HW127952   6.440   1.482   4.824
 9302SOL    HW227953   6.531   1.463   4.958
 9303SOL     OW27954   6.402   1.389   4.667
 9303SOL    HW127955   6.492   1.376   4.626
 9303SOL    HW227956   6.333   1.395   4.594
 9304SOL     OW27957   6.508   0.513   4.620
 9304SOL    HW127958   6.484   0.508   4.523
 9304SOL    HW227959   6.536   0.422   4.652
 9305SOL     OW27960   6.143   0.067   4.218
 9305SOL    HW127961   6.061   0.056   4.275
 9305SOL    HW227962   6.128   0.142   4.153
 9306SOL     OW27963   6.989   1.123   3.743
 9306SOL    HW127964   0.025   1.075   3.823
 9306SOL    HW227965   6.920   1.189   3.773
 9307SOL     OW27966   5.898   0.049   3.909
 9307SOL    HW127967   5.938   0.141   3.911
 9307SOL    HW227968   5.948   6.990   3.974
 9308SOL     OW27969   6.541   0.265   4.178
 9308SOL    HW127970   6.505   0.300   4.091
 9308SOL    HW227971   6.640   0.276   4.179
 9309SOL     OW27972   6.655   0.669   5.183
 9309SOL    HW127973   6.560   0.638   5.185
 9309SOL    HW227974   6.716   0.590   5.191
 9310SOL     OW27975   6.781   1.574   4.525
 9310SOL    HW127976   6.797   1.640   4.452
 9310SOL    HW227977   6.867   1.555   4.572
 9311SOL     OW27978   6.055   1.153   4.451
 9311SOL    HW127979   5.989   1.132   4.523
 9311SOL    HW227980   6.012   1.140   4.362
 9312SOL     OW27981   6.836   1.792   4.332
 9312SOL    HW127982   6.874   1.854   4.262
 9312SOL    HW227983   6.766   1.839   4.384
 9313SOL     OW27984   6.607   0.537   3.753
 9313SOL    HW127985   6.561   0.624   3.735
 9313SOL    HW227986   6.672   0.549   3.829
 9314SOL     OW27987   5.678   0.552   5.121
 9314SOL    HW127988   5.771   0.553   5.084
 9314SOL    HW227989   5.668   0.626   5.187
 9315SOL     OW27990   6.158   0.245   4.901
 9315SOL    HW127991   6.210   0.170   4.942
 9315SOL    HW227992   6.062   0.239   4.931
 9316SOL     OW27993   6.449   0.460   4.360
 9316SOL    HW127994   6.402   0.525   4.300
 9316SOL    HW227995   6.478   0.381   4.307
 9317SOL     OW27996   6.529   0.033   4.498
 9317SOL    HW127997   6.475   0.021   4.415
 9317SOL    HW227998   6.610   6.976   4.494
 9318SOL     OW27999   6.072   1.422   3.882
 9318SOL    HW128000   5.991   1.394   3.932
 9318SOL    HW228001   6.076   1.374   3.794
 9319SOL     OW28002   6.108   0.262   4.025
 9319SOL    HW128003   6.165   0.213   3.959
 9319SOL    HW228004   6.084   0.352   3.988
 9320SOL     OW28005   6.626   1.347   5.055
 9320SOL    HW128006   6.543   1.321   5.103
 9320SOL    HW228007   6.705   1.304   5.097
 9321SOL     OW28008   6.729   1.228   4.824
 9321SOL    HW128009   6.670   1.258   4.899
 9321SOL    HW228010   6.688   1.254   4.737
 9322SOL     OW28011   6.473   0.150   5.109
 9322SOL    HW128012   6.488   0.116   5.016
 9322SOL    HW228013   6.561   0.170   5.152
 9323SOL     OW28014   6.566   1.113   5.452
 9323SOL    HW128015   6.472   1.136   5.478
 9323SOL    HW228016   6.566   1.034   5.392
 9324SOL     OW28017   6.299   1.059   4.097
 9324SOL    HW128018   6.282   1.041   4.194
 9324SOL    HW228019   6.377   1.005   4.067
 9325SOL     OW28020   6.010   0.817   4.978
 9325SOL    HW128021   6.083   0.829   5.045
 9325SOL    HW228022   5.970   0.726   4.987
 9326SOL     OW28023   6.858   0.363   5.008
 9326SOL    HW128024   6.915   0.441   5.033
 9326SOL    HW228025   6.766   0.395   4.984
 9327SOL     OW28026   5.661   1.572   5.078
 9327SOL    HW128027   5.625   1.642   5.016
 9327SOL    HW228028   5.761   1.570   5.072
 9328SOL     OW28029   5.926   1.120   4.211
 9328SOL    HW128030   5.931   1.202   4.154
 9328SOL    HW228031   5.924   1.039   4.153
 9329SOL     OW28032   6.139   0.547   4.586
 9329SOL    HW128033   6.152   0.606   4.506
 9329SOL    HW228034   6.210   0.566   4.654
 9330SOL     OW28035   6.824   1.372   4.144
 9330SOL    HW128036   6.878   1.449   4.177
 9330SOL    HW228037   6.727   1.389   4.160
 9331SOL     OW28038   6.851   1.479   4.865
 9331SOL    HW128039   6.931   1.475   4.925
 9331SOL    HW228040   6.812   1.387   4.856
 9332SOL     OW28041   5.934   1.530   5.033
 9332SOL    HW128042   5.918   1.485   4.945
 9332SOL    HW228043   6.032   1.544   5.046
 9333SOL     OW28044   6.005   0.744   5.325
 9333SOL    HW128045   6.068   0.793   5.265
 9333SOL    HW228046   6.041   0.653   5.346
 9334SOL     OW28047   6.582   0.132   5.475
 9334SOL    HW128048   6.625   0.193   5.409
 9334SOL    HW228049   6.595   0.037   5.445
 9335SOL     OW28050   6.048   0.037   5.483
 9335SOL    HW128051   5.980   6.965   5.469
 9335SOL    HW228052   6.001   0.125   5.491
 9336SOL     OW28053   6.170   0.874   4.757
 9336SOL    HW128054   6.206   0.967   4.756
 9336SOL    HW228055   6.110   0.863   4.836
 9337SOL     OW28056   6.950   0.844   4.754
 9337SOL    HW128057   6.857   0.833   4.719
 9337SOL    HW228058   6.986   0.755   4.782
 9338SOL     OW28059   6.768   0.538   3.974
 9338SOL    HW128060   6.790   0.452   4.021
 9338SOL    HW228061   6.729   0.602   4.039
 9339SOL     OW28062   5.896   0.208   4.971
 9339SOL    HW128063   5.832   0.216   5.047
 9339SOL    HW228064   5.886   0.118   4.928
 9340SOL     OW28065   5.639   1.310   4.998
 9340SOL    HW128066   5.670   1.248   5.071
 9340SOL    HW228067   5.641   1.404   5.032
 9341SOL     OW28068   6.316   0.639   4.780
 9341SOL    HW128069   6.389   0.617   4.715
 9341SOL    HW228070   6.277   0.728   4.757
 9342SOL     OW28071   5.909   0.059   4.354
 9342SOL    HW128072   5.885   0.153   4.381
 9342SOL    HW228073   5.860   6.994   4.412
 9343SOL     OW28074   0.198   0.448   4.068
 9343SOL    HW128075   0.212   0.356   4.105
 9343SOL    HW228076   0.179   0.511   4.143
 9344SOL     OW28077   6.611   0.757   4.683
 9344SOL    HW128078   6.604   0.777   4.780
 9344SOL    HW228079   6.583   0.662   4.666
 9345SOL     OW28080   6.554   1.566   5.430
 9345SOL    HW128081   6.541   1.610   5.341
 9345SOL    HW228082   6.607   1.482   5.419
 9346SOL     OW28083   5.938   0.918   5.528
 9346SOL    HW128084   6.018   0.941   5.585
 9346SOL    HW228085   5.966   0.852   5.458
 9347SOL     OW28086   6.885   0.817   3.752
 9347SOL    HW128087   6.944   0.748   3.793
 9347SOL    HW228088   6.926   0.851   3.668
 9348SOL     OW28089   6.649   1.334   4.580
 9348SOL    HW128090   6.655   1.258   4.515
 9348SOL    HW228091   6.701   1.412   4.545
 9349SOL     OW28092   5.897   0.810   4.666
 9349SOL    HW128093   5.994   0.836   4.660
 9349SOL    HW228094   5.890   0.715   4.698
 9350SOL     OW28095   5.921   0.540   4.736
 9350SOL    HW128096   5.877   0.451   4.724
 9350SOL    HW228097   6.002   0.546   4.678
 9351SOL     OW28098   6.689   0.386   5.402
 9351SOL    HW128099   6.645   0.438   5.476
 9351SOL    HW228100   6.788   0.401   5.406
 9352SOL     OW28101   6.716   0.219   5.200
 9352SOL    HW128102   6.709   0.287   5.272
 9352SOL    HW228103   6.766   0.257   5.123
 9353SOL     OW28104   5.586   1.314   3.919
 9353SOL    HW128105   5.496   1.334   3.879
 9353SOL    HW228106   5.587   1.221   3.954
 9354SOL     OW28107   5.680   1.782   4.668
 9354SOL    HW128108   5.643   1.702   4.622
 9354SOL    HW228109   5.773   1.799   4.636
 9355SOL     OW28110   6.079   1.576   4.628
 9355SOL    HW128111   6.149   1.642   4.655
 9355SOL    HW228112   6.119   1.508   4.566
 9356SOL     OW28113   6.562   0.792   4.948
 9356SOL    HW128114   6.621   0.766   5.025
 9356SOL    HW228115   6.473   0.749   4.959
 9357SOL     OW28116   5.621   0.552   4.845
 9357SOL    HW128117   5.698   0.532   4.784
 9357SOL    HW228118   5.653   0.552   4.939
 9358SOL     OW28119   5.770   0.531   5.454
 9358SOL    HW128120   5.849   0.497   5.402
 9358SOL    HW228121   5.730   0.610   5.407
 9359SOL     OW28122   6.403   0.576   4.083
 9359SOL    HW128123   6.412   0.495   4.025
 9359SOL    HW228124   6.324   0.629   4.054
 9360SOL     OW28125   5.825   1.546   5.449
 9360SOL    HW128126   5.804   1.621   5.513
 9360SOL    HW228127   5.832   1.460   5.500
 9361SOL     OW28128   6.302   0.461   4.979
 9361SOL    HW128129   6.244   0.383   4.956
 9361SOL    HW228130   6.299   0.528   4.905
 9362SOL     OW28131   6.498   1.687   5.191
 9362SOL    HW128132   6.480   1.637   5.106
 9362SOL    HW228133   6.494   1.785   5.173
 9363SOL     OW28134   6.045   0.495   3.901
 9363SOL    HW128135   6.109   0.567   3.929
 9363SOL    HW228136   5.953   0.535   3.891
 9364SOL     OW28137   5.726   1.138   5.200
 9364SOL    HW128138   5.728   1.094   5.289
 9364SOL    HW228139   5.747   1.070   5.129
 9365SOL     OW28140   6.894   1.044   4.945
 9365SOL    HW128141   6.918   0.971   4.882
 9365SOL    HW228142   6.832   1.108   4.900
 9366SOL     OW28143   6.888   0.871   4.032
 9366SOL    HW128144   6.822   0.833   4.097
 9366SOL    HW228145   6.856   0.852   3.939
 9367SOL     OW28146   6.847   1.749   4.838
 9367SOL    HW128147   6.926   1.766   4.780
 9367SOL    HW228148   6.836   1.651   4.852
 9368SOL     OW28149   5.673   1.264   4.734
 9368SOL    HW128150   5.657   1.280   4.832
 9368SOL    HW228151   5.600   1.206   4.697
 9369SOL     OW28152   6.267   1.674   5.465
 9369SOL    HW128153   6.206   1.753   5.454
 9369SOL    HW228154   6.344   1.683   5.402
 9370SOL     OW28155   6.979   1.586   4.216
 9370SOL    HW128156   0.064   1.627   4.184
 9370SOL    HW228157   6.917   1.658   4.248
 9371SOL     OW28158   5.732   1.787   5.570
 9371SOL    HW128159   5.674   1.719   5.615
 9371SOL    HW228160   5.781   1.840   5.639
 9372SOL     OW28161   6.870   0.919   4.383
 9372SOL    HW128162   6.957   0.874   4.407
 9372SOL    HW228163   6.889   1.000   4.328
 9373SOL     OW28164   6.380   1.277   5.148
 9373SOL    HW128165   6.351   1.323   5.232
 9373SOL    HW228166   6.311   1.290   5.077
 9374SOL     OW28167   6.253   1.624   3.879
 9374SOL    HW128168   6.270   1.642   3.782
 9374SOL    HW228169   6.197   1.542   3.889
 9375SOL     OW28170   5.845   0.313   4.439
 9375SOL    HW128171   5.756   0.349   4.412
 9375SOL    HW228172   5.851   0.311   4.539
 9376SOL     OW28173   6.747   1.607   3.761
 9376SOL    HW128174   6.772   1.510   3.761
 9376SOL    HW228175   6.684   1.625   3.685
 9377SOL     OW28176   6.412   1.009   5.104
 9377SOL    HW128177   6.459   0.996   5.017
 9377SOL    HW228178   6.404   1.107   5.123
 9378SOL     OW28179   6.504   0.910   4.008
 9378SOL    HW128180   6.569   0.947   3.941
 9378SOL    HW228181   6.550   0.840   4.063
 9379SOL     OW28182   5.951   1.302   5.210
 9379SOL    HW128183   5.941   1.383   5.152
 9379SOL    HW228184   5.870   1.244   5.199
 9380SOL     OW28185   6.644   1.106   4.436
 9380SOL    HW128186   6.569   1.056   4.477
 9380SOL    HW228187   6.712   1.042   4.401
 9381SOL     OW28188   6.598   0.254   4.678
 9381SOL    HW128189   6.568   0.208   4.594
 9381SOL    HW228190   6.593   0.190   4.755
 9382SOL     OW28191   6.192   1.486   4.203
 9382SOL    HW128192   6.244   1.432   4.137
 9382SOL    HW228193   6.115   1.531   4.156
 9383SOL     OW28194   5.838   1.347   4.012
 9383SOL    HW128195   5.742   1.340   3.985
 9383SOL    HW228196   5.844   1.387   4.104
 9384SOL     OW28197   5.701   1.036   5.453
 9384SOL    HW128198   5.619   1.008   5.503
 9384SOL    HW228199   5.781   0.990   5.491
 9385SOL     OW28200   6.254   0.241   5.236
 9385SOL    HW128201   6.334   0.214   5.181
 9385SOL    HW228202   6.285   0.271   5.326
 9386SOL     OW28203   5.661   0.333   3.758
 9386SOL    HW128204   5.566   0.310   3.741
 9386SOL    HW228205   5.686   0.414   3.705
 9387SOL     OW28206   5.657   0.178   4.040
 9387SOL    HW128207   5.661   0.248   3.969
 9387SOL    HW228208   5.707   0.097   4.009
 9388SOL     OW28209   6.212   0.828   5.158
 9388SOL    HW128210   6.268   0.910   5.144
 9388SOL    HW228211   6.271   0.749   5.169
 9389SOL     OW28212   6.310   0.556   5.429
 9389SOL    HW128213   6.352   0.625   5.488
 9389SOL    HW228214   6.325   0.465   5.468
 9390SOL     OW28215   6.998   1.262   5.373
 9390SOL    HW128216   6.998   1.199   5.450
 9390SOL    HW228217   0.077   1.245   5.315
 9391SOL     OW28218   5.956   1.738   5.292
 9391SOL    HW128219   5.872   1.791   5.277
 9391SOL    HW228220   5.934   1.650   5.333
 9392SOL     OW28221   6.820   0.308   4.165
 9392SOL    HW128222   6.892   0.258   4.118
 9392SOL    HW228223   6.859   0.362   4.239
 9393SOL     OW28224   6.173   0.737   4.391
 9393SOL    HW128225   6.214   0.828   4.380
 9393SOL    HW228226   6.104   0.723   4.321
 9394SOL     OW28227   6.427   1.367   3.757
 9394SOL    HW128228   6.410   1.388   3.854
 9394SOL    HW228229   6.459   1.450   3.711
 9395SOL     OW28230   6.251   1.783   4.664
 9395SOL    HW128231   6.228   1.879   4.645
 9395SOL    HW228232   6.350   1.772   4.657
 9396SOL     OW28233   6.454   0.971   4.580
 9396SOL    HW128234   6.506   0.893   4.615
 9396SOL    HW228235   6.411   1.020   4.657
 9397SOL     OW28236   6.672   0.989   3.811
 9397SOL    HW128237   6.637   1.043   3.735
 9397SOL    HW228238   6.744   0.928   3.778
 9398SOL     OW28239   5.818   1.298   5.581
 9398SOL    HW128240   5.752   1.231   5.547
 9398SOL    HW228241   5.804   1.312   5.679
 9399SOL     OW28242   5.674   1.229   4.387
 9399SOL    HW128243   5.679   1.184   4.476
 9399SOL    HW228244   5.742   1.189   4.326
 9400SOL     OW28245   6.262   1.412   5.351
 9400SOL    HW128246   6.185   1.360   5.389
 9400SOL    HW228247   6.266   1.502   5.395
 9401SOL     OW28248   6.016   0.425   4.247
 9401SOL    HW128249   6.051   0.354   4.186
 9401SOL    HW228250   5.963   0.383   4.321
 9402SOL     OW28251   5.922   0.560   5.012
 9402SOL    HW128252   5.978   0.501   5.070
 9402SOL    HW228253   5.938   0.537   4.916
 9403SOL     OW28254   6.412   1.580   4.403
 9403SOL    HW128255   6.394   1.643   4.327
 9403SOL    HW228256   6.336   1.516   4.412
 9404SOL     OW28257   6.972   0.218   4.803
 9404SOL    HW128258   0.003   0.133   4.845
 9404SOL    HW228259   6.929   0.276   4.872
 9405SOL     OW28260   6.558   0.058   4.859
 9405SOL    HW128261   6.505   6.997   4.800
 9405SOL    HW228262   6.609   0.004   4.926
 9406SOL     OW28263   6.361   1.331   4.045
 9406SOL    HW128264   6.333   1.236   4.053
 9406SOL    HW228265   6.445   1.346   4.096
 9407SOL     OW28266   6.209   1.560   5.013
 9407SOL    HW128267   6.206   1.647   5.063
 9407SOL    HW228268   6.300   1.547   4.973
 9408SOL     OW28269   5.629   1.063   4.032
 9408SOL    HW128270   5.727   1.063   4.013
 9408SOL    HW228271   5.599   0.970   4.054
 9409SOL     OW28272   6.466   1.667   4.065
 9409SOL    HW128273   6.393   1.645   4.001
 9409SOL    HW228274   6.438   1.743   4.124
 9410SOL     OW28275   5.805   0.619   5.715
 9410SOL    HW128276   5.715   0.618   5.760
 9410SOL    HW228277   5.793   0.599   5.618
 9411SOL     OW28278   5.802   0.309   6.586
 9411SOL    HW128279   5.844   0.267   6.667
 9411SOL    HW228280   5.722   0.256   6.559
 9412SOL     OW28281   5.596   0.396   6.213
 9412SOL    HW128282   5.508   0.416   6.255
 9412SOL    HW228283   5.585   0.324   6.144
 9413SOL     OW28284   6.143   1.280   6.756
 9413SOL    HW128285   6.057   1.306   6.713
 9413SOL    HW228286   6.174   1.355   6.815
 9414SOL     OW28287   0.068   1.544   6.347
 9414SOL    HW128288   0.104   1.451   6.353
 9414SOL    HW228289   0.038   1.562   6.254
 9415SOL     OW28290   6.692   0.721   6.274
 9415SOL    HW128291   6.759   0.794   6.263
 9415SOL    HW228292   6.657   0.722   6.367
 9416SOL     OW28293   6.337   1.140   6.626
 9416SOL    HW128294   6.264   1.168   6.689
 9416SOL    HW228295   6.374   1.221   6.581
 9417SOL     OW28296   6.269   0.998   6.234
 9417SOL    HW128297   6.340   0.988   6.304
 9417SOL    HW228298   6.195   1.055   6.271
 9418SOL     OW28299   5.918   1.409   6.647
 9418SOL    HW128300   5.833   1.378   6.606
 9418SOL    HW228301   5.964   1.472   6.585
 9419SOL     OW28302   5.808   1.715   6.056
 9419SOL    HW128303   5.826   1.793   6.117
 9419SOL    HW228304   5.883   1.705   5.991
 9420SOL     OW28305   5.819   1.444   6.122
 9420SOL    HW128306   5.803   1.542   6.122
 9420SOL    HW228307   5.761   1.400   6.190
 9421SOL     OW28308   5.853   1.091   6.485
 9421SOL    HW128309   5.851   0.998   6.520
 9421SOL    HW228310   5.796   1.150   6.542
 9422SOL     OW28311   6.174   1.829   6.954
 9422SOL    HW128312   6.099   1.787   0.005
 9422SOL    HW228313   6.208   1.908   0.005
 9423SOL     OW28314   6.167   0.987   5.728
 9423SOL    HW128315   6.214   1.034   5.653
 9423SOL    HW228316   6.207   1.016   5.815
 9424SOL     OW28317   5.701   0.662   6.150
 9424SOL    HW128318   5.673   0.568   6.168
 9424SOL    HW228319   5.695   0.715   6.235
 9425SOL     OW28320   5.615   1.590   5.708
 9425SOL    HW128321   5.599   1.493   5.727
 9425SOL    HW228322   5.595   1.643   5.790
 9426SOL     OW28323   6.200   1.391   6.319
 9426SOL    HW128324   6.153   1.304   6.333
 9426SOL    HW228325   6.186   1.422   6.225
 9427SOL     OW28326   6.821   1.191   0.023
 9427SOL    HW128327   6.870   1.144   6.950
 9427SOL    HW228328   6.887   1.237   0.083
 9428SOL     OW28329   6.411   0.028   6.099
 9428SOL    HW128330   6.450   0.119   6.082
 9428SOL    HW228331   6.311   0.035   6.104
 9429SOL     OW28332   5.777   0.977   6.847
 9429SOL    HW128333   5.861   0.925   6.830
 9429SOL    HW228334   5.697   0.923   6.820
 9430SOL     OW28335   6.178   0.718   5.858
 9430SOL    HW128336   6.183   0.805   5.809
 9430SOL    HW228337   6.110   0.724   5.931
 9431SOL     OW28338   6.853   0.371   6.479
 9431SOL    HW128339   6.756   0.356   6.496
 9431SOL    HW228340   6.907   0.332   6.554
 9432SOL     OW28341   6.403   0.587   0.049
 9432SOL    HW128342   6.350   0.647   0.109
 9432SOL    HW228343   6.342   0.545   6.981
 9433SOL     OW28344   6.578   0.366   6.805
 9433SOL    HW128345   6.521   0.435   6.849
 9433SOL    HW228346   6.534   0.334   6.721
 9434SOL     OW28347   6.635   0.701   6.010
 9434SOL    HW128348   6.653   0.703   6.108
 9434SOL    HW228349   6.548   0.654   5.993
 9435SOL     OW28350   5.675   0.829   6.367
 9435SOL    HW128351   5.761   0.816   6.417
 9435SOL    HW228352   5.626   0.908   6.403
 9436SOL     OW28353   5.742   1.853   0.150
 9436SOL    HW128354   5.701   1.775   0.198
 9436SOL    HW228355   5.694   1.868   0.064
 9437SOL     OW28356   6.475   0.354   5.785
 9437SOL    HW128357   6.522   0.414   5.721
 9437SOL    HW228358   6.449   0.269   5.738
 9438SOL     OW28359   6.928   1.133   6.101
 9438SOL    HW128360   6.996   1.115   6.030
 9438SOL    HW228361   6.876   1.216   6.078
 9439SOL     OW28362   6.090   0.198   6.500
 9439SOL    HW128363   6.135   0.243   6.578
 9439SOL    HW228364   6.108   0.249   6.417
 9440SOL     OW28365   6.570   1.450   6.056
 9440SOL    HW128366   6.541   1.527   6.000
 9440SOL    HW228367   6.542   1.464   6.151
 9441SOL     OW28368   5.941   1.815   6.455
 9441SOL    HW128369   5.983   1.724   6.465
 9441SOL    HW228370   6.009   1.885   6.477
 9442SOL     OW28371   5.907   0.959   5.841
 9442SOL    HW128372   5.995   0.980   5.798
 9442SOL    HW228373   5.871   0.874   5.804
 9443SOL     OW28374   6.713   1.772   5.828
 9443SOL    HW128375   6.630   1.744   5.877
 9443SOL    HW228376   6.726   1.714   5.748
 9444SOL     OW28377   6.049   1.736   5.903
 9444SOL    HW128378   6.091   1.797   5.970
 9444SOL    HW228379   6.119   1.698   5.843
 9445SOL     OW28380   5.851   1.800   6.822
 9445SOL    HW128381   5.907   1.749   6.888
 9445SOL    HW228382   5.815   1.737   6.754
 9446SOL     OW28383   6.521   1.703   6.478
 9446SOL    HW128384   6.603   1.656   6.512
 9446SOL    HW228385   6.479   1.650   6.405
 9447SOL     OW28386   5.982   0.686   6.060
 9447SOL    HW128387   6.001   0.589   6.074
 9447SOL    HW228388   5.885   0.703   6.078
 9448SOL     OW28389   6.230   0.110   5.688
 9448SOL    HW128390   6.269   0.035   5.742
 9448SOL    HW228391   6.167   0.072   5.620
 9449SOL     OW28392   6.458   1.517   6.771
 9449SOL    HW128393   6.441   1.480   6.679
 9449SOL    HW228394   6.475   1.442   6.835
 9450SOL     OW28395   6.404   1.389   6.526
 9450SOL    HW128396   6.494   1.376   6.484
 9450SOL    HW228397   6.335   1.394   6.455
 9451SOL     OW28398   6.510   0.511   6.483
 9451SOL    HW128399   6.484   0.509   6.386
 9451SOL    HW228400   6.542   0.421   6.511
 9452SOL     OW28401   6.143   0.068   6.082
 9452SOL    HW128402   6.061   0.056   6.138
 9452SOL    HW228403   6.127   0.142   6.016
 9453SOL     OW28404   6.989   1.123   5.605
 9453SOL    HW128405   0.025   1.075   5.685
 9453SOL    HW228406   6.919   1.189   5.635
 9454SOL     OW28407   5.898   0.049   5.772
 9454SOL    HW128408   5.937   0.141   5.773
 9454SOL    HW228409   5.949   6.990   5.835
 9455SOL     OW28410   6.540   0.265   6.039
 9455SOL    HW128411   6.505   0.300   5.953
 9455SOL    HW228412   6.640   0.276   6.041
 9456SOL     OW28413   6.783   1.570   6.381
 9456SOL    HW128414   6.792   1.640   6.309
 9456SOL    HW228415   6.872   1.556   6.425
 9457SOL     OW28416   6.054   1.152   6.313
 9457SOL    HW128417   5.988   1.133   6.386
 9457SOL    HW228418   6.011   1.140   6.224
 9458SOL     OW28419   6.835   1.792   6.193
 9458SOL    HW128420   6.871   1.854   6.124
 9458SOL    HW228421   6.764   1.838   6.245
 9459SOL     OW28422   6.607   0.537   5.615
 9459SOL    HW128423   6.561   0.624   5.597
 9459SOL    HW228424   6.672   0.549   5.690
 9460SOL     OW28425   6.164   0.219   6.778
 9460SOL    HW128426   6.183   0.126   6.747
 9460SOL    HW228427   6.067   0.228   6.800
 9461SOL     OW28428   6.448   0.461   6.222
 9461SOL    HW128429   6.401   0.526   6.162
 9461SOL    HW228430   6.478   0.381   6.169
 9462SOL     OW28431   6.533   0.040   6.349
 9462SOL    HW128432   6.478   0.026   6.267
 9462SOL    HW228433   6.604   6.970   6.355
 9463SOL     OW28434   6.072   1.422   5.744
 9463SOL    HW128435   5.991   1.395   5.795
 9463SOL    HW228436   6.075   1.374   5.656
 9464SOL     OW28437   6.108   0.262   5.887
 9464SOL    HW128438   6.165   0.212   5.822
 9464SOL    HW228439   6.084   0.351   5.850
 9465SOL     OW28440   0.224   1.577   0.245
 9465SOL    HW128441   0.242   1.635   0.165
 9465SOL    HW228442   0.298   1.510   0.255
 9466SOL     OW28443   6.722   1.222   6.689
 9466SOL    HW128444   6.643   1.207   6.749
 9466SOL    HW228445   6.691   1.252   6.599
 9467SOL     OW28446   6.298   1.059   5.959
 9467SOL    HW128447   6.281   1.041   6.056
 9467SOL    HW228448   6.377   1.005   5.929
 9468SOL     OW28449   6.011   0.816   6.847
 9468SOL    HW128450   6.064   0.844   6.927
 9468SOL    HW228451   5.975   0.724   6.862
 9469SOL     OW28452   6.838   0.397   6.844
 9469SOL    HW128453   6.844   0.483   6.895
 9469SOL    HW228454   6.743   0.381   6.816
 9470SOL     OW28455   5.679   1.559   6.858
 9470SOL    HW128456   5.621   1.632   6.894
 9470SOL    HW228457   5.763   1.555   6.911
 9471SOL     OW28458   5.925   1.120   6.073
 9471SOL    HW128459   5.931   1.202   6.016
 9471SOL    HW228460   5.924   1.039   6.014
 9472SOL     OW28461   6.137   0.546   6.447
 9472SOL    HW128462   6.150   0.605   6.367
 9472SOL    HW228463   6.208   0.567   6.515
 9473SOL     OW28464   6.824   1.372   6.006
 9473SOL    HW128465   6.878   1.449   6.040
 9473SOL    HW228466   6.727   1.390   6.022
 9474SOL     OW28467   6.821   1.477   6.758
 9474SOL    HW128468   6.917   1.467   6.786
 9474SOL    HW228469   6.784   1.386   6.737
 9475SOL     OW28470   5.951   1.492   6.902
 9475SOL    HW128471   5.923   1.454   6.814
 9475SOL    HW228472   6.044   1.528   6.895
 9476SOL     OW28473   6.171   0.872   6.624
 9476SOL    HW128474   6.206   0.965   6.618
 9476SOL    HW228475   6.111   0.863   6.703
 9477SOL     OW28476   6.949   0.839   6.607
 9477SOL    HW128477   6.856   0.824   6.573
 9477SOL    HW228478   6.987   0.753   6.639
 9478SOL     OW28479   6.768   0.538   5.836
 9478SOL    HW128480   6.790   0.452   5.882
 9478SOL    HW228481   6.729   0.602   5.901
 9479SOL     OW28482   5.898   0.209   6.833
 9479SOL    HW128483   5.841   0.210   6.915
 9479SOL    HW228484   5.895   0.118   6.791
 9480SOL     OW28485   5.612   1.300   6.869
 9480SOL    HW128486   5.666   1.253   6.939
 9480SOL    HW228487   5.639   1.397   6.866
 9481SOL     OW28488   6.311   0.631   6.641
 9481SOL    HW128489   6.388   0.612   6.580
 9481SOL    HW228490   6.277   0.723   6.624
 9482SOL     OW28491   5.909   0.059   6.220
 9482SOL    HW128492   5.884   0.152   6.246
 9482SOL    HW228493   5.850   6.994   6.267
 9483SOL     OW28494   0.198   0.448   5.930
 9483SOL    HW128495   0.212   0.356   5.966
 9483SOL    HW228496   0.179   0.511   6.005
 9484SOL     OW28497   6.611   0.756   6.549
 9484SOL    HW128498   6.602   0.775   6.647
 9484SOL    HW228499   6.584   0.661   6.531
 9485SOL     OW28500   6.885   0.817   5.614
 9485SOL    HW128501   6.944   0.747   5.655
 9485SOL    HW228502   6.926   0.851   5.530
 9486SOL     OW28503   6.655   1.332   6.444
 9486SOL    HW128504   6.657   1.257   6.377
 9486SOL    HW228505   6.703   1.411   6.407
 9487SOL     OW28506   5.900   0.808   6.528
 9487SOL    HW128507   5.996   0.836   6.522
 9487SOL    HW228508   5.894   0.714   6.561
 9488SOL     OW28509   5.927   0.540   6.608
 9488SOL    HW128510   5.880   0.453   6.593
 9488SOL    HW228511   6.005   0.547   6.547
 9489SOL     OW28512   6.800   0.234   0.068
 9489SOL    HW128513   6.748   0.270   0.146
 9489SOL    HW228514   6.771   0.282   6.985
 9490SOL     OW28515   5.586   1.314   5.780
 9490SOL    HW128516   5.496   1.334   5.740
 9490SOL    HW228517   5.587   1.221   5.815
 9491SOL     OW28518   5.676   1.789   6.526
 9491SOL    HW128519   5.641   1.706   6.483
 9491SOL    HW228520   5.772   1.802   6.501
 9492SOL     OW28521   6.077   1.577   6.490
 9492SOL    HW128522   6.147   1.642   6.518
 9492SOL    HW228523   6.118   1.508   6.430
 9493SOL     OW28524   6.564   0.793   6.816
 9493SOL    HW128525   6.634   0.790   6.888
 9493SOL    HW228526   6.478   0.758   6.851
 9494SOL     OW28527   5.636   0.559   6.710
 9494SOL    HW128528   5.683   0.508   6.638
 9494SOL    HW228529   5.703   0.588   6.779
 9495SOL     OW28530   6.403   0.576   5.945
 9495SOL    HW128531   6.412   0.495   5.887
 9495SOL    HW228532   6.324   0.629   5.916
 9496SOL     OW28533   6.267   0.467   6.851
 9496SOL    HW128534   6.232   0.378   6.823
 9496SOL    HW228535   6.275   0.526   6.771
 9497SOL     OW28536   6.451   1.662   0.014
 9497SOL    HW128537   6.462   1.640   6.917
 9497SOL    HW228538   6.523   1.726   0.042
 9498SOL     OW28539   6.045   0.495   5.763
 9498SOL    HW128540   6.109   0.567   5.792
 9498SOL    HW228541   5.953   0.534   5.753
 9499SOL     OW28542   5.742   1.141   0.059
 9499SOL    HW128543   5.799   1.102   0.131
 9499SOL    HW228544   5.751   1.087   6.976
 9500SOL     OW28545   6.887   1.021   6.806
 9500SOL    HW128546   6.917   0.959   6.733
 9500SOL    HW228547   6.834   1.096   6.767
 9501SOL     OW28548   6.888   0.870   5.894
 9501SOL    HW128549   6.822   0.833   5.959
 9501SOL    HW228550   6.856   0.853   5.801
 9502SOL     OW28551   6.843   1.743   6.689
 9502SOL    HW128552   6.930   1.754   6.641
 9502SOL    HW228553   6.831   1.648   6.716
 9503SOL     OW28554   5.667   1.263   6.599
 9503SOL    HW128555   5.647   1.272   6.697
 9503SOL    HW228556   5.601   1.202   6.557
 9504SOL     OW28557   6.979   1.586   6.078
 9504SOL    HW128558   0.064   1.628   6.046
 9504SOL    HW228559   6.917   1.658   6.110
 9505SOL     OW28560   6.871   0.918   6.246
 9505SOL    HW128561   6.958   0.873   6.268
 9505SOL    HW228562   6.889   1.000   6.191
 9506SOL     OW28563   6.253   1.624   5.741
 9506SOL    HW128564   6.270   1.642   5.644
 9506SOL    HW228565   6.197   1.542   5.751
 9507SOL     OW28566   5.845   0.313   6.303
 9507SOL    HW128567   5.756   0.349   6.273
 9507SOL    HW228568   5.849   0.313   6.403
 9508SOL     OW28569   6.747   1.607   5.623
 9508SOL    HW128570   6.771   1.510   5.624
 9508SOL    HW228571   6.685   1.625   5.547
 9509SOL     OW28572   6.365   1.025   6.953
 9509SOL    HW128573   6.426   0.988   6.882
 9509SOL    HW228574   6.408   1.103   6.997
 9510SOL     OW28575   6.504   0.910   5.870
 9510SOL    HW128576   6.569   0.947   5.804
 9510SOL    HW228577   6.550   0.840   5.925
 9511SOL     OW28578   6.644   1.106   6.297
 9511SOL    HW128579   6.568   1.056   6.339
 9511SOL    HW228580   6.711   1.042   6.261
 9512SOL     OW28581   6.597   0.250   6.527
 9512SOL    HW128582   6.563   0.203   6.446
 9512SOL    HW228583   6.603   0.186   6.603
 9513SOL     OW28584   6.191   1.486   6.064
 9513SOL    HW128585   6.243   1.432   5.998
 9513SOL    HW228586   6.114   1.530   6.019
 9514SOL     OW28587   5.838   1.348   5.874
 9514SOL    HW128588   5.742   1.340   5.847
 9514SOL    HW228589   5.843   1.387   5.966
 9515SOL     OW28590   5.662   0.332   5.620
 9515SOL    HW128591   5.565   0.310   5.604
 9515SOL    HW228592   5.686   0.413   5.566
 9516SOL     OW28593   5.658   0.177   5.903
 9516SOL    HW128594   5.661   0.248   5.832
 9516SOL    HW228595   5.707   0.096   5.871
 9517SOL     OW28596   5.968   1.727   0.084
 9517SOL    HW128597   5.890   1.780   0.118
 9517SOL    HW228598   5.972   1.639   0.132
 9518SOL     OW28599   6.820   0.308   6.026
 9518SOL    HW128600   6.893   0.258   5.980
 9518SOL    HW228601   6.859   0.361   6.101
 9519SOL     OW28602   6.173   0.736   6.253
 9519SOL    HW128603   6.214   0.827   6.243
 9519SOL    HW228604   6.103   0.723   6.182
 9520SOL     OW28605   6.427   1.367   5.619
 9520SOL    HW128606   6.410   1.387   5.716
 9520SOL    HW228607   6.459   1.450   5.573
 9521SOL     OW28608   6.252   1.783   6.526
 9521SOL    HW128609   6.229   1.878   6.506
 9521SOL    HW228610   6.351   1.771   6.518
 9522SOL     OW28611   6.455   0.970   6.442
 9522SOL    HW128612   6.506   0.893   6.480
 9522SOL    HW228613   6.413   1.022   6.516
 9523SOL     OW28614   6.672   0.989   5.673
 9523SOL    HW128615   6.637   1.043   5.597
 9523SOL    HW228616   6.744   0.928   5.640
 9524SOL     OW28617   5.674   1.227   6.249
 9524SOL    HW128618   5.679   1.183   6.338
 9524SOL    HW228619   5.744   1.188   6.188
 9525SOL     OW28620   6.016   0.425   6.110
 9525SOL    HW128621   6.050   0.354   6.048
 9525SOL    HW228622   5.962   0.382   6.183
 9526SOL     OW28623   5.899   0.553   6.880
 9526SOL    HW128624   5.966   0.498   6.929
 9526SOL    HW228625   5.914   0.544   6.782
 9527SOL     OW28626   6.414   1.576   6.263
 9527SOL    HW128627   6.393   1.641   6.190
 9527SOL    HW228628   6.337   1.514   6.275
 9528SOL     OW28629   6.977   0.229   6.683
 9528SOL    HW128630   0.008   0.150   6.735
 9528SOL    HW228631   6.929   0.293   6.744
 9529SOL     OW28632   6.577   0.052   6.705
 9529SOL    HW128633   6.495   6.999   6.683
 9529SOL    HW228634   6.612   0.024   6.795
 9530SOL     OW28635   6.361   1.331   5.905
 9530SOL    HW128636   6.333   1.236   5.914
 9530SOL    HW228637   6.445   1.347   5.958
 9531SOL     OW28638   6.204   1.572   6.861
 9531SOL    HW128639   6.202   1.667   6.891
 9531SOL    HW228640   6.293   1.551   6.821
 9532SOL     OW28641   5.628   1.063   5.893
 9532SOL    HW128642   5.727   1.063   5.875
 9532SOL    HW228643   5.599   0.970   5.915
 9533SOL     OW28644   6.467   1.668   5.926
 9533SOL    HW128645   6.393   1.645   5.863
 9533SOL    HW228646   6.438   1.743   5.985
 9534SOL     OW28647   5.804   2.499   0.137
 9534SOL    HW128648   5.709   2.482   0.161
 9534SOL    HW228649   5.817   2.481   0.039
 9535SOL     OW28650   5.808   2.145   0.995
 9535SOL    HW128651   5.841   2.110   1.083
 9535SOL    HW228652   5.715   2.112   0.978
 9536SOL     OW28653   5.586   2.251   0.638
 9536SOL    HW128654   5.505   2.285   0.685
 9536SOL    HW228655   5.564   2.164   0.592
 9537SOL     OW28656   6.155   3.161   1.188
 9537SOL    HW128657   6.066   3.157   1.143
 9537SOL    HW228658   6.173   3.254   1.220
 9538SOL     OW28659   0.065   3.408   0.762
 9538SOL    HW128660   0.101   3.315   0.773
 9538SOL    HW228661   0.028   3.419   0.670
 9539SOL     OW28662   6.693   2.583   0.689
 9539SOL    HW128663   6.760   2.656   0.678
 9539SOL    HW228664   6.656   2.585   0.782
 9540SOL     OW28665   6.329   3.002   1.043
 9540SOL    HW128666   6.261   3.037   1.108
 9540SOL    HW228667   6.372   3.078   0.996
 9541SOL     OW28668   6.462   2.626   1.824
 9541SOL    HW128669   6.443   2.692   1.896
 9541SOL    HW228670   6.484   2.674   1.739
 9542SOL     OW28671   6.268   2.857   0.650
 9542SOL    HW128672   6.340   2.849   0.719
 9542SOL    HW228673   6.195   2.916   0.685
 9543SOL     OW28674   6.293   3.011   1.815
 9543SOL    HW128675   6.342   3.092   1.848
 9543SOL    HW228676   6.207   3.040   1.772
 9544SOL     OW28677   5.913   3.284   1.066
 9544SOL    HW128678   5.836   3.239   1.020
 9544SOL    HW228679   5.965   3.337   0.999
 9545SOL     OW28680   6.037   2.254   1.477
 9545SOL    HW128681   6.118   2.195   1.485
 9545SOL    HW228682   5.955   2.200   1.497
 9546SOL     OW28683   5.805   3.585   0.472
 9546SOL    HW128684   5.823   3.665   0.530
 9546SOL    HW228685   5.889   3.558   0.426
 9547SOL     OW28686   6.720   3.208   1.705
 9547SOL    HW128687   6.814   3.175   1.698
 9547SOL    HW228688   6.658   3.130   1.709
 9548SOL     OW28689   5.799   3.310   0.531
 9548SOL    HW128690   5.788   3.409   0.541
 9548SOL    HW228691   5.749   3.264   0.604
 9549SOL     OW28692   5.855   2.952   0.900
 9549SOL    HW128693   5.851   2.858   0.933
 9549SOL    HW228694   5.793   3.009   0.953
 9550SOL     OW28695   6.182   3.661   1.424
 9550SOL    HW128696   6.100   3.635   1.475
 9550SOL    HW228697   6.213   3.751   1.454
 9551SOL     OW28698   6.173   2.829   0.146
 9551SOL    HW128699   6.230   2.852   0.068
 9551SOL    HW228700   6.209   2.875   0.228
 9552SOL     OW28701   5.701   2.516   0.562
 9552SOL    HW128702   5.671   2.423   0.582
 9552SOL    HW228703   5.696   2.572   0.645
 9553SOL     OW28704   5.597   3.447   0.145
 9553SOL    HW128705   5.528   3.377   0.125
 9553SOL    HW228706   5.576   3.490   0.233
 9554SOL     OW28707   5.710   2.607   1.585
 9554SOL    HW128708   5.806   2.635   1.585
 9554SOL    HW228709   5.651   2.688   1.585
 9555SOL     OW28710   6.198   3.251   0.737
 9555SOL    HW128711   6.152   3.164   0.750
 9555SOL    HW228712   6.189   3.280   0.641
 9556SOL     OW28713   6.839   3.084   1.430
 9556SOL    HW128714   6.875   3.013   1.369
 9556SOL    HW228715   6.901   3.096   1.507
 9557SOL     OW28716   6.405   1.877   0.520
 9557SOL    HW128717   6.450   1.962   0.493
 9557SOL    HW228718   6.306   1.891   0.525
 9558SOL     OW28719   5.776   2.823   1.279
 9558SOL    HW128720   5.865   2.780   1.264
 9558SOL    HW228721   5.707   2.778   1.221
 9559SOL     OW28722   6.781   3.677   1.616
 9559SOL    HW128723   6.765   3.746   1.546
 9559SOL    HW228724   6.779   3.586   1.575
 9560SOL     OW28725   5.928   2.111   1.836
 9560SOL    HW128726   5.976   2.197   1.852
 9560SOL    HW228727   5.830   2.124   1.853
 9561SOL     OW28728   6.185   2.578   0.269
 9561SOL    HW128729   6.191   2.668   0.226
 9561SOL    HW228730   6.119   2.582   0.344
 9562SOL     OW28731   6.869   2.184   0.894
 9562SOL    HW128732   6.771   2.172   0.909
 9562SOL    HW228733   6.920   2.148   0.973
 9563SOL     OW28734   6.383   2.474   1.450
 9563SOL    HW128735   6.355   2.450   1.543
 9563SOL    HW228736   6.345   2.408   1.386
 9564SOL     OW28737   6.942   2.324   1.675
 9564SOL    HW128738   6.917   2.409   1.721
 9564SOL    HW228739   0.041   2.317   1.669
 9565SOL     OW28740   6.543   2.747   1.584
 9565SOL    HW128741   6.598   2.672   1.546
 9565SOL    HW228742   6.490   2.790   1.511
 9566SOL     OW28743   6.584   2.273   1.231
 9566SOL    HW128744   6.492   2.290   1.265
 9566SOL    HW228745   6.579   2.224   1.144
 9567SOL     OW28746   6.637   2.564   0.425
 9567SOL    HW128747   6.657   2.569   0.523
 9567SOL    HW228748   6.549   2.518   0.411
 9568SOL     OW28749   5.676   2.686   0.778
 9568SOL    HW128750   5.761   2.675   0.829
 9568SOL    HW228751   5.625   2.764   0.814
 9569SOL     OW28752   5.714   3.736   1.588
 9569SOL    HW128753   5.719   3.709   1.685
 9569SOL    HW228754   5.630   3.700   1.548
 9570SOL     OW28755   6.465   2.213   0.213
 9570SOL    HW128756   6.472   2.281   0.141
 9570SOL    HW228757   6.491   2.123   0.178
 9571SOL     OW28758   6.927   2.998   0.526
 9571SOL    HW128759   6.988   2.969   0.451
 9571SOL    HW228760   6.877   3.080   0.498
 9572SOL     OW28761   6.133   2.035   0.902
 9572SOL    HW128762   6.137   2.065   0.997
 9572SOL    HW228763   6.136   2.114   0.841
 9573SOL     OW28764   6.570   3.302   0.474
 9573SOL    HW128765   6.536   3.381   0.423
 9573SOL    HW228766   6.546   3.312   0.570
 9574SOL     OW28767   5.942   3.676   0.871
 9574SOL    HW128768   5.986   3.587   0.877
 9574SOL    HW228769   6.009   3.748   0.890
 9575SOL     OW28770   6.796   3.421   1.503
 9575SOL    HW128771   6.801   3.346   1.570
 9575SOL    HW228772   6.750   3.389   1.420
 9576SOL     OW28773   5.901   2.822   0.229
 9576SOL    HW128774   5.994   2.836   0.195
 9576SOL    HW228775   5.872   2.729   0.210
 9577SOL     OW28776   6.053   3.125   1.730
 9577SOL    HW128777   6.027   3.132   1.634
 9577SOL    HW228778   5.971   3.125   1.787
 9578SOL     OW28779   6.681   3.625   0.234
 9578SOL    HW128780   6.615   3.572   0.286
 9578SOL    HW228781   6.709   3.574   0.153
 9579SOL     OW28782   5.788   2.136   1.503
 9579SOL    HW128783   5.706   2.193   1.499
 9579SOL    HW228784   5.766   2.048   1.545
 9580SOL     OW28785   0.235   3.243   0.043
 9580SOL    HW128786   0.165   3.292   0.097
 9580SOL    HW228787   0.211   3.146   0.039
 9581SOL     OW28788   6.067   3.561   0.377
 9581SOL    HW128789   6.097   3.645   0.421
 9581SOL    HW228790   6.128   3.540   0.301
 9582SOL     OW28791   5.845   3.653   1.225
 9582SOL    HW128792   5.896   3.580   1.271
 9582SOL    HW228793   5.826   3.627   1.131
 9583SOL     OW28794   6.525   3.563   0.896
 9583SOL    HW128795   6.611   3.516   0.916
 9583SOL    HW228796   6.476   3.514   0.823
 9584SOL     OW28797   5.984   2.548   0.469
 9584SOL    HW128798   6.003   2.452   0.487
 9584SOL    HW228799   5.887   2.567   0.487
 9585SOL     OW28800   6.349   2.138   1.759
 9585SOL    HW128801   6.431   2.082   1.752
 9585SOL    HW228802   6.294   2.107   1.837
 9586SOL     OW28803   6.460   3.380   1.191
 9586SOL    HW128804   6.439   3.344   1.100
 9586SOL    HW228805   6.531   3.325   1.234
 9587SOL     OW28806   6.401   3.251   0.943
 9587SOL    HW128807   6.492   3.238   0.902
 9587SOL    HW228808   6.332   3.257   0.871
 9588SOL     OW28809   6.512   2.368   0.900
 9588SOL    HW128810   6.486   2.362   0.804
 9588SOL    HW228811   6.543   2.278   0.932
 9589SOL     OW28812   6.135   1.933   0.502
 9589SOL    HW128813   6.052   1.930   0.557
 9589SOL    HW228814   6.130   2.011   0.439
 9590SOL     OW28815   6.532   2.112   0.461
 9590SOL    HW128816   6.496   2.152   0.377
 9590SOL    HW228817   6.631   2.124   0.464
 9591SOL     OW28818   6.654   2.529   1.460
 9591SOL    HW128819   6.560   2.496   1.459
 9591SOL    HW228820   6.716   2.451   1.463
 9592SOL     OW28821   6.780   3.436   0.802
 9592SOL    HW128822   6.796   3.501   0.727
 9592SOL    HW228823   6.866   3.418   0.849
 9593SOL     OW28824   6.057   3.015   0.731
 9593SOL    HW128825   5.987   2.993   0.799
 9593SOL    HW228826   6.019   3.007   0.639
 9594SOL     OW28827   6.836   3.657   0.604
 9594SOL    HW128828   6.862   3.718   0.530
 9594SOL    HW228829   6.766   3.700   0.660
 9595SOL     OW28830   6.686   2.454   0.026
 9595SOL    HW128831   6.586   2.457   0.028
 9595SOL    HW228832   6.720   2.432   0.117
 9596SOL     OW28833   5.674   2.419   1.391
 9596SOL    HW128834   5.768   2.415   1.359
 9596SOL    HW228835   5.665   2.490   1.461
 9597SOL     OW28836   6.145   2.087   1.174
 9597SOL    HW128837   6.194   2.009   1.215
 9597SOL    HW228838   6.049   2.085   1.203
 9598SOL     OW28839   6.450   2.316   0.640
 9598SOL    HW128840   6.410   2.383   0.578
 9598SOL    HW228841   6.476   2.234   0.589
 9599SOL     OW28842   6.606   1.908   0.739
 9599SOL    HW128843   6.540   1.910   0.664
 9599SOL    HW228844   6.581   1.836   0.803
 9600SOL     OW28845   6.058   3.288   0.150
 9600SOL    HW128846   5.999   3.238   0.213
 9600SOL    HW228847   6.018   3.287   0.058
 9601SOL     OW28848   6.099   2.127   0.311
 9601SOL    HW128849   6.112   2.059   0.239
 9601SOL    HW228850   6.076   2.215   0.271
 9602SOL     OW28851   6.626   3.210   1.331
 9602SOL    HW128852   6.543   3.183   1.380
 9602SOL    HW228853   6.705   3.166   1.374
 9603SOL     OW28854   6.729   3.090   1.100
 9603SOL    HW128855   6.670   3.120   1.175
 9603SOL    HW228856   6.688   3.116   1.013
 9604SOL     OW28857   6.504   1.957   1.386
 9604SOL    HW128858   6.526   1.933   1.291
 9604SOL    HW228859   6.585   1.998   1.429
 9605SOL     OW28860   6.566   2.975   1.728
 9605SOL    HW128861   6.472   2.998   1.753
 9605SOL    HW228862   6.566   2.895   1.668
 9606SOL     OW28863   6.298   2.919   0.376
 9606SOL    HW128864   6.280   2.903   0.473
 9606SOL    HW228865   6.377   2.865   0.347
 9607SOL     OW28866   6.009   2.678   1.254
 9607SOL    HW128867   6.082   2.691   1.322
 9607SOL    HW228868   5.970   2.586   1.265
 9608SOL     OW28869   6.851   2.234   1.294
 9608SOL    HW128870   6.908   2.314   1.313
 9608SOL    HW228871   6.760   2.264   1.267
 9609SOL     OW28872   5.661   3.434   1.353
 9609SOL    HW128873   5.625   3.503   1.291
 9609SOL    HW228874   5.761   3.432   1.347
 9610SOL     OW28875   5.953   2.983   0.484
 9610SOL    HW128876   5.931   3.060   0.424
 9610SOL    HW228877   5.949   2.898   0.432
 9611SOL     OW28878   6.133   2.405   0.862
 9611SOL    HW128879   6.148   2.464   0.783
 9611SOL    HW228880   6.203   2.425   0.931
 9612SOL     OW28881   6.826   3.228   0.418
 9612SOL    HW128882   6.877   3.307   0.451
 9612SOL    HW228883   6.728   3.245   0.432
 9613SOL     OW28884   6.852   3.341   1.140
 9613SOL    HW128885   6.931   3.336   1.201
 9613SOL    HW228886   6.811   3.250   1.131
 9614SOL     OW28887   5.934   3.392   1.309
 9614SOL    HW128888   5.918   3.347   1.221
 9614SOL    HW228889   6.032   3.406   1.322
 9615SOL     OW28890   6.001   2.609   1.600
 9615SOL    HW128891   6.069   2.654   1.541
 9615SOL    HW228892   6.032   2.516   1.621
 9616SOL     OW28893   6.577   1.987   1.754
 9616SOL    HW128894   6.629   2.070   1.735
 9616SOL    HW228895   6.632   1.907   1.730
 9617SOL     OW28896   6.078   1.899   1.750
 9617SOL    HW128897   6.033   1.840   1.683
 9617SOL    HW228898   6.020   1.978   1.770
 9618SOL     OW28899   6.170   2.733   1.035
 9618SOL    HW128900   6.205   2.827   1.030
 9618SOL    HW228901   6.110   2.724   1.114
 9619SOL     OW28902   6.950   2.710   1.030
 9619SOL    HW128903   6.858   2.699   0.994
 9619SOL    HW228904   6.987   2.622   1.057
 9620SOL     OW28905   6.768   2.383   0.271
 9620SOL    HW128906   6.784   2.303   0.329
 9620SOL    HW228907   6.730   2.457   0.326
 9621SOL     OW28908   5.883   2.058   1.246
 9621SOL    HW128909   5.847   2.094   1.332
 9621SOL    HW228910   5.868   1.959   1.243
 9622SOL     OW28911   5.638   3.172   1.275
 9622SOL    HW128912   5.669   3.110   1.347
 9622SOL    HW228913   5.641   3.266   1.308
 9623SOL     OW28914   6.310   2.494   1.055
 9623SOL    HW128915   6.387   2.474   0.994
 9623SOL    HW228916   6.275   2.585   1.036
 9624SOL     OW28917   5.892   1.927   0.630
 9624SOL    HW128918   5.867   2.022   0.650
 9624SOL    HW228919   5.904   1.877   0.716
 9625SOL     OW28920   0.183   2.284   0.376
 9625SOL    HW128921   0.268   2.246   0.412
 9625SOL    HW228922   0.160   2.368   0.426
 9626SOL     OW28923   6.608   2.617   0.959
 9626SOL    HW128924   6.602   2.637   1.056
 9626SOL    HW228925   6.583   2.521   0.944
 9627SOL     OW28926   6.554   3.428   1.706
 9627SOL    HW128927   6.541   3.471   1.617
 9627SOL    HW228928   6.607   3.344   1.695
 9628SOL     OW28929   5.938   2.780   1.806
 9628SOL    HW128930   6.019   2.802   1.861
 9628SOL    HW228931   5.964   2.715   1.734
 9629SOL     OW28932   6.887   2.705   0.032
 9629SOL    HW128933   6.921   2.615   0.007
 9629SOL    HW228934   6.904   2.770   6.957
 9630SOL     OW28935   6.649   3.196   0.857
 9630SOL    HW128936   6.654   3.120   0.792
 9630SOL    HW228937   6.700   3.274   0.821
 9631SOL     OW28938   5.897   2.668   0.943
 9631SOL    HW128939   5.994   2.694   0.938
 9631SOL    HW228940   5.890   2.573   0.975
 9632SOL     OW28941   5.913   2.390   1.012
 9632SOL    HW128942   5.874   2.298   1.001
 9632SOL    HW228943   5.993   2.399   0.954
 9633SOL     OW28944   6.695   2.224   1.690
 9633SOL    HW128945   6.648   2.285   1.753
 9633SOL    HW228946   6.791   2.252   1.681
 9634SOL     OW28947   6.743   2.057   1.475
 9634SOL    HW128948   6.722   2.116   1.553
 9634SOL    HW228949   6.787   2.111   1.403
 9635SOL     OW28950   5.680   3.645   0.944
 9635SOL    HW128951   5.642   3.564   0.899
 9635SOL    HW228952   5.773   3.661   0.912
 9636SOL     OW28953   6.078   3.438   0.904
 9636SOL    HW128954   6.149   3.504   0.931
 9636SOL    HW228955   6.118   3.370   0.843
 9637SOL     OW28956   6.562   2.653   1.224
 9637SOL    HW128957   6.622   2.628   1.300
 9637SOL    HW228958   6.472   2.611   1.238
 9638SOL     OW28959   5.623   2.415   1.117
 9638SOL    HW128960   5.705   2.403   1.061
 9638SOL    HW228961   5.649   2.417   1.214
 9639SOL     OW28962   5.778   2.385   1.731
 9639SOL    HW128963   5.828   2.329   1.664
 9639SOL    HW228964   5.740   2.465   1.685
 9640SOL     OW28965   6.402   2.436   0.376
 9640SOL    HW128966   6.410   2.354   0.319
 9640SOL    HW228967   6.324   2.490   0.346
 9641SOL     OW28968   5.825   3.408   1.725
 9641SOL    HW128969   5.804   3.483   1.789
 9641SOL    HW228970   5.832   3.322   1.776
 9642SOL     OW28971   6.299   2.310   1.253
 9642SOL    HW128972   6.240   2.232   1.231
 9642SOL    HW228973   6.293   2.378   1.179
 9643SOL     OW28974   6.498   3.549   1.467
 9643SOL    HW128975   6.479   3.498   1.382
 9643SOL    HW228976   6.494   3.647   1.449
 9644SOL     OW28977   6.041   2.362   0.186
 9644SOL    HW128978   6.105   2.434   0.213
 9644SOL    HW228979   5.948   2.399   0.185
 9645SOL     OW28980   5.726   3.000   1.476
 9645SOL    HW128981   5.729   2.956   1.566
 9645SOL    HW228982   5.746   2.932   1.405
 9646SOL     OW28983   6.893   2.907   1.222
 9646SOL    HW128984   6.919   2.834   1.158
 9646SOL    HW228985   6.831   2.971   1.176
 9647SOL     OW28986   6.890   2.723   0.310
 9647SOL    HW128987   6.810   2.685   0.357
 9647SOL    HW228988   6.879   2.710   0.211
 9648SOL     OW28989   6.847   3.611   1.115
 9648SOL    HW128990   6.926   3.628   1.056
 9648SOL    HW228991   6.836   3.513   1.128
 9649SOL     OW28992   5.672   3.128   1.010
 9649SOL    HW128993   5.655   3.142   1.107
 9649SOL    HW228994   5.601   3.068   0.972
 9650SOL     OW28995   6.267   3.537   1.741
 9650SOL    HW128996   6.206   3.615   1.730
 9650SOL    HW228997   6.344   3.545   1.677
 9651SOL     OW28998   6.531   1.964   0.117
 9651SOL    HW128999   6.606   1.994   0.057
 9651SOL    HW229000   6.565   1.896   0.181
 9652SOL     OW29001   6.974   3.443   0.497
 9652SOL    HW129002   0.060   3.478   0.458
 9652SOL    HW229003   6.918   3.520   0.527
 9653SOL     OW29004   5.732   3.649   1.846
 9653SOL    HW129005   5.674   3.581   1.891
 9653SOL    HW229006   5.781   3.702   1.915
 9654SOL     OW29007   6.871   2.779   0.663
 9654SOL    HW129008   6.958   2.732   0.680
 9654SOL    HW229009   6.888   2.862   0.610
 9655SOL     OW29010   6.380   3.139   1.424
 9655SOL    HW129011   6.351   3.185   1.508
 9655SOL    HW229012   6.311   3.152   1.353
 9656SOL     OW29013   6.251   3.472   0.196
 9656SOL    HW129014   6.308   3.494   0.116
 9656SOL    HW229015   6.194   3.393   0.175
 9657SOL     OW29016   5.841   2.179   0.716
 9657SOL    HW129017   5.751   2.214   0.688
 9657SOL    HW229018   5.844   2.170   0.816
 9658SOL     OW29019   6.743   3.486   0.005
 9658SOL    HW129020   6.827   3.454   0.048
 9658SOL    HW229021   6.733   3.443   6.915
 9659SOL     OW29022   6.412   2.871   1.380
 9659SOL    HW129023   6.459   2.858   1.292
 9659SOL    HW229024   6.403   2.969   1.399
 9660SOL     OW29025   6.502   2.769   0.290
 9660SOL    HW129026   6.555   2.799   0.210
 9660SOL    HW229027   6.556   2.703   0.342
 9661SOL     OW29028   5.950   3.165   1.486
 9661SOL    HW129029   5.942   3.245   1.428
 9661SOL    HW229030   5.870   3.106   1.475
 9662SOL     OW29031   6.642   2.969   0.712
 9662SOL    HW129032   6.568   2.918   0.755
 9662SOL    HW229033   6.709   2.906   0.673
 9663SOL     OW29034   6.606   2.100   0.965
 9663SOL    HW129035   6.599   2.056   0.875
 9663SOL    HW229036   6.605   2.031   1.037
 9664SOL     OW29037   6.198   3.339   0.484
 9664SOL    HW129038   6.239   3.288   0.408
 9664SOL    HW229039   6.135   3.408   0.448
 9665SOL     OW29040   5.865   3.180   0.309
 9665SOL    HW129041   5.781   3.168   0.255
 9665SOL    HW229042   5.844   3.234   0.391
 9666SOL     OW29043   5.701   2.898   1.729
 9666SOL    HW129044   5.619   2.870   1.780
 9666SOL    HW229045   5.781   2.852   1.768
 9667SOL     OW29046   6.268   2.058   1.500
 9667SOL    HW129047   6.354   2.033   1.455
 9667SOL    HW229048   6.287   2.091   1.593
 9668SOL     OW29049   5.693   2.181   0.011
 9668SOL    HW129050   5.630   2.128   6.955
 9668SOL    HW229051   5.719   2.265   6.962
 9669SOL     OW29052   5.634   2.035   0.327
 9669SOL    HW129053   5.623   2.128   0.291
 9669SOL    HW229054   5.705   1.988   0.275
 9670SOL     OW29055   6.211   2.690   1.434
 9670SOL    HW129056   6.268   2.772   1.420
 9670SOL    HW229057   6.270   2.610   1.444
 9671SOL     OW29058   6.312   2.418   1.701
 9671SOL    HW129059   6.354   2.484   1.764
 9671SOL    HW229060   6.326   2.325   1.735
 9672SOL     OW29061   6.998   3.124   1.649
 9672SOL    HW129062   6.998   3.060   1.726
 9672SOL    HW229063   0.077   3.106   1.591
 9673SOL     OW29064   5.956   3.601   1.568
 9673SOL    HW129065   5.872   3.653   1.553
 9673SOL    HW229066   5.934   3.512   1.609
 9674SOL     OW29067   6.803   2.172   0.444
 9674SOL    HW129068   6.876   2.117   0.405
 9674SOL    HW229069   6.838   2.225   0.521
 9675SOL     OW29070   6.172   2.596   0.667
 9675SOL    HW129071   6.213   2.687   0.659
 9675SOL    HW229072   6.103   2.585   0.596
 9676SOL     OW29073   6.447   3.244   0.031
 9676SOL    HW129074   6.411   3.210   0.118
 9676SOL    HW229075   6.459   3.343   0.037
 9677SOL     OW29076   6.251   3.646   0.942
 9677SOL    HW129077   6.228   3.740   0.921
 9677SOL    HW229078   6.350   3.633   0.932
 9678SOL     OW29079   6.454   2.832   0.857
 9678SOL    HW129080   6.505   2.754   0.893
 9678SOL    HW229081   6.412   2.882   0.933
 9679SOL     OW29082   6.658   2.842   0.080
 9679SOL    HW129083   6.691   2.935   0.067
 9679SOL    HW229084   6.733   2.777   0.067
 9680SOL     OW29085   5.817   3.160   1.856
 9680SOL    HW129086   5.752   3.092   1.821
 9680SOL    HW229087   5.801   3.174   1.954
 9681SOL     OW29088   5.669   3.095   0.665
 9681SOL    HW129089   5.689   3.045   0.749
 9681SOL    HW229090   5.714   3.051   0.587
 9682SOL     OW29091   6.262   3.274   1.628
 9682SOL    HW129092   6.185   3.222   1.665
 9682SOL    HW229093   6.266   3.364   1.671
 9683SOL     OW29094   6.017   2.290   0.528
 9683SOL    HW129095   6.047   2.219   0.465
 9683SOL    HW229096   5.962   2.250   0.601
 9684SOL     OW29097   5.922   2.419   1.289
 9684SOL    HW129098   5.978   2.360   1.348
 9684SOL    HW229099   5.936   2.393   1.194
 9685SOL     OW29100   6.411   3.442   0.681
 9685SOL    HW129101   6.401   3.500   0.600
 9685SOL    HW229102   6.335   3.378   0.686
 9686SOL     OW29103   6.992   2.082   1.116
 9686SOL    HW129104   0.010   1.991   1.153
 9686SOL    HW229105   6.940   2.135   1.183
 9687SOL     OW29106   6.599   1.876   1.136
 9687SOL    HW129107   6.540   1.809   1.091
 9687SOL    HW229108   6.692   1.840   1.141
 9688SOL     OW29109   6.368   3.180   0.307
 9688SOL    HW129110   6.335   3.088   0.328
 9688SOL    HW229111   6.448   3.200   0.363
 9689SOL     OW29112   6.209   3.422   1.289
 9689SOL    HW129113   6.206   3.509   1.339
 9689SOL    HW229114   6.300   3.409   1.249
 9690SOL     OW29115   5.673   2.914   0.366
 9690SOL    HW129116   5.760   2.891   0.322
 9690SOL    HW229117   5.618   2.831   0.375
 9691SOL     OW29118   6.462   3.522   0.362
 9691SOL    HW129119   6.386   3.497   0.303
 9691SOL    HW229120   6.440   3.605   0.413
 9692SOL     OW29121   5.806   2.480   1.991
 9692SOL    HW129122   5.715   2.480   2.031
 9692SOL    HW229123   5.800   2.459   1.893
 9693SOL     OW29124   5.808   2.145   2.857
 9693SOL    HW129125   5.841   2.110   2.945
 9693SOL    HW229126   5.715   2.112   2.840
 9694SOL     OW29127   5.586   2.248   2.496
 9694SOL    HW129128   5.502   2.279   2.542
 9694SOL    HW229129   5.566   2.165   2.443
 9695SOL     OW29130   6.144   3.137   3.035
 9695SOL    HW129131   6.053   3.136   2.993
 9695SOL    HW229132   6.169   3.232   3.056
 9696SOL     OW29133   0.068   3.406   2.623
 9696SOL    HW129134   0.104   3.313   2.630
 9696SOL    HW229135   0.038   3.424   2.529
 9697SOL     OW29136   6.691   2.583   2.549
 9697SOL    HW129137   6.759   2.656   2.537
 9697SOL    HW229138   6.656   2.585   2.643
 9698SOL     OW29139   6.332   2.996   2.903
 9698SOL    HW129140   6.260   3.029   2.964
 9698SOL    HW229141   6.373   3.073   2.855
 9699SOL     OW29142   6.462   2.625   3.686
 9699SOL    HW129143   6.443   2.692   3.758
 9699SOL    HW229144   6.484   2.673   3.601
 9700SOL     OW29145   6.269   2.860   2.510
 9700SOL    HW129146   6.341   2.850   2.579
 9700SOL    HW229147   6.195   2.916   2.547
 9701SOL     OW29148   6.290   3.009   3.678
 9701SOL    HW129149   6.334   3.093   3.712
 9701SOL    HW229150   6.203   3.032   3.635
 9702SOL     OW29151   5.910   3.272   2.909
 9702SOL    HW129152   5.830   3.233   2.864
 9702SOL    HW229153   5.960   3.329   2.844
 9703SOL     OW29154   6.037   2.254   3.339
 9703SOL    HW129155   6.118   2.195   3.347
 9703SOL    HW229156   5.955   2.200   3.359
 9704SOL     OW29157   5.808   3.576   2.333
 9704SOL    HW129158   5.826   3.655   2.392
 9704SOL    HW229159   5.883   3.566   2.267
 9705SOL     OW29160   6.726   3.198   3.572
 9705SOL    HW129161   6.818   3.168   3.550
 9705SOL    HW229162   6.664   3.120   3.573
 9706SOL     OW29163   5.820   3.306   2.399
 9706SOL    HW129164   5.803   3.405   2.397
 9706SOL    HW229165   5.759   3.263   2.465
 9707SOL     OW29166   5.859   2.951   2.764
 9707SOL    HW129167   5.853   2.856   2.795
 9707SOL    HW229168   5.794   3.007   2.816
 9708SOL     OW29169   6.168   2.849   2.004
 9708SOL    HW129170   6.214   2.896   1.929
 9708SOL    HW229171   6.208   2.877   2.091
 9709SOL     OW29172   5.701   2.523   2.426
 9709SOL    HW129173   5.671   2.429   2.443
 9709SOL    HW229174   5.695   2.576   2.511
 9710SOL     OW29175   5.616   3.452   1.984
 9710SOL    HW129176   5.599   3.355   2.003
 9710SOL    HW229177   5.595   3.506   2.066
 9711SOL     OW29178   5.710   2.607   3.447
 9711SOL    HW129179   5.806   2.634   3.447
 9711SOL    HW229180   5.652   2.688   3.449
 9712SOL     OW29181   6.197   3.253   2.593
 9712SOL    HW129182   6.151   3.165   2.605
 9712SOL    HW229183   6.184   3.284   2.499
 9713SOL     OW29184   6.836   3.080   3.291
 9713SOL    HW129185   6.873   3.011   3.228
 9713SOL    HW229186   6.899   3.091   3.367
 9714SOL     OW29187   6.402   1.874   2.374
 9714SOL    HW129188   6.448   1.960   2.349
 9714SOL    HW229189   6.304   1.889   2.380
 9715SOL     OW29190   5.777   2.819   3.141
 9715SOL    HW129191   5.866   2.776   3.125
 9715SOL    HW229192   5.709   2.776   3.082
 9716SOL     OW29193   6.747   3.669   3.478
 9716SOL    HW129194   6.754   3.743   3.412
 9716SOL    HW229195   6.766   3.582   3.432
 9717SOL     OW29196   5.928   2.111   3.698
 9717SOL    HW129197   5.976   2.197   3.714
 9717SOL    HW229198   5.830   2.124   3.715
 9718SOL     OW29199   6.180   2.581   2.135
 9718SOL    HW129200   6.185   2.667   2.085
 9718SOL    HW229201   6.111   2.588   2.207
 9719SOL     OW29202   6.871   2.183   2.753
 9719SOL    HW129203   6.773   2.173   2.769
 9719SOL    HW229204   6.921   2.147   2.833
 9720SOL     OW29205   6.383   2.474   3.312
 9720SOL    HW129206   6.355   2.450   3.405
 9720SOL    HW229207   6.345   2.408   3.248
 9721SOL     OW29208   6.942   2.324   3.537
 9721SOL    HW129209   6.918   2.409   3.584
 9721SOL    HW229210   0.041   2.316   3.530
 9722SOL     OW29211   6.543   2.747   3.446
 9722SOL    HW129212   6.599   2.672   3.409
 9722SOL    HW229213   6.490   2.789   3.373
 9723SOL     OW29214   6.584   2.273   3.093
 9723SOL    HW129215   6.491   2.290   3.126
 9723SOL    HW229216   6.580   2.224   3.005
 9724SOL     OW29217   6.633   2.563   2.285
 9724SOL    HW129218   6.652   2.566   2.383
 9724SOL    HW229219   6.548   2.515   2.268
 9725SOL     OW29220   5.675   2.689   2.642
 9725SOL    HW129221   5.760   2.677   2.693
 9725SOL    HW229222   5.625   2.768   2.678
 9726SOL     OW29223   6.481   2.214   2.058
 9726SOL    HW129224   6.523   2.281   1.997
 9726SOL    HW229225   6.482   2.124   2.014
 9727SOL     OW29226   6.928   2.995   2.377
 9727SOL    HW129227   6.996   2.977   2.306
 9727SOL    HW229228   6.876   3.078   2.354
 9728SOL     OW29229   6.134   2.035   2.764
 9728SOL    HW129230   6.138   2.065   2.859
 9728SOL    HW229231   6.136   2.114   2.703
 9729SOL     OW29232   6.570   3.312   2.333
 9729SOL    HW129233   6.540   3.389   2.277
 9729SOL    HW229234   6.544   3.326   2.428
 9730SOL     OW29235   5.947   3.677   2.725
 9730SOL    HW129236   5.992   3.588   2.735
 9730SOL    HW229237   6.012   3.750   2.749
 9731SOL     OW29238   6.776   3.420   3.366
 9731SOL    HW129239   6.799   3.343   3.427
 9731SOL    HW229240   6.750   3.384   3.276
 9732SOL     OW29241   5.907   2.821   2.117
 9732SOL    HW129242   5.995   2.842   2.074
 9732SOL    HW229243   5.870   2.737   2.079
 9733SOL     OW29244   6.049   3.119   3.594
 9733SOL    HW129245   6.019   3.132   3.499
 9733SOL    HW229246   5.969   3.112   3.653
 9734SOL     OW29247   6.713   3.633   2.104
 9734SOL    HW129248   6.630   3.605   2.153
 9734SOL    HW229249   6.726   3.576   2.024
 9735SOL     OW29250   5.788   2.136   3.365
 9735SOL    HW129251   5.706   2.192   3.361
 9735SOL    HW229252   5.766   2.048   3.407
 9736SOL     OW29253   6.049   3.597   2.180
 9736SOL    HW129254   6.091   3.659   2.246
 9736SOL    HW229255   6.119   3.560   2.119
 9737SOL     OW29256   5.843   3.653   3.039
 9737SOL    HW129257   5.892   3.571   3.067
 9737SOL    HW229258   5.799   3.638   2.951
 9738SOL     OW29259   6.522   3.564   2.756
 9738SOL    HW129260   6.606   3.517   2.783
 9738SOL    HW229261   6.477   3.513   2.682
 9739SOL     OW29262   5.982   2.550   2.336
 9739SOL    HW129263   6.001   2.452   2.350
 9739SOL    HW229264   5.885   2.567   2.353
 9740SOL     OW29265   6.229   1.978   1.963
 9740SOL    HW129266   6.294   1.905   1.986
 9740SOL    HW229267   6.171   1.947   1.887
 9741SOL     OW29268   6.349   2.138   3.621
 9741SOL    HW129269   6.431   2.082   3.613
 9741SOL    HW229270   6.294   2.107   3.699
 9742SOL     OW29271   6.466   3.363   3.025
 9742SOL    HW129272   6.451   3.318   2.937
 9742SOL    HW229273   6.538   3.316   3.076
 9743SOL     OW29274   6.401   3.237   2.791
 9743SOL    HW129275   6.492   3.228   2.750
 9743SOL    HW229276   6.333   3.247   2.719
 9744SOL     OW29277   6.511   2.368   2.761
 9744SOL    HW129278   6.486   2.362   2.664
 9744SOL    HW229279   6.543   2.279   2.793
 9745SOL     OW29280   6.133   1.927   2.355
 9745SOL    HW129281   6.051   1.924   2.413
 9745SOL    HW229282   6.129   2.006   2.295
 9746SOL     OW29283   6.988   2.985   1.881
 9746SOL    HW129284   0.024   2.936   1.961
 9746SOL    HW229285   6.920   3.051   1.911
 9747SOL     OW29286   5.875   1.911   2.048
 9747SOL    HW129287   5.927   1.982   2.000
 9747SOL    HW229288   5.939   1.846   2.091
 9748SOL     OW29289   6.531   2.112   2.315
 9748SOL    HW129290   6.497   2.154   2.230
 9748SOL    HW229291   6.630   2.125   2.320
 9749SOL     OW29292   6.654   2.529   3.322
 9749SOL    HW129293   6.560   2.496   3.321
 9749SOL    HW229294   6.717   2.451   3.325
 9750SOL     OW29295   6.783   3.436   2.661
 9750SOL    HW129296   6.796   3.504   2.589
 9750SOL    HW229297   6.870   3.417   2.706
 9751SOL     OW29298   6.055   3.014   2.589
 9751SOL    HW129299   5.989   2.993   2.661
 9751SOL    HW229300   6.012   3.002   2.500
 9752SOL     OW29301   6.836   3.654   2.470
 9752SOL    HW129302   6.873   3.716   2.401
 9752SOL    HW229303   6.765   3.702   2.522
 9753SOL     OW29304   6.609   2.398   1.888
 9753SOL    HW129305   6.563   2.485   1.870
 9753SOL    HW229306   6.673   2.410   1.964
 9754SOL     OW29307   5.674   2.419   3.253
 9754SOL    HW129308   5.768   2.415   3.221
 9754SOL    HW229309   5.665   2.490   3.322
 9755SOL     OW29310   6.145   2.087   3.036
 9755SOL    HW129311   6.194   2.010   3.078
 9755SOL    HW229312   6.049   2.085   3.065
 9756SOL     OW29313   6.449   2.316   2.500
 9756SOL    HW129314   6.405   2.383   2.440
 9756SOL    HW229315   6.476   2.236   2.446
 9757SOL     OW29316   6.606   1.910   2.602
 9757SOL    HW129317   6.541   1.913   2.527
 9757SOL    HW229318   6.581   1.837   2.666
 9758SOL     OW29319   6.072   3.284   2.020
 9758SOL    HW129320   5.991   3.256   2.070
 9758SOL    HW229321   6.075   3.236   1.932
 9759SOL     OW29322   6.115   2.126   2.170
 9759SOL    HW129323   6.163   2.074   2.099
 9759SOL    HW229324   6.086   2.214   2.133
 9760SOL     OW29325   6.629   3.209   3.188
 9760SOL    HW129326   6.544   3.183   3.234
 9760SOL    HW229327   6.706   3.163   3.232
 9761SOL     OW29328   6.730   3.089   2.959
 9761SOL    HW129329   6.671   3.119   3.034
 9761SOL    HW229330   6.689   3.115   2.872
 9762SOL     OW29331   6.504   1.957   3.248
 9762SOL    HW129332   6.526   1.933   3.154
 9762SOL    HW229333   6.585   1.998   3.291
 9763SOL     OW29334   6.561   2.975   3.591
 9763SOL    HW129335   6.466   2.994   3.616
 9763SOL    HW229336   6.565   2.895   3.530
 9764SOL     OW29337   6.299   2.921   2.235
 9764SOL    HW129338   6.281   2.903   2.332
 9764SOL    HW229339   6.377   2.867   2.205
 9765SOL     OW29340   6.010   2.676   3.116
 9765SOL    HW129341   6.082   2.690   3.183
 9765SOL    HW229342   5.971   2.585   3.126
 9766SOL     OW29343   6.851   2.235   3.156
 9766SOL    HW129344   6.908   2.314   3.175
 9766SOL    HW229345   6.760   2.265   3.129
 9767SOL     OW29346   5.677   3.401   3.181
 9767SOL    HW129347   5.646   3.486   3.138
 9767SOL    HW229348   5.777   3.398   3.181
 9768SOL     OW29349   5.926   2.982   2.349
 9768SOL    HW129350   5.931   3.064   2.292
 9768SOL    HW229351   5.925   2.901   2.290
 9769SOL     OW29352   6.133   2.405   2.725
 9769SOL    HW129353   6.147   2.464   2.645
 9769SOL    HW229354   6.203   2.425   2.794
 9770SOL     OW29355   6.825   3.234   2.282
 9770SOL    HW129356   6.879   3.311   2.316
 9770SOL    HW229357   6.727   3.252   2.298
 9771SOL     OW29358   6.854   3.339   3.005
 9771SOL    HW129359   6.934   3.327   3.063
 9771SOL    HW229360   6.810   3.250   2.990
 9772SOL     OW29361   5.942   3.369   3.151
 9772SOL    HW129362   5.921   3.327   3.063
 9772SOL    HW229363   6.042   3.374   3.163
 9773SOL     OW29364   6.001   2.609   3.462
 9773SOL    HW129365   6.069   2.653   3.403
 9773SOL    HW229366   6.032   2.516   3.483
 9774SOL     OW29367   6.577   1.987   3.615
 9774SOL    HW129368   6.629   2.070   3.597
 9774SOL    HW229369   6.632   1.907   3.592
 9775SOL     OW29370   6.078   1.899   3.612
 9775SOL    HW129371   6.033   1.840   3.545
 9775SOL    HW229372   6.020   1.979   3.631
 9776SOL     OW29373   6.170   2.733   2.896
 9776SOL    HW129374   6.207   2.826   2.893
 9776SOL    HW229375   6.110   2.723   2.975
 9777SOL     OW29376   6.950   2.710   2.890
 9777SOL    HW129377   6.856   2.698   2.856
 9777SOL    HW229378   6.987   2.621   2.918
 9778SOL     OW29379   6.765   2.397   2.113
 9778SOL    HW129380   6.783   2.312   2.163
 9778SOL    HW229381   6.728   2.465   2.176
 9779SOL     OW29382   5.883   2.058   3.109
 9779SOL    HW129383   5.847   2.094   3.195
 9779SOL    HW229384   5.868   1.959   3.105
 9780SOL     OW29385   5.619   3.145   3.138
 9780SOL    HW129386   5.662   3.091   3.210
 9780SOL    HW229387   5.637   3.242   3.154
 9781SOL     OW29388   6.311   2.494   2.917
 9781SOL    HW129389   6.387   2.474   2.855
 9781SOL    HW229390   6.275   2.585   2.897
 9782SOL     OW29391   5.893   1.923   2.490
 9782SOL    HW129392   5.868   2.018   2.508
 9782SOL    HW229393   5.905   1.874   2.577
 9783SOL     OW29394   0.208   2.316   2.196
 9783SOL    HW129395   0.168   2.224   2.198
 9783SOL    HW229396   0.189   2.362   2.283
 9784SOL     OW29397   6.608   2.617   2.820
 9784SOL    HW129398   6.602   2.638   2.918
 9784SOL    HW229399   6.583   2.521   2.805
 9785SOL     OW29400   6.563   3.413   3.603
 9785SOL    HW129401   6.568   3.478   3.527
 9785SOL    HW229402   6.617   3.331   3.581
 9786SOL     OW29403   5.938   2.778   3.669
 9786SOL    HW129404   6.018   2.800   3.724
 9786SOL    HW229405   5.964   2.714   3.597
 9787SOL     OW29406   6.888   2.678   1.892
 9787SOL    HW129407   6.951   2.610   1.930
 9787SOL    HW229408   6.924   2.712   1.806
 9788SOL     OW29409   6.654   3.195   2.716
 9788SOL    HW129410   6.660   3.120   2.650
 9788SOL    HW229411   6.704   3.274   2.680
 9789SOL     OW29412   5.897   2.668   2.805
 9789SOL    HW129413   5.994   2.693   2.799
 9789SOL    HW229414   5.889   2.574   2.837
 9790SOL     OW29415   5.912   2.390   2.874
 9790SOL    HW129416   5.873   2.298   2.863
 9790SOL    HW229417   5.993   2.399   2.816
 9791SOL     OW29418   6.695   2.224   3.551
 9791SOL    HW129419   6.648   2.285   3.615
 9791SOL    HW229420   6.791   2.252   3.543
 9792SOL     OW29421   6.743   2.057   3.337
 9792SOL    HW129422   6.722   2.116   3.415
 9792SOL    HW229423   6.787   2.111   3.265
 9793SOL     OW29424   5.586   3.176   2.057
 9793SOL    HW129425   5.497   3.196   2.017
 9793SOL    HW229426   5.587   3.083   2.092
 9794SOL     OW29427   5.688   3.641   2.795
 9794SOL    HW129428   5.652   3.559   2.751
 9794SOL    HW229429   5.779   3.660   2.758
 9795SOL     OW29430   6.080   3.439   2.764
 9795SOL    HW129431   6.151   3.503   2.795
 9795SOL    HW229432   6.122   3.371   2.703
 9796SOL     OW29433   6.562   2.653   3.086
 9796SOL    HW129434   6.622   2.629   3.162
 9796SOL    HW229435   6.472   2.610   3.099
 9797SOL     OW29436   5.623   2.415   2.979
 9797SOL    HW129437   5.705   2.403   2.924
 9797SOL    HW229438   5.649   2.417   3.076
 9798SOL     OW29439   5.778   2.385   3.593
 9798SOL    HW129440   5.828   2.329   3.526
 9798SOL    HW229441   5.740   2.465   3.547
 9799SOL     OW29442   6.403   2.434   2.222
 9799SOL    HW129443   6.411   2.355   2.162
 9799SOL    HW229444   6.325   2.490   2.193
 9800SOL     OW29445   5.817   3.387   3.634
 9800SOL    HW129446   5.783   3.449   3.704
 9800SOL    HW229447   5.825   3.295   3.672
 9801SOL     OW29448   6.299   2.310   3.115
 9801SOL    HW129449   6.240   2.233   3.093
 9801SOL    HW229450   6.294   2.378   3.041
 9802SOL     OW29451   6.045   2.357   2.047
 9802SOL    HW129452   6.109   2.430   2.072
 9802SOL    HW229453   5.953   2.397   2.034
 9803SOL     OW29454   5.730   2.992   3.339
 9803SOL    HW129455   5.732   2.950   3.430
 9803SOL    HW229456   5.751   2.924   3.270
 9804SOL     OW29457   6.893   2.906   3.082
 9804SOL    HW129458   6.919   2.834   3.019
 9804SOL    HW229459   6.831   2.970   3.036
 9805SOL     OW29460   6.888   2.733   2.170
 9805SOL    HW129461   6.820   2.696   2.234
 9805SOL    HW229462   6.860   2.712   2.077
 9806SOL     OW29463   6.850   3.610   2.981
 9806SOL    HW129464   6.926   3.627   2.918
 9806SOL    HW229465   6.838   3.511   2.992
 9807SOL     OW29466   5.669   3.119   2.870
 9807SOL    HW129467   5.648   3.129   2.968
 9807SOL    HW229468   5.598   3.064   2.827
 9808SOL     OW29469   6.979   3.448   2.354
 9808SOL    HW129470   0.064   3.489   2.322
 9808SOL    HW229471   6.917   3.520   2.385
 9809SOL     OW29472   5.699   3.685   3.744
 9809SOL    HW129473   5.663   3.596   3.774
 9809SOL    HW229474   5.768   3.717   3.809
 9810SOL     OW29475   6.870   2.780   2.520
 9810SOL    HW129476   6.957   2.736   2.545
 9810SOL    HW229477   6.889   2.861   2.465
 9811SOL     OW29478   6.383   3.134   3.275
 9811SOL    HW129479   6.348   3.174   3.360
 9811SOL    HW229480   6.316   3.150   3.202
 9812SOL     OW29481   6.253   3.486   2.017
 9812SOL    HW129482   6.270   3.504   1.920
 9812SOL    HW229483   6.197   3.404   2.027
 9813SOL     OW29484   5.840   2.175   2.577
 9813SOL    HW129485   5.752   2.212   2.549
 9813SOL    HW229486   5.844   2.168   2.677
 9814SOL     OW29487   6.747   3.469   1.899
 9814SOL    HW129488   6.772   3.372   1.899
 9814SOL    HW229489   6.685   3.487   1.823
 9815SOL     OW29490   6.413   2.867   3.240
 9815SOL    HW129491   6.460   2.851   3.154
 9815SOL    HW229492   6.405   2.966   3.256
 9816SOL     OW29493   6.505   2.772   2.146
 9816SOL    HW129494   6.569   2.809   2.079
 9816SOL    HW229495   6.550   2.702   2.201
 9817SOL     OW29496   5.948   3.163   3.350
 9817SOL    HW129497   5.941   3.239   3.286
 9817SOL    HW229498   5.868   3.104   3.342
 9818SOL     OW29499   6.644   2.968   2.573
 9818SOL    HW129500   6.569   2.917   2.615
 9818SOL    HW229501   6.712   2.903   2.537
 9819SOL     OW29502   6.606   2.101   2.828
 9819SOL    HW129503   6.601   2.057   2.738
 9819SOL    HW229504   6.605   2.032   2.899
 9820SOL     OW29505   6.191   3.349   2.340
 9820SOL    HW129506   6.243   3.294   2.274
 9820SOL    HW229507   6.115   3.393   2.293
 9821SOL     OW29508   5.838   3.209   2.151
 9821SOL    HW129509   5.742   3.202   2.124
 9821SOL    HW229510   5.844   3.249   2.243
 9822SOL     OW29511   5.700   2.892   3.592
 9822SOL    HW129512   5.618   2.865   3.643
 9822SOL    HW229513   5.780   2.847   3.632
 9823SOL     OW29514   6.268   2.057   3.362
 9823SOL    HW129515   6.354   2.033   3.317
 9823SOL    HW229516   6.287   2.091   3.455
 9824SOL     OW29517   5.667   2.189   1.890
 9824SOL    HW129518   5.576   2.165   1.857
 9824SOL    HW229519   5.699   2.271   1.843
 9825SOL     OW29520   5.648   2.017   2.163
 9825SOL    HW129521   5.631   2.101   2.111
 9825SOL    HW229522   5.736   1.979   2.136
 9826SOL     OW29523   6.211   2.690   3.297
 9826SOL    HW129524   6.268   2.771   3.281
 9826SOL    HW229525   6.269   2.609   3.306
 9827SOL     OW29526   6.312   2.418   3.563
 9827SOL    HW129527   6.354   2.483   3.626
 9827SOL    HW229528   6.326   2.325   3.597
 9828SOL     OW29529   6.991   3.123   3.508
 9828SOL    HW129530   6.997   3.064   3.588
 9828SOL    HW229531   0.075   3.116   3.455
 9829SOL     OW29532   6.809   2.174   2.299
 9829SOL    HW129533   6.883   2.121   2.259
 9829SOL    HW229534   6.843   2.228   2.376
 9830SOL     OW29535   6.172   2.598   2.531
 9830SOL    HW129536   6.214   2.688   2.521
 9830SOL    HW229537   6.103   2.584   2.460
 9831SOL     OW29538   6.427   3.229   1.895
 9831SOL    HW129539   6.410   3.250   1.991
 9831SOL    HW229540   6.459   3.312   1.848
 9832SOL     OW29541   6.253   3.645   2.814
 9832SOL    HW129542   6.228   3.739   2.789
 9832SOL    HW229543   6.351   3.632   2.799
 9833SOL     OW29544   6.455   2.831   2.717
 9833SOL    HW129545   6.506   2.753   2.753
 9833SOL    HW229546   6.413   2.881   2.793
 9834SOL     OW29547   6.672   2.850   1.949
 9834SOL    HW129548   6.637   2.905   1.873
 9834SOL    HW229549   6.744   2.789   1.917
 9835SOL     OW29550   5.817   3.131   3.730
 9835SOL    HW129551   5.750   3.072   3.684
 9835SOL    HW229552   5.792   3.141   3.826
 9836SOL     OW29553   5.675   3.090   2.524
 9836SOL    HW129554   5.679   3.045   2.613
 9836SOL    HW229555   5.743   3.051   2.463
 9837SOL     OW29556   6.261   3.252   3.481
 9837SOL    HW129557   6.181   3.207   3.520
 9837SOL    HW229558   6.292   3.324   3.543
 9838SOL     OW29559   6.016   2.289   2.388
 9838SOL    HW129560   6.050   2.219   2.326
 9838SOL    HW229561   5.961   2.246   2.460
 9839SOL     OW29562   5.922   2.418   3.151
 9839SOL    HW129563   5.978   2.360   3.210
 9839SOL    HW229564   5.936   2.392   3.056
 9840SOL     OW29565   6.412   3.442   2.539
 9840SOL    HW129566   6.396   3.507   2.465
 9840SOL    HW229567   6.335   3.379   2.546
 9841SOL     OW29568   6.991   2.082   2.978
 9841SOL    HW129569   0.011   1.992   3.016
 9841SOL    HW229570   6.939   2.135   3.045
 9842SOL     OW29571   6.599   1.876   2.998
 9842SOL    HW129572   6.540   1.809   2.953
 9842SOL    HW229573   6.693   1.841   3.003
 9843SOL     OW29574   6.360   3.194   2.183
 9843SOL    HW129575   6.333   3.098   2.191
 9843SOL    HW229576   6.445   3.208   2.234
 9844SOL     OW29577   6.213   3.392   3.100
 9844SOL    HW129578   6.201   3.486   3.132
 9844SOL    HW229579   6.307   3.378   3.070
 9845SOL     OW29580   6.909   1.944   2.004
 9845SOL    HW129581   6.948   1.894   1.927
 9845SOL    HW229582   6.831   1.894   2.042
 9846SOL     OW29583   5.628   2.925   2.170
 9846SOL    HW129584   5.727   2.925   2.151
 9846SOL    HW229585   5.599   2.832   2.192
 9847SOL     OW29586   6.466   3.529   2.203
 9847SOL    HW129587   6.393   3.507   2.139
 9847SOL    HW229588   6.438   3.605   2.261
 9848SOL     OW29589   5.806   2.480   3.853
 9848SOL    HW129590   5.714   2.480   3.893
 9848SOL    HW229591   5.800   2.459   3.755
 9849SOL     OW29592   5.808   2.145   4.719
 9849SOL    HW129593   5.841   2.110   4.807
 9849SOL    HW229594   5.715   2.112   4.702
 9850SOL     OW29595   5.586   2.248   4.358
 9850SOL    HW129596   5.502   2.279   4.404
 9850SOL    HW229597   5.567   2.165   4.306
 9851SOL     OW29598   6.155   3.161   4.912
 9851SOL    HW129599   6.065   3.158   4.868
 9851SOL    HW229600   6.173   3.254   4.945
 9852SOL     OW29601   0.068   3.407   4.485
 9852SOL    HW129602   0.103   3.313   4.493
 9852SOL    HW229603   0.039   3.424   4.391
 9853SOL     OW29604   6.690   2.583   4.411
 9853SOL    HW129605   6.759   2.656   4.400
 9853SOL    HW229606   6.655   2.585   4.504
 9854SOL     OW29607   6.328   3.002   4.767
 9854SOL    HW129608   6.260   3.037   4.832
 9854SOL    HW229609   6.373   3.078   4.720
 9855SOL     OW29610   6.462   2.626   5.548
 9855SOL    HW129611   6.443   2.692   5.620
 9855SOL    HW229612   6.484   2.674   5.463
 9856SOL     OW29613   6.269   2.860   4.372
 9856SOL    HW129614   6.341   2.850   4.442
 9856SOL    HW229615   6.195   2.916   4.409
 9857SOL     OW29616   6.293   3.011   5.539
 9857SOL    HW129617   6.342   3.092   5.572
 9857SOL    HW229618   6.207   3.040   5.496
 9858SOL     OW29619   5.913   3.283   4.790
 9858SOL    HW129620   5.836   3.239   4.744
 9858SOL    HW229621   5.965   3.337   4.723
 9859SOL     OW29622   6.037   2.253   5.200
 9859SOL    HW129623   6.118   2.195   5.209
 9859SOL    HW229624   5.955   2.200   5.221
 9860SOL     OW29625   5.806   3.577   4.196
 9860SOL    HW129626   5.824   3.655   4.256
 9860SOL    HW229627   5.882   3.565   4.132
 9861SOL     OW29628   6.720   3.208   5.429
 9861SOL    HW129629   6.814   3.175   5.423
 9861SOL    HW229630   6.658   3.129   5.432
 9862SOL     OW29631   5.821   3.307   4.264
 9862SOL    HW129632   5.803   3.406   4.262
 9862SOL    HW229633   5.760   3.264   4.330
 9863SOL     OW29634   5.857   2.952   4.625
 9863SOL    HW129635   5.853   2.858   4.658
 9863SOL    HW229636   5.794   3.009   4.678
 9864SOL     OW29637   6.181   3.661   5.148
 9864SOL    HW129638   6.099   3.635   5.199
 9864SOL    HW229639   6.213   3.751   5.178
 9865SOL     OW29640   6.167   2.847   3.868
 9865SOL    HW129641   6.213   2.894   3.793
 9865SOL    HW229642   6.207   2.876   3.955
 9866SOL     OW29643   5.700   2.523   4.288
 9866SOL    HW129644   5.671   2.429   4.305
 9866SOL    HW229645   5.695   2.576   4.373
 9867SOL     OW29646   5.626   3.448   3.853
 9867SOL    HW129647   5.605   3.351   3.869
 9867SOL    HW229648   5.600   3.501   3.933
 9868SOL     OW29649   5.710   2.607   5.308
 9868SOL    HW129650   5.806   2.634   5.310
 9868SOL    HW229651   5.652   2.688   5.310
 9869SOL     OW29652   6.198   3.253   4.457
 9869SOL    HW129653   6.153   3.165   4.470
 9869SOL    HW229654   6.186   3.284   4.362
 9870SOL     OW29655   6.839   3.084   5.153
 9870SOL    HW129656   6.876   3.013   5.093
 9870SOL    HW229657   6.901   3.097   5.231
 9871SOL     OW29658   6.402   1.874   4.236
 9871SOL    HW129659   6.448   1.960   4.211
 9871SOL    HW229660   6.304   1.889   4.242
 9872SOL     OW29661   5.776   2.823   5.002
 9872SOL    HW129662   5.865   2.780   4.987
 9872SOL    HW229663   5.707   2.775   4.947
 9873SOL     OW29664   6.781   3.677   5.340
 9873SOL    HW129665   6.765   3.746   5.270
 9873SOL    HW229666   6.779   3.586   5.299
 9874SOL     OW29667   5.928   2.112   5.559
 9874SOL    HW129668   5.976   2.198   5.576
 9874SOL    HW229669   5.831   2.124   5.577
 9875SOL     OW29670   6.180   2.581   3.998
 9875SOL    HW129671   6.184   2.667   3.947
 9875SOL    HW229672   6.111   2.588   4.070
 9876SOL     OW29673   6.871   2.183   4.615
 9876SOL    HW129674   6.773   2.173   4.631
 9876SOL    HW229675   6.921   2.147   4.694
 9877SOL     OW29676   6.383   2.474   5.174
 9877SOL    HW129677   6.355   2.451   5.267
 9877SOL    HW229678   6.345   2.408   5.110
 9878SOL     OW29679   6.942   2.324   5.399
 9878SOL    HW129680   6.918   2.409   5.446
 9878SOL    HW229681   0.041   2.317   5.392
 9879SOL     OW29682   6.543   2.747   5.308
 9879SOL    HW129683   6.598   2.672   5.270
 9879SOL    HW229684   6.490   2.790   5.235
 9880SOL     OW29685   6.584   2.273   4.955
 9880SOL    HW129686   6.492   2.290   4.988
 9880SOL    HW229687   6.580   2.224   4.868
 9881SOL     OW29688   6.633   2.564   4.147
 9881SOL    HW129689   6.652   2.566   4.245
 9881SOL    HW229690   6.548   2.515   4.130
 9882SOL     OW29691   5.675   2.690   4.504
 9882SOL    HW129692   5.760   2.678   4.555
 9882SOL    HW229693   5.626   2.769   4.541
 9883SOL     OW29694   5.714   3.736   5.313
 9883SOL    HW129695   5.719   3.708   5.409
 9883SOL    HW229696   5.630   3.701   5.273
 9884SOL     OW29697   6.481   2.214   3.920
 9884SOL    HW129698   6.523   2.281   3.859
 9884SOL    HW229699   6.482   2.124   3.876
 9885SOL     OW29700   6.927   2.996   4.240
 9885SOL    HW129701   6.996   2.978   4.169
 9885SOL    HW229702   6.876   3.078   4.216
 9886SOL     OW29703   6.134   2.035   4.626
 9886SOL    HW129704   6.138   2.065   4.721
 9886SOL    HW229705   6.136   2.114   4.566
 9887SOL     OW29706   6.569   3.311   4.196
 9887SOL    HW129707   6.540   3.390   4.142
 9887SOL    HW229708   6.544   3.325   4.292
 9888SOL     OW29709   5.942   3.676   4.596
 9888SOL    HW129710   5.986   3.587   4.602
 9888SOL    HW229711   6.009   3.748   4.615
 9889SOL     OW29712   6.796   3.421   5.227
 9889SOL    HW129713   6.801   3.347   5.294
 9889SOL    HW229714   6.750   3.389   5.144
 9890SOL     OW29715   5.906   2.821   3.979
 9890SOL    HW129716   5.994   2.842   3.937
 9890SOL    HW229717   5.870   2.736   3.941
 9891SOL     OW29718   6.053   3.125   5.454
 9891SOL    HW129719   6.027   3.132   5.357
 9891SOL    HW229720   5.971   3.125   5.511
 9892SOL     OW29721   6.711   3.639   3.970
 9892SOL    HW129722   6.628   3.608   4.017
 9892SOL    HW229723   6.731   3.577   3.894
 9893SOL     OW29724   5.788   2.136   5.227
 9893SOL    HW129725   5.706   2.192   5.224
 9893SOL    HW229726   5.767   2.048   5.270
 9894SOL     OW29727   6.049   3.594   4.050
 9894SOL    HW129728   6.091   3.658   4.114
 9894SOL    HW229729   6.120   3.557   3.989
 9895SOL     OW29730   5.844   3.653   4.949
 9895SOL    HW129731   5.895   3.581   4.995
 9895SOL    HW229732   5.826   3.627   4.855
 9896SOL     OW29733   6.525   3.564   4.620
 9896SOL    HW129734   6.610   3.517   4.642
 9896SOL    HW229735   6.477   3.513   4.548
 9897SOL     OW29736   5.982   2.550   4.198
 9897SOL    HW129737   6.001   2.453   4.212
 9897SOL    HW229738   5.885   2.567   4.215
 9898SOL     OW29739   6.229   1.978   3.824
 9898SOL    HW129740   6.293   1.905   3.849
 9898SOL    HW229741   6.171   1.947   3.749
 9899SOL     OW29742   6.349   2.138   5.483
 9899SOL    HW129743   6.431   2.082   5.475
 9899SOL    HW229744   6.294   2.107   5.561
 9900SOL     OW29745   6.460   3.380   4.915
 9900SOL    HW129746   6.440   3.344   4.824
 9900SOL    HW229747   6.531   3.325   4.958
 9901SOL     OW29748   6.402   3.251   4.667
 9901SOL    HW129749   6.492   3.238   4.626
 9901SOL    HW229750   6.333   3.257   4.594
 9902SOL     OW29751   6.511   2.368   4.623
 9902SOL    HW129752   6.486   2.362   4.526
 9902SOL    HW229753   6.543   2.279   4.655
 9903SOL     OW29754   6.133   1.927   4.217
 9903SOL    HW129755   6.051   1.924   4.275
 9903SOL    HW229756   6.129   2.006   4.157
 9904SOL     OW29757   6.990   2.989   3.744
 9904SOL    HW129758   0.026   2.939   3.823
 9904SOL    HW229759   6.916   3.049   3.773
 9905SOL     OW29760   5.875   1.911   3.910
 9905SOL    HW129761   5.927   1.982   3.862
 9905SOL    HW229762   5.939   1.846   3.953
 9906SOL     OW29763   6.531   2.113   4.177
 9906SOL    HW129764   6.497   2.154   4.092
 9906SOL    HW229765   6.630   2.125   4.182
 9907SOL     OW29766   6.654   2.529   5.184
 9907SOL    HW129767   6.560   2.496   5.183
 9907SOL    HW229768   6.717   2.451   5.187
 9908SOL     OW29769   6.781   3.436   4.525
 9908SOL    HW129770   6.798   3.502   4.452
 9908SOL    HW229771   6.867   3.417   4.572
 9909SOL     OW29772   6.055   3.014   4.451
 9909SOL    HW129773   5.989   2.993   4.523
 9909SOL    HW229774   6.012   3.002   4.361
 9910SOL     OW29775   6.836   3.654   4.332
 9910SOL    HW129776   6.874   3.717   4.263
 9910SOL    HW229777   6.765   3.701   4.384
 9911SOL     OW29778   6.609   2.398   3.751
 9911SOL    HW129779   6.563   2.485   3.732
 9911SOL    HW229780   6.673   2.410   3.826
 9912SOL     OW29781   5.673   2.419   5.114
 9912SOL    HW129782   5.768   2.415   5.082
 9912SOL    HW229783   5.665   2.490   5.185
 9913SOL     OW29784   6.145   2.087   4.898
 9913SOL    HW129785   6.194   2.010   4.941
 9913SOL    HW229786   6.049   2.085   4.927
 9914SOL     OW29787   6.449   2.316   4.362
 9914SOL    HW129788   6.405   2.383   4.302
 9914SOL    HW229789   6.476   2.236   4.308
 9915SOL     OW29790   6.606   1.910   4.464
 9915SOL    HW129791   6.541   1.912   4.389
 9915SOL    HW229792   6.581   1.837   4.528
 9916SOL     OW29793   6.069   3.282   3.880
 9916SOL    HW129794   5.988   3.254   3.933
 9916SOL    HW229795   6.065   3.239   3.790
 9917SOL     OW29796   6.115   2.126   4.032
 9917SOL    HW129797   6.163   2.074   3.961
 9917SOL    HW229798   6.085   2.214   3.994
 9918SOL     OW29799   6.626   3.209   5.054
 9918SOL    HW129800   6.543   3.183   5.103
 9918SOL    HW229801   6.705   3.166   5.097
 9919SOL     OW29802   6.728   3.090   4.824
 9919SOL    HW129803   6.670   3.120   4.899
 9919SOL    HW229804   6.688   3.116   4.737
 9920SOL     OW29805   6.504   1.957   5.110
 9920SOL    HW129806   6.526   1.933   5.016
 9920SOL    HW229807   6.585   1.998   5.153
 9921SOL     OW29808   6.566   2.975   5.452
 9921SOL    HW129809   6.472   2.997   5.478
 9921SOL    HW229810   6.566   2.895   5.392
 9922SOL     OW29811   6.300   2.922   4.098
 9922SOL    HW129812   6.282   2.903   4.195
 9922SOL    HW229813   6.378   2.868   4.067
 9923SOL     OW29814   6.009   2.677   4.978
 9923SOL    HW129815   6.082   2.691   5.046
 9923SOL    HW229816   5.970   2.586   4.989
 9924SOL     OW29817   6.851   2.235   5.018
 9924SOL    HW129818   6.908   2.314   5.038
 9924SOL    HW229819   6.760   2.265   4.991
 9925SOL     OW29820   5.661   3.434   5.078
 9925SOL    HW129821   5.626   3.504   5.016
 9925SOL    HW229822   5.761   3.432   5.072
 9926SOL     OW29823   5.926   2.982   4.210
 9926SOL    HW129824   5.929   3.064   4.152
 9926SOL    HW229825   5.925   2.901   4.152
 9927SOL     OW29826   6.133   2.405   4.587
 9927SOL    HW129827   6.147   2.464   4.507
 9927SOL    HW229828   6.203   2.425   4.655
 9928SOL     OW29829   6.823   3.234   4.145
 9928SOL    HW129830   6.877   3.311   4.179
 9928SOL    HW229831   6.726   3.252   4.162
 9929SOL     OW29832   6.852   3.341   4.864
 9929SOL    HW129833   6.931   3.337   4.925
 9929SOL    HW229834   6.812   3.249   4.856
 9930SOL     OW29835   5.934   3.392   5.033
 9930SOL    HW129836   5.918   3.347   4.945
 9930SOL    HW229837   6.032   3.406   5.046
 9931SOL     OW29838   6.001   2.609   5.324
 9931SOL    HW129839   6.069   2.654   5.265
 9931SOL    HW229840   6.032   2.516   5.346
 9932SOL     OW29841   6.577   1.987   5.477
 9932SOL    HW129842   6.629   2.070   5.459
 9932SOL    HW229843   6.633   1.907   5.454
 9933SOL     OW29844   6.078   1.899   5.474
 9933SOL    HW129845   6.033   1.840   5.407
 9933SOL    HW229846   6.020   1.979   5.493
 9934SOL     OW29847   6.170   2.734   4.759
 9934SOL    HW129848   6.206   2.827   4.756
 9934SOL    HW229849   6.110   2.724   4.838
 9935SOL     OW29850   6.950   2.710   4.752
 9935SOL    HW129851   6.856   2.697   4.719
 9935SOL    HW229852   6.987   2.622   4.780
 9936SOL     OW29853   6.765   2.397   3.975
 9936SOL    HW129854   6.783   2.312   4.025
 9936SOL    HW229855   6.727   2.465   4.038
 9937SOL     OW29856   5.883   2.058   4.971
 9937SOL    HW129857   5.847   2.094   5.057
 9937SOL    HW229858   5.868   1.960   4.967
 9938SOL     OW29859   5.639   3.172   4.998
 9938SOL    HW129860   5.670   3.110   5.071
 9938SOL    HW229861   5.641   3.266   5.032
 9939SOL     OW29862   6.311   2.494   4.779
 9939SOL    HW129863   6.387   2.473   4.717
 9939SOL    HW229864   6.275   2.585   4.759
 9940SOL     OW29865   5.894   1.923   4.352
 9940SOL    HW129866   5.868   2.018   4.370
 9940SOL    HW229867   5.905   1.874   4.439
 9941SOL     OW29868   0.208   2.316   4.058
 9941SOL    HW129869   0.168   2.224   4.060
 9941SOL    HW229870   0.189   2.362   4.145
 9942SOL     OW29871   6.608   2.617   4.682
 9942SOL    HW129872   6.602   2.638   4.780
 9942SOL    HW229873   6.583   2.521   4.667
 9943SOL     OW29874   6.554   3.428   5.430
 9943SOL    HW129875   6.541   3.472   5.341
 9943SOL    HW229876   6.607   3.344   5.419
 9944SOL     OW29877   5.938   2.780   5.529
 9944SOL    HW129878   6.018   2.802   5.585
 9944SOL    HW229879   5.964   2.715   5.458
 9945SOL     OW29880   6.889   2.679   3.754
 9945SOL    HW129881   6.951   2.611   3.793
 9945SOL    HW229882   6.926   2.711   3.667
 9946SOL     OW29883   6.649   3.196   4.580
 9946SOL    HW129884   6.655   3.120   4.515
 9946SOL    HW229885   6.701   3.274   4.545
 9947SOL     OW29886   5.897   2.668   4.667
 9947SOL    HW129887   5.994   2.693   4.661
 9947SOL    HW229888   5.889   2.574   4.699
 9948SOL     OW29889   5.912   2.390   4.735
 9948SOL    HW129890   5.873   2.298   4.725
 9948SOL    HW229891   5.993   2.399   4.678
 9949SOL     OW29892   6.695   2.224   5.413
 9949SOL    HW129893   6.648   2.285   5.477
 9949SOL    HW229894   6.791   2.252   5.405
 9950SOL     OW29895   6.743   2.057   5.198
 9950SOL    HW129896   6.722   2.116   5.277
 9950SOL    HW229897   6.787   2.111   5.127
 9951SOL     OW29898   5.588   3.175   3.921
 9951SOL    HW129899   5.498   3.194   3.881
 9951SOL    HW229900   5.589   3.081   3.957
 9952SOL     OW29901   5.679   3.644   4.668
 9952SOL    HW129902   5.643   3.563   4.622
 9952SOL    HW229903   5.772   3.662   4.636
 9953SOL     OW29904   6.079   3.438   4.628
 9953SOL    HW129905   6.149   3.504   4.655
 9953SOL    HW229906   6.119   3.370   4.566
 9954SOL     OW29907   6.562   2.653   4.948
 9954SOL    HW129908   6.622   2.629   5.024
 9954SOL    HW229909   6.472   2.611   4.962
 9955SOL     OW29910   5.623   2.416   4.841
 9955SOL    HW129911   5.706   2.403   4.786
 9955SOL    HW229912   5.648   2.417   4.938
 9956SOL     OW29913   5.778   2.385   5.455
 9956SOL    HW129914   5.828   2.329   5.388
 9956SOL    HW229915   5.740   2.465   5.408
 9957SOL     OW29916   6.403   2.435   4.084
 9957SOL    HW129917   6.411   2.355   4.024
 9957SOL    HW229918   6.324   2.489   4.055
 9958SOL     OW29919   5.825   3.408   5.449
 9958SOL    HW129920   5.804   3.483   5.513
 9958SOL    HW229921   5.832   3.322   5.500
 9959SOL     OW29922   6.299   2.310   4.977
 9959SOL    HW129923   6.240   2.233   4.955
 9959SOL    HW229924   6.293   2.378   4.903
 9960SOL     OW29925   6.498   3.549   5.191
 9960SOL    HW129926   6.479   3.499   5.106
 9960SOL    HW229927   6.494   3.647   5.173
 9961SOL     OW29928   6.044   2.357   3.908
 9961SOL    HW129929   6.109   2.429   3.934
 9961SOL    HW229930   5.953   2.397   3.896
 9962SOL     OW29931   5.726   3.000   5.199
 9962SOL    HW129932   5.729   2.956   5.289
 9962SOL    HW229933   5.747   2.932   5.129
 9963SOL     OW29934   6.893   2.906   4.945
 9963SOL    HW129935   6.919   2.834   4.881
 9963SOL    HW229936   6.831   2.970   4.900
 9964SOL     OW29937   6.887   2.734   4.033
 9964SOL    HW129938   6.820   2.695   4.096
 9964SOL    HW229939   6.860   2.712   3.939
 9965SOL     OW29940   6.846   3.611   4.838
 9965SOL    HW129941   6.926   3.628   4.780
 9965SOL    HW229942   6.836   3.512   4.852
 9966SOL     OW29943   5.673   3.126   4.734
 9966SOL    HW129944   5.657   3.142   4.831
 9966SOL    HW229945   5.600   3.068   4.697
 9967SOL     OW29946   6.267   3.536   5.465
 9967SOL    HW129947   6.206   3.615   5.454
 9967SOL    HW229948   6.344   3.545   5.402
 9968SOL     OW29949   6.978   3.449   4.215
 9968SOL    HW129950   0.064   3.489   4.184
 9968SOL    HW229951   6.917   3.521   4.247
 9969SOL     OW29952   5.732   3.649   5.570
 9969SOL    HW129953   5.674   3.581   5.615
 9969SOL    HW229954   5.781   3.702   5.639
 9970SOL     OW29955   6.870   2.780   4.383
 9970SOL    HW129956   6.956   2.737   4.408
 9970SOL    HW229957   6.888   2.861   4.327
 9971SOL     OW29958   6.380   3.139   5.148
 9971SOL    HW129959   6.351   3.185   5.232
 9971SOL    HW229960   6.311   3.152   5.077
 9972SOL     OW29961   6.250   3.482   3.896
 9972SOL    HW129962   6.286   3.494   3.803
 9972SOL    HW229963   6.192   3.401   3.898
 9973SOL     OW29964   5.840   2.175   4.439
 9973SOL    HW129965   5.752   2.212   4.411
 9973SOL    HW229966   5.844   2.168   4.539
 9974SOL     OW29967   6.764   3.467   3.776
 9974SOL    HW129968   6.804   3.375   3.770
 9974SOL    HW229969   6.692   3.476   3.707
 9975SOL     OW29970   6.412   2.871   5.104
 9975SOL    HW129971   6.460   2.858   5.017
 9975SOL    HW229972   6.404   2.969   5.123
 9976SOL     OW29973   6.505   2.773   4.008
 9976SOL    HW129974   6.570   2.810   3.941
 9976SOL    HW229975   6.550   2.702   4.063
 9977SOL     OW29976   5.951   3.164   5.210
 9977SOL    HW129977   5.941   3.245   5.152
 9977SOL    HW229978   5.870   3.106   5.199
 9978SOL     OW29979   6.644   2.968   4.435
 9978SOL    HW129980   6.569   2.918   4.477
 9978SOL    HW229981   6.712   2.904   4.400
 9979SOL     OW29982   6.606   2.101   4.690
 9979SOL    HW129983   6.601   2.057   4.600
 9979SOL    HW229984   6.605   2.032   4.761
 9980SOL     OW29985   6.193   3.348   4.202
 9980SOL    HW129986   6.242   3.294   4.134
 9980SOL    HW229987   6.117   3.396   4.158
 9981SOL     OW29988   5.839   3.206   4.020
 9981SOL    HW129989   5.744   3.204   3.989
 9981SOL    HW229990   5.845   3.248   4.111
 9982SOL     OW29991   5.701   2.897   5.453
 9982SOL    HW129992   5.619   2.870   5.503
 9982SOL    HW229993   5.781   2.852   5.491
 9983SOL     OW29994   6.268   2.057   5.224
 9983SOL    HW129995   6.354   2.033   5.179
 9983SOL    HW229996   6.287   2.091   5.317
 9984SOL     OW29997   5.667   2.189   3.752
 9984SOL    HW129998   5.576   2.165   3.720
 9984SOL    HW229999   5.699   2.271   3.705
 9985SOL     OW30000   5.648   2.017   4.025
 9985SOL    HW130001   5.631   2.101   3.973
 9985SOL    HW230002   5.736   1.978   3.998
 9986SOL     OW30003   6.211   2.690   5.158
 9986SOL    HW130004   6.268   2.771   5.144
 9986SOL    HW230005   6.269   2.610   5.168
 9987SOL     OW30006   6.312   2.418   5.425
 9987SOL    HW130007   6.354   2.484   5.488
 9987SOL    HW230008   6.326   2.325   5.459
 9988SOL     OW30009   6.998   3.124   5.373
 9988SOL    HW130010   6.998   3.060   5.450
 9988SOL    HW230011   0.077   3.106   5.315
 9989SOL     OW30012   5.956   3.600   5.292
 9989SOL    HW130013   5.872   3.653   5.277
 9989SOL    HW230014   5.934   3.512   5.333
 9990SOL     OW30015   6.809   2.175   4.161
 9990SOL    HW130016   6.883   2.121   4.121
 9990SOL    HW230017   6.844   2.228   4.238
 9991SOL     OW30018   6.172   2.598   4.393
 9991SOL    HW130019   6.214   2.688   4.383
 9991SOL    HW230020   6.103   2.585   4.322
 9992SOL     OW30021   6.403   3.241   3.758
 9992SOL    HW130022   6.404   3.241   3.858
 9992SOL    HW230023   6.470   3.306   3.724
 9993SOL     OW30024   6.251   3.645   4.664
 9993SOL    HW130025   6.227   3.741   4.645
 9993SOL    HW230026   6.350   3.634   4.657
 9994SOL     OW30027   6.454   2.833   4.580
 9994SOL    HW130028   6.505   2.755   4.616
 9994SOL    HW230029   6.412   2.882   4.656
 9995SOL     OW30030   6.673   2.852   3.811
 9995SOL    HW130031   6.637   2.904   3.734
 9995SOL    HW230032   6.745   2.790   3.779
 9996SOL     OW30033   5.817   3.160   5.581
 9996SOL    HW130034   5.752   3.093   5.546
 9996SOL    HW230035   5.803   3.174   5.679
 9997SOL     OW30036   5.674   3.091   4.388
 9997SOL    HW130037   5.679   3.046   4.476
 9997SOL    HW230038   5.742   3.052   4.326
 9998SOL     OW30039   6.262   3.274   5.351
 9998SOL    HW130040   6.185   3.222   5.389
 9998SOL    HW230041   6.266   3.364   5.395
 9999SOL     OW30042   6.016   2.289   4.250
 9999SOL    HW130043   6.050   2.219   4.188
 9999SOL    HW230044   5.961   2.246   4.322
10000SOL     OW30045   5.922   2.419   5.013
10000SOL    HW130046   5.978   2.360   5.072
10000SOL    HW230047   5.936   2.392   4.917
10001SOL     OW30048   6.412   3.442   4.404
10001SOL    HW130049   6.393   3.507   4.329
10001SOL    HW230050   6.336   3.378   4.412
10002SOL     OW30051   6.991   2.082   4.840
10002SOL    HW130052   0.012   1.992   4.878
10002SOL    HW230053   6.939   2.135   4.906
10003SOL     OW30054   6.599   1.877   4.860
10003SOL    HW130055   6.540   1.809   4.816
10003SOL    HW230056   6.693   1.841   4.865
10004SOL     OW30057   6.366   3.192   4.040
10004SOL    HW130058   6.336   3.097   4.052
10004SOL    HW230059   6.446   3.209   4.097
10005SOL     OW30060   6.209   3.422   5.013
10005SOL    HW130061   6.206   3.508   5.063
10005SOL    HW230062   6.300   3.409   4.973
10006SOL     OW30063   6.909   1.945   3.866
10006SOL    HW130064   6.948   1.894   3.790
10006SOL    HW230065   6.831   1.894   3.903
10007SOL     OW30066   5.629   2.924   4.033
10007SOL    HW130067   5.728   2.923   4.014
10007SOL    HW230068   5.599   2.831   4.054
10008SOL     OW30069   6.467   3.531   4.069
10008SOL    HW130070   6.390   3.504   4.011
10008SOL    HW230071   6.441   3.607   4.128
10009SOL     OW30072   5.806   2.480   5.715
10009SOL    HW130073   5.715   2.480   5.755
10009SOL    HW230074   5.799   2.459   5.617
10010SOL     OW30075   5.806   2.150   6.582
10010SOL    HW130076   5.842   2.112   6.667
10010SOL    HW230077   5.715   2.114   6.565
10011SOL     OW30078   5.585   2.249   6.221
10011SOL    HW130079   5.502   2.280   6.266
10011SOL    HW230080   5.566   2.165   6.169
10012SOL     OW30081   6.143   3.142   6.756
10012SOL    HW130082   6.057   3.168   6.713
10012SOL    HW230083   6.174   3.217   6.815
10013SOL     OW30084   0.068   3.406   6.347
10013SOL    HW130085   0.104   3.313   6.353
10013SOL    HW230086   0.038   3.425   6.254
10014SOL     OW30087   6.692   2.583   6.274
10014SOL    HW130088   6.759   2.656   6.263
10014SOL    HW230089   6.655   2.585   6.367
10015SOL     OW30090   6.337   3.002   6.626
10015SOL    HW130091   6.264   3.030   6.689
10015SOL    HW230092   6.374   3.083   6.581
10016SOL     OW30093   6.269   2.860   6.235
10016SOL    HW130094   6.340   2.850   6.304
10016SOL    HW230095   6.195   2.916   6.271
10017SOL     OW30096   5.918   3.271   6.647
10017SOL    HW130097   5.833   3.240   6.606
10017SOL    HW230098   5.964   3.334   6.585
10018SOL     OW30099   5.808   3.577   6.056
10018SOL    HW130100   5.826   3.654   6.117
10018SOL    HW230101   5.883   3.567   5.991
10019SOL     OW30102   5.819   3.306   6.122
10019SOL    HW130103   5.803   3.404   6.122
10019SOL    HW230104   5.761   3.262   6.190
10020SOL     OW30105   5.854   2.953   6.486
10020SOL    HW130106   5.851   2.860   6.521
10020SOL    HW230107   5.796   3.012   6.542
10021SOL     OW30108   6.174   3.691   6.954
10021SOL    HW130109   6.099   3.649   0.005
10021SOL    HW230110   6.208   3.770   0.005
10022SOL     OW30111   6.168   2.849   5.728
10022SOL    HW130112   6.214   2.896   5.653
10022SOL    HW230113   6.207   2.878   5.815
10023SOL     OW30114   0.242   2.055   0.085
10023SOL    HW130115   0.174   2.129   0.076
10023SOL    HW230116   0.198   1.974   0.123
10024SOL     OW30117   5.701   2.524   6.150
10024SOL    HW130118   5.670   2.430   6.167
10024SOL    HW230119   5.695   2.576   6.235
10025SOL     OW30120   5.615   3.452   5.708
10025SOL    HW130121   5.599   3.355   5.727
10025SOL    HW230122   5.595   3.505   5.790
10026SOL     OW30123   6.200   3.253   6.319
10026SOL    HW130124   6.153   3.166   6.333
10026SOL    HW230125   6.186   3.284   6.225
10027SOL     OW30126   6.821   3.053   0.024
10027SOL    HW130127   6.870   3.007   6.950
10027SOL    HW230128   6.886   3.100   0.084
10028SOL     OW30129   6.403   1.874   6.097
10028SOL    HW130130   6.447   1.960   6.073
10028SOL    HW230131   6.304   1.888   6.104
10029SOL     OW30132   5.777   2.839   6.848
10029SOL    HW130133   5.860   2.786   6.829
10029SOL    HW230134   5.697   2.786   6.820
10030SOL     OW30135   6.180   2.581   5.860
10030SOL    HW130136   6.185   2.667   5.809
10030SOL    HW230137   6.111   2.588   5.931
10031SOL     OW30138   6.870   2.186   6.477
10031SOL    HW130139   6.772   2.171   6.489
10031SOL    HW230140   6.919   2.150   6.557
10032SOL     OW30141   6.406   2.442   0.048
10032SOL    HW130142   6.353   2.505   0.106
10032SOL    HW230143   6.346   2.401   6.980
10033SOL     OW30144   6.567   2.236   6.800
10033SOL    HW130145   6.488   2.286   6.835
10033SOL    HW230146   6.541   2.186   6.717
10034SOL     OW30147   6.634   2.564   6.009
10034SOL    HW130148   6.652   2.565   6.108
10034SOL    HW230149   6.548   2.515   5.992
10035SOL     OW30150   5.676   2.689   6.367
10035SOL    HW130151   5.761   2.678   6.417
10035SOL    HW230152   5.626   2.769   6.403
10036SOL     OW30153   5.742   3.715   0.150
10036SOL    HW130154   5.701   3.637   0.198
10036SOL    HW230155   5.693   3.730   0.064
10037SOL     OW30156   6.481   2.214   5.782
10037SOL    HW130157   6.523   2.281   5.720
10037SOL    HW230158   6.481   2.124   5.738
10038SOL     OW30159   6.928   2.995   6.102
10038SOL    HW130160   6.995   2.977   6.030
10038SOL    HW230161   6.876   3.078   6.078
10039SOL     OW30162   6.135   2.035   6.488
10039SOL    HW130163   6.141   2.063   6.584
10039SOL    HW230164   6.136   2.116   6.429
10040SOL     OW30165   6.570   3.312   6.056
10040SOL    HW130166   6.541   3.389   6.000
10040SOL    HW230167   6.542   3.326   6.151
10041SOL     OW30168   5.941   3.677   6.455
10041SOL    HW130169   5.983   3.586   6.465
10041SOL    HW230170   6.009   3.747   6.477
10042SOL     OW30171   5.907   2.821   5.841
10042SOL    HW130172   5.995   2.842   5.798
10042SOL    HW230173   5.870   2.736   5.804
10043SOL     OW30174   6.713   3.634   5.828
10043SOL    HW130175   6.630   3.605   5.876
10043SOL    HW230176   6.726   3.576   5.748
10044SOL     OW30177   6.049   3.598   5.903
10044SOL    HW130178   6.091   3.659   5.970
10044SOL    HW230179   6.119   3.560   5.843
10045SOL     OW30180   5.851   3.662   6.822
10045SOL    HW130181   5.907   3.611   6.888
10045SOL    HW230182   5.815   3.599   6.754
10046SOL     OW30183   6.521   3.565   6.478
10046SOL    HW130184   6.603   3.518   6.511
10046SOL    HW230185   6.479   3.512   6.405
10047SOL     OW30186   5.982   2.549   6.060
10047SOL    HW130187   6.001   2.452   6.074
10047SOL    HW230188   5.885   2.567   6.077
10048SOL     OW30189   6.229   1.978   5.686
10048SOL    HW130190   6.292   1.905   5.712
10048SOL    HW230191   6.171   1.947   5.611
10049SOL     OW30192   6.458   3.379   6.771
10049SOL    HW130193   6.441   3.342   6.679
10049SOL    HW230194   6.475   3.304   6.835
10050SOL     OW30195   6.405   3.251   6.526
10050SOL    HW130196   6.494   3.238   6.484
10050SOL    HW230197   6.335   3.256   6.455
10051SOL     OW30198   6.513   2.368   6.485
10051SOL    HW130199   6.487   2.362   6.389
10051SOL    HW230200   6.548   2.279   6.516
10052SOL     OW30201   6.133   1.926   6.079
10052SOL    HW130202   6.052   1.924   6.137
10052SOL    HW230203   6.129   2.006   6.019
10053SOL     OW30204   6.989   2.985   5.605
10053SOL    HW130205   0.025   2.936   5.685
10053SOL    HW230206   6.920   3.051   5.635
10054SOL     OW30207   5.875   1.911   5.771
10054SOL    HW130208   5.928   1.982   5.725
10054SOL    HW230209   5.938   1.846   5.815
10055SOL     OW30210   6.531   2.113   6.039
10055SOL    HW130211   6.497   2.154   5.954
10055SOL    HW230212   6.630   2.124   6.044
10056SOL     OW30213   6.783   3.432   6.381
10056SOL    HW130214   6.792   3.502   6.309
10056SOL    HW230215   6.872   3.418   6.424
10057SOL     OW30216   6.055   3.014   6.313
10057SOL    HW130217   5.988   2.995   6.386
10057SOL    HW230218   6.011   3.001   6.224
10058SOL     OW30219   6.835   3.654   6.193
10058SOL    HW130220   6.871   3.716   6.124
10058SOL    HW230221   6.764   3.700   6.245
10059SOL     OW30222   6.609   2.398   5.612
10059SOL    HW130223   6.563   2.485   5.594
10059SOL    HW230224   6.673   2.410   5.688
10060SOL     OW30225   6.149   2.080   6.761
10060SOL    HW130226   6.192   1.997   6.797
10060SOL    HW230227   6.053   2.082   6.788
10061SOL     OW30228   6.449   2.317   6.224
10061SOL    HW130229   6.404   2.383   6.164
10061SOL    HW230230   6.475   2.236   6.171
10062SOL     OW30231   6.607   1.908   6.322
10062SOL    HW130232   6.540   1.910   6.248
10062SOL    HW230233   6.582   1.838   6.388
10063SOL     OW30234   6.072   3.284   5.744
10063SOL    HW130235   5.991   3.256   5.795
10063SOL    HW230236   6.075   3.236   5.656
10064SOL     OW30237   6.115   2.126   5.894
10064SOL    HW130238   6.163   2.074   5.823
10064SOL    HW230239   6.085   2.214   5.856
10065SOL     OW30240   0.224   3.438   0.245
10065SOL    HW130241   0.241   3.498   0.167
10065SOL    HW230242   0.300   3.373   0.254
10066SOL     OW30243   6.721   3.084   6.690
10066SOL    HW130244   6.642   3.070   6.749
10066SOL    HW230245   6.691   3.114   6.599
10067SOL     OW30246   6.298   2.921   5.959
10067SOL    HW130247   6.281   2.903   6.056
10067SOL    HW230248   6.377   2.867   5.929
10068SOL     OW30249   6.011   2.677   6.846
10068SOL    HW130250   6.063   2.706   6.927
10068SOL    HW230251   5.975   2.585   6.862
10069SOL     OW30252   6.826   2.273   6.865
10069SOL    HW130253   6.806   2.354   6.920
10069SOL    HW230254   6.744   2.245   6.816
10070SOL     OW30255   5.679   3.422   6.858
10070SOL    HW130256   5.620   3.494   6.894
10070SOL    HW230257   5.763   3.417   6.912
10071SOL     OW30258   5.926   2.982   6.073
10071SOL    HW130259   5.931   3.064   6.017
10071SOL    HW230260   5.925   2.901   6.013
10072SOL     OW30261   6.133   2.406   6.448
10072SOL    HW130262   6.146   2.465   6.368
10072SOL    HW230263   6.203   2.426   6.516
10073SOL     OW30264   6.824   3.234   6.006
10073SOL    HW130265   6.879   3.311   6.040
10073SOL    HW230266   6.727   3.252   6.022
10074SOL     OW30267   6.821   3.339   6.759
10074SOL    HW130268   6.917   3.330   6.786
10074SOL    HW230269   6.784   3.249   6.737
10075SOL     OW30270   5.951   3.354   6.903
10075SOL    HW130271   5.923   3.316   6.814
10075SOL    HW230272   6.044   3.390   6.895
10076SOL     OW30273   6.171   2.733   6.624
10076SOL    HW130274   6.205   2.827   6.617
10076SOL    HW230275   6.111   2.725   6.703
10077SOL     OW30276   6.950   2.706   6.605
10077SOL    HW130277   6.857   2.690   6.571
10077SOL    HW230278   6.989   2.620   6.636
10078SOL     OW30279   6.766   2.397   5.837
10078SOL    HW130280   6.782   2.312   5.886
10078SOL    HW230281   6.728   2.465   5.900
10079SOL     OW30282   5.888   2.064   6.834
10079SOL    HW130283   5.846   2.095   6.920
10079SOL    HW230284   5.876   1.965   6.825
10080SOL     OW30285   5.612   3.162   6.869
10080SOL    HW130286   5.666   3.115   6.939
10080SOL    HW230287   5.639   3.259   6.866
10081SOL     OW30288   6.309   2.491   6.640
10081SOL    HW130289   6.387   2.471   6.580
10081SOL    HW230290   6.276   2.583   6.623
10082SOL     OW30291   5.893   1.924   6.213
10082SOL    HW130292   5.868   2.019   6.231
10082SOL    HW230293   5.904   1.875   6.299
10083SOL     OW30294   0.208   2.316   5.920
10083SOL    HW130295   0.169   2.224   5.922
10083SOL    HW230296   0.189   2.362   6.007
10084SOL     OW30297   6.610   2.616   6.549
10084SOL    HW130298   6.601   2.636   6.646
10084SOL    HW230299   6.584   2.521   6.532
10085SOL     OW30300   6.888   2.678   5.616
10085SOL    HW130301   6.951   2.610   5.654
10085SOL    HW230302   6.925   2.712   5.530
10086SOL     OW30303   6.655   3.194   6.444
10086SOL    HW130304   6.657   3.119   6.377
10086SOL    HW230305   6.703   3.273   6.407
10087SOL     OW30306   5.899   2.667   6.529
10087SOL    HW130307   5.995   2.694   6.522
10087SOL    HW230308   5.893   2.572   6.559
10088SOL     OW30309   5.918   2.391   6.604
10088SOL    HW130310   5.877   2.300   6.591
10088SOL    HW230311   5.997   2.401   6.545
10089SOL     OW30312   6.768   2.081   0.053
10089SOL    HW130313   6.771   2.131   0.140
10089SOL    HW230314   6.774   2.145   6.977
10090SOL     OW30315   5.586   3.176   5.780
10090SOL    HW130316   5.496   3.196   5.740
10090SOL    HW230317   5.587   3.083   5.816
10091SOL     OW30318   5.676   3.651   6.526
10091SOL    HW130319   5.641   3.568   6.483
10091SOL    HW230320   5.772   3.664   6.501
10092SOL     OW30321   6.077   3.439   6.490
10092SOL    HW130322   6.147   3.505   6.518
10092SOL    HW230323   6.118   3.370   6.429
10093SOL     OW30324   6.565   2.656   6.816
10093SOL    HW130325   6.631   2.651   6.890
10093SOL    HW230326   6.477   2.620   6.847
10094SOL     OW30327   5.637   2.420   6.712
10094SOL    HW130328   5.692   2.386   6.636
10094SOL    HW230329   5.698   2.454   6.784
10095SOL     OW30330   6.403   2.435   5.946
10095SOL    HW130331   6.411   2.355   5.886
10095SOL    HW230332   6.325   2.490   5.917
10096SOL     OW30333   6.271   2.321   6.847
10096SOL    HW130334   6.229   2.235   6.819
10096SOL    HW230335   6.275   2.383   6.768
10097SOL     OW30336   6.451   3.524   0.014
10097SOL    HW130337   6.462   3.503   6.917
10097SOL    HW230338   6.523   3.588   0.042
10098SOL     OW30339   6.044   2.357   5.770
10098SOL    HW130340   6.109   2.430   5.796
10098SOL    HW230341   5.953   2.397   5.757
10099SOL     OW30342   5.742   3.004   0.060
10099SOL    HW130343   5.800   2.965   0.132
10099SOL    HW230344   5.751   2.949   6.976
10100SOL     OW30345   6.886   2.883   6.806
10100SOL    HW130346   6.917   2.823   6.733
10100SOL    HW230347   6.833   2.958   6.768
10101SOL     OW30348   6.888   2.733   5.895
10101SOL    HW130349   6.820   2.695   5.958
10101SOL    HW230350   6.860   2.712   5.800
10102SOL     OW30351   6.843   3.605   6.689
10102SOL    HW130352   6.930   3.616   6.641
10102SOL    HW230353   6.831   3.510   6.716
10103SOL     OW30354   5.668   3.125   6.599
10103SOL    HW130355   5.647   3.134   6.697
10103SOL    HW230356   5.601   3.064   6.557
10104SOL     OW30357   6.979   3.448   6.078
10104SOL    HW130358   0.064   3.490   6.046
10104SOL    HW230359   6.917   3.520   6.110
10105SOL     OW30360   6.871   2.780   6.246
10105SOL    HW130361   6.958   2.735   6.267
10105SOL    HW230362   6.888   2.861   6.191
10106SOL     OW30363   6.253   3.486   5.741
10106SOL    HW130364   6.270   3.504   5.644
10106SOL    HW230365   6.197   3.404   5.751
10107SOL     OW30366   5.840   2.176   6.301
10107SOL    HW130367   5.751   2.212   6.273
10107SOL    HW230368   5.843   2.169   6.400
10108SOL     OW30369   6.747   3.469   5.623
10108SOL    HW130370   6.771   3.372   5.624
10108SOL    HW230371   6.685   3.487   5.547
10109SOL     OW30372   6.365   2.887   6.953
10109SOL    HW130373   6.426   2.851   6.882
10109SOL    HW230374   6.407   2.967   6.996
10110SOL     OW30375   6.505   2.772   5.870
10110SOL    HW130376   6.569   2.809   5.804
10110SOL    HW230377   6.550   2.702   5.925
10111SOL     OW30378   6.644   2.968   6.298
10111SOL    HW130379   6.568   2.918   6.339
10111SOL    HW230380   6.711   2.904   6.260
10112SOL     OW30381   6.606   2.098   6.541
10112SOL    HW130382   6.600   2.053   6.452
10112SOL    HW230383   6.610   2.030   6.613
10113SOL     OW30384   6.191   3.348   6.065
10113SOL    HW130385   6.243   3.294   5.998
10113SOL    HW230386   6.114   3.392   6.019
10114SOL     OW30387   5.838   3.210   5.874
10114SOL    HW130388   5.742   3.202   5.847
10114SOL    HW230389   5.843   3.249   5.966
10115SOL     OW30390   6.265   2.045   0.087
10115SOL    HW130391   6.356   2.007   0.072
10115SOL    HW230392   6.272   2.127   0.143
10116SOL     OW30393   5.668   2.189   5.614
10116SOL    HW130394   5.576   2.165   5.583
10116SOL    HW230395   5.699   2.271   5.567
10117SOL     OW30396   5.648   2.017   5.887
10117SOL    HW130397   5.632   2.101   5.836
10117SOL    HW230398   5.736   1.978   5.860
10118SOL     OW30399   5.968   3.589   0.084
10118SOL    HW130400   5.890   3.642   0.118
10118SOL    HW230401   5.972   3.501   0.132
10119SOL     OW30402   6.808   2.175   6.023
10119SOL    HW130403   6.883   2.121   5.983
10119SOL    HW230404   6.843   2.229   6.099
10120SOL     OW30405   6.172   2.598   6.255
10120SOL    HW130406   6.214   2.688   6.244
10120SOL    HW230407   6.103   2.585   6.183
10121SOL     OW30408   6.427   3.229   5.619
10121SOL    HW130409   6.410   3.249   5.716
10121SOL    HW230410   6.459   3.312   5.573
10122SOL     OW30411   6.252   3.645   6.526
10122SOL    HW130412   6.229   3.740   6.506
10122SOL    HW230413   6.351   3.633   6.518
10123SOL     OW30414   6.455   2.832   6.442
10123SOL    HW130415   6.505   2.754   6.480
10123SOL    HW230416   6.414   2.884   6.517
10124SOL     OW30417   6.672   2.850   5.674
10124SOL    HW130418   6.638   2.905   5.597
10124SOL    HW230419   6.744   2.789   5.641
10125SOL     OW30420   5.674   3.090   6.249
10125SOL    HW130421   5.678   3.045   6.338
10125SOL    HW230422   5.744   3.050   6.189
10126SOL     OW30423   6.016   2.289   6.112
10126SOL    HW130424   6.050   2.219   6.050
10126SOL    HW230425   5.961   2.246   6.184
10127SOL     OW30426   5.902   2.414   6.878
10127SOL    HW130427   5.970   2.359   6.927
10127SOL    HW230428   5.912   2.401   6.780
10128SOL     OW30429   6.414   3.438   6.263
10128SOL    HW130430   6.394   3.504   6.190
10128SOL    HW230431   6.337   3.376   6.274
10129SOL     OW30432   6.988   2.091   6.706
10129SOL    HW130433   6.998   1.998   6.739
10129SOL    HW230434   6.930   2.143   6.768
10130SOL     OW30435   6.610   1.888   6.713
10130SOL    HW130436   6.538   1.821   6.697
10130SOL    HW230437   6.698   1.842   6.717
10131SOL     OW30438   6.361   3.194   5.906
10131SOL    HW130439   6.333   3.098   5.914
10131SOL    HW230440   6.445   3.209   5.958
10132SOL     OW30441   6.204   3.433   6.861
10132SOL    HW130442   6.202   3.529   6.891
10132SOL    HW230443   6.293   3.413   6.821
10133SOL     OW30444   6.909   1.945   5.728
10133SOL    HW130445   6.948   1.894   5.652
10133SOL    HW230446   6.831   1.894   5.766
10134SOL     OW30447   5.628   2.925   5.894
10134SOL    HW130448   5.727   2.925   5.875
10134SOL    HW230449   5.599   2.832   5.915
10135SOL     OW30450   6.467   3.530   5.926
10135SOL    HW130451   6.393   3.507   5.863
10135SOL    HW230452   6.438   3.605   5.985
10136SOL     OW30453   5.804   4.361   0.137
10136SOL    HW130454   5.709   4.344   0.161
10136SOL    HW230455   5.817   4.343   0.039
10137SOL     OW30456   5.808   4.007   0.995
10137SOL    HW130457   5.841   3.972   1.083
10137SOL    HW230458   5.715   3.974   0.978
10138SOL     OW30459   5.586   4.113   0.637
10138SOL    HW130460   5.505   4.147   0.685
10138SOL    HW230461   5.564   4.026   0.592
10139SOL     OW30462   6.155   5.023   1.188
10139SOL    HW130463   6.066   5.019   1.144
10139SOL    HW230464   6.173   5.116   1.220
10140SOL     OW30465   0.065   5.270   0.762
10140SOL    HW130466   0.101   5.177   0.774
10140SOL    HW230467   0.028   5.281   0.670
10141SOL     OW30468   6.693   4.445   0.689
10141SOL    HW130469   6.760   4.518   0.678
10141SOL    HW230470   6.656   4.447   0.782
10142SOL     OW30471   6.328   4.864   1.043
10142SOL    HW130472   6.261   4.899   1.108
10142SOL    HW230473   6.372   4.940   0.996
10143SOL     OW30474   6.462   4.488   1.824
10143SOL    HW130475   6.444   4.554   1.896
10143SOL    HW230476   6.484   4.536   1.739
10144SOL     OW30477   6.268   4.719   0.650
10144SOL    HW130478   6.340   4.711   0.719
10144SOL    HW230479   6.195   4.778   0.685
10145SOL     OW30480   6.293   4.873   1.815
10145SOL    HW130481   6.342   4.954   1.848
10145SOL    HW230482   6.207   4.902   1.772
10146SOL     OW30483   5.913   5.146   1.066
10146SOL    HW130484   5.836   5.101   1.020
10146SOL    HW230485   5.965   5.199   0.999
10147SOL     OW30486   6.037   4.116   1.477
10147SOL    HW130487   6.118   4.057   1.485
10147SOL    HW230488   5.955   4.062   1.497
10148SOL     OW30489   5.805   5.448   0.471
10148SOL    HW130490   5.823   5.527   0.530
10148SOL    HW230491   5.890   5.420   0.426
10149SOL     OW30492   6.720   5.070   1.705
10149SOL    HW130493   6.814   5.037   1.698
10149SOL    HW230494   6.658   4.992   1.708
10150SOL     OW30495   5.799   5.172   0.531
10150SOL    HW130496   5.788   5.271   0.541
10150SOL    HW230497   5.749   5.125   0.604
10151SOL     OW30498   5.855   4.814   0.900
10151SOL    HW130499   5.851   4.720   0.933
10151SOL    HW230500   5.793   4.871   0.954
10152SOL     OW30501   6.181   5.523   1.424
10152SOL    HW130502   6.100   5.498   1.475
10152SOL    HW230503   6.213   5.613   1.454
10153SOL     OW30504   6.173   4.691   0.146
10153SOL    HW130505   6.230   4.714   0.068
10153SOL    HW230506   6.209   4.737   0.228
10154SOL     OW30507   5.701   4.378   0.562
10154SOL    HW130508   5.671   4.285   0.582
10154SOL    HW230509   5.696   4.434   0.645
10155SOL     OW30510   5.597   5.309   0.145
10155SOL    HW130511   5.528   5.239   0.125
10155SOL    HW230512   5.576   5.352   0.233
10156SOL     OW30513   5.710   4.469   1.585
10156SOL    HW130514   5.806   4.496   1.586
10156SOL    HW230515   5.651   4.550   1.585
10157SOL     OW30516   6.198   5.113   0.737
10157SOL    HW130517   6.152   5.026   0.750
10157SOL    HW230518   6.189   5.142   0.641
10158SOL     OW30519   6.839   4.946   1.430
10158SOL    HW130520   6.875   4.875   1.369
10158SOL    HW230521   6.901   4.958   1.507
10159SOL     OW30522   6.405   3.739   0.520
10159SOL    HW130523   6.449   3.824   0.493
10159SOL    HW230524   6.306   3.753   0.525
10160SOL     OW30525   5.776   4.685   1.278
10160SOL    HW130526   5.865   4.642   1.264
10160SOL    HW230527   5.707   4.639   1.222
10161SOL     OW30528   6.782   5.539   1.616
10161SOL    HW130529   6.765   5.608   1.546
10161SOL    HW230530   6.779   5.448   1.575
10162SOL     OW30531   5.928   3.973   1.836
10162SOL    HW130532   5.976   4.060   1.852
10162SOL    HW230533   5.831   3.986   1.853
10163SOL     OW30534   6.185   4.440   0.269
10163SOL    HW130535   6.191   4.530   0.226
10163SOL    HW230536   6.119   4.444   0.344
10164SOL     OW30537   6.869   4.046   0.894
10164SOL    HW130538   6.771   4.035   0.909
10164SOL    HW230539   6.920   4.010   0.973
10165SOL     OW30540   6.383   4.336   1.450
10165SOL    HW130541   6.355   4.313   1.543
10165SOL    HW230542   6.345   4.270   1.386
10166SOL     OW30543   6.942   4.186   1.675
10166SOL    HW130544   6.917   4.271   1.722
10166SOL    HW230545   0.041   4.179   1.669
10167SOL     OW30546   6.543   4.609   1.584
10167SOL    HW130547   6.598   4.535   1.546
10167SOL    HW230548   6.490   4.652   1.511
10168SOL     OW30549   6.584   4.135   1.231
10168SOL    HW130550   6.492   4.152   1.265
10168SOL    HW230551   6.579   4.086   1.144
10169SOL     OW30552   6.637   4.426   0.425
10169SOL    HW130553   6.657   4.431   0.523
10169SOL    HW230554   6.549   4.380   0.411
10170SOL     OW30555   5.676   4.548   0.778
10170SOL    HW130556   5.761   4.537   0.829
10170SOL    HW230557   5.626   4.626   0.814
10171SOL     OW30558   5.714   5.598   1.589
10171SOL    HW130559   5.719   5.571   1.685
10171SOL    HW230560   5.631   5.562   1.548
10172SOL     OW30561   6.465   4.075   0.213
10172SOL    HW130562   6.472   4.143   0.141
10172SOL    HW230563   6.491   3.985   0.177
10173SOL     OW30564   6.927   4.860   0.526
10173SOL    HW130565   6.988   4.831   0.451
10173SOL    HW230566   6.877   4.942   0.498
10174SOL     OW30567   6.133   3.897   0.902
10174SOL    HW130568   6.137   3.927   0.997
10174SOL    HW230569   6.136   3.976   0.841
10175SOL     OW30570   6.570   5.164   0.474
10175SOL    HW130571   6.536   5.243   0.423
10175SOL    HW230572   6.546   5.174   0.570
10176SOL     OW30573   5.942   5.538   0.871
10176SOL    HW130574   5.986   5.449   0.877
10176SOL    HW230575   6.009   5.610   0.890
10177SOL     OW30576   6.796   5.283   1.503
10177SOL    HW130577   6.801   5.208   1.570
10177SOL    HW230578   6.750   5.251   1.420
10178SOL     OW30579   5.901   4.684   0.229
10178SOL    HW130580   5.994   4.698   0.195
10178SOL    HW230581   5.872   4.591   0.210
10179SOL     OW30582   6.053   4.987   1.730
10179SOL    HW130583   6.027   4.995   1.634
10179SOL    HW230584   5.971   4.987   1.787
10180SOL     OW30585   6.681   5.487   0.234
10180SOL    HW130586   6.615   5.434   0.287
10180SOL    HW230587   6.709   5.436   0.153
10181SOL     OW30588   5.788   3.998   1.503
10181SOL    HW130589   5.706   4.055   1.500
10181SOL    HW230590   5.766   3.910   1.545
10182SOL     OW30591   0.235   5.105   0.044
10182SOL    HW130592   0.164   5.154   0.095
10182SOL    HW230593   0.212   5.008   0.039
10183SOL     OW30594   6.067   5.423   0.377
10183SOL    HW130595   6.097   5.507   0.421
10183SOL    HW230596   6.128   5.402   0.301
10184SOL     OW30597   5.845   5.515   1.225
10184SOL    HW130598   5.896   5.442   1.271
10184SOL    HW230599   5.826   5.489   1.131
10185SOL     OW30600   6.525   5.425   0.896
10185SOL    HW130601   6.610   5.378   0.916
10185SOL    HW230602   6.476   5.376   0.823
10186SOL     OW30603   5.984   4.411   0.469
10186SOL    HW130604   6.003   4.314   0.487
10186SOL    HW230605   5.887   4.430   0.487
10187SOL     OW30606   6.349   4.000   1.759
10187SOL    HW130607   6.431   3.944   1.751
10187SOL    HW230608   6.294   3.969   1.837
10188SOL     OW30609   6.459   5.242   1.191
10188SOL    HW130610   6.439   5.206   1.100
10188SOL    HW230611   6.531   5.187   1.234
10189SOL     OW30612   6.401   5.113   0.943
10189SOL    HW130613   6.492   5.100   0.902
10189SOL    HW230614   6.332   5.119   0.871
10190SOL     OW30615   6.512   4.230   0.900
10190SOL    HW130616   6.486   4.224   0.804
10190SOL    HW230617   6.543   4.141   0.932
10191SOL     OW30618   6.135   3.795   0.502
10191SOL    HW130619   6.052   3.792   0.557
10191SOL    HW230620   6.130   3.873   0.439
10192SOL     OW30621   6.532   3.974   0.461
10192SOL    HW130622   6.496   4.014   0.377
10192SOL    HW230623   6.631   3.986   0.464
10193SOL     OW30624   6.654   4.391   1.460
10193SOL    HW130625   6.560   4.358   1.459
10193SOL    HW230626   6.716   4.313   1.463
10194SOL     OW30627   6.780   5.298   0.802
10194SOL    HW130628   6.796   5.363   0.727
10194SOL    HW230629   6.866   5.280   0.849
10195SOL     OW30630   6.057   4.877   0.731
10195SOL    HW130631   5.987   4.855   0.799
10195SOL    HW230632   6.019   4.869   0.639
10196SOL     OW30633   6.836   5.519   0.604
10196SOL    HW130634   6.862   5.580   0.530
10196SOL    HW230635   6.766   5.562   0.660
10197SOL     OW30636   6.686   4.316   0.026
10197SOL    HW130637   6.586   4.319   0.028
10197SOL    HW230638   6.720   4.294   0.117
10198SOL     OW30639   5.674   4.281   1.391
10198SOL    HW130640   5.768   4.277   1.359
10198SOL    HW230641   5.665   4.352   1.461
10199SOL     OW30642   6.145   3.949   1.174
10199SOL    HW130643   6.194   3.872   1.215
10199SOL    HW230644   6.049   3.947   1.203
10200SOL     OW30645   6.450   4.178   0.640
10200SOL    HW130646   6.410   4.245   0.578
10200SOL    HW230647   6.476   4.096   0.589
10201SOL     OW30648   6.606   3.770   0.739
10201SOL    HW130649   6.540   3.772   0.664
10201SOL    HW230650   6.581   3.698   0.803
10202SOL     OW30651   6.058   5.151   0.150
10202SOL    HW130652   5.999   5.100   0.213
10202SOL    HW230653   6.018   5.149   0.058
10203SOL     OW30654   6.099   3.989   0.311
10203SOL    HW130655   6.112   3.922   0.239
10203SOL    HW230656   6.076   4.077   0.271
10204SOL     OW30657   6.626   5.072   1.331
10204SOL    HW130658   6.543   5.045   1.380
10204SOL    HW230659   6.705   5.028   1.374
10205SOL     OW30660   6.729   4.952   1.100
10205SOL    HW130661   6.670   4.982   1.175
10205SOL    HW230662   6.688   4.978   1.013
10206SOL     OW30663   6.504   3.819   1.386
10206SOL    HW130664   6.526   3.795   1.291
10206SOL    HW230665   6.585   3.860   1.429
10207SOL     OW30666   6.566   4.837   1.728
10207SOL    HW130667   6.472   4.860   1.753
10207SOL    HW230668   6.566   4.757   1.668
10208SOL     OW30669   6.298   4.781   0.376
10208SOL    HW130670   6.280   4.765   0.473
10208SOL    HW230671   6.377   4.727   0.347
10209SOL     OW30672   6.009   4.540   1.254
10209SOL    HW130673   6.082   4.553   1.322
10209SOL    HW230674   5.970   4.448   1.265
10210SOL     OW30675   6.851   4.096   1.294
10210SOL    HW130676   6.908   4.176   1.314
10210SOL    HW230677   6.760   4.126   1.267
10211SOL     OW30678   5.661   5.296   1.354
10211SOL    HW130679   5.626   5.365   1.291
10211SOL    HW230680   5.761   5.293   1.347
10212SOL     OW30681   5.953   4.845   0.484
10212SOL    HW130682   5.931   4.922   0.424
10212SOL    HW230683   5.949   4.760   0.432
10213SOL     OW30684   6.133   4.267   0.862
10213SOL    HW130685   6.148   4.326   0.782
10213SOL    HW230686   6.203   4.287   0.931
10214SOL     OW30687   6.826   5.090   0.418
10214SOL    HW130688   6.877   5.169   0.451
10214SOL    HW230689   6.728   5.106   0.432
10215SOL     OW30690   6.852   5.203   1.140
10215SOL    HW130691   6.931   5.198   1.201
10215SOL    HW230692   6.811   5.112   1.131
10216SOL     OW30693   5.934   5.254   1.309
10216SOL    HW130694   5.918   5.209   1.221
10216SOL    HW230695   6.032   5.268   1.322
10217SOL     OW30696   6.001   4.471   1.600
10217SOL    HW130697   6.069   4.516   1.541
10217SOL    HW230698   6.032   4.378   1.622
10218SOL     OW30699   6.577   3.849   1.753
10218SOL    HW130700   6.629   3.932   1.735
10218SOL    HW230701   6.632   3.769   1.730
10219SOL     OW30702   6.078   3.761   1.750
10219SOL    HW130703   6.033   3.702   1.683
10219SOL    HW230704   6.020   3.841   1.769
10220SOL     OW30705   6.170   4.595   1.035
10220SOL    HW130706   6.205   4.689   1.030
10220SOL    HW230707   6.110   4.586   1.114
10221SOL     OW30708   6.950   4.572   1.030
10221SOL    HW130709   6.857   4.560   0.994
10221SOL    HW230710   6.987   4.484   1.057
10222SOL     OW30711   6.768   4.245   0.271
10222SOL    HW130712   6.784   4.165   0.329
10222SOL    HW230713   6.730   4.319   0.326
10223SOL     OW30714   5.883   3.920   1.246
10223SOL    HW130715   5.847   3.956   1.332
10223SOL    HW230716   5.868   3.821   1.243
10224SOL     OW30717   5.638   5.034   1.275
10224SOL    HW130718   5.669   4.972   1.347
10224SOL    HW230719   5.641   5.128   1.308
10225SOL     OW30720   6.310   4.356   1.055
10225SOL    HW130721   6.387   4.336   0.994
10225SOL    HW230722   6.275   4.447   1.036
10226SOL     OW30723   5.892   3.789   0.630
10226SOL    HW130724   5.867   3.884   0.650
10226SOL    HW230725   5.904   3.739   0.716
10227SOL     OW30726   0.183   4.146   0.377
10227SOL    HW130727   0.269   4.109   0.412
10227SOL    HW230728   0.160   4.230   0.426
10228SOL     OW30729   6.608   4.479   0.959
10228SOL    HW130730   6.602   4.499   1.056
10228SOL    HW230731   6.583   4.383   0.944
10229SOL     OW30732   6.554   5.290   1.706
10229SOL    HW130733   6.541   5.333   1.617
10229SOL    HW230734   6.607   5.206   1.695
10230SOL     OW30735   5.938   4.642   1.805
10230SOL    HW130736   6.018   4.664   1.861
10230SOL    HW230737   5.964   4.577   1.734
10231SOL     OW30738   6.887   4.567   0.032
10231SOL    HW130739   6.921   4.477   0.006
10231SOL    HW230740   6.904   4.632   6.957
10232SOL     OW30741   6.649   5.058   0.857
10232SOL    HW130742   6.654   4.982   0.792
10232SOL    HW230743   6.700   5.136   0.821
10233SOL     OW30744   5.897   4.530   0.943
10233SOL    HW130745   5.994   4.556   0.938
10233SOL    HW230746   5.890   4.435   0.975
10234SOL     OW30747   5.912   4.252   1.012
10234SOL    HW130748   5.874   4.160   1.001
10234SOL    HW230749   5.993   4.261   0.954
10235SOL     OW30750   6.695   4.086   1.689
10235SOL    HW130751   6.648   4.147   1.753
10235SOL    HW230752   6.791   4.114   1.681
10236SOL     OW30753   6.743   3.919   1.474
10236SOL    HW130754   6.722   3.978   1.553
10236SOL    HW230755   6.787   3.973   1.403
10237SOL     OW30756   5.680   5.507   0.944
10237SOL    HW130757   5.642   5.426   0.899
10237SOL    HW230758   5.773   5.523   0.912
10238SOL     OW30759   6.078   5.300   0.904
10238SOL    HW130760   6.149   5.366   0.931
10238SOL    HW230761   6.118   5.232   0.843
10239SOL     OW30762   6.562   4.515   1.224
10239SOL    HW130763   6.622   4.490   1.300
10239SOL    HW230764   6.472   4.473   1.239
10240SOL     OW30765   5.623   4.277   1.117
10240SOL    HW130766   5.705   4.265   1.061
10240SOL    HW230767   5.649   4.279   1.214
10241SOL     OW30768   5.778   4.247   1.731
10241SOL    HW130769   5.828   4.191   1.664
10241SOL    HW230770   5.740   4.327   1.685
10242SOL     OW30771   6.402   4.298   0.376
10242SOL    HW130772   6.410   4.216   0.319
10242SOL    HW230773   6.324   4.352   0.346
10243SOL     OW30774   5.824   5.270   1.725
10243SOL    HW130775   5.804   5.345   1.789
10243SOL    HW230776   5.832   5.184   1.776
10244SOL     OW30777   6.299   4.172   1.253
10244SOL    HW130778   6.240   4.094   1.232
10244SOL    HW230779   6.293   4.240   1.179
10245SOL     OW30780   6.498   5.411   1.467
10245SOL    HW130781   6.479   5.360   1.382
10245SOL    HW230782   6.494   5.509   1.448
10246SOL     OW30783   6.041   4.224   0.186
10246SOL    HW130784   6.105   4.296   0.213
10246SOL    HW230785   5.948   4.261   0.185
10247SOL     OW30786   5.726   4.862   1.476
10247SOL    HW130787   5.729   4.818   1.566
10247SOL    HW230788   5.747   4.794   1.405
10248SOL     OW30789   6.894   4.769   1.222
10248SOL    HW130790   6.919   4.696   1.158
10248SOL    HW230791   6.831   4.833   1.176
10249SOL     OW30792   6.890   4.584   0.310
10249SOL    HW130793   6.810   4.547   0.357
10249SOL    HW230794   6.879   4.572   0.211
10250SOL     OW30795   6.847   5.473   1.115
10250SOL    HW130796   6.926   5.490   1.056
10250SOL    HW230797   6.836   5.375   1.128
10251SOL     OW30798   5.672   4.990   1.009
10251SOL    HW130799   5.655   5.004   1.107
10251SOL    HW230800   5.601   4.930   0.972
10252SOL     OW30801   6.267   5.399   1.741
10252SOL    HW130802   6.206   5.477   1.730
10252SOL    HW230803   6.344   5.407   1.678
10253SOL     OW30804   6.531   3.826   0.117
10253SOL    HW130805   6.606   3.856   0.057
10253SOL    HW230806   6.565   3.758   0.181
10254SOL     OW30807   6.974   5.305   0.496
10254SOL    HW130808   0.060   5.340   0.458
10254SOL    HW230809   6.918   5.382   0.527
10255SOL     OW30810   5.732   5.511   1.846
10255SOL    HW130811   5.674   5.443   1.891
10255SOL    HW230812   5.781   5.564   1.915
10256SOL     OW30813   6.871   4.641   0.663
10256SOL    HW130814   6.958   4.594   0.680
10256SOL    HW230815   6.888   4.724   0.610
10257SOL     OW30816   6.380   5.001   1.424
10257SOL    HW130817   6.351   5.047   1.508
10257SOL    HW230818   6.311   5.014   1.353
10258SOL     OW30819   6.251   5.334   0.196
10258SOL    HW130820   6.308   5.356   0.116
10258SOL    HW230821   6.194   5.255   0.175
10259SOL     OW30822   5.841   4.041   0.716
10259SOL    HW130823   5.751   4.076   0.688
10259SOL    HW230824   5.844   4.032   0.816
10260SOL     OW30825   6.743   5.348   0.005
10260SOL    HW130826   6.827   5.316   0.048
10260SOL    HW230827   6.733   5.306   6.915
10261SOL     OW30828   6.412   4.733   1.380
10261SOL    HW130829   6.459   4.720   1.293
10261SOL    HW230830   6.403   4.831   1.399
10262SOL     OW30831   6.502   4.631   0.290
10262SOL    HW130832   6.555   4.661   0.210
10262SOL    HW230833   6.556   4.565   0.342
10263SOL     OW30834   5.950   5.027   1.486
10263SOL    HW130835   5.941   5.107   1.428
10263SOL    HW230836   5.870   4.968   1.475
10264SOL     OW30837   6.642   4.831   0.712
10264SOL    HW130838   6.568   4.780   0.755
10264SOL    HW230839   6.709   4.768   0.674
10265SOL     OW30840   6.606   3.963   0.965
10265SOL    HW130841   6.599   3.918   0.875
10265SOL    HW230842   6.605   3.893   1.037
10266SOL     OW30843   6.198   5.201   0.484
10266SOL    HW130844   6.239   5.150   0.408
10266SOL    HW230845   6.135   5.270   0.448
10267SOL     OW30846   5.865   5.042   0.309
10267SOL    HW130847   5.781   5.029   0.255
10267SOL    HW230848   5.844   5.096   0.390
10268SOL     OW30849   5.701   4.760   1.729
10268SOL    HW130850   5.619   4.732   1.780
10268SOL    HW230851   5.781   4.714   1.767
10269SOL     OW30852   6.268   3.920   1.500
10269SOL    HW130853   6.354   3.895   1.455
10269SOL    HW230854   6.287   3.953   1.593
10270SOL     OW30855   5.693   4.043   0.011
10270SOL    HW130856   5.630   3.990   6.955
10270SOL    HW230857   5.719   4.127   6.962
10271SOL     OW30858   5.634   3.897   0.327
10271SOL    HW130859   5.623   3.990   0.291
10271SOL    HW230860   5.705   3.850   0.275
10272SOL     OW30861   6.211   4.552   1.434
10272SOL    HW130862   6.268   4.634   1.420
10272SOL    HW230863   6.270   4.472   1.444
10273SOL     OW30864   6.312   4.280   1.701
10273SOL    HW130865   6.354   4.346   1.764
10273SOL    HW230866   6.326   4.187   1.735
10274SOL     OW30867   6.998   4.986   1.649
10274SOL    HW130868   6.998   4.922   1.727
10274SOL    HW230869   0.077   4.968   1.591
10275SOL     OW30870   5.956   5.463   1.568
10275SOL    HW130871   5.872   5.515   1.553
10275SOL    HW230872   5.934   5.374   1.609
10276SOL     OW30873   6.803   4.034   0.444
10276SOL    HW130874   6.876   3.978   0.405
10276SOL    HW230875   6.839   4.087   0.521
10277SOL     OW30876   6.172   4.458   0.667
10277SOL    HW130877   6.213   4.549   0.659
10277SOL    HW230878   6.103   4.447   0.596
10278SOL     OW30879   6.447   5.106   0.031
10278SOL    HW130880   6.411   5.072   0.118
10278SOL    HW230881   6.459   5.205   0.037
10279SOL     OW30882   6.251   5.508   0.942
10279SOL    HW130883   6.228   5.602   0.921
10279SOL    HW230884   6.350   5.495   0.932
10280SOL     OW30885   6.454   4.694   0.857
10280SOL    HW130886   6.506   4.616   0.893
10280SOL    HW230887   6.412   4.744   0.933
10281SOL     OW30888   6.658   4.704   0.080
10281SOL    HW130889   6.691   4.797   0.067
10281SOL    HW230890   6.733   4.639   0.067
10282SOL     OW30891   5.817   5.022   1.856
10282SOL    HW130892   5.752   4.954   1.822
10282SOL    HW230893   5.802   5.035   1.954
10283SOL     OW30894   5.669   4.957   0.665
10283SOL    HW130895   5.689   4.907   0.749
10283SOL    HW230896   5.714   4.913   0.588
10284SOL     OW30897   6.262   5.136   1.627
10284SOL    HW130898   6.185   5.084   1.665
10284SOL    HW230899   6.266   5.226   1.671
10285SOL     OW30900   6.017   4.153   0.528
10285SOL    HW130901   6.047   4.081   0.465
10285SOL    HW230902   5.962   4.112   0.601
10286SOL     OW30903   5.922   4.281   1.289
10286SOL    HW130904   5.978   4.222   1.348
10286SOL    HW230905   5.936   4.255   1.194
10287SOL     OW30906   6.411   5.304   0.681
10287SOL    HW130907   6.401   5.362   0.599
10287SOL    HW230908   6.335   5.240   0.686
10288SOL     OW30909   6.992   3.944   1.116
10288SOL    HW130910   0.010   3.853   1.153
10288SOL    HW230911   6.940   3.998   1.183
10289SOL     OW30912   6.599   3.738   1.136
10289SOL    HW130913   6.540   3.671   1.091
10289SOL    HW230914   6.692   3.702   1.141
10290SOL     OW30915   6.368   5.042   0.307
10290SOL    HW130916   6.335   4.950   0.328
10290SOL    HW230917   6.448   5.062   0.363
10291SOL     OW30918   6.209   5.284   1.289
10291SOL    HW130919   6.206   5.371   1.339
10291SOL    HW230920   6.300   5.271   1.249
10292SOL     OW30921   5.673   4.776   0.366
10292SOL    HW130922   5.760   4.753   0.322
10292SOL    HW230923   5.618   4.693   0.375
10293SOL     OW30924   6.462   5.384   0.363
10293SOL    HW130925   6.386   5.359   0.303
10293SOL    HW230926   6.440   5.467   0.413
10294SOL     OW30927   5.806   4.342   1.991
10294SOL    HW130928   5.715   4.342   2.031
10294SOL    HW230929   5.800   4.321   1.893
10295SOL     OW30930   5.809   4.008   2.854
10295SOL    HW130931   5.842   3.973   2.942
10295SOL    HW230932   5.717   3.974   2.837
10296SOL     OW30933   5.585   4.111   2.495
10296SOL    HW130934   5.502   4.141   2.542
10296SOL    HW230935   5.566   4.027   2.444
10297SOL     OW30936   6.155   5.023   3.050
10297SOL    HW130937   6.065   5.020   3.006
10297SOL    HW230938   6.173   5.116   3.082
10298SOL     OW30939   0.068   5.269   2.623
10298SOL    HW130940   0.104   5.175   2.631
10298SOL    HW230941   0.038   5.285   2.529
10299SOL     OW30942   6.691   4.445   2.549
10299SOL    HW130943   6.759   4.518   2.538
10299SOL    HW230944   6.656   4.446   2.642
10300SOL     OW30945   6.327   4.864   2.905
10300SOL    HW130946   6.260   4.899   2.970
10300SOL    HW230947   6.372   4.940   2.858
10301SOL     OW30948   6.463   4.488   3.686
10301SOL    HW130949   6.444   4.555   3.758
10301SOL    HW230950   6.484   4.535   3.601
10302SOL     OW30951   6.269   4.722   2.510
10302SOL    HW130952   6.341   4.712   2.580
10302SOL    HW230953   6.195   4.778   2.547
10303SOL     OW30954   6.293   4.873   3.677
10303SOL    HW130955   6.342   4.954   3.710
10303SOL    HW230956   6.207   4.902   3.634
10304SOL     OW30957   5.912   5.146   2.928
10304SOL    HW130958   5.836   5.101   2.882
10304SOL    HW230959   5.965   5.199   2.861
10305SOL     OW30960   6.044   4.133   3.338
10305SOL    HW130961   6.125   4.074   3.347
10305SOL    HW230962   5.962   4.079   3.357
10306SOL     OW30963   5.808   5.439   2.333
10306SOL    HW130964   5.826   5.517   2.393
10306SOL    HW230965   5.883   5.428   2.268
10307SOL     OW30966   6.720   5.070   3.567
10307SOL    HW130967   6.814   5.037   3.560
10307SOL    HW230968   6.658   4.991   3.571
10308SOL     OW30969   5.820   5.168   2.398
10308SOL    HW130970   5.803   5.266   2.397
10308SOL    HW230971   5.760   5.124   2.465
10309SOL     OW30972   5.857   4.814   2.763
10309SOL    HW130973   5.853   4.720   2.795
10309SOL    HW230974   5.794   4.871   2.816
10310SOL     OW30975   6.181   5.523   3.286
10310SOL    HW130976   6.099   5.498   3.337
10310SOL    HW230977   6.213   5.613   3.316
10311SOL     OW30978   6.167   4.711   2.004
10311SOL    HW130979   6.214   4.758   1.929
10311SOL    HW230980   6.208   4.739   2.091
10312SOL     OW30981   5.700   4.385   2.426
10312SOL    HW130982   5.670   4.291   2.443
10312SOL    HW230983   5.695   4.438   2.511
10313SOL     OW30984   5.615   5.314   1.984
10313SOL    HW130985   5.600   5.217   2.003
10313SOL    HW230986   5.595   5.367   2.066
10314SOL     OW30987   5.709   4.471   3.445
10314SOL    HW130988   5.805   4.498   3.446
10314SOL    HW230989   5.651   4.552   3.445
10315SOL     OW30990   6.198   5.116   2.595
10315SOL    HW130991   6.153   5.027   2.607
10315SOL    HW230992   6.186   5.146   2.500
10316SOL     OW30993   6.839   4.946   3.291
10316SOL    HW130994   6.876   4.875   3.231
10316SOL    HW230995   6.901   4.958   3.369
10317SOL     OW30996   6.402   3.736   2.374
10317SOL    HW130997   6.448   3.821   2.349
10317SOL    HW230998   6.304   3.751   2.380
10318SOL     OW30999   5.776   4.685   3.140
10318SOL    HW131000   5.865   4.642   3.126
10318SOL    HW231001   5.707   4.638   3.085
10319SOL     OW31002   6.780   5.539   3.479
10319SOL    HW131003   6.765   5.608   3.408
10319SOL    HW231004   6.779   5.448   3.437
10320SOL     OW31005   5.908   3.995   3.678
10320SOL    HW131006   5.956   4.078   3.704
10320SOL    HW231007   5.814   3.998   3.713
10321SOL     OW31008   6.180   4.443   2.135
10321SOL    HW131009   6.185   4.529   2.085
10321SOL    HW231010   6.111   4.450   2.207
10322SOL     OW31011   6.871   4.045   2.753
10322SOL    HW131012   6.773   4.036   2.769
10322SOL    HW231013   6.921   4.009   2.832
10323SOL     OW31014   6.384   4.336   3.313
10323SOL    HW131015   6.355   4.312   3.406
10323SOL    HW231016   6.344   4.271   3.248
10324SOL     OW31017   6.941   4.185   3.537
10324SOL    HW131018   6.915   4.271   3.581
10324SOL    HW231019   0.041   4.180   3.530
10325SOL     OW31020   6.543   4.609   3.446
10325SOL    HW131021   6.598   4.534   3.408
10325SOL    HW231022   6.489   4.651   3.373
10326SOL     OW31023   6.590   4.146   3.089
10326SOL    HW131024   6.500   4.154   3.132
10326SOL    HW231025   6.583   4.092   3.006
10327SOL     OW31026   6.633   4.426   2.285
10327SOL    HW131027   6.652   4.428   2.383
10327SOL    HW231028   6.548   4.377   2.268
10328SOL     OW31029   5.675   4.552   2.642
10328SOL    HW131030   5.760   4.539   2.692
10328SOL    HW231031   5.626   4.631   2.679
10329SOL     OW31032   5.714   5.598   3.451
10329SOL    HW131033   5.719   5.571   3.547
10329SOL    HW231034   5.630   5.562   3.410
10330SOL     OW31035   6.481   4.076   2.058
10330SOL    HW131036   6.523   4.143   1.997
10330SOL    HW231037   6.482   3.986   2.014
10331SOL     OW31038   6.928   4.858   2.377
10331SOL    HW131039   6.996   4.840   2.306
10331SOL    HW231040   6.876   4.940   2.354
10332SOL     OW31041   6.134   3.895   2.764
10332SOL    HW131042   6.138   3.926   2.858
10332SOL    HW231043   6.136   3.974   2.702
10333SOL     OW31044   6.570   5.173   2.333
10333SOL    HW131045   6.540   5.251   2.278
10333SOL    HW231046   6.544   5.188   2.428
10334SOL     OW31047   5.942   5.538   2.733
10334SOL    HW131048   5.986   5.449   2.740
10334SOL    HW231049   6.009   5.610   2.753
10335SOL     OW31050   6.796   5.283   3.365
10335SOL    HW131051   6.801   5.208   3.432
10335SOL    HW231052   6.750   5.251   3.282
10336SOL     OW31053   5.907   4.684   2.117
10336SOL    HW131054   5.995   4.704   2.074
10336SOL    HW231055   5.870   4.598   2.080
10337SOL     OW31056   6.053   4.987   3.592
10337SOL    HW131057   6.027   4.995   3.496
10337SOL    HW231058   5.971   4.987   3.649
10338SOL     OW31059   6.713   5.495   2.104
10338SOL    HW131060   6.630   5.467   2.153
10338SOL    HW231061   6.726   5.438   2.024
10339SOL     OW31062   5.795   4.030   3.369
10339SOL    HW131063   5.714   4.084   3.346
10339SOL    HW231064   5.774   3.969   3.445
10340SOL     OW31065   6.049   5.459   2.180
10340SOL    HW131066   6.091   5.521   2.246
10340SOL    HW231067   6.119   5.422   2.119
10341SOL     OW31068   5.845   5.515   3.087
10341SOL    HW131069   5.895   5.442   3.133
10341SOL    HW231070   5.826   5.489   2.993
10342SOL     OW31071   6.525   5.425   2.758
10342SOL    HW131072   6.610   5.379   2.780
10342SOL    HW231073   6.477   5.375   2.685
10343SOL     OW31074   5.982   4.412   2.336
10343SOL    HW131075   6.001   4.315   2.350
10343SOL    HW231076   5.885   4.429   2.353
10344SOL     OW31077   6.229   3.840   1.962
10344SOL    HW131078   6.293   3.767   1.986
10344SOL    HW231079   6.171   3.809   1.887
10345SOL     OW31080   6.352   4.003   3.624
10345SOL    HW131081   6.432   3.943   3.614
10345SOL    HW231082   6.298   3.974   3.704
10346SOL     OW31083   6.460   5.242   3.053
10346SOL    HW131084   6.440   5.206   2.962
10346SOL    HW231085   6.531   5.187   3.096
10347SOL     OW31086   6.402   5.113   2.805
10347SOL    HW131087   6.492   5.100   2.764
10347SOL    HW231088   6.333   5.119   2.732
10348SOL     OW31089   6.512   4.231   2.760
10348SOL    HW131090   6.487   4.224   2.663
10348SOL    HW231091   6.543   4.142   2.794
10349SOL     OW31092   6.133   3.789   2.355
10349SOL    HW131093   6.051   3.786   2.412
10349SOL    HW231094   6.130   3.869   2.295
10350SOL     OW31095   6.988   4.847   1.881
10350SOL    HW131096   0.024   4.798   1.961
10350SOL    HW231097   6.920   4.913   1.911
10351SOL     OW31098   5.876   3.773   2.048
10351SOL    HW131099   5.928   3.844   2.000
10351SOL    HW231100   5.939   3.708   2.091
10352SOL     OW31101   6.531   3.974   2.314
10352SOL    HW131102   6.497   4.015   2.230
10352SOL    HW231103   6.630   3.986   2.320
10353SOL     OW31104   6.653   4.391   3.322
10353SOL    HW131105   6.558   4.359   3.322
10353SOL    HW231106   6.715   4.312   3.319
10354SOL     OW31107   6.781   5.298   2.663
10354SOL    HW131108   6.797   5.364   2.590
10354SOL    HW231109   6.867   5.279   2.710
10355SOL     OW31110   6.055   4.877   2.589
10355SOL    HW131111   5.989   4.855   2.661
10355SOL    HW231112   6.012   4.864   2.500
10356SOL     OW31113   6.836   5.516   2.470
10356SOL    HW131114   6.873   5.578   2.400
10356SOL    HW231115   6.766   5.564   2.522
10357SOL     OW31116   6.609   4.260   1.888
10357SOL    HW131117   6.563   4.347   1.870
10357SOL    HW231118   6.673   4.272   1.964
10358SOL     OW31119   5.674   4.280   3.254
10358SOL    HW131120   5.768   4.277   3.220
10358SOL    HW231121   5.665   4.352   3.322
10359SOL     OW31122   6.146   3.954   3.033
10359SOL    HW131123   6.201   3.890   3.087
10359SOL    HW231124   6.051   3.948   3.062
10360SOL     OW31125   6.450   4.177   2.499
10360SOL    HW131126   6.405   4.244   2.440
10360SOL    HW231127   6.476   4.097   2.445
10361SOL     OW31128   6.608   3.772   2.601
10361SOL    HW131129   6.542   3.775   2.526
10361SOL    HW231130   6.581   3.700   2.665
10362SOL     OW31131   6.072   5.146   2.019
10362SOL    HW131132   5.991   5.118   2.070
10362SOL    HW231133   6.076   5.097   1.932
10363SOL     OW31134   6.116   3.988   2.170
10363SOL    HW131135   6.163   3.936   2.099
10363SOL    HW231136   6.086   4.076   2.132
10364SOL     OW31137   6.626   5.072   3.193
10364SOL    HW131138   6.543   5.045   3.241
10364SOL    HW231139   6.706   5.028   3.235
10365SOL     OW31140   6.729   4.952   2.962
10365SOL    HW131141   6.670   4.982   3.037
10365SOL    HW231142   6.688   4.978   2.875
10366SOL     OW31143   6.495   3.888   3.223
10366SOL    HW131144   6.519   3.834   3.142
10366SOL    HW231145   6.577   3.901   3.280
10367SOL     OW31146   6.566   4.837   3.590
10367SOL    HW131147   6.471   4.859   3.615
10367SOL    HW231148   6.566   4.757   3.530
10368SOL     OW31149   6.299   4.783   2.235
10368SOL    HW131150   6.282   4.765   2.332
10368SOL    HW231151   6.377   4.729   2.205
10369SOL     OW31152   6.009   4.540   3.116
10369SOL    HW131153   6.082   4.552   3.184
10369SOL    HW231154   5.970   4.449   3.126
10370SOL     OW31155   6.851   4.096   3.158
10370SOL    HW131156   6.910   4.175   3.177
10370SOL    HW231157   6.761   4.127   3.129
10371SOL     OW31158   5.661   5.296   3.216
10371SOL    HW131159   5.626   5.366   3.153
10371SOL    HW231160   5.761   5.294   3.210
10372SOL     OW31161   5.926   4.844   2.349
10372SOL    HW131162   5.931   4.926   2.292
10372SOL    HW231163   5.924   4.763   2.290
10373SOL     OW31164   6.134   4.267   2.724
10373SOL    HW131165   6.147   4.326   2.644
10373SOL    HW231166   6.203   4.287   2.793
10374SOL     OW31167   6.824   5.096   2.282
10374SOL    HW131168   6.878   5.173   2.315
10374SOL    HW231169   6.727   5.113   2.298
10375SOL     OW31170   6.852   5.203   3.003
10375SOL    HW131171   6.931   5.199   3.063
10375SOL    HW231172   6.812   5.112   2.993
10376SOL     OW31173   5.934   5.254   3.171
10376SOL    HW131174   5.918   5.209   3.083
10376SOL    HW231175   6.032   5.268   3.184
10377SOL     OW31176   6.001   4.470   3.461
10377SOL    HW131177   6.069   4.515   3.403
10377SOL    HW231178   6.031   4.376   3.479
10378SOL     OW31179   6.576   3.846   3.615
10378SOL    HW131180   6.626   3.931   3.599
10378SOL    HW231181   6.630   3.769   3.583
10379SOL     OW31182   6.083   3.797   3.672
10379SOL    HW131183   6.077   3.736   3.593
10379SOL    HW231184   6.014   3.869   3.664
10380SOL     OW31185   6.169   4.597   2.896
10380SOL    HW131186   6.206   4.690   2.894
10380SOL    HW231187   6.110   4.586   2.975
10381SOL     OW31188   6.949   4.572   2.890
10381SOL    HW131189   6.856   4.559   2.857
10381SOL    HW231190   6.987   4.483   2.918
10382SOL     OW31191   6.765   4.259   2.113
10382SOL    HW131192   6.783   4.174   2.163
10382SOL    HW231193   6.727   4.327   2.176
10383SOL     OW31194   5.885   3.919   3.103
10383SOL    HW131195   5.845   3.950   3.189
10383SOL    HW231196   5.864   3.822   3.090
10384SOL     OW31197   5.639   5.034   3.136
10384SOL    HW131198   5.670   4.972   3.209
10384SOL    HW231199   5.641   5.128   3.170
10385SOL     OW31200   6.311   4.357   2.914
10385SOL    HW131201   6.387   4.337   2.853
10385SOL    HW231202   6.275   4.449   2.894
10386SOL     OW31203   5.893   3.787   2.487
10386SOL    HW131204   5.867   3.882   2.506
10386SOL    HW231205   5.908   3.738   2.573
10387SOL     OW31206   0.208   4.178   2.196
10387SOL    HW131207   0.168   4.087   2.198
10387SOL    HW231208   0.190   4.224   2.283
10388SOL     OW31209   6.609   4.480   2.821
10388SOL    HW131210   6.602   4.500   2.919
10388SOL    HW231211   6.584   4.384   2.806
10389SOL     OW31212   6.554   5.289   3.568
10389SOL    HW131213   6.541   5.333   3.479
10389SOL    HW231214   6.607   5.206   3.557
10390SOL     OW31215   5.938   4.641   3.667
10390SOL    HW131216   6.018   4.664   3.722
10390SOL    HW231217   5.964   4.576   3.596
10391SOL     OW31218   6.888   4.540   1.892
10391SOL    HW131219   6.951   4.473   1.931
10391SOL    HW231220   6.925   4.574   1.805
10392SOL     OW31221   6.649   5.058   2.718
10392SOL    HW131222   6.655   4.982   2.653
10392SOL    HW231223   6.701   5.136   2.683
10393SOL     OW31224   5.897   4.530   2.805
10393SOL    HW131225   5.994   4.556   2.800
10393SOL    HW231226   5.889   4.436   2.836
10394SOL     OW31227   5.912   4.253   2.872
10394SOL    HW131228   5.874   4.161   2.862
10394SOL    HW231229   5.994   4.261   2.815
10395SOL     OW31230   6.695   4.083   3.553
10395SOL    HW131231   6.647   4.145   3.615
10395SOL    HW231232   6.790   4.113   3.544
10396SOL     OW31233   6.749   3.915   3.340
10396SOL    HW131234   6.726   3.974   3.418
10396SOL    HW231235   6.792   3.970   3.268
10397SOL     OW31236   5.586   5.038   2.057
10397SOL    HW131237   5.496   5.058   2.017
10397SOL    HW231238   5.587   4.945   2.092
10398SOL     OW31239   5.680   5.506   2.806
10398SOL    HW131240   5.643   5.426   2.760
10398SOL    HW231241   5.773   5.523   2.774
10399SOL     OW31242   6.079   5.300   2.766
10399SOL    HW131243   6.149   5.366   2.793
10399SOL    HW231244   6.119   5.232   2.704
10400SOL     OW31245   6.561   4.516   3.087
10400SOL    HW131246   6.622   4.491   3.162
10400SOL    HW231247   6.473   4.470   3.098
10401SOL     OW31248   5.623   4.279   2.980
10401SOL    HW131249   5.704   4.264   2.923
10401SOL    HW231250   5.650   4.279   3.076
10402SOL     OW31251   5.773   4.252   3.594
10402SOL    HW131252   5.823   4.194   3.530
10402SOL    HW231253   5.737   4.332   3.546
10403SOL     OW31254   6.403   4.296   2.222
10403SOL    HW131255   6.411   4.217   2.162
10403SOL    HW231256   6.324   4.351   2.193
10404SOL     OW31257   5.824   5.270   3.587
10404SOL    HW131258   5.804   5.345   3.651
10404SOL    HW231259   5.832   5.184   3.638
10405SOL     OW31260   6.298   4.178   3.114
10405SOL    HW131261   6.238   4.101   3.093
10405SOL    HW231262   6.294   4.244   3.039
10406SOL     OW31263   6.497   5.411   3.329
10406SOL    HW131264   6.480   5.360   3.244
10406SOL    HW231265   6.494   5.509   3.311
10407SOL     OW31266   6.044   4.219   2.046
10407SOL    HW131267   6.109   4.291   2.072
10407SOL    HW231268   5.953   4.258   2.034
10408SOL     OW31269   5.726   4.862   3.337
10408SOL    HW131270   5.729   4.818   3.427
10408SOL    HW231271   5.747   4.794   3.267
10409SOL     OW31272   6.894   4.769   3.083
10409SOL    HW131273   6.919   4.696   3.019
10409SOL    HW231274   6.831   4.833   3.038
10410SOL     OW31275   6.888   4.595   2.170
10410SOL    HW131276   6.821   4.558   2.235
10410SOL    HW231277   6.859   4.574   2.077
10411SOL     OW31278   6.847   5.473   2.976
10411SOL    HW131279   6.926   5.490   2.918
10411SOL    HW231280   6.836   5.375   2.990
10412SOL     OW31281   5.672   4.989   2.872
10412SOL    HW131282   5.657   5.004   2.969
10412SOL    HW231283   5.600   4.930   2.835
10413SOL     OW31284   6.267   5.399   3.603
10413SOL    HW131285   6.206   5.477   3.592
10413SOL    HW231286   6.344   5.407   3.540
10414SOL     OW31287   6.979   5.310   2.354
10414SOL    HW131288   0.064   5.351   2.322
10414SOL    HW231289   6.917   5.382   2.386
10415SOL     OW31290   5.732   5.511   3.708
10415SOL    HW131291   5.674   5.443   3.753
10415SOL    HW231292   5.781   5.564   3.777
10416SOL     OW31293   6.870   4.642   2.520
10416SOL    HW131294   6.956   4.599   2.546
10416SOL    HW231295   6.889   4.723   2.465
10417SOL     OW31296   6.380   5.001   3.286
10417SOL    HW131297   6.351   5.047   3.370
10417SOL    HW231298   6.311   5.014   3.215
10418SOL     OW31299   6.253   5.348   2.017
10418SOL    HW131300   6.270   5.366   1.920
10418SOL    HW231301   6.197   5.266   2.027
10419SOL     OW31302   5.840   4.038   2.576
10419SOL    HW131303   5.751   4.075   2.548
10419SOL    HW231304   5.844   4.031   2.675
10420SOL     OW31305   6.747   5.331   1.899
10420SOL    HW131306   6.772   5.234   1.899
10420SOL    HW231307   6.684   5.349   1.823
10421SOL     OW31308   6.411   4.732   3.243
10421SOL    HW131309   6.460   4.718   3.156
10421SOL    HW231310   6.404   4.831   3.261
10422SOL     OW31311   6.504   4.634   2.146
10422SOL    HW131312   6.569   4.671   2.079
10422SOL    HW231313   6.550   4.564   2.201
10423SOL     OW31314   5.950   5.027   3.348
10423SOL    HW131315   5.941   5.107   3.290
10423SOL    HW231316   5.870   4.968   3.337
10424SOL     OW31317   6.644   4.830   2.574
10424SOL    HW131318   6.569   4.780   2.616
10424SOL    HW231319   6.712   4.766   2.538
10425SOL     OW31320   6.607   3.963   2.827
10425SOL    HW131321   6.601   3.918   2.738
10425SOL    HW231322   6.605   3.894   2.899
10426SOL     OW31323   6.192   5.210   2.341
10426SOL    HW131324   6.244   5.156   2.275
10426SOL    HW231325   6.115   5.255   2.294
10427SOL     OW31326   5.838   5.071   2.150
10427SOL    HW131327   5.742   5.064   2.123
10427SOL    HW231328   5.844   5.110   2.242
10428SOL     OW31329   5.701   4.761   3.592
10428SOL    HW131330   5.619   4.732   3.642
10428SOL    HW231331   5.781   4.714   3.629
10429SOL     OW31332   6.264   3.969   3.361
10429SOL    HW131333   6.344   3.941   3.308
10429SOL    HW231334   6.291   3.983   3.457
10430SOL     OW31335   5.668   4.051   1.890
10430SOL    HW131336   5.576   4.027   1.859
10430SOL    HW231337   5.699   4.133   1.843
10431SOL     OW31338   5.648   3.879   2.163
10431SOL    HW131339   5.631   3.963   2.112
10431SOL    HW231340   5.736   3.840   2.136
10432SOL     OW31341   6.211   4.552   3.296
10432SOL    HW131342   6.268   4.633   3.282
10432SOL    HW231343   6.269   4.471   3.306
10433SOL     OW31344   6.312   4.281   3.565
10433SOL    HW131345   6.354   4.347   3.627
10433SOL    HW231346   6.327   4.188   3.598
10434SOL     OW31347   6.998   4.986   3.511
10434SOL    HW131348   6.998   4.922   3.588
10434SOL    HW231349   0.077   4.968   3.453
10435SOL     OW31350   5.956   5.463   3.430
10435SOL    HW131351   5.872   5.515   3.415
10435SOL    HW231352   5.934   5.374   3.471
10436SOL     OW31353   6.809   4.036   2.299
10436SOL    HW131354   6.883   3.984   2.259
10436SOL    HW231355   6.843   4.090   2.376
10437SOL     OW31356   6.172   4.460   2.531
10437SOL    HW131357   6.214   4.550   2.520
10437SOL    HW231358   6.103   4.447   2.460
10438SOL     OW31359   6.427   5.091   1.895
10438SOL    HW131360   6.410   5.112   1.992
10438SOL    HW231361   6.459   5.174   1.849
10439SOL     OW31362   6.251   5.507   2.802
10439SOL    HW131363   6.228   5.603   2.783
10439SOL    HW231364   6.350   5.495   2.795
10440SOL     OW31365   6.454   4.695   2.718
10440SOL    HW131366   6.506   4.617   2.754
10440SOL    HW231367   6.412   4.744   2.795
10441SOL     OW31368   6.672   4.712   1.949
10441SOL    HW131369   6.638   4.767   1.873
10441SOL    HW231370   6.744   4.651   1.917
10442SOL     OW31371   5.817   5.022   3.718
10442SOL    HW131372   5.752   4.954   3.683
10442SOL    HW231373   5.802   5.035   3.816
10443SOL     OW31374   5.674   4.953   2.525
10443SOL    HW131375   5.678   4.908   2.614
10443SOL    HW231376   5.742   4.913   2.464
10444SOL     OW31377   6.262   5.136   3.489
10444SOL    HW131378   6.185   5.084   3.527
10444SOL    HW231379   6.266   5.226   3.533
10445SOL     OW31380   6.016   4.152   2.388
10445SOL    HW131381   6.050   4.081   2.326
10445SOL    HW231382   5.961   4.109   2.460
10446SOL     OW31383   5.920   4.283   3.149
10446SOL    HW131384   5.979   4.229   3.209
10446SOL    HW231385   5.936   4.256   3.054
10447SOL     OW31386   6.412   5.304   2.541
10447SOL    HW131387   6.394   5.367   2.465
10447SOL    HW231388   6.336   5.240   2.550
10448SOL     OW31389   6.991   3.945   2.978
10448SOL    HW131390   0.012   3.854   3.016
10448SOL    HW231391   6.939   3.998   3.045
10449SOL     OW31392   6.600   3.742   3.002
10449SOL    HW131393   6.539   3.672   2.965
10449SOL    HW231394   6.693   3.705   3.008
10450SOL     OW31395   6.361   5.055   2.183
10450SOL    HW131396   6.333   4.960   2.191
10450SOL    HW231397   6.445   5.070   2.234
10451SOL     OW31398   6.209   5.284   3.151
10451SOL    HW131399   6.206   5.371   3.201
10451SOL    HW231400   6.300   5.271   3.111
10452SOL     OW31401   6.909   3.806   2.004
10452SOL    HW131402   6.948   3.756   1.927
10452SOL    HW231403   6.831   3.756   2.042
10453SOL     OW31404   5.629   4.787   2.170
10453SOL    HW131405   5.727   4.787   2.151
10453SOL    HW231406   5.599   4.694   2.191
10454SOL     OW31407   6.466   5.391   2.203
10454SOL    HW131408   6.393   5.369   2.139
10454SOL    HW231409   6.438   5.467   2.262
10455SOL     OW31410   5.806   4.343   3.853
10455SOL    HW131411   5.715   4.342   3.894
10455SOL    HW231412   5.799   4.323   3.755
10456SOL     OW31413   5.808   4.007   4.719
10456SOL    HW131414   5.841   3.972   4.807
10456SOL    HW231415   5.715   3.974   4.702
10457SOL     OW31416   5.586   4.111   4.358
10457SOL    HW131417   5.502   4.140   4.404
10457SOL    HW231418   5.568   4.028   4.305
10458SOL     OW31419   6.155   5.023   4.912
10458SOL    HW131420   6.065   5.020   4.868
10458SOL    HW231421   6.173   5.116   4.944
10459SOL     OW31422   0.068   5.268   4.485
10459SOL    HW131423   0.103   5.175   4.492
10459SOL    HW231424   0.038   5.286   4.391
10460SOL     OW31425   6.691   4.445   4.411
10460SOL    HW131426   6.759   4.518   4.400
10460SOL    HW231427   6.656   4.447   4.505
10461SOL     OW31428   6.328   4.864   4.767
10461SOL    HW131429   6.260   4.899   4.832
10461SOL    HW231430   6.373   4.940   4.720
10462SOL     OW31431   6.462   4.488   5.548
10462SOL    HW131432   6.443   4.554   5.620
10462SOL    HW231433   6.484   4.536   5.463
10463SOL     OW31434   6.269   4.722   4.372
10463SOL    HW131435   6.341   4.712   4.442
10463SOL    HW231436   6.195   4.778   4.409
10464SOL     OW31437   6.293   4.873   5.539
10464SOL    HW131438   6.342   4.954   5.572
10464SOL    HW231439   6.207   4.902   5.496
10465SOL     OW31440   5.913   5.145   4.790
10465SOL    HW131441   5.836   5.101   4.744
10465SOL    HW231442   5.965   5.199   4.723
10466SOL     OW31443   6.037   4.116   5.201
10466SOL    HW131444   6.118   4.057   5.209
10466SOL    HW231445   5.955   4.062   5.221
10467SOL     OW31446   5.808   5.438   4.195
10467SOL    HW131447   5.826   5.517   4.255
10467SOL    HW231448   5.883   5.428   4.129
10468SOL     OW31449   6.720   5.070   5.429
10468SOL    HW131450   6.814   5.037   5.423
10468SOL    HW231451   6.658   4.991   5.432
10469SOL     OW31452   5.820   5.168   4.260
10469SOL    HW131453   5.803   5.266   4.259
10469SOL    HW231454   5.760   5.124   4.327
10470SOL     OW31455   5.857   4.814   4.625
10470SOL    HW131456   5.852   4.720   4.658
10470SOL    HW231457   5.794   4.871   4.678
10471SOL     OW31458   6.181   5.523   5.148
10471SOL    HW131459   6.099   5.497   5.199
10471SOL    HW231460   6.213   5.613   5.178
10472SOL     OW31461   6.167   4.711   3.866
10472SOL    HW131462   6.214   4.758   3.791
10472SOL    HW231463   6.208   4.739   3.953
10473SOL     OW31464   5.700   4.385   4.288
10473SOL    HW131465   5.671   4.291   4.305
10473SOL    HW231466   5.695   4.438   4.373
10474SOL     OW31467   5.615   5.314   3.846
10474SOL    HW131468   5.600   5.217   3.865
10474SOL    HW231469   5.595   5.367   3.928
10475SOL     OW31470   5.710   4.469   5.309
10475SOL    HW131471   5.806   4.496   5.310
10475SOL    HW231472   5.652   4.550   5.310
10476SOL     OW31473   6.198   5.116   4.457
10476SOL    HW131474   6.153   5.027   4.469
10476SOL    HW231475   6.186   5.146   4.362
10477SOL     OW31476   6.839   4.946   5.154
10477SOL    HW131477   6.876   4.875   5.093
10477SOL    HW231478   6.901   4.959   5.231
10478SOL     OW31479   6.402   3.737   4.237
10478SOL    HW131480   6.448   3.822   4.211
10478SOL    HW231481   6.304   3.752   4.243
10479SOL     OW31482   5.776   4.685   5.002
10479SOL    HW131483   5.865   4.642   4.988
10479SOL    HW231484   5.707   4.638   4.947
10480SOL     OW31485   6.781   5.539   5.341
10480SOL    HW131486   6.765   5.608   5.270
10480SOL    HW231487   6.779   5.448   5.299
10481SOL     OW31488   5.928   3.974   5.559
10481SOL    HW131489   5.976   4.060   5.576
10481SOL    HW231490   5.831   3.986   5.577
10482SOL     OW31491   6.180   4.442   3.997
10482SOL    HW131492   6.185   4.528   3.946
10482SOL    HW231493   6.111   4.450   4.069
10483SOL     OW31494   6.871   4.044   4.615
10483SOL    HW131495   6.773   4.035   4.631
10483SOL    HW231496   6.921   4.009   4.695
10484SOL     OW31497   6.383   4.336   5.174
10484SOL    HW131498   6.355   4.312   5.267
10484SOL    HW231499   6.345   4.270   5.110
10485SOL     OW31500   6.942   4.186   5.399
10485SOL    HW131501   6.918   4.271   5.445
10485SOL    HW231502   0.041   4.179   5.392
10486SOL     OW31503   6.543   4.609   5.308
10486SOL    HW131504   6.598   4.534   5.270
10486SOL    HW231505   6.490   4.652   5.235
10487SOL     OW31506   6.584   4.135   4.955
10487SOL    HW131507   6.492   4.152   4.988
10487SOL    HW231508   6.580   4.086   4.867
10488SOL     OW31509   6.634   4.426   4.147
10488SOL    HW131510   6.652   4.428   4.245
10488SOL    HW231511   6.548   4.377   4.130
10489SOL     OW31512   5.675   4.552   4.504
10489SOL    HW131513   5.760   4.540   4.555
10489SOL    HW231514   5.625   4.631   4.541
10490SOL     OW31515   5.714   5.598   5.313
10490SOL    HW131516   5.719   5.571   5.409
10490SOL    HW231517   5.630   5.562   5.272
10491SOL     OW31518   6.480   4.080   3.923
10491SOL    HW131519   6.525   4.142   3.859
10491SOL    HW231520   6.463   3.993   3.878
10492SOL     OW31521   6.928   4.858   4.239
10492SOL    HW131522   6.996   4.839   4.168
10492SOL    HW231523   6.876   4.940   4.216
10493SOL     OW31524   6.134   3.897   4.626
10493SOL    HW131525   6.138   3.927   4.721
10493SOL    HW231526   6.136   3.976   4.565
10494SOL     OW31527   6.570   5.174   4.195
10494SOL    HW131528   6.540   5.251   4.140
10494SOL    HW231529   6.544   5.188   4.290
10495SOL     OW31530   5.942   5.538   4.595
10495SOL    HW131531   5.986   5.449   4.602
10495SOL    HW231532   6.009   5.610   4.614
10496SOL     OW31533   6.796   5.283   5.227
10496SOL    HW131534   6.801   5.208   5.294
10496SOL    HW231535   6.750   5.251   5.144
10497SOL     OW31536   5.907   4.683   3.979
10497SOL    HW131537   5.995   4.704   3.936
10497SOL    HW231538   5.870   4.598   3.941
10498SOL     OW31539   6.053   4.987   5.454
10498SOL    HW131540   6.027   4.994   5.357
10498SOL    HW231541   5.971   4.987   5.511
10499SOL     OW31542   6.713   5.495   3.966
10499SOL    HW131543   6.630   5.467   4.015
10499SOL    HW231544   6.726   5.437   3.886
10500SOL     OW31545   5.788   3.998   5.227
10500SOL    HW131546   5.706   4.055   5.224
10500SOL    HW231547   5.766   3.910   5.270
10501SOL     OW31548   6.049   5.459   4.042
10501SOL    HW131549   6.091   5.521   4.108
10501SOL    HW231550   6.119   5.422   3.981
10502SOL     OW31551   5.844   5.515   4.949
10502SOL    HW131552   5.895   5.443   4.995
10502SOL    HW231553   5.826   5.489   4.855
10503SOL     OW31554   6.525   5.425   4.620
10503SOL    HW131555   6.611   5.379   4.641
10503SOL    HW231556   6.477   5.375   4.547
10504SOL     OW31557   5.982   4.412   4.198
10504SOL    HW131558   6.001   4.315   4.213
10504SOL    HW231559   5.885   4.430   4.215
10505SOL     OW31560   6.264   3.850   3.854
10505SOL    HW131561   6.324   3.771   3.867
10505SOL    HW231562   6.193   3.827   3.788
10506SOL     OW31563   6.349   4.000   5.483
10506SOL    HW131564   6.431   3.944   5.475
10506SOL    HW231565   6.294   3.969   5.561
10507SOL     OW31566   6.460   5.242   4.915
10507SOL    HW131567   6.440   5.206   4.824
10507SOL    HW231568   6.531   5.187   4.958
10508SOL     OW31569   6.402   5.113   4.667
10508SOL    HW131570   6.492   5.100   4.626
10508SOL    HW231571   6.333   5.119   4.594
10509SOL     OW31572   6.511   4.230   4.623
10509SOL    HW131573   6.486   4.224   4.526
10509SOL    HW231574   6.543   4.141   4.655
10510SOL     OW31575   6.132   3.789   4.220
10510SOL    HW131576   6.051   3.786   4.277
10510SOL    HW231577   6.129   3.870   4.161
10511SOL     OW31578   6.989   4.847   3.743
10511SOL    HW131579   0.025   4.798   3.823
10511SOL    HW231580   6.920   4.913   3.773
10512SOL     OW31581   5.882   3.776   3.926
10512SOL    HW131582   5.937   3.839   3.871
10512SOL    HW231583   5.941   3.706   3.965
10513SOL     OW31584   6.532   3.974   4.177
10513SOL    HW131585   6.498   4.016   4.092
10513SOL    HW231586   6.631   3.986   4.182
10514SOL     OW31587   6.654   4.391   5.184
10514SOL    HW131588   6.560   4.358   5.183
10514SOL    HW231589   6.717   4.313   5.187
10515SOL     OW31590   6.781   5.298   4.525
10515SOL    HW131591   6.797   5.364   4.452
10515SOL    HW231592   6.867   5.279   4.572
10516SOL     OW31593   6.055   4.876   4.451
10516SOL    HW131594   5.989   4.855   4.523
10516SOL    HW231595   6.012   4.864   4.362
10517SOL     OW31596   6.836   5.516   4.332
10517SOL    HW131597   6.873   5.578   4.262
10517SOL    HW231598   6.766   5.564   4.384
10518SOL     OW31599   6.609   4.260   3.750
10518SOL    HW131600   6.563   4.347   3.731
10518SOL    HW231601   6.674   4.273   3.826
10519SOL     OW31602   5.673   4.281   5.114
10519SOL    HW131603   5.768   4.277   5.083
10519SOL    HW231604   5.665   4.352   5.185
10520SOL     OW31605   6.145   3.949   4.898
10520SOL    HW131606   6.194   3.872   4.941
10520SOL    HW231607   6.049   3.947   4.927
10521SOL     OW31608   6.449   4.178   4.361
10521SOL    HW131609   6.405   4.245   4.302
10521SOL    HW231610   6.476   4.098   4.308
10522SOL     OW31611   6.607   3.772   4.464
10522SOL    HW131612   6.541   3.775   4.389
10522SOL    HW231613   6.581   3.699   4.528
10523SOL     OW31614   6.072   5.146   3.881
10523SOL    HW131615   5.991   5.118   3.932
10523SOL    HW231616   6.076   5.097   3.794
10524SOL     OW31617   6.116   3.992   4.040
10524SOL    HW131618   6.177   3.944   3.976
10524SOL    HW231619   6.084   4.077   3.997
10525SOL     OW31620   6.626   5.071   5.055
10525SOL    HW131621   6.543   5.045   5.104
10525SOL    HW231622   6.705   5.028   5.097
10526SOL     OW31623   6.729   4.952   4.824
10526SOL    HW131624   6.670   4.982   4.899
10526SOL    HW231625   6.688   4.978   4.737
10527SOL     OW31626   6.505   3.819   5.110
10527SOL    HW131627   6.526   3.795   5.016
10527SOL    HW231628   6.585   3.860   5.153
10528SOL     OW31629   6.566   4.837   5.452
10528SOL    HW131630   6.472   4.860   5.477
10528SOL    HW231631   6.566   4.757   5.392
10529SOL     OW31632   6.299   4.783   4.097
10529SOL    HW131633   6.282   4.765   4.194
10529SOL    HW231634   6.377   4.729   4.067
10530SOL     OW31635   6.009   4.539   4.978
10530SOL    HW131636   6.082   4.553   5.046
10530SOL    HW231637   5.970   4.448   4.989
10531SOL     OW31638   6.851   4.096   5.018
10531SOL    HW131639   6.908   4.176   5.037
10531SOL    HW231640   6.760   4.127   4.991
10532SOL     OW31641   5.661   5.296   5.078
10532SOL    HW131642   5.626   5.366   5.016
10532SOL    HW231643   5.761   5.294   5.072
10533SOL     OW31644   5.926   4.844   4.211
10533SOL    HW131645   5.932   4.926   4.154
10533SOL    HW231646   5.925   4.763   4.152
10534SOL     OW31647   6.133   4.267   4.587
10534SOL    HW131648   6.147   4.326   4.507
10534SOL    HW231649   6.203   4.287   4.656
10535SOL     OW31650   6.824   5.096   4.144
10535SOL    HW131651   6.878   5.173   4.178
10535SOL    HW231652   6.727   5.113   4.160
10536SOL     OW31653   6.851   5.203   4.865
10536SOL    HW131654   6.931   5.199   4.925
10536SOL    HW231655   6.812   5.111   4.855
10537SOL     OW31656   5.934   5.254   5.033
10537SOL    HW131657   5.918   5.209   4.945
10537SOL    HW231658   6.032   5.268   5.046
10538SOL     OW31659   6.002   4.471   5.324
10538SOL    HW131660   6.069   4.516   5.265
10538SOL    HW231661   6.033   4.378   5.346
10539SOL     OW31662   6.577   3.849   5.477
10539SOL    HW131663   6.629   3.932   5.459
10539SOL    HW231664   6.633   3.769   5.454
10540SOL     OW31665   6.078   3.761   5.474
10540SOL    HW131666   6.033   3.702   5.407
10540SOL    HW231667   6.020   3.841   5.493
10541SOL     OW31668   6.171   4.596   4.759
10541SOL    HW131669   6.206   4.689   4.755
10541SOL    HW231670   6.110   4.586   4.838
10542SOL     OW31671   6.950   4.572   4.752
10542SOL    HW131672   6.856   4.560   4.719
10542SOL    HW231673   6.987   4.483   4.780
10543SOL     OW31674   6.766   4.259   3.975
10543SOL    HW131675   6.782   4.174   4.024
10543SOL    HW231676   6.728   4.327   4.038
10544SOL     OW31677   5.883   3.920   4.971
10544SOL    HW131678   5.847   3.956   5.057
10544SOL    HW231679   5.868   3.821   4.967
10545SOL     OW31680   5.639   5.034   4.999
10545SOL    HW131681   5.670   4.972   5.071
10545SOL    HW231682   5.641   5.128   5.032
10546SOL     OW31683   6.311   4.356   4.779
10546SOL    HW131684   6.387   4.336   4.717
10546SOL    HW231685   6.275   4.447   4.759
10547SOL     OW31686   5.892   3.784   4.353
10547SOL    HW131687   5.867   3.879   4.370
10547SOL    HW231688   5.904   3.736   4.440
10548SOL     OW31689   0.209   4.178   4.059
10548SOL    HW131690   0.168   4.086   4.061
10548SOL    HW231691   0.189   4.224   4.145
10549SOL     OW31692   6.608   4.479   4.682
10549SOL    HW131693   6.602   4.500   4.780
10549SOL    HW231694   6.583   4.383   4.667
10550SOL     OW31695   6.554   5.290   5.430
10550SOL    HW131696   6.541   5.334   5.341
10550SOL    HW231697   6.607   5.206   5.419
10551SOL     OW31698   5.938   4.642   5.529
10551SOL    HW131699   6.018   4.664   5.585
10551SOL    HW231700   5.964   4.577   5.458
10552SOL     OW31701   6.888   4.540   3.754
10552SOL    HW131702   6.950   4.472   3.792
10552SOL    HW231703   6.924   4.574   3.667
10553SOL     OW31704   6.650   5.058   4.580
10553SOL    HW131705   6.655   4.982   4.515
10553SOL    HW231706   6.701   5.136   4.545
10554SOL     OW31707   5.897   4.530   4.667
10554SOL    HW131708   5.994   4.555   4.661
10554SOL    HW231709   5.889   4.436   4.699
10555SOL     OW31710   5.912   4.252   4.736
10555SOL    HW131711   5.873   4.160   4.725
10555SOL    HW231712   5.993   4.261   4.678
10556SOL     OW31713   6.695   4.086   5.414
10556SOL    HW131714   6.648   4.147   5.477
10556SOL    HW231715   6.791   4.114   5.405
10557SOL     OW31716   6.743   3.919   5.199
10557SOL    HW131717   6.722   3.978   5.277
10557SOL    HW231718   6.787   3.973   5.127
10558SOL     OW31719   5.586   5.039   3.919
10558SOL    HW131720   5.496   5.058   3.879
10558SOL    HW231721   5.587   4.945   3.954
10559SOL     OW31722   5.680   5.506   4.668
10559SOL    HW131723   5.643   5.426   4.622
10559SOL    HW231724   5.773   5.524   4.636
10560SOL     OW31725   6.079   5.300   4.628
10560SOL    HW131726   6.149   5.366   4.655
10560SOL    HW231727   6.119   5.232   4.566
10561SOL     OW31728   6.562   4.515   4.948
10561SOL    HW131729   6.622   4.491   5.024
10561SOL    HW231730   6.472   4.473   4.962
10562SOL     OW31731   5.623   4.277   4.841
10562SOL    HW131732   5.706   4.265   4.786
10562SOL    HW231733   5.648   4.279   4.938
10563SOL     OW31734   5.778   4.247   5.455
10563SOL    HW131735   5.828   4.192   5.388
10563SOL    HW231736   5.740   4.328   5.409
10564SOL     OW31737   6.403   4.297   4.086
10564SOL    HW131738   6.413   4.218   4.025
10564SOL    HW231739   6.324   4.352   4.056
10565SOL     OW31740   5.825   5.270   5.449
10565SOL    HW131741   5.804   5.345   5.513
10565SOL    HW231742   5.832   5.184   5.500
10566SOL     OW31743   6.299   4.172   4.977
10566SOL    HW131744   6.240   4.095   4.955
10566SOL    HW231745   6.294   4.240   4.903
10567SOL     OW31746   6.498   5.411   5.191
10567SOL    HW131747   6.480   5.361   5.106
10567SOL    HW231748   6.494   5.509   5.173
10568SOL     OW31749   6.043   4.219   3.908
10568SOL    HW131750   6.108   4.290   3.933
10568SOL    HW231751   5.953   4.259   3.896
10569SOL     OW31752   5.726   4.862   5.200
10569SOL    HW131753   5.729   4.818   5.289
10569SOL    HW231754   5.747   4.794   5.129
10570SOL     OW31755   6.893   4.768   4.945
10570SOL    HW131756   6.919   4.696   4.881
10570SOL    HW231757   6.831   4.833   4.900
10571SOL     OW31758   6.888   4.595   4.032
10571SOL    HW131759   6.820   4.558   4.096
10571SOL    HW231760   6.860   4.574   3.939
10572SOL     OW31761   6.847   5.473   4.838
10572SOL    HW131762   6.926   5.490   4.780
10572SOL    HW231763   6.836   5.375   4.852
10573SOL     OW31764   5.673   4.988   4.734
10573SOL    HW131765   5.657   5.004   4.832
10573SOL    HW231766   5.600   4.930   4.697
10574SOL     OW31767   6.267   5.398   5.465
10574SOL    HW131768   6.206   5.477   5.454
10574SOL    HW231769   6.344   5.407   5.402
10575SOL     OW31770   6.979   5.310   4.216
10575SOL    HW131771   0.064   5.351   4.184
10575SOL    HW231772   6.917   5.382   4.248
10576SOL     OW31773   5.732   5.511   5.570
10576SOL    HW131774   5.674   5.443   5.615
10576SOL    HW231775   5.781   5.564   5.639
10577SOL     OW31776   6.870   4.642   4.382
10577SOL    HW131777   6.957   4.598   4.408
10577SOL    HW231778   6.889   4.723   4.327
10578SOL     OW31779   6.380   5.001   5.148
10578SOL    HW131780   6.351   5.047   5.232
10578SOL    HW231781   6.311   5.014   5.077
10579SOL     OW31782   6.253   5.348   3.879
10579SOL    HW131783   6.270   5.366   3.782
10579SOL    HW231784   6.197   5.266   3.889
10580SOL     OW31785   5.840   4.037   4.439
10580SOL    HW131786   5.752   4.074   4.412
10580SOL    HW231787   5.844   4.030   4.539
10581SOL     OW31788   6.747   5.331   3.761
10581SOL    HW131789   6.772   5.234   3.760
10581SOL    HW231790   6.685   5.349   3.685
10582SOL     OW31791   6.412   4.733   5.104
10582SOL    HW131792   6.459   4.720   5.017
10582SOL    HW231793   6.403   4.831   5.123
10583SOL     OW31794   6.505   4.634   4.008
10583SOL    HW131795   6.569   4.672   3.941
10583SOL    HW231796   6.550   4.564   4.063
10584SOL     OW31797   5.951   5.026   5.210
10584SOL    HW131798   5.941   5.107   5.152
10584SOL    HW231799   5.870   4.968   5.199
10585SOL     OW31800   6.644   4.830   4.436
10585SOL    HW131801   6.569   4.780   4.478
10585SOL    HW231802   6.712   4.766   4.400
10586SOL     OW31803   6.606   3.963   4.690
10586SOL    HW131804   6.601   3.919   4.600
10586SOL    HW231805   6.605   3.894   4.761
10587SOL     OW31806   6.191   5.210   4.203
10587SOL    HW131807   6.244   5.156   4.137
10587SOL    HW231808   6.115   5.255   4.156
10588SOL     OW31809   5.838   5.071   4.012
10588SOL    HW131810   5.742   5.064   3.985
10588SOL    HW231811   5.844   5.110   4.104
10589SOL     OW31812   5.701   4.759   5.453
10589SOL    HW131813   5.619   4.732   5.503
10589SOL    HW231814   5.781   4.714   5.491
10590SOL     OW31815   6.268   3.919   5.224
10590SOL    HW131816   6.354   3.895   5.179
10590SOL    HW231817   6.287   3.953   5.316
10591SOL     OW31818   5.656   4.059   3.762
10591SOL    HW131819   5.572   4.024   3.721
10591SOL    HW231820   5.685   4.142   3.713
10592SOL     OW31821   5.647   3.881   4.027
10592SOL    HW131822   5.629   3.961   3.969
10592SOL    HW231823   5.738   3.844   4.005
10593SOL     OW31824   6.211   4.552   5.158
10593SOL    HW131825   6.268   4.634   5.144
10593SOL    HW231826   6.270   4.472   5.168
10594SOL     OW31827   6.312   4.280   5.425
10594SOL    HW131828   6.354   4.346   5.488
10594SOL    HW231829   6.326   4.187   5.459
10595SOL     OW31830   6.998   4.986   5.373
10595SOL    HW131831   6.998   4.922   5.450
10595SOL    HW231832   0.077   4.968   5.315
10596SOL     OW31833   5.956   5.462   5.292
10596SOL    HW131834   5.872   5.515   5.277
10596SOL    HW231835   5.934   5.374   5.333
10597SOL     OW31836   6.809   4.036   4.162
10597SOL    HW131837   6.884   3.984   4.121
10597SOL    HW231838   6.844   4.091   4.238
10598SOL     OW31839   6.171   4.460   4.394
10598SOL    HW131840   6.214   4.550   4.383
10598SOL    HW231841   6.103   4.447   4.322
10599SOL     OW31842   6.427   5.092   3.757
10599SOL    HW131843   6.410   5.112   3.853
10599SOL    HW231844   6.459   5.174   3.710
10600SOL     OW31845   6.251   5.507   4.664
10600SOL    HW131846   6.228   5.603   4.645
10600SOL    HW231847   6.350   5.496   4.657
10601SOL     OW31848   6.454   4.695   4.580
10601SOL    HW131849   6.505   4.617   4.616
10601SOL    HW231850   6.412   4.744   4.657
10602SOL     OW31851   6.672   4.713   3.812
10602SOL    HW131852   6.637   4.767   3.735
10602SOL    HW231853   6.744   4.651   3.779
10603SOL     OW31854   5.817   5.022   5.581
10603SOL    HW131855   5.752   4.955   5.546
10603SOL    HW231856   5.803   5.036   5.679
10604SOL     OW31857   5.674   4.953   4.387
10604SOL    HW131858   5.679   4.908   4.476
10604SOL    HW231859   5.742   4.913   4.325
10605SOL     OW31860   6.262   5.136   5.352
10605SOL    HW131861   6.185   5.084   5.389
10605SOL    HW231862   6.266   5.226   5.395
10606SOL     OW31863   6.016   4.153   4.253
10606SOL    HW131864   6.051   4.084   4.189
10606SOL    HW231865   5.961   4.108   4.324
10607SOL     OW31866   5.922   4.281   5.013
10607SOL    HW131867   5.978   4.222   5.072
10607SOL    HW231868   5.936   4.255   4.917
10608SOL     OW31869   6.412   5.305   4.403
10608SOL    HW131870   6.394   5.368   4.328
10608SOL    HW231871   6.336   5.240   4.411
10609SOL     OW31872   6.991   3.944   4.840
10609SOL    HW131873   0.012   3.854   4.878
10609SOL    HW231874   6.939   3.997   4.906
10610SOL     OW31875   6.599   3.739   4.860
10610SOL    HW131876   6.540   3.671   4.816
10610SOL    HW231877   6.693   3.703   4.865
10611SOL     OW31878   6.360   5.056   4.045
10611SOL    HW131879   6.333   4.960   4.053
10611SOL    HW231880   6.445   5.070   4.096
10612SOL     OW31881   6.209   5.284   5.013
10612SOL    HW131882   6.206   5.371   5.063
10612SOL    HW231883   6.300   5.271   4.973
10613SOL     OW31884   6.910   3.808   3.866
10613SOL    HW131885   6.951   3.754   3.793
10613SOL    HW231886   6.830   3.759   3.903
10614SOL     OW31887   5.628   4.787   4.032
10614SOL    HW131888   5.727   4.787   4.013
10614SOL    HW231889   5.599   4.694   4.054
10615SOL     OW31890   6.466   5.391   4.065
10615SOL    HW131891   6.393   5.369   4.001
10615SOL    HW231892   6.438   5.467   4.124
10616SOL     OW31893   5.806   4.342   5.715
10616SOL    HW131894   5.715   4.342   5.755
10616SOL    HW231895   5.799   4.321   5.617
10617SOL     OW31896   5.806   4.013   6.582
10617SOL    HW131897   5.842   3.974   6.667
10617SOL    HW231898   5.715   3.976   6.565
10618SOL     OW31899   5.585   4.111   6.221
10618SOL    HW131900   5.502   4.142   6.266
10618SOL    HW231901   5.566   4.027   6.169
10619SOL     OW31902   6.143   5.004   6.756
10619SOL    HW131903   6.057   5.030   6.713
10619SOL    HW231904   6.174   5.079   6.815
10620SOL     OW31905   0.068   5.268   6.347
10620SOL    HW131906   0.104   5.175   6.353
10620SOL    HW231907   0.038   5.287   6.254
10621SOL     OW31908   6.692   4.445   6.274
10621SOL    HW131909   6.759   4.518   6.263
10621SOL    HW231910   6.655   4.447   6.367
10622SOL     OW31911   6.337   4.864   6.626
10622SOL    HW131912   6.264   4.892   6.689
10622SOL    HW231913   6.374   4.945   6.581
10623SOL     OW31914   6.269   4.722   6.235
10623SOL    HW131915   6.340   4.712   6.304
10623SOL    HW231916   6.195   4.778   6.271
10624SOL     OW31917   5.918   5.133   6.647
10624SOL    HW131918   5.833   5.102   6.606
10624SOL    HW231919   5.964   5.196   6.585
10625SOL     OW31920   5.808   5.439   6.056
10625SOL    HW131921   5.826   5.516   6.117
10625SOL    HW231922   5.884   5.429   5.991
10626SOL     OW31923   5.819   5.168   6.122
10626SOL    HW131924   5.803   5.266   6.122
10626SOL    HW231925   5.760   5.124   6.190
10627SOL     OW31926   5.854   4.815   6.486
10627SOL    HW131927   5.851   4.722   6.521
10627SOL    HW231928   5.796   4.874   6.542
10628SOL     OW31929   6.174   5.553   6.954
10628SOL    HW131930   6.099   5.511   0.005
10628SOL    HW231931   6.208   5.632   0.005
10629SOL     OW31932   6.168   4.711   5.728
10629SOL    HW131933   6.214   4.758   5.653
10629SOL    HW231934   6.208   4.740   5.815
10630SOL     OW31935   0.241   3.917   0.085
10630SOL    HW131936   0.174   3.990   0.076
10630SOL    HW231937   0.198   3.836   0.124
10631SOL     OW31938   5.701   4.386   6.150
10631SOL    HW131939   5.670   4.292   6.167
10631SOL    HW231940   5.695   4.438   6.235
10632SOL     OW31941   5.615   5.314   5.708
10632SOL    HW131942   5.600   5.217   5.727
10632SOL    HW231943   5.595   5.367   5.790
10633SOL     OW31944   6.200   5.115   6.319
10633SOL    HW131945   6.153   5.028   6.333
10633SOL    HW231946   6.186   5.146   6.225
10634SOL     OW31947   6.821   4.915   0.024
10634SOL    HW131948   6.870   4.869   6.950
10634SOL    HW231949   6.886   4.961   0.084
10635SOL     OW31950   6.403   3.736   6.097
10635SOL    HW131951   6.447   3.822   6.073
10635SOL    HW231952   6.304   3.750   6.104
10636SOL     OW31953   5.777   4.701   6.848
10636SOL    HW131954   5.860   4.648   6.829
10636SOL    HW231955   5.697   4.648   6.820
10637SOL     OW31956   6.180   4.443   5.860
10637SOL    HW131957   6.185   4.529   5.809
10637SOL    HW231958   6.111   4.450   5.931
10638SOL     OW31959   6.870   4.048   6.477
10638SOL    HW131960   6.772   4.033   6.489
10638SOL    HW231961   6.919   4.011   6.557
10639SOL     OW31962   6.406   4.304   0.048
10639SOL    HW131963   6.353   4.367   0.106
10639SOL    HW231964   6.346   4.263   6.980
10640SOL     OW31965   6.567   4.098   6.800
10640SOL    HW131966   6.488   4.148   6.835
10640SOL    HW231967   6.541   4.048   6.717
10641SOL     OW31968   6.634   4.425   6.009
10641SOL    HW131969   6.652   4.427   6.108
10641SOL    HW231970   6.548   4.377   5.992
10642SOL     OW31971   5.676   4.551   6.367
10642SOL    HW131972   5.761   4.540   6.417
10642SOL    HW231973   5.626   4.631   6.403
10643SOL     OW31974   5.741   5.577   0.150
10643SOL    HW131975   5.702   5.499   0.198
10643SOL    HW231976   5.693   5.590   0.063
10644SOL     OW31977   6.481   4.076   5.782
10644SOL    HW131978   6.523   4.143   5.720
10644SOL    HW231979   6.481   3.986   5.738
10645SOL     OW31980   6.928   4.857   6.102
10645SOL    HW131981   6.995   4.839   6.030
10645SOL    HW231982   6.876   4.940   6.079
10646SOL     OW31983   6.135   3.897   6.488
10646SOL    HW131984   6.141   3.925   6.584
10646SOL    HW231985   6.136   3.978   6.429
10647SOL     OW31986   6.570   5.174   6.056
10647SOL    HW131987   6.541   5.251   6.000
10647SOL    HW231988   6.542   5.188   6.151
10648SOL     OW31989   5.941   5.539   6.455
10648SOL    HW131990   5.983   5.448   6.465
10648SOL    HW231991   6.009   5.609   6.477
10649SOL     OW31992   5.907   4.683   5.841
10649SOL    HW131993   5.995   4.704   5.798
10649SOL    HW231994   5.870   4.598   5.803
10650SOL     OW31995   6.713   5.495   5.828
10650SOL    HW131996   6.630   5.467   5.876
10650SOL    HW231997   6.726   5.437   5.748
10651SOL     OW31998   6.049   5.460   5.903
10651SOL    HW131999   6.091   5.521   5.970
10651SOL    HW232000   6.119   5.422   5.843
10652SOL     OW32001   5.851   5.524   6.822
10652SOL    HW132002   5.907   5.473   6.887
10652SOL    HW232003   5.815   5.462   6.753
10653SOL     OW32004   6.521   5.427   6.478
10653SOL    HW132005   6.603   5.380   6.511
10653SOL    HW232006   6.479   5.374   6.405
10654SOL     OW32007   5.982   4.411   6.060
10654SOL    HW132008   6.001   4.314   6.074
10654SOL    HW232009   5.885   4.429   6.077
10655SOL     OW32010   6.229   3.840   5.686
10655SOL    HW132011   6.292   3.767   5.711
10655SOL    HW232012   6.171   3.809   5.611
10656SOL     OW32013   6.457   5.241   6.771
10656SOL    HW132014   6.441   5.204   6.679
10656SOL    HW232015   6.475   5.166   6.834
10657SOL     OW32016   6.405   5.113   6.526
10657SOL    HW132017   6.494   5.100   6.484
10657SOL    HW232018   6.335   5.119   6.454
10658SOL     OW32019   6.513   4.230   6.485
10658SOL    HW132020   6.487   4.224   6.389
10658SOL    HW232021   6.548   4.141   6.515
10659SOL     OW32022   6.133   3.788   6.079
10659SOL    HW132023   6.052   3.786   6.137
10659SOL    HW232024   6.129   3.868   6.019
10660SOL     OW32025   6.988   4.847   5.605
10660SOL    HW132026   0.024   4.798   5.685
10660SOL    HW232027   6.920   4.913   5.635
10661SOL     OW32028   5.875   3.773   5.771
10661SOL    HW132029   5.928   3.844   5.725
10661SOL    HW232030   5.938   3.708   5.815
10662SOL     OW32031   6.531   3.975   6.039
10662SOL    HW132032   6.496   4.016   5.954
10662SOL    HW232033   6.630   3.986   6.044
10663SOL     OW32034   6.783   5.294   6.381
10663SOL    HW132035   6.791   5.364   6.309
10663SOL    HW232036   6.873   5.280   6.424
10664SOL     OW32037   6.055   4.876   6.313
10664SOL    HW132038   5.988   4.857   6.385
10664SOL    HW232039   6.011   4.863   6.224
10665SOL     OW32040   6.835   5.516   6.193
10665SOL    HW132041   6.871   5.578   6.123
10665SOL    HW232042   6.764   5.563   6.245
10666SOL     OW32043   6.609   4.260   5.612
10666SOL    HW132044   6.563   4.347   5.594
10666SOL    HW232045   6.673   4.272   5.688
10667SOL     OW32046   6.149   3.942   6.761
10667SOL    HW132047   6.192   3.859   6.797
10667SOL    HW232048   6.053   3.944   6.788
10668SOL     OW32049   6.449   4.179   6.224
10668SOL    HW132050   6.405   4.245   6.164
10668SOL    HW232051   6.475   4.098   6.171
10669SOL     OW32052   6.607   3.770   6.322
10669SOL    HW132053   6.540   3.772   6.248
10669SOL    HW232054   6.582   3.700   6.388
10670SOL     OW32055   6.072   5.146   5.744
10670SOL    HW132056   5.991   5.118   5.795
10670SOL    HW232057   6.075   5.098   5.656
10671SOL     OW32058   6.115   3.988   5.894
10671SOL    HW132059   6.163   3.936   5.823
10671SOL    HW232060   6.085   4.076   5.856
10672SOL     OW32061   0.224   5.301   0.245
10672SOL    HW132062   0.241   5.360   0.167
10672SOL    HW232063   0.299   5.235   0.254
10673SOL     OW32064   6.722   4.946   6.690
10673SOL    HW132065   6.642   4.932   6.749
10673SOL    HW232066   6.691   4.977   6.599
10674SOL     OW32067   6.298   4.783   5.959
10674SOL    HW132068   6.281   4.765   6.056
10674SOL    HW232069   6.377   4.729   5.929
10675SOL     OW32070   6.011   4.539   6.846
10675SOL    HW132071   6.063   4.568   6.927
10675SOL    HW232072   5.975   4.447   6.862
10676SOL     OW32073   6.826   4.135   6.865
10676SOL    HW132074   6.806   4.216   6.920
10676SOL    HW232075   6.744   4.107   6.816
10677SOL     OW32076   5.679   5.283   6.858
10677SOL    HW132077   5.620   5.356   6.892
10677SOL    HW232078   5.763   5.279   6.912
10678SOL     OW32079   5.926   4.844   6.073
10678SOL    HW132080   5.931   4.926   6.017
10678SOL    HW232081   5.925   4.763   6.013
10679SOL     OW32082   6.133   4.268   6.448
10679SOL    HW132083   6.146   4.327   6.368
10679SOL    HW232084   6.203   4.288   6.516
10680SOL     OW32085   6.825   5.096   6.006
10680SOL    HW132086   6.879   5.173   6.040
10680SOL    HW232087   6.727   5.114   6.022
10681SOL     OW32088   6.821   5.201   6.759
10681SOL    HW132089   6.917   5.192   6.786
10681SOL    HW232090   6.784   5.111   6.737
10682SOL     OW32091   5.951   5.216   6.902
10682SOL    HW132092   5.923   5.178   6.814
10682SOL    HW232093   6.044   5.252   6.895
10683SOL     OW32094   6.171   4.595   6.624
10683SOL    HW132095   6.205   4.689   6.617
10683SOL    HW232096   6.111   4.587   6.703
10684SOL     OW32097   6.950   4.568   6.605
10684SOL    HW132098   6.858   4.552   6.571
10684SOL    HW232099   6.990   4.482   6.636
10685SOL     OW32100   6.766   4.259   5.837
10685SOL    HW132101   6.782   4.174   5.886
10685SOL    HW232102   6.728   4.327   5.900
10686SOL     OW32103   5.888   3.926   6.834
10686SOL    HW132104   5.846   3.957   6.919
10686SOL    HW232105   5.876   3.827   6.825
10687SOL     OW32106   5.612   5.024   6.869
10687SOL    HW132107   5.666   4.977   6.939
10687SOL    HW232108   5.639   5.120   6.866
10688SOL     OW32109   6.310   4.353   6.640
10688SOL    HW132110   6.387   4.333   6.580
10688SOL    HW232111   6.276   4.445   6.623
10689SOL     OW32112   5.893   3.786   6.213
10689SOL    HW132113   5.868   3.881   6.231
10689SOL    HW232114   5.904   3.737   6.299
10690SOL     OW32115   0.208   4.178   5.920
10690SOL    HW132116   0.169   4.086   5.922
10690SOL    HW232117   0.189   4.224   6.007
10691SOL     OW32118   6.610   4.478   6.549
10691SOL    HW132119   6.601   4.498   6.646
10691SOL    HW232120   6.584   4.382   6.532
10692SOL     OW32121   6.888   4.540   5.616
10692SOL    HW132122   6.951   4.472   5.654
10692SOL    HW232123   6.925   4.574   5.530
10693SOL     OW32124   6.655   5.056   6.444
10693SOL    HW132125   6.657   4.981   6.377
10693SOL    HW232126   6.703   5.135   6.407
10694SOL     OW32127   5.899   4.529   6.529
10694SOL    HW132128   5.995   4.556   6.522
10694SOL    HW232129   5.893   4.434   6.559
10695SOL     OW32130   5.918   4.253   6.604
10695SOL    HW132131   5.877   4.163   6.591
10695SOL    HW232132   5.997   4.263   6.545
10696SOL     OW32133   6.768   3.943   0.053
10696SOL    HW132134   6.771   3.993   0.140
10696SOL    HW232135   6.774   4.007   6.977
10697SOL     OW32136   5.586   5.038   5.780
10697SOL    HW132137   5.496   5.058   5.740
10697SOL    HW232138   5.587   4.945   5.816
10698SOL     OW32139   5.676   5.513   6.526
10698SOL    HW132140   5.641   5.430   6.483
10698SOL    HW232141   5.772   5.526   6.501
10699SOL     OW32142   6.077   5.301   6.490
10699SOL    HW132143   6.147   5.366   6.518
10699SOL    HW232144   6.118   5.232   6.429
10700SOL     OW32145   6.565   4.518   6.816
10700SOL    HW132146   6.631   4.513   6.890
10700SOL    HW232147   6.477   4.482   6.847
10701SOL     OW32148   5.637   4.282   6.712
10701SOL    HW132149   5.692   4.248   6.636
10701SOL    HW232150   5.698   4.316   6.783
10702SOL     OW32151   6.403   4.297   5.946
10702SOL    HW132152   6.411   4.217   5.886
10702SOL    HW232153   6.325   4.352   5.917
10703SOL     OW32154   6.271   4.183   6.847
10703SOL    HW132155   6.229   4.097   6.819
10703SOL    HW232156   6.275   4.245   6.768
10704SOL     OW32157   6.451   5.386   0.014
10704SOL    HW132158   6.462   5.364   6.917
10704SOL    HW232159   6.523   5.450   0.042
10705SOL     OW32160   6.045   4.219   5.770
10705SOL    HW132161   6.109   4.292   5.796
10705SOL    HW232162   5.953   4.259   5.757
10706SOL     OW32163   5.742   4.866   0.060
10706SOL    HW132164   5.800   4.827   0.132
10706SOL    HW232165   5.751   4.811   6.976
10707SOL     OW32166   6.886   4.745   6.806
10707SOL    HW132167   6.917   4.685   6.733
10707SOL    HW232168   6.833   4.820   6.768
10708SOL     OW32169   6.888   4.595   5.895
10708SOL    HW132170   6.819   4.557   5.958
10708SOL    HW232171   6.861   4.574   5.800
10709SOL     OW32172   6.843   5.467   6.690
10709SOL    HW132173   6.930   5.478   6.641
10709SOL    HW232174   6.831   5.372   6.716
10710SOL     OW32175   5.668   4.987   6.599
10710SOL    HW132176   5.647   4.996   6.697
10710SOL    HW232177   5.601   4.926   6.556
10711SOL     OW32178   6.979   5.310   6.078
10711SOL    HW132179   0.064   5.351   6.046
10711SOL    HW232180   6.917   5.382   6.110
10712SOL     OW32181   6.871   4.642   6.246
10712SOL    HW132182   6.958   4.597   6.267
10712SOL    HW232183   6.888   4.723   6.191
10713SOL     OW32184   6.253   5.348   5.741
10713SOL    HW132185   6.270   5.366   5.644
10713SOL    HW232186   6.197   5.266   5.751
10714SOL     OW32187   5.840   4.038   6.301
10714SOL    HW132188   5.751   4.074   6.273
10714SOL    HW232189   5.843   4.031   6.400
10715SOL     OW32190   6.748   5.331   5.623
10715SOL    HW132191   6.771   5.233   5.623
10715SOL    HW232192   6.686   5.350   5.547
10716SOL     OW32193   6.365   4.749   6.953
10716SOL    HW132194   6.426   4.713   6.881
10716SOL    HW232195   6.407   4.829   6.995
10717SOL     OW32196   6.505   4.634   5.871
10717SOL    HW132197   6.569   4.671   5.804
10717SOL    HW232198   6.550   4.564   5.925
10718SOL     OW32199   6.644   4.830   6.298
10718SOL    HW132200   6.568   4.780   6.339
10718SOL    HW232201   6.711   4.766   6.260
10719SOL     OW32202   6.606   3.960   6.541
10719SOL    HW132203   6.600   3.915   6.452
10719SOL    HW232204   6.610   3.892   6.613
10720SOL     OW32205   6.191   5.210   6.065
10720SOL    HW132206   6.243   5.156   5.998
10720SOL    HW232207   6.114   5.255   6.019
10721SOL     OW32208   5.838   5.071   5.874
10721SOL    HW132209   5.742   5.064   5.847
10721SOL    HW232210   5.843   5.111   5.966
10722SOL     OW32211   6.265   3.907   0.087
10722SOL    HW132212   6.356   3.869   0.072
10722SOL    HW232213   6.272   3.989   0.143
10723SOL     OW32214   5.668   4.051   5.614
10723SOL    HW132215   5.576   4.027   5.583
10723SOL    HW232216   5.699   4.133   5.567
10724SOL     OW32217   5.648   3.879   5.887
10724SOL    HW132218   5.632   3.963   5.836
10724SOL    HW232219   5.736   3.840   5.860
10725SOL     OW32220   5.968   5.451   0.084
10725SOL    HW132221   5.890   5.504   0.118
10725SOL    HW232222   5.972   5.363   0.132
10726SOL     OW32223   6.808   4.036   6.023
10726SOL    HW132224   6.883   3.983   5.983
10726SOL    HW232225   6.843   4.091   6.099
10727SOL     OW32226   6.172   4.460   6.255
10727SOL    HW132227   6.214   4.550   6.244
10727SOL    HW232228   6.103   4.447   6.183
10728SOL     OW32229   6.427   5.091   5.619
10728SOL    HW132230   6.410   5.111   5.715
10728SOL    HW232231   6.459   5.174   5.573
10729SOL     OW32232   6.252   5.507   6.526
10729SOL    HW132233   6.229   5.602   6.506
10729SOL    HW232234   6.351   5.494   6.518
10730SOL     OW32235   6.455   4.694   6.442
10730SOL    HW132236   6.505   4.616   6.480
10730SOL    HW232237   6.414   4.746   6.517
10731SOL     OW32238   6.672   4.712   5.674
10731SOL    HW132239   6.637   4.767   5.597
10731SOL    HW232240   6.744   4.651   5.641
10732SOL     OW32241   5.674   4.952   6.249
10732SOL    HW132242   5.678   4.906   6.338
10732SOL    HW232243   5.743   4.912   6.188
10733SOL     OW32244   6.016   4.151   6.112
10733SOL    HW132245   6.050   4.081   6.050
10733SOL    HW232246   5.961   4.108   6.184
10734SOL     OW32247   5.902   4.276   6.878
10734SOL    HW132248   5.970   4.221   6.927
10734SOL    HW232249   5.912   4.263   6.780
10735SOL     OW32250   6.414   5.301   6.263
10735SOL    HW132251   6.394   5.366   6.190
10735SOL    HW232252   6.337   5.238   6.274
10736SOL     OW32253   6.988   3.953   6.706
10736SOL    HW132254   6.998   3.860   6.740
10736SOL    HW232255   6.930   4.005   6.768
10737SOL     OW32256   6.610   3.750   6.713
10737SOL    HW132257   6.538   3.683   6.696
10737SOL    HW232258   6.698   3.704   6.717
10738SOL     OW32259   6.361   5.056   5.906
10738SOL    HW132260   6.333   4.960   5.914
10738SOL    HW232261   6.445   5.071   5.958
10739SOL     OW32262   6.204   5.296   6.861
10739SOL    HW132263   6.202   5.391   6.891
10739SOL    HW232264   6.293   5.275   6.821
10740SOL     OW32265   6.909   3.806   5.729
10740SOL    HW132266   6.948   3.756   5.652
10740SOL    HW232267   6.831   3.756   5.766
10741SOL     OW32268   5.628   4.787   5.894
10741SOL    HW132269   5.726   4.787   5.875
10741SOL    HW232270   5.599   4.694   5.915
10742SOL     OW32271   6.467   5.391   5.926
10742SOL    HW132272   6.393   5.369   5.863
10742SOL    HW232273   6.438   5.467   5.985
10743SOL     OW32274   5.806   6.224   0.137
10743SOL    HW132275   5.710   6.209   0.162
10743SOL    HW232276   5.818   6.206   0.039
10744SOL     OW32277   5.808   5.869   0.995
10744SOL    HW132278   5.841   5.834   1.083
10744SOL    HW232279   5.715   5.836   0.978
10745SOL     OW32280   5.586   5.975   0.637
10745SOL    HW132281   5.505   6.009   0.685
10745SOL    HW232282   5.564   5.889   0.592
10746SOL     OW32283   6.155   6.874   1.176
10746SOL    HW132284   6.081   6.882   1.109
10746SOL    HW232285   6.123   6.910   1.264
10747SOL     OW32286   0.066   0.132   0.681
10747SOL    HW132287   6.997   0.093   0.742
10747SOL    HW232288   0.114   0.058   0.633
10748SOL     OW32289   6.694   6.308   0.689
10748SOL    HW132290   6.760   6.382   0.677
10748SOL    HW232291   6.658   6.309   0.782
10749SOL     OW32292   6.348   6.747   1.025
10749SOL    HW132293   6.282   6.786   1.088
10749SOL    HW232294   6.348   6.800   0.940
10750SOL     OW32295   6.462   6.350   1.823
10750SOL    HW132296   6.455   6.415   1.899
10750SOL    HW232297   6.487   6.399   1.739
10751SOL     OW32298   6.270   6.581   0.649
10751SOL    HW132299   6.342   6.571   0.718
10751SOL    HW232300   6.195   6.636   0.686
10752SOL     OW32301   6.277   6.733   1.815
10752SOL    HW132302   6.316   6.823   1.837
10752SOL    HW232303   6.201   6.744   1.752
10753SOL     OW32304   5.923   0.005   1.058
10753SOL    HW132305   5.843   6.960   1.018
10753SOL    HW232306   5.969   0.059   0.988
10754SOL     OW32307   6.037   5.978   1.477
10754SOL    HW132308   6.118   5.920   1.485
10754SOL    HW232309   5.955   5.924   1.497
10755SOL     OW32310   5.846   6.675   0.904
10755SOL    HW132311   5.844   6.581   0.936
10755SOL    HW232312   5.786   6.731   0.960
10756SOL     OW32313   6.175   6.546   0.140
10756SOL    HW132314   6.237   6.560   0.063
10756SOL    HW232315   6.212   6.590   0.221
10757SOL     OW32316   5.700   6.241   0.562
10757SOL    HW132317   5.670   6.148   0.582
10757SOL    HW232318   5.695   6.296   0.646
10758SOL     OW32319   5.713   6.331   1.585
10758SOL    HW132320   5.810   6.354   1.585
10758SOL    HW232321   5.659   6.415   1.593
10759SOL     OW32322   6.858   6.792   1.445
10759SOL    HW132323   6.901   6.722   1.388
10759SOL    HW232324   6.920   6.819   1.518
10760SOL     OW32325   6.405   5.601   0.520
10760SOL    HW132326   6.450   5.686   0.493
10760SOL    HW232327   6.306   5.615   0.525
10761SOL     OW32328   5.778   6.550   1.276
10761SOL    HW132329   5.865   6.503   1.262
10761SOL    HW232330   5.706   6.502   1.225
10762SOL     OW32331   5.928   5.836   1.836
10762SOL    HW132332   5.976   5.921   1.853
10762SOL    HW232333   5.831   5.848   1.853
10763SOL     OW32334   6.185   6.300   0.271
10763SOL    HW132335   6.189   6.389   0.225
10763SOL    HW232336   6.118   6.305   0.346
10764SOL     OW32337   6.869   5.908   0.894
10764SOL    HW132338   6.771   5.896   0.910
10764SOL    HW232339   6.920   5.872   0.973
10765SOL     OW32340   6.384   6.196   1.451
10765SOL    HW132341   6.356   6.173   1.544
10765SOL    HW232342   6.345   6.130   1.387
10766SOL     OW32343   6.941   6.049   1.675
10766SOL    HW132344   6.916   6.135   1.720
10766SOL    HW232345   0.041   6.042   1.670
10767SOL     OW32346   6.545   6.472   1.585
10767SOL    HW132347   6.603   6.398   1.549
10767SOL    HW232348   6.491   6.511   1.511
10768SOL     OW32349   6.584   5.997   1.231
10768SOL    HW132350   6.492   6.014   1.265
10768SOL    HW232351   6.579   5.948   1.144
10769SOL     OW32352   6.636   6.288   0.426
10769SOL    HW132353   6.657   6.293   0.523
10769SOL    HW232354   6.549   6.241   0.412
10770SOL     OW32355   5.674   6.412   0.778
10770SOL    HW132356   5.759   6.400   0.829
10770SOL    HW232357   5.623   6.489   0.816
10771SOL     OW32358   6.464   5.937   0.213
10771SOL    HW132359   6.472   6.005   0.140
10771SOL    HW232360   6.491   5.847   0.178
10772SOL     OW32361   6.933   6.722   0.519
10772SOL    HW132362   6.996   6.695   0.445
10772SOL    HW232363   6.883   6.803   0.492
10773SOL     OW32364   6.133   5.759   0.902
10773SOL    HW132365   6.137   5.789   0.997
10773SOL    HW232366   6.136   5.838   0.841
10774SOL     OW32367   5.914   6.535   0.250
10774SOL    HW132368   5.999   6.550   0.200
10774SOL    HW232369   5.876   6.446   0.224
10775SOL     OW32370   5.788   5.859   1.503
10775SOL    HW132371   5.706   5.916   1.500
10775SOL    HW232372   5.767   5.771   1.545
10776SOL     OW32373   5.984   6.272   0.469
10776SOL    HW132374   6.002   6.176   0.488
10776SOL    HW232375   5.888   6.292   0.487
10777SOL     OW32376   6.348   5.862   1.759
10777SOL    HW132377   6.431   5.806   1.751
10777SOL    HW232378   6.294   5.832   1.837
10778SOL     OW32379   6.512   6.091   0.900
10778SOL    HW132380   6.487   6.085   0.804
10778SOL    HW232381   6.544   6.002   0.932
10779SOL     OW32382   6.135   5.657   0.502
10779SOL    HW132383   6.052   5.654   0.557
10779SOL    HW232384   6.130   5.735   0.439
10780SOL     OW32385   6.532   5.836   0.461
10780SOL    HW132386   6.496   5.876   0.376
10780SOL    HW232387   6.631   5.848   0.464
10781SOL     OW32388   6.655   6.254   1.459
10781SOL    HW132389   6.560   6.221   1.460
10781SOL    HW232390   6.717   6.176   1.466
10782SOL     OW32391   6.820   0.096   0.792
10782SOL    HW132392   6.786   0.166   0.730
10782SOL    HW232393   6.832   0.134   0.883
10783SOL     OW32394   6.052   6.715   0.736
10783SOL    HW132395   5.982   6.706   0.806
10783SOL    HW232396   6.010   6.714   0.645
10784SOL     OW32397   6.686   6.181   0.026
10784SOL    HW132398   6.586   6.182   0.027
10784SOL    HW232399   6.721   6.158   0.116
10785SOL     OW32400   5.673   6.144   1.390
10785SOL    HW132401   5.768   6.139   1.359
10785SOL    HW232402   5.665   6.215   1.460
10786SOL     OW32403   6.145   5.811   1.174
10786SOL    HW132404   6.194   5.733   1.215
10786SOL    HW232405   6.049   5.809   1.203
10787SOL     OW32406   6.450   6.040   0.640
10787SOL    HW132407   6.410   6.107   0.577
10787SOL    HW232408   6.476   5.958   0.589
10788SOL     OW32409   6.606   5.632   0.739
10788SOL    HW132410   6.540   5.633   0.664
10788SOL    HW232411   6.581   5.560   0.804
10789SOL     OW32412   6.099   5.851   0.311
10789SOL    HW132413   6.113   5.783   0.239
10789SOL    HW232414   6.075   5.939   0.271
10790SOL     OW32415   6.647   6.891   1.322
10790SOL    HW132416   6.563   6.878   1.375
10790SOL    HW232417   6.726   6.863   1.376
10791SOL     OW32418   6.733   6.773   1.095
10791SOL    HW132419   6.694   6.814   1.177
10791SOL    HW232420   6.668   6.782   1.019
10792SOL     OW32421   6.504   5.681   1.386
10792SOL    HW132422   6.526   5.657   1.291
10792SOL    HW232423   6.585   5.722   1.429
10793SOL     OW32424   6.551   6.698   1.739
10793SOL    HW132425   6.453   6.709   1.757
10793SOL    HW232426   6.565   6.624   1.672
10794SOL     OW32427   6.292   6.634   0.373
10794SOL    HW132428   6.277   6.624   0.471
10794SOL    HW232429   6.373   6.581   0.346
10795SOL     OW32430   6.008   6.401   1.255
10795SOL    HW132431   6.081   6.414   1.322
10795SOL    HW232432   5.969   6.309   1.265
10796SOL     OW32433   6.851   5.959   1.294
10796SOL    HW132434   6.908   6.038   1.314
10796SOL    HW232435   6.760   5.989   1.267
10797SOL     OW32436   5.936   6.701   0.488
10797SOL    HW132437   5.981   6.778   0.443
10797SOL    HW232438   5.940   6.621   0.429
10798SOL     OW32439   6.133   6.130   0.862
10798SOL    HW132440   6.148   6.189   0.783
10798SOL    HW232441   6.203   6.149   0.931
10799SOL     OW32442   6.823   6.953   0.412
10799SOL    HW132443   6.867   0.040   0.435
10799SOL    HW232444   6.728   6.955   0.442
10800SOL     OW32445   6.002   6.330   1.601
10800SOL    HW132446   6.069   6.375   1.542
10800SOL    HW232447   6.033   6.238   1.624
10801SOL     OW32448   6.577   5.711   1.753
10801SOL    HW132449   6.629   5.794   1.735
10801SOL    HW232450   6.632   5.631   1.730
10802SOL     OW32451   6.078   5.623   1.750
10802SOL    HW132452   6.033   5.564   1.683
10802SOL    HW232453   6.020   5.703   1.769
10803SOL     OW32454   6.168   6.453   1.035
10803SOL    HW132455   6.195   6.549   1.025
10803SOL    HW232456   6.107   6.443   1.114
10804SOL     OW32457   6.953   6.432   1.028
10804SOL    HW132458   6.859   6.422   0.995
10804SOL    HW232459   6.988   6.342   1.055
10805SOL     OW32460   6.768   6.108   0.270
10805SOL    HW132461   6.784   6.028   0.328
10805SOL    HW232462   6.729   6.182   0.325
10806SOL     OW32463   5.883   5.782   1.246
10806SOL    HW132464   5.847   5.818   1.333
10806SOL    HW232465   5.868   5.684   1.243
10807SOL     OW32466   5.647   6.898   1.282
10807SOL    HW132467   5.681   6.842   1.357
10807SOL    HW232468   5.641   6.993   1.310
10808SOL     OW32469   6.312   6.216   1.056
10808SOL    HW132470   6.387   6.196   0.993
10808SOL    HW232471   6.275   6.307   1.036
10809SOL     OW32472   5.892   5.651   0.630
10809SOL    HW132473   5.867   5.746   0.650
10809SOL    HW232474   5.904   5.601   0.716
10810SOL     OW32475   0.182   6.007   0.377
10810SOL    HW132476   0.269   5.971   0.412
10810SOL    HW232477   0.159   6.091   0.426
10811SOL     OW32478   6.609   6.339   0.959
10811SOL    HW132479   6.604   6.360   1.056
10811SOL    HW232480   6.584   6.244   0.944
10812SOL     OW32481   5.940   6.508   1.801
10812SOL    HW132482   6.015   6.519   1.867
10812SOL    HW232483   5.965   6.440   1.732
10813SOL     OW32484   6.893   6.427   0.036
10813SOL    HW132485   6.916   6.334   0.009
10813SOL    HW232486   6.906   6.489   6.959
10814SOL     OW32487   5.896   6.391   0.942
10814SOL    HW132488   5.992   6.416   0.935
10814SOL    HW232489   5.888   6.297   0.975
10815SOL     OW32490   5.912   6.114   1.012
10815SOL    HW132491   5.874   6.022   1.001
10815SOL    HW232492   5.993   6.123   0.954
10816SOL     OW32493   6.695   5.948   1.689
10816SOL    HW132494   6.647   6.009   1.753
10816SOL    HW232495   6.791   5.976   1.682
10817SOL     OW32496   6.742   5.781   1.474
10817SOL    HW132497   6.722   5.840   1.553
10817SOL    HW232498   6.787   5.835   1.403
10818SOL     OW32499   6.562   6.376   1.224
10818SOL    HW132500   6.622   6.351   1.300
10818SOL    HW232501   6.473   6.331   1.236
10819SOL     OW32502   5.623   6.139   1.117
10819SOL    HW132503   5.705   6.127   1.062
10819SOL    HW232504   5.649   6.141   1.214
10820SOL     OW32505   5.778   6.109   1.731
10820SOL    HW132506   5.828   6.053   1.665
10820SOL    HW232507   5.740   6.189   1.684
10821SOL     OW32508   6.403   6.159   0.376
10821SOL    HW132509   6.411   6.077   0.319
10821SOL    HW232510   6.323   6.213   0.347
10822SOL     OW32511   6.299   6.033   1.253
10822SOL    HW132512   6.240   5.956   1.232
10822SOL    HW232513   6.294   6.101   1.180
10823SOL     OW32514   6.041   6.085   0.186
10823SOL    HW132515   6.105   6.156   0.214
10823SOL    HW232516   5.948   6.123   0.184
10824SOL     OW32517   5.754   6.728   1.477
10824SOL    HW132518   5.743   6.680   1.564
10824SOL    HW232519   5.764   6.662   1.403
10825SOL     OW32520   6.915   6.622   1.224
10825SOL    HW132521   6.935   6.548   1.160
10825SOL    HW232522   6.847   6.683   1.184
10826SOL     OW32523   6.893   6.456   0.311
10826SOL    HW132524   6.816   6.415   0.359
10826SOL    HW232525   6.885   6.436   0.213
10827SOL     OW32526   5.669   6.859   1.013
10827SOL    HW132527   5.655   6.868   1.112
10827SOL    HW232528   5.599   6.798   0.976
10828SOL     OW32529   6.531   5.688   0.117
10828SOL    HW132530   6.606   5.718   0.058
10828SOL    HW232531   6.565   5.619   0.182
10829SOL     OW32532   6.870   6.506   0.662
10829SOL    HW132533   6.956   6.459   0.680
10829SOL    HW232534   6.888   6.588   0.607
10830SOL     OW32535   6.394   6.843   1.416
10830SOL    HW132536   6.369   6.884   1.504
10830SOL    HW232537   6.321   6.858   1.350
10831SOL     OW32538   5.841   5.903   0.716
10831SOL    HW132539   5.751   5.938   0.688
10831SOL    HW232540   5.844   5.894   0.816
10832SOL     OW32541   6.415   6.580   1.372
10832SOL    HW132542   6.471   6.559   1.293
10832SOL    HW232543   6.415   6.679   1.388
10833SOL     OW32544   6.502   6.492   0.289
10833SOL    HW132545   6.555   6.519   0.209
10833SOL    HW232546   6.554   6.426   0.343
10834SOL     OW32547   5.980   6.892   1.493
10834SOL    HW132548   5.944   6.984   1.482
10834SOL    HW232549   5.904   6.827   1.499
10835SOL     OW32550   6.640   6.701   0.722
10835SOL    HW132551   6.564   6.647   0.759
10835SOL    HW232552   6.710   6.640   0.686
10836SOL     OW32553   6.606   5.824   0.965
10836SOL    HW132554   6.599   5.780   0.875
10836SOL    HW232555   6.605   5.755   1.037
10837SOL     OW32556   5.695   6.611   1.717
10837SOL    HW132557   5.615   6.588   1.774
10837SOL    HW232558   5.778   6.576   1.760
10838SOL     OW32559   6.268   5.782   1.500
10838SOL    HW132560   6.354   5.757   1.455
10838SOL    HW232561   6.287   5.815   1.593
10839SOL     OW32562   5.689   5.910   0.013
10839SOL    HW132563   5.630   5.853   6.956
10839SOL    HW232564   5.722   5.988   6.959
10840SOL     OW32565   5.634   5.759   0.327
10840SOL    HW132566   5.623   5.852   0.291
10840SOL    HW232567   5.705   5.712   0.275
10841SOL     OW32568   6.210   6.411   1.435
10841SOL    HW132569   6.269   6.490   1.416
10841SOL    HW232570   6.266   6.330   1.445
10842SOL     OW32571   6.311   6.143   1.702
10842SOL    HW132572   6.353   6.209   1.763
10842SOL    HW232573   6.326   6.051   1.736
10843SOL     OW32574   0.028   6.858   1.650
10843SOL    HW132575   6.999   6.797   1.723
10843SOL    HW232576   0.105   6.816   1.600
10844SOL     OW32577   6.803   5.896   0.443
10844SOL    HW132578   6.876   5.841   0.404
10844SOL    HW232579   6.839   5.949   0.521
10845SOL     OW32580   6.171   6.321   0.668
10845SOL    HW132581   6.213   6.412   0.660
10845SOL    HW232582   6.102   6.310   0.597
10846SOL     OW32583   6.454   6.551   0.857
10846SOL    HW132584   6.507   6.473   0.891
10846SOL    HW232585   6.422   6.605   0.935
10847SOL     OW32586   6.659   6.559   0.078
10847SOL    HW132587   6.688   6.654   0.062
10847SOL    HW232588   6.738   6.498   0.068
10848SOL     OW32589   5.798   6.911   1.810
10848SOL    HW132590   5.741   6.829   1.821
10848SOL    HW232591   5.810   6.954   1.900
10849SOL     OW32592   5.681   6.821   0.674
10849SOL    HW132593   5.699   6.761   0.751
10849SOL    HW232594   5.738   6.794   0.596
10850SOL     OW32595   6.287   6.970   1.630
10850SOL    HW132596   6.190   6.967   1.655
10850SOL    HW232597   6.312   0.065   1.608
10851SOL     OW32598   6.016   6.014   0.528
10851SOL    HW132599   6.047   5.943   0.465
10851SOL    HW232600   5.961   5.973   0.601
10852SOL     OW32601   5.922   6.142   1.289
10852SOL    HW132602   5.978   6.084   1.348
10852SOL    HW232603   5.936   6.116   1.193
10853SOL     OW32604   6.992   5.806   1.116
10853SOL    HW132605   0.010   5.715   1.153
10853SOL    HW232606   6.940   5.860   1.183
10854SOL     OW32607   6.599   5.600   1.136
10854SOL    HW132608   6.540   5.533   1.091
10854SOL    HW232609   6.692   5.564   1.141
10855SOL     OW32610   6.391   6.880   0.290
10855SOL    HW132611   6.351   6.791   0.314
10855SOL    HW232612   6.400   6.936   0.373
10856SOL     OW32613   5.664   6.644   0.316
10856SOL    HW132614   5.762   6.626   0.317
10856SOL    HW232615   5.615   6.560   0.342
10857SOL     OW32616   5.806   6.205   1.990
10857SOL    HW132617   5.715   6.204   2.031
10857SOL    HW232618   5.799   6.182   1.893
10858SOL     OW32619   5.808   5.869   2.857
10858SOL    HW132620   5.841   5.835   2.945
10858SOL    HW232621   5.715   5.836   2.840
10859SOL     OW32622   5.586   5.972   2.496
10859SOL    HW132623   5.502   6.002   2.542
10859SOL    HW232624   5.567   5.889   2.444
10860SOL     OW32625   6.155   6.874   3.038
10860SOL    HW132626   6.081   6.881   2.971
10860SOL    HW232627   6.123   6.910   3.126
10861SOL     OW32628   0.067   0.132   2.540
10861SOL    HW132629   6.997   0.094   2.600
10861SOL    HW232630   0.116   0.057   2.494
10862SOL     OW32631   6.692   6.308   2.549
10862SOL    HW132632   6.759   6.382   2.537
10862SOL    HW232633   6.657   6.309   2.643
10863SOL     OW32634   6.350   6.748   2.887
10863SOL    HW132635   6.283   6.787   2.951
10863SOL    HW232636   6.348   6.800   2.801
10864SOL     OW32637   6.462   6.350   3.685
10864SOL    HW132638   6.455   6.415   3.760
10864SOL    HW232639   6.487   6.398   3.601
10865SOL     OW32640   6.272   6.583   2.509
10865SOL    HW132641   6.342   6.572   2.579
10865SOL    HW232642   6.196   6.637   2.546
10866SOL     OW32643   6.277   6.733   3.677
10866SOL    HW132644   6.315   6.823   3.699
10866SOL    HW232645   6.200   6.744   3.614
10867SOL     OW32646   5.922   0.006   2.921
10867SOL    HW132647   5.843   6.960   2.880
10867SOL    HW232648   5.969   0.059   2.851
10868SOL     OW32649   6.037   5.978   3.339
10868SOL    HW132650   6.118   5.920   3.347
10868SOL    HW232651   5.955   5.924   3.359
10869SOL     OW32652   5.846   6.676   2.765
10869SOL    HW132653   5.844   6.581   2.798
10869SOL    HW232654   5.785   6.731   2.822
10870SOL     OW32655   6.163   6.566   2.006
10870SOL    HW132656   6.209   6.615   1.932
10870SOL    HW232657   6.205   6.592   2.093
10871SOL     OW32658   5.701   6.245   2.427
10871SOL    HW132659   5.671   6.152   2.445
10871SOL    HW232660   5.694   6.299   2.512
10872SOL     OW32661   5.713   6.331   3.447
10872SOL    HW132662   5.810   6.354   3.447
10872SOL    HW232663   5.658   6.415   3.455
10873SOL     OW32664   6.858   6.792   3.307
10873SOL    HW132665   6.901   6.722   3.250
10873SOL    HW232666   6.920   6.819   3.380
10874SOL     OW32667   6.402   5.598   2.373
10874SOL    HW132668   6.448   5.684   2.349
10874SOL    HW232669   6.304   5.613   2.380
10875SOL     OW32670   5.777   6.550   3.138
10875SOL    HW132671   5.865   6.504   3.124
10875SOL    HW232672   5.706   6.502   3.087
10876SOL     OW32673   5.928   5.835   3.698
10876SOL    HW132674   5.976   5.921   3.715
10876SOL    HW232675   5.831   5.848   3.715
10877SOL     OW32676   6.180   6.302   2.137
10877SOL    HW132677   6.186   6.388   2.086
10877SOL    HW232678   6.112   6.310   2.209
10878SOL     OW32679   6.871   5.906   2.753
10878SOL    HW132680   6.773   5.897   2.769
10878SOL    HW232681   6.921   5.871   2.833
10879SOL     OW32682   6.384   6.196   3.313
10879SOL    HW132683   6.355   6.173   3.406
10879SOL    HW232684   6.345   6.130   3.249
10880SOL     OW32685   6.941   6.049   3.538
10880SOL    HW132686   6.917   6.136   3.582
10880SOL    HW232687   0.041   6.042   3.532
10881SOL     OW32688   6.545   6.472   3.447
10881SOL    HW132689   6.603   6.398   3.411
10881SOL    HW232690   6.491   6.511   3.373
10882SOL     OW32691   6.584   5.997   3.092
10882SOL    HW132692   6.491   6.013   3.126
10882SOL    HW232693   6.579   5.948   3.005
10883SOL     OW32694   6.634   6.287   2.285
10883SOL    HW132695   6.653   6.290   2.383
10883SOL    HW232696   6.548   6.238   2.269
10884SOL     OW32697   5.672   6.414   2.642
10884SOL    HW132698   5.758   6.402   2.692
10884SOL    HW232699   5.621   6.491   2.680
10885SOL     OW32700   6.481   5.938   2.058
10885SOL    HW132701   6.523   6.006   1.997
10885SOL    HW232702   6.484   5.848   2.014
10886SOL     OW32703   6.935   6.720   2.375
10886SOL    HW132704   6.998   6.698   2.301
10886SOL    HW232705   6.882   6.801   2.351
10887SOL     OW32706   6.134   5.759   2.764
10887SOL    HW132707   6.138   5.789   2.859
10887SOL    HW232708   6.136   5.838   2.704
10888SOL     OW32709   5.907   6.546   2.121
10888SOL    HW132710   5.996   6.563   2.077
10888SOL    HW232711   5.868   6.461   2.087
10889SOL     OW32712   5.788   5.860   3.365
10889SOL    HW132713   5.706   5.916   3.362
10889SOL    HW232714   5.767   5.772   3.407
10890SOL     OW32715   5.982   6.273   2.336
10890SOL    HW132716   6.001   6.176   2.350
10890SOL    HW232717   5.885   6.291   2.354
10891SOL     OW32718   6.229   5.702   1.963
10891SOL    HW132719   6.293   5.629   1.987
10891SOL    HW232720   6.171   5.671   1.887
10892SOL     OW32721   6.348   5.862   3.621
10892SOL    HW132722   6.431   5.806   3.613
10892SOL    HW232723   6.294   5.832   3.699
10893SOL     OW32724   6.512   6.091   2.761
10893SOL    HW132725   6.487   6.085   2.664
10893SOL    HW232726   6.543   6.002   2.793
10894SOL     OW32727   6.133   5.650   2.355
10894SOL    HW132728   6.051   5.648   2.413
10894SOL    HW232729   6.129   5.730   2.295
10895SOL     OW32730   6.981   6.709   1.879
10895SOL    HW132731   0.021   6.663   1.959
10895SOL    HW232732   6.932   6.790   1.909
10896SOL     OW32733   5.876   5.635   2.048
10896SOL    HW132734   5.928   5.706   2.001
10896SOL    HW232735   5.939   5.570   2.091
10897SOL     OW32736   6.531   5.836   2.315
10897SOL    HW132737   6.497   5.878   2.230
10897SOL    HW232738   6.630   5.848   2.320
10898SOL     OW32739   6.654   6.254   3.321
10898SOL    HW132740   6.560   6.221   3.322
10898SOL    HW232741   6.717   6.176   3.327
10899SOL     OW32742   6.822   0.096   2.653
10899SOL    HW132743   6.783   0.165   2.592
10899SOL    HW232744   6.834   0.135   2.744
10900SOL     OW32745   6.052   6.713   2.596
10900SOL    HW132746   5.981   6.705   2.667
10900SOL    HW232747   6.009   6.711   2.506
10901SOL     OW32748   6.608   6.122   1.888
10901SOL    HW132749   6.563   6.209   1.869
10901SOL    HW232750   6.673   6.134   1.963
10902SOL     OW32751   5.673   6.144   3.253
10902SOL    HW132752   5.768   6.139   3.221
10902SOL    HW232753   5.665   6.215   3.322
10903SOL     OW32754   6.145   5.810   3.036
10903SOL    HW132755   6.194   5.734   3.078
10903SOL    HW232756   6.049   5.809   3.065
10904SOL     OW32757   6.449   6.040   2.500
10904SOL    HW132758   6.406   6.107   2.440
10904SOL    HW232759   6.476   5.960   2.446
10905SOL     OW32760   6.607   5.634   2.602
10905SOL    HW132761   6.541   5.637   2.527
10905SOL    HW232762   6.581   5.561   2.666
10906SOL     OW32763   6.115   5.850   2.170
10906SOL    HW132764   6.163   5.798   2.099
10906SOL    HW232765   6.085   5.938   2.132
10907SOL     OW32766   6.647   6.892   3.184
10907SOL    HW132767   6.563   6.878   3.237
10907SOL    HW232768   6.726   6.864   3.238
10908SOL     OW32769   6.733   6.774   2.956
10908SOL    HW132770   6.694   6.815   3.038
10908SOL    HW232771   6.668   6.780   2.881
10909SOL     OW32772   6.504   5.682   3.248
10909SOL    HW132773   6.526   5.657   3.154
10909SOL    HW232774   6.585   5.722   3.291
10910SOL     OW32775   6.551   6.698   3.601
10910SOL    HW132776   6.453   6.709   3.619
10910SOL    HW232777   6.565   6.624   3.534
10911SOL     OW32778   6.293   6.639   2.232
10911SOL    HW132779   6.279   6.629   2.330
10911SOL    HW232780   6.374   6.587   2.204
10912SOL     OW32781   6.008   6.401   3.117
10912SOL    HW132782   6.081   6.414   3.184
10912SOL    HW232783   5.969   6.309   3.127
10913SOL     OW32784   6.851   5.959   3.156
10913SOL    HW132785   6.908   6.038   3.175
10913SOL    HW232786   6.760   5.989   3.129
10914SOL     OW32787   5.925   6.706   2.353
10914SOL    HW132788   5.971   6.784   2.310
10914SOL    HW232789   5.918   6.630   2.288
10915SOL     OW32790   6.133   6.130   2.725
10915SOL    HW132791   6.147   6.189   2.646
10915SOL    HW232792   6.204   6.149   2.793
10916SOL     OW32793   6.818   6.953   2.281
10916SOL    HW132794   6.860   0.036   2.318
10916SOL    HW232795   6.720   6.953   2.305
10917SOL     OW32796   6.002   6.331   3.463
10917SOL    HW132797   6.069   6.375   3.403
10917SOL    HW232798   6.033   6.238   3.486
10918SOL     OW32799   6.577   5.711   3.615
10918SOL    HW132800   6.629   5.794   3.597
10918SOL    HW232801   6.632   5.631   3.592
10919SOL     OW32802   6.078   5.623   3.612
10919SOL    HW132803   6.033   5.564   3.545
10919SOL    HW232804   6.020   5.703   3.631
10920SOL     OW32805   6.169   6.452   2.898
10920SOL    HW132806   6.194   6.548   2.886
10920SOL    HW232807   6.107   6.443   2.976
10921SOL     OW32808   6.953   6.432   2.890
10921SOL    HW132809   6.859   6.422   2.857
10921SOL    HW232810   6.988   6.342   2.917
10922SOL     OW32811   6.765   6.119   2.113
10922SOL    HW132812   6.782   6.034   2.164
10922SOL    HW232813   6.728   6.188   2.175
10923SOL     OW32814   5.883   5.782   3.109
10923SOL    HW132815   5.847   5.818   3.195
10923SOL    HW232816   5.868   5.683   3.105
10924SOL     OW32817   5.647   6.898   3.144
10924SOL    HW132818   5.681   6.842   3.220
10924SOL    HW232819   5.642   6.993   3.172
10925SOL     OW32820   6.313   6.216   2.918
10925SOL    HW132821   6.387   6.196   2.855
10925SOL    HW232822   6.275   6.307   2.899
10926SOL     OW32823   5.893   5.647   2.490
10926SOL    HW132824   5.868   5.742   2.508
10926SOL    HW232825   5.905   5.598   2.577
10927SOL     OW32826   0.209   6.039   2.197
10927SOL    HW132827   0.168   5.948   2.199
10927SOL    HW232828   0.190   6.086   2.283
10928SOL     OW32829   6.609   6.339   2.820
10928SOL    HW132830   6.604   6.360   2.918
10928SOL    HW232831   6.584   6.244   2.805
10929SOL     OW32832   5.940   6.508   3.663
10929SOL    HW132833   6.015   6.519   3.729
10929SOL    HW232834   5.965   6.440   3.594
10930SOL     OW32835   6.889   6.401   1.892
10930SOL    HW132836   6.955   6.336   1.929
10930SOL    HW232837   6.930   6.450   1.814
10931SOL     OW32838   5.895   6.392   2.804
10931SOL    HW132839   5.992   6.416   2.794
10931SOL    HW232840   5.888   6.298   2.837
10932SOL     OW32841   5.912   6.114   2.874
10932SOL    HW132842   5.874   6.022   2.863
10932SOL    HW232843   5.993   6.123   2.816
10933SOL     OW32844   6.695   5.948   3.552
10933SOL    HW132845   6.647   6.009   3.615
10933SOL    HW232846   6.791   5.976   3.544
10934SOL     OW32847   6.742   5.781   3.337
10934SOL    HW132848   6.722   5.840   3.415
10934SOL    HW232849   6.787   5.835   3.265
10935SOL     OW32850   5.609   6.894   2.044
10935SOL    HW132851   5.521   6.923   2.007
10935SOL    HW232852   5.599   6.805   2.089
10936SOL     OW32853   6.562   6.377   3.086
10936SOL    HW132854   6.622   6.351   3.162
10936SOL    HW232855   6.474   6.330   3.097
10937SOL     OW32856   5.623   6.139   2.979
10937SOL    HW132857   5.705   6.127   2.924
10937SOL    HW232858   5.649   6.141   3.076
10938SOL     OW32859   5.778   6.109   3.593
10938SOL    HW132860   5.828   6.053   3.527
10938SOL    HW232861   5.740   6.189   3.546
10939SOL     OW32862   6.403   6.157   2.223
10939SOL    HW132863   6.412   6.078   2.162
10939SOL    HW232864   6.325   6.212   2.195
10940SOL     OW32865   6.299   6.033   3.116
10940SOL    HW132866   6.239   5.956   3.093
10940SOL    HW232867   6.294   6.101   3.042
10941SOL     OW32868   6.044   6.080   2.045
10941SOL    HW132869   6.108   6.152   2.072
10941SOL    HW232870   5.953   6.121   2.033
10942SOL     OW32871   5.754   6.728   3.339
10942SOL    HW132872   5.743   6.680   3.426
10942SOL    HW232873   5.764   6.662   3.265
10943SOL     OW32874   6.915   6.622   3.086
10943SOL    HW132875   6.934   6.548   3.022
10943SOL    HW232876   6.847   6.684   3.046
10944SOL     OW32877   6.888   6.455   2.170
10944SOL    HW132878   6.820   6.419   2.233
10944SOL    HW232879   6.860   6.436   2.076
10945SOL     OW32880   5.669   6.859   2.875
10945SOL    HW132881   5.655   6.868   2.974
10945SOL    HW232882   5.598   6.798   2.838
10946SOL     OW32883   6.870   6.506   2.520
10946SOL    HW132884   6.956   6.460   2.543
10946SOL    HW232885   6.889   6.587   2.465
10947SOL     OW32886   6.394   6.843   3.278
10947SOL    HW132887   6.369   6.884   3.366
10947SOL    HW232888   6.321   6.858   3.212
10948SOL     OW32889   5.840   5.899   2.577
10948SOL    HW132890   5.752   5.936   2.549
10948SOL    HW232891   5.844   5.892   2.677
10949SOL     OW32892   6.832   0.205   1.901
10949SOL    HW132893   6.844   0.120   1.953
10949SOL    HW232894   6.743   0.204   1.856
10950SOL     OW32895   6.414   6.580   3.235
10950SOL    HW132896   6.471   6.558   3.155
10950SOL    HW232897   6.415   6.679   3.250
10951SOL     OW32898   6.502   6.493   2.147
10951SOL    HW132899   6.566   6.529   2.079
10951SOL    HW232900   6.549   6.424   2.203
10952SOL     OW32901   5.980   6.892   3.356
10952SOL    HW132902   5.944   6.984   3.344
10952SOL    HW232903   5.904   6.827   3.362
10953SOL     OW32904   6.642   6.700   2.586
10953SOL    HW132905   6.565   6.647   2.621
10953SOL    HW232906   6.712   6.639   2.549
10954SOL     OW32907   6.606   5.825   2.828
10954SOL    HW132908   6.601   5.781   2.738
10954SOL    HW232909   6.605   5.756   2.899
10955SOL     OW32910   5.695   6.611   3.579
10955SOL    HW132911   5.616   6.589   3.636
10955SOL    HW232912   5.778   6.576   3.622
10956SOL     OW32913   6.268   5.781   3.362
10956SOL    HW132914   6.354   5.757   3.317
10956SOL    HW232915   6.287   5.815   3.454
10957SOL     OW32916   5.667   5.913   1.891
10957SOL    HW132917   5.576   5.889   1.858
10957SOL    HW232918   5.699   5.995   1.843
10958SOL     OW32919   5.648   5.741   2.163
10958SOL    HW132920   5.632   5.825   2.112
10958SOL    HW232921   5.736   5.702   2.136
10959SOL     OW32922   6.210   6.411   3.297
10959SOL    HW132923   6.269   6.490   3.278
10959SOL    HW232924   6.266   6.329   3.307
10960SOL     OW32925   6.310   6.143   3.564
10960SOL    HW132926   6.353   6.209   3.625
10960SOL    HW232927   6.326   6.051   3.598
10961SOL     OW32928   0.029   6.858   3.512
10961SOL    HW132929   6.999   6.797   3.585
10961SOL    HW232930   0.105   6.816   3.462
10962SOL     OW32931   6.808   5.898   2.300
10962SOL    HW132932   6.883   5.845   2.260
10962SOL    HW232933   6.843   5.952   2.376
10963SOL     OW32934   6.170   6.323   2.532
10963SOL    HW132935   6.213   6.412   2.521
10963SOL    HW232936   6.102   6.309   2.460
10964SOL     OW32937   6.453   6.551   2.720
10964SOL    HW132938   6.507   6.474   2.753
10964SOL    HW232939   6.422   6.606   2.797
10965SOL     OW32940   6.666   6.567   1.949
10965SOL    HW132941   6.635   6.628   1.876
10965SOL    HW232942   6.744   6.514   1.916
10966SOL     OW32943   5.797   6.911   3.672
10966SOL    HW132944   5.742   6.828   3.682
10966SOL    HW232945   5.809   6.954   3.762
10967SOL     OW32946   5.681   6.819   2.536
10967SOL    HW132947   5.701   6.759   2.613
10967SOL    HW232948   5.742   6.798   2.460
10968SOL     OW32949   6.287   6.970   3.492
10968SOL    HW132950   6.190   6.967   3.516
10968SOL    HW232951   6.312   0.065   3.470
10969SOL     OW32952   6.016   6.013   2.388
10969SOL    HW132953   6.050   5.943   2.326
10969SOL    HW232954   5.961   5.970   2.460
10970SOL     OW32955   5.922   6.142   3.151
10970SOL    HW132956   5.978   6.084   3.210
10970SOL    HW232957   5.936   6.116   3.055
10971SOL     OW32958   6.991   5.806   2.978
10971SOL    HW132959   0.011   5.716   3.016
10971SOL    HW232960   6.939   5.859   3.045
10972SOL     OW32961   6.599   5.600   2.998
10972SOL    HW132962   6.540   5.533   2.954
10972SOL    HW232963   6.693   5.565   3.003
10973SOL     OW32964   6.338   6.908   2.128
10973SOL    HW132965   6.319   6.812   2.148
10973SOL    HW232966   6.377   6.951   2.210
10974SOL     OW32967   6.909   5.668   2.004
10974SOL    HW132968   6.948   5.618   1.927
10974SOL    HW232969   6.831   5.618   2.042
10975SOL     OW32970   5.622   6.645   2.173
10975SOL    HW132971   5.720   6.651   2.152
10975SOL    HW232972   5.599   6.551   2.195
10976SOL     OW32973   5.806   6.205   3.852
10976SOL    HW132974   5.715   6.204   3.893
10976SOL    HW232975   5.799   6.182   3.755
10977SOL     OW32976   5.808   5.869   4.719
10977SOL    HW132977   5.841   5.835   4.807
10977SOL    HW232978   5.715   5.836   4.702
10978SOL     OW32979   5.586   5.972   4.358
10978SOL    HW132980   5.502   6.002   4.404
10978SOL    HW232981   5.567   5.889   4.306
10979SOL     OW32982   6.155   6.875   4.901
10979SOL    HW132983   6.081   6.881   4.833
10979SOL    HW232984   6.122   6.909   4.989
10980SOL     OW32985   0.067   0.132   4.402
10980SOL    HW132986   6.997   0.094   4.462
10980SOL    HW232987   0.116   0.057   4.356
10981SOL     OW32988   6.692   6.308   4.411
10981SOL    HW132989   6.759   6.382   4.399
10981SOL    HW232990   6.657   6.309   4.505
10982SOL     OW32991   6.350   6.749   4.749
10982SOL    HW132992   6.283   6.787   4.813
10982SOL    HW232993   6.348   6.800   4.664
10983SOL     OW32994   6.462   6.350   5.547
10983SOL    HW132995   6.455   6.415   5.622
10983SOL    HW232996   6.487   6.398   5.463
10984SOL     OW32997   6.272   6.583   4.371
10984SOL    HW132998   6.342   6.572   4.441
10984SOL    HW232999   6.196   6.637   4.408
10985SOL     OW33000   6.277   6.733   5.539
10985SOL    HW133001   6.315   6.823   5.561
10985SOL    HW233002   6.200   6.744   5.476
10986SOL     OW33003   5.922   0.006   4.782
10986SOL    HW133004   5.843   6.960   4.742
10986SOL    HW233005   5.969   0.059   4.712
10987SOL     OW33006   6.037   5.978   5.201
10987SOL    HW133007   6.118   5.920   5.209
10987SOL    HW233008   5.955   5.924   5.221
10988SOL     OW33009   5.846   6.676   4.627
10988SOL    HW133010   5.844   6.581   4.660
10988SOL    HW233011   5.785   6.731   4.684
10989SOL     OW33012   6.163   6.566   3.868
10989SOL    HW133013   6.209   6.615   3.794
10989SOL    HW233014   6.205   6.592   3.955
10990SOL     OW33015   5.701   6.245   4.289
10990SOL    HW133016   5.671   6.152   4.307
10990SOL    HW233017   5.694   6.299   4.374
10991SOL     OW33018   5.713   6.331   5.309
10991SOL    HW133019   5.810   6.354   5.309
10991SOL    HW233020   5.658   6.415   5.317
10992SOL     OW33021   6.858   6.792   5.169
10992SOL    HW133022   6.901   6.722   5.113
10992SOL    HW233023   6.921   6.819   5.242
10993SOL     OW33024   6.402   5.598   4.236
10993SOL    HW133025   6.448   5.683   4.211
10993SOL    HW233026   6.304   5.613   4.242
10994SOL     OW33027   5.777   6.550   5.000
10994SOL    HW133028   5.865   6.503   4.986
10994SOL    HW233029   5.706   6.502   4.949
10995SOL     OW33030   5.928   5.836   5.559
10995SOL    HW133031   5.976   5.921   5.577
10995SOL    HW233032   5.831   5.848   5.577
10996SOL     OW33033   6.180   6.302   3.999
10996SOL    HW133034   6.186   6.388   3.948
10996SOL    HW233035   6.112   6.310   4.071
10997SOL     OW33036   6.871   5.906   4.615
10997SOL    HW133037   6.773   5.897   4.631
10997SOL    HW233038   6.921   5.871   4.695
10998SOL     OW33039   6.384   6.196   5.175
10998SOL    HW133040   6.355   6.173   5.268
10998SOL    HW233041   6.345   6.130   5.111
10999SOL     OW33042   6.941   6.049   5.400
10999SOL    HW133043   6.917   6.136   5.443
10999SOL    HW233044   0.041   6.042   5.394
11000SOL     OW33045   6.545   6.472   5.309
11000SOL    HW133046   6.603   6.398   5.273
11000SOL    HW233047   6.491   6.511   5.235
11001SOL     OW33048   6.584   5.997   4.954
11001SOL    HW133049   6.491   6.013   4.988
11001SOL    HW233050   6.579   5.949   4.867
11002SOL     OW33051   6.634   6.287   4.147
11002SOL    HW133052   6.653   6.290   4.245
11002SOL    HW233053   6.548   6.238   4.131
11003SOL     OW33054   5.672   6.414   4.504
11003SOL    HW133055   5.758   6.402   4.554
11003SOL    HW233056   5.621   6.491   4.542
11004SOL     OW33057   6.481   5.938   3.920
11004SOL    HW133058   6.523   6.006   3.859
11004SOL    HW233059   6.484   5.848   3.876
11005SOL     OW33060   6.935   6.720   4.237
11005SOL    HW133061   6.998   6.698   4.162
11005SOL    HW233062   6.882   6.801   4.213
11006SOL     OW33063   6.134   5.759   4.626
11006SOL    HW133064   6.138   5.789   4.721
11006SOL    HW233065   6.136   5.838   4.565
11007SOL     OW33066   5.907   6.546   3.983
11007SOL    HW133067   5.996   6.563   3.939
11007SOL    HW233068   5.868   6.461   3.949
11008SOL     OW33069   5.788   5.860   5.227
11008SOL    HW133070   5.706   5.917   5.224
11008SOL    HW233071   5.767   5.772   5.270
11009SOL     OW33072   5.982   6.273   4.198
11009SOL    HW133073   6.001   6.176   4.212
11009SOL    HW233074   5.885   6.291   4.216
11010SOL     OW33075   6.228   5.702   3.825
11010SOL    HW133076   6.294   5.630   3.848
11010SOL    HW233077   6.171   5.671   3.749
11011SOL     OW33078   6.349   5.862   5.483
11011SOL    HW133079   6.431   5.806   5.475
11011SOL    HW233080   6.294   5.832   5.561
11012SOL     OW33081   6.512   6.091   4.623
11012SOL    HW133082   6.487   6.085   4.526
11012SOL    HW233083   6.543   6.002   4.655
11013SOL     OW33084   6.133   5.650   4.217
11013SOL    HW133085   6.051   5.648   4.275
11013SOL    HW233086   6.129   5.730   4.157
11014SOL     OW33087   6.981   6.708   3.741
11014SOL    HW133088   0.021   6.663   3.821
11014SOL    HW233089   6.932   6.790   3.771
11015SOL     OW33090   5.876   5.635   3.910
11015SOL    HW133091   5.928   5.706   3.863
11015SOL    HW233092   5.939   5.570   3.953
11016SOL     OW33093   6.531   5.836   4.177
11016SOL    HW133094   6.497   5.878   4.092
11016SOL    HW233095   6.630   5.848   4.182
11017SOL     OW33096   6.654   6.253   5.183
11017SOL    HW133097   6.560   6.221   5.184
11017SOL    HW233098   6.717   6.175   5.188
11018SOL     OW33099   6.823   0.096   4.515
11018SOL    HW133100   6.783   0.165   4.454
11018SOL    HW233101   6.834   0.135   4.606
11019SOL     OW33102   6.052   6.713   4.458
11019SOL    HW133103   5.981   6.705   4.529
11019SOL    HW233104   6.009   6.711   4.368
11020SOL     OW33105   6.608   6.122   3.751
11020SOL    HW133106   6.563   6.209   3.731
11020SOL    HW233107   6.673   6.134   3.825
11021SOL     OW33108   5.673   6.144   5.115
11021SOL    HW133109   5.768   6.139   5.083
11021SOL    HW233110   5.665   6.215   5.184
11022SOL     OW33111   6.145   5.810   4.898
11022SOL    HW133112   6.194   5.734   4.940
11022SOL    HW233113   6.049   5.809   4.927
11023SOL     OW33114   6.449   6.040   4.362
11023SOL    HW133115   6.406   6.107   4.302
11023SOL    HW233116   6.476   5.960   4.308
11024SOL     OW33117   6.607   5.634   4.464
11024SOL    HW133118   6.541   5.637   4.389
11024SOL    HW233119   6.581   5.561   4.528
11025SOL     OW33120   6.115   5.850   4.032
11025SOL    HW133121   6.163   5.798   3.961
11025SOL    HW233122   6.085   5.938   3.995
11026SOL     OW33123   6.647   6.892   5.046
11026SOL    HW133124   6.563   6.878   5.099
11026SOL    HW233125   6.726   6.864   5.100
11027SOL     OW33126   6.733   6.774   4.818
11027SOL    HW133127   6.694   6.815   4.900
11027SOL    HW233128   6.668   6.780   4.743
11028SOL     OW33129   6.505   5.681   5.110
11028SOL    HW133130   6.526   5.657   5.016
11028SOL    HW233131   6.585   5.722   5.153
11029SOL     OW33132   6.551   6.698   5.463
11029SOL    HW133133   6.453   6.709   5.481
11029SOL    HW233134   6.565   6.624   5.396
11030SOL     OW33135   6.293   6.639   4.094
11030SOL    HW133136   6.279   6.629   4.192
11030SOL    HW233137   6.374   6.587   4.066
11031SOL     OW33138   6.008   6.401   4.979
11031SOL    HW133139   6.080   6.414   5.046
11031SOL    HW233140   5.969   6.309   4.989
11032SOL     OW33141   6.851   5.959   5.018
11032SOL    HW133142   6.908   6.038   5.037
11032SOL    HW233143   6.760   5.989   4.991
11033SOL     OW33144   5.925   6.706   4.215
11033SOL    HW133145   5.971   6.784   4.172
11033SOL    HW233146   5.918   6.630   4.150
11034SOL     OW33147   6.133   6.130   4.587
11034SOL    HW133148   6.147   6.189   4.508
11034SOL    HW233149   6.204   6.149   4.655
11035SOL     OW33150   6.817   6.953   4.143
11035SOL    HW133151   6.860   0.036   4.181
11035SOL    HW233152   6.720   6.953   4.167
11036SOL     OW33153   6.002   6.331   5.325
11036SOL    HW133154   6.069   6.375   5.265
11036SOL    HW233155   6.033   6.238   5.348
11037SOL     OW33156   6.577   5.711   5.477
11037SOL    HW133157   6.629   5.794   5.459
11037SOL    HW233158   6.633   5.631   5.454
11038SOL     OW33159   6.078   5.623   5.474
11038SOL    HW133160   6.033   5.564   5.407
11038SOL    HW233161   6.020   5.703   5.493
11039SOL     OW33162   6.169   6.452   4.760
11039SOL    HW133163   6.194   6.548   4.748
11039SOL    HW233164   6.107   6.443   4.838
11040SOL     OW33165   6.953   6.432   4.753
11040SOL    HW133166   6.859   6.423   4.719
11040SOL    HW233167   6.988   6.342   4.779
11041SOL     OW33168   6.765   6.119   3.975
11041SOL    HW133169   6.782   6.034   4.026
11041SOL    HW233170   6.728   6.188   4.037
11042SOL     OW33171   5.883   5.782   4.971
11042SOL    HW133172   5.847   5.818   5.057
11042SOL    HW233173   5.868   5.683   4.967
11043SOL     OW33174   5.647   6.898   5.006
11043SOL    HW133175   5.681   6.842   5.082
11043SOL    HW233176   5.642   6.993   5.035
11044SOL     OW33177   6.313   6.216   4.780
11044SOL    HW133178   6.387   6.197   4.717
11044SOL    HW233179   6.275   6.307   4.761
11045SOL     OW33180   5.893   5.647   4.352
11045SOL    HW133181   5.868   5.742   4.370
11045SOL    HW233182   5.905   5.598   4.439
11046SOL     OW33183   0.209   6.039   4.059
11046SOL    HW133184   0.168   5.948   4.061
11046SOL    HW233185   0.190   6.086   4.145
11047SOL     OW33186   6.609   6.339   4.682
11047SOL    HW133187   6.604   6.360   4.780
11047SOL    HW233188   6.584   6.244   4.667
11048SOL     OW33189   5.940   6.508   5.526
11048SOL    HW133190   6.015   6.519   5.591
11048SOL    HW233191   5.965   6.440   5.456
11049SOL     OW33192   6.889   6.401   3.754
11049SOL    HW133193   6.955   6.336   3.791
11049SOL    HW233194   6.930   6.450   3.676
11050SOL     OW33195   5.895   6.392   4.666
11050SOL    HW133196   5.992   6.416   4.655
11050SOL    HW233197   5.888   6.298   4.699
11051SOL     OW33198   5.912   6.114   4.736
11051SOL    HW133199   5.874   6.022   4.725
11051SOL    HW233200   5.993   6.123   4.678
11052SOL     OW33201   6.695   5.948   5.414
11052SOL    HW133202   6.647   6.009   5.477
11052SOL    HW233203   6.791   5.976   5.406
11053SOL     OW33204   6.743   5.781   5.199
11053SOL    HW133205   6.722   5.840   5.277
11053SOL    HW233206   6.787   5.835   5.127
11054SOL     OW33207   5.609   6.894   3.907
11054SOL    HW133208   5.521   6.923   3.869
11054SOL    HW233209   5.599   6.805   3.951
11055SOL     OW33210   6.562   6.377   4.948
11055SOL    HW133211   6.622   6.351   5.024
11055SOL    HW233212   6.474   6.330   4.959
11056SOL     OW33213   5.623   6.139   4.841
11056SOL    HW133214   5.705   6.127   4.786
11056SOL    HW233215   5.649   6.141   4.938
11057SOL     OW33216   5.778   6.109   5.455
11057SOL    HW133217   5.828   6.053   5.389
11057SOL    HW233218   5.740   6.189   5.408
11058SOL     OW33219   6.403   6.157   4.085
11058SOL    HW133220   6.412   6.078   4.024
11058SOL    HW233221   6.325   6.212   4.057
11059SOL     OW33222   6.299   6.033   4.977
11059SOL    HW133223   6.239   5.956   4.955
11059SOL    HW233224   6.294   6.101   4.904
11060SOL     OW33225   6.044   6.080   3.907
11060SOL    HW133226   6.108   6.152   3.934
11060SOL    HW233227   5.953   6.121   3.895
11061SOL     OW33228   5.754   6.728   5.201
11061SOL    HW133229   5.743   6.680   5.288
11061SOL    HW233230   5.764   6.662   5.127
11062SOL     OW33231   6.915   6.623   4.948
11062SOL    HW133232   6.934   6.548   4.885
11062SOL    HW233233   6.847   6.684   4.908
11063SOL     OW33234   6.888   6.455   4.032
11063SOL    HW133235   6.819   6.419   4.095
11063SOL    HW233236   6.860   6.436   3.938
11064SOL     OW33237   5.669   6.859   4.738
11064SOL    HW133238   5.655   6.868   4.836
11064SOL    HW233239   5.598   6.798   4.700
11065SOL     OW33240   6.870   6.506   4.382
11065SOL    HW133241   6.956   6.460   4.405
11065SOL    HW233242   6.889   6.587   4.327
11066SOL     OW33243   6.394   6.843   5.140
11066SOL    HW133244   6.369   6.884   5.228
11066SOL    HW233245   6.321   6.859   5.073
11067SOL     OW33246   5.840   5.899   4.439
11067SOL    HW133247   5.752   5.936   4.411
11067SOL    HW233248   5.844   5.892   4.539
11068SOL     OW33249   6.832   0.205   3.763
11068SOL    HW133250   6.844   0.120   3.815
11068SOL    HW233251   6.743   0.203   3.717
11069SOL     OW33252   6.415   6.580   5.097
11069SOL    HW133253   6.470   6.558   5.017
11069SOL    HW233254   6.415   6.679   5.112
11070SOL     OW33255   6.502   6.493   4.009
11070SOL    HW133256   6.566   6.529   3.941
11070SOL    HW233257   6.549   6.424   4.065
11071SOL     OW33258   5.980   6.892   5.218
11071SOL    HW133259   5.944   6.984   5.206
11071SOL    HW233260   5.904   6.827   5.224
11072SOL     OW33261   6.642   6.700   4.448
11072SOL    HW133262   6.565   6.647   4.483
11072SOL    HW233263   6.712   6.639   4.411
11073SOL     OW33264   6.606   5.825   4.690
11073SOL    HW133265   6.601   5.781   4.600
11073SOL    HW233266   6.605   5.756   4.761
11074SOL     OW33267   5.695   6.611   5.441
11074SOL    HW133268   5.615   6.588   5.498
11074SOL    HW233269   5.778   6.576   5.484
11075SOL     OW33270   6.268   5.781   5.224
11075SOL    HW133271   6.354   5.757   5.179
11075SOL    HW233272   6.287   5.815   5.316
11076SOL     OW33273   5.667   5.913   3.753
11076SOL    HW133274   5.576   5.889   3.720
11076SOL    HW233275   5.699   5.995   3.705
11077SOL     OW33276   5.648   5.741   4.025
11077SOL    HW133277   5.632   5.825   3.974
11077SOL    HW233278   5.736   5.702   3.998
11078SOL     OW33279   6.210   6.411   5.159
11078SOL    HW133280   6.269   6.490   5.140
11078SOL    HW233281   6.266   6.329   5.169
11079SOL     OW33282   6.310   6.143   5.426
11079SOL    HW133283   6.353   6.209   5.487
11079SOL    HW233284   6.326   6.051   5.460
11080SOL     OW33285   0.029   6.858   5.374
11080SOL    HW133286   6.999   6.796   5.447
11080SOL    HW233287   0.105   6.816   5.324
11081SOL     OW33288   6.808   5.898   4.162
11081SOL    HW133289   6.883   5.845   4.121
11081SOL    HW233290   6.843   5.952   4.238
11082SOL     OW33291   6.170   6.323   4.394
11082SOL    HW133292   6.213   6.412   4.383
11082SOL    HW233293   6.102   6.309   4.322
11083SOL     OW33294   6.453   6.551   4.582
11083SOL    HW133295   6.507   6.474   4.615
11083SOL    HW233296   6.422   6.606   4.659
11084SOL     OW33297   6.666   6.567   3.811
11084SOL    HW133298   6.635   6.628   3.738
11084SOL    HW233299   6.744   6.514   3.779
11085SOL     OW33300   5.798   6.910   5.535
11085SOL    HW133301   5.742   6.828   5.544
11085SOL    HW233302   5.809   6.954   5.624
11086SOL     OW33303   5.681   6.819   4.398
11086SOL    HW133304   5.701   6.759   4.475
11086SOL    HW233305   5.742   6.798   4.322
11087SOL     OW33306   6.287   6.971   5.354
11087SOL    HW133307   6.190   6.967   5.378
11087SOL    HW233308   6.311   0.065   5.332
11088SOL     OW33309   6.016   6.013   4.250
11088SOL    HW133310   6.050   5.943   4.188
11088SOL    HW233311   5.961   5.970   4.322
11089SOL     OW33312   5.922   6.142   5.013
11089SOL    HW133313   5.978   6.084   5.072
11089SOL    HW233314   5.936   6.116   4.917
11090SOL     OW33315   6.991   5.806   4.840
11090SOL    HW133316   0.011   5.716   4.878
11090SOL    HW233317   6.939   5.859   4.907
11091SOL     OW33318   6.599   5.600   4.860
11091SOL    HW133319   6.540   5.533   4.815
11091SOL    HW233320   6.693   5.565   4.865
11092SOL     OW33321   6.338   6.908   3.990
11092SOL    HW133322   6.319   6.812   4.010
11092SOL    HW233323   6.376   6.952   4.072
11093SOL     OW33324   6.909   5.668   3.866
11093SOL    HW133325   6.948   5.618   3.789
11093SOL    HW233326   6.831   5.618   3.904
11094SOL     OW33327   5.623   6.645   4.035
11094SOL    HW133328   5.720   6.651   4.014
11094SOL    HW233329   5.599   6.551   4.057
11095SOL     OW33330   5.806   6.205   5.714
11095SOL    HW133331   5.715   6.203   5.755
11095SOL    HW233332   5.799   6.182   5.617
11096SOL     OW33333   5.806   5.875   6.583
11096SOL    HW133334   5.842   5.836   6.667
11096SOL    HW233335   5.714   5.838   6.565
11097SOL     OW33336   5.585   5.972   6.221
11097SOL    HW133337   5.501   6.004   6.266
11097SOL    HW233338   5.566   5.889   6.169
11098SOL     OW33339   6.146   6.881   6.771
11098SOL    HW133340   6.080   6.898   6.698
11098SOL    HW233341   6.099   6.875   6.859
11099SOL     OW33342   0.069   0.131   6.262
11099SOL    HW133343   6.991   0.103   6.319
11099SOL    HW233344   0.114   0.049   6.225
11100SOL     OW33345   6.693   6.308   6.274
11100SOL    HW133346   6.758   6.382   6.263
11100SOL    HW233347   6.657   6.309   6.368
11101SOL     OW33348   6.341   6.743   6.613
11101SOL    HW133349   6.279   6.782   6.680
11101SOL    HW233350   6.344   6.802   6.532
11102SOL     OW33351   6.272   6.583   6.233
11102SOL    HW133352   6.342   6.572   6.304
11102SOL    HW233353   6.196   6.636   6.271
11103SOL     OW33354   5.923   0.011   6.640
11103SOL    HW133355   5.843   6.963   6.603
11103SOL    HW233356   5.966   0.064   6.567
11104SOL     OW33357   5.848   6.677   6.494
11104SOL    HW133358   5.844   6.582   6.526
11104SOL    HW233359   5.787   6.733   6.549
11105SOL     OW33360   6.163   6.566   5.730
11105SOL    HW133361   6.209   6.615   5.656
11105SOL    HW233362   6.205   6.592   5.817
11106SOL     OW33363   0.241   5.779   0.084
11106SOL    HW133364   0.173   5.852   0.076
11106SOL    HW233365   0.197   5.698   0.124
11107SOL     OW33366   5.701   6.245   6.151
11107SOL    HW133367   5.671   6.152   6.169
11107SOL    HW233368   5.695   6.299   6.236
11108SOL     OW33369   6.843   6.779   0.027
11108SOL    HW133370   6.888   6.723   6.957
11108SOL    HW233371   6.912   6.826   0.082
11109SOL     OW33372   6.403   5.598   6.097
11109SOL    HW133373   6.447   5.684   6.073
11109SOL    HW233374   6.304   5.612   6.104
11110SOL     OW33375   5.777   6.555   6.836
11110SOL    HW133376   5.860   6.500   6.823
11110SOL    HW233377   5.697   6.501   6.811
11111SOL     OW33378   6.180   6.302   5.861
11111SOL    HW133379   6.185   6.388   5.810
11111SOL    HW233380   6.112   6.310   5.933
11112SOL     OW33381   6.870   5.909   6.477
11112SOL    HW133382   6.772   5.895   6.489
11112SOL    HW233383   6.919   5.874   6.557
11113SOL     OW33384   6.407   6.166   0.047
11113SOL    HW133385   6.354   6.228   0.106
11113SOL    HW233386   6.345   6.124   6.980
11114SOL     OW33387   6.566   5.960   6.800
11114SOL    HW133388   6.486   6.010   6.834
11114SOL    HW233389   6.542   5.911   6.717
11115SOL     OW33390   6.634   6.287   6.010
11115SOL    HW133391   6.653   6.289   6.108
11115SOL    HW233392   6.549   6.238   5.993
11116SOL     OW33393   5.675   6.411   6.367
11116SOL    HW133394   5.760   6.402   6.418
11116SOL    HW233395   5.623   6.489   6.402
11117SOL     OW33396   6.481   5.938   5.782
11117SOL    HW133397   6.523   6.006   5.721
11117SOL    HW233398   6.483   5.848   5.738
11118SOL     OW33399   6.935   6.719   6.100
11118SOL    HW133400   6.997   6.697   6.025
11118SOL    HW233401   6.882   6.801   6.076
11119SOL     OW33402   6.134   5.759   6.488
11119SOL    HW133403   6.141   5.787   6.583
11119SOL    HW233404   6.136   5.839   6.429
11120SOL     OW33405   5.907   6.546   5.845
11120SOL    HW133406   5.996   6.562   5.801
11120SOL    HW233407   5.868   6.461   5.811
11121SOL     OW33408   5.982   6.273   6.060
11121SOL    HW133409   6.001   6.176   6.074
11121SOL    HW233410   5.885   6.291   6.078
11122SOL     OW33411   6.229   5.702   5.687
11122SOL    HW133412   6.293   5.629   5.711
11122SOL    HW233413   6.171   5.671   5.611
11123SOL     OW33414   6.513   6.091   6.485
11123SOL    HW133415   6.487   6.086   6.389
11123SOL    HW233416   6.548   6.002   6.515
11124SOL     OW33417   6.133   5.650   6.079
11124SOL    HW133418   6.052   5.647   6.137
11124SOL    HW233419   6.129   5.730   6.019
11125SOL     OW33420   6.981   6.708   5.603
11125SOL    HW133421   0.021   6.663   5.683
11125SOL    HW233422   6.932   6.790   5.633
11126SOL     OW33423   5.876   5.635   5.772
11126SOL    HW133424   5.928   5.706   5.725
11126SOL    HW233425   5.938   5.570   5.815
11127SOL     OW33426   6.531   5.836   6.039
11127SOL    HW133427   6.496   5.878   5.955
11127SOL    HW233428   6.630   5.848   6.044
11128SOL     OW33429   6.830   0.097   6.377
11128SOL    HW133430   6.775   0.155   6.318
11128SOL    HW233431   6.830   0.134   6.470
11129SOL     OW33432   6.051   6.712   6.320
11129SOL    HW133433   5.982   6.705   6.392
11129SOL    HW233434   6.007   6.711   6.231
11130SOL     OW33435   6.608   6.122   5.612
11130SOL    HW133436   6.563   6.209   5.593
11130SOL    HW233437   6.673   6.134   5.687
11131SOL     OW33438   6.150   5.804   6.761
11131SOL    HW133439   6.192   5.720   6.797
11131SOL    HW233440   6.053   5.805   6.788
11132SOL     OW33441   6.449   6.041   6.224
11132SOL    HW133442   6.405   6.108   6.163
11132SOL    HW233443   6.475   5.960   6.171
11133SOL     OW33444   6.607   5.633   6.322
11133SOL    HW133445   6.541   5.635   6.248
11133SOL    HW233446   6.582   5.562   6.388
11134SOL     OW33447   6.115   5.850   5.894
11134SOL    HW133448   6.163   5.798   5.823
11134SOL    HW233449   6.085   5.938   5.856
11135SOL     OW33450   6.640   6.927   6.934
11135SOL    HW133451   6.556   6.887   6.969
11135SOL    HW233452   6.719   6.881   6.975
11136SOL     OW33453   6.725   6.773   6.703
11136SOL    HW133454   6.691   6.836   6.773
11136SOL    HW233455   6.676   6.789   6.617
11137SOL     OW33456   6.293   6.639   5.956
11137SOL    HW133457   6.279   6.629   6.054
11137SOL    HW233458   6.374   6.587   5.928
11138SOL     OW33459   6.011   6.400   6.847
11138SOL    HW133460   6.067   6.426   6.926
11138SOL    HW233461   5.976   6.307   6.861
11139SOL     OW33462   6.826   5.994   6.866
11139SOL    HW133463   6.808   6.078   6.918
11139SOL    HW233464   6.742   5.967   6.818
11140SOL     OW33465   5.923   6.706   6.077
11140SOL    HW133466   5.970   6.783   6.035
11140SOL    HW233467   5.918   6.630   6.012
11141SOL     OW33468   6.133   6.131   6.449
11141SOL    HW133469   6.145   6.190   6.369
11141SOL    HW233470   6.204   6.150   6.516
11142SOL     OW33471   6.818   6.953   6.006
11142SOL    HW133472   6.860   0.037   6.041
11142SOL    HW233473   6.720   6.953   6.028
11143SOL     OW33474   6.172   6.452   6.623
11143SOL    HW133475   6.202   6.547   6.612
11143SOL    HW233476   6.111   6.446   6.702
11144SOL     OW33477   6.957   6.431   6.609
11144SOL    HW133478   6.865   6.419   6.573
11144SOL    HW233479   6.993   6.342   6.637
11145SOL     OW33480   6.765   6.119   5.837
11145SOL    HW133481   6.782   6.034   5.887
11145SOL    HW233482   6.728   6.188   5.899
11146SOL     OW33483   5.888   5.788   6.834
11146SOL    HW133484   5.850   5.817   6.922
11146SOL    HW233485   5.875   5.689   6.824
11147SOL     OW33486   5.633   6.899   6.877
11147SOL    HW133487   5.679   6.836   6.940
11147SOL    HW233488   5.658   6.993   6.900
11148SOL     OW33489   6.311   6.213   6.641
11148SOL    HW133490   6.388   6.194   6.580
11148SOL    HW233491   6.277   6.305   6.623
11149SOL     OW33492   5.893   5.647   6.213
11149SOL    HW133493   5.868   5.742   6.231
11149SOL    HW233494   5.904   5.598   6.299
11150SOL     OW33495   0.209   6.039   5.921
11150SOL    HW133496   0.168   5.948   5.923
11150SOL    HW233497   0.189   6.086   6.007
11151SOL     OW33498   6.610   6.339   6.549
11151SOL    HW133499   6.601   6.359   6.647
11151SOL    HW233500   6.584   6.243   6.532
11152SOL     OW33501   6.889   6.402   5.616
11152SOL    HW133502   6.955   6.336   5.652
11152SOL    HW233503   6.929   6.450   5.539
11153SOL     OW33504   5.897   6.391   6.529
11153SOL    HW133505   5.993   6.417   6.517
11153SOL    HW233506   5.892   6.296   6.559
11154SOL     OW33507   5.918   6.115   6.605
11154SOL    HW133508   5.877   6.025   6.591
11154SOL    HW233509   5.998   6.125   6.545
11155SOL     OW33510   6.767   5.804   0.054
11155SOL    HW133511   6.772   5.854   0.140
11155SOL    HW233512   6.776   5.868   6.978
11156SOL     OW33513   5.609   6.894   5.768
11156SOL    HW133514   5.521   6.923   5.730
11156SOL    HW233515   5.599   6.806   5.813
11157SOL     OW33516   6.561   6.379   6.818
11157SOL    HW133517   6.629   6.371   6.891
11157SOL    HW233518   6.476   6.335   6.847
11158SOL     OW33519   5.638   6.144   6.713
11158SOL    HW133520   5.689   6.109   6.635
11158SOL    HW233521   5.701   6.176   6.783
11159SOL     OW33522   6.404   6.158   5.947
11159SOL    HW133523   6.412   6.078   5.887
11159SOL    HW233524   6.325   6.213   5.919
11160SOL     OW33525   6.269   6.045   6.848
11160SOL    HW133526   6.228   5.959   6.820
11160SOL    HW233527   6.275   6.106   6.769
11161SOL     OW33528   6.044   6.081   5.769
11161SOL    HW133529   6.108   6.152   5.796
11161SOL    HW233530   5.953   6.121   5.757
11162SOL     OW33531   5.764   6.724   0.042
11162SOL    HW133532   5.740   6.675   0.125
11162SOL    HW233533   5.766   6.660   6.965
11163SOL     OW33534   6.891   6.595   6.817
11163SOL    HW133535   6.927   6.538   6.743
11163SOL    HW233536   6.827   6.662   6.779
11164SOL     OW33537   6.888   6.454   5.894
11164SOL    HW133538   6.818   6.418   5.956
11164SOL    HW233539   6.861   6.436   5.800
11165SOL     OW33540   5.667   6.860   6.605
11165SOL    HW133541   5.649   6.868   6.703
11165SOL    HW233542   5.599   6.800   6.563
11166SOL     OW33543   6.871   6.506   6.246
11166SOL    HW133544   6.957   6.457   6.263
11166SOL    HW233545   6.889   6.587   6.191
11167SOL     OW33546   6.398   6.838   0.021
11167SOL    HW133547   6.392   6.852   0.120
11167SOL    HW233548   6.311   6.864   6.979
11168SOL     OW33549   5.840   5.900   6.301
11168SOL    HW133550   5.751   5.936   6.273
11168SOL    HW233551   5.843   5.893   6.401
11169SOL     OW33552   6.832   0.205   5.625
11169SOL    HW133553   6.844   0.120   5.677
11169SOL    HW233554   6.743   0.204   5.579
11170SOL     OW33555   6.364   6.581   6.937
11170SOL    HW133556   6.437   6.543   6.880
11170SOL    HW233557   6.390   6.672   6.969
11171SOL     OW33558   6.502   6.493   5.872
11171SOL    HW133559   6.566   6.530   5.804
11171SOL    HW233560   6.549   6.424   5.927
11172SOL     OW33561   5.986   6.888   6.996
11172SOL    HW133562   5.967   6.963   0.060
11172SOL    HW233563   5.916   6.817   0.007
11173SOL     OW33564   6.643   6.701   6.312
11173SOL    HW133565   6.566   6.648   6.347
11173SOL    HW233566   6.711   6.640   6.272
11174SOL     OW33567   6.606   5.822   6.542
11174SOL    HW133568   6.600   5.777   6.453
11174SOL    HW233569   6.610   5.753   6.614
11175SOL     OW33570   6.265   5.769   0.087
11175SOL    HW133571   6.356   5.731   0.071
11175SOL    HW233572   6.272   5.851   0.143
11176SOL     OW33573   5.668   5.913   5.615
11176SOL    HW133574   5.576   5.889   5.583
11176SOL    HW233575   5.699   5.995   5.566
11177SOL     OW33576   5.648   5.741   5.887
11177SOL    HW133577   5.632   5.825   5.836
11177SOL    HW233578   5.736   5.702   5.860
11178SOL     OW33579   6.808   5.898   6.023
11178SOL    HW133580   6.883   5.845   5.983
11178SOL    HW233581   6.843   5.952   6.099
11179SOL     OW33582   6.170   6.323   6.256
11179SOL    HW133583   6.213   6.413   6.245
11179SOL    HW233584   6.102   6.310   6.184
11180SOL     OW33585   6.454   6.551   6.444
11180SOL    HW133586   6.507   6.473   6.479
11180SOL    HW233587   6.419   6.605   6.521
11181SOL     OW33588   6.666   6.567   5.673
11181SOL    HW133589   6.635   6.628   5.600
11181SOL    HW233590   6.744   6.514   5.641
11182SOL     OW33591   5.684   6.823   6.260
11182SOL    HW133592   5.693   6.760   6.336
11182SOL    HW233593   5.744   6.794   6.185
11183SOL     OW33594   6.016   6.013   6.113
11183SOL    HW133595   6.050   5.943   6.050
11183SOL    HW233596   5.961   5.970   6.184
11184SOL     OW33597   5.902   6.137   6.878
11184SOL    HW133598   5.971   6.084   6.926
11184SOL    HW233599   5.913   6.125   6.779
11185SOL     OW33600   6.988   5.815   6.706
11185SOL    HW133601   6.998   5.722   6.740
11185SOL    HW233602   6.930   5.867   6.768
11186SOL     OW33603   6.610   5.612   6.713
11186SOL    HW133604   6.538   5.544   6.696
11186SOL    HW233605   6.698   5.566   6.718
11187SOL     OW33606   6.337   6.908   5.851
11187SOL    HW133607   6.319   6.811   5.871
11187SOL    HW233608   6.376   6.951   5.933
11188SOL     OW33609   6.909   5.668   5.729
11188SOL    HW133610   6.948   5.618   5.652
11188SOL    HW233611   6.831   5.618   5.766
11189SOL     OW33612   5.623   6.645   5.897
11189SOL    HW133613   5.720   6.651   5.876
11189SOL    HW233614   5.599   6.550   5.919
   7.00000   7.00000   7.00000
