KAXM
12600
    1KAXM    H8    1   2.318   4.831   0.283
    1KAXM    O2    2   2.407   4.783   0.279
    1KAXM    C3    3   2.380   4.642   0.282
    1KAXM    C2    4   2.361   4.592   0.425
    1KAXM    C1    5   2.307   4.449   0.428
    1KAXM    O1    6   2.297   4.403   0.564
    1KAXM    H1    7   2.258   4.311   0.566
    2KAXM    H8    8   3.577   3.628   0.998
    2KAXM    O2    9   3.577   3.727   0.981
    2KAXM    C3   10   3.510   3.761   0.858
    2KAXM    C2   11   3.611   3.774   0.745
    2KAXM    C1   12   3.551   3.835   0.619
    2KAXM    O1   13   3.647   3.838   0.511
    2KAXM    H1   14   3.615   3.903   0.440
    3KAXM    H8   15   3.248   0.152   1.533
    3KAXM    O2   16   3.231   0.057   1.504
    3KAXM    C3   17   3.167   0.064   1.376
    3KAXM    C2   18   3.271   0.087   1.268
    3KAXM    C1   19   3.210   0.110   1.131
    3KAXM    O1   20   3.313   0.142   1.037
    3KAXM    H1   21   3.275   0.140   0.942
    4KAXM    H8   22   4.859   5.855   5.561
    4KAXM    O2   23   4.760   5.879   5.579
    4KAXM    C3   24   4.710   5.781   5.672
    4KAXM    C2   25   4.559   5.788   5.687
    4KAXM    C1   26   4.515   5.677   5.781
    4KAXM    O1   27   4.379   5.639   5.755
    4KAXM    H1   28   4.375   5.582   5.672
    5KAXM    H8   29   1.075   0.293   5.647
    5KAXM    O2   30   0.979   0.287   5.621
    5KAXM    C3   31   0.929   0.154   5.638
    5KAXM    C2   32   0.806   0.131   5.551
    5KAXM    C1   33   0.763   5.984   5.547
    5KAXM    O1   34   0.706   5.936   5.670
    5KAXM    H1   35   0.709   5.835   5.669
    6KAXM    H8   36   4.099   0.083   5.307
    6KAXM    O2   37   4.128   5.993   5.346
    6KAXM    C3   38   4.009   5.914   5.369
    6KAXM    C2   39   3.947   5.866   5.238
    6KAXM    C1   40   3.832   5.772   5.268
    6KAXM    O1   41   3.787   5.699   5.153
    6KAXM    H1   42   3.760   5.608   5.186
    7KAXM    H8   43   3.190   3.046   0.921
    7KAXM    O2   44   3.274   3.066   0.973
    7KAXM    C3   45   3.241   3.080   1.113
    7KAXM    C2   46   3.129   3.181   1.133
    7KAXM    C1   47   3.085   3.196   1.278
    7KAXM    O1   48   2.970   3.283   1.286
    7KAXM    H1   49   2.888   3.233   1.252
    8KAXM    H8   50   0.628   0.080   2.550
    8KAXM    O2   51   0.538   0.045   2.520
    8KAXM    C3   52   0.510   0.077   2.382
    8KAXM    C2   53   0.636   0.090   2.298
    8KAXM    C1   54   0.611   0.148   2.160
    8KAXM    O1   55   0.735   0.193   2.103
    8KAXM    H1   56   0.715   0.257   2.029
    9KAXM    H8   57   1.749   3.823   0.502
    9KAXM    O2   58   1.814   3.886   0.544
    9KAXM    C3   59   1.781   3.897   0.683
    9KAXM    C2   60   1.637   3.943   0.703
    9KAXM    C1   61   1.599   3.947   0.850
    9KAXM    O1   62   1.457   3.962   0.864
    9KAXM    H1   63   1.431   3.974   0.960
   10KAXM    H8   64   3.431   4.386   3.738
   10KAXM    O2   65   3.509   4.404   3.795
   10KAXM    C3   66   3.597   4.490   3.722
   10KAXM    C2   67   3.701   4.557   3.811
   10KAXM    C1   68   3.783   4.656   3.730
   10KAXM    O1   69   3.866   4.734   3.817
   10KAXM    H1   70   3.944   4.676   3.846
   11KAXM    H8   71   5.051   5.334   5.084
   11KAXM    O2   72   5.136   5.280   5.074
   11KAXM    C3   73   5.247   5.372   5.078
   11KAXM    C2   74   5.318   5.386   4.944
   11KAXM    C1   75   5.230   5.452   4.839
   11KAXM    O1   76   5.301   5.475   4.716
   11KAXM    H1   77   5.307   5.390   4.664
   12KAXM    H8   78   1.354   5.453   2.471
   12KAXM    O2   79   1.336   5.389   2.549
   12KAXM    C3   80   1.234   5.451   2.631
   12KAXM    C2   81   1.188   5.367   2.750
   12KAXM    C1   82   1.109   5.443   2.856
   12KAXM    O1   83   1.191   5.535   2.931
   12KAXM    H1   84   1.265   5.485   2.977
   13KAXM    H8   85   1.949   3.122   3.986
   13KAXM    O2   86   1.920   3.061   3.910
   13KAXM    C3   87   1.992   2.937   3.925
   13KAXM    C2   88   1.898   2.818   3.919
   13KAXM    C1   89   1.973   2.696   3.869
   13KAXM    O1   90   1.982   2.689   3.725
   13KAXM    H1   91   2.029   2.770   3.686
   14KAXM    H8   92   5.855   2.394   3.639
   14KAXM    O2   93   5.935   2.454   3.643
   14KAXM    C3   94   5.918   2.564   3.553
   14KAXM    C2   95   0.027   2.668   3.575
   14KAXM    C1   96   0.009   2.791   3.487
   14KAXM    O1   97   5.895   2.870   3.524
   14KAXM    H1   98   5.923   2.968   3.529
   15KAXM    H8   99   2.529   2.088   1.071
   15KAXM    O2  100   2.579   2.141   1.138
   15KAXM    C3  101   2.599   2.055   1.251
   15KAXM    C2  102   2.702   2.115   1.346
   15KAXM    C1  103   2.764   2.008   1.434
   15KAXM    O1  104   2.667   1.948   1.522
   15KAXM    H1  105   2.694   1.854   1.544
   16KAXM    H8  106   4.783   1.761   0.453
   16KAXM    O2  107   4.686   1.788   0.465
   16KAXM    C3  108   4.614   1.666   0.492
   16KAXM    C2  109   4.666   1.604   0.621
   16KAXM    C1  110   4.652   1.453   0.631
   16KAXM    O1  111   4.738   1.405   0.735
   16KAXM    H1  112   4.747   1.306   0.724
   17KAXM    H8  113   2.435   5.866   5.216
   17KAXM    O2  114   2.518   5.863   5.157
   17KAXM    C3  115   2.607   5.972   5.186
   17KAXM    C2  116   2.652   0.043   5.059
   17KAXM    C1  117   2.736   5.951   4.972
   17KAXM    O1  118   2.765   0.005   4.842
   17KAXM    H1  119   2.801   5.927   4.788
   18KAXM    H8  120   4.667   2.119   1.133
   18KAXM    O2  121   4.629   2.035   1.172
   18KAXM    C3  122   4.728   1.952   1.232
   18KAXM    C2  123   4.764   1.992   1.375
   18KAXM    C1  124   4.866   1.897   1.435
   18KAXM    O1  125   4.815   1.766   1.464
   18KAXM    H1  126   4.804   1.714   1.377
   19KAXM    H8  127   0.147   1.060   5.464
   19KAXM    O2  128   0.072   1.110   5.419
   19KAXM    C3  129   0.113   1.161   5.292
   19KAXM    C2  130   0.029   1.106   5.178
   19KAXM    C1  131   0.072   1.171   5.047
   19KAXM    O1  132   5.968   1.170   4.947
   19KAXM    H1  133   5.995   1.231   4.874
   20KAXM    H8  134   4.455   4.164   5.166
   20KAXM    O2  135   4.477   4.084   5.109
   20KAXM    C3  136   4.352   4.031   5.060
   20KAXM    C2  137   4.292   4.116   4.948
   20KAXM    C1  138   4.374   4.102   4.820
   20KAXM    O1  139   4.331   4.191   4.716
   20KAXM    H1  140   4.344   4.143   4.627
   21KAXM    H8  141   1.353   2.875   1.770
   21KAXM    O2  142   1.326   2.792   1.718
   21KAXM    C3  143   1.184   2.772   1.735
   21KAXM    C2  144   1.148   2.744   1.880
   21KAXM    C1  145   1.001   2.709   1.898
   21KAXM    O1  146   0.976   2.669   2.033
   21KAXM    H1  147   1.035   2.592   2.059
   22KAXM    H8  148   1.287   2.360   5.597
   22KAXM    O2  149   1.283   2.336   5.500
   22KAXM    C3  150   1.215   2.210   5.485
   22KAXM    C2  151   1.315   2.103   5.443
   22KAXM    C1  152   1.246   1.976   5.393
   22KAXM    O1  153   1.178   1.990   5.267
   22KAXM    H1  154   1.211   2.071   5.217
   23KAXM    H8  155   1.354   3.535   4.008
   23KAXM    O2  156   1.328   3.510   4.103
   23KAXM    C3  157   1.237   3.611   4.151
   23KAXM    C2  158   1.226   3.612   4.303
   23KAXM    C1  159   1.122   3.715   4.346
   23KAXM    O1  160   1.102   3.719   4.489
   23KAXM    H1  161   1.056   3.636   4.515
   24KAXM    H8  162   3.435   3.953   4.389
   24KAXM    O2  163   3.504   4.027   4.384
   24KAXM    C3  164   3.630   3.968   4.347
   24KAXM    C2  165   3.717   3.942   4.469
   24KAXM    C1  166   3.839   3.857   4.434
   24KAXM    O1  167   3.941   3.866   4.535
   24KAXM    H1  168   4.026   3.822   4.504
   25KAXM    H8  169   2.061   4.149   2.914
   25KAXM    O2  170   1.965   4.122   2.930
   25KAXM    C3  171   1.956   4.084   3.069
   25KAXM    C2  172   1.817   4.111   3.124
   25KAXM    C1  173   1.818   4.117   3.276
   25KAXM    O1  174   1.693   4.169   3.327
   25KAXM    H1  175   1.706   4.203   3.423
   26KAXM    H8  176   5.232   1.798   3.626
   26KAXM    O2  177   5.311   1.755   3.578
   26KAXM    C3  178   5.425   1.749   3.666
   26KAXM    C2  179   5.498   1.883   3.671
   26KAXM    C1  180   5.649   1.867   3.683
   26KAXM    O1  181   5.701   1.847   3.816
   26KAXM    H1  182   5.786   1.899   3.822
   27KAXM    H8  183   5.308   1.698   3.441
   27KAXM    O2  184   5.282   1.655   3.352
   27KAXM    C3  185   5.398   1.597   3.289
   27KAXM    C2  186   5.354   1.507   3.174
   27KAXM    C1  187   5.469   1.467   3.082
   27KAXM    O1  188   5.422   1.381   2.977
   27KAXM    H1  189   5.462   1.290   2.991
   28KAXM    H8  190   4.395   1.492   4.530
   28KAXM    O2  191   4.421   1.424   4.461
   28KAXM    C3  192   4.347   1.452   4.341
   28KAXM    C2  193   4.440   1.451   4.221
   28KAXM    C1  194   4.364   1.478   4.092
   28KAXM    O1  195   4.453   1.476   3.979
   28KAXM    H1  196   4.510   1.393   3.982
   29KAXM    H8  197   4.934   3.985   3.774
   29KAXM    O2  198   4.880   4.067   3.797
   29KAXM    C3  199   4.812   4.110   3.678
   29KAXM    C2  200   4.911   4.132   3.565
   29KAXM    C1  201   4.841   4.142   3.430
   29KAXM    O1  202   4.938   4.122   3.325
   29KAXM    H1  203   4.967   4.025   3.328
   30KAXM    H8  204   1.505   1.051   2.991
   30KAXM    O2  205   1.606   1.050   3.000
   30KAXM    C3  206   1.646   1.068   3.137
   30KAXM    C2  207   1.593   0.960   3.229
   30KAXM    C1  208   1.638   0.985   3.372
   30KAXM    O1  209   1.580   0.894   3.466
   30KAXM    H1  210   1.601   0.924   3.560
   31KAXM    H8  211   4.907   4.569   1.097
   31KAXM    O2  212   4.944   4.662   1.114
   31KAXM    C3  213   4.852   4.738   1.196
   31KAXM    C2  214   4.921   4.855   1.267
   31KAXM    C1  215   4.980   4.809   1.400
   31KAXM    O1  216   5.070   4.905   1.459
   31KAXM    H1  217   5.095   4.875   1.552
   32KAXM    H8  218   4.517   1.020   2.503
   32KAXM    O2  219   4.484   0.974   2.588
   32KAXM    C3  220   4.587   0.892   2.646
   32KAXM    C2  221   4.726   0.916   2.586
   32KAXM    C1  222   4.776   1.056   2.622
   32KAXM    O1  223   4.879   1.104   2.534
   32KAXM    H1  224   4.879   1.205   2.537
   33KAXM    H8  225   1.381   5.113   1.443
   33KAXM    O2  226   1.375   5.021   1.488
   33KAXM    C3  227   1.411   5.041   1.626
   33KAXM    C2  228   1.339   4.946   1.720
   33KAXM    C1  229   1.202   5.000   1.760
   33KAXM    O1  230   1.133   4.904   1.842
   33KAXM    H1  231   1.041   4.941   1.865
   34KAXM    H8  232   0.461   5.422   2.131
   34KAXM    O2  233   0.525   5.473   2.191
   34KAXM    C3  234   0.521   5.419   2.324
   34KAXM    C2  235   0.411   5.486   2.404
   34KAXM    C1  236   0.422   5.449   2.551
   34KAXM    O1  237   0.314   5.504   2.627
   34KAXM    H1  238   0.306   5.602   2.610
   35KAXM    H8  239   0.209   3.648   1.874
   35KAXM    O2  240   0.131   3.659   1.811
   35KAXM    C3  241   0.099   3.798   1.795
   35KAXM    C2  242   0.013   3.819   1.672
   35KAXM    C1  243   5.998   3.967   1.642
   35KAXM    O1  244   5.904   3.988   1.535
   35KAXM    H1  245   5.953   4.000   1.448
   36KAXM    H8  246   0.595   2.216   1.293
   36KAXM    O2  247   0.663   2.215   1.368
   36KAXM    C3  248   0.799   2.213   1.320
   36KAXM    C2  249   0.830   2.305   1.202
   36KAXM    C1  250   0.799   2.450   1.232
   36KAXM    O1  251   0.843   2.535   1.125
   36KAXM    H1  252   0.909   2.601   1.164
   37KAXM    H8  253   1.271   5.311   0.793
   37KAXM    O2  254   1.280   5.225   0.741
   37KAXM    C3  255   1.212   5.231   0.616
   37KAXM    C2  256   1.267   5.118   0.529
   37KAXM    C1  257   1.189   5.104   0.400
   37KAXM    O1  258   1.251   5.010   0.311
   37KAXM    H1  259   1.227   5.037   0.217
   38KAXM    H8  260   2.122   5.450   4.366
   38KAXM    O2  261   2.030   5.438   4.396
   38KAXM    C3  262   2.029   5.380   4.527
   38KAXM    C2  263   1.889   5.378   4.586
   38KAXM    C1  264   1.883   5.298   4.716
   38KAXM    O1  265   1.957   5.358   4.825
   38KAXM    H1  266   1.892   5.394   4.890
   39KAXM    H8  267   3.079   3.680   3.973
   39KAXM    O2  268   3.072   3.592   3.922
   39KAXM    C3  269   3.193   3.517   3.947
   39KAXM    C2  270   3.171   3.367   3.953
   39KAXM    C1  271   3.085   3.326   4.071
   39KAXM    O1  272   3.085   3.184   4.087
   39KAXM    H1  273   2.996   3.155   4.123
   40KAXM    H8  274   4.421   1.955   3.301
   40KAXM    O2  275   4.376   2.011   3.230
   40KAXM    C3  276   4.480   2.082   3.161
   40KAXM    C2  277   4.482   2.039   3.016
   40KAXM    C1  278   4.596   2.100   2.938
   40KAXM    O1  279   4.580   2.073   2.798
   40KAXM    H1  280   4.541   1.980   2.784
   41KAXM    H8  281   4.493   2.411   5.593
   41KAXM    O2  282   4.438   2.468   5.529
   41KAXM    C3  283   4.512   2.586   5.493
   41KAXM    C2  284   4.465   2.630   5.356
   41KAXM    C1  285   4.506   2.772   5.322
   41KAXM    O1  286   4.445   2.811   5.198
   41KAXM    H1  287   4.493   2.765   5.121
   42KAXM    H8  288   5.233   2.903   4.707
   42KAXM    O2  289   5.218   2.848   4.791
   42KAXM    C3  290   5.315   2.893   4.887
   42KAXM    C2  291   5.259   2.943   5.019
   42KAXM    C1  292   5.225   2.830   5.115
   42KAXM    O1  293   5.218   2.883   5.249
   42KAXM    H1  294   5.311   2.912   5.276
   43KAXM    H8  295   2.535   4.871   3.015
   43KAXM    O2  296   2.463   4.906   3.076
   43KAXM    C3  297   2.499   4.874   3.211
   43KAXM    C2  298   2.614   4.962   3.261
   43KAXM    C1  299   2.685   4.900   3.381
   43KAXM    O1  300   2.596   4.867   3.489
   43KAXM    H1  301   2.539   4.950   3.509
   44KAXM    H8  302   2.524   0.596   1.566
   44KAXM    O2  303   2.585   0.578   1.644
   44KAXM    C3  304   2.695   0.497   1.599
   44KAXM    C2  305   2.647   0.379   1.515
   44KAXM    C1  306   2.764   0.293   1.469
   44KAXM    O1  307   2.725   0.201   1.365
   44KAXM    H1  308   2.669   0.126   1.404
   45KAXM    H8  309   5.344   2.062   1.693
   45KAXM    O2  310   5.436   2.031   1.712
   45KAXM    C3  311   5.470   2.074   1.845
   45KAXM    C2  312   5.555   1.974   1.921
   45KAXM    C1  313   5.491   1.836   1.929
   45KAXM    O1  314   5.556   1.755   2.029
   45KAXM    H1  315   5.528   1.796   2.118
   46KAXM    H8  316   5.318   4.325   1.656
   46KAXM    O2  317   5.261   4.246   1.684
   46KAXM    C3  318   5.138   4.292   1.742
   46KAXM    C2  319   5.162   4.388   1.858
   46KAXM    C1  320   5.030   4.441   1.913
   46KAXM    O1  321   5.047   4.504   2.041
   46KAXM    H1  322   4.963   4.547   2.067
   47KAXM    H8  323   5.260   1.273   4.964
   47KAXM    O2  324   5.315   1.224   5.035
   47KAXM    C3  325   5.297   1.284   5.166
   47KAXM    C2  326   5.302   1.435   5.163
   47KAXM    C1  327   5.337   1.489   5.300
   47KAXM    O1  328   5.346   1.633   5.299
   47KAXM    H1  329   5.266   1.673   5.346
   48KAXM    H8  330   4.587   4.175   1.456
   48KAXM    O2  331   4.633   4.258   1.421
   48KAXM    C3  332   4.665   4.241   1.282
   48KAXM    C2  333   4.750   4.356   1.232
   48KAXM    C1  334   4.795   4.336   1.088
   48KAXM    O1  335   4.908   4.419   1.059
   48KAXM    H1  336   4.989   4.363   1.065
   49KAXM    H8  337   3.612   3.422   5.684
   49KAXM    O2  338   3.682   3.351   5.684
   49KAXM    C3  339   3.807   3.402   5.733
   49KAXM    C2  340   3.883   3.488   5.633
   49KAXM    C1  341   3.911   3.415   5.502
   49KAXM    O1  342   4.002   3.491   5.421
   49KAXM    H1  343   4.095   3.482   5.461
   50KAXM    H8  344   5.238   0.282   5.069
   50KAXM    O2  345   5.257   0.286   4.970
   50KAXM    C3  346   5.304   0.418   4.938
   50KAXM    C2  347   5.353   0.427   4.795
   50KAXM    C1  348   5.410   0.565   4.766
   50KAXM    O1  349   5.463   0.572   4.633
   50KAXM    H1  350   5.503   0.662   4.617
   51KAXM    H8  351   0.039   4.991   2.496
   51KAXM    O2  352   5.990   5.001   2.408
   51KAXM    C3  353   5.936   4.873   2.374
   51KAXM    C2  354   5.862   4.874   2.242
   51KAXM    C1  355   5.797   4.737   2.224
   51KAXM    O1  356   5.729   4.725   2.098
   51KAXM    H1  357   5.673   4.808   2.083
   52KAXM    H8  358   0.984   4.877   3.951
   52KAXM    O2  359   0.914   4.945   3.969
   52KAXM    C3  360   0.922   4.982   4.108
   52KAXM    C2  361   0.804   4.931   4.190
   52KAXM    C1  362   0.802   4.986   4.333
   52KAXM    O1  363   0.733   5.112   4.345
   52KAXM    H1  364   0.641   5.095   4.385
   53KAXM    H8  365   4.130   0.669   4.388
   53KAXM    O2  366   4.090   0.759   4.382
   53KAXM    C3  367   4.186   0.859   4.342
   53KAXM    C2  368   4.234   0.938   4.463
   53KAXM    C1  369   4.302   1.069   4.423
   53KAXM    O1  370   4.427   1.054   4.353
   53KAXM    H1  371   4.500   1.095   4.410
   54KAXM    H8  372   3.844   5.311   0.561
   54KAXM    O2  373   3.746   5.294   0.567
   54KAXM    C3  374   3.673   5.357   0.461
   54KAXM    C2  375   3.534   5.393   0.511
   54KAXM    C1  376   3.448   5.457   0.403
   54KAXM    O1  377   3.333   5.520   0.462
   54KAXM    H1  378   3.292   5.587   0.397
   55KAXM    H8  379   3.358   4.867   1.793
   55KAXM    O2  380   3.419   4.843   1.870
   55KAXM    C3  381   3.538   4.779   1.820
   55KAXM    C2  382   3.645   4.761   1.928
   55KAXM    C1  383   3.713   4.894   1.958
   55KAXM    O1  384   3.811   4.887   2.063
   55KAXM    H1  385   3.888   4.948   2.041
   56KAXM    H8  386   3.079   0.065   2.687
   56KAXM    O2  387   3.137   0.135   2.641
   56KAXM    C3  388   3.274   0.093   2.637
   56KAXM    C2  389   3.358   0.208   2.583
   56KAXM    C1  390   3.505   0.193   2.617
   56KAXM    O1  391   3.571   0.320   2.606
   56KAXM    H1  392   3.669   0.309   2.629
   57KAXM    H8  393   1.160   4.935   4.361
   57KAXM    O2  394   1.117   4.889   4.436
   57KAXM    C3  395   1.106   4.749   4.409
   57KAXM    C2  396   1.065   4.673   4.534
   57KAXM    C1  397   1.055   4.523   4.507
   57KAXM    O1  398   1.026   4.448   4.627
   57KAXM    H1  399   0.962   4.373   4.604
   58KAXM    H8  400   1.404   3.938   3.461
   58KAXM    O2  401   1.363   3.850   3.491
   58KAXM    C3  402   1.418   3.818   3.620
   58KAXM    C2  403   1.370   3.686   3.679
   58KAXM    C1  404   1.450   3.661   3.806
   58KAXM    O1  405   1.415   3.539   3.873
   58KAXM    H1  406   1.494   3.477   3.870
   59KAXM    H8  407   0.749   5.697   2.215
   59KAXM    O2  408   0.835   5.682   2.264
   59KAXM    C3  409   0.865   5.541   2.257
   59KAXM    C2  410   1.013   5.510   2.273
   59KAXM    C1  411   1.096   5.563   2.158
   59KAXM    O1  412   1.069   5.496   2.034
   59KAXM    H1  413   0.989   5.536   1.987
   60KAXM    H8  414   5.271   2.971   1.738
   60KAXM    O2  415   5.310   2.899   1.794
   60KAXM    C3  416   5.245   2.772   1.776
   60KAXM    C2  417   5.095   2.782   1.801
   60KAXM    C1  418   5.032   2.652   1.848
   60KAXM    O1  419   5.049   2.627   1.989
   60KAXM    H1  420   4.989   2.549   2.012
   61KAXM    H8  421   4.544   2.135   3.755
   61KAXM    O2  422   4.627   2.083   3.731
   61KAXM    C3  423   4.710   2.154   3.638
   61KAXM    C2  424   4.633   2.193   3.512
   61KAXM    C1  425   4.726   2.254   3.408
   61KAXM    O1  426   4.818   2.159   3.350
   61KAXM    H1  427   4.883   2.208   3.290
   62KAXM    H8  428   5.024   1.795   2.113
   62KAXM    O2  429   5.065   1.877   2.075
   62KAXM    C3  430   5.074   1.869   1.933
   62KAXM    C2  431   5.111   2.002   1.870
   62KAXM    C1  432   5.107   1.989   1.719
   62KAXM    O1  433   5.188   2.086   1.649
   62KAXM    H1  434   5.190   2.058   1.554
   63KAXM    H8  435   1.262   5.277   1.396
   63KAXM    O2  436   1.359   5.248   1.392
   63KAXM    C3  437   1.445   5.363   1.398
   63KAXM    C2  438   1.469   5.407   1.542
   63KAXM    C1  439   1.550   5.535   1.544
   63KAXM    O1  440   1.571   5.585   1.677
   63KAXM    H1  441   1.617   5.675   1.668
   64KAXM    H8  442   2.174   0.007   2.091
   64KAXM    O2  443   2.139   0.096   2.125
   64KAXM    C3  444   2.235   0.201   2.102
   64KAXM    C2  445   2.220   0.314   2.204
   64KAXM    C1  446   2.303   0.437   2.167
   64KAXM    O1  447   2.301   0.536   2.271
   64KAXM    H1  448   2.331   0.626   2.237
   65KAXM    H8  449   4.652   1.351   4.821
   65KAXM    O2  450   4.715   1.355   4.744
   65KAXM    C3  451   4.834   1.425   4.783
   65KAXM    C2  452   4.954   1.333   4.789
   65KAXM    C1  453   5.077   1.408   4.840
   65KAXM    O1  454   5.194   1.325   4.846
   65KAXM    H1  455   5.248   1.334   4.761
   66KAXM    H8  456   5.650   1.201   2.231
   66KAXM    O2  457   5.702   1.180   2.314
   66KAXM    C3  458   5.835   1.143   2.274
   66KAXM    C2  459   5.849   0.992   2.263
   66KAXM    C1  460   5.992   0.952   2.232
   66KAXM    O1  461   0.009   0.809   2.232
   66KAXM    H1  462   5.974   0.772   2.320
   67KAXM    H8  463   0.792   5.622   5.583
   67KAXM    O2  464   0.841   5.583   5.504
   67KAXM    C3  465   0.983   5.583   5.529
   67KAXM    C2  466   1.023   5.477   5.633
   67KAXM    C1  467   1.170   5.478   5.671
   67KAXM    O1  468   1.204   5.369   5.759
   67KAXM    H1  469   1.254   5.300   5.705
   68KAXM    H8  470   0.209   5.008   2.588
   68KAXM    O2  471   0.117   4.978   2.620
   68KAXM    C3  472   0.132   4.879   2.724
   68KAXM    C2  473   0.054   4.915   2.849
   68KAXM    C1  474   0.099   4.828   2.966
   68KAXM    O1  475   0.005   4.830   3.075
   68KAXM    H1  476   0.047   4.871   3.156
   69KAXM    H8  477   5.590   3.430   4.486
   69KAXM    O2  478   5.578   3.421   4.386
   69KAXM    C3  479   5.690   3.488   4.324
   69KAXM    C2  480   5.667   3.506   4.175
   69KAXM    C1  481   5.789   3.570   4.110
   69KAXM    O1  482   5.761   3.609   3.976
   69KAXM    H1  483   5.840   3.658   3.937
   70KAXM    H8  484   0.800   5.183   4.880
   70KAXM    O2  485   0.732   5.221   4.943
   70KAXM    C3  486   0.789   5.329   5.018
   70KAXM    C2  487   0.697   5.371   5.131
   70KAXM    C1  488   0.759   5.489   5.203
   70KAXM    O1  489   0.675   5.539   5.309
   70KAXM    H1  490   0.737   5.559   5.386
   71KAXM    H8  491   3.839   4.667   2.997
   71KAXM    O2  492   3.872   4.672   3.091
   71KAXM    C3  493   3.760   4.651   3.178
   71KAXM    C2  494   3.770   4.743   3.299
   71KAXM    C1  495   3.640   4.757   3.376
   71KAXM    O1  496   3.646   4.872   3.463
   71KAXM    H1  497   3.564   4.874   3.521
   72KAXM    H8  498   1.304   5.462   4.903
   72KAXM    O2  499   1.376   5.403   4.943
   72KAXM    C3  500   1.386   5.432   5.084
   72KAXM    C2  501   1.294   5.343   5.166
   72KAXM    C1  502   1.321   5.367   5.314
   72KAXM    O1  503   1.234   5.290   5.399
   72KAXM    H1  504   1.285   5.267   5.482
   73KAXM    H8  505   3.192   1.813   1.477
   73KAXM    O2  506   3.139   1.887   1.517
   73KAXM    C3  507   3.172   1.900   1.656
   73KAXM    C2  508   3.087   2.004   1.727
   73KAXM    C1  509   3.112   2.145   1.674
   73KAXM    O1  510   3.059   2.245   1.762
   73KAXM    H1  511   3.122   2.260   1.839
   74KAXM    H8  512   0.250   1.683   5.670
   74KAXM    O2  513   0.182   1.623   5.623
   74KAXM    C3  514   0.138   1.689   5.503
   74KAXM    C2  515   0.020   1.783   5.526
   74KAXM    C1  516   5.993   1.863   5.399
   74KAXM    O1  517   5.879   1.949   5.411
   74KAXM    H1  518   5.816   1.927   5.334
   75KAXM    H8  519   5.627   1.861   2.497
   75KAXM    O2  520   5.653   1.911   2.412
   75KAXM    C3  521   5.796   1.927   2.409
   75KAXM    C2  522   5.857   1.868   2.283
   75KAXM    C1  523   0.006   1.846   2.300
   75KAXM    O1  524   0.035   1.754   2.407
   75KAXM    H1  525   0.065   1.665   2.369
   76KAXM    H8  526   3.248   1.866   2.125
   76KAXM    O2  527   3.159   1.895   2.084
   76KAXM    C3  528   3.144   2.037   2.094
   76KAXM    C2  529   3.278   2.108   2.110
   76KAXM    C1  530   3.260   2.257   2.086
   76KAXM    O1  531   3.233   2.284   1.948
   76KAXM    H1  532   3.320   2.310   1.905
   77KAXM    H8  533   1.525   5.173   3.112
   77KAXM    O2  534   1.426   5.193   3.124
   77KAXM    C3  535   1.357   5.067   3.126
   77KAXM    C2  536   1.234   5.071   3.214
   77KAXM    C1  537   1.159   4.939   3.206
   77KAXM    O1  538   1.036   4.939   3.280
   77KAXM    H1  539   0.972   5.006   3.243
   78KAXM    H8  540   4.404   3.397   0.699
   78KAXM    O2  541   4.440   3.491   0.699
   78KAXM    C3  542   4.380   3.561   0.589
   78KAXM    C2  543   4.417   3.496   0.456
   78KAXM    C1  544   4.364   3.576   0.338
   78KAXM    O1  545   4.429   3.535   0.216
   78KAXM    H1  546   4.415   3.608   0.148
   79KAXM    H8  547   5.524   2.900   2.939
   79KAXM    O2  548   5.474   2.987   2.934
   79KAXM    C3  549   5.332   2.967   2.943
   79KAXM    C2  550   5.282   3.000   3.083
   79KAXM    C1  551   5.130   2.996   3.090
   79KAXM    O1  552   5.082   2.993   3.225
   79KAXM    H1  553   5.104   3.077   3.274
   80KAXM    H8  554   5.206   4.619   4.083
   80KAXM    O2  555   5.238   4.525   4.093
   80KAXM    C3  556   5.375   4.515   4.051
   80KAXM    C2  557   5.383   4.502   3.900
   80KAXM    C1  558   5.525   4.532   3.853
   80KAXM    O1  559   5.532   4.527   3.710
   80KAXM    H1  560   5.498   4.612   3.668
   81KAXM    H8  561   5.152   1.385   1.383
   81KAXM    O2  562   5.158   1.346   1.476
   81KAXM    C3  563   5.026   1.344   1.534
   81KAXM    C2  564   5.012   1.244   1.648
   81KAXM    C1  565   4.866   1.228   1.690
   81KAXM    O1  566   4.851   1.134   1.798
   81KAXM    H1  567   4.779   1.164   1.861
   82KAXM    H8  568   2.974   2.102   5.260
   82KAXM    O2  569   2.940   2.189   5.302
   82KAXM    C3  570   2.831   2.157   5.392
   82KAXM    C2  571   2.694   2.155   5.328
   82KAXM    C1  572   2.591   2.123   5.435
   82KAXM    O1  573   2.457   2.143   5.389
   82KAXM    H1  574   2.435   2.241   5.386
   83KAXM    H8  575   4.468   1.810   4.203
   83KAXM    O2  576   4.487   1.764   4.290
   83KAXM    C3  577   4.467   1.849   4.403
   83KAXM    C2  578   4.321   1.862   4.443
   83KAXM    C1  579   4.307   1.928   4.580
   83KAXM    O1  580   4.341   1.840   4.689
   83KAXM    H1  581   4.403   1.888   4.754
   84KAXM    H8  582   0.137   2.878   0.320
   84KAXM    O2  583   0.184   2.914   0.401
   84KAXM    C3  584   0.321   2.872   0.408
   84KAXM    C2  585   0.368   2.879   0.553
   84KAXM    C1  586   0.510   2.827   0.572
   84KAXM    O1  587   0.610   2.914   0.517
   84KAXM    H1  588   0.689   2.855   0.491
   85KAXM    H8  589   5.502   4.457   1.592
   85KAXM    O2  590   5.401   4.446   1.604
   85KAXM    C3  591   5.340   4.533   1.507
   85KAXM    C2  592   5.228   4.618   1.564
   85KAXM    C1  593   5.279   4.726   1.659
   85KAXM    O1  594   5.172   4.815   1.695
   85KAXM    H1  595   5.181   4.836   1.793
   86KAXM    H8  596   0.014   1.242   4.338
   86KAXM    O2  597   0.082   1.169   4.353
   86KAXM    C3  598   0.189   1.190   4.259
   86KAXM    C2  599   0.141   1.187   4.114
   86KAXM    C1  600   0.258   1.216   4.022
   86KAXM    O1  601   0.221   1.220   3.884
   86KAXM    H1  602   0.292   1.172   3.830
   87KAXM    H8  603   3.626   3.309   2.227
   87KAXM    O2  604   3.602   3.218   2.265
   87KAXM    C3  605   3.510   3.159   2.173
   87KAXM    C2  606   3.366   3.193   2.205
   87KAXM    C1  607   3.335   3.342   2.212
   87KAXM    O1  608   3.195   3.358   2.239
   87KAXM    H1  609   3.145   3.332   2.155
   88KAXM    H8  610   5.018   5.187   1.784
   88KAXM    O2  611   5.113   5.215   1.808
   88KAXM    C3  612   5.157   5.308   1.708
   88KAXM    C2  613   5.232   5.239   1.596
   88KAXM    C1  614   5.274   5.339   1.489
   88KAXM    O1  615   5.345   5.275   1.382
   88KAXM    H1  616   5.292   5.196   1.350
   89KAXM    H8  617   3.814   5.670   3.715
   89KAXM    O2  618   3.805   5.654   3.815
   89KAXM    C3  619   3.829   5.515   3.842
   89KAXM    C2  620   3.971   5.473   3.810
   89KAXM    C1  621   3.980   5.322   3.824
   89KAXM    O1  622   4.097   5.272   3.757
   89KAXM    H1  623   4.068   5.229   3.671
   90KAXM    H8  624   0.006   3.435   5.709
   90KAXM    O2  625   5.925   3.493   5.715
   90KAXM    C3  626   5.873   3.492   5.848
   90KAXM    C2  627   5.744   3.574   5.858
   90KAXM    C1  628   5.684   3.568   5.998
   90KAXM    O1  629   5.765   3.630   0.100
   90KAXM    H1  630   5.706   3.649   0.180
   91KAXM    H8  631   1.595   1.511   4.949
   91KAXM    O2  632   1.514   1.561   4.914
   91KAXM    C3  633   1.476   1.667   5.004
   91KAXM    C2  634   1.480   1.806   4.941
   91KAXM    C1  635   1.426   1.907   5.041
   91KAXM    O1  636   1.428   2.043   4.992
   91KAXM    H1  637   1.359   2.097   5.042
   92KAXM    H8  638   1.530   4.973   4.422
   92KAXM    O2  639   1.537   5.050   4.488
   92KAXM    C3  640   1.434   5.029   4.586
   92KAXM    C2  641   1.443   4.892   4.653
   92KAXM    C1  642   1.318   4.869   4.737
   92KAXM    O1  643   1.325   4.748   4.814
   92KAXM    H1  644   1.307   4.665   4.761
   93KAXM    H8  645   2.901   5.804   3.307
   93KAXM    O2  646   2.809   5.807   3.263
   93KAXM    C3  647   2.797   5.687   3.185
   93KAXM    C2  648   2.660   5.669   3.125
   93KAXM    C1  649   2.556   5.638   3.231
   93KAXM    O1  650   2.571   5.508   3.290
   93KAXM    H1  651   2.627   5.519   3.374
   94KAXM    H8  652   4.940   1.277   5.976
   94KAXM    O2  653   4.853   1.324   0.001
   94KAXM    C3  654   4.744   1.239   5.962
   94KAXM    C2  655   4.617   1.319   5.937
   94KAXM    C1  656   4.497   1.227   5.918
   94KAXM    O1  657   4.511   1.140   5.804
   94KAXM    H1  658   4.487   1.046   5.833
   95KAXM    H8  659   1.417   3.934   0.364
   95KAXM    O2  660   1.426   3.836   0.355
   95KAXM    C3  661   1.308   3.784   0.289
   95KAXM    C2  662   1.333   3.756   0.141
   95KAXM    C1  663   1.207   3.706   0.070
   95KAXM    O1  664   1.229   3.697   5.928
   95KAXM    H1  665   1.280   3.612   5.908
   96KAXM    H8  666   0.174   0.911   1.093
   96KAXM    O2  667   0.259   0.925   1.041
   96KAXM    C3  668   0.300   0.796   0.992
   96KAXM    C2  669   0.451   0.788   0.977
   96KAXM    C1  670   0.490   0.688   0.868
   96KAXM    O1  671   0.443   0.730   0.739
   96KAXM    H1  672   0.481   0.668   0.668
   97KAXM    H8  673   5.328   1.338   1.467
   97KAXM    O2  674   5.423   1.358   1.443
   97KAXM    C3  675   5.509   1.291   1.536
   97KAXM    C2  676   5.546   1.149   1.498
   97KAXM    C1  677   5.658   1.100   1.590
   97KAXM    O1  678   5.684   0.959   1.585
   97KAXM    H1  679   5.690   0.926   1.489
   98KAXM    H8  680   0.374   0.360   3.633
   98KAXM    O2  681   0.462   0.342   3.587
   98KAXM    C3  682   0.437   0.328   3.446
   98KAXM    C2  683   0.360   0.200   3.416
   98KAXM    C1  684   0.258   0.224   3.304
   98KAXM    O1  685   0.163   0.115   3.294
   98KAXM    H1  686   0.085   0.131   3.356
   99KAXM    H8  687   4.348   5.115   5.637
   99KAXM    O2  688   4.328   5.154   5.729
   99KAXM    C3  689   4.260   5.053   5.807
   99KAXM    C2  690   4.241   5.084   5.954
   99KAXM    C1  691   4.166   4.970   0.022
   99KAXM    O1  692   4.246   4.851   0.042
   99KAXM    H1  693   4.188   4.772   0.058
  100KAXM    H8  694   5.181   0.381   0.177
  100KAXM    O2  695   5.164   0.375   0.079
  100KAXM    C3  696   5.068   0.475   0.043
  100KAXM    C2  697   5.037   0.469   5.894
  100KAXM    C1  698   4.908   0.545   5.864
  100KAXM    O1  699   4.878   0.545   5.723
  100KAXM    H1  700   4.829   0.460   5.698
  101KAXM    H8  701   5.406   2.361   4.898
  101KAXM    O2  702   5.460   2.277   4.912
  101KAXM    C3  703   5.449   2.230   5.047
  101KAXM    C2  704   5.555   2.293   5.137
  101KAXM    C1  705   5.562   2.231   5.276
  101KAXM    O1  706   5.656   2.298   5.362
  101KAXM    H1  707   5.694   2.230   5.428
  102KAXM    H8  708   3.245   3.948   1.989
  102KAXM    O2  709   3.267   3.852   2.015
  102KAXM    C3  710   3.402   3.846   2.064
  102KAXM    C2  711   3.505   3.850   1.952
  102KAXM    C1  712   3.650   3.858   2.002
  102KAXM    O1  713   3.685   3.983   2.065
  102KAXM    H1  714   3.778   3.975   2.099
  103KAXM    H8  715   2.424   2.569   0.077
  103KAXM    O2  716   2.369   2.492   0.113
  103KAXM    C3  717   2.324   2.408   0.005
  103KAXM    C2  718   2.363   2.263   0.034
  103KAXM    C1  719   2.310   2.165   5.930
  103KAXM    O1  720   2.355   2.033   5.965
  103KAXM    H1  721   2.298   1.961   5.922
  104KAXM    H8  722   1.234   0.459   3.108
  104KAXM    O2  723   1.148   0.422   3.147
  104KAXM    C3  724   1.046   0.522   3.140
  104KAXM    C2  725   1.006   0.547   2.996
  104KAXM    C1  726   0.913   0.666   2.980
  104KAXM    O1  727   0.874   0.674   2.843
  104KAXM    H1  728   0.807   0.749   2.830
  105KAXM    H8  729   4.508   5.071   3.256
  105KAXM    O2  730   4.496   4.977   3.293
  105KAXM    C3  731   4.421   4.901   3.196
  105KAXM    C2  732   4.295   4.842   3.259
  105KAXM    C1  733   4.202   4.779   3.156
  105KAXM    O1  734   4.084   4.733   3.224
  105KAXM    H1  735   4.011   4.707   3.160
  106KAXM    H8  736   3.506   1.251   4.283
  106KAXM    O2  737   3.479   1.335   4.232
  106KAXM    C3  738   3.548   1.329   4.105
  106KAXM    C2  739   3.451   1.341   3.987
  106KAXM    C1  740   3.527   1.341   3.856
  106KAXM    O1  741   3.622   1.448   3.848
  106KAXM    H1  742   3.715   1.410   3.846
  107KAXM    H8  743   1.962   2.018   3.858
  107KAXM    O2  744   2.010   1.950   3.916
  107KAXM    C3  745   2.036   2.005   4.045
  107KAXM    C2  746   2.107   1.900   4.130
  107KAXM    C1  747   2.135   1.950   4.270
  107KAXM    O1  748   2.213   1.855   4.345
  107KAXM    H1  749   2.311   1.872   4.321
  108KAXM    H8  750   0.712   1.182   0.804
  108KAXM    O2  751   0.698   1.083   0.825
  108KAXM    C3  752   0.620   1.024   0.719
  108KAXM    C2  753   0.698   1.002   0.590
  108KAXM    C1  754   0.605   0.961   0.476
  108KAXM    O1  755   0.677   0.933   0.354
  108KAXM    H1  756   0.615   0.940   0.274
  109KAXM    H8  757   0.507   5.652   0.803
  109KAXM    O2  758   0.559   5.628   0.719
  109KAXM    C3  759   0.698   5.617   0.754
  109KAXM    C2  760   0.775   5.746   0.728
  109KAXM    C1  761   0.796   5.771   0.579
  109KAXM    O1  762   0.835   5.906   0.552
  109KAXM    H1  763   0.886   5.910   0.467
  110KAXM    H8  764   5.307   0.466   2.801
  110KAXM    O2  765   5.402   0.431   2.796
  110KAXM    C3  766   5.491   0.542   2.813
  110KAXM    C2  767   5.598   0.512   2.917
  110KAXM    C1  768   5.694   0.629   2.929
  110KAXM    O1  769   5.788   0.612   3.036
  110KAXM    H1  770   5.813   0.704   3.070
  111KAXM    H8  771   1.818   5.967   5.153
  111KAXM    O2  772   1.900   5.951   5.095
  111KAXM    C3  773   1.868   5.879   4.976
  111KAXM    C2  774   1.917   5.956   4.855
  111KAXM    C1  775   1.904   5.870   4.731
  111KAXM    O1  776   1.917   5.945   4.609
  111KAXM    H1  777   1.989   0.015   4.618
  112KAXM    H8  778   3.157   1.716   0.032
  112KAXM    O2  779   3.119   1.806   0.022
  112KAXM    C3  780   2.998   1.810   0.100
  112KAXM    C2  781   2.874   1.788   0.015
  112KAXM    C1  782   2.747   1.805   0.096
  112KAXM    O1  783   2.726   1.940   0.140
  112KAXM    H1  784   2.628   1.954   0.157
  113KAXM    H8  785   3.933   4.056   0.106
  113KAXM    O2  786   3.981   4.036   0.193
  113KAXM    C3  787   3.968   4.146   0.285
  113KAXM    C2  788   3.936   4.099   0.426
  113KAXM    C1  789   3.920   4.221   0.516
  113KAXM    O1  790   3.877   4.185   0.648
  113KAXM    H1  791   3.823   4.260   0.689
  114KAXM    H8  792   2.472   3.609   5.355
  114KAXM    O2  793   2.490   3.511   5.338
  114KAXM    C3  794   2.422   3.431   5.436
  114KAXM    C2  795   2.282   3.390   5.391
  114KAXM    C1  796   2.224   3.281   5.479
  114KAXM    O1  797   2.109   3.219   5.417
  114KAXM    H1  798   2.025   3.252   5.463
  115KAXM    H8  799   0.803   4.005   4.919
  115KAXM    O2  800   0.892   3.980   4.961
  115KAXM    C3  801   0.996   4.045   4.886
  115KAXM    C2  802   1.057   3.944   4.790
  115KAXM    C1  803   1.148   4.006   4.686
  115KAXM    O1  804   1.224   3.906   4.617
  115KAXM    H1  805   1.168   3.840   4.565
  116KAXM    H8  806   0.281   2.666   5.047
  116KAXM    O2  807   0.363   2.722   5.062
  116KAXM    C3  808   0.435   2.683   5.180
  116KAXM    C2  809   0.363   2.728   5.306
  116KAXM    C1  810   0.448   2.700   5.430
  116KAXM    O1  811   0.375   2.729   5.550
  116KAXM    H1  812   0.310   2.654   5.567
  117KAXM    H8  813   5.659   3.642   3.147
  117KAXM    O2  814   5.670   3.671   3.245
  117KAXM    C3  815   5.585   3.785   3.268
  117KAXM    C2  816   5.440   3.757   3.230
  117KAXM    C1  817   5.350   3.879   3.243
  117KAXM    O1  818   5.218   3.850   3.193
  117KAXM    H1  819   5.214   3.862   3.093
  118KAXM    H8  820   3.572   4.443   4.118
  118KAXM    O2  821   3.562   4.525   4.177
  118KAXM    C3  822   3.689   4.587   4.203
  118KAXM    C2  823   3.781   4.495   4.281
  118KAXM    C1  824   3.915   4.562   4.306
  118KAXM    O1  825   4.012   4.466   4.354
  118KAXM    H1  826   4.090   4.512   4.400
  119KAXM    H8  827   1.909   4.604   1.440
  119KAXM    O2  828   1.955   4.607   1.351
  119KAXM    C3  829   2.086   4.550   1.367
  119KAXM    C2  830   2.188   4.591   1.261
  119KAXM    C1  831   2.323   4.528   1.297
  119KAXM    O1  832   2.433   4.565   1.211
  119KAXM    H1  833   2.512   4.590   1.271
  120KAXM    H8  834   0.498   3.390   4.514
  120KAXM    O2  835   0.541   3.352   4.430
  120KAXM    C3  836   0.486   3.222   4.403
  120KAXM    C2  837   0.501   3.133   4.525
  120KAXM    C1  838   0.456   2.990   4.501
  120KAXM    O1  839   0.442   2.917   4.624
  120KAXM    H1  840   0.439   2.977   4.704
  121KAXM    H8  841   1.554   0.792   0.731
  121KAXM    O2  842   1.504   0.820   0.812
  121KAXM    C3  843   1.585   0.895   0.902
  121KAXM    C2  844   1.727   0.843   0.913
  121KAXM    C1  845   1.803   0.939   1.003
  121KAXM    O1  846   1.945   0.916   1.009
  121KAXM    H1  847   1.983   0.980   1.078
  122KAXM    H8  848   0.016   5.138   2.344
  122KAXM    O2  849   0.035   5.232   2.313
  122KAXM    C3  850   0.073   5.309   2.429
  122KAXM    C2  851   5.955   5.338   2.521
  122KAXM    C1  852   0.003   5.387   2.658
  122KAXM    O1  853   5.894   5.417   2.747
  122KAXM    H1  854   5.926   5.401   2.842
  123KAXM    H8  855   4.400   0.459   0.942
  123KAXM    O2  856   4.379   0.463   0.844
  123KAXM    C3  857   4.498   0.485   0.766
  123KAXM    C2  858   4.600   0.373   0.781
  123KAXM    C1  859   4.543   0.240   0.734
  123KAXM    O1  860   4.645   0.139   0.729
  123KAXM    H1  861   4.637   0.092   0.639
  124KAXM    H8  862   1.296   3.327   2.225
  124KAXM    O2  863   1.328   3.391   2.154
  124KAXM    C3  864   1.304   3.526   2.197
  124KAXM    C2  865   1.157   3.567   2.201
  124KAXM    C1  866   1.148   3.714   2.243
  124KAXM    O1  867   1.012   3.763   2.254
  124KAXM    H1  868   1.019   3.859   2.276
  125KAXM    H8  869   4.310   2.896   1.753
  125KAXM    O2  870   4.350   2.835   1.823
  125KAXM    C3  871   4.353   2.903   1.950
  125KAXM    C2  872   4.349   2.805   2.067
  125KAXM    C1  873   4.380   2.869   2.202
  125KAXM    O1  874   4.277   2.957   2.249
  125KAXM    H1  875   4.286   2.969   2.348
  126KAXM    H8  876   0.315   5.085   4.160
  126KAXM    O2  877   0.328   5.006   4.101
  126KAXM    C3  878   0.203   4.958   4.051
  126KAXM    C2  879   0.144   4.849   4.139
  126KAXM    C1  880   0.005   4.807   4.095
  126KAXM    O1  881   5.950   4.704   4.178
  126KAXM    H1  882   5.933   4.736   4.272
  127KAXM    H8  883   5.409   4.617   0.568
  127KAXM    O2  884   5.310   4.596   0.570
  127KAXM    C3  885   5.230   4.715   0.568
  127KAXM    C2  886   5.206   4.764   0.426
  127KAXM    C1  887   5.111   4.884   0.424
  127KAXM    O1  888   5.097   4.939   0.292
  127KAXM    H1  889   5.153   5.023   0.285
  128KAXM    H8  890   1.419   4.513   2.244
  128KAXM    O2  891   1.399   4.437   2.181
  128KAXM    C3  892   1.403   4.492   2.049
  128KAXM    C2  893   1.271   4.556   2.006
  128KAXM    C1  894   1.298   4.621   1.872
  128KAXM    O1  895   1.179   4.660   1.802
  128KAXM    H1  896   1.157   4.757   1.825
  129KAXM    H8  897   2.512   3.601   2.040
  129KAXM    O2  898   2.487   3.670   2.109
  129KAXM    C3  899   2.483   3.609   2.239
  129KAXM    C2  900   2.403   3.687   2.343
  129KAXM    C1  901   2.463   3.823   2.376
  129KAXM    O1  902   2.406   3.875   2.499
  129KAXM    H1  903   2.466   3.945   2.537
  130KAXM    H8  904   5.201   3.264   3.315
  130KAXM    O2  905   5.157   3.191   3.371
  130KAXM    C3  906   5.042   3.247   3.438
  130KAXM    C2  907   5.066   3.285   3.585
  130KAXM    C1  908   5.110   3.164   3.666
  130KAXM    O1  909   5.105   3.182   3.809
  130KAXM    H1  910   5.162   3.259   3.839
  131KAXM    H8  911   2.165   2.487   3.193
  131KAXM    O2  912   2.119   2.563   3.144
  131KAXM    C3  913   2.206   2.615   3.041
  131KAXM    C2  914   2.167   2.561   2.904
  131KAXM    C1  915   2.233   2.640   2.792
  131KAXM    O1  916   2.195   2.586   2.665
  131KAXM    H1  917   2.279   2.560   2.614
  132KAXM    H8  918   0.496   0.472   2.138
  132KAXM    O2  919   0.489   0.427   2.047
  132KAXM    C3  920   0.351   0.421   2.006
  132KAXM    C2  921   0.285   0.286   2.032
  132KAXM    C1  922   0.248   0.266   2.179
  132KAXM    O1  923   0.194   0.134   2.202
  132KAXM    H1  924   0.123   0.138   2.274
  133KAXM    H8  925   5.716   1.175   2.480
  133KAXM    O2  926   5.740   1.176   2.578
  133KAXM    C3  927   5.639   1.107   2.654
  133KAXM    C2  928   5.624   1.168   2.793
  133KAXM    C1  929   5.537   1.082   2.885
  133KAXM    O1  930   5.518   1.147   3.012
  133KAXM    H1  931   5.462   1.089   3.074
  134KAXM    H8  932   1.356   1.799   0.159
  134KAXM    O2  933   1.448   1.782   0.187
  134KAXM    C3  934   1.461   1.818   0.325
  134KAXM    C2  935   1.605   1.849   0.363
  134KAXM    C1  936   1.626   1.833   0.513
  134KAXM    O1  937   1.616   1.695   0.551
  134KAXM    H1  938   1.583   1.689   0.648
  135KAXM    H8  939   2.727   3.666   4.193
  135KAXM    O2  940   2.764   3.645   4.284
  135KAXM    C3  941   2.895   3.588   4.272
  135KAXM    C2  942   2.966   3.596   4.407
  135KAXM    C1  943   3.103   3.530   4.404
  135KAXM    O1  944   3.188   3.578   4.510
  135KAXM    H1  945   3.283   3.550   4.488
  136KAXM    H8  946   2.191   0.141   4.606
  136KAXM    O2  947   2.092   0.133   4.625
  136KAXM    C3  948   2.047   0.258   4.683
  136KAXM    C2  949   1.905   0.293   4.644
  136KAXM    C1  950   1.897   0.319   4.494
  136KAXM    O1  951   1.761   0.336   4.451
  136KAXM    H1  952   1.714   0.247   4.467
  137KAXM    H8  953   5.844   4.541   0.758
  137KAXM    O2  954   5.944   4.536   0.762
  137KAXM    C3  955   5.991   4.467   0.645
  137KAXM    C2  956   0.094   4.549   0.568
  137KAXM    C1  957   0.148   4.475   0.446
  137KAXM    O1  958   0.046   4.446   0.348
  137KAXM    H1  959   0.087   4.386   0.277
  138KAXM    H8  960   4.883   5.284   2.258
  138KAXM    O2  961   4.831   5.256   2.175
  138KAXM    C3  962   4.712   5.337   2.171
  138KAXM    C2  963   4.595   5.271   2.098
  138KAXM    C1  964   4.467   5.348   2.126
  138KAXM    O1  965   4.351   5.289   2.066
  138KAXM    H1  966   4.294   5.256   2.138
  139KAXM    H8  967   0.855   0.022   2.887
  139KAXM    O2  968   0.801   0.107   2.874
  139KAXM    C3  969   0.755   0.151   3.003
  139KAXM    C2  970   0.631   0.239   2.999
  139KAXM    C1  971   0.660   0.375   2.938
  139KAXM    O1  972   0.545   0.461   2.949
  139KAXM    H1  973   0.559   0.521   3.028
  140KAXM    H8  974   1.724   4.523   0.074
  140KAXM    O2  975   1.720   4.585   0.153
  140KAXM    C3  976   1.787   4.529   0.267
  140KAXM    C2  977   1.689   4.458   0.360
  140KAXM    C1  978   1.761   4.406   0.484
  140KAXM    O1  979   1.674   4.338   0.576
  140KAXM    H1  980   1.719   4.341   0.666
  141KAXM    H8  981   1.112   1.790   3.271
  141KAXM    O2  982   1.175   1.802   3.194
  141KAXM    C3  983   1.191   1.943   3.171
  141KAXM    C2  984   1.091   1.996   3.069
  141KAXM    C1  985   1.110   2.145   3.044
  141KAXM    O1  986   1.048   2.188   2.921
  141KAXM    H1  987   0.948   2.183   2.929
  142KAXM    H8  988   0.588   2.264   2.115
  142KAXM    O2  989   0.647   2.236   2.192
  142KAXM    C3  990   0.778   2.291   2.172
  142KAXM    C2  991   0.881   2.186   2.131
  142KAXM    C1  992   0.857   2.142   1.988
  142KAXM    O1  993   0.962   2.062   1.932
  142KAXM    H1  994   0.919   2.010   1.859
  143KAXM    H8  995   3.477   0.597   4.553
  143KAXM    O2  996   3.557   0.537   4.542
  143KAXM    C3  997   3.619   0.568   4.416
  143KAXM    C2  998   3.759   0.509   4.405
  143KAXM    C1  999   3.822   0.541   4.270
  143KAXM    O1 1000   3.948   0.475   4.256
  143KAXM    H1 1001   3.933   0.377   4.234
  144KAXM    H8 1002   4.226   3.149   3.027
  144KAXM    O2 1003   4.178   3.205   2.958
  144KAXM    C3 1004   4.259   3.223   2.840
  144KAXM    C2 1005   4.209   3.140   2.723
  144KAXM    C1 1006   4.291   3.173   2.598
  144KAXM    O1 1007   4.251   3.097   2.483
  144KAXM    H1 1008   4.246   3.159   2.403
  145KAXM    H8 1009   2.183   5.926   4.178
  145KAXM    O2 1010   2.163   0.019   4.143
  145KAXM    C3 1011   2.206   0.117   4.239
  145KAXM    C2 1012   2.173   0.260   4.197
  145KAXM    C1 1013   2.230   0.358   4.300
  145KAXM    O1 1014   2.193   0.493   4.272
  145KAXM    H1 1015   2.262   0.540   4.216
  146KAXM    H8 1016   5.005   0.438   3.543
  146KAXM    O2 1017   4.927   0.498   3.518
  146KAXM    C3 1018   4.937   0.619   3.598
  146KAXM    C2 1019   4.893   0.594   3.742
  146KAXM    C1 1020   4.995   0.643   3.845
  146KAXM    O1 1021   4.987   0.562   3.964
  146KAXM    H1 1022   5.047   0.600   4.037
  147KAXM    H8 1023   5.523   0.846   1.399
  147KAXM    O2 1024   5.423   0.850   1.404
  147KAXM    C3 1025   5.378   0.745   1.490
  147KAXM    C2 1026   5.384   0.782   1.638
  147KAXM    C1 1027   5.345   0.662   1.723
  147KAXM    O1 1028   5.315   0.694   1.860
  147KAXM    H1 1029   5.400   0.730   1.904
  148KAXM    H8 1030   3.320   2.048   5.953
  148KAXM    O2 1031   3.419   2.045   5.969
  148KAXM    C3 1032   3.467   1.914   5.933
  148KAXM    C2 1033   3.463   1.896   5.783
  148KAXM    C1 1034   3.369   1.781   5.751
  148KAXM    O1 1035   3.306   1.795   5.622
  148KAXM    H1 1036   3.372   1.822   5.550
  149KAXM    H8 1037   0.334   1.967   2.024
  149KAXM    O2 1038   0.250   2.017   1.996
  149KAXM    C3 1039   0.221   1.979   1.860
  149KAXM    C2 1040   0.092   1.901   1.846
  149KAXM    C1 1041   5.974   1.987   1.888
  149KAXM    O1 1042   5.859   1.952   1.809
  149KAXM    H1 1043   5.826   1.862   1.841
  150KAXM    H8 1044   1.055   0.290   1.735
  150KAXM    O2 1045   1.106   0.283   1.650
  150KAXM    C3 1046   1.033   0.198   1.560
  150KAXM    C2 1047   0.999   0.065   1.626
  150KAXM    C1 1048   0.967   5.958   1.523
  150KAXM    O1 1049   0.930   5.835   1.587
  150KAXM    H1 1050   1.012   5.783   1.618
  151KAXM    H8 1051   0.071   1.377   3.136
  151KAXM    O2 1052   5.996   1.441   3.149
  151KAXM    C3 1053   0.039   1.558   3.219
  151KAXM    C2 1054   5.932   1.611   3.314
  151KAXM    C1 1055   5.999   1.708   3.410
  151KAXM    O1 1056   5.911   1.756   3.513
  151KAXM    H1 1057   5.876   1.681   3.570
  152KAXM    H8 1058   4.044   2.355   4.405
  152KAXM    O2 1059   4.123   2.376   4.346
  152KAXM    C3 1060   4.137   2.519   4.336
  152KAXM    C2 1061   4.220   2.563   4.216
  152KAXM    C1 1062   4.162   2.510   4.086
  152KAXM    O1 1063   4.146   2.615   3.988
  152KAXM    H1 1064   4.056   2.661   4.004
  153KAXM    H8 1065   2.967   4.461   0.390
  153KAXM    O2 1066   2.913   4.429   0.309
  153KAXM    C3 1067   2.835   4.535   0.250
  153KAXM    C2 1068   2.815   4.516   0.100
  153KAXM    C1 1069   2.693   4.593   0.051
  153KAXM    O1 1070   2.659   4.568   5.913
  153KAXM    H1 1071   2.656   4.468   5.894
  154KAXM    H8 1072   2.259   5.767   5.323
  154KAXM    O2 1073   2.299   5.850   5.281
  154KAXM    C3 1074   2.194   5.947   5.267
  154KAXM    C2 1075   2.233   0.050   5.162
  154KAXM    C1 1076   2.131   0.162   5.151
  154KAXM    O1 1077   2.179   0.265   5.063
  154KAXM    H1 1078   2.137   0.352   5.092
  155KAXM    H8 1079   3.738   1.716   0.278
  155KAXM    O2 1080   3.648   1.669   0.275
  155KAXM    C3 1081   3.625   1.598   0.398
  155KAXM    C2 1082   3.690   1.668   0.516
  155KAXM    C1 1083   3.646   1.615   0.651
  155KAXM    O1 1084   3.714   1.686   0.756
  155KAXM    H1 1085   3.656   1.763   0.785
  156KAXM    H8 1086   5.020   0.272   4.395
  156KAXM    O2 1087   4.987   0.311   4.482
  156KAXM    C3 1088   5.066   0.426   4.518
  156KAXM    C2 1089   4.983   0.537   4.581
  156KAXM    C1 1090   5.070   0.658   4.615
  156KAXM    O1 1091   4.997   0.769   4.671
  156KAXM    H1 1092   4.987   0.754   4.767
  157KAXM    H8 1093   5.237   5.627   2.872
  157KAXM    O2 1094   5.149   5.588   2.901
  157KAXM    C3 1095   5.158   5.446   2.917
  157KAXM    C2 1096   5.049   5.401   3.014
  157KAXM    C1 1097   5.046   5.250   3.026
  157KAXM    O1 1098   4.964   5.211   3.138
  157KAXM    H1 1099   4.981   5.116   3.164
  158KAXM    H8 1100   4.790   3.515   4.820
  158KAXM    O2 1101   4.705   3.566   4.811
  158KAXM    C3 1102   4.591   3.478   4.810
  158KAXM    C2 1103   4.463   3.554   4.777
  158KAXM    C1 1104   4.454   3.586   4.629
  158KAXM    O1 1105   4.380   3.707   4.604
  158KAXM    H1 1106   4.446   3.782   4.600
  159KAXM    H8 1107   4.275   2.970   3.074
  159KAXM    O2 1108   4.282   3.052   3.133
  159KAXM    C3 1109   4.351   3.019   3.255
  159KAXM    C2 1110   4.298   3.101   3.373
  159KAXM    C1 1111   4.376   3.072   3.501
  159KAXM    O1 1112   4.310   3.128   3.617
  159KAXM    H1 1113   4.359   3.096   3.700
  160KAXM    H8 1114   0.738   3.238   0.839
  160KAXM    O2 1115   0.836   3.260   0.849
  160KAXM    C3 1116   0.864   3.313   0.980
  160KAXM    C2 1117   0.978   3.237   1.046
  160KAXM    C1 1118   0.996   3.286   1.190
  160KAXM    O1 1119   1.101   3.218   1.259
  160KAXM    H1 1120   1.099   3.246   1.353
  161KAXM    H8 1121   4.032   3.833   3.912
  161KAXM    O2 1122   3.973   3.769   3.858
  161KAXM    C3 1123   4.017   3.766   3.721
  161KAXM    C2 1124   4.133   3.668   3.699
  161KAXM    C1 1125   4.138   3.621   3.554
  161KAXM    O1 1126   4.222   3.505   3.539
  161KAXM    H1 1127   4.186   3.430   3.596
  162KAXM    H8 1128   1.127   4.118   5.353
  162KAXM    O2 1129   1.211   4.069   5.325
  162KAXM    C3 1130   1.228   3.953   5.409
  162KAXM    C2 1131   1.180   3.978   5.551
  162KAXM    C1 1132   1.199   3.855   5.639
  162KAXM    O1 1133   1.137   3.865   5.769
  162KAXM    H1 1134   1.181   3.798   5.832
  163KAXM    H8 1135   3.570   1.458   2.528
  163KAXM    O2 1136   3.658   1.443   2.483
  163KAXM    C3 1137   3.649   1.448   2.340
  163KAXM    C2 1138   3.787   1.476   2.281
  163KAXM    C1 1139   3.784   1.504   2.131
  163KAXM    O1 1140   3.793   1.386   2.048
  163KAXM    H1 1141   3.835   1.415   1.960
  164KAXM    H8 1142   5.805   0.804   5.848
  164KAXM    O2 1143   5.870   0.732   5.876
  164KAXM    C3 1144   5.902   0.752   0.014
  164KAXM    C2 1145   5.809   0.667   0.099
  164KAXM    C1 1146   5.858   0.662   0.243
  164KAXM    O1 1147   5.759   0.600   0.326
  164KAXM    H1 1148   5.772   0.501   0.316
  165KAXM    H8 1149   5.590   4.402   2.472
  165KAXM    O2 1150   5.537   4.485   2.496
  165KAXM    C3 1151   5.613   4.556   2.596
  165KAXM    C2 1152   5.538   4.574   2.728
  165KAXM    C1 1153   5.633   4.616   2.841
  165KAXM    O1 1154   5.722   4.510   2.882
  165KAXM    H1 1155   5.782   4.545   2.956
  166KAXM    H8 1156   2.610   4.555   1.435
  166KAXM    O2 1157   2.636   4.611   1.354
  166KAXM    C3 1158   2.776   4.594   1.329
  166KAXM    C2 1159   2.850   4.722   1.291
  166KAXM    C1 1160   2.990   4.688   1.242
  166KAXM    O1 1161   3.075   4.802   1.217
  166KAXM    H1 1162   3.022   4.876   1.173
  167KAXM    H8 1163   3.380   4.499   0.338
  167KAXM    O2 1164   3.438   4.431   0.383
  167KAXM    C3 1165   3.492   4.490   0.503
  167KAXM    C2 1166   3.574   4.387   0.580
  167KAXM    C1 1167   3.650   4.453   0.694
  167KAXM    O1 1168   3.733   4.358   0.763
  167KAXM    H1 1169   3.711   4.363   0.862
  168KAXM    H8 1170   5.550   4.925   4.228
  168KAXM    O2 1171   5.548   4.889   4.319
  168KAXM    C3 1172   5.467   4.769   4.319
  168KAXM    C2 1173   5.343   4.785   4.406
  168KAXM    C1 1174   5.265   4.655   4.415
  168KAXM    O1 1175   5.145   4.672   4.492
  168KAXM    H1 1176   5.123   4.585   4.536
  169KAXM    H8 1177   5.223   1.084   5.021
  169KAXM    O2 1178   5.165   1.002   5.015
  169KAXM    C3 1179   5.026   1.042   5.023
  169KAXM    C2 1180   4.988   1.097   5.160
  169KAXM    C1 1181   4.991   0.986   5.265
  169KAXM    O1 1182   5.049   1.026   5.390
  169KAXM    H1 1183   4.977   1.054   5.452
  170KAXM    H8 1184   5.434   4.544   5.460
  170KAXM    O2 1185   5.477   4.535   5.369
  170KAXM    C3 1186   5.525   4.400   5.355
  170KAXM    C2 1187   5.569   4.369   5.213
  170KAXM    C1 1188   5.595   4.221   5.190
  170KAXM    O1 1189   5.664   4.192   5.066
  170KAXM    H1 1190   5.626   4.249   4.990
  171KAXM    H8 1191   2.952   4.594   2.057
  171KAXM    O2 1192   2.999   4.521   2.005
  171KAXM    C3 1193   3.012   4.564   1.868
  171KAXM    C2 1194   3.126   4.497   1.792
  171KAXM    C1 1195   3.260   4.526   1.858
  171KAXM    O1 1196   3.372   4.468   1.790
  171KAXM    H1 1197   3.437   4.444   1.860
  172KAXM    H8 1198   2.993   5.634   4.368
  172KAXM    O2 1199   3.061   5.579   4.420
  172KAXM    C3 1200   3.016   5.443   4.421
  172KAXM    C2 1201   3.063   5.370   4.546
  172KAXM    C1 1202   2.998   5.233   4.554
  172KAXM    O1 1203   3.054   5.156   4.661
  172KAXM    H1 1204   3.143   5.116   4.633
  173KAXM    H8 1205   0.991   1.059   5.188
  173KAXM    O2 1206   0.910   1.119   5.193
  173KAXM    C3 1207   0.850   1.115   5.324
  173KAXM    C2 1208   0.800   0.976   5.363
  173KAXM    C1 1209   0.740   0.980   5.503
  173KAXM    O1 1210   0.679   0.856   5.544
  173KAXM    H1 1211   0.749   0.790   5.559
  174KAXM    H8 1212   3.671   2.691   5.107
  174KAXM    O2 1213   3.737   2.739   5.047
  174KAXM    C3 1214   3.770   2.867   5.104
  174KAXM    C2 1215   3.650   2.961   5.107
  174KAXM    C1 1216   3.689   3.089   5.178
  174KAXM    O1 1217   3.572   3.164   5.216
  174KAXM    H1 1218   3.603   3.240   5.272
  175KAXM    H8 1219   1.658   0.797   1.524
  175KAXM    O2 1220   1.640   0.699   1.541
  175KAXM    C3 1221   1.508   0.662   1.500
  175KAXM    C2 1222   1.484   0.512   1.520
  175KAXM    C1 1223   1.339   0.475   1.491
  175KAXM    O1 1224   1.315   0.333   1.503
  175KAXM    H1 1225   1.234   0.320   1.563
  176KAXM    H8 1226   4.493   4.704   5.024
  176KAXM    O2 1227   4.413   4.736   5.078
  176KAXM    C3 1228   4.407   4.880   5.075
  176KAXM    C2 1229   4.296   4.928   4.984
  176KAXM    C1 1230   4.285   5.080   4.983
  176KAXM    O1 1231   4.232   5.134   5.106
  176KAXM    H1 1232   4.205   5.226   5.090
  177KAXM    H8 1233   0.803   4.517   0.453
  177KAXM    O2 1234   0.796   4.522   0.354
  177KAXM    C3 1235   0.694   4.434   0.306
  177KAXM    C2 1236   0.698   4.425   0.154
  177KAXM    C1 1237   0.580   4.343   0.100
  177KAXM    O1 1238   0.584   4.328   5.957
  177KAXM    H1 1239   0.640   4.247   5.936
  178KAXM    H8 1240   0.523   1.471   2.334
  178KAXM    O2 1241   0.433   1.505   2.305
  178KAXM    C3 1242   0.378   1.421   2.202
  178KAXM    C2 1243   0.248   1.472   2.140
  178KAXM    C1 1244   0.121   1.442   2.220
  178KAXM    O1 1245   0.101   1.528   2.333
  178KAXM    H1 1246   0.112   1.473   2.418
  179KAXM    H8 1247   5.981   5.903   2.167
  179KAXM    O2 1248   5.908   5.903   2.237
  179KAXM    C3 1249   5.780   5.874   2.179
  179KAXM    C2 1250   5.726   5.737   2.220
  179KAXM    C1 1251   5.593   5.701   2.154
  179KAXM    O1 1252   5.475   5.759   2.213
  179KAXM    H1 1253   5.474   5.860   2.197
  180KAXM    H8 1254   3.349   5.340   1.134
  180KAXM    O2 1255   3.271   5.285   1.104
  180KAXM    C3 1256   3.260   5.294   0.961
  180KAXM    C2 1257   3.310   5.168   0.892
  180KAXM    C1 1258   3.295   5.181   0.741
  180KAXM    O1 1259   3.326   5.057   0.674
  180KAXM    H1 1260   3.414   5.021   0.708
  181KAXM    H8 1261   4.777   3.437   3.733
  181KAXM    O2 1262   4.766   3.387   3.820
  181KAXM    C3 1263   4.874   3.425   3.906
  181KAXM    C2 1264   4.823   3.494   4.031
  181KAXM    C1 1265   4.940   3.545   4.114
  181KAXM    O1 1266   4.892   3.604   4.235
  181KAXM    H1 1267   4.854   3.695   4.215
  182KAXM    H8 1268   2.127   0.591   2.668
  182KAXM    O2 1269   2.211   0.586   2.726
  182KAXM    C3 1270   2.321   0.595   2.634
  182KAXM    C2 1271   2.449   0.536   2.690
  182KAXM    C1 1272   2.556   0.540   2.582
  182KAXM    O1 1273   2.664   0.449   2.608
  182KAXM    H1 1274   2.698   0.421   2.517
  183KAXM    H8 1275   4.694   0.328   0.178
  183KAXM    O2 1276   4.610   0.384   0.187
  183KAXM    C3 1277   4.622   0.467   0.304
  183KAXM    C2 1278   4.520   0.580   0.304
  183KAXM    C1 1279   4.541   0.667   0.427
  183KAXM    O1 1280   4.467   0.790   0.422
  183KAXM    H1 1281   4.368   0.771   0.427
  184KAXM    H8 1282   2.218   1.282   3.902
  184KAXM    O2 1283   2.310   1.246   3.876
  184KAXM    C3 1284   2.312   1.220   3.734
  184KAXM    C2 1285   2.254   1.333   3.649
  184KAXM    C1 1286   2.250   1.293   3.501
  184KAXM    O1 1287   2.164   1.180   3.478
  184KAXM    H1 1288   2.175   1.147   3.383
  185KAXM    H8 1289   5.966   0.812   3.159
  185KAXM    O2 1290   5.868   0.823   3.138
  185KAXM    C3 1291   5.809   0.878   3.257
  185KAXM    C2 1292   5.663   0.840   3.277
  185KAXM    C1 1293   5.619   0.868   3.421
  185KAXM    O1 1294   5.695   0.794   3.518
  185KAXM    H1 1295   5.770   0.855   3.549
  186KAXM    H8 1296   1.745   4.541   4.944
  186KAXM    O2 1297   1.821   4.575   4.885
  186KAXM    C3 1298   1.786   4.710   4.846
  186KAXM    C2 1299   1.880   4.766   4.741
  186KAXM    C1 1300   1.831   4.899   4.684
  186KAXM    O1 1301   1.917   4.946   4.578
  186KAXM    H1 1302   1.861   4.999   4.512
  187KAXM    H8 1303   0.379   5.035   2.438
  187KAXM    O2 1304   0.338   5.053   2.529
  187KAXM    C3 1305   0.445   5.051   2.625
  187KAXM    C2 1306   0.409   5.118   2.756
  187KAXM    C1 1307   0.496   5.061   2.867
  187KAXM    O1 1308   0.483   5.137   2.989
  187KAXM    H1 1309   0.532   5.089   3.063
  188KAXM    H8 1310   5.252   5.676   4.228
  188KAXM    O2 1311   5.284   5.770   4.232
  188KAXM    C3 1312   5.180   5.860   4.190
  188KAXM    C2 1313   5.187   5.998   4.254
  188KAXM    C1 1314   5.053   0.068   4.234
  188KAXM    O1 1315   5.060   0.210   4.256
  188KAXM    H1 1316   5.050   0.255   4.166
  189KAXM    H8 1317   0.882   0.007   3.897
  189KAXM    O2 1318   0.921   0.001   3.988
  189KAXM    C3 1319   0.917   0.127   4.056
  189KAXM    C2 1320   1.027   0.130   4.160
  189KAXM    C1 1321   1.026   0.258   4.241
  189KAXM    O1 1322   1.153   0.275   4.306
  189KAXM    H1 1323   1.140   0.305   4.402
  190KAXM    H8 1324   3.313   1.323   1.699
  190KAXM    O2 1325   3.229   1.300   1.647
  190KAXM    C3 1326   3.240   1.351   1.513
  190KAXM    C2 1327   3.259   1.502   1.519
  190KAXM    C1 1328   3.280   1.565   1.382
  190KAXM    O1 1329   3.290   1.708   1.393
  190KAXM    H1 1330   3.271   1.744   1.303
  191KAXM    H8 1331   3.819   4.182   3.331
  191KAXM    O2 1332   3.887   4.178   3.256
  191KAXM    C3 1333   3.905   4.038   3.224
  191KAXM    C2 1334   4.013   4.023   3.119
  191KAXM    C1 1335   4.032   3.880   3.076
  191KAXM    O1 1336   4.132   3.875   2.973
  191KAXM    H1 1337   4.220   3.902   3.010
  192KAXM    H8 1338   5.693   4.510   1.475
  192KAXM    O2 1339   5.647   4.488   1.562
  192KAXM    C3 1340   5.748   4.465   1.661
  192KAXM    C2 1341   5.692   4.481   1.802
  192KAXM    C1 1342   5.803   4.467   1.904
  192KAXM    O1 1343   5.751   4.479   2.038
  192KAXM    H1 1344   5.742   4.577   2.061
  193KAXM    H8 1345   3.219   4.147   3.271
  193KAXM    O2 1346   3.225   4.212   3.193
  193KAXM    C3 1347   3.165   4.158   3.074
  193KAXM    C2 1348   3.027   4.219   3.048
  193KAXM    C1 1349   2.956   4.155   2.929
  193KAXM    O1 1350   3.007   4.196   2.801
  193KAXM    H1 1351   3.066   4.123   2.763
  194KAXM    H8 1352   4.071   0.217   1.655
  194KAXM    O2 1353   4.007   0.150   1.616
  194KAXM    C3 1354   4.040   0.129   1.477
  194KAXM    C2 1355   4.061   0.263   1.408
  194KAXM    C1 1356   4.047   0.253   1.258
  194KAXM    O1 1357   3.908   0.245   1.221
  194KAXM    H1 1358   3.889   0.149   1.198
  195KAXM    H8 1359   2.911   2.764   4.753
  195KAXM    O2 1360   2.839   2.714   4.702
  195KAXM    C3 1361   2.712   2.763   4.749
  195KAXM    C2 1362   2.649   2.877   4.670
  195KAXM    C1 1363   2.602   2.828   4.533
  195KAXM    O1 1364   2.485   2.900   4.491
  195KAXM    H1 1365   2.406   2.866   4.544
  196KAXM    H8 1366   2.644   2.030   1.644
  196KAXM    O2 1367   2.638   2.057   1.742
  196KAXM    C3 1368   2.709   2.181   1.758
  196KAXM    C2 1369   2.707   2.227   1.903
  196KAXM    C1 1370   2.569   2.277   1.944
  196KAXM    O1 1371   2.568   2.327   2.079
  196KAXM    H1 1372   2.607   2.421   2.082
  197KAXM    H8 1373   4.033   3.504   4.149
  197KAXM    O2 1374   4.095   3.485   4.224
  197KAXM    C3 1375   4.032   3.400   4.322
  197KAXM    C2 1376   4.059   3.254   4.287
  197KAXM    C1 1377   4.025   3.158   4.399
  197KAXM    O1 1378   4.069   3.025   4.367
  197KAXM    H1 1379   4.153   3.027   4.311
  198KAXM    H8 1380   5.304   4.972   3.350
  198KAXM    O2 1381   5.353   5.058   3.369
  198KAXM    C3 1382   5.285   5.162   3.296
  198KAXM    C2 1383   5.208   5.254   3.389
  198KAXM    C1 1384   5.100   5.180   3.467
  198KAXM    O1 1385   5.035   5.267   3.561
  198KAXM    H1 1386   4.951   5.221   3.594
  199KAXM    H8 1387   5.953   2.332   4.221
  199KAXM    O2 1388   5.928   2.241   4.247
  199KAXM    C3 1389   0.045   2.175   4.299
  199KAXM    C2 1390   0.144   2.141   4.189
  199KAXM    C1 1391   0.273   2.081   4.244
  199KAXM    O1 1392   0.377   2.088   4.146
  199KAXM    H1 1393   0.359   2.029   4.068
  200KAXM    H8 1394   4.040   3.405   0.913
  200KAXM    O2 1395   3.968   3.410   0.847
  200KAXM    C3 1396   3.994   3.521   0.760
  200KAXM    C2 1397   3.896   3.532   0.644
  200KAXM    C1 1398   3.925   3.661   0.569
  200KAXM    O1 1399   3.839   3.678   0.456
  200KAXM    H1 1400   3.764   3.741   0.481
  201KAXM    H8 1401   3.364   4.121   4.656
  201KAXM    O2 1402   3.375   4.079   4.749
  201KAXM    C3 1403   3.245   4.048   4.804
  201KAXM    C2 1404   3.154   4.168   4.822
  201KAXM    C1 1405   3.041   4.135   4.920
  201KAXM    O1 1406   2.941   4.237   4.931
  201KAXM    H1 1407   2.984   4.329   4.936
  202KAXM    H8 1408   2.175   5.361   1.908
  202KAXM    O2 1409   2.089   5.409   1.885
  202KAXM    C3 1410   1.989   5.353   1.971
  202KAXM    C2 1411   1.849   5.351   1.912
  202KAXM    C1 1412   1.755   5.282   2.008
  202KAXM    O1 1413   1.625   5.258   1.951
  202KAXM    H1 1414   1.581   5.348   1.932
  203KAXM    H8 1415   3.449   2.279   1.218
  203KAXM    O2 1416   3.514   2.203   1.201
  203KAXM    C3 1417   3.513   2.175   1.060
  203KAXM    C2 1418   3.530   2.027   1.027
  203KAXM    C1 1419   3.520   2.013   0.876
  203KAXM    O1 1420   3.551   1.882   0.822
  203KAXM    H1 1421   3.482   1.815   0.856
  204KAXM    H8 1422   2.925   4.299   2.728
  204KAXM    O2 1423   2.863   4.365   2.681
  204KAXM    C3 1424   2.942   4.436   2.584
  204KAXM    C2 1425   2.938   4.588   2.592
  204KAXM    C1 1426   3.009   4.641   2.716
  204KAXM    O1 1427   3.068   4.770   2.690
  204KAXM    H1 1428   3.151   4.751   2.635
  205KAXM    H8 1429   2.803   5.504   2.779
  205KAXM    O2 1430   2.830   5.538   2.868
  205KAXM    C3 1431   2.946   5.621   2.863
  205KAXM    C2 1432   2.916   5.754   2.797
  205KAXM    C1 1433   3.021   5.861   2.822
  205KAXM    O1 1434   2.982   5.983   2.757
  205KAXM    H1 1435   2.890   0.011   2.789
  206KAXM    H8 1436   4.719   2.308   0.126
  206KAXM    O2 1437   4.788   2.253   0.080
  206KAXM    C3 1438   4.809   2.129   0.149
  206KAXM    C2 1439   4.958   2.100   0.164
  206KAXM    C1 1440   4.982   1.976   0.248
  206KAXM    O1 1441   5.122   1.956   0.276
  206KAXM    H1 1442   5.165   1.908   0.197
  207KAXM    H8 1443   1.513   2.924   2.339
  207KAXM    O2 1444   1.547   2.892   2.250
  207KAXM    C3 1445   1.599   3.003   2.176
  207KAXM    C2 1446   1.500   3.055   2.072
  207KAXM    C1 1447   1.486   2.956   1.956
  207KAXM    O1 1448   1.393   3.000   1.853
  207KAXM    H1 1449   1.430   3.085   1.809
  208KAXM    H8 1450   0.610   3.775   5.563
  208KAXM    O2 1451   0.511   3.781   5.587
  208KAXM    C3 1452   0.432   3.722   5.481
  208KAXM    C2 1453   0.458   3.794   5.350
  208KAXM    C1 1454   0.366   3.748   5.239
  208KAXM    O1 1455   0.423   3.789   5.114
  208KAXM    H1 1456   0.472   3.709   5.076
  209KAXM    H8 1457   4.348   5.901   1.526
  209KAXM    O2 1458   4.389   5.991   1.506
  209KAXM    C3 1459   4.398   0.010   1.364
  209KAXM    C2 1460   4.517   5.937   1.304
  209KAXM    C1 1461   4.513   5.948   1.153
  209KAXM    O1 1462   4.625   5.879   1.095
  209KAXM    H1 1463   4.671   5.940   1.029
  210KAXM    H8 1464   0.415   5.619   1.012
  210KAXM    O2 1465   0.430   5.687   0.939
  210KAXM    C3 1466   0.432   5.815   1.002
  210KAXM    C2 1467   0.365   5.925   0.922
  210KAXM    C1 1468   0.364   0.054   1.004
  210KAXM    O1 1469   0.306   0.163   0.932
  210KAXM    H1 1470   0.212   0.138   0.901
  211KAXM    H8 1471   4.673   5.792   2.436
  211KAXM    O2 1472   4.598   5.726   2.413
  211KAXM    C3 1473   4.554   5.753   2.280
  211KAXM    C2 1474   4.657   5.701   2.182
  211KAXM    C1 1475   4.604   5.706   2.040
  211KAXM    O1 1476   4.669   5.605   1.960
  211KAXM    H1 1477   4.624   5.602   1.869
  212KAXM    H8 1478   0.081   5.195   5.811
  212KAXM    O2 1479   0.059   5.137   5.733
  212KAXM    C3 1480   0.097   5.001   5.763
  212KAXM    C2 1481   0.153   4.929   5.641
  212KAXM    C1 1482   0.178   4.781   5.668
  212KAXM    O1 1483   0.210   4.705   5.551
  212KAXM    H1 1484   0.175   4.612   5.566
  213KAXM    H8 1485   1.628   5.587   0.581
  213KAXM    O2 1486   1.556   5.657   0.588
  213KAXM    C3 1487   1.507   5.682   0.454
  213KAXM    C2 1488   1.376   5.760   0.453
  213KAXM    C1 1489   1.345   5.815   0.314
  213KAXM    O1 1490   1.323   5.713   0.216
  213KAXM    H1 1491   1.410   5.686   0.173
  214KAXM    H8 1492   5.655   0.747   0.339
  214KAXM    O2 1493   5.602   0.831   0.329
  214KAXM    C3 1494   5.671   0.939   0.395
  214KAXM    C2 1495   5.713   1.047   0.296
  214KAXM    C1 1496   5.785   1.161   0.366
  214KAXM    O1 1497   5.813   1.270   0.275
  214KAXM    H1 1498   5.906   1.259   0.241
  215KAXM    H8 1499   4.796   4.427   5.626
  215KAXM    O2 1500   4.765   4.372   5.705
  215KAXM    C3 1501   4.638   4.420   5.752
  215KAXM    C2 1502   4.536   4.308   5.758
  215KAXM    C1 1503   4.429   4.344   5.859
  215KAXM    O1 1504   4.315   4.257   5.851
  215KAXM    H1 1505   4.318   4.197   5.933
  216KAXM    H8 1506   1.360   1.750   2.781
  216KAXM    O2 1507   1.335   1.840   2.817
  216KAXM    C3 1508   1.454   1.904   2.865
  216KAXM    C2 1509   1.435   2.055   2.869
  216KAXM    C1 1510   1.559   2.120   2.927
  216KAXM    O1 1511   1.534   2.259   2.955
  216KAXM    H1 1512   1.560   2.316   2.875
  217KAXM    H8 1513   4.215   2.954   5.024
  217KAXM    O2 1514   4.215   3.007   4.939
  217KAXM    C3 1515   4.087   3.072   4.929
  217KAXM    C2 1516   4.097   3.206   4.859
  217KAXM    C1 1517   3.977   3.290   4.899
  217KAXM    O1 1518   4.008   3.430   4.889
  217KAXM    H1 1519   4.082   3.450   4.955
  218KAXM    H8 1520   4.394   1.869   0.202
  218KAXM    O2 1521   4.417   1.862   0.104
  218KAXM    C3 1522   4.375   1.984   0.040
  218KAXM    C2 1523   4.415   1.990   5.894
  218KAXM    C1 1524   4.343   2.105   5.824
  218KAXM    O1 1525   4.393   2.122   5.690
  218KAXM    H1 1526   4.327   2.089   5.622
  219KAXM    H8 1527   4.187   2.373   1.515
  219KAXM    O2 1528   4.270   2.330   1.553
  219KAXM    C3 1529   4.238   2.279   1.684
  219KAXM    C2 1530   4.201   2.391   1.779
  219KAXM    C1 1531   4.156   2.333   1.912
  219KAXM    O1 1532   4.130   2.438   2.007
  219KAXM    H1 1533   4.101   2.400   2.094
  220KAXM    H8 1534   2.177   5.688   1.428
  220KAXM    O2 1535   2.145   5.636   1.348
  220KAXM    C3 1536   2.033   5.704   1.289
  220KAXM    C2 1537   1.955   5.609   1.200
  220KAXM    C1 1538   1.909   5.677   1.072
  220KAXM    O1 1539   1.819   5.785   1.096
  220KAXM    H1 1540   1.834   5.857   1.027
  221KAXM    H8 1541   3.293   5.921   1.554
  221KAXM    O2 1542   3.344   5.836   1.572
  221KAXM    C3 1543   3.351   5.807   1.712
  221KAXM    C2 1544   3.461   5.706   1.742
  221KAXM    C1 1545   3.488   5.694   1.892
  221KAXM    O1 1546   3.599   5.606   1.921
  221KAXM    H1 1547   3.670   5.614   1.849
  222KAXM    H8 1548   3.101   1.824   0.476
  222KAXM    O2 1549   3.069   1.740   0.520
  222KAXM    C3 1550   3.088   1.748   0.663
  222KAXM    C2 1551   3.230   1.709   0.703
  222KAXM    C1 1552   3.254   1.728   0.852
  222KAXM    O1 1553   3.391   1.702   0.886
  222KAXM    H1 1554   3.398   1.612   0.932
  223KAXM    H8 1555   1.035   3.057   0.152
  223KAXM    O2 1556   1.056   2.986   0.222
  223KAXM    C3 1557   1.001   3.023   0.349
  223KAXM    C2 1558   1.108   3.020   0.458
  223KAXM    C1 1559   1.047   3.042   0.596
  223KAXM    O1 1560   1.149   3.065   0.695
  223KAXM    H1 1561   1.153   3.163   0.715
  224KAXM    H8 1562   5.644   3.490   0.885
  224KAXM    O2 1563   5.599   3.404   0.856
  224KAXM    C3 1564   5.595   3.396   0.713
  224KAXM    C2 1565   5.634   3.259   0.661
  224KAXM    C1 1566   5.632   3.255   0.509
  224KAXM    O1 1567   5.711   3.148   0.455
  224KAXM    H1 1568   5.787   3.191   0.402
  225KAXM    H8 1569   5.622   0.442   3.691
  225KAXM    O2 1570   5.590   0.401   3.777
  225KAXM    C3 1571   5.551   0.263   3.758
  225KAXM    C2 1572   5.518   0.195   3.891
  225KAXM    C1 1573   5.473   0.050   3.875
  225KAXM    O1 1574   5.341   0.038   3.820
  225KAXM    H1 1575   5.348   0.004   3.725
  226KAXM    H8 1576   4.047   1.927   1.745
  226KAXM    O2 1577   4.013   1.879   1.663
  226KAXM    C3 1578   4.055   1.947   1.544
  226KAXM    C2 1579   3.957   2.055   1.498
  226KAXM    C1 1580   4.008   2.133   1.378
  226KAXM    O1 1581   4.016   2.055   1.257
  226KAXM    H1 1582   4.111   2.021   1.244
  227KAXM    H8 1583   1.348   1.435   2.178
  227KAXM    O2 1584   1.303   1.520   2.205
  227KAXM    C3 1585   1.278   1.604   2.091
  227KAXM    C2 1586   1.236   1.742   2.139
  227KAXM    C1 1587   1.192   1.835   2.028
  227KAXM    O1 1588   1.128   1.950   2.086
  227KAXM    H1 1589   1.068   1.994   2.019
  228KAXM    H8 1590   0.523   0.360   3.763
  228KAXM    O2 1591   0.482   0.374   3.853
  228KAXM    C3 1592   0.578   0.351   3.957
  228KAXM    C2 1593   0.529   0.410   4.088
  228KAXM    C1 1594   0.626   0.378   4.201
  228KAXM    O1 1595   0.601   0.462   4.315
  228KAXM    H1 1596   0.631   0.556   4.291
  229KAXM    H8 1597   5.570   2.410   1.142
  229KAXM    O2 1598   5.552   2.334   1.078
  229KAXM    C3 1599   5.678   2.282   1.030
  229KAXM    C2 1600   5.770   2.236   1.142
  229KAXM    C1 1601   5.912   2.219   1.089
  229KAXM    O1 1602   5.935   2.104   1.003
  229KAXM    H1 1603   5.849   2.060   0.974
  230KAXM    H8 1604   5.694   4.658   1.349
  230KAXM    O2 1605   5.745   4.570   1.341
  230KAXM    C3 1606   5.868   4.595   1.270
  230KAXM    C2 1607   5.896   4.492   1.161
  230KAXM    C1 1608   0.023   4.527   1.083
  230KAXM    O1 1609   0.051   4.439   0.973
  230KAXM    H1 1610   0.011   4.477   0.889
  231KAXM    H8 1611   1.368   4.617   1.008
  231KAXM    O2 1612   1.385   4.708   1.046
  231KAXM    C3 1613   1.381   4.712   1.189
  231KAXM    C2 1614   1.515   4.674   1.250
  231KAXM    C1 1615   1.522   4.716   1.396
  231KAXM    O1 1616   1.554   4.855   1.412
  231KAXM    H1 1617   1.472   4.906   1.443
  232KAXM    H8 1618   0.484   3.945   2.371
  232KAXM    O2 1619   0.455   3.936   2.277
  232KAXM    C3 1620   0.446   3.795   2.246
  232KAXM    C2 1621   0.381   3.769   2.110
  232KAXM    C1 1622   0.381   3.621   2.077
  232KAXM    O1 1623   0.331   3.596   1.945
  232KAXM    H1 1624   0.341   3.498   1.924
  233KAXM    H8 1625   3.755   5.085   2.968
  233KAXM    O2 1626   3.849   5.049   2.969
  233KAXM    C3 1627   3.931   5.127   3.059
  233KAXM    C2 1628   3.933   5.075   3.202
  233KAXM    C1 1629   3.804   5.106   3.277
  233KAXM    O1 1630   3.814   5.065   3.415
  233KAXM    H1 1631   3.746   4.993   3.433
  234KAXM    H8 1632   2.062   0.956   3.225
  234KAXM    O2 1633   1.989   0.894   3.200
  234KAXM    C3 1634   1.973   0.793   3.301
  234KAXM    C2 1635   1.861   0.696   3.264
  234KAXM    C1 1636   1.829   0.604   3.382
  234KAXM    O1 1637   1.705   0.534   3.363
  234KAXM    H1 1638   1.692   0.472   3.441
  235KAXM    H8 1639   0.639   0.955   0.060
  235KAXM    O2 1640   0.562   0.946   0.125
  235KAXM    C3 1641   0.451   0.876   0.066
  235KAXM    C2 1642   0.411   0.918   5.925
  235KAXM    C1 1643   0.497   0.849   5.819
  235KAXM    O1 1644   0.464   0.891   5.685
  235KAXM    H1 1645   0.546   0.879   5.627
  236KAXM    H8 1646   3.665   5.042   3.776
  236KAXM    O2 1647   3.592   5.078   3.716
  236KAXM    C3 1648   3.582   5.221   3.731
  236KAXM    C2 1649   3.489   5.285   3.628
  236KAXM    C1 1650   3.549   5.279   3.488
  236KAXM    O1 1651   3.458   5.319   3.384
  236KAXM    H1 1652   3.476   5.260   3.304
  237KAXM    H8 1653   0.876   1.991   3.841
  237KAXM    O2 1654   0.905   2.025   3.931
  237KAXM    C3 1655   1.033   1.964   3.958
  237KAXM    C2 1656   1.127   2.057   4.033
  237KAXM    C1 1657   1.151   2.184   3.952
  237KAXM    O1 1658   1.235   2.278   4.022
  237KAXM    H1 1659   1.191   2.370   4.014
  238KAXM    H8 1660   5.569   1.442   0.671
  238KAXM    O2 1661   5.497   1.457   0.741
  238KAXM    C3 1662   5.440   1.332   0.784
  238KAXM    C2 1663   5.390   1.352   0.927
  238KAXM    C1 1664   5.334   1.226   0.991
  238KAXM    O1 1665   5.303   1.251   1.129
  238KAXM    H1 1666   5.304   1.163   1.179
  239KAXM    H8 1667   5.768   4.036   1.590
  239KAXM    O2 1668   5.685   4.089   1.611
  239KAXM    C3 1669   5.590   4.025   1.699
  239KAXM    C2 1670   5.630   3.886   1.747
  239KAXM    C1 1671   5.522   3.826   1.837
  239KAXM    O1 1672   5.549   3.689   1.873
  239KAXM    H1 1673   5.559   3.638   1.789
  240KAXM    H8 1674   5.698   5.670   0.600
  240KAXM    O2 1675   5.699   5.571   0.619
  240KAXM    C3 1676   5.627   5.505   0.514
  240KAXM    C2 1677   5.708   5.388   0.462
  240KAXM    C1 1678   5.650   5.333   0.333
  240KAXM    O1 1679   5.723   5.216   0.291
  240KAXM    H1 1680   5.672   5.175   0.215
  241KAXM    H8 1681   0.274   4.339   4.288
  241KAXM    O2 1682   0.276   4.436   4.263
  241KAXM    C3 1683   0.205   4.458   4.139
  241KAXM    C2 1684   0.300   4.464   4.020
  241KAXM    C1 1685   0.232   4.515   3.893
  241KAXM    O1 1686   0.321   4.518   3.780
  241KAXM    H1 1687   0.308   4.604   3.728
  242KAXM    H8 1688   5.857   1.517   5.396
  242KAXM    O2 1689   5.830   1.494   5.490
  242KAXM    C3 1690   5.897   1.374   5.533
  242KAXM    C2 1691   5.832   1.318   5.657
  242KAXM    C1 1692   5.892   1.185   5.700
  242KAXM    O1 1693   5.830   1.137   5.820
  242KAXM    H1 1694   5.788   1.048   5.804
  243KAXM    H8 1695   5.660   0.022   5.814
  243KAXM    O2 1696   5.676   0.070   5.903
  243KAXM    C3 1697   5.613   0.200   5.895
  243KAXM    C2 1698   5.607   0.269   0.031
  243KAXM    C1 1699   5.511   0.387   0.033
  243KAXM    O1 1700   5.554   0.494   5.949
  243KAXM    H1 1701   5.474   0.536   5.905
  244KAXM    H8 1702   4.658   2.286   1.570
  244KAXM    O2 1703   4.752   2.281   1.601
  244KAXM    C3 1704   4.756   2.247   1.741
  244KAXM    C2 1705   4.826   2.356   1.821
  244KAXM    C1 1706   4.838   2.322   1.969
  244KAXM    O1 1707   4.889   2.434   2.045
  244KAXM    H1 1708   4.835   2.441   2.130
  245KAXM    H8 1709   3.391   0.850   2.755
  245KAXM    O2 1710   3.388   0.949   2.746
  245KAXM    C3 1711   3.335   0.984   2.617
  245KAXM    C2 1712   3.340   1.135   2.599
  245KAXM    C1 1713   3.298   1.177   2.459
  245KAXM    O1 1714   3.322   1.317   2.437
  245KAXM    H1 1715   3.313   1.334   2.341
  246KAXM    H8 1716   2.767   0.136   1.238
  246KAXM    O2 1717   2.788   0.087   1.152
  246KAXM    C3 1718   2.793   5.945   1.173
  246KAXM    C2 1719   2.663   5.883   1.223
  246KAXM    C1 1720   2.648   5.883   1.376
  246KAXM    O1 1721   2.593   0.002   1.434
  246KAXM    H1 1722   2.538   5.976   1.513
  247KAXM    H8 1723   3.279   3.651   0.542
  247KAXM    O2 1724   3.332   3.582   0.491
  247KAXM    C3 1725   3.350   3.624   0.355
  247KAXM    C2 1726   3.215   3.641   0.286
  247KAXM    C1 1727   3.235   3.657   0.137
  247KAXM    O1 1728   3.116   3.706   0.072
  247KAXM    H1 1729   3.043   3.642   0.088
  248KAXM    H8 1730   2.395   5.869   0.687
  248KAXM    O2 1731   2.365   5.957   0.725
  248KAXM    C3 1732   2.302   0.025   0.614
  248KAXM    C2 1733   2.213   0.143   0.649
  248KAXM    C1 1734   2.151   0.203   0.523
  248KAXM    O1 1735   2.081   0.106   0.443
  248KAXM    H1 1736   1.998   0.073   0.491
  249KAXM    H8 1737   3.956   3.885   1.297
  249KAXM    O2 1738   3.967   3.941   1.214
  249KAXM    C3 1739   3.845   3.930   1.138
  249KAXM    C2 1740   3.870   3.906   0.990
  249KAXM    C1 1741   3.919   4.033   0.922
  249KAXM    O1 1742   3.973   4.006   0.792
  249KAXM    H1 1743   3.935   4.076   0.728
  250KAXM    H8 1744   1.050   0.707   3.977
  250KAXM    O2 1745   1.015   0.640   4.046
  250KAXM    C3 1746   1.090   0.657   4.168
  250KAXM    C2 1747   1.002   0.648   4.291
  250KAXM    C1 1748   1.078   0.674   4.421
  250KAXM    O1 1749   1.139   0.804   4.426
  250KAXM    H1 1750   1.082   0.868   4.479
  251KAXM    H8 1751   4.049   1.858   3.739
  251KAXM    O2 1752   4.098   1.896   3.659
  251KAXM    C3 1753   4.052   1.827   3.541
  251KAXM    C2 1754   4.151   1.847   3.428
  251KAXM    C1 1755   4.109   1.775   3.301
  251KAXM    O1 1756   4.010   1.850   3.229
  251KAXM    H1 1757   4.055   1.921   3.174
  252KAXM    H8 1758   4.784   3.515   1.564
  252KAXM    O2 1759   4.753   3.449   1.635
  252KAXM    C3 1760   4.862   3.430   1.728
  252KAXM    C2 1761   4.850   3.513   1.854
  252KAXM    C1 1762   4.975   3.499   1.940
  252KAXM    O1 1763   4.951   3.544   2.075
  252KAXM    H1 1764   5.036   3.540   2.129
  253KAXM    H8 1765   2.938   5.902   5.269
  253KAXM    O2 1766   2.987   5.912   5.184
  253KAXM    C3 1767   3.117   5.852   5.198
  253KAXM    C2 1768   3.191   5.849   5.065
  253KAXM    C1 1769   3.335   5.801   5.084
  253KAXM    O1 1770   3.342   5.667   5.136
  253KAXM    H1 1771   3.339   5.601   5.059
  254KAXM    H8 1772   3.480   3.212   5.087
  254KAXM    O2 1773   3.432   3.251   5.007
  254KAXM    C3 1774   3.528   3.330   4.934
  254KAXM    C2 1775   3.537   3.293   4.787
  254KAXM    C1 1776   3.405   3.322   4.716
  254KAXM    O1 1777   3.402   3.288   4.577
  254KAXM    H1 1778   3.308   3.265   4.553
  255KAXM    H8 1779   0.968   4.291   1.694
  255KAXM    O2 1780   0.903   4.348   1.746
  255KAXM    C3 1781   0.944   4.355   1.884
  255KAXM    C2 1782   1.007   4.223   1.929
  255KAXM    C1 1783   1.053   4.222   2.074
  255KAXM    O1 1784   0.941   4.221   2.163
  255KAXM    H1 1785   0.971   4.204   2.259
  256KAXM    H8 1786   0.675   5.449   4.413
  256KAXM    O2 1787   0.635   5.484   4.499
  256KAXM    C3 1788   0.586   5.618   4.478
  256KAXM    C2 1789   0.628   5.717   4.587
  256KAXM    C1 1790   0.564   5.854   4.563
  256KAXM    O1 1791   0.598   5.952   4.663
  256KAXM    H1 1792   0.515   5.998   4.694
  257KAXM    H8 1793   4.165   0.113   5.970
  257KAXM    O2 1794   4.111   0.197   5.983
  257KAXM    C3 1795   4.161   0.306   5.903
  257KAXM    C2 1796   4.237   0.263   5.778
  257KAXM    C1 1797   4.149   0.192   5.675
  257KAXM    O1 1798   4.231   0.141   5.568
  257KAXM    H1 1799   4.178   0.088   5.503
  258KAXM    H8 1800   5.878   2.681   0.800
  258KAXM    O2 1801   5.797   2.721   0.847
  258KAXM    C3 1802   5.814   2.707   0.989
  258KAXM    C2 1803   5.687   2.648   1.046
  258KAXM    C1 1804   5.697   2.624   1.195
  258KAXM    O1 1805   5.601   2.525   1.233
  258KAXM    H1 1806   5.597   2.522   1.335
  259KAXM    H8 1807   3.868   2.843   1.036
  259KAXM    O2 1808   3.957   2.891   1.048
  259KAXM    C3 1809   3.935   3.016   1.116
  259KAXM    C2 1810   3.922   3.000   1.267
  259KAXM    C1 1811   4.055   2.963   1.332
  259KAXM    O1 1812   4.042   2.939   1.473
  259KAXM    H1 1813   4.133   2.951   1.515
  260KAXM    H8 1814   0.383   3.621   0.360
  260KAXM    O2 1815   0.437   3.704   0.385
  260KAXM    C3 1816   0.359   3.787   0.471
  260KAXM    C2 1817   0.319   3.712   0.597
  260KAXM    C1 1818   0.236   3.799   0.691
  260KAXM    O1 1819   0.181   3.716   0.793
  260KAXM    H1 1820   0.171   3.763   0.881
  261KAXM    H8 1821   2.526   1.554   3.468
  261KAXM    O2 1822   2.551   1.579   3.563
  261KAXM    C3 1823   2.624   1.468   3.620
  261KAXM    C2 1824   2.769   1.498   3.656
  261KAXM    C1 1825   2.778   1.590   3.777
  261KAXM    O1 1826   2.915   1.611   3.816
  261KAXM    H1 1827   2.921   1.698   3.868
  262KAXM    H8 1828   1.912   4.443   4.885
  262KAXM    O2 1829   1.968   4.360   4.875
  262KAXM    C3 1830   1.942   4.271   4.986
  262KAXM    C2 1831   1.841   4.162   4.948
  262KAXM    C1 1832   1.832   4.047   5.048
  262KAXM    O1 1833   1.769   4.079   5.173
  262KAXM    H1 1834   1.711   4.001   5.203
  263KAXM    H8 1835   0.183   5.565   3.119
  263KAXM    O2 1836   0.179   5.476   3.072
  263KAXM    C3 1837   0.312   5.421   3.059
  263KAXM    C2 1838   0.403   5.503   2.967
  263KAXM    C1 1839   0.551   5.474   2.991
  263KAXM    O1 1840   0.603   5.350   2.939
  263KAXM    H1 1841   0.543   5.273   2.964
  264KAXM    H8 1842   2.679   0.218   5.705
  264KAXM    O2 1843   2.696   0.280   5.783
  264KAXM    C3 1844   2.611   0.236   5.890
  264KAXM    C2 1845   2.684   0.135   5.978
  264KAXM    C1 1846   2.694   0.191   0.119
  264KAXM    O1 1847   2.767   0.105   0.207
  264KAXM    H1 1848   2.741   0.127   0.303
  265KAXM    H8 1849   1.910   0.588   1.628
  265KAXM    O2 1850   1.972   0.525   1.576
  265KAXM    C3 1851   1.929   0.523   1.438
  265KAXM    C2 1852   2.001   0.628   1.357
  265KAXM    C1 1853   1.953   0.634   1.213
  265KAXM    O1 1854   2.043   0.715   1.135
  265KAXM    H1 1855   1.995   0.783   1.080
  266KAXM    H8 1856   1.386   3.374   4.110
  266KAXM    O2 1857   1.441   3.288   4.100
  266KAXM    C3 1858   1.362   3.184   4.039
  266KAXM    C2 1859   1.287   3.231   3.916
  266KAXM    C1 1860   1.211   3.114   3.855
  266KAXM    O1 1861   1.131   3.158   3.745
  266KAXM    H1 1862   1.190   3.169   3.665
  267KAXM    H8 1863   0.616   3.181   3.668
  267KAXM    O2 1864   0.524   3.202   3.630
  267KAXM    C3 1865   0.438   3.095   3.672
  267KAXM    C2 1866   0.297   3.106   3.617
  267KAXM    C1 1867   0.292   3.082   3.467
  267KAXM    O1 1868   0.168   3.131   3.412
  267KAXM    H1 1869   0.186   3.156   3.315
  268KAXM    H8 1870   0.338   2.407   0.092
  268KAXM    O2 1871   0.278   2.391   0.172
  268KAXM    C3 1872   0.332   2.464   0.285
  268KAXM    C2 1873   0.276   2.412   0.417
  268KAXM    C1 1874   0.335   2.483   0.540
  268KAXM    O1 1875   0.476   2.460   0.559
  268KAXM    H1 1876   0.505   2.494   0.650
  269KAXM    H8 1877   1.479   3.223   4.233
  269KAXM    O2 1878   1.496   3.194   4.328
  269KAXM    C3 1879   1.624   3.251   4.363
  269KAXM    C2 1880   1.657   3.235   4.511
  269KAXM    C1 1881   1.749   3.346   4.560
  269KAXM    O1 1882   1.728   3.372   4.700
  269KAXM    H1 1883   1.816   3.392   4.742
  270KAXM    H8 1884   4.775   4.959   5.671
  270KAXM    O2 1885   4.842   4.970   5.596
  270KAXM    C3 1886   4.769   4.978   5.472
  270KAXM    C2 1887   4.865   4.980   5.353
  270KAXM    C1 1888   4.793   4.950   5.222
  270KAXM    O1 1889   4.708   5.056   5.175
  270KAXM    H1 1890   4.720   5.061   5.075
  271KAXM    H8 1891   4.120   5.447   2.619
  271KAXM    O2 1892   4.161   5.424   2.529
  271KAXM    C3 1893   4.286   5.355   2.549
  271KAXM    C2 1894   4.407   5.446   2.530
  271KAXM    C1 1895   4.406   5.564   2.627
  271KAXM    O1 1896   4.534   5.629   2.629
  271KAXM    H1 1897   4.555   5.661   2.535
  272KAXM    H8 1898   1.571   5.877   4.673
  272KAXM    O2 1899   1.563   5.977   4.690
  272KAXM    C3 1900   1.546   0.001   4.830
  272KAXM    C2 1901   1.449   0.116   4.854
  272KAXM    C1 1902   1.424   0.140   5.001
  272KAXM    O1 1903   1.305   0.219   5.018
  272KAXM    H1 1904   1.227   0.157   5.039
  273KAXM    H8 1905   0.701   1.052   0.976
  273KAXM    O2 1906   0.711   1.036   1.076
  273KAXM    C3 1907   0.596   1.095   1.140
  273KAXM    C2 1908   0.563   1.043   1.281
  273KAXM    C1 1909   0.432   1.110   1.326
  273KAXM    O1 1910   0.385   1.086   1.461
  273KAXM    H1 1911   0.287   1.116   1.460
  274KAXM    H8 1912   1.282   4.192   5.757
  274KAXM    O2 1913   1.346   4.244   5.699
  274KAXM    C3 1914   1.394   4.356   5.773
  274KAXM    C2 1915   1.545   4.353   5.790
  274KAXM    C1 1916   1.582   4.457   5.894
  274KAXM    O1 1917   1.719   4.455   5.935
  274KAXM    H1 1918   1.777   4.500   5.866
  275KAXM    H8 1919   1.439   3.264   3.100
  275KAXM    O2 1920   1.449   3.343   3.037
  275KAXM    C3 1921   1.480   3.460   3.114
  275KAXM    C2 1922   1.354   3.527   3.165
  275KAXM    C1 1923   1.391   3.651   3.244
  275KAXM    O1 1924   1.276   3.721   3.293
  275KAXM    H1 1925   1.305   3.773   3.376
  276KAXM    H8 1926   2.599   3.589   1.635
  276KAXM    O2 1927   2.523   3.645   1.602
  276KAXM    C3 1928   2.544   3.676   1.464
  276KAXM    C2 1929   2.445   3.604   1.373
  276KAXM    C1 1930   2.491   3.613   1.229
  276KAXM    O1 1931   2.411   3.531   1.142
  276KAXM    H1 1932   2.401   3.579   1.053
  277KAXM    H8 1933   4.897   3.864   0.841
  277KAXM    O2 1934   4.997   3.878   0.827
  277KAXM    C3 1935   5.046   3.954   0.940
  277KAXM    C2 1936   5.177   4.029   0.914
  277KAXM    C1 1937   5.297   3.935   0.906
  277KAXM    O1 1938   5.423   3.999   0.873
  277KAXM    H1 1939   5.414   4.100   0.881
  278KAXM    H8 1940   5.746   0.457   2.529
  278KAXM    O2 1941   5.737   0.534   2.462
  278KAXM    C3 1942   5.662   0.488   2.348
  278KAXM    C2 1943   5.518   0.451   2.378
  278KAXM    C1 1944   5.455   0.407   2.248
  278KAXM    O1 1945   5.318   0.368   2.265
  278KAXM    H1 1946   5.258   0.446   2.241
  279KAXM    H8 1947   1.499   2.272   3.263
  279KAXM    O2 1948   1.562   2.232   3.331
  279KAXM    C3 1949   1.692   2.215   3.271
  279KAXM    C2 1950   1.748   2.349   3.225
  279KAXM    C1 1951   1.870   2.330   3.136
  279KAXM    O1 1952   1.902   2.454   3.069
  279KAXM    H1 1953   1.988   2.490   3.106
  280KAXM    H8 1954   0.861   5.123   2.869
  280KAXM    O2 1955   0.908   5.052   2.924
  280KAXM    C3 1956   0.868   4.922   2.876
  280KAXM    C2 1957   0.961   4.810   2.924
  280KAXM    C1 1958   0.987   4.707   2.815
  280KAXM    O1 1959   1.113   4.641   2.835
  280KAXM    H1 1960   1.098   4.541   2.850
  281KAXM    H8 1961   3.728   3.343   4.126
  281KAXM    O2 1962   3.697   3.265   4.070
  281KAXM    C3 1963   3.740   3.141   4.128
  281KAXM    C2 1964   3.672   3.022   4.063
  281KAXM    C1 1965   3.712   2.998   3.917
  281KAXM    O1 1966   3.844   2.941   3.904
  281KAXM    H1 1967   3.868   2.938   3.806
  282KAXM    H8 1968   3.426   5.609   5.238
  282KAXM    O2 1969   3.489   5.559   5.301
  282KAXM    C3 1970   3.419   5.525   5.422
  282KAXM    C2 1971   3.439   5.627   5.533
  282KAXM    C1 1972   3.375   5.762   5.500
  282KAXM    O1 1973   3.373   5.847   5.616
  282KAXM    H1 1974   3.461   5.897   5.624
  283KAXM    H8 1975   2.920   5.025   2.926
  283KAXM    O2 1976   2.879   5.028   3.019
  283KAXM    C3 1977   2.943   5.125   3.103
  283KAXM    C2 1978   2.898   5.267   3.073
  283KAXM    C1 1979   2.990   5.365   3.144
  283KAXM    O1 1980   3.124   5.365   3.091
  283KAXM    H1 1981   3.184   5.402   3.163
  284KAXM    H8 1982   5.852   5.753   5.257
  284KAXM    O2 1983   5.807   5.677   5.304
  284KAXM    C3 1984   5.737   5.598   5.207
  284KAXM    C2 1985   5.726   5.453   5.249
  284KAXM    C1 1986   5.662   5.374   5.136
  284KAXM    O1 1987   5.651   5.234   5.167
  284KAXM    H1 1988   5.672   5.182   5.083
  285KAXM    H8 1989   0.034   2.011   1.086
  285KAXM    O2 1990   0.086   1.938   1.133
  285KAXM    C3 1991   0.127   1.987   1.262
  285KAXM    C2 1992   0.219   1.889   1.333
  285KAXM    C1 1993   0.262   1.944   1.469
  285KAXM    O1 1994   0.351   1.854   1.538
  285KAXM    H1 1995   0.300   1.777   1.573
  286KAXM    H8 1996   4.881   0.244   0.246
  286KAXM    O2 1997   4.816   0.238   0.168
  286KAXM    C3 1998   4.870   0.147   0.071
  286KAXM    C2 1999   4.806   0.169   5.934
  286KAXM    C1 2000   4.863   0.071   5.832
  286KAXM    O1 2001   4.819   0.101   5.698
  286KAXM    H1 2002   4.796   0.014   5.652
  287KAXM    H8 2003   3.478   0.345   3.968
  287KAXM    O2 2004   3.401   0.292   4.009
  287KAXM    C3 2005   3.460   0.182   4.081
  287KAXM    C2 2006   3.561   0.230   4.184
  287KAXM    C1 2007   3.615   0.111   4.262
  287KAXM    O1 2008   3.721   0.148   4.352
  287KAXM    H1 2009   3.692   0.129   4.447
  288KAXM    H8 2010   3.095   1.028   4.859
  288KAXM    O2 2011   3.130   1.068   4.772
  288KAXM    C3 2012   3.137   0.971   4.667
  288KAXM    C2 2013   3.246   0.866   4.686
  288KAXM    C1 2014   3.268   0.795   4.553
  288KAXM    O1 2015   3.346   0.675   4.565
  288KAXM    H1 2016   3.280   0.597   4.561
  289KAXM    H8 2017   2.935   2.601   1.140
  289KAXM    O2 2018   2.989   2.645   1.067
  289KAXM    C3 2019   3.126   2.649   1.109
  289KAXM    C2 2020   3.178   2.509   1.137
  289KAXM    C1 2021   3.314   2.511   1.205
  289KAXM    O1 2022   3.348   2.382   1.258
  289KAXM    H1 2023   3.288   2.362   1.334
  290KAXM    H8 2024   3.091   3.650   2.951
  290KAXM    O2 2025   3.190   3.627   2.961
  290KAXM    C3 2026   3.267   3.709   2.869
  290KAXM    C2 2027   3.209   3.849   2.854
  290KAXM    C1 2028   3.232   3.905   2.715
  290KAXM    O1 2029   3.143   4.016   2.689
  290KAXM    H1 2030   3.111   4.009   2.593
  291KAXM    H8 2031   1.375   2.121   1.288
  291KAXM    O2 2032   1.377   2.079   1.196
  291KAXM    C3 2033   1.248   2.097   1.135
  291KAXM    C2 2034   1.145   1.992   1.179
  291KAXM    C1 2035   1.114   2.000   1.327
  291KAXM    O1 2036   1.100   1.870   1.389
  291KAXM    H1 2037   1.016   1.826   1.353
  292KAXM    H8 2038   3.616   3.297   3.396
  292KAXM    O2 2039   3.607   3.365   3.469
  292KAXM    C3 2040   3.596   3.291   3.591
  292KAXM    C2 2041   3.583   3.377   3.714
  292KAXM    C1 2042   3.505   3.297   3.816
  292KAXM    O1 2043   3.507   3.362   3.943
  292KAXM    H1 2044   3.580   3.318   3.998
  293KAXM    H8 2045   5.726   0.724   4.591
  293KAXM    O2 2046   5.820   0.688   4.597
  293KAXM    C3 2047   5.817   0.547   4.576
  293KAXM    C2 2048   5.879   0.469   4.691
  293KAXM    C1 2049   5.789   0.464   4.813
  293KAXM    O1 2050   5.823   0.353   4.899
  293KAXM    H1 2051   5.886   0.385   4.972
  294KAXM    H8 2052   0.197   3.989   4.849
  294KAXM    O2 2053   0.202   4.075   4.802
  294KAXM    C3 2054   0.285   4.061   4.685
  294KAXM    C2 2055   0.243   4.156   4.574
  294KAXM    C1 2056   0.341   4.142   4.458
  294KAXM    O1 2057   0.287   4.183   4.330
  294KAXM    H1 2058   0.342   4.136   4.259
  295KAXM    H8 2059   0.732   4.367   4.817
  295KAXM    O2 2060   0.668   4.292   4.793
  295KAXM    C3 2061   0.533   4.342   4.799
  295KAXM    C2 2062   0.466   4.325   4.936
  295KAXM    C1 2063   0.321   4.372   4.935
  295KAXM    O1 2064   0.310   4.515   4.925
  295KAXM    H1 2065   0.220   4.542   4.888
  296KAXM    H8 2066   0.199   3.382   2.667
  296KAXM    O2 2067   0.282   3.438   2.662
  296KAXM    C3 2068   0.271   3.541   2.563
  296KAXM    C2 2069   0.168   3.646   2.602
  296KAXM    C1 2070   0.162   3.757   2.498
  296KAXM    O1 2071   0.059   3.855   2.521
  296KAXM    H1 2072   0.026   3.881   2.429
  297KAXM    H8 2073   3.530   0.619   5.473
  297KAXM    O2 2074   3.518   0.693   5.405
  297KAXM    C3 2075   3.637   0.694   5.323
  297KAXM    C2 2076   3.632   0.793   5.209
  297KAXM    C1 2077   3.773   0.824   5.157
  297KAXM    O1 2078   3.843   0.709   5.107
  297KAXM    H1 2079   3.910   0.680   5.176
  298KAXM    H8 2080   3.811   3.860   3.819
  298KAXM    O2 2081   3.736   3.925   3.812
  298KAXM    C3 2082   3.748   4.016   3.923
  298KAXM    C2 2083   3.631   4.113   3.928
  298KAXM    C1 2084   3.655   4.222   4.031
  298KAXM    O1 2085   3.554   4.325   4.024
  298KAXM    H1 2086   3.543   4.356   3.927
  299KAXM    H8 2087   1.997   1.420   0.028
  299KAXM    O2 2088   2.033   1.457   0.114
  299KAXM    C3 2089   2.030   1.601   0.111
  299KAXM    C2 2090   2.149   1.653   0.034
  299KAXM    C1 2091   2.128   1.796   5.985
  299KAXM    O1 2092   2.223   1.835   5.884
  299KAXM    H1 2093   2.201   1.786   5.798
  300KAXM    H8 2094   0.718   1.442   5.691
  300KAXM    O2 2095   0.680   1.349   5.690
  300KAXM    C3 2096   0.778   1.260   5.747
  300KAXM    C2 2097   0.719   1.165   5.849
  300KAXM    C1 2098   0.825   1.068   5.900
  300KAXM    O1 2099   0.768   0.969   5.987
  300KAXM    H1 2100   0.841   0.905   0.016
  301KAXM    H8 2101   3.455   2.376   0.621
  301KAXM    O2 2102   3.518   2.384   0.543
  301KAXM    C3 2103   3.441   2.367   0.423
  301KAXM    C2 2104   3.391   2.500   0.371
  301KAXM    C1 2105   3.315   2.482   0.241
  301KAXM    O1 2106   3.396   2.421   0.139
  301KAXM    H1 2107   3.455   2.490   0.095
  302KAXM    H8 2108   0.151   3.378   0.927
  302KAXM    O2 2109   0.206   3.414   1.004
  302KAXM    C3 2110   0.327   3.472   0.954
  302KAXM    C2 2111   0.389   3.551   1.067
  302KAXM    C1 2112   0.528   3.601   1.031
  302KAXM    O1 2113   0.587   3.661   1.147
  302KAXM    H1 2114   0.569   3.759   1.141
  303KAXM    H8 2115   0.308   2.500   1.504
  303KAXM    O2 2116   0.391   2.529   1.460
  303KAXM    C3 2117   0.501   2.486   1.542
  303KAXM    C2 2118   0.617   2.584   1.545
  303KAXM    C1 2119   0.726   2.541   1.643
  303KAXM    O1 2120   0.798   2.424   1.601
  303KAXM    H1 2121   0.746   2.340   1.617
  304KAXM    H8 2122   1.326   5.642   2.395
  304KAXM    O2 2123   1.381   5.561   2.368
  304KAXM    C3 2124   1.462   5.605   2.256
  304KAXM    C2 2125   1.460   5.507   2.139
  304KAXM    C1 2126   1.507   5.576   2.010
  304KAXM    O1 2127   1.526   5.482   1.903
  304KAXM    H1 2128   1.535   5.531   1.815
  305KAXM    H8 2129   4.778   1.159   1.119
  305KAXM    O2 2130   4.753   1.232   1.056
  305KAXM    C3 2131   4.652   1.189   0.964
  305KAXM    C2 2132   4.526   1.144   1.035
  305KAXM    C1 2133   4.424   1.090   0.938
  305KAXM    O1 2134   4.316   1.029   1.010
  305KAXM    H1 2135   4.348   0.945   1.056
  306KAXM    H8 2136   0.399   0.946   1.542
  306KAXM    O2 2137   0.398   0.856   1.588
  306KAXM    C3 2138   0.293   0.852   1.687
  306KAXM    C2 2139   0.342   0.844   1.831
  306KAXM    C1 2140   0.220   0.831   1.922
  306KAXM    O1 2141   0.252   0.822   2.062
  306KAXM    H1 2142   0.169   0.794   2.109
  307KAXM    H8 2143   4.712   1.416   4.073
  307KAXM    O2 2144   4.787   1.472   4.105
  307KAXM    C3 2145   4.751   1.611   4.089
  307KAXM    C2 2146   4.873   1.702   4.086
  307KAXM    C1 2147   4.832   1.849   4.097
  307KAXM    O1 2148   4.948   1.933   4.118
  307KAXM    H1 2149   4.915   2.027   4.139
  308KAXM    H8 2150   1.657   2.595   0.091
  308KAXM    O2 2151   1.573   2.598   0.035
  308KAXM    C3 2152   1.502   2.475   0.063
  308KAXM    C2 2153   1.380   2.450   5.977
  308KAXM    C1 2154   1.407   2.435   5.828
  308KAXM    O1 2155   1.291   2.384   5.758
  308KAXM    H1 2156   1.278   2.288   5.786
  309KAXM    H8 2157   0.976   2.078   5.639
  309KAXM    O2 2158   1.028   2.051   5.722
  309KAXM    C3 2159   0.928   2.029   5.823
  309KAXM    C2 2160   0.956   1.907   5.908
  309KAXM    C1 2161   0.836   1.881   5.998
  309KAXM    O1 2162   0.858   1.768   0.083
  309KAXM    H1 2163   0.899   1.801   0.170
  310KAXM    H8 2164   2.138   1.996   1.463
  310KAXM    O2 2165   2.237   1.999   1.441
  310KAXM    C3 2166   2.284   1.866   1.411
  310KAXM    C2 2167   2.362   1.806   1.527
  310KAXM    C1 2168   2.401   1.662   1.498
  310KAXM    O1 2169   2.477   1.605   1.606
  310KAXM    H1 2170   2.571   1.641   1.604
  311KAXM    H8 2171   4.366   1.606   5.425
  311KAXM    O2 2172   4.336   1.648   5.338
  311KAXM    C3 2173   4.274   1.551   5.253
  311KAXM    C2 2174   4.140   1.601   5.204
  311KAXM    C1 2175   4.073   1.499   5.114
  311KAXM    O1 2176   3.930   1.511   5.121
  311KAXM    H1 2177   3.892   1.547   5.034
  312KAXM    H8 2178   5.890   5.166   1.580
  312KAXM    O2 2179   5.963   5.143   1.646
  312KAXM    C3 2180   5.945   5.225   1.762
  312KAXM    C2 2181   0.053   5.205   1.867
  312KAXM    C1 2182   0.026   5.293   1.988
  312KAXM    O1 2183   0.133   5.289   2.084
  312KAXM    H1 2184   0.094   5.269   2.175
  313KAXM    H8 2185   2.624   5.081   4.524
  313KAXM    O2 2186   2.578   5.171   4.528
  313KAXM    C3 2187   2.447   5.163   4.469
  313KAXM    C2 2188   2.373   5.037   4.513
  313KAXM    C1 2189   2.225   5.040   4.481
  313KAXM    O1 2190   2.160   4.923   4.535
  313KAXM    H1 2191   2.062   4.943   4.553
  314KAXM    H8 2192   0.433   4.496   3.481
  314KAXM    O2 2193   0.455   4.581   3.431
  314KAXM    C3 2194   0.598   4.603   3.434
  314KAXM    C2 2195   0.636   4.718   3.342
  314KAXM    C1 2196   0.780   4.765   3.362
  314KAXM    O1 2197   0.797   4.834   3.487
  314KAXM    H1 2198   0.830   4.927   3.471
  315KAXM    H8 2199   4.901   4.123   5.001
  315KAXM    O2 2200   4.922   4.206   5.056
  315KAXM    C3 2201   4.818   4.225   5.154
  315KAXM    C2 2202   4.828   4.123   5.266
  315KAXM    C1 2203   4.728   4.154   5.377
  315KAXM    O1 2204   4.749   4.070   5.491
  315KAXM    H1 2205   4.829   4.098   5.544
  316KAXM    H8 2206   3.372   2.441   1.787
  316KAXM    O2 2207   3.439   2.372   1.823
  316KAXM    C3 2208   3.466   2.272   1.723
  316KAXM    C2 2209   3.562   2.318   1.615
  316KAXM    C1 2210   3.583   2.205   1.516
  316KAXM    O1 2211   3.662   2.246   1.403
  316KAXM    H1 2212   3.614   2.216   1.319
  317KAXM    H8 2213   3.263   2.934   2.348
  317KAXM    O2 2214   3.361   2.914   2.356
  317KAXM    C3 2215   3.400   2.940   2.492
  317KAXM    C2 2216   3.462   2.819   2.560
  317KAXM    C1 2217   3.609   2.801   2.521
  317KAXM    O1 2218   3.661   2.679   2.576
  317KAXM    H1 2219   3.743   2.698   2.632
  318KAXM    H8 2220   2.419   2.482   5.423
  318KAXM    O2 2221   2.418   2.394   5.374
  318KAXM    C3 2222   2.402   2.414   5.232
  318KAXM    C2 2223   2.454   2.548   5.182
  318KAXM    C1 2224   2.489   2.533   5.035
  318KAXM    O1 2225   2.517   2.657   4.968
  318KAXM    H1 2226   2.595   2.704   5.012
  319KAXM    H8 2227   5.125   5.629   0.984
  319KAXM    O2 2228   5.166   5.610   1.075
  319KAXM    C3 2229   5.307   5.594   1.058
  319KAXM    C2 2230   5.341   5.465   0.983
  319KAXM    C1 2231   5.483   5.476   0.931
  319KAXM    O1 2232   5.534   5.358   0.865
  319KAXM    H1 2233   5.632   5.379   0.845
  320KAXM    H8 2234   3.397   5.515   1.225
  320KAXM    O2 2235   3.456   5.433   1.209
  320KAXM    C3 2236   3.487   5.361   1.330
  320KAXM    C2 2237   3.417   5.416   1.454
  320KAXM    C1 2238   3.452   5.327   1.571
  320KAXM    O1 2239   3.393   5.370   1.695
  320KAXM    H1 2240   3.450   5.329   1.769
  321KAXM    H8 2241   2.956   1.905   3.853
  321KAXM    O2 2242   2.946   1.832   3.924
  321KAXM    C3 2243   2.908   1.889   4.051
  321KAXM    C2 2244   3.029   1.942   4.127
  321KAXM    C1 2245   2.987   2.004   4.259
  321KAXM    O1 2246   3.095   2.078   4.318
  321KAXM    H1 2247   3.106   2.049   4.414
  322KAXM    H8 2248   3.540   3.907   5.026
  322KAXM    O2 2249   3.554   3.908   5.126
  322KAXM    C3 2250   3.441   3.973   5.188
  322KAXM    C2 2251   3.330   3.871   5.210
  322KAXM    C1 2252   3.246   3.909   5.331
  322KAXM    O1 2253   3.317   3.889   5.455
  322KAXM    H1 2254   3.380   3.967   5.470
  323KAXM    H8 2255   1.382   1.720   1.618
  323KAXM    O2 2256   1.458   1.660   1.648
  323KAXM    C3 2257   1.454   1.540   1.569
  323KAXM    C2 2258   1.360   1.443   1.636
  323KAXM    C1 2259   1.282   1.358   1.536
  323KAXM    O1 2260   1.172   1.294   1.602
  323KAXM    H1 2261   1.131   1.225   1.540
  324KAXM    H8 2262   1.036   2.741   5.083
  324KAXM    O2 2263   1.024   2.834   5.044
  324KAXM    C3 2264   1.066   2.829   4.906
  324KAXM    C2 2265   1.204   2.888   4.882
  324KAXM    C1 2266   1.235   2.873   4.733
  324KAXM    O1 2267   1.357   2.934   4.689
  324KAXM    H1 2268   1.356   2.940   4.588
  325KAXM    H8 2269   1.266   3.064   1.908
  325KAXM    O2 2270   1.186   3.103   1.956
  325KAXM    C3 2271   1.112   3.189   1.868
  325KAXM    C2 2272   0.978   3.126   1.837
  325KAXM    C1 2273   0.892   3.219   1.753
  325KAXM    O1 2274   0.769   3.154   1.716
  325KAXM    H1 2275   0.691   3.216   1.735
  326KAXM    H8 2276   4.472   2.744   2.847
  326KAXM    O2 2277   4.425   2.820   2.799
  326KAXM    C3 2278   4.522   2.914   2.749
  326KAXM    C2 2279   4.553   2.896   2.601
  326KAXM    C1 2280   4.633   3.016   2.554
  326KAXM    O1 2281   4.663   3.009   2.414
  326KAXM    H1 2282   4.755   2.969   2.403
  327KAXM    H8 2283   3.924   2.598   3.181
  327KAXM    O2 2284   3.929   2.694   3.202
  327KAXM    C3 2285   3.896   2.707   3.341
  327KAXM    C2 2286   3.746   2.724   3.356
  327KAXM    C1 2287   3.702   2.712   3.500
  327KAXM    O1 2288   3.559   2.699   3.506
  327KAXM    H1 2289   3.533   2.688   3.604
  328KAXM    H8 2290   3.705   1.622   4.937
  328KAXM    O2 2291   3.803   1.599   4.928
  328KAXM    C3 2292   3.845   1.629   4.794
  328KAXM    C2 2293   3.973   1.558   4.757
  328KAXM    C1 2294   4.008   1.590   4.613
  328KAXM    O1 2295   4.102   1.494   4.564
  328KAXM    H1 2296   4.194   1.524   4.591
  329KAXM    H8 2297   2.018   3.733   1.210
  329KAXM    O2 2298   2.068   3.821   1.197
  329KAXM    C3 2299   2.186   3.801   1.116
  329KAXM    C2 2300   2.154   3.742   0.978
  329KAXM    C1 2301   2.273   3.742   0.884
  329KAXM    O1 2302   2.384   3.659   0.923
  329KAXM    H1 2303   2.449   3.660   0.846
  330KAXM    H8 2304   2.728   4.243   1.605
  330KAXM    O2 2305   2.785   4.272   1.681
  330KAXM    C3 2306   2.805   4.164   1.772
  330KAXM    C2 2307   2.778   4.203   1.917
  330KAXM    C1 2308   2.796   4.081   2.007
  330KAXM    O1 2309   2.759   4.104   2.144
  330KAXM    H1 2310   2.786   4.027   2.200
  331KAXM    H8 2311   4.880   1.837   5.710
  331KAXM    O2 2312   4.849   1.742   5.720
  331KAXM    C3 2313   4.860   1.704   5.858
  331KAXM    C2 2314   4.978   1.610   5.888
  331KAXM    C1 2315   5.113   1.672   5.853
  331KAXM    O1 2316   5.220   1.619   5.935
  331KAXM    H1 2317   5.296   1.588   5.874
  332KAXM    H8 2318   2.358   5.447   2.205
  332KAXM    O2 2319   2.377   5.462   2.106
  332KAXM    C3 2320   2.478   5.562   2.087
  332KAXM    C2 2321   2.467   5.629   1.950
  332KAXM    C1 2322   2.578   5.730   1.926
  332KAXM    O1 2323   2.578   5.779   1.790
  332KAXM    H1 2324   2.674   5.777   1.756
  333KAXM    H8 2325   1.397   4.096   1.134
  333KAXM    O2 2326   1.364   4.007   1.099
  333KAXM    C3 2327   1.396   3.906   1.197
  333KAXM    C2 2328   1.287   3.893   1.302
  333KAXM    C1 2329   1.279   4.015   1.393
  333KAXM    O1 2330   1.347   3.991   1.517
  333KAXM    H1 2331   1.327   4.063   1.583
  334KAXM    H8 2332   3.718   1.995   2.750
  334KAXM    O2 2333   3.766   1.923   2.803
  334KAXM    C3 2334   3.766   1.801   2.728
  334KAXM    C2 2335   3.857   1.698   2.792
  334KAXM    C1 2336   3.826   1.559   2.739
  334KAXM    O1 2337   3.910   1.459   2.801
  334KAXM    H1 2338   3.865   1.371   2.790
  335KAXM    H8 2339   5.953   4.989   1.625
  335KAXM    O2 2340   5.904   4.903   1.605
  335KAXM    C3 2341   5.997   4.797   1.584
  335KAXM    C2 2342   0.039   4.737   1.717
  335KAXM    C1 2343   0.139   4.624   1.699
  335KAXM    O1 2344   0.167   4.568   1.829
  335KAXM    H1 2345   0.258   4.523   1.829
  336KAXM    H8 2346   0.124   1.056   4.447
  336KAXM    O2 2347   0.160   0.978   4.503
  336KAXM    C3 2348   0.073   0.962   4.617
  336KAXM    C2 2349   0.142   0.886   4.730
  336KAXM    C1 2350   0.253   0.970   4.790
  336KAXM    O1 2351   0.347   0.892   4.866
  336KAXM    H1 2352   0.430   0.878   4.811
  337KAXM    H8 2353   2.714   3.801   4.023
  337KAXM    O2 2354   2.674   3.719   4.062
  337KAXM    C3 2355   2.530   3.727   4.060
  337KAXM    C2 2356   2.472   3.659   3.937
  337KAXM    C1 2357   2.320   3.676   3.928
  337KAXM    O1 2358   2.272   3.620   3.805
  337KAXM    H1 2359   2.172   3.601   3.812
  338KAXM    H8 2360   2.534   1.415   3.317
  338KAXM    O2 2361   2.480   1.499   3.335
  338KAXM    C3 2362   2.458   1.569   3.211
  338KAXM    C2 2363   2.341   1.506   3.135
  338KAXM    C1 2364   2.344   1.534   2.985
  338KAXM    O1 2365   2.332   1.673   2.950
  338KAXM    H1 2366   2.294   1.680   2.856
  339KAXM    H8 2367   5.131   0.180   0.894
  339KAXM    O2 2368   5.141   0.172   0.794
  339KAXM    C3 2369   5.042   0.249   0.724
  339KAXM    C2 2370   5.024   0.190   0.585
  339KAXM    C1 2371   4.945   0.283   0.494
  339KAXM    O1 2372   4.979   0.258   0.356
  339KAXM    H1 2373   5.078   0.270   0.345
  340KAXM    H8 2374   4.373   4.020   5.978
  340KAXM    O2 2375   4.347   4.096   0.039
  340KAXM    C3 2376   4.309   4.040   0.166
  340KAXM    C2 2377   4.430   4.013   0.254
  340KAXM    C1 2378   4.387   3.945   0.383
  340KAXM    O1 2379   4.495   3.936   0.477
  340KAXM    H1 2380   4.556   3.858   0.455
  341KAXM    H8 2381   4.100   0.687   5.303
  341KAXM    O2 2382   4.015   0.636   5.279
  341KAXM    C3 2383   3.980   0.557   5.394
  341KAXM    C2 2384   3.953   0.412   5.355
  341KAXM    C1 2385   4.080   0.343   5.308
  341KAXM    O1 2386   4.052   0.211   5.260
  341KAXM    H1 2387   3.988   0.219   5.181
  342KAXM    H8 2388   0.315   0.786   2.754
  342KAXM    O2 2389   0.347   0.870   2.801
  342KAXM    C3 2390   0.361   0.839   2.941
  342KAXM    C2 2391   0.223   0.808   2.998
  342KAXM    C1 2392   0.233   0.759   3.141
  342KAXM    O1 2393   0.103   0.756   3.203
  342KAXM    H1 2394   0.065   0.662   3.199
  343KAXM    H8 2395   3.200   5.151   4.091
  343KAXM    O2 2396   3.138   5.227   4.068
  343KAXM    C3 2397   3.203   5.353   4.091
  343KAXM    C2 2398   3.314   5.375   3.990
  343KAXM    C1 2399   3.392   5.501   4.021
  343KAXM    O1 2400   3.486   5.529   3.917
  343KAXM    H1 2401   3.533   5.615   3.934
  344KAXM    H8 2402   3.649   2.600   0.054
  344KAXM    O2 2403   3.555   2.581   0.025
  344KAXM    C3 2404   3.549   2.594   5.882
  344KAXM    C2 2405   3.486   2.471   5.816
  344KAXM    C1 2406   3.333   2.475   5.822
  344KAXM    O1 2407   3.279   2.560   5.719
  344KAXM    H1 2408   3.270   2.506   5.633
  345KAXM    H8 2409   1.046   0.834   3.783
  345KAXM    O2 2410   1.093   0.789   3.859
  345KAXM    C3 2411   1.223   0.750   3.812
  345KAXM    C2 2412   1.307   0.866   3.761
  345KAXM    C1 2413   1.344   0.963   3.872
  345KAXM    O1 2414   1.422   1.071   3.817
  345KAXM    H1 2415   1.360   1.150   3.803
  346KAXM    H8 2416   3.414   2.918   2.019
  346KAXM    O2 2417   3.383   2.972   1.941
  346KAXM    C3 2418   3.397   2.890   1.824
  346KAXM    C2 2419   3.313   2.765   1.840
  346KAXM    C1 2420   3.333   2.666   1.728
  346KAXM    O1 2421   3.271   2.540   1.759
  346KAXM    H1 2422   3.177   2.556   1.794
  347KAXM    H8 2423   4.788   2.909   5.245
  347KAXM    O2 2424   4.832   2.819   5.226
  347KAXM    C3 2425   4.891   2.770   5.348
  347KAXM    C2 2426   4.911   2.620   5.343
  347KAXM    C1 2427   4.959   2.568   5.477
  347KAXM    O1 2428   4.967   2.424   5.480
  347KAXM    H1 2429   4.993   2.398   5.574
  348KAXM    H8 2430   3.925   3.609   0.344
  348KAXM    O2 2431   3.986   3.560   0.280
  348KAXM    C3 2432   3.910   3.465   0.203
  348KAXM    C2 2433   4.002   3.357   0.147
  348KAXM    C1 2434   3.923   3.270   0.051
  348KAXM    O1 2435   3.998   3.156   0.005
  348KAXM    H1 2436   3.992   3.084   0.076
  349KAXM    H8 2437   5.650   2.431   3.612
  349KAXM    O2 2438   5.610   2.503   3.556
  349KAXM    C3 2439   5.530   2.594   3.633
  349KAXM    C2 2440   5.410   2.524   3.692
  349KAXM    C1 2441   5.450   2.437   3.810
  349KAXM    O1 2442   5.345   2.347   3.847
  349KAXM    H1 2443   5.333   2.352   3.948
  350KAXM    H8 2444   1.417   1.446   5.417
  350KAXM    O2 2445   1.375   1.471   5.506
  350KAXM    C3 2446   1.388   1.613   5.520
  350KAXM    C2 2447   1.356   1.664   5.660
  350KAXM    C1 2448   1.456   1.611   5.762
  350KAXM    O1 2449   1.429   1.665   5.892
  350KAXM    H1 2450   1.506   1.643   5.953
  351KAXM    H8 2451   4.821   3.617   3.591
  351KAXM    O2 2452   4.793   3.526   3.613
  351KAXM    C3 2453   4.686   3.486   3.526
  351KAXM    C2 2454   4.573   3.589   3.526
  351KAXM    C1 2455   4.619   3.716   3.455
  351KAXM    O1 2456   4.538   3.828   3.493
  351KAXM    H1 2457   4.493   3.866   3.410
  352KAXM    H8 2458   2.701   2.693   1.487
  352KAXM    O2 2459   2.749   2.779   1.482
  352KAXM    C3 2460   2.699   2.845   1.364
  352KAXM    C2 2461   2.765   2.980   1.341
  352KAXM    C1 2462   2.707   3.047   1.218
  352KAXM    O1 2463   2.760   3.179   1.198
  352KAXM    H1 2464   2.691   3.230   1.150
  353KAXM    H8 2465   2.788   0.628   3.282
  353KAXM    O2 2466   2.807   0.617   3.184
  353KAXM    C3 2467   2.712   0.526   3.125
  353KAXM    C2 2468   2.758   0.471   2.990
  353KAXM    C1 2469   2.658   0.369   2.939
  353KAXM    O1 2470   2.699   0.306   2.816
  353KAXM    H1 2471   2.687   0.369   2.737
  354KAXM    H8 2472   2.635   2.287   1.133
  354KAXM    O2 2473   2.670   2.382   1.139
  354KAXM    C3 2474   2.561   2.469   1.102
  354KAXM    C2 2475   2.454   2.469   1.210
  354KAXM    C1 2476   2.327   2.542   1.168
  354KAXM    O1 2477   2.340   2.686   1.157
  354KAXM    H1 2478   2.252   2.720   1.116
  355KAXM    H8 2479   5.303   1.353   3.849
  355KAXM    O2 2480   5.377   1.406   3.888
  355KAXM    C3 2481   5.340   1.472   4.010
  355KAXM    C2 2482   5.454   1.562   4.055
  355KAXM    C1 2483   5.428   1.623   4.192
  355KAXM    O1 2484   5.535   1.710   4.235
  355KAXM    H1 2485   5.530   1.801   4.191
  356KAXM    H8 2486   2.095   1.144   0.793
  356KAXM    O2 2487   2.131   1.237   0.816
  356KAXM    C3 2488   2.218   1.220   0.930
  356KAXM    C2 2489   2.326   1.115   0.904
  356KAXM    C1 2490   2.386   1.066   1.036
  356KAXM    O1 2491   2.504   0.985   1.016
  356KAXM    H1 2492   2.481   0.887   1.003
  357KAXM    H8 2493   1.008   2.429   2.644
  357KAXM    O2 2494   0.957   2.446   2.558
  357KAXM    C3 2495   1.034   2.389   2.450
  357KAXM    C2 2496   1.061   2.486   2.336
  357KAXM    C1 2497   1.148   2.420   2.229
  357KAXM    O1 2498   1.122   2.475   2.099
  357KAXM    H1 2499   1.133   2.402   2.030
  358KAXM    H8 2500   0.760   0.558   5.107
  358KAXM    O2 2501   0.739   0.497   5.185
  358KAXM    C3 2502   0.845   0.497   5.282
  358KAXM    C2 2503   0.982   0.530   5.222
  358KAXM    C1 2504   1.093   0.520   5.328
  358KAXM    O1 2505   1.222   0.566   5.281
  358KAXM    H1 2506   1.248   0.518   5.196
  359KAXM    H8 2507   2.347   2.707   0.509
  359KAXM    O2 2508   2.252   2.704   0.474
  359KAXM    C3 2509   2.246   2.746   0.336
  359KAXM    C2 2510   2.129   2.680   0.265
  359KAXM    C1 2511   2.090   2.746   0.133
  359KAXM    O1 2512   2.015   2.868   0.152
  359KAXM    H1 2513   2.072   2.947   0.128
  360KAXM    H8 2514   1.479   4.524   5.538
  360KAXM    O2 2515   1.471   4.616   5.571
  360KAXM    C3 2516   1.340   4.663   5.535
  360KAXM    C2 2517   1.341   4.814   5.522
  360KAXM    C1 2518   1.200   4.869   5.505
  360KAXM    O1 2519   1.202   5.012   5.510
  360KAXM    H1 2520   1.137   5.045   5.441
  361KAXM    H8 2521   3.177   4.574   5.444
  361KAXM    O2 2522   3.238   4.554   5.364
  361KAXM    C3 2523   3.353   4.641   5.371
  361KAXM    C2 2524   3.473   4.576   5.438
  361KAXM    C1 2525   3.544   4.475   5.348
  361KAXM    O1 2526   3.661   4.421   5.412
  361KAXM    H1 2527   3.739   4.485   5.403
  362KAXM    H8 2528   1.518   3.875   4.031
  362KAXM    O2 2529   1.615   3.845   4.033
  362KAXM    C3 2530   1.634   3.760   4.147
  362KAXM    C2 2531   1.780   3.726   4.167
  362KAXM    C1 2532   1.797   3.630   4.283
  362KAXM    O1 2533   1.935   3.593   4.297
  362KAXM    H1 2534   1.968   3.612   4.391
  363KAXM    H8 2535   1.675   4.844   1.514
  363KAXM    O2 2536   1.749   4.843   1.583
  363KAXM    C3 2537   1.774   4.981   1.615
  363KAXM    C2 2538   1.895   5.005   1.705
  363KAXM    C1 2539   1.871   4.962   1.849
  363KAXM    O1 2540   1.994   4.956   1.924
  363KAXM    H1 2541   1.968   4.941   2.021
  364KAXM    H8 2542   2.927   2.686   2.986
  364KAXM    O2 2543   2.929   2.660   2.888
  364KAXM    C3 2544   2.949   2.519   2.876
  364KAXM    C2 2545   3.093   2.479   2.906
  364KAXM    C1 2546   3.100   2.333   2.947
  364KAXM    O1 2547   3.235   2.282   2.943
  364KAXM    H1 2548   3.230   2.184   2.924
  365KAXM    H8 2549   0.532   4.003   2.652
  365KAXM    O2 2550   0.553   4.037   2.559
  365KAXM    C3 2551   0.474   4.155   2.534
  365KAXM    C2 2552   0.516   4.273   2.622
  365KAXM    C1 2553   0.399   4.365   2.654
  365KAXM    O1 2554   0.337   4.419   2.537
  365KAXM    H1 2555   0.250   4.369   2.521
  366KAXM    H8 2556   2.665   3.930   2.597
  366KAXM    O2 2557   2.730   3.863   2.558
  366KAXM    C3 2558   2.742   3.752   2.648
  366KAXM    C2 2559   2.833   3.783   2.765
  366KAXM    C1 2560   2.858   3.657   2.847
  366KAXM    O1 2561   2.949   3.684   2.955
  366KAXM    H1 2562   2.899   3.730   3.029
  367KAXM    H8 2563   0.493   4.984   5.917
  367KAXM    O2 2564   0.513   4.895   5.955
  367KAXM    C3 2565   0.388   4.827   5.976
  367KAXM    C2 2566   0.406   4.681   0.016
  367KAXM    C1 2567   0.277   4.601   0.000
  367KAXM    O1 2568   0.174   4.637   0.094
  367KAXM    H1 2569   0.086   4.600   0.062
  368KAXM    H8 2570   4.527   0.923   0.488
  368KAXM    O2 2571   4.549   1.005   0.542
  368KAXM    C3 2572   4.660   1.077   0.482
  368KAXM    C2 2573   4.759   0.987   0.410
  368KAXM    C1 2574   4.875   1.065   0.349
  368KAXM    O1 2575   4.959   0.977   0.272
  368KAXM    H1 2576   5.055   1.006   0.274
  369KAXM    H8 2577   1.121   2.051   0.452
  369KAXM    O2 2578   1.037   2.058   0.395
  369KAXM    C3 2579   1.043   2.180   0.319
  369KAXM    C2 2580   1.110   2.160   0.185
  369KAXM    C1 2581   1.081   2.277   0.092
  369KAXM    O1 2582   0.946   2.277   0.040
  369KAXM    H1 2583   0.937   2.357   5.979
  370KAXM    H8 2584   3.362   5.922   3.095
  370KAXM    O2 2585   3.421   5.854   3.049
  370KAXM    C3 2586   3.482   5.910   2.932
  370KAXM    C2 2587   3.565   5.805   2.859
  370KAXM    C1 2588   3.628   5.861   2.731
  370KAXM    O1 2589   3.687   5.759   2.647
  370KAXM    H1 2590   3.683   5.792   2.552
  371KAXM    H8 2591   3.307   0.745   1.300
  371KAXM    O2 2592   3.225   0.789   1.259
  371KAXM    C3 2593   3.263   0.864   1.142
  371KAXM    C2 2594   3.339   0.992   1.176
  371KAXM    C1 2595   3.336   1.088   1.057
  371KAXM    O1 2596   3.427   1.198   1.068
  371KAXM    H1 2597   3.519   1.163   1.048
  372KAXM    H8 2598   0.402   5.155   4.341
  372KAXM    O2 2599   0.329   5.193   4.283
  372KAXM    C3 2600   0.370   5.326   4.245
  372KAXM    C2 2601   0.307   5.381   4.117
  372KAXM    C1 2602   0.158   5.409   4.131
  372KAXM    O1 2603   0.075   5.298   4.091
  372KAXM    H1 2604   5.988   5.301   4.143
  373KAXM    H8 2605   1.550   4.751   5.162
  373KAXM    O2 2606   1.496   4.668   5.143
  373KAXM    C3 2607   1.357   4.704   5.159
  373KAXM    C2 2608   1.257   4.598   5.112
  373KAXM    C1 2609   1.266   4.467   5.189
  373KAXM    O1 2610   1.184   4.367   5.127
  373KAXM    H1 2611   1.234   4.280   5.123
  374KAXM    H8 2612   5.122   3.511   5.123
  374KAXM    O2 2613   5.132   3.487   5.027
  374KAXM    C3 2614   5.270   3.456   5.001
  374KAXM    C2 2615   5.318   3.330   5.073
  374KAXM    C1 2616   5.343   3.355   5.221
  374KAXM    O1 2617   5.355   3.231   5.292
  374KAXM    H1 2618   5.261   3.192   5.301
  375KAXM    H8 2619   4.757   0.441   2.288
  375KAXM    O2 2620   4.722   0.530   2.317
  375KAXM    C3 2621   4.696   0.613   2.202
  375KAXM    C2 2622   4.674   0.759   2.241
  375KAXM    C1 2623   4.640   0.847   2.122
  375KAXM    O1 2624   4.626   0.985   2.161
  375KAXM    H1 2625   4.653   1.045   2.086
  376KAXM    H8 2626   4.919   2.972   0.681
  376KAXM    O2 2627   4.957   2.895   0.628
  376KAXM    C3 2628   4.849   2.815   0.578
  376KAXM    C2 2629   4.889   2.739   0.452
  376KAXM    C1 2630   4.771   2.659   0.400
  376KAXM    O1 2631   4.803   2.587   0.280
  376KAXM    H1 2632   4.730   2.521   0.261
  377KAXM    H8 2633   5.098   3.893   2.897
  377KAXM    O2 2634   5.187   3.878   2.944
  377KAXM    C3 2635   5.295   3.919   2.859
  377KAXM    C2 2636   5.404   3.813   2.865
  377KAXM    C1 2637   5.537   3.860   2.808
  377KAXM    O1 2638   5.633   3.755   2.818
  377KAXM    H1 2639   5.726   3.788   2.793
  378KAXM    H8 2640   1.539   2.603   0.808
  378KAXM    O2 2641   1.631   2.595   0.846
  378KAXM    C3 2642   1.665   2.457   0.867
  378KAXM    C2 2643   1.738   2.431   0.999
  378KAXM    C1 2644   1.773   2.282   1.010
  378KAXM    O1 2645   1.841   2.251   1.132
  378KAXM    H1 2646   1.898   2.168   1.118
  379KAXM    H8 2647   0.206   3.064   5.852
  379KAXM    O2 2648   0.130   3.087   5.788
  379KAXM    C3 2649   0.142   3.000   5.674
  379KAXM    C2 2650   0.025   3.008   5.577
  379KAXM    C1 2651   0.055   2.922   5.456
  379KAXM    O1 2652   5.939   2.900   5.374
  379KAXM    H1 2653   5.965   2.855   5.288
  380KAXM    H8 2654   5.698   0.327   1.537
  380KAXM    O2 2655   5.723   0.339   1.634
  380KAXM    C3 2656   5.800   0.460   1.651
  380KAXM    C2 2657   5.713   0.569   1.712
  380KAXM    C1 2658   5.791   0.696   1.742
  380KAXM    O1 2659   5.703   0.803   1.782
  380KAXM    H1 2660   5.698   0.870   1.706
  381KAXM    H8 2661   2.832   5.303   2.134
  381KAXM    O2 2662   2.862   5.391   2.166
  381KAXM    C3 2663   2.992   5.422   2.113
  381KAXM    C2 2664   3.002   5.388   1.965
  381KAXM    C1 2665   3.138   5.424   1.908
  381KAXM    O1 2666   3.157   5.363   1.779
  381KAXM    H1 2667   3.252   5.376   1.748
  382KAXM    H8 2668   0.558   5.369   4.562
  382KAXM    O2 2669   0.510   5.289   4.601
  382KAXM    C3 2670   0.505   5.312   4.743
  382KAXM    C2 2671   0.418   5.217   4.824
  382KAXM    C1 2672   0.271   5.217   4.782
  382KAXM    O1 2673   0.240   5.100   4.705
  382KAXM    H1 2674   0.205   5.128   4.614
  383KAXM    H8 2675   0.753   1.491   2.378
  383KAXM    O2 2676   0.669   1.434   2.377
  383KAXM    C3 2677   0.709   1.297   2.385
  383KAXM    C2 2678   0.798   1.274   2.507
  383KAXM    C1 2679   0.894   1.159   2.479
  383KAXM    O1 2680   0.975   1.128   2.594
  383KAXM    H1 2681   1.024   1.041   2.572
  384KAXM    H8 2682   3.246   5.824   5.688
  384KAXM    O2 2683   3.158   5.806   5.736
  384KAXM    C3 2684   3.147   5.899   5.845
  384KAXM    C2 2685   3.060   5.849   5.959
  384KAXM    C1 2686   3.019   5.968   0.045
  384KAXM    O1 2687   2.931   5.927   0.149
  384KAXM    H1 2688   2.867   0.001   0.173
  385KAXM    H8 2689   0.710   3.827   0.252
  385KAXM    O2 2690   0.715   3.896   0.178
  385KAXM    C3 2691   0.590   3.891   0.106
  385KAXM    C2 2692   0.585   3.774   0.010
  385KAXM    C1 2693   0.457   3.779   5.927
  385KAXM    O1 2694   0.458   3.682   5.821
  385KAXM    H1 2695   0.476   3.725   5.733
  386KAXM    H8 2696   4.141   1.328   2.788
  386KAXM    O2 2697   4.104   1.237   2.765
  386KAXM    C3 2698   4.202   1.136   2.793
  386KAXM    C2 2699   4.219   1.124   2.944
  386KAXM    C1 2700   4.330   1.024   2.972
  386KAXM    O1 2701   4.390   1.051   3.100
  386KAXM    H1 2702   4.420   1.147   3.102
  387KAXM    H8 2703   4.703   4.197   2.441
  387KAXM    O2 2704   4.614   4.191   2.489
  387KAXM    C3 2705   4.523   4.121   2.402
  387KAXM    C2 2706   4.552   3.972   2.412
  387KAXM    C1 2707   4.470   3.894   2.312
  387KAXM    O1 2708   4.488   3.754   2.337
  387KAXM    H1 2709   4.408   3.704   2.304
  388KAXM    H8 2710   3.015   3.969   5.941
  388KAXM    O2 2711   2.944   3.959   5.871
  388KAXM    C3 2712   2.967   4.049   5.763
  388KAXM    C2 2713   2.876   4.012   5.648
  388KAXM    C1 2714   2.915   4.088   5.522
  388KAXM    O1 2715   2.820   4.063   5.417
  388KAXM    H1 2716   2.781   4.151   5.386
  389KAXM    H8 2717   5.606   4.607   0.668
  389KAXM    O2 2718   5.561   4.618   0.578
  389KAXM    C3 2719   5.662   4.589   0.479
  389KAXM    C2 2720   5.609   4.506   0.363
  389KAXM    C1 2721   5.722   4.427   0.298
  389KAXM    O1 2722   5.830   4.508   0.247
  389KAXM    H1 2723   5.915   4.484   0.297
  390KAXM    H8 2724   4.357   0.025   4.098
  390KAXM    O2 2725   4.386   5.952   4.033
  390KAXM    C3 2726   4.510   5.894   4.078
  390KAXM    C2 2727   4.497   5.744   4.099
  390KAXM    C1 2728   4.628   5.686   4.146
  390KAXM    O1 2729   4.613   5.551   4.195
  390KAXM    H1 2730   4.582   5.556   4.291
  391KAXM    H8 2731   1.305   5.305   4.211
  391KAXM    O2 2732   1.212   5.265   4.216
  391KAXM    C3 2733   1.120   5.361   4.268
  391KAXM    C2 2734   0.979   5.319   4.233
  391KAXM    C1 2735   0.878   5.403   4.308
  391KAXM    O1 2736   0.743   5.355   4.296
  391KAXM    H1 2737   0.743   5.255   4.317
  392KAXM    H8 2738   3.723   4.117   1.932
  392KAXM    O2 2739   3.758   4.166   1.853
  392KAXM    C3 2740   3.696   4.112   1.735
  392KAXM    C2 2741   3.583   4.199   1.684
  392KAXM    C1 2742   3.553   4.164   1.539
  392KAXM    O1 2743   3.433   4.229   1.496
  392KAXM    H1 2744   3.436   4.327   1.511
  393KAXM    H8 2745   1.603   0.618   4.648
  393KAXM    O2 2746   1.600   0.698   4.710
  393KAXM    C3 2747   1.731   0.743   4.743
  393KAXM    C2 2748   1.717   0.869   4.827
  393KAXM    C1 2749   1.854   0.926   4.863
  393KAXM    O1 2750   1.841   1.046   4.943
  393KAXM    H1 2751   1.793   1.116   4.888
  394KAXM    H8 2752   1.078   1.468   4.196
  394KAXM    O2 2753   1.009   1.473   4.122
  394KAXM    C3 2754   1.076   1.496   3.997
  394KAXM    C2 2755   1.137   1.367   3.946
  394KAXM    C1 2756   1.220   1.387   3.820
  394KAXM    O1 2757   1.275   1.264   3.769
  394KAXM    H1 2758   1.293   1.274   3.670
  395KAXM    H8 2759   3.962   1.490   0.950
  395KAXM    O2 2760   3.975   1.469   1.048
  395KAXM    C3 2761   4.078   1.370   1.066
  395KAXM    C2 2762   4.114   1.355   1.214
  395KAXM    C1 2763   4.224   1.252   1.228
  395KAXM    O1 2764   4.260   1.227   1.364
  395KAXM    H1 2765   4.338   1.166   1.364
  396KAXM    H8 2766   0.049   3.286   4.518
  396KAXM    O2 2767   5.996   3.326   4.442
  396KAXM    C3 2768   0.084   3.375   4.340
  396KAXM    C2 2769   0.132   3.516   4.368
  396KAXM    C1 2770   0.177   3.584   4.239
  396KAXM    O1 2771   0.213   3.722   4.258
  396KAXM    H1 2772   0.147   3.765   4.321
  397KAXM    H8 2773   3.448   0.212   1.014
  397KAXM    O2 2774   3.537   0.260   1.007
  397KAXM    C3 2775   3.594   0.261   1.139
  397KAXM    C2 2776   3.519   0.360   1.226
  397KAXM    C1 2777   3.561   0.349   1.371
  397KAXM    O1 2778   3.479   0.433   1.454
  397KAXM    H1 2779   3.405   0.378   1.495
  398KAXM    H8 2780   0.502   3.237   3.079
  398KAXM    O2 2781   0.412   3.283   3.077
  398KAXM    C3 2782   0.419   3.398   2.992
  398KAXM    C2 2783   0.306   3.495   3.023
  398KAXM    C1 2784   0.325   3.623   2.943
  398KAXM    O1 2785   0.248   3.732   2.998
  398KAXM    H1 2786   0.288   3.762   3.084
  399KAXM    H8 2787   5.903   4.618   5.041
  399KAXM    O2 2788   5.869   4.685   4.972
  399KAXM    C3 2789   5.737   4.645   4.929
  399KAXM    C2 2790   5.731   4.497   4.892
  399KAXM    C1 2791   5.591   4.456   4.850
  399KAXM    O1 2792   5.578   4.313   4.863
  399KAXM    H1 2793   5.526   4.276   4.784
  400KAXM    H8 2794   0.922   1.920   4.530
  400KAXM    O2 2795   0.995   1.991   4.532
  400KAXM    C3 2796   1.085   1.962   4.424
  400KAXM    C2 2797   1.226   1.939   4.477
  400KAXM    C1 2798   1.319   1.898   4.366
  400KAXM    O1 2799   1.451   1.880   4.418
  400KAXM    H1 2800   1.499   1.968   4.418
  401KAXM    H8 2801   2.745   4.298   2.588
  401KAXM    O2 2802   2.666   4.248   2.551
  401KAXM    C3 2803   2.636   4.292   2.418
  401KAXM    C2 2804   2.486   4.318   2.405
  401KAXM    C1 2805   2.446   4.369   2.268
  401KAXM    O1 2806   2.311   4.417   2.271
  401KAXM    H1 2807   2.313   4.518   2.286
  402KAXM    H8 2808   1.238   0.148   3.237
  402KAXM    O2 2809   1.331   0.150   3.271
  402KAXM    C3 2810   1.340   0.233   3.388
  402KAXM    C2 2811   1.487   0.263   3.413
  402KAXM    C1 2812   1.510   0.348   3.537
  402KAXM    O1 2813   1.650   0.372   3.561
  402KAXM    H1 2814   1.657   0.403   3.659
  403KAXM    H8 2815   4.147   0.680   0.431
  403KAXM    O2 2816   4.215   0.755   0.438
  403KAXM    C3 2817   4.163   0.855   0.527
  403KAXM    C2 2818   4.225   0.990   0.493
  403KAXM    C1 2819   4.239   1.078   0.616
  403KAXM    O1 2820   4.348   1.169   0.598
  403KAXM    H1 2821   4.431   1.115   0.582
  404KAXM    H8 2822   5.412   5.918   0.626
  404KAXM    O2 2823   5.504   5.948   0.657
  404KAXM    C3 2824   5.517   5.932   0.799
  404KAXM    C2 2825   5.429   0.026   0.880
  404KAXM    C1 2826   5.453   5.997   1.027
  404KAXM    O1 2827   5.362   0.066   1.113
  404KAXM    H1 2828   5.368   0.021   1.204
  405KAXM    H8 2829   5.199   2.713   4.719
  405KAXM    O2 2830   5.208   2.631   4.660
  405KAXM    C3 2831   5.122   2.653   4.547
  405KAXM    C2 2832   5.203   2.669   4.419
  405KAXM    C1 2833   5.110   2.688   4.301
  405KAXM    O1 2834   5.184   2.693   4.178
  405KAXM    H1 2835   5.118   2.709   4.102
  406KAXM    H8 2836   5.678   0.304   2.654
  406KAXM    O2 2837   5.763   0.352   2.626
  406KAXM    C3 2838   5.878   0.279   2.674
  406KAXM    C2 2839   5.975   0.242   2.561
  406KAXM    C1 2840   5.909   0.148   2.462
  406KAXM    O1 2841   0.000   0.102   2.361
  406KAXM    H1 2842   5.956   0.024   2.315
  407KAXM    H8 2843   4.552   1.204   4.048
  407KAXM    O2 2844   4.607   1.276   4.003
  407KAXM    C3 2845   4.705   1.209   3.922
  407KAXM    C2 2846   4.770   1.299   3.818
  407KAXM    C1 2847   4.672   1.336   3.708
  407KAXM    O1 2848   4.733   1.418   3.607
  407KAXM    H1 2849   4.791   1.364   3.549
  408KAXM    H8 2850   3.627   4.449   2.766
  408KAXM    O2 2851   3.535   4.423   2.801
  408KAXM    C3 2852   3.552   4.329   2.909
  408KAXM    C2 2853   3.589   4.192   2.856
  408KAXM    C1 2854   3.603   4.090   2.969
  408KAXM    O1 2855   3.638   3.960   2.918
  408KAXM    H1 2856   3.663   3.899   2.995
  409KAXM    H8 2857   3.001   0.354   5.778
  409KAXM    O2 2858   3.074   0.293   5.743
  409KAXM    C3 2859   3.015   0.184   5.671
  409KAXM    C2 2860   2.970   0.226   5.532
  409KAXM    C1 2861   2.953   0.103   5.443
  409KAXM    O1 2862   2.852   0.011   5.488
  409KAXM    H1 2863   2.896   5.928   5.528
  410KAXM    H8 2864   0.144   5.682   1.621
  410KAXM    O2 2865   0.237   5.665   1.587
  410KAXM    C3 2866   0.226   5.574   1.476
  410KAXM    C2 2867   0.323   5.605   1.362
  410KAXM    C1 2868   0.305   5.507   1.246
  410KAXM    O1 2869   0.398   5.528   1.138
  410KAXM    H1 2870   0.473   5.460   1.144
  411KAXM    H8 2871   3.404   4.285   4.051
  411KAXM    O2 2872   3.312   4.246   4.058
  411KAXM    C3 2873   3.211   4.345   4.035
  411KAXM    C2 2874   3.083   4.299   4.102
  411KAXM    C1 2875   2.963   4.387   4.073
  411KAXM    O1 2876   2.841   4.319   4.112
  411KAXM    H1 2877   2.765   4.359   4.057
  412KAXM    H8 2878   4.727   2.744   4.294
  412KAXM    O2 2879   4.716   2.789   4.381
  412KAXM    C3 2880   4.772   2.921   4.371
  412KAXM    C2 2881   4.869   2.950   4.485
  412KAXM    C1 2882   4.937   3.086   4.465
  412KAXM    O1 2883   5.040   3.107   4.563
  412KAXM    H1 2884   5.002   3.152   4.645
  413KAXM    H8 2885   5.429   2.505   0.185
  413KAXM    O2 2886   5.456   2.574   0.115
  413KAXM    C3 2887   5.454   2.704   0.177
  413KAXM    C2 2888   5.586   2.738   0.245
  413KAXM    C1 2889   5.591   2.884   0.286
  413KAXM    O1 2890   5.721   2.921   0.336
  413KAXM    H1 2891   5.712   3.008   0.387
  414KAXM    H8 2892   5.302   3.882   1.546
  414KAXM    O2 2893   5.347   3.792   1.540
  414KAXM    C3 2894   5.256   3.687   1.577
  414KAXM    C2 2895   5.287   3.561   1.498
  414KAXM    C1 2896   5.205   3.440   1.541
  414KAXM    O1 2897   5.238   3.397   1.674
  414KAXM    H1 2898   5.231   3.297   1.680
  415KAXM    H8 2899   5.215   0.241   0.038
  415KAXM    O2 2900   5.254   0.148   0.034
  415KAXM    C3 2901   5.223   0.093   5.904
  415KAXM    C2 2902   5.311   5.974   5.869
  415KAXM    C1 2903   5.281   5.917   5.731
  415KAXM    O1 2904   5.166   5.830   5.725
  415KAXM    H1 2905   5.187   5.739   5.765
  416KAXM    H8 2906   0.858   2.116   4.052
  416KAXM    O2 2907   0.836   2.173   4.133
  416KAXM    C3 2908   0.742   2.099   4.212
  416KAXM    C2 2909   0.720   2.163   4.348
  416KAXM    C1 2910   0.628   2.079   4.436
  416KAXM    O1 2911   0.602   2.138   4.565
  416KAXM    H1 2912   0.688   2.147   4.619
  417KAXM    H8 2913   5.030   3.730   0.768
  417KAXM    O2 2914   5.046   3.642   0.723
  417KAXM    C3 2915   4.926   3.597   0.657
  417KAXM    C2 2916   4.868   3.708   0.570
  417KAXM    C1 2917   4.744   3.662   0.496
  417KAXM    O1 2918   4.678   3.772   0.430
  417KAXM    H1 2919   4.747   3.838   0.397
  418KAXM    H8 2920   4.217   2.261   4.326
  418KAXM    O2 2921   4.278   2.181   4.317
  418KAXM    C3 2922   4.413   2.225   4.298
  418KAXM    C2 2923   4.470   2.284   4.425
  418KAXM    C1 2924   4.615   2.325   4.404
  418KAXM    O1 2925   4.672   2.375   4.527
  418KAXM    H1 2926   4.650   2.473   4.533
  419KAXM    H8 2927   2.512   2.481   0.404
  419KAXM    O2 2928   2.601   2.516   0.440
  419KAXM    C3 2929   2.686   2.401   0.460
  419KAXM    C2 2930   2.695   2.360   0.607
  419KAXM    C1 2931   2.565   2.299   0.657
  419KAXM    O1 2932   2.572   2.260   0.796
  419KAXM    H1 2933   2.656   2.207   0.811
  420KAXM    H8 2934   2.934   3.777   4.670
  420KAXM    O2 2935   2.857   3.839   4.649
  420KAXM    C3 2936   2.903   3.948   4.567
  420KAXM    C2 2937   2.831   3.956   4.432
  420KAXM    C1 2938   2.877   4.080   4.355
  420KAXM    O1 2939   2.827   4.087   4.220
  420KAXM    H1 2940   2.830   4.183   4.188
  421KAXM    H8 2941   4.651   2.524   0.819
  421KAXM    O2 2942   4.633   2.623   0.814
  421KAXM    C3 2943   4.608   2.673   0.946
  421KAXM    C2 2944   4.611   2.826   0.956
  421KAXM    C1 2945   4.569   2.872   1.095
  421KAXM    O1 2946   4.598   3.010   1.121
  421KAXM    H1 2947   4.697   3.018   1.140
  422KAXM    H8 2948   3.639   3.120   1.498
  422KAXM    O2 2949   3.618   3.218   1.479
  422KAXM    C3 2950   3.735   3.298   1.505
  422KAXM    C2 2951   3.742   3.339   1.652
  422KAXM    C1 2952   3.862   3.429   1.676
  422KAXM    O1 2953   3.882   3.451   1.817
  422KAXM    H1 2954   3.945   3.530   1.830
  423KAXM    H8 2955   5.636   4.891   3.935
  423KAXM    O2 2956   5.657   4.986   3.938
  423KAXM    C3 2957   5.781   5.001   3.866
  423KAXM    C2 2958   5.852   5.134   3.891
  423KAXM    C1 2959   5.985   5.134   3.818
  423KAXM    O1 2960   0.068   5.248   3.846
  423KAXM    H1 2961   0.072   5.263   3.947
  424KAXM    H8 2962   0.681   3.408   4.441
  424KAXM    O2 2963   0.766   3.454   4.472
  424KAXM    C3 2964   0.876   3.414   4.388
  424KAXM    C2 2965   0.831   3.317   4.280
  424KAXM    C1 2966   0.938   3.289   4.175
  424KAXM    O1 2967   0.877   3.226   4.061
  424KAXM    H1 2968   0.948   3.200   3.999
  425KAXM    H8 2969   1.710   1.070   2.898
  425KAXM    O2 2970   1.777   1.092   2.824
  425KAXM    C3 2971   1.903   1.033   2.861
  425KAXM    C2 2972   1.936   0.907   2.782
  425KAXM    C1 2973   2.061   0.921   2.696
  425KAXM    O1 2974   2.049   1.016   2.588
  425KAXM    H1 2975   2.103   1.097   2.614
  426KAXM    H8 2976   2.022   2.978   4.928
  426KAXM    O2 2977   2.021   2.882   4.954
  426KAXM    C3 2978   2.152   2.825   4.967
  426KAXM    C2 2979   2.245   2.855   4.851
  426KAXM    C1 2980   2.191   2.816   4.714
  426KAXM    O1 2981   2.302   2.792   4.625
  426KAXM    H1 2982   2.350   2.709   4.660
  427KAXM    H8 2983   4.356   3.538   2.582
  427KAXM    O2 2984   4.275   3.591   2.561
  427KAXM    C3 2985   4.289   3.715   2.633
  427KAXM    C2 2986   4.189   3.821   2.587
  427KAXM    C1 2987   4.052   3.805   2.652
  427KAXM    O1 2988   3.961   3.901   2.595
  427KAXM    H1 2989   3.871   3.894   2.644
  428KAXM    H8 2990   1.709   2.655   0.712
  428KAXM    O2 2991   1.727   2.693   0.622
  428KAXM    C3 2992   1.783   2.591   0.537
  428KAXM    C2 2993   1.780   2.635   0.392
  428KAXM    C1 2994   1.803   2.517   0.298
  428KAXM    O1 2995   1.790   2.556   0.159
  428KAXM    H1 2996   1.821   2.481   0.100
  429KAXM    H8 2997   2.608   5.425   2.736
  429KAXM    O2 2998   2.523   5.453   2.783
  429KAXM    C3 2999   2.485   5.347   2.873
  429KAXM    C2 3000   2.406   5.402   2.990
  429KAXM    C1 3001   2.397   5.299   3.103
  429KAXM    O1 3002   2.369   5.364   3.228
  429KAXM    H1 3003   2.450   5.421   3.253
  430KAXM    H8 3004   5.123   2.697   3.506
  430KAXM    O2 3005   5.054   2.658   3.570
  430KAXM    C3 3006   5.028   2.754   3.675
  430KAXM    C2 3007   5.147   2.760   3.770
  430KAXM    C1 3008   5.109   2.822   3.904
  430KAXM    O1 3009   5.028   2.735   3.984
  430KAXM    H1 3010   4.934   2.731   3.948
  431KAXM    H8 3011   0.054   5.156   1.104
  431KAXM    O2 3012   5.983   5.184   1.038
  431KAXM    C3 3013   5.980   5.327   1.029
  431KAXM    C2 3014   0.003   5.375   0.886
  431KAXM    C1 3015   5.887   5.342   0.791
  431KAXM    O1 3016   5.769   5.421   0.811
  431KAXM    H1 3017   5.753   5.482   0.731
  432KAXM    H8 3018   5.407   5.640   2.338
  432KAXM    O2 3019   5.371   5.566   2.394
  432KAXM    C3 3020   5.473   5.532   2.491
  432KAXM    C2 3021   5.421   5.438   2.598
  432KAXM    C1 3022   5.532   5.407   2.698
  432KAXM    O1 3023   5.489   5.314   2.798
  432KAXM    H1 3024   5.553   5.238   2.803
  433KAXM    H8 3025   5.331   4.009   3.769
  433KAXM    O2 3026   5.242   3.977   3.805
  433KAXM    C3 3027   5.248   3.968   3.948
  433KAXM    C2 3028   5.253   4.106   4.014
  433KAXM    C1 3029   5.252   4.086   4.165
  433KAXM    O1 3030   5.267   4.208   4.239
  433KAXM    H1 3031   5.365   4.233   4.239
  434KAXM    H8 3032   0.303   4.079   5.535
  434KAXM    O2 3033   0.210   4.111   5.512
  434KAXM    C3 3034   0.188   4.108   5.370
  434KAXM    C2 3035   0.049   4.055   5.338
  434KAXM    C1 3036   6.000   4.088   5.197
  434KAXM    O1 3037   5.864   4.042   5.183
  434KAXM    H1 3038   5.809   4.105   5.130
  435KAXM    H8 3039   0.752   3.622   3.463
  435KAXM    O2 3040   0.766   3.700   3.527
  435KAXM    C3 3041   0.870   3.784   3.475
  435KAXM    C2 3042   0.821   3.928   3.461
  435KAXM    C1 3043   0.920   4.008   3.379
  435KAXM    O1 3044   0.871   4.141   3.351
  435KAXM    H1 3045   0.951   4.203   3.347
  436KAXM    H8 3046   5.115   0.802   2.672
  436KAXM    O2 3047   5.088   0.705   2.664
  436KAXM    C3 3048   5.033   0.678   2.534
  436KAXM    C2 3049   5.136   0.624   2.435
  436KAXM    C1 3050   5.072   0.599   2.299
  436KAXM    O1 3051   5.168   0.559   2.200
  436KAXM    H1 3052   5.130   0.567   2.107
  437KAXM    H8 3053   1.553   2.485   1.686
  437KAXM    O2 3054   1.596   2.414   1.630
  437KAXM    C3 3055   1.630   2.466   1.500
  437KAXM    C2 3056   1.689   2.360   1.407
  437KAXM    C1 3057   1.815   2.295   1.464
  437KAXM    O1 3058   1.869   2.192   1.379
  437KAXM    H1 3059   1.859   2.222   1.284
  438KAXM    H8 3060   0.565   4.913   0.701
  438KAXM    O2 3061   0.647   4.973   0.707
  438KAXM    C3 3062   0.743   4.924   0.801
  438KAXM    C2 3063   0.842   5.031   0.843
  438KAXM    C1 3064   0.945   4.974   0.940
  438KAXM    O1 3065   1.026   5.079   0.994
  438KAXM    H1 3066   1.123   5.063   0.972
  439KAXM    H8 3067   3.524   5.154   3.091
  439KAXM    O2 3068   3.479   5.170   3.179
  439KAXM    C3 3069   3.355   5.096   3.183
  439KAXM    C2 3070   3.362   4.991   3.292
  439KAXM    C1 3071   3.233   4.985   3.374
  439KAXM    O1 3072   3.240   4.880   3.472
  439KAXM    H1 3073   3.316   4.899   3.536
  440KAXM    H8 3074   1.415   0.740   4.213
  440KAXM    O2 3075   1.428   0.725   4.114
  440KAXM    C3 3076   1.466   0.590   4.085
  440KAXM    C2 3077   1.547   0.587   3.957
  440KAXM    C1 3078   1.581   0.445   3.913
  440KAXM    O1 3079   1.671   0.445   3.801
  440KAXM    H1 3080   1.759   0.482   3.836
  441KAXM    H8 3081   2.804   2.906   3.881
  441KAXM    O2 3082   2.866   2.947   3.949
  441KAXM    C3 3083   2.987   2.870   3.947
  441KAXM    C2 3084   3.072   2.893   3.822
  441KAXM    C1 3085   3.164   2.773   3.805
  441KAXM    O1 3086   3.265   2.790   3.704
  441KAXM    H1 3087   3.229   2.768   3.612
  442KAXM    H8 3088   5.657   3.059   1.076
  442KAXM    O2 3089   5.739   3.112   1.107
  442KAXM    C3 3090   5.694   3.245   1.138
  442KAXM    C2 3091   5.680   3.271   1.287
  442KAXM    C1 3092   5.636   3.415   1.309
  442KAXM    O1 3093   5.635   3.454   1.447
  442KAXM    H1 3094   5.615   3.552   1.455
  443KAXM    H8 3095   3.467   2.660   3.402
  443KAXM    O2 3096   3.394   2.618   3.342
  443KAXM    C3 3097   3.420   2.649   3.204
  443KAXM    C2 3098   3.407   2.524   3.118
  443KAXM    C1 3099   3.450   2.545   2.974
  443KAXM    O1 3100   3.444   2.422   2.901
  443KAXM    H1 3101   3.360   2.370   2.920
  444KAXM    H8 3102   3.867   0.406   1.238
  444KAXM    O2 3103   3.854   0.500   1.274
  444KAXM    C3 3104   3.855   0.592   1.163
  444KAXM    C2 3105   3.727   0.674   1.155
  444KAXM    C1 3106   3.739   0.774   1.040
  444KAXM    O1 3107   3.619   0.849   1.017
  444KAXM    H1 3108   3.640   0.947   1.016
  445KAXM    H8 3109   1.824   2.034   5.505
  445KAXM    O2 3110   1.875   1.951   5.533
  445KAXM    C3 3111   1.793   1.871   5.619
  445KAXM    C2 3112   1.839   1.882   5.764
  445KAXM    C1 3113   1.761   1.779   5.843
  445KAXM    O1 3114   1.783   1.788   5.985
  445KAXM    H1 3115   1.723   1.720   0.029
  446KAXM    H8 3116   4.466   1.804   3.974
  446KAXM    O2 3117   4.440   1.849   4.060
  446KAXM    C3 3118   4.316   1.919   4.039
  446KAXM    C2 3119   4.213   1.825   3.979
  446KAXM    C1 3120   4.075   1.888   3.968
  446KAXM    O1 3121   3.994   1.813   3.876
  446KAXM    H1 3122   3.969   1.723   3.915
  447KAXM    H8 3123   4.744   5.268   4.180
  447KAXM    O2 3124   4.722   5.195   4.248
  447KAXM    C3 3125   4.841   5.150   4.314
  447KAXM    C2 3126   4.841   4.998   4.317
  447KAXM    C1 3127   4.962   4.942   4.390
  447KAXM    O1 3128   4.964   4.799   4.376
  447KAXM    H1 3129   5.040   4.759   4.430
  448KAXM    H8 3130   0.924   1.041   4.520
  448KAXM    O2 3131   1.000   0.981   4.549
  448KAXM    C3 3132   1.097   1.063   4.615
  448KAXM    C2 3133   1.054   1.106   4.755
  448KAXM    C1 3134   1.128   1.231   4.799
  448KAXM    O1 3135   1.272   1.217   4.803
  448KAXM    H1 3136   1.311   1.309   4.783
  449KAXM    H8 3137   0.407   1.016   3.812
  449KAXM    O2 3138   0.388   1.095   3.750
  449KAXM    C3 3139   0.422   1.062   3.614
  449KAXM    C2 3140   0.303   1.082   3.522
  449KAXM    C1 3141   0.336   1.043   3.378
  449KAXM    O1 3142   0.222   1.057   3.291
  449KAXM    H1 3143   0.166   0.976   3.300
  450KAXM    H8 3144   5.616   0.453   3.913
  450KAXM    O2 3145   5.642   0.477   4.008
  450KAXM    C3 3146   5.785   0.487   4.013
  450KAXM    C2 3147   5.843   0.348   4.018
  450KAXM    C1 3148   5.991   0.350   4.051
  450KAXM    O1 3149   0.025   0.220   4.102
  450KAXM    H1 3150   5.964   0.204   4.182
  451KAXM    H8 3151   4.360   1.174   1.593
  451KAXM    O2 3152   4.442   1.126   1.560
  451KAXM    C3 3153   4.476   1.026   1.658
  451KAXM    C2 3154   4.587   0.933   1.608
  451KAXM    C1 3155   4.542   0.849   1.489
  451KAXM    O1 3156   4.443   0.751   1.526
  451KAXM    H1 3157   4.378   0.741   1.450
  452KAXM    H8 3158   2.170   0.687   0.156
  452KAXM    O2 3159   2.107   0.615   0.187
  452KAXM    C3 3160   1.974   0.641   0.141
  452KAXM    C2 3161   1.899   0.510   0.120
  452KAXM    C1 3162   1.752   0.531   0.085
  452KAXM    O1 3163   1.675   0.592   0.190
  452KAXM    H1 3164   1.713   0.574   0.281
  453KAXM    H8 3165   1.273   0.592   2.280
  453KAXM    O2 3166   1.350   0.659   2.272
  453KAXM    C3 3167   1.438   0.642   2.386
  453KAXM    C2 3168   1.457   0.495   2.423
  453KAXM    C1 3169   1.512   0.476   2.564
  453KAXM    O1 3170   1.494   0.341   2.611
  453KAXM    H1 3171   1.504   0.339   2.711
  454KAXM    H8 3172   4.323   5.888   3.923
  454KAXM    O2 3173   4.273   5.833   3.853
  454KAXM    C3 3174   4.221   5.923   3.754
  454KAXM    C2 3175   4.076   5.890   3.723
  454KAXM    C1 3176   4.018   5.984   3.618
  454KAXM    O1 3177   3.877   5.960   3.603
  454KAXM    H1 3178   3.838   0.031   3.542
  455KAXM    H8 3179   1.556   4.764   4.330
  455KAXM    O2 3180   1.528   4.861   4.326
  455KAXM    C3 3181   1.517   4.905   4.189
  455KAXM    C2 3182   1.411   5.013   4.172
  455KAXM    C1 3183   1.400   5.062   4.029
  455KAXM    O1 3184   1.328   4.974   3.941
  455KAXM    H1 3185   1.304   5.028   3.858
  456KAXM    H8 3186   3.445   0.577   1.407
  456KAXM    O2 3187   3.409   0.669   1.384
  456KAXM    C3 3188   3.466   0.763   1.476
  456KAXM    C2 3189   3.449   0.717   1.620
  456KAXM    C1 3190   3.507   0.823   1.713
  456KAXM    O1 3191   3.536   0.772   1.844
  456KAXM    H1 3192   3.553   0.854   1.902
  457KAXM    H8 3193   1.957   1.962   1.176
  457KAXM    O2 3194   1.981   2.048   1.128
  457KAXM    C3 3195   2.122   2.048   1.096
  457KAXM    C2 3196   2.160   2.175   1.020
  457KAXM    C1 3197   2.301   2.164   0.966
  457KAXM    O1 3198   2.341   2.285   0.900
  457KAXM    H1 3199   2.433   2.275   0.860
  458KAXM    H8 3200   3.239   2.473   4.458
  458KAXM    O2 3201   3.335   2.470   4.425
  458KAXM    C3 3202   3.378   2.334   4.412
  458KAXM    C2 3203   3.530   2.332   4.414
  458KAXM    C1 3204   3.585   2.194   4.380
  458KAXM    O1 3205   3.727   2.190   4.400
  458KAXM    H1 3206   3.754   2.093   4.414
  459KAXM    H8 3207   5.291   0.669   5.813
  459KAXM    O2 3208   5.359   0.594   5.818
  459KAXM    C3 3209   5.381   0.545   5.685
  459KAXM    C2 3210   5.516   0.594   5.636
  459KAXM    C1 3211   5.543   0.552   5.492
  459KAXM    O1 3212   5.673   0.598   5.453
  459KAXM    H1 3213   5.742   0.531   5.485
  460KAXM    H8 3214   3.632   0.370   0.933
  460KAXM    O2 3215   3.698   0.441   0.906
  460KAXM    C3 3216   3.671   0.490   0.775
  460KAXM    C2 3217   3.782   0.587   0.734
  460KAXM    C1 3218   3.779   0.622   0.586
  460KAXM    O1 3219   3.816   0.512   0.501
  460KAXM    H1 3220   3.745   0.506   0.430
  461KAXM    H8 3221   0.736   1.843   1.918
  461KAXM    O2 3222   0.688   1.813   2.002
  461KAXM    C3 3223   0.781   1.813   2.111
  461KAXM    C2 3224   0.785   1.679   2.183
  461KAXM    C1 3225   0.876   1.689   2.304
  461KAXM    O1 3226   0.888   1.562   2.369
  461KAXM    H1 3227   0.987   1.544   2.386
  462KAXM    H8 3228   1.627   2.531   4.825
  462KAXM    O2 3229   1.616   2.574   4.733
  462KAXM    C3 3230   1.476   2.578   4.701
  462KAXM    C2 3231   1.452   2.611   4.554
  462KAXM    C1 3232   1.499   2.496   4.467
  462KAXM    O1 3233   1.518   2.530   4.329
  462KAXM    H1 3234   1.544   2.446   4.283
  463KAXM    H8 3235   2.035   1.475   1.546
  463KAXM    O2 3236   2.063   1.445   1.452
  463KAXM    C3 3237   1.970   1.496   1.355
  463KAXM    C2 3238   1.983   1.646   1.335
  463KAXM    C1 3239   1.874   1.697   1.242
  463KAXM    O1 3240   1.872   1.840   1.230
  463KAXM    H1 3241   1.778   1.869   1.220
  464KAXM    H8 3242   3.767   2.730   4.904
  464KAXM    O2 3243   3.771   2.727   4.802
  464KAXM    C3 3244   3.908   2.713   4.760
  464KAXM    C2 3245   3.956   2.828   4.674
  464KAXM    C1 3246   4.100   2.802   4.629
  464KAXM    O1 3247   4.162   2.921   4.577
  464KAXM    H1 3248   4.115   2.953   4.495
  465KAXM    H8 3249   5.634   5.303   4.750
  465KAXM    O2 3250   5.589   5.331   4.667
  465KAXM    C3 3251   5.642   5.460   4.631
  465KAXM    C2 3252   5.707   5.466   4.493
  465KAXM    C1 3253   5.606   5.467   4.378
  465KAXM    O1 3254   5.671   5.457   4.251
  465KAXM    H1 3255   5.615   5.504   4.181
  466KAXM    H8 3256   5.914   0.333   1.294
  466KAXM    O2 3257   5.944   0.426   1.312
  466KAXM    C3 3258   0.084   0.431   1.342
  466KAXM    C2 3259   0.134   0.575   1.333
  466KAXM    C1 3260   0.277   0.590   1.383
  466KAXM    O1 3261   0.318   0.728   1.376
  466KAXM    H1 3262   0.358   0.758   1.463
  467KAXM    H8 3263   3.964   4.026   4.890
  467KAXM    O2 3264   3.985   4.028   4.988
  467KAXM    C3 3265   3.917   3.924   5.057
  467KAXM    C2 3266   4.013   3.811   5.086
  467KAXM    C1 3267   3.947   3.702   5.168
  467KAXM    O1 3268   4.045   3.607   5.210
  467KAXM    H1 3269   4.013   3.561   5.296
  468KAXM    H8 3270   0.465   3.876   1.720
  468KAXM    O2 3271   0.493   3.840   1.631
  468KAXM    C3 3272   0.396   3.745   1.584
  468KAXM    C2 3273   0.376   3.748   1.432
  468KAXM    C1 3274   0.319   3.882   1.386
  468KAXM    O1 3275   0.291   3.884   1.244
  468KAXM    H1 3276   0.377   3.905   1.196
  469KAXM    H8 3277   3.345   3.536   5.318
  469KAXM    O2 3278   3.262   3.488   5.297
  469KAXM    C3 3279   3.276   3.352   5.339
  469KAXM    C2 3280   3.145   3.292   5.392
  469KAXM    C1 3281   3.042   3.260   5.283
  469KAXM    O1 3282   3.087   3.157   5.193
  469KAXM    H1 3283   3.116   3.202   5.108
  470KAXM    H8 3284   1.848   4.121   5.288
  470KAXM    O2 3285   1.910   4.126   5.369
  470KAXM    C3 3286   1.888   4.252   5.434
  470KAXM    C2 3287   1.956   4.263   5.570
  470KAXM    C1 3288   1.898   4.169   5.675
  470KAXM    O1 3289   1.959   4.187   5.803
  470KAXM    H1 3290   2.059   4.174   5.793
  471KAXM    H8 3291   3.834   0.703   4.958
  471KAXM    O2 3292   3.841   0.693   4.857
  471KAXM    C3 3293   3.725   0.750   4.793
  471KAXM    C2 3294   3.763   0.846   4.682
  471KAXM    C1 3295   3.637   0.906   4.622
  471KAXM    O1 3296   3.664   1.017   4.536
  471KAXM    H1 3297   3.721   1.083   4.588
  472KAXM    H8 3298   3.784   5.908   5.838
  472KAXM    O2 3299   3.735   5.994   5.853
  472KAXM    C3 3300   3.764   0.047   5.984
  472KAXM    C2 3301   3.752   0.198   5.985
  472KAXM    C1 3302   3.767   0.256   0.126
  472KAXM    O1 3303   3.737   0.397   0.125
  472KAXM    H1 3304   3.693   0.421   0.213
  473KAXM    H8 3305   5.982   5.689   3.268
  473KAXM    O2 3306   5.883   5.697   3.274
  473KAXM    C3 3307   5.838   5.697   3.411
  473KAXM    C2 3308   5.790   5.837   3.450
  473KAXM    C1 3309   5.701   5.840   3.574
  473KAXM    O1 3310   5.620   5.959   3.573
  473KAXM    H1 3311   5.525   5.932   3.580
  474KAXM    H8 3312   3.545   5.849   3.852
  474KAXM    O2 3313   3.483   5.904   3.795
  474KAXM    C3 3314   3.351   5.884   3.846
  474KAXM    C2 3315   3.277   5.780   3.764
  474KAXM    C1 3316   3.150   5.739   3.837
  474KAXM    O1 3317   3.057   5.675   3.747
  474KAXM    H1 3318   3.088   5.581   3.724
  475KAXM    H8 3319   2.348   4.654   4.445
  475KAXM    O2 3320   2.439   4.612   4.454
  475KAXM    C3 3321   2.522   4.648   4.342
  475KAXM    C2 3322   2.476   4.585   4.211
  475KAXM    C1 3323   2.457   4.434   4.224
  475KAXM    O1 3324   2.424   4.367   4.100
  475KAXM    H1 3325   2.336   4.399   4.064
  476KAXM    H8 3326   1.292   2.753   0.242
  476KAXM    O2 3327   1.314   2.686   0.315
  476KAXM    C3 3328   1.433   2.731   0.381
  476KAXM    C2 3329   1.416   2.752   0.531
  476KAXM    C1 3330   1.396   2.621   0.605
  476KAXM    O1 3331   1.382   2.641   0.747
  476KAXM    H1 3332   1.319   2.719   0.761
  477KAXM    H8 3333   4.122   0.027   2.440
  477KAXM    O2 3334   4.155   0.120   2.460
  477KAXM    C3 3335   4.066   0.218   2.404
  477KAXM    C2 3336   3.931   0.229   2.474
  477KAXM    C1 3337   3.940   0.291   2.613
  477KAXM    O1 3338   3.808   0.308   2.668
  477KAXM    H1 3339   3.811   0.366   2.752
  478KAXM    H8 3340   3.804   0.803   0.202
  478KAXM    O2 3341   3.755   0.806   0.289
  478KAXM    C3 3342   3.657   0.910   0.287
  478KAXM    C2 3343   3.625   0.956   0.429
  478KAXM    C1 3344   3.521   1.067   0.426
  478KAXM    O1 3345   3.503   1.130   0.554
  478KAXM    H1 3346   3.427   1.197   0.544
  479KAXM    H8 3347   4.839   4.526   2.705
  479KAXM    O2 3348   4.803   4.605   2.650
  479KAXM    C3 3349   4.808   4.571   2.510
  479KAXM    C2 3350   4.671   4.526   2.463
  479KAXM    C1 3351   4.670   4.490   2.315
  479KAXM    O1 3352   4.707   4.600   2.229
  479KAXM    H1 3353   4.672   4.687   2.266
  480KAXM    H8 3354   1.306   3.301   3.552
  480KAXM    O2 3355   1.376   3.336   3.614
  480KAXM    C3 3356   1.508   3.292   3.577
  480KAXM    C2 3357   1.573   3.388   3.480
  480KAXM    C1 3358   1.713   3.341   3.441
  480KAXM    O1 3359   1.775   3.429   3.346
  480KAXM    H1 3360   1.871   3.400   3.333
  481KAXM    H8 3361   1.906   3.800   2.346
  481KAXM    O2 3362   1.908   3.731   2.273
  481KAXM    C3 3363   2.040   3.678   2.257
  481KAXM    C2 3364   2.049   3.573   2.147
  481KAXM    C1 3365   1.964   3.450   2.177
  481KAXM    O1 3366   2.034   3.332   2.135
  481KAXM    H1 3367   2.102   3.310   2.207
  482KAXM    H8 3368   0.085   3.988   2.598
  482KAXM    O2 3369   0.097   4.082   2.629
  482KAXM    C3 3370   0.165   4.087   2.757
  482KAXM    C2 3371   0.269   3.976   2.767
  482KAXM    C1 3372   0.385   4.009   2.858
  482KAXM    O1 3373   0.507   3.959   2.800
  482KAXM    H1 3374   0.549   3.895   2.867
  483KAXM    H8 3375   4.704   0.081   0.854
  483KAXM    O2 3376   4.739   0.036   0.938
  483KAXM    C3 3377   4.843   0.117   0.995
  483KAXM    C2 3378   4.934   0.037   1.088
  483KAXM    C1 3379   5.044   0.125   1.146
  483KAXM    O1 3380   5.140   0.165   1.047
  483KAXM    H1 3381   5.231   0.129   1.074
  484KAXM    H8 3382   2.410   1.301   0.266
  484KAXM    O2 3383   2.390   1.205   0.246
  484KAXM    C3 3384   2.288   1.198   0.144
  484KAXM    C2 3385   2.176   1.105   0.187
  484KAXM    C1 3386   2.072   1.086   0.077
  484KAXM    O1 3387   1.981   0.982   0.115
  484KAXM    H1 3388   1.921   0.958   0.038
  485KAXM    H8 3389   2.527   2.534   3.959
  485KAXM    O2 3390   2.598   2.477   4.000
  485KAXM    C3 3391   2.641   2.542   4.121
  485KAXM    C2 3392   2.705   2.444   4.219
  485KAXM    C1 3393   2.695   2.498   4.361
  485KAXM    O1 3394   2.721   2.395   4.457
  485KAXM    H1 3395   2.786   2.427   4.525
  486KAXM    H8 3396   1.612   4.008   4.683
  486KAXM    O2 3397   1.633   3.961   4.769
  486KAXM    C3 3398   1.514   3.929   4.843
  486KAXM    C2 3399   1.465   4.048   4.926
  486KAXM    C1 3400   1.362   4.009   5.032
  486KAXM    O1 3401   1.306   4.124   5.100
  486KAXM    H1 3402   1.274   4.094   5.191
  487KAXM    H8 3403   4.244   1.238   2.252
  487KAXM    O2 3404   4.279   1.327   2.219
  487KAXM    C3 3405   4.198   1.433   2.275
  487KAXM    C2 3406   4.219   1.564   2.200
  487KAXM    C1 3407   4.118   1.672   2.240
  487KAXM    O1 3408   4.139   1.723   2.372
  487KAXM    H1 3409   4.090   1.810   2.385
  488KAXM    H8 3410   4.102   5.854   0.718
  488KAXM    O2 3411   4.033   5.826   0.648
  488KAXM    C3 3412   4.069   5.877   0.519
  488KAXM    C2 3413   3.994   5.795   0.415
  488KAXM    C1 3414   4.000   5.852   0.274
  488KAXM    O1 3415   3.928   5.764   0.185
  488KAXM    H1 3416   3.829   5.784   0.196
  489KAXM    H8 3417   0.057   4.300   3.403
  489KAXM    O2 3418   5.988   4.233   3.434
  489KAXM    C3 3419   5.927   4.171   3.320
  489KAXM    C2 3420   5.778   4.160   3.341
  489KAXM    C1 3421   5.711   4.135   3.207
  489KAXM    O1 3422   5.569   4.122   3.225
  489KAXM    H1 3423   5.523   4.144   3.138
  490KAXM    H8 3424   3.996   5.634   0.142
  490KAXM    O2 3425   4.034   5.542   0.122
  490KAXM    C3 3426   4.173   5.554   0.085
  490KAXM    C2 3427   4.257   5.593   0.206
  490KAXM    C1 3428   4.404   5.617   0.175
  490KAXM    O1 3429   4.478   5.636   0.298
  490KAXM    H1 3430   4.572   5.658   0.274
  491KAXM    H8 3431   0.761   4.801   1.753
  491KAXM    O2 3432   0.727   4.817   1.848
  491KAXM    C3 3433   0.685   4.693   1.906
  491KAXM    C2 3434   0.552   4.645   1.848
  491KAXM    C1 3435   0.512   4.518   1.920
  491KAXM    O1 3436   0.386   4.464   1.877
  491KAXM    H1 3437   0.356   4.392   1.942
  492KAXM    H8 3438   5.303   5.880   1.359
  492KAXM    O2 3439   5.377   5.943   1.328
  492KAXM    C3 3440   5.482   5.953   1.427
  492KAXM    C2 3441   5.581   5.839   1.419
  492KAXM    C1 3442   5.686   5.853   1.528
  492KAXM    O1 3443   5.780   5.745   1.527
  492KAXM    H1 3444   5.751   5.673   1.592
  493KAXM    H8 3445   3.160   0.357   2.862
  493KAXM    O2 3446   3.182   0.339   2.958
  493KAXM    C3 3447   3.316   0.287   2.974
  493KAXM    C2 3448   3.429   0.373   2.920
  493KAXM    C1 3449   3.478   0.483   3.014
  493KAXM    O1 3450   3.562   0.571   2.938
  493KAXM    H1 3451   3.503   0.630   2.883
  494KAXM    H8 3452   0.061   1.338   2.598
  494KAXM    O2 3453   0.120   1.399   2.542
  494KAXM    C3 3454   0.254   1.399   2.594
  494KAXM    C2 3455   0.299   1.539   2.632
  494KAXM    C1 3456   0.450   1.542   2.649
  494KAXM    O1 3457   0.499   1.675   2.673
  494KAXM    H1 3458   0.597   1.672   2.673
  495KAXM    H8 3459   4.189   4.764   1.599
  495KAXM    O2 3460   4.146   4.847   1.558
  495KAXM    C3 3461   4.023   4.881   1.625
  495KAXM    C2 3462   3.913   4.777   1.607
  495KAXM    C1 3463   3.941   4.655   1.694
  495KAXM    O1 3464   3.842   4.552   1.682
  495KAXM    H1 3465   3.881   4.468   1.719
  496KAXM    H8 3466   1.669   1.995   4.303
  496KAXM    O2 3467   1.719   1.949   4.231
  496KAXM    C3 3468   1.646   1.963   4.108
  496KAXM    C2 3469   1.558   1.842   4.080
  496KAXM    C1 3470   1.460   1.875   3.969
  496KAXM    O1 3471   1.377   1.763   3.932
  496KAXM    H1 3472   1.406   1.733   3.841
  497KAXM    H8 3473   1.538   4.528   3.719
  497KAXM    O2 3474   1.545   4.482   3.629
  497KAXM    C3 3475   1.614   4.571   3.540
  497KAXM    C2 3476   1.758   4.591   3.583
  497KAXM    C1 3477   1.819   4.706   3.507
  497KAXM    O1 3478   1.909   4.780   3.590
  497KAXM    H1 3479   1.977   4.823   3.528
  498KAXM    H8 3480   4.854   4.370   2.865
  498KAXM    O2 3481   4.898   4.430   2.796
  498KAXM    C3 3482   5.039   4.401   2.794
  498KAXM    C2 3483   5.081   4.334   2.664
  498KAXM    C1 3484   5.011   4.201   2.640
  498KAXM    O1 3485   5.042   4.146   2.511
  498KAXM    H1 3486   5.136   4.110   2.514
  499KAXM    H8 3487   0.651   3.757   3.608
  499KAXM    O2 3488   0.576   3.810   3.652
  499KAXM    C3 3489   0.512   3.731   3.753
  499KAXM    C2 3490   0.438   3.825   3.848
  499KAXM    C1 3491   0.366   3.751   3.959
  499KAXM    O1 3492   0.329   3.838   4.067
  499KAXM    H1 3493   0.280   3.784   4.138
  500KAXM    H8 3494   4.148   4.490   5.764
  500KAXM    O2 3495   4.150   4.573   5.823
  500KAXM    C3 3496   4.211   4.679   5.747
  500KAXM    C2 3497   4.361   4.681   5.771
  500KAXM    C1 3498   4.431   4.765   5.666
  500KAXM    O1 3499   4.572   4.748   5.675
  500KAXM    H1 3500   4.613   4.826   5.723
  501KAXM    H8 3501   4.122   5.788   4.554
  501KAXM    O2 3502   4.150   5.871   4.502
  501KAXM    C3 3503   4.098   5.869   4.368
  501KAXM    C2 3504   4.159   5.762   4.278
  501KAXM    C1 3505   4.101   5.774   4.137
  501KAXM    O1 3506   4.165   5.686   4.043
  501KAXM    H1 3507   4.199   5.739   3.965
  502KAXM    H8 3508   1.823   3.783   3.726
  502KAXM    O2 3509   1.880   3.724   3.665
  502KAXM    C3 3510   1.804   3.689   3.548
  502KAXM    C2 3511   1.834   3.781   3.431
  502KAXM    C1 3512   1.740   3.756   3.313
  502KAXM    O1 3513   1.777   3.646   3.228
  502KAXM    H1 3514   1.772   3.558   3.279
  503KAXM    H8 3515   1.517   2.147   4.930
  503KAXM    O2 3516   1.571   2.224   4.894
  503KAXM    C3 3517   1.643   2.181   4.777
  503KAXM    C2 3518   1.556   2.164   4.653
  503KAXM    C1 3519   1.644   2.114   4.539
  503KAXM    O1 3520   1.579   2.099   4.411
  503KAXM    H1 3521   1.591   2.183   4.356
  504KAXM    H8 3522   3.832   1.049   2.836
  504KAXM    O2 3523   3.827   0.952   2.866
  504KAXM    C3 3524   3.697   0.926   2.923
  504KAXM    C2 3525   3.684   0.967   3.069
  504KAXM    C1 3526   3.541   0.943   3.118
  504KAXM    O1 3527   3.524   0.965   3.260
  504KAXM    H1 3528   3.523   1.063   3.281
  505KAXM    H8 3529   0.102   0.859   4.035
  505KAXM    O2 3530   0.175   0.850   3.965
  505KAXM    C3 3531   0.117   0.800   3.844
  505KAXM    C2 3532   0.025   0.902   3.780
  505KAXM    C1 3533   5.989   0.854   3.641
  505KAXM    O1 3534   5.891   0.939   3.579
  505KAXM    H1 3535   5.927   1.034   3.572
  506KAXM    H8 3536   0.078   3.662   3.298
  506KAXM    O2 3537   0.171   3.632   3.319
  506KAXM    C3 3538   0.166   3.535   3.425
  506KAXM    C2 3539   0.300   3.511   3.495
  506KAXM    C1 3540   0.396   3.430   3.408
  506KAXM    O1 3541   0.521   3.402   3.474
  506KAXM    H1 3542   0.511   3.323   3.537
  507KAXM    H8 3543   3.522   5.385   2.355
  507KAXM    O2 3544   3.612   5.362   2.390
  507KAXM    C3 3545   3.701   5.472   2.370
  507KAXM    C2 3546   3.846   5.429   2.383
  507KAXM    C1 3547   3.934   5.542   2.333
  507KAXM    O1 3548   4.071   5.503   2.315
  507KAXM    H1 3549   4.107   5.466   2.403
  508KAXM    H8 3550   5.802   4.090   0.828
  508KAXM    O2 3551   5.786   4.116   0.924
  508KAXM    C3 3552   5.910   4.133   0.993
  508KAXM    C2 3553   5.897   4.086   1.137
  508KAXM    C1 3554   0.027   4.106   1.213
  508KAXM    O1 3555   0.042   4.009   1.318
  508KAXM    H1 3556   0.132   3.970   1.304
  509KAXM    H8 3557   2.745   0.202   3.716
  509KAXM    O2 3558   2.814   0.200   3.789
  509KAXM    C3 3559   2.942   0.240   3.734
  509KAXM    C2 3560   3.029   0.314   3.835
  509KAXM    C1 3561   3.161   0.359   3.772
  509KAXM    O1 3562   3.246   0.431   3.864
  509KAXM    H1 3563   3.295   0.365   3.923
  510KAXM    H8 3564   1.104   0.672   1.864
  510KAXM    O2 3565   1.011   0.705   1.867
  510KAXM    C3 3566   1.006   0.814   1.961
  510KAXM    C2 3567   1.046   0.769   2.101
  510KAXM    C1 3568   1.097   0.888   2.183
  510KAXM    O1 3569   1.167   0.848   2.302
  510KAXM    H1 3570   1.243   0.787   2.279
  511KAXM    H8 3571   1.094   1.692   3.102
  511KAXM    O2 3572   1.020   1.624   3.097
  511KAXM    C3 3573   1.015   1.572   2.964
  511KAXM    C2 3574   0.965   1.428   2.964
  511KAXM    C1 3575   0.981   1.366   2.826
  511KAXM    O1 3576   0.954   1.225   2.824
  511KAXM    H1 3577   0.965   1.190   2.729
  512KAXM    H8 3578   0.947   3.689   2.383
  512KAXM    O2 3579   0.901   3.650   2.462
  512KAXM    C3 3580   0.779   3.720   2.489
  512KAXM    C2 3581   0.704   3.659   2.607
  512KAXM    C1 3582   0.790   3.659   2.733
  512KAXM    O1 3583   0.718   3.604   2.845
  512KAXM    H1 3584   0.723   3.503   2.838
  513KAXM    H8 3585   0.956   3.341   4.769
  513KAXM    O2 3586   0.975   3.242   4.768
  513KAXM    C3 3587   0.879   3.176   4.684
  513KAXM    C2 3588   0.943   3.061   4.609
  513KAXM    C1 3589   0.841   2.985   4.526
  513KAXM    O1 3590   0.902   2.881   4.449
  513KAXM    H1 3591   0.831   2.834   4.395
  514KAXM    H8 3592   0.091   2.077   0.650
  514KAXM    O2 3593   0.127   2.038   0.563
  514KAXM    C3 3594   0.257   1.983   0.587
  514KAXM    C2 3595   0.358   2.031   0.483
  514KAXM    C1 3596   0.343   1.964   0.346
  514KAXM    O1 3597   0.388   1.827   0.350
  514KAXM    H1 3598   0.371   1.783   0.260
  515KAXM    H8 3599   4.254   0.441   2.907
  515KAXM    O2 3600   4.289   0.347   2.924
  515KAXM    C3 3601   4.409   0.361   3.002
  515KAXM    C2 3602   4.385   0.336   3.150
  515KAXM    C1 3603   4.511   0.361   3.231
  515KAXM    O1 3604   4.487   0.340   3.371
  515KAXM    H1 3605   4.572   0.353   3.423
  516KAXM    H8 3606   3.488   0.730   3.937
  516KAXM    O2 3607   3.541   0.796   3.991
  516KAXM    C3 3608   3.457   0.845   4.097
  516KAXM    C2 3609   3.536   0.941   4.185
  516KAXM    C1 3610   3.449   1.010   4.289
  516KAXM    O1 3611   3.522   1.115   4.354
  516KAXM    H1 3612   3.578   1.073   4.428
  517KAXM    H8 3613   4.883   0.422   1.444
  517KAXM    O2 3614   4.958   0.477   1.477
  517KAXM    C3 3615   4.912   0.612   1.495
  517KAXM    C2 3616   5.019   0.695   1.565
  517KAXM    C1 3617   4.975   0.836   1.600
  517KAXM    O1 3618   5.081   0.913   1.659
  517KAXM    H1 3619   5.061   0.927   1.757
  518KAXM    H8 3620   3.386   3.397   1.302
  518KAXM    O2 3621   3.394   3.437   1.209
  518KAXM    C3 3622   3.285   3.528   1.186
  518KAXM    C2 3623   3.320   3.668   1.232
  518KAXM    C1 3624   3.202   3.763   1.212
  518KAXM    O1 3625   3.235   3.894   1.263
  518KAXM    H1 3626   3.151   3.953   1.264
  519KAXM    H8 3627   4.248   4.575   2.506
  519KAXM    O2 3628   4.258   4.479   2.536
  519KAXM    C3 3629   4.250   4.391   2.423
  519KAXM    C2 3630   4.109   4.339   2.398
  519KAXM    C1 3631   4.098   4.276   2.260
  519KAXM    O1 3632   3.963   4.240   2.226
  519KAXM    H1 3633   3.899   4.315   2.248
  520KAXM    H8 3634   2.345   2.304   3.547
  520KAXM    O2 3635   2.270   2.357   3.511
  520KAXM    C3 3636   2.274   2.489   3.569
  520KAXM    C2 3637   2.303   2.480   3.718
  520KAXM    C1 3638   2.335   2.618   3.774
  520KAXM    O1 3639   2.398   2.609   3.903
  520KAXM    H1 3640   2.445   2.699   3.919
  521KAXM    H8 3641   0.675   5.442   1.115
  521KAXM    O2 3642   0.600   5.379   1.139
  521KAXM    C3 3643   0.641   5.242   1.117
  521KAXM    C2 3644   0.611   5.155   1.238
  521KAXM    C1 3645   0.618   5.004   1.209
  521KAXM    O1 3646   0.507   4.955   1.132
  521KAXM    H1 3647   0.496   4.856   1.148
  522KAXM    H8 3648   3.014   0.906   0.441
  522KAXM    O2 3649   2.938   0.917   0.374
  522KAXM    C3 3650   2.995   0.911   0.242
  522KAXM    C2 3651   3.083   1.032   0.213
  522KAXM    C1 3652   3.160   1.012   0.084
  522KAXM    O1 3653   3.232   1.131   0.046
  522KAXM    H1 3654   3.294   1.107   5.968
  523KAXM    H8 3655   0.714   2.789   4.211
  523KAXM    O2 3656   0.727   2.770   4.308
  523KAXM    C3 3657   0.628   2.673   4.346
  523KAXM    C2 3658   0.658   2.601   4.477
  523KAXM    C1 3659   0.570   2.478   4.486
  523KAXM    O1 3660   0.598   2.399   4.602
  523KAXM    H1 3661   0.579   2.303   4.581
  524KAXM    H8 3662   5.230   0.020   1.879
  524KAXM    O2 3663   5.227   0.106   1.930
  524KAXM    C3 3664   5.177   0.216   1.852
  524KAXM    C2 3665   5.186   0.343   1.935
  524KAXM    C1 3666   5.097   0.450   1.877
  524KAXM    O1 3667   5.106   0.576   1.947
  524KAXM    H1 3668   5.188   0.625   1.910
  525KAXM    H8 3669   3.240   1.402   5.237
  525KAXM    O2 3670   3.190   1.416   5.150
  525KAXM    C3 3671   3.238   1.534   5.083
  525KAXM    C2 3672   3.385   1.529   5.045
  525KAXM    C1 3673   3.422   1.658   4.972
  525KAXM    O1 3674   3.563   1.673   4.947
  525KAXM    H1 3675   3.580   1.771   4.927
  526KAXM    H8 3676   5.536   0.917   3.891
  526KAXM    O2 3677   5.474   0.844   3.923
  526KAXM    C3 3678   5.474   0.733   3.831
  526KAXM    C2 3679   5.387   0.754   3.708
  526KAXM    C1 3680   5.380   0.624   3.627
  526KAXM    O1 3681   5.317   0.635   3.498
  526KAXM    H1 3682   5.314   0.544   3.457
  527KAXM    H8 3683   4.952   1.263   0.762
  527KAXM    O2 3684   4.907   1.177   0.732
  527KAXM    C3 3685   4.967   1.069   0.806
  527KAXM    C2 3686   4.918   0.935   0.755
  527KAXM    C1 3687   4.987   0.822   0.830
  527KAXM    O1 3688   4.977   0.699   0.757
  527KAXM    H1 3689   5.043   0.703   0.681
  528KAXM    H8 3690   2.577   4.765   1.966
  528KAXM    O2 3691   2.674   4.790   1.983
  528KAXM    C3 3692   2.725   4.843   1.860
  528KAXM    C2 3693   2.856   4.919   1.876
  528KAXM    C1 3694   2.914   4.941   1.738
  528KAXM    O1 3695   3.031   5.025   1.743
  528KAXM    H1 3696   3.004   5.117   1.710
  529KAXM    H8 3697   4.150   4.905   4.153
  529KAXM    O2 3698   4.058   4.933   4.187
  529KAXM    C3 3699   3.963   4.909   4.082
  529KAXM    C2 3700   3.845   5.005   4.092
  529KAXM    C1 3701   3.727   4.963   4.004
  529KAXM    O1 3702   3.758   4.959   3.863
  529KAXM    H1 3703   3.805   4.872   3.843
  530KAXM    H8 3704   5.899   3.413   5.011
  530KAXM    O2 3705   5.947   3.502   5.020
  530KAXM    C3 3706   5.971   3.529   5.159
  530KAXM    C2 3707   0.065   3.425   5.219
  530KAXM    C1 3708   0.084   3.447   5.368
  530KAXM    O1 3709   0.164   3.342   5.426
  530KAXM    H1 3710   0.149   3.345   5.526
  531KAXM    H8 3711   2.469   1.092   5.652
  531KAXM    O2 3712   2.528   1.034   5.599
  531KAXM    C3 3713   2.470   1.023   5.468
  531KAXM    C2 3714   2.567   0.974   5.361
  531KAXM    C1 3715   2.495   0.971   5.227
  531KAXM    O1 3716   2.574   0.917   5.121
  531KAXM    H1 3717   2.512   0.883   5.049
  532KAXM    H8 3718   3.266   4.936   0.611
  532KAXM    O2 3719   3.246   4.840   0.584
  532KAXM    C3 3720   3.104   4.822   0.579
  532KAXM    C2 3721   3.063   4.694   0.507
  532KAXM    C1 3722   3.104   4.566   0.579
  532KAXM    O1 3723   3.057   4.451   0.507
  532KAXM    H1 3724   3.084   4.367   0.555
  533KAXM    H8 3725   0.131   2.304   3.147
  533KAXM    O2 3726   0.131   2.322   3.246
  533KAXM    C3 3727   0.072   2.209   3.312
  533KAXM    C2 3728   0.095   2.211   3.463
  533KAXM    C1 3729   0.050   2.079   3.525
  533KAXM    O1 3730   0.087   2.067   3.664
  533KAXM    H1 3731   0.187   2.073   3.674
  534KAXM    H8 3732   3.569   1.947   0.658
  534KAXM    O2 3733   3.570   1.966   0.560
  534KAXM    C3 3734   3.434   1.954   0.515
  534KAXM    C2 3735   3.421   1.935   0.364
  534KAXM    C1 3736   3.286   1.877   0.328
  534KAXM    O1 3737   3.176   1.960   0.368
  534KAXM    H1 3738   3.151   2.019   0.288
  535KAXM    H8 3739   5.751   0.468   0.783
  535KAXM    O2 3740   5.759   0.556   0.830
  535KAXM    C3 3741   5.851   0.645   0.766
  535KAXM    C2 3742   5.887   0.754   0.866
  535KAXM    C1 3743   5.948   0.877   0.801
  535KAXM    O1 3744   5.965   0.982   0.898
  535KAXM    H1 3745   0.049   1.033   0.876
  536KAXM    H8 3746   1.528   0.203   0.782
  536KAXM    O2 3747   1.569   0.281   0.831
  536KAXM    C3 3748   1.696   0.241   0.884
  536KAXM    C2 3749   1.744   0.330   0.999
  536KAXM    C1 3750   1.890   0.303   1.038
  536KAXM    O1 3751   1.913   0.169   1.086
  536KAXM    H1 3752   1.988   0.170   1.154
  537KAXM    H8 3753   1.147   5.791   2.430
  537KAXM    O2 3754   1.240   5.754   2.446
  537KAXM    C3 3755   1.298   5.814   2.564
  537KAXM    C2 3756   1.202   5.796   2.680
  537KAXM    C1 3757   1.264   5.820   2.816
  537KAXM    O1 3758   1.166   5.784   2.915
  537KAXM    H1 3759   1.173   5.683   2.929
  538KAXM    H8 3760   4.103   0.915   3.609
  538KAXM    O2 3761   4.054   0.878   3.528
  538KAXM    C3 3762   4.149   0.811   3.443
  538KAXM    C2 3763   4.111   0.834   3.297
  538KAXM    C1 3764   4.148   0.714   3.212
  538KAXM    O1 3765   4.103   0.728   3.076
  538KAXM    H1 3766   4.013   0.768   3.076
  539KAXM    H8 3767   2.098   0.064   0.301
  539KAXM    O2 3768   2.107   0.035   0.205
  539KAXM    C3 3769   1.977   5.994   0.158
  539KAXM    C2 3770   1.937   5.857   0.211
  539KAXM    C1 3771   1.794   5.827   0.171
  539KAXM    O1 3772   1.754   5.695   0.210
  539KAXM    H1 3773   1.667   5.671   0.168
  540KAXM    H8 3774   1.496   5.475   1.061
  540KAXM    O2 3775   1.518   5.401   0.995
  540KAXM    C3 3776   1.661   5.393   0.982
  540KAXM    C2 3777   1.708   5.294   0.878
  540KAXM    C1 3778   1.860   5.300   0.873
  540KAXM    O1 3779   1.919   5.197   0.792
  540KAXM    H1 3780   1.908   5.218   0.694
  541KAXM    H8 3781   2.198   3.001   2.328
  541KAXM    O2 3782   2.236   3.037   2.240
  541KAXM    C3 3783   2.147   2.994   2.136
  541KAXM    C2 3784   2.159   2.843   2.120
  541KAXM    C1 3785   2.046   2.789   2.035
  541KAXM    O1 3786   2.051   2.646   2.031
  541KAXM    H1 3787   1.992   2.618   1.953
  542KAXM    H8 3788   5.842   3.133   0.984
  542KAXM    O2 3789   5.908   3.140   0.909
  542KAXM    C3 3790   5.871   3.044   0.809
  542KAXM    C2 3791   5.987   2.992   0.727
  542KAXM    C1 3792   5.931   2.915   0.609
  542KAXM    O1 3793   0.024   2.816   0.562
  542KAXM    H1 3794   0.090   2.861   0.499
  543KAXM    H8 3795   3.855   1.239   4.595
  543KAXM    O2 3796   3.799   1.183   4.659
  543KAXM    C3 3797   3.743   1.266   4.763
  543KAXM    C2 3798   3.752   1.203   4.902
  543KAXM    C1 3799   3.698   1.303   5.004
  543KAXM    O1 3800   3.696   1.258   5.141
  543KAXM    H1 3801   3.694   1.340   5.196
  544KAXM    H8 3802   2.844   3.995   4.098
  544KAXM    O2 3803   2.869   3.947   4.012
  544KAXM    C3 3804   2.896   4.047   3.912
  544KAXM    C2 3805   2.958   3.998   3.782
  544KAXM    C1 3806   3.041   4.112   3.725
  544KAXM    O1 3807   3.062   4.103   3.583
  544KAXM    H1 3808   2.994   4.164   3.538
  545KAXM    H8 3809   4.240   0.743   5.717
  545KAXM    O2 3810   4.248   0.787   5.804
  545KAXM    C3 3811   4.140   0.746   5.889
  545KAXM    C2 3812   4.128   0.837   0.011
  545KAXM    C1 3813   4.024   0.788   0.112
  545KAXM    O1 3814   3.888   0.792   0.063
  545KAXM    H1 3815   3.863   0.700   0.026
  546KAXM    H8 3816   0.065   4.479   5.097
  546KAXM    O2 3817   5.977   4.518   5.117
  546KAXM    C3 3818   5.934   4.483   5.250
  546KAXM    C2 3819   0.048   4.489   5.350
  546KAXM    C1 3820   5.997   4.464   5.491
  546KAXM    O1 3821   0.106   4.465   5.584
  546KAXM    H1 3822   0.098   4.382   5.640
  547KAXM    H8 3823   4.730   4.084   5.884
  547KAXM    O2 3824   4.665   4.008   5.890
  547KAXM    C3 3825   4.738   3.886   5.874
  547KAXM    C2 3826   4.774   3.865   5.729
  547KAXM    C1 3827   4.871   3.750   5.714
  547KAXM    O1 3828   4.893   3.722   5.575
  547KAXM    H1 3829   4.973   3.661   5.566
  548KAXM    H8 3830   2.580   5.667   5.954
  548KAXM    O2 3831   2.673   5.633   5.945
  548KAXM    C3 3832   2.709   5.616   5.807
  548KAXM    C2 3833   2.789   5.735   5.757
  548KAXM    C1 3834   2.858   5.705   5.625
  548KAXM    O1 3835   2.951   5.810   5.591
  548KAXM    H1 3836   3.033   5.801   5.651
  549KAXM    H8 3837   2.537   4.856   0.237
  549KAXM    O2 3838   2.606   4.917   0.196
  549KAXM    C3 3839   2.736   4.909   0.258
  549KAXM    C2 3840   2.740   4.926   0.410
  549KAXM    C1 3841   2.690   4.801   0.480
  549KAXM    O1 3842   2.734   4.799   0.616
  549KAXM    H1 3843   2.746   4.703   0.647
  550KAXM    H8 3844   2.990   3.584   3.799
  550KAXM    O2 3845   2.934   3.582   3.714
  550KAXM    C3 3846   2.878   3.451   3.699
  550KAXM    C2 3847   2.758   3.433   3.791
  550KAXM    C1 3848   2.702   3.291   3.784
  550KAXM    O1 3849   2.651   3.252   3.654
  550KAXM    H1 3850   2.616   3.333   3.602
  551KAXM    H8 3851   2.626   0.049   0.440
  551KAXM    O2 3852   2.674   0.138   0.441
  551KAXM    C3 3853   2.579   0.242   0.469
  551KAXM    C2 3854   2.635   0.349   0.559
  551KAXM    C1 3855   2.525   0.449   0.593
  551KAXM    O1 3856   2.563   0.532   0.703
  551KAXM    H1 3857   2.497   0.605   0.712
  552KAXM    H8 3858   4.924   2.353   5.353
  552KAXM    O2 3859   4.904   2.309   5.264
  552KAXM    C3 3860   4.769   2.257   5.266
  552KAXM    C2 3861   4.693   2.273   5.135
  552KAXM    C1 3862   4.724   2.166   5.030
  552KAXM    O1 3863   4.626   2.166   4.924
  552KAXM    H1 3864   4.674   2.178   4.835
  553KAXM    H8 3865   3.073   1.250   5.773
  553KAXM    O2 3866   3.028   1.163   5.750
  553KAXM    C3 3867   2.887   1.188   5.736
  553KAXM    C2 3868   2.828   1.231   5.869
  553KAXM    C1 3869   2.676   1.221   5.867
  553KAXM    O1 3870   2.620   1.284   5.983
  553KAXM    H1 3871   2.666   1.246   0.066
  554KAXM    H8 3872   1.956   4.226   5.954
  554KAXM    O2 3873   1.989   4.257   0.045
  554KAXM    C3 3874   2.013   4.141   0.125
  554KAXM    C2 3875   2.005   4.171   0.274
  554KAXM    C1 3876   2.032   4.042   0.350
  554KAXM    O1 3877   2.013   4.052   0.493
  554KAXM    H1 3878   1.934   3.993   0.516
  555KAXM    H8 3879   1.529   4.719   2.787
  555KAXM    O2 3880   1.627   4.734   2.767
  555KAXM    C3 3881   1.642   4.753   2.625
  555KAXM    C2 3882   1.556   4.654   2.548
  555KAXM    C1 3883   1.550   4.695   2.401
  555KAXM    O1 3884   1.441   4.633   2.332
  555KAXM    H1 3885   1.360   4.624   2.394
  556KAXM    H8 3886   5.442   2.122   5.952
  556KAXM    O2 3887   5.488   2.107   5.866
  556KAXM    C3 3888   5.605   2.190   5.866
  556KAXM    C2 3889   5.656   2.223   5.726
  556KAXM    C1 3890   5.725   2.106   5.658
  556KAXM    O1 3891   5.759   2.137   5.522
  556KAXM    H1 3892   5.814   2.060   5.483
  557KAXM    H8 3893   0.727   5.552   1.659
  557KAXM    O2 3894   0.727   5.476   1.726
  557KAXM    C3 3895   0.595   5.419   1.733
  557KAXM    C2 3896   0.557   5.392   1.877
  557KAXM    C1 3897   0.407   5.369   1.892
  557KAXM    O1 3898   0.370   5.364   2.032
  557KAXM    H1 3899   0.274   5.332   2.042
  558KAXM    H8 3900   2.174   3.838   0.047
  558KAXM    O2 3901   2.080   3.832   0.009
  558KAXM    C3 3902   2.086   3.747   5.893
  558KAXM    C2 3903   2.117   3.607   5.943
  558KAXM    C1 3904   2.133   3.507   5.830
  558KAXM    O1 3905   2.181   3.384   5.885
  558KAXM    H1 3906   2.108   3.345   5.943
  559KAXM    H8 3907   5.565   5.851   3.208
  559KAXM    O2 3908   5.476   5.882   3.245
  559KAXM    C3 3909   5.417   5.783   3.331
  559KAXM    C2 3910   5.278   5.827   3.376
  559KAXM    C1 3911   5.283   5.955   3.460
  559KAXM    O1 3912   5.325   5.931   3.596
  559KAXM    H1 3913   5.246   5.890   3.641
  560KAXM    H8 3914   4.492   2.230   5.687
  560KAXM    O2 3915   4.559   2.307   5.680
  560KAXM    C3 3916   4.682   2.257   5.627
  560KAXM    C2 3917   4.741   2.139   5.704
  560KAXM    C1 3918   4.850   2.079   5.616
  560KAXM    O1 3919   4.930   1.975   5.676
  560KAXM    H1 3920   5.020   1.975   5.631
  561KAXM    H8 3921   4.258   0.373   0.869
  561KAXM    O2 3922   4.199   0.310   0.921
  561KAXM    C3 3923   4.130   0.226   0.826
  561KAXM    C2 3924   4.002   0.290   0.773
  561KAXM    C1 3925   3.940   0.206   0.662
  561KAXM    O1 3926   3.826   0.268   0.599
  561KAXM    H1 3927   3.848   0.361   0.569
  562KAXM    H8 3928   5.070   5.830   5.610
  562KAXM    O2 3929   4.995   5.833   5.542
  562KAXM    C3 3930   5.048   5.807   5.411
  562KAXM    C2 3931   5.000   5.914   5.315
  562KAXM    C1 3932   5.068   5.910   5.179
  562KAXM    O1 3933   5.071   0.043   5.125
  562KAXM    H1 3934   5.096   0.040   5.027
  563KAXM    H8 3935   0.871   5.491   0.376
  563KAXM    O2 3936   0.967   5.500   0.404
  563KAXM    C3 3937   1.046   5.539   0.292
  563KAXM    C2 3938   1.094   5.417   0.214
  563KAXM    C1 3939   1.138   5.454   0.073
  563KAXM    O1 3940   1.209   5.345   0.010
  563KAXM    H1 3941   1.204   5.361   5.909
  564KAXM    H8 3942   2.732   0.069   5.549
  564KAXM    O2 3943   2.655   0.113   5.600
  564KAXM    C3 3944   2.532   0.076   5.536
  564KAXM    C2 3945   2.485   5.935   5.571
  564KAXM    C1 3946   2.443   5.924   5.717
  564KAXM    O1 3947   2.406   5.789   5.751
  564KAXM    H1 3948   2.413   5.777   5.851
  565KAXM    H8 3949   2.881   0.682   0.557
  565KAXM    O2 3950   2.967   0.670   0.607
  565KAXM    C3 3951   2.949   0.574   0.712
  565KAXM    C2 3952   2.995   0.435   0.670
  565KAXM    C1 3953   2.963   0.335   0.780
  565KAXM    O1 3954   2.989   0.199   0.741
  565KAXM    H1 3955   2.942   0.141   0.806
  566KAXM    H8 3956   3.879   4.267   1.808
  566KAXM    O2 3957   3.951   4.329   1.775
  566KAXM    C3 3958   4.015   4.272   1.659
  566KAXM    C2 3959   4.051   4.125   1.679
  566KAXM    C1 3960   4.091   4.061   1.546
  566KAXM    O1 3961   4.116   3.921   1.564
  566KAXM    H1 3962   4.052   3.868   1.508
  567KAXM    H8 3963   2.100   5.392   4.817
  567KAXM    O2 3964   2.194   5.430   4.811
  567KAXM    C3 3965   2.290   5.325   4.794
  567KAXM    C2 3966   2.359   5.291   4.925
  567KAXM    C1 3967   2.485   5.210   4.901
  567KAXM    O1 3968   2.551   5.186   5.026
  567KAXM    H1 3969   2.645   5.153   5.007
  568KAXM    H8 3970   4.694   0.952   5.323
  568KAXM    O2 3971   4.653   0.959   5.230
  568KAXM    C3 3972   4.687   0.844   5.151
  568KAXM    C2 3973   4.633   0.714   5.210
  568KAXM    C1 3974   4.675   0.594   5.128
  568KAXM    O1 3975   4.633   0.473   5.194
  568KAXM    H1 3976   4.631   0.399   5.127
  569KAXM    H8 3977   3.602   0.645   1.887
  569KAXM    O2 3978   3.649   0.562   1.923
  569KAXM    C3 3979   3.719   0.495   1.817
  569KAXM    C2 3980   3.797   0.588   1.725
  569KAXM    C1 3981   3.838   0.513   1.599
  569KAXM    O1 3982   3.897   0.597   1.499
  569KAXM    H1 3983   3.875   0.557   1.408
  570KAXM    H8 3984   2.053   3.414   2.787
  570KAXM    O2 3985   2.119   3.338   2.789
  570KAXM    C3 3986   2.208   3.345   2.676
  570KAXM    C2 3987   2.149   3.298   2.544
  570KAXM    C1 3988   2.256   3.310   2.436
  570KAXM    O1 3989   2.206   3.277   2.305
  570KAXM    H1 3990   2.229   3.181   2.283
  571KAXM    H8 3991   1.302   0.364   5.044
  571KAXM    O2 3992   1.290   0.463   5.067
  571KAXM    C3 3993   1.256   0.536   4.948
  571KAXM    C2 3994   1.317   0.676   4.947
  571KAXM    C1 3995   1.251   0.758   4.838
  571KAXM    O1 3996   1.309   0.888   4.824
  571KAXM    H1 3997   1.307   0.941   4.909
  572KAXM    H8 3998   5.279   3.348   3.121
  572KAXM    O2 3999   5.278   3.351   3.222
  572KAXM    C3 4000   5.409   3.395   3.263
  572KAXM    C2 4001   5.428   3.407   3.413
  572KAXM    C1 4002   5.577   3.402   3.446
  572KAXM    O1 4003   5.640   3.530   3.457
  572KAXM    H1 4004   5.650   3.579   3.369
  573KAXM    H8 4005   1.033   3.245   0.080
  573KAXM    O2 4006   1.025   3.151   0.042
  573KAXM    C3 4007   1.038   3.154   5.899
  573KAXM    C2 4008   0.945   3.052   5.835
  573KAXM    C1 4009   0.959   3.053   5.683
  573KAXM    O1 4010   0.865   2.964   5.621
  573KAXM    H1 4011   0.843   2.995   5.530
  574KAXM    H8 4012   2.245   5.549   1.266
  574KAXM    O2 4013   2.326   5.501   1.228
  574KAXM    C3 4014   2.286   5.402   1.132
  574KAXM    C2 4015   2.271   5.460   0.992
  574KAXM    C1 4016   2.303   5.356   0.885
  574KAXM    O1 4017   2.446   5.337   0.869
  574KAXM    H1 4018   2.462   5.246   0.828
  575KAXM    H8 4019   4.292   5.704   1.643
  575KAXM    O2 4020   4.293   5.763   1.562
  575KAXM    C3 4021   4.272   5.681   1.446
  575KAXM    C2 4022   4.129   5.631   1.438
  575KAXM    C1 4023   4.112   5.547   1.312
  575KAXM    O1 4024   3.980   5.491   1.307
  575KAXM    H1 4025   3.958   5.471   1.210
  576KAXM    H8 4026   3.933   2.381   5.365
  576KAXM    O2 4027   3.918   2.281   5.350
  576KAXM    C3 4028   3.816   2.240   5.443
  576KAXM    C2 4029   3.870   2.231   5.585
  576KAXM    C1 4030   3.756   2.208   5.684
  576KAXM    O1 4031   3.802   2.225   5.819
  576KAXM    H1 4032   3.723   2.210   5.883
  577KAXM    H8 4033   3.350   5.405   3.324
  577KAXM    O2 4034   3.273   5.453   3.280
  577KAXM    C3 4035   3.314   5.589   3.254
  577KAXM    C2 4036   3.196   5.685   3.249
  577KAXM    C1 4037   3.133   5.703   3.387
  577KAXM    O1 4038   3.027   5.800   3.384
  577KAXM    H1 4039   3.001   5.825   3.480
  578KAXM    H8 4040   0.506   1.445   3.125
  578KAXM    O2 4041   0.591   1.492   3.096
  578KAXM    C3 4042   0.565   1.586   2.991
  578KAXM    C2 4043   0.507   1.718   3.039
  578KAXM    C1 4044   0.362   1.706   3.085
  578KAXM    O1 4045   0.307   1.829   3.138
  578KAXM    H1 4046   0.378   1.876   3.192
  579KAXM    H8 4047   4.860   3.498   0.234
  579KAXM    O2 4048   4.923   3.459   0.298
  579KAXM    C3 4049   4.967   3.331   0.251
  579KAXM    C2 4050   4.997   3.237   0.367
  579KAXM    C1 4051   5.044   3.102   0.315
  579KAXM    O1 4052   4.943   3.033   0.240
  579KAXM    H1 4053   4.989   2.971   0.174
  580KAXM    H8 4054   2.594   0.641   1.791
  580KAXM    O2 4055   2.587   0.677   1.885
  580KAXM    C3 4056   2.676   0.790   1.899
  580KAXM    C2 4057   2.657   0.861   2.033
  580KAXM    C1 4058   2.712   0.781   2.151
  580KAXM    O1 4059   2.845   0.819   2.193
  580KAXM    H1 4060   2.889   0.872   2.119
  581KAXM    H8 4061   2.011   1.730   5.350
  581KAXM    O2 4062   1.935   1.711   5.287
  581KAXM    C3 4063   1.941   1.577   5.236
  581KAXM    C2 4064   1.823   1.557   5.142
  581KAXM    C1 4065   1.820   1.422   5.072
  581KAXM    O1 4066   1.700   1.410   4.993
  581KAXM    H1 4067   1.715   1.339   4.924
  582KAXM    H8 4068   0.494   2.730   2.880
  582KAXM    O2 4069   0.436   2.807   2.911
  582KAXM    C3 4070   0.334   2.763   3.003
  582KAXM    C2 4071   0.384   2.671   3.113
  582KAXM    C1 4072   0.265   2.611   3.187
  582KAXM    O1 4073   0.304   2.501   3.271
  582KAXM    H1 4074   0.229   2.432   3.270
  583KAXM    H8 4075   2.228   4.346   5.334
  583KAXM    O2 4076   2.216   4.400   5.417
  583KAXM    C3 4077   2.341   4.458   5.458
  583KAXM    C2 4078   2.332   4.531   5.591
  583KAXM    C1 4079   2.473   4.561   5.641
  583KAXM    O1 4080   2.474   4.661   5.744
  583KAXM    H1 4081   2.543   4.634   5.812
  584KAXM    H8 4082   3.833   2.581   0.586
  584KAXM    O2 4083   3.897   2.634   0.642
  584KAXM    C3 4084   3.965   2.547   0.732
  584KAXM    C2 4085   3.870   2.485   0.832
  584KAXM    C1 4086   3.949   2.403   0.931
  584KAXM    O1 4087   3.861   2.325   1.013
  584KAXM    H1 4088   3.900   2.233   1.021
  585KAXM    H8 4089   2.689   5.477   1.350
  585KAXM    O2 4090   2.789   5.496   1.353
  585KAXM    C3 4091   2.858   5.376   1.313
  585KAXM    C2 4092   2.871   5.278   1.429
  585KAXM    C1 4093   2.956   5.339   1.539
  585KAXM    O1 4094   2.972   5.258   1.656
  585KAXM    H1 4095   3.047   5.303   1.709
  586KAXM    H8 4096   2.294   5.006   5.641
  586KAXM    O2 4097   2.226   5.081   5.638
  586KAXM    C3 4098   2.107   5.040   5.706
  586KAXM    C2 4099   2.035   4.928   5.633
  586KAXM    C1 4100   1.897   4.906   5.694
  586KAXM    O1 4101   1.828   4.794   5.635
  586KAXM    H1 4102   1.735   4.787   5.677
  587KAXM    H8 4103   5.530   4.223   2.950
  587KAXM    O2 4104   5.459   4.186   3.011
  587KAXM    C3 4105   5.346   4.274   3.019
  587KAXM    C2 4106   5.262   4.239   3.142
  587KAXM    C1 4107   5.143   4.331   3.158
  587KAXM    O1 4108   5.086   4.317   3.289
  587KAXM    H1 4109   5.021   4.239   3.292
  588KAXM    H8 4110   4.889   5.787   1.932
  588KAXM    O2 4111   4.865   5.885   1.927
  588KAXM    C3 4112   4.968   5.958   1.994
  588KAXM    C2 4113   4.971   5.942   2.145
  588KAXM    C1 4114   5.113   5.959   2.199
  588KAXM    O1 4115   5.173   0.087   2.174
  588KAXM    H1 4116   5.192   0.098   2.074
  589KAXM    H8 4117   0.405   0.487   0.001
  589KAXM    O2 4118   0.365   0.445   5.917
  589KAXM    C3 4119   0.230   0.405   5.944
  589KAXM    C2 4120   0.136   0.480   5.851
  589KAXM    C1 4121   5.994   0.428   5.866
  589KAXM    O1 4122   5.907   0.503   5.780
  589KAXM    H1 4123   5.889   0.594   5.821
  590KAXM    H8 4124   3.009   5.089   4.784
  590KAXM    O2 4125   2.991   5.040   4.872
  590KAXM    C3 4126   3.102   4.951   4.895
  590KAXM    C2 4127   3.138   4.942   5.042
  590KAXM    C1 4128   3.263   4.857   5.063
  590KAXM    O1 4129   3.380   4.922   5.012
  590KAXM    H1 4130   3.435   4.954   5.091
  591KAXM    H8 4131   0.052   5.682   0.620
  591KAXM    O2 4132   0.052   5.752   0.692
  591KAXM    C3 4133   5.934   5.737   0.773
  591KAXM    C2 4134   5.954   5.760   0.922
  591KAXM    C1 4135   5.822   5.733   0.994
  591KAXM    O1 4136   5.830   5.746   1.137
  591KAXM    H1 4137   5.771   5.675   1.179
  592KAXM    H8 4138   4.992   0.470   3.339
  592KAXM    O2 4139   5.064   0.442   3.277
  592KAXM    C3 4140   5.009   0.430   3.144
  592KAXM    C2 4141   5.118   0.435   3.038
  592KAXM    C1 4142   5.064   0.496   2.910
  592KAXM    O1 4143   5.169   0.523   2.815
  592KAXM    H1 4144   5.135   0.594   2.751
  593KAXM    H8 4145   1.536   1.685   2.666
  593KAXM    O2 4146   1.622   1.730   2.639
  593KAXM    C3 4147   1.697   1.636   2.560
  593KAXM    C2 4148   1.713   1.682   2.416
  593KAXM    C1 4149   1.579   1.690   2.344
  593KAXM    O1 4150   1.522   1.560   2.326
  593KAXM    H1 4151   1.433   1.571   2.282
  594KAXM    H8 4152   3.994   4.928   4.325
  594KAXM    O2 4153   3.943   4.918   4.412
  594KAXM    C3 4154   4.025   4.851   4.509
  594KAXM    C2 4155   4.075   4.943   4.620
  594KAXM    C1 4156   3.961   4.993   4.707
  594KAXM    O1 4157   4.009   5.091   4.800
  594KAXM    H1 4158   3.931   5.134   4.848
  595KAXM    H8 4159   3.428   5.014   5.888
  595KAXM    O2 4160   3.357   4.954   5.851
  595KAXM    C3 4161   3.334   4.984   5.713
  595KAXM    C2 4162   3.190   4.957   5.677
  595KAXM    C1 4163   3.165   4.983   5.529
  595KAXM    O1 4164   3.025   4.975   5.500
  595KAXM    H1 4165   2.994   5.063   5.460
  596KAXM    H8 4166   2.698   1.198   1.235
  596KAXM    O2 4167   2.710   1.298   1.247
  596KAXM    C3 4168   2.662   1.340   1.376
  596KAXM    C2 4169   2.739   1.275   1.490
  596KAXM    C1 4170   2.670   1.305   1.623
  596KAXM    O1 4171   2.674   1.192   1.712
  596KAXM    H1 4172   2.657   1.226   1.806
  597KAXM    H8 4173   1.537   2.169   3.463
  597KAXM    O2 4174   1.511   2.130   3.552
  597KAXM    C3 4175   1.544   2.226   3.654
  597KAXM    C2 4176   1.494   2.189   3.791
  597KAXM    C1 4177   1.531   2.296   3.894
  597KAXM    O1 4178   1.482   2.262   4.025
  597KAXM    H1 4179   1.380   2.268   4.024
  598KAXM    H8 4180   0.142   1.815   5.976
  598KAXM    O2 4181   0.198   1.877   5.919
  598KAXM    C3 4182   0.114   1.981   5.866
  598KAXM    C2 4183   0.199   2.089   5.802
  598KAXM    C1 4184   0.113   2.187   5.724
  598KAXM    O1 4185   0.193   2.295   5.673
  598KAXM    H1 4186   0.242   2.266   5.591
  599KAXM    H8 4187   0.308   0.748   0.677
  599KAXM    O2 4188   0.225   0.744   0.617
  599KAXM    C3 4189   0.247   0.834   0.507
  599KAXM    C2 4190   0.121   0.854   0.425
  599KAXM    C1 4191   0.157   0.936   0.302
  599KAXM    O1 4192   0.039   0.979   0.233
  599KAXM    H1 4193   0.049   1.077   0.212
  600KAXM    H8 4194   4.708   4.633   4.969
  600KAXM    O2 4195   4.607   4.624   4.965
  600KAXM    C3 4196   4.578   4.484   4.949
  600KAXM    C2 4197   4.437   4.459   4.900
  600KAXM    C1 4198   4.416   4.502   4.755
  600KAXM    O1 4199   4.298   4.442   4.698
  600KAXM    H1 4200   4.307   4.341   4.708
  601KAXM    H8 4201   4.684   4.700   2.674
  601KAXM    O2 4202   4.609   4.765   2.695
  601KAXM    C3 4203   4.544   4.715   2.813
  601KAXM    C2 4204   4.456   4.594   2.785
  601KAXM    C1 4205   4.458   4.496   2.901
  601KAXM    O1 4206   4.565   4.400   2.890
  601KAXM    H1 4207   4.540   4.331   2.820
  602KAXM    H8 4208   5.156   2.902   2.128
  602KAXM    O2 4209   5.116   2.997   2.125
  602KAXM    C3 4210   4.978   2.981   2.084
  602KAXM    C2 4211   4.912   3.114   2.055
  602KAXM    C1 4212   4.764   3.096   2.027
  602KAXM    O1 4213   4.708   3.224   1.993
  602KAXM    H1 4214   4.725   3.289   2.068
  603KAXM    H8 4215   3.879   3.488   4.824
  603KAXM    O2 4216   3.787   3.513   4.790
  603KAXM    C3 4217   3.778   3.655   4.774
  603KAXM    C2 4218   3.649   3.705   4.837
  603KAXM    C1 4219   3.629   3.853   4.811
  603KAXM    O1 4220   3.512   3.901   4.879
  603KAXM    H1 4221   3.464   3.968   4.822
  604KAXM    H8 4222   5.972   3.494   2.231
  604KAXM    O2 4223   0.066   3.478   2.200
  604KAXM    C3 4224   0.116   3.357   2.258
  604KAXM    C2 4225   0.013   3.246   2.249
  604KAXM    C1 4226   0.059   3.125   2.329
  604KAXM    O1 4227   5.946   3.054   2.381
  604KAXM    H1 4228   5.918   2.980   2.318
  605KAXM    H8 4229   5.224   1.790   1.281
  605KAXM    O2 4230   5.216   1.852   1.202
  605KAXM    C3 4231   5.181   1.984   1.244
  605KAXM    C2 4232   5.121   2.063   1.128
  605KAXM    C1 4233   5.052   2.186   1.183
  605KAXM    O1 4234   4.973   2.253   1.084
  605KAXM    H1 4235   5.035   2.310   1.026
  606KAXM    H8 4236   2.569   2.340   3.933
  606KAXM    O2 4237   2.545   2.269   3.866
  606KAXM    C3 4238   2.440   2.183   3.915
  606KAXM    C2 4239   2.480   2.095   4.033
  606KAXM    C1 4240   2.486   2.174   4.163
  606KAXM    O1 4241   2.360   2.233   4.199
  606KAXM    H1 4242   2.340   2.311   4.138
  607KAXM    H8 4243   0.252   3.376   1.785
  607KAXM    O2 4244   0.332   3.352   1.843
  607KAXM    C3 4245   0.288   3.253   1.938
  607KAXM    C2 4246   0.333   3.112   1.902
  607KAXM    C1 4247   0.258   3.011   1.987
  607KAXM    O1 4248   0.280   2.874   1.945
  607KAXM    H1 4249   0.253   2.865   1.849
  608KAXM    H8 4250   1.776   5.389   0.574
  608KAXM    O2 4251   1.747   5.484   0.567
  608KAXM    C3 4252   1.862   5.556   0.519
  608KAXM    C2 4253   1.954   5.470   0.434
  608KAXM    C1 4254   2.003   5.348   0.512
  608KAXM    O1 4255   1.892   5.262   0.546
  608KAXM    H1 4256   1.864   5.215   0.460
  609KAXM    H8 4257   0.655   2.035   0.700
  609KAXM    O2 4258   0.672   2.057   0.794
  609KAXM    C3 4259   0.547   2.073   0.863
  609KAXM    C2 4260   0.572   2.130   1.002
  609KAXM    C1 4261   0.445   2.155   1.082
  609KAXM    O1 4262   0.476   2.229   1.201
  609KAXM    H1 4263   0.426   2.316   1.200
  610KAXM    H8 4264   5.546   5.098   3.952
  610KAXM    O2 4265   5.464   5.157   3.955
  610KAXM    C3 4266   5.469   5.243   3.839
  610KAXM    C2 4267   5.480   5.164   3.709
  610KAXM    C1 4268   5.525   5.252   3.593
  610KAXM    O1 4269   5.553   5.175   3.475
  610KAXM    H1 4270   5.469   5.130   3.440
  611KAXM    H8 4271   4.806   4.045   0.388
  611KAXM    O2 4272   4.831   3.953   0.356
  611KAXM    C3 4273   4.878   3.955   0.220
  611KAXM    C2 4274   5.000   3.865   0.199
  611KAXM    C1 4275   5.049   3.875   0.056
  611KAXM    O1 4276   5.190   3.849   0.042
  611KAXM    H1 4277   5.240   3.934   0.069
  612KAXM    H8 4278   0.149   0.849   4.415
  612KAXM    O2 4279   0.144   0.788   4.335
  612KAXM    C3 4280   0.149   0.649   4.371
  612KAXM    C2 4281   0.288   0.607   4.415
  612KAXM    C1 4282   0.297   0.456   4.427
  612KAXM    O1 4283   0.420   0.417   4.490
  612KAXM    H1 4284   0.495   0.429   4.423
  613KAXM    H8 4285   5.624   5.976   0.022
  613KAXM    O2 4286   5.595   5.915   0.096
  613KAXM    C3 4287   5.693   5.923   0.201
  613KAXM    C2 4288   5.635   5.878   0.334
  613KAXM    C1 4289   5.742   5.875   0.442
  613KAXM    O1 4290   5.691   5.815   0.562
  613KAXM    H1 4291   5.618   5.874   0.601
  614KAXM    H8 4292   2.810   3.824   0.256
  614KAXM    O2 4293   2.770   3.880   0.184
  614KAXM    C3 4294   2.735   3.793   0.075
  614KAXM    C2 4295   2.634   3.851   5.978
  614KAXM    C1 4296   2.565   3.740   5.899
  614KAXM    O1 4297   2.474   3.664   5.981
  614KAXM    H1 4298   2.465   3.570   5.944
  615KAXM    H8 4299   2.556   4.387   4.017
  615KAXM    O2 4300   2.646   4.400   3.974
  615KAXM    C3 4301   2.630   4.441   3.837
  615KAXM    C2 4302   2.555   4.573   3.818
  615KAXM    C1 4303   2.535   4.596   3.669
  615KAXM    O1 4304   2.465   4.718   3.638
  615KAXM    H1 4305   2.528   4.775   3.582
  616KAXM    H8 4306   3.156   3.748   1.980
  616KAXM    O2 4307   3.072   3.694   1.961
  616KAXM    C3 4308   3.008   3.665   2.085
  616KAXM    C2 4309   2.966   3.793   2.155
  616KAXM    C1 4310   2.884   3.767   2.280
  616KAXM    O1 4311   2.850   3.892   2.343
  616KAXM    H1 4312   2.796   3.875   2.428
  617KAXM    H8 4313   2.551   2.356   2.750
  617KAXM    O2 4314   2.557   2.458   2.750
  617KAXM    C3 4315   2.560   2.509   2.885
  617KAXM    C2 4316   2.624   2.413   2.986
  617KAXM    C1 4317   2.614   2.464   3.130
  617KAXM    O1 4318   2.681   2.374   3.221
  617KAXM    H1 4319   2.666   2.405   3.316
  618KAXM    H8 4320   5.616   4.069   4.976
  618KAXM    O2 4321   5.577   3.999   4.915
  618KAXM    C3 4322   5.633   3.872   4.951
  618KAXM    C2 4323   5.573   3.829   5.084
  618KAXM    C1 4324   5.615   3.689   5.124
  618KAXM    O1 4325   5.545   3.653   5.243
  618KAXM    H1 4326   5.595   3.579   5.291
  619KAXM    H8 4327   4.442   2.724   1.784
  619KAXM    O2 4328   4.506   2.649   1.760
  619KAXM    C3 4329   4.533   2.650   1.619
  619KAXM    C2 4330   4.679   2.681   1.591
  619KAXM    C1 4331   4.704   2.690   1.441
  619KAXM    O1 4332   4.840   2.727   1.408
  619KAXM    H1 4333   4.850   2.729   1.307
  620KAXM    H8 4334   5.766   3.505   2.355
  620KAXM    O2 4335   5.829   3.520   2.277
  620KAXM    C3 4336   5.771   3.617   2.187
  620KAXM    C2 4337   5.802   3.759   2.231
  620KAXM    C1 4338   5.950   3.787   2.219
  620KAXM    O1 4339   5.984   3.917   2.270
  620KAXM    H1 4340   5.980   3.980   2.192
  621KAXM    H8 4341   3.033   1.407   5.116
  621KAXM    O2 4342   2.933   1.413   5.103
  621KAXM    C3 4343   2.894   1.331   4.991
  621KAXM    C2 4344   2.802   1.405   4.895
  621KAXM    C1 4345   2.878   1.511   4.815
  621KAXM    O1 4346   2.789   1.610   4.759
  621KAXM    H1 4347   2.733   1.567   4.686
  622KAXM    H8 4348   1.036   5.737   4.234
  622KAXM    O2 4349   0.957   5.718   4.295
  622KAXM    C3 4350   0.848   5.803   4.257
  622KAXM    C2 4351   0.749   5.733   4.166
  622KAXM    C1 4352   0.624   5.819   4.152
  622KAXM    O1 4353   0.513   5.744   4.103
  622KAXM    H1 4354   0.444   5.733   4.175
  623KAXM    H8 4355   5.177   5.959   3.822
  623KAXM    O2 4356   5.117   5.915   3.755
  623KAXM    C3 4357   4.989   5.885   3.813
  623KAXM    C2 4358   4.890   5.843   3.705
  623KAXM    C1 4359   4.753   5.804   3.760
  623KAXM    O1 4360   4.667   5.755   3.655
  623KAXM    H1 4361   4.577   5.728   3.693
  624KAXM    H8 4362   4.840   5.146   2.071
  624KAXM    O2 4363   4.831   5.078   1.996
  624KAXM    C3 4364   4.875   4.947   2.036
  624KAXM    C2 4365   4.824   4.903   2.173
  624KAXM    C1 4366   4.672   4.907   2.183
  624KAXM    O1 4367   4.622   4.834   2.298
  624KAXM    H1 4368   4.642   4.885   2.383
  625KAXM    H8 4369   4.513   4.058   0.554
  625KAXM    O2 4370   4.549   4.146   0.593
  625KAXM    C3 4371   4.447   4.203   0.677
  625KAXM    C2 4372   4.510   4.283   0.789
  625KAXM    C1 4373   4.408   4.335   0.889
  625KAXM    O1 4374   4.477   4.397   0.999
  625KAXM    H1 4375   4.413   4.432   1.069
  626KAXM    H8 4376   4.332   0.415   3.385
  626KAXM    O2 4377   4.241   0.451   3.405
  626KAXM    C3 4378   4.194   0.385   3.523
  626KAXM    C2 4379   4.298   0.407   3.630
  626KAXM    C1 4380   4.273   0.327   3.756
  626KAXM    O1 4381   4.369   0.367   3.855
  626KAXM    H1 4382   4.462   0.338   3.826
  627KAXM    H8 4383   3.516   4.166   4.771
  627KAXM    O2 4384   3.589   4.232   4.781
  627KAXM    C3 4385   3.554   4.325   4.884
  627KAXM    C2 4386   3.445   4.417   4.830
  627KAXM    C1 4387   3.370   4.488   4.940
  627KAXM    O1 4388   3.263   4.564   4.882
  627KAXM    H1 4389   3.175   4.526   4.910
  628KAXM    H8 4390   1.215   3.977   1.032
  628KAXM    O2 4391   1.122   3.956   1.001
  628KAXM    C3 4392   1.066   4.074   0.942
  628KAXM    C2 4393   0.994   4.040   0.812
  628KAXM    C1 4394   0.900   4.152   0.770
  628KAXM    O1 4395   0.837   4.122   0.645
  628KAXM    H1 4396   0.907   4.113   0.573
  629KAXM    H8 4397   4.373   4.872   0.127
  629KAXM    O2 4398   4.456   4.886   0.182
  629KAXM    C3 4399   4.428   4.859   0.320
  629KAXM    C2 4400   4.531   4.925   0.410
  629KAXM    C1 4401   4.507   4.905   0.558
  629KAXM    O1 4402   4.373   4.928   0.602
  629KAXM    H1 4403   4.348   4.853   0.663
  630KAXM    H8 4404   0.063   3.194   2.672
  630KAXM    O2 4405   0.077   3.290   2.683
  630KAXM    C3 4406   5.949   3.352   2.708
  630KAXM    C2 4407   5.883   3.392   2.578
  630KAXM    C1 4408   5.750   3.462   2.600
  630KAXM    O1 4409   5.680   3.482   2.476
  630KAXM    H1 4410   5.581   3.473   2.493
  631KAXM    H8 4411   0.706   4.055   2.546
  631KAXM    O2 4412   0.805   4.071   2.551
  631KAXM    C3 4413   0.847   4.041   2.685
  631KAXM    C2 4414   0.840   4.165   2.773
  631KAXM    C1 4415   0.890   4.134   2.913
  631KAXM    O1 4416   0.912   4.258   2.984
  631KAXM    H1 4417   0.846   4.264   3.061
  632KAXM    H8 4418   5.570   2.276   4.810
  632KAXM    O2 4419   5.646   2.291   4.744
  632KAXM    C3 4420   5.590   2.275   4.612
  632KAXM    C2 4421   5.690   2.224   4.510
  632KAXM    C1 4422   5.622   2.206   4.374
  632KAXM    O1 4423   5.701   2.128   4.282
  632KAXM    H1 4424   5.790   2.173   4.268
  633KAXM    H8 4425   1.166   2.907   0.176
  633KAXM    O2 4426   1.244   2.849   0.145
  633KAXM    C3 4427   1.246   2.843   0.002
  633KAXM    C2 4428   1.155   2.731   5.954
  633KAXM    C1 4429   1.162   2.709   5.803
  633KAXM    O1 4430   1.108   2.579   5.771
  633KAXM    H1 4431   1.183   2.514   5.759
  634KAXM    H8 4432   1.677   3.833   1.885
  634KAXM    O2 4433   1.701   3.776   1.804
  634KAXM    C3 4434   1.724   3.643   1.854
  634KAXM    C2 4435   1.591   3.571   1.870
  634KAXM    C1 4436   1.602   3.448   1.960
  634KAXM    O1 4437   1.481   3.370   1.951
  634KAXM    H1 4438   1.424   3.383   2.034
  635KAXM    H8 4439   1.668   1.019   1.521
  635KAXM    O2 4440   1.724   0.935   1.529
  635KAXM    C3 4441   1.863   0.969   1.507
  635KAXM    C2 4442   1.885   0.995   1.359
  635KAXM    C1 4443   2.026   1.038   1.323
  635KAXM    O1 4444   2.034   1.074   1.184
  635KAXM    H1 4445   2.066   1.167   1.181
  636KAXM    H8 4446   5.294   1.518   1.930
  636KAXM    O2 4447   5.340   1.536   1.845
  636KAXM    C3 4448   5.243   1.585   1.752
  636KAXM    C2 4449   5.303   1.621   1.616
  636KAXM    C1 4450   5.192   1.675   1.526
  636KAXM    O1 4451   5.229   1.683   1.388
  636KAXM    H1 4452   5.217   1.594   1.345
  637KAXM    H8 4453   0.624   4.448   1.010
  637KAXM    O2 4454   0.562   4.527   0.996
  637KAXM    C3 4455   0.531   4.539   0.856
  637KAXM    C2 4456   0.466   4.674   0.828
  637KAXM    C1 4457   0.451   4.698   0.678
  637KAXM    O1 4458   0.436   4.839   0.653
  637KAXM    H1 4459   0.350   4.856   0.604
  638KAXM    H8 4460   5.457   2.191   3.560
  638KAXM    O2 4461   5.547   2.177   3.516
  638KAXM    C3 4462   5.521   2.151   3.377
  638KAXM    C2 4463   5.584   2.024   3.320
  638KAXM    C1 4464   5.735   2.033   3.300
  638KAXM    O1 4465   5.783   1.919   3.226
  638KAXM    H1 4466   5.881   1.923   3.211
  639KAXM    H8 4467   1.024   4.637   5.994
  639KAXM    O2 4468   1.116   4.660   0.029
  639KAXM    C3 4469   1.116   4.799   0.067
  639KAXM    C2 4470   1.112   4.893   5.947
  639KAXM    C1 4471   1.093   5.038   5.991
  639KAXM    O1 4472   1.202   5.092   0.068
  639KAXM    H1 4473   1.202   5.192   0.049
  640KAXM    H8 4474   5.446   2.512   2.480
  640KAXM    O2 4475   5.346   2.523   2.491
  640KAXM    C3 4476   5.318   2.592   2.614
  640KAXM    C2 4477   5.173   2.641   2.621
  640KAXM    C1 4478   5.149   2.717   2.750
  640KAXM    O1 4479   5.021   2.783   2.755
  640KAXM    H1 4480   5.030   2.877   2.723
  641KAXM    H8 4481   4.424   0.931   3.185
  641KAXM    O2 4482   4.444   0.849   3.241
  641KAXM    C3 4483   4.554   0.777   3.187
  641KAXM    C2 4484   4.525   0.728   3.046
  641KAXM    C1 4485   4.648   0.666   2.981
  641KAXM    O1 4486   4.752   0.762   2.955
  641KAXM    H1 4487   4.803   0.731   2.876
  642KAXM    H8 4488   1.929   1.931   5.021
  642KAXM    O2 4489   1.988   1.960   4.945
  642KAXM    C3 4490   1.925   1.926   4.820
  642KAXM    C2 4491   1.984   2.003   4.703
  642KAXM    C1 4492   2.116   1.944   4.653
  642KAXM    O1 4493   2.095   1.829   4.569
  642KAXM    H1 4494   2.144   1.845   4.482
  643KAXM    H8 4495   4.813   1.740   2.155
  643KAXM    O2 4496   4.736   1.805   2.152
  643KAXM    C3 4497   4.718   1.854   2.018
  643KAXM    C2 4498   4.709   1.739   1.918
  643KAXM    C1 4499   4.718   1.794   1.777
  643KAXM    O1 4500   4.721   1.687   1.681
  643KAXM    H1 4501   4.761   1.723   1.594
  644KAXM    H8 4502   0.262   3.266   5.335
  644KAXM    O2 4503   0.323   3.215   5.273
  644KAXM    C3 4504   0.404   3.126   5.351
  644KAXM    C2 4505   0.553   3.148   5.327
  644KAXM    C1 4506   0.636   3.042   5.398
  644KAXM    O1 4507   0.776   3.051   5.367
  644KAXM    H1 4508   0.793   3.005   5.279
  645KAXM    H8 4509   4.849   3.016   1.282
  645KAXM    O2 4510   4.844   3.018   1.180
  645KAXM    C3 4511   4.938   3.117   1.133
  645KAXM    C2 4512   4.975   3.094   0.987
  645KAXM    C1 4513   4.860   3.125   0.892
  645KAXM    O1 4514   4.901   3.099   0.757
  645KAXM    H1 4515   4.985   3.152   0.737
  646KAXM    H8 4516   2.868   5.078   4.948
  646KAXM    O2 4517   2.786   5.103   5.002
  646KAXM    C3 4518   2.807   5.061   5.138
  646KAXM    C2 4519   2.762   4.917   5.156
  646KAXM    C1 4520   2.781   4.873   5.300
  646KAXM    O1 4521   2.726   4.743   5.319
  646KAXM    H1 4522   2.627   4.743   5.297
  647KAXM    H8 4523   0.724   5.033   5.740
  647KAXM    O2 4524   0.765   5.125   5.756
  647KAXM    C3 4525   0.783   5.186   5.628
  647KAXM    C2 4526   0.902   5.125   5.555
  647KAXM    C1 4527   0.918   5.180   5.414
  647KAXM    O1 4528   1.043   5.138   5.355
  647KAXM    H1 4529   1.112   5.212   5.366
  648KAXM    H8 4530   2.421   4.121   0.337
  648KAXM    O2 4531   2.411   4.179   0.257
  648KAXM    C3 4532   2.519   4.155   0.167
  648KAXM    C2 4533   2.523   4.258   0.055
  648KAXM    C1 4534   2.637   4.227   5.959
  648KAXM    O1 4535   2.645   4.325   5.854
  648KAXM    H1 4536   2.627   4.281   5.765
  649KAXM    H8 4537   3.592   2.562   2.506
  649KAXM    O2 4538   3.545   2.483   2.464
  649KAXM    C3 4539   3.435   2.448   2.548
  649KAXM    C2 4540   3.342   2.346   2.485
  649KAXM    C1 4541   3.244   2.303   2.592
  649KAXM    O1 4542   3.135   2.226   2.540
  649KAXM    H1 4543   3.086   2.183   2.618
  650KAXM    H8 4544   0.389   5.712   5.770
  650KAXM    O2 4545   0.445   5.645   5.718
  650KAXM    C3 4546   0.374   5.520   5.717
  650KAXM    C2 4547   0.455   5.411   5.648
  650KAXM    C1 4548   0.378   5.279   5.649
  650KAXM    O1 4549   0.451   5.177   5.580
  650KAXM    H1 4550   0.419   5.170   5.484
  651KAXM    H8 4551   3.872   4.789   1.086
  651KAXM    O2 4552   3.905   4.696   1.062
  651KAXM    C3 4553   3.892   4.682   0.919
  651KAXM    C2 4554   4.015   4.622   0.852
  651KAXM    C1 4555   4.013   4.645   0.702
  651KAXM    O1 4556   4.136   4.604   0.641
  651KAXM    H1 4557   4.214   4.649   0.685
  652KAXM    H8 4558   0.315   0.945   4.504
  652KAXM    O2 4559   0.411   0.916   4.505
  652KAXM    C3 4560   0.477   0.982   4.395
  652KAXM    C2 4561   0.523   0.886   4.286
  652KAXM    C1 4562   0.630   0.791   4.341
  652KAXM    O1 4563   0.674   0.695   4.243
  652KAXM    H1 4564   0.740   0.740   4.185
  653KAXM    H8 4565   5.968   2.603   4.012
  653KAXM    O2 4566   0.022   2.577   4.092
  653KAXM    C3 4567   0.153   2.532   4.053
  653KAXM    C2 4568   0.239   2.488   4.173
  653KAXM    C1 4569   0.263   2.598   4.276
  653KAXM    O1 4570   0.259   2.543   4.408
  653KAXM    H1 4571   0.275   2.612   4.479
  654KAXM    H8 4572   3.324   0.216   2.092
  654KAXM    O2 4573   3.257   0.238   2.020
  654KAXM    C3 4574   3.194   0.362   2.056
  654KAXM    C2 4575   3.116   0.416   1.939
  654KAXM    C1 4576   3.061   0.553   1.971
  654KAXM    O1 4577   2.962   0.589   1.874
  654KAXM    H1 4578   2.975   0.686   1.850
  655KAXM    H8 4579   5.735   0.726   5.517
  655KAXM    O2 4580   5.791   0.791   5.572
  655KAXM    C3 4581   5.927   0.771   5.530
  655KAXM    C2 4582   0.028   0.856   5.605
  655KAXM    C1 4583   0.167   0.833   5.548
  655KAXM    O1 4584   0.247   0.952   5.560
  655KAXM    H1 4585   0.331   0.931   5.611
  656KAXM    H8 4586   4.594   3.974   5.067
  656KAXM    O2 4587   4.670   3.915   5.037
  656KAXM    C3 4588   4.640   3.778   5.070
  656KAXM    C2 4589   4.760   3.708   5.133
  656KAXM    C1 4590   4.740   3.559   5.159
  656KAXM    O1 4591   4.850   3.504   5.233
  656KAXM    H1 4592   4.817   3.468   5.322
  657KAXM    H8 4593   4.656   2.913   0.169
  657KAXM    O2 4594   4.623   2.873   0.082
  657KAXM    C3 4595   4.724   2.895   5.983
  657KAXM    C2 4596   4.699   2.814   5.857
  657KAXM    C1 4597   4.766   2.882   5.738
  657KAXM    O1 4598   4.695   2.852   5.617
  657KAXM    H1 4599   4.605   2.897   5.617
  658KAXM    H8 4600   2.953   4.861   5.569
  658KAXM    O2 4601   2.927   4.778   5.622
  658KAXM    C3 4602   2.798   4.796   5.683
  658KAXM    C2 4603   2.799   4.898   5.797
  658KAXM    C1 4604   2.662   4.902   5.864
  658KAXM    O1 4605   2.650   5.005   5.963
  658KAXM    H1 4606   2.634   4.964   0.055
  659KAXM    H8 4607   5.319   4.163   2.487
  659KAXM    O2 4608   5.289   4.070   2.517
  659KAXM    C3 4609   5.394   3.978   2.482
  659KAXM    C2 4610   5.341   3.838   2.452
  659KAXM    C1 4611   5.427   3.766   2.349
  659KAXM    O1 4612   5.376   3.636   2.314
  659KAXM    H1 4613   5.413   3.613   2.221
  660KAXM    H8 4614   0.604   0.212   0.341
  660KAXM    O2 4615   0.533   0.207   0.408
  660KAXM    C3 4616   0.549   0.092   0.493
  660KAXM    C2 4617   0.556   0.131   0.641
  660KAXM    C1 4618   0.691   0.190   0.680
  660KAXM    O1 4619   0.789   0.090   0.715
  660KAXM    H1 4620   0.802   0.022   0.642
  661KAXM    H8 4621   3.843   2.373   5.872
  661KAXM    O2 4622   3.869   2.464   5.905
  661KAXM    C3 4623   4.008   2.484   5.874
  661KAXM    C2 4624   4.026   2.533   5.732
  661KAXM    C1 4625   4.172   2.519   5.692
  661KAXM    O1 4626   4.189   2.514   5.549
  661KAXM    H1 4627   4.287   2.494   5.536
  662KAXM    H8 4628   5.646   5.632   5.731
  662KAXM    O2 4629   5.582   5.687   5.680
  662KAXM    C3 4630   5.518   5.599   5.585
  662KAXM    C2 4631   5.431   5.675   5.486
  662KAXM    C1 4632   5.383   5.584   5.374
  662KAXM    O1 4633   5.313   5.657   5.272
  662KAXM    H1 4634   5.372   5.727   5.229
  663KAXM    H8 4635   3.772   0.998   3.466
  663KAXM    O2 4636   3.753   1.096   3.449
  663KAXM    C3 4637   3.853   1.175   3.515
  663KAXM    C2 4638   3.817   1.198   3.661
  663KAXM    C1 4639   3.908   1.301   3.727
  663KAXM    O1 4640   3.859   1.344   3.855
  663KAXM    H1 4641   3.859   1.266   3.920
  664KAXM    H8 4642   0.210   3.468   0.347
  664KAXM    O2 4643   0.306   3.497   0.337
  664KAXM    C3 4644   0.390   3.381   0.322
  664KAXM    C2 4645   0.443   3.333   0.457
  664KAXM    C1 4646   0.538   3.217   0.435
  664KAXM    O1 4647   0.580   3.157   0.559
  664KAXM    H1 4648   0.599   3.058   0.540
  665KAXM    H8 4649   3.051   4.400   0.251
  665KAXM    O2 4650   3.147   4.388   0.225
  665KAXM    C3 4651   3.181   4.250   0.240
  665KAXM    C2 4652   3.084   4.161   0.164
  665KAXM    C1 4653   3.127   4.016   0.172
  665KAXM    O1 4654   3.134   3.955   0.041
  665KAXM    H1 4655   3.130   3.855   0.054
  666KAXM    H8 4656   5.134   1.236   3.850
  666KAXM    O2 4657   5.193   1.263   3.771
  666KAXM    C3 4658   5.109   1.323   3.671
  666KAXM    C2 4659   5.130   1.473   3.660
  666KAXM    C1 4660   5.048   1.525   3.543
  666KAXM    O1 4661   5.102   1.487   3.415
  666KAXM    H1 4662   5.172   1.554   3.389
  667KAXM    H8 4663   2.275   1.200   2.724
  667KAXM    O2 4664   2.190   1.213   2.671
  667KAXM    C3 4665   2.128   1.336   2.712
  667KAXM    C2 4666   1.982   1.339   2.669
  667KAXM    C1 4667   1.895   1.402   2.776
  667KAXM    O1 4668   1.764   1.343   2.774
  667KAXM    H1 4669   1.774   1.244   2.793
  668KAXM    H8 4670   1.882   3.574   2.867
  668KAXM    O2 4671   1.947   3.544   2.796
  668KAXM    C3 4672   2.000   3.663   2.734
  668KAXM    C2 4673   1.916   3.712   2.617
  668KAXM    C1 4674   1.956   3.854   2.578
  668KAXM    O1 4675   1.885   3.900   2.462
  668KAXM    H1 4676   1.824   3.977   2.486
  669KAXM    H8 4677   2.623   5.320   4.531
  669KAXM    O2 4678   2.653   5.415   4.516
  669KAXM    C3 4679   2.688   5.476   4.642
  669KAXM    C2 4680   2.735   5.619   4.617
  669KAXM    C1 4681   2.807   5.681   4.736
  669KAXM    O1 4682   2.857   5.812   4.703
  669KAXM    H1 4683   2.936   5.800   4.646
  670KAXM    H8 4684   0.327   0.370   3.809
  670KAXM    O2 4685   0.259   0.375   3.736
  670KAXM    C3 4686   0.168   0.263   3.743
  670KAXM    C2 4687   0.069   0.275   3.629
  670KAXM    C1 4688   5.999   0.145   3.593
  670KAXM    O1 4689   5.961   0.150   3.453
  670KAXM    H1 4690   5.861   0.153   3.446
  671KAXM    H8 4691   2.767   0.137   4.769
  671KAXM    O2 4692   2.775   0.220   4.710
  671KAXM    C3 4693   2.770   0.170   4.574
  671KAXM    C2 4694   2.899   0.190   4.497
  671KAXM    C1 4695   2.911   0.329   4.436
  671KAXM    O1 4696   3.045   0.355   4.392
  671KAXM    H1 4697   3.074   0.285   4.325
  672KAXM    H8 4698   3.154   3.575   5.233
  672KAXM    O2 4699   3.089   3.642   5.196
  672KAXM    C3 4700   2.967   3.632   5.270
  672KAXM    C2 4701   2.883   3.757   5.258
  672KAXM    C1 4702   2.770   3.746   5.358
  672KAXM    O1 4703   2.685   3.862   5.357
  672KAXM    H1 4704   2.741   3.943   5.381
  673KAXM    H8 4705   0.357   2.881   2.805
  673KAXM    O2 4706   0.305   2.919   2.727
  673KAXM    C3 4707   0.352   3.053   2.704
  673KAXM    C2 4708   0.375   3.079   2.556
  673KAXM    C1 4709   0.479   2.982   2.500
  673KAXM    O1 4710   0.484   2.989   2.357
  673KAXM    H1 4711   0.515   2.900   2.320
  674KAXM    H8 4712   1.780   4.349   4.404
  674KAXM    O2 4713   1.782   4.450   4.409
  674KAXM    C3 4714   1.893   4.485   4.493
  674KAXM    C2 4715   1.983   4.585   4.424
  674KAXM    C1 4716   2.112   4.605   4.504
  674KAXM    O1 4717   2.200   4.701   4.442
  674KAXM    H1 4718   2.185   4.792   4.486
  675KAXM    H8 4719   1.690   2.527   3.630
  675KAXM    O2 4720   1.591   2.541   3.639
  675KAXM    C3 4721   1.535   2.600   3.522
  675KAXM    C2 4722   1.382   2.596   3.528
  675KAXM    C1 4723   1.320   2.688   3.423
  675KAXM    O1 4724   1.177   2.680   3.415
  675KAXM    H1 4725   1.147   2.702   3.322
  676KAXM    H8 4726   5.839   2.328   2.298
  676KAXM    O2 4727   5.800   2.340   2.390
  676KAXM    C3 4728   5.887   2.275   2.485
  676KAXM    C2 4729   5.863   2.319   2.628
  676KAXM    C1 4730   5.946   2.236   2.725
  676KAXM    O1 4731   5.922   2.277   2.860
  676KAXM    H1 4732   0.005   2.271   2.914
  677KAXM    H8 4733   5.012   2.317   5.168
  677KAXM    O2 4734   5.091   2.313   5.104
  677KAXM    C3 4735   5.049   2.360   4.976
  677KAXM    C2 4736   5.020   2.509   4.971
  677KAXM    C1 4737   4.934   2.536   4.848
  677KAXM    O1 4738   4.921   2.675   4.819
  677KAXM    H1 4739   4.868   2.723   4.889
  678KAXM    H8 4740   0.643   3.264   5.743
  678KAXM    O2 4741   0.700   3.315   5.809
  678KAXM    C3 4742   0.798   3.393   5.739
  678KAXM    C2 4743   0.781   3.541   5.769
  678KAXM    C1 4744   0.916   3.611   5.765
  678KAXM    O1 4745   0.900   3.754   5.757
  678KAXM    H1 4746   0.991   3.797   5.767
  679KAXM    H8 4747   0.375   0.194   4.758
  679KAXM    O2 4748   0.384   0.093   4.757
  679KAXM    C3 4749   0.365   0.040   4.890
  679KAXM    C2 4750   0.355   0.141   5.004
  679KAXM    C1 4751   0.209   0.171   5.037
  679KAXM    O1 4752   0.193   0.278   5.132
  679KAXM    H1 4753   0.258   0.270   5.209
  680KAXM    H8 4754   3.171   5.501   2.732
  680KAXM    O2 4755   3.182   5.574   2.663
  680KAXM    C3 4756   3.323   5.595   2.644
  680KAXM    C2 4757   3.363   5.581   2.498
  680KAXM    C1 4758   3.312   5.449   2.440
  680KAXM    O1 4759   3.365   5.423   2.309
  680KAXM    H1 4760   3.339   5.497   2.249
  681KAXM    H8 4761   5.216   3.015   2.479
  681KAXM    O2 4762   5.293   2.991   2.538
  681KAXM    C3 4763   5.411   3.057   2.490
  681KAXM    C2 4764   5.534   3.030   2.575
  681KAXM    C1 4765   5.650   3.104   2.510
  681KAXM    O1 4766   5.777   3.071   2.569
  681KAXM    H1 4767   5.847   3.068   2.496
  682KAXM    H8 4768   2.217   0.227   2.806
  682KAXM    O2 4769   2.241   0.132   2.780
  682KAXM    C3 4770   2.272   0.126   2.639
  682KAXM    C2 4771   2.414   0.171   2.609
  682KAXM    C1 4772   2.456   0.137   2.467
  682KAXM    O1 4773   2.594   0.168   2.442
  682KAXM    H1 4774   2.635   0.101   2.377
  683KAXM    H8 4775   5.994   1.679   0.002
  683KAXM    O2 4776   0.072   1.712   0.059
  683KAXM    C3 4777   0.020   1.723   0.193
  683KAXM    C2 4778   5.994   1.868   0.228
  683KAXM    C1 4779   5.933   1.876   0.366
  683KAXM    O1 4780   5.930   2.010   0.417
  683KAXM    H1 4781   0.013   2.021   0.475
  684KAXM    H8 4782   3.694   3.926   2.787
  684KAXM    O2 4783   3.734   3.903   2.697
  684KAXM    C3 4784   3.629   3.899   2.599
  684KAXM    C2 4785   3.653   4.000   2.488
  684KAXM    C1 4786   3.556   3.975   2.374
  684KAXM    O1 4787   3.566   4.075   2.271
  684KAXM    H1 4788   3.608   4.035   2.189
  685KAXM    H8 4789   1.250   1.922   0.557
  685KAXM    O2 4790   1.241   2.019   0.526
  685KAXM    C3 4791   1.326   2.102   0.606
  685KAXM    C2 4792   1.424   2.179   0.519
  685KAXM    C1 4793   1.538   2.230   0.606
  685KAXM    O1 4794   1.638   2.294   0.526
  685KAXM    H1 4795   1.715   2.231   0.509
  686KAXM    H8 4796   0.572   2.193   5.532
  686KAXM    O2 4797   0.649   2.212   5.590
  686KAXM    C3 4798   0.624   2.332   5.665
  686KAXM    C2 4799   0.518   2.312   5.774
  686KAXM    C1 4800   0.484   2.446   5.839
  686KAXM    O1 4801   0.386   2.437   5.944
  686KAXM    H1 4802   0.299   2.474   5.908
  687KAXM    H8 4803   3.963   2.450   1.430
  687KAXM    O2 4804   4.059   2.451   1.462
  687KAXM    C3 4805   4.126   2.568   1.412
  687KAXM    C2 4806   4.182   2.545   1.273
  687KAXM    C1 4807   4.273   2.662   1.240
  687KAXM    O1 4808   4.320   2.655   1.105
  687KAXM    H1 4809   4.255   2.702   1.044
  688KAXM    H8 4810   4.494   2.145   1.575
  688KAXM    O2 4811   4.478   2.056   1.616
  688KAXM    C3 4812   4.428   1.971   1.512
  688KAXM    C2 4813   4.411   1.827   1.556
  688KAXM    C1 4814   4.393   1.742   1.431
  688KAXM    O1 4815   4.369   1.603   1.456
  688KAXM    H1 4816   4.440   1.566   1.516
  689KAXM    H8 4817   5.690   1.826   3.154
  689KAXM    O2 4818   5.627   1.772   3.096
  689KAXM    C3 4819   5.603   1.845   2.975
  689KAXM    C2 4820   5.606   1.756   2.853
  689KAXM    C1 4821   5.592   1.845   2.732
  689KAXM    O1 4822   5.587   1.774   2.607
  689KAXM    H1 4823   5.653   1.697   2.608
  690KAXM    H8 4824   2.659   4.064   3.510
  690KAXM    O2 4825   2.674   4.153   3.463
  690KAXM    C3 4826   2.558   4.186   3.385
  690KAXM    C2 4827   2.564   4.122   3.247
  690KAXM    C1 4828   2.548   3.971   3.255
  690KAXM    O1 4829   2.607   3.908   3.139
  690KAXM    H1 4830   2.542   3.836   3.108
  691KAXM    H8 4831   5.984   0.707   2.124
  691KAXM    O2 4832   5.979   0.635   2.053
  691KAXM    C3 4833   5.938   0.513   2.115
  691KAXM    C2 4834   5.916   0.401   2.015
  691KAXM    C1 4835   5.868   0.277   2.087
  691KAXM    O1 4836   5.860   0.164   2.000
  691KAXM    H1 4837   5.787   0.177   1.931
  692KAXM    H8 4838   4.248   3.105   2.230
  692KAXM    O2 4839   4.242   3.203   2.253
  692KAXM    C3 4840   4.340   3.273   2.175
  692KAXM    C2 4841   4.300   3.282   2.029
  692KAXM    C1 4842   4.415   3.337   1.947
  692KAXM    O1 4843   4.377   3.365   1.811
  692KAXM    H1 4844   4.451   3.331   1.750
  693KAXM    H8 4845   5.487   0.872   4.269
  693KAXM    O2 4846   5.559   0.848   4.336
  693KAXM    C3 4847   5.661   0.777   4.262
  693KAXM    C2 4848   5.796   0.846   4.271
  693KAXM    C1 4849   5.877   0.807   4.149
  693KAXM    O1 4850   0.009   0.865   4.146
  693KAXM    H1 4851   0.062   0.832   4.226
  694KAXM    H8 4852   4.822   2.244   4.153
  694KAXM    O2 4853   4.885   2.172   4.176
  694KAXM    C3 4854   5.000   2.230   4.240
  694KAXM    C2 4855   5.092   2.294   4.137
  694KAXM    C1 4856   5.229   2.325   4.196
  694KAXM    O1 4857   5.318   2.371   4.093
  694KAXM    H1 4858   5.360   2.458   4.122
  695KAXM    H8 4859   2.081   3.919   1.957
  695KAXM    O2 4860   2.059   4.016   1.976
  695KAXM    C3 4861   2.028   4.033   2.115
  695KAXM    C2 4862   2.151   4.067   2.199
  695KAXM    C1 4863   2.114   4.155   2.319
  695KAXM    O1 4864   2.094   4.292   2.281
  695KAXM    H1 4865   2.184   4.338   2.274
  696KAXM    H8 4866   2.340   5.359   2.016
  696KAXM    O2 4867   2.306   5.284   1.955
  696KAXM    C3 4868   2.394   5.270   1.842
  696KAXM    C2 4869   2.537   5.238   1.885
  696KAXM    C1 4870   2.632   5.249   1.767
  696KAXM    O1 4871   2.767   5.231   1.812
  696KAXM    H1 4872   2.833   5.248   1.739
  697KAXM    H8 4873   4.753   5.600   0.190
  697KAXM    O2 4874   4.745   5.681   0.251
  697KAXM    C3 4875   4.845   5.776   0.209
  697KAXM    C2 4876   4.981   5.748   0.273
  697KAXM    C1 4877   5.079   5.863   0.253
  697KAXM    O1 4878   5.204   5.839   0.320
  697KAXM    H1 4879   5.275   5.817   0.252
  698KAXM    H8 4880   3.153   5.497   0.068
  698KAXM    O2 4881   3.118   5.522   0.159
  698KAXM    C3 4882   2.992   5.455   0.184
  698KAXM    C2 4883   2.993   5.393   0.323
  698KAXM    C1 4884   2.858   5.335   0.362
  698KAXM    O1 4885   2.860   5.287   0.498
  698KAXM    H1 4886   2.905   5.355   0.557
  699KAXM    H8 4887   5.212   5.208   0.357
  699KAXM    O2 4888   5.215   5.161   0.267
  699KAXM    C3 4889   5.144   5.240   0.170
  699KAXM    C2 4890   5.188   5.208   0.027
  699KAXM    C1 4891   5.100   5.281   5.926
  699KAXM    O1 4892   5.177   5.334   5.816
  699KAXM    H1 4893   5.153   5.283   5.733
  700KAXM    H8 4894   3.335   4.757   0.668
  700KAXM    O2 4895   3.399   4.717   0.737
  700KAXM    C3 4896   3.320   4.682   0.852
  700KAXM    C2 4897   3.384   4.577   0.939
  700KAXM    C1 4898   3.286   4.542   1.049
  700KAXM    O1 4899   3.346   4.457   1.146
  700KAXM    H1 4900   3.297   4.467   1.233
  701KAXM    H8 4901   4.741   5.125   3.588
  701KAXM    O2 4902   4.814   5.168   3.640
  701KAXM    C3 4903   4.756   5.273   3.720
  701KAXM    C2 4904   4.796   5.268   3.866
  701KAXM    C1 4905   4.723   5.379   3.939
  701KAXM    O1 4906   4.744   5.375   4.081
  701KAXM    H1 4907   4.690   5.451   4.124
  702KAXM    H8 4908   0.253   5.916   3.717
  702KAXM    O2 4909   0.195   5.877   3.643
  702KAXM    C3 4910   0.275   5.811   3.544
  702KAXM    C2 4911   0.192   5.798   3.418
  702KAXM    C1 4912   0.252   5.703   3.316
  702KAXM    O1 4913   0.169   5.701   3.198
  702KAXM    H1 4914   0.176   5.793   3.156
  703KAXM    H8 4915   5.571   2.414   5.459
  703KAXM    O2 4916   5.541   2.463   5.540
  703KAXM    C3 4917   5.401   2.494   5.529
  703KAXM    C2 4918   5.353   2.586   5.642
  703KAXM    C1 4919   5.368   2.520   5.779
  703KAXM    O1 4920   5.327   2.608   5.885
  703KAXM    H1 4921   5.374   2.587   5.970
  704KAXM    H8 4922   2.429   1.998   0.087
  704KAXM    O2 4923   2.478   1.972   0.172
  704KAXM    C3 4924   2.393   1.887   0.250
  704KAXM    C2 4925   2.332   1.960   0.369
  704KAXM    C1 4926   2.245   1.864   0.448
  704KAXM    O1 4927   2.181   1.926   0.561
  704KAXM    H1 4928   2.152   1.852   0.623
  705KAXM    H8 4929   5.470   1.132   3.642
  705KAXM    O2 4930   5.562   1.166   3.667
  705KAXM    C3 4931   5.567   1.307   3.638
  705KAXM    C2 4932   5.690   1.374   3.695
  705KAXM    C1 4933   5.705   1.508   3.626
  705KAXM    O1 4934   5.820   1.581   3.672
  705KAXM    H1 4935   5.810   1.596   3.771
  706KAXM    H8 4936   1.114   1.621   1.008
  706KAXM    O2 4937   1.046   1.624   0.934
  706KAXM    C3 4938   1.023   1.760   0.895
  706KAXM    C2 4939   1.062   1.784   0.749
  706KAXM    C1 4940   1.211   1.760   0.728
  706KAXM    O1 4941   1.248   1.778   0.590
  706KAXM    H1 4942   1.254   1.687   0.545
  707KAXM    H8 4943   1.020   0.433   0.656
  707KAXM    O2 4944   1.066   0.361   0.603
  707KAXM    C3 4945   1.116   0.257   0.688
  707KAXM    C2 4946   1.249   0.208   0.634
  707KAXM    C1 4947   1.310   0.106   0.728
  707KAXM    O1 4948   1.452   0.094   0.706
  707KAXM    H1 4949   1.477   5.996   0.719
  708KAXM    H8 4950   3.995   1.369   0.351
  708KAXM    O2 4951   3.921   1.384   0.418
  708KAXM    C3 4952   3.925   1.280   0.516
  708KAXM    C2 4953   3.799   1.281   0.601
  708KAXM    C1 4954   3.798   1.164   0.699
  708KAXM    O1 4955   3.667   1.148   0.757
  708KAXM    H1 4956   3.601   1.136   0.682
  709KAXM    H8 4957   4.145   4.584   5.969
  709KAXM    O2 4958   4.131   4.607   0.068
  709KAXM    C3 4959   4.183   4.502   0.153
  709KAXM    C2 4960   4.317   4.537   0.216
  709KAXM    C1 4961   4.351   4.446   0.335
  709KAXM    O1 4962   4.476   4.482   0.396
  709KAXM    H1 4963   4.551   4.431   0.350
  710KAXM    H8 4964   5.165   3.034   4.564
  710KAXM    O2 4965   5.249   2.977   4.578
  710KAXM    C3 4966   5.352   3.021   4.487
  710KAXM    C2 4967   5.479   3.061   4.562
  710KAXM    C1 4968   5.549   2.940   4.621
  710KAXM    O1 4969   5.613   2.975   4.745
  710KAXM    H1 4970   5.706   2.937   4.747
  711KAXM    H8 4971   5.880   5.882   5.086
  711KAXM    O2 4972   5.929   5.854   5.171
  711KAXM    C3 4973   0.063   5.813   5.139
  711KAXM    C2 4974   0.166   5.864   5.239
  711KAXM    C1 4975   0.147   5.810   5.380
  711KAXM    O1 4976   0.241   5.872   5.470
  711KAXM    H1 4977   0.321   5.815   5.475
  712KAXM    H8 4978   1.197   1.016   5.107
  712KAXM    O2 4979   1.120   0.991   5.168
  712KAXM    C3 4980   1.163   0.898   5.268
  712KAXM    C2 4981   1.175   0.965   5.404
  712KAXM    C1 4982   1.155   0.865   5.518
  712KAXM    O1 4983   1.143   0.933   5.644
  712KAXM    H1 4984   1.231   0.971   5.673
  713KAXM    H8 4985   5.918   4.694   3.068
  713KAXM    O2 4986   5.878   4.602   3.068
  713KAXM    C3 4987   5.929   4.534   3.184
  713KAXM    C2 4988   0.079   4.510   3.169
  713KAXM    C1 4989   0.156   4.523   3.300
  713KAXM    O1 4990   0.151   4.408   3.385
  713KAXM    H1 4991   0.224   4.413   3.454
  714KAXM    H8 4992   4.244   3.740   4.527
  714KAXM    O2 4993   4.172   3.776   4.466
  714KAXM    C3 4994   4.230   3.784   4.334
  714KAXM    C2 4995   4.134   3.847   4.235
  714KAXM    C1 4996   4.193   3.853   4.095
  714KAXM    O1 4997   4.104   3.922   4.005
  714KAXM    H1 4998   4.092   4.017   4.039
  715KAXM    H8 4999   0.334   2.256   3.748
  715KAXM    O2 5000   0.342   2.351   3.777
  715KAXM    C3 5001   0.344   2.436   3.662
  715KAXM    C2 5002   0.399   2.574   3.697
  715KAXM    C1 5003   0.415   2.660   3.572
  715KAXM    O1 5004   0.480   2.784   3.603
  715KAXM    H1 5005   0.537   2.814   3.526
  716KAXM    H8 5006   2.782   1.656   5.555
  716KAXM    O2 5007   2.869   1.690   5.518
  716KAXM    C3 5008   2.971   1.682   5.620
  716KAXM    C2 5009   3.007   1.538   5.653
  716KAXM    C1 5010   3.097   1.529   5.776
  716KAXM    O1 5011   3.124   1.393   5.817
  716KAXM    H1 5012   3.169   1.395   5.907
  717KAXM    H8 5013   1.233   4.863   3.937
  717KAXM    O2 5014   1.171   4.782   3.938
  717KAXM    C3 5015   1.125   4.752   3.804
  717KAXM    C2 5016   1.240   4.712   3.713
  717KAXM    C1 5017   1.191   4.638   3.590
  717KAXM    O1 5018   1.301   4.592   3.510
  717KAXM    H1 5019   1.363   4.536   3.563
  718KAXM    H8 5020   0.350   0.877   2.162
  718KAXM    O2 5021   0.405   0.915   2.239
  718KAXM    C3 5022   0.355   1.047   2.266
  718KAXM    C2 5023   0.393   1.098   2.405
  718KAXM    C1 5024   0.328   1.017   2.516
  718KAXM    O1 5025   0.374   1.063   2.644
  718KAXM    H1 5026   0.366   0.988   2.711
  719KAXM    H8 5027   5.864   0.895   4.980
  719KAXM    O2 5028   5.938   0.828   4.982
  719KAXM    C3 5029   5.895   0.713   5.056
  719KAXM    C2 5030   0.009   0.654   5.137
  719KAXM    C1 5031   5.973   0.514   5.184
  719KAXM    O1 5032   5.987   0.415   5.080
  719KAXM    H1 5033   0.070   0.360   5.101
  720KAXM    H8 5034   3.536   2.901   0.857
  720KAXM    O2 5035   3.562   2.803   0.852
  720KAXM    C3 5036   3.544   2.759   0.716
  720KAXM    C2 5037   3.642   2.833   0.625
  720KAXM    C1 5038   3.596   2.839   0.480
  720KAXM    O1 5039   3.670   2.940   0.410
  720KAXM    H1 5040   3.680   2.914   0.314
  721KAXM    H8 5041   1.214   1.310   1.037
  721KAXM    O2 5042   1.167   1.350   1.118
  721KAXM    C3 5043   1.034   1.297   1.127
  721KAXM    C2 5044   0.934   1.396   1.186
  721KAXM    C1 5045   0.975   1.438   1.326
  721KAXM    O1 5046   0.877   1.524   1.387
  721KAXM    H1 5047   0.817   1.467   1.446
  722KAXM    H8 5048   3.872   5.515   4.371
  722KAXM    O2 5049   3.925   5.430   4.380
  722KAXM    C3 5050   3.853   5.320   4.322
  722KAXM    C2 5051   3.719   5.295   4.391
  722KAXM    C1 5052   3.736   5.257   4.537
  722KAXM    O1 5053   3.607   5.245   4.598
  722KAXM    H1 5054   3.614   5.214   4.692
  723KAXM    H8 5055   4.747   3.768   2.659
  723KAXM    O2 5056   4.843   3.765   2.639
  723KAXM    C3 5057   4.854   3.768   2.495
  723KAXM    C2 5058   4.981   3.832   2.442
  723KAXM    C1 5059   4.988   3.818   2.290
  723KAXM    O1 5060   5.103   3.882   2.231
  723KAXM    H1 5061   5.111   3.848   2.140
  724KAXM    H8 5062   2.332   2.503   3.996
  724KAXM    O2 5063   2.299   2.432   4.059
  724KAXM    C3 5064   2.176   2.475   4.118
  724KAXM    C2 5065   2.200   2.591   4.212
  724KAXM    C1 5066   2.068   2.636   4.269
  724KAXM    O1 5067   2.080   2.764   4.332
  724KAXM    H1 5068   2.004   2.775   4.396
  725KAXM    H8 5069   0.859   4.436   5.415
  725KAXM    O2 5070   0.910   4.404   5.497
  725KAXM    C3 5071   0.927   4.519   5.581
  725KAXM    C2 5072   0.906   4.493   5.729
  725KAXM    C1 5073   0.877   4.626   5.797
  725KAXM    O1 5074   0.883   4.622   5.940
  725KAXM    H1 5075   0.819   4.690   5.978
  726KAXM    H8 5076   3.301   3.968   1.138
  726KAXM    O2 5077   3.338   4.022   1.063
  726KAXM    C3 5078   3.459   4.084   1.110
  726KAXM    C2 5079   3.506   4.194   1.018
  726KAXM    C1 5080   3.631   4.256   1.079
  726KAXM    O1 5081   3.679   4.371   1.008
  726KAXM    H1 5082   3.685   4.446   1.075
  727KAXM    H8 5083   5.190   5.495   5.813
  727KAXM    O2 5084   5.207   5.594   5.824
  727KAXM    C3 5085   5.234   5.620   5.963
  727KAXM    C2 5086   5.382   5.598   5.994
  727KAXM    C1 5087   5.412   5.639   0.138
  727KAXM    O1 5088   5.388   5.779   0.160
  727KAXM    H1 5089   5.468   5.833   0.131
  728KAXM    H8 5090   0.643   5.018   0.567
  728KAXM    O2 5091   0.627   5.037   0.469
  728KAXM    C3 5092   0.701   4.936   0.399
  728KAXM    C2 5093   0.673   4.931   0.249
  728KAXM    C1 5094   0.751   4.816   0.186
  728KAXM    O1 5095   0.732   4.804   0.044
  728KAXM    H1 5096   0.640   4.837   0.019
  729KAXM    H8 5097   0.731   0.025   4.665
  729KAXM    O2 5098   0.816   0.079   4.673
  729KAXM    C3 5099   0.804   0.192   4.585
  729KAXM    C2 5100   0.799   0.325   4.659
  729KAXM    C1 5101   0.682   0.329   4.757
  729KAXM    O1 5102   0.675   0.453   4.827
  729KAXM    H1 5103   0.599   0.445   4.894
  730KAXM    H8 5104   3.488   3.286   1.453
  730KAXM    O2 5105   3.399   3.334   1.440
  730KAXM    C3 5106   3.346   3.368   1.569
  730KAXM    C2 5107   3.298   3.245   1.646
  730KAXM    C1 5108   3.286   3.279   1.794
  730KAXM    O1 5109   3.228   3.173   1.872
  730KAXM    H1 5110   3.294   3.099   1.890
  731KAXM    H8 5111   3.485   4.838   0.752
  731KAXM    O2 5112   3.524   4.931   0.752
  731KAXM    C3 5113   3.663   4.923   0.716
  731KAXM    C2 5114   3.737   5.044   0.769
  731KAXM    C1 5115   3.886   5.029   0.744
  731KAXM    O1 5116   3.957   5.144   0.791
  731KAXM    H1 5117   3.974   5.205   0.714
  732KAXM    H8 5118   1.887   3.206   0.663
  732KAXM    O2 5119   1.909   3.301   0.661
  732KAXM    C3 5120   1.913   3.343   0.523
  732KAXM    C2 5121   2.016   3.453   0.503
  732KAXM    C1 5122   2.030   3.486   0.355
  732KAXM    O1 5123   2.113   3.395   0.282
  732KAXM    H1 5124   2.067   3.368   0.197
  733KAXM    H8 5125   3.829   3.520   4.099
  733KAXM    O2 5126   3.758   3.490   4.164
  733KAXM    C3 5127   3.650   3.584   4.160
  733KAXM    C2 5128   3.527   3.535   4.237
  733KAXM    C1 5129   3.547   3.540   4.388
  733KAXM    O1 5130   3.424   3.511   4.457
  733KAXM    H1 5131   3.436   3.422   4.503
  734KAXM    H8 5132   5.671   1.939   0.984
  734KAXM    O2 5133   5.737   1.986   0.923
  734KAXM    C3 5134   5.686   1.983   0.788
  734KAXM    C2 5135   5.724   1.855   0.715
  734KAXM    C1 5136   5.647   1.843   0.584
  734KAXM    O1 5137   5.661   1.710   0.531
  734KAXM    H1 5138   5.656   1.712   0.429
  735KAXM    H8 5139   4.346   5.327   1.059
  735KAXM    O2 5140   4.447   5.327   1.052
  735KAXM    C3 5141   4.485   5.216   0.968
  735KAXM    C2 5142   4.635   5.191   0.963
  735KAXM    C1 5143   4.664   5.064   0.882
  735KAXM    O1 5144   4.805   5.044   0.861
  735KAXM    H1 5145   4.829   4.947   0.869
  736KAXM    H8 5146   2.818   0.722   3.507
  736KAXM    O2 5147   2.791   0.642   3.452
  736KAXM    C3 5148   2.682   0.579   3.522
  736KAXM    C2 5149   2.686   0.429   3.508
  736KAXM    C1 5150   2.596   0.361   3.609
  736KAXM    O1 5151   2.617   0.219   3.606
  736KAXM    H1 5152   2.561   0.181   3.532
  737KAXM    H8 5153   3.119   1.389   3.654
  737KAXM    O2 5154   3.115   1.300   3.607
  737KAXM    C3 5155   3.248   1.246   3.603
  737KAXM    C2 5156   3.312   1.253   3.465
  737KAXM    C1 5157   3.460   1.225   3.484
  737KAXM    O1 5158   3.535   1.196   3.365
  737KAXM    H1 5159   3.627   1.164   3.396
  738KAXM    H8 5160   3.818   0.789   2.519
  738KAXM    O2 5161   3.752   0.774   2.444
  738KAXM    C3 5162   3.816   0.739   2.320
  738KAXM    C2 5163   3.879   0.600   2.320
  738KAXM    C1 5164   3.907   0.560   2.176
  738KAXM    O1 5165   3.999   0.450   2.168
  738KAXM    H1 5166   4.089   0.486   2.140
  739KAXM    H8 5167   2.606   1.641   2.344
  739KAXM    O2 5168   2.594   1.601   2.432
  739KAXM    C3 5169   2.622   1.700   2.532
  739KAXM    C2 5170   2.617   1.644   2.673
  739KAXM    C1 5171   2.608   1.759   2.770
  739KAXM    O1 5172   2.612   1.717   2.907
  739KAXM    H1 5173   2.518   1.709   2.940
  740KAXM    H8 5174   5.154   1.949   5.039
  740KAXM    O2 5175   5.165   1.877   4.968
  740KAXM    C3 5176   5.281   1.798   4.998
  740KAXM    C2 5177   5.316   1.705   4.883
  740KAXM    C1 5178   5.369   1.782   4.762
  740KAXM    O1 5179   5.376   1.696   4.647
  740KAXM    H1 5180   5.453   1.723   4.586
  741KAXM    H8 5181   1.829   0.731   5.691
  741KAXM    O2 5182   1.739   0.755   5.732
  741KAXM    C3 5183   1.672   0.849   5.645
  741KAXM    C2 5184   1.530   0.878   5.691
  741KAXM    C1 5185   1.476   1.005   5.627
  741KAXM    O1 5186   1.367   1.056   5.706
  741KAXM    H1 5187   1.335   1.147   5.673
  742KAXM    H8 5188   5.880   3.812   3.401
  742KAXM    O2 5189   5.848   3.845   3.489
  742KAXM    C3 5190   5.948   3.805   3.583
  742KAXM    C2 5191   5.957   3.898   3.703
  742KAXM    C1 5192   0.032   3.831   3.817
  742KAXM    O1 5193   5.961   3.719   3.873
  742KAXM    H1 5194   0.004   3.633   3.841
  743KAXM    H8 5195   3.014   4.667   5.581
  743KAXM    O2 5196   3.082   4.596   5.554
  743KAXM    C3 5197   3.077   4.491   5.652
  743KAXM    C2 5198   3.134   4.536   5.786
  743KAXM    C1 5199   3.130   4.421   5.884
  743KAXM    O1 5200   3.263   4.380   5.920
  743KAXM    H1 5201   3.269   4.280   5.926
  744KAXM    H8 5202   1.050   2.040   2.811
  744KAXM    O2 5203   0.984   1.978   2.769
  744KAXM    C3 5204   1.047   1.919   2.654
  744KAXM    C2 5205   1.070   2.024   2.547
  744KAXM    C1 5206   1.130   1.963   2.422
  744KAXM    O1 5207   1.133   2.060   2.315
  744KAXM    H1 5208   1.141   2.013   2.226
  745KAXM    H8 5209   3.635   2.706   4.757
  745KAXM    O2 5210   3.537   2.687   4.739
  745KAXM    C3 5211   3.491   2.769   4.630
  745KAXM    C2 5212   3.553   2.908   4.631
  745KAXM    C1 5213   3.516   2.984   4.505
  745KAXM    O1 5214   3.575   3.115   4.500
  745KAXM    H1 5215   3.509   3.184   4.531
  746KAXM    H8 5216   4.415   2.310   1.516
  746KAXM    O2 5217   4.512   2.292   1.491
  746KAXM    C3 5218   4.521   2.301   1.347
  746KAXM    C2 5219   4.657   2.353   1.302
  746KAXM    C1 5220   4.668   2.370   1.151
  746KAXM    O1 5221   4.723   2.256   1.080
  746KAXM    H1 5222   4.825   2.258   1.084
  747KAXM    H8 5223   0.524   4.915   2.346
  747KAXM    O2 5224   0.461   4.987   2.315
  747KAXM    C3 5225   0.525   5.060   2.208
  747KAXM    C2 5226   0.501   5.000   2.070
  747KAXM    C1 5227   0.361   5.030   2.018
  747KAXM    O1 5228   0.327   4.956   1.900
  747KAXM    H1 5229   0.284   4.870   1.932
  748KAXM    H8 5230   5.327   3.610   4.302
  748KAXM    O2 5231   5.327   3.711   4.286
  748KAXM    C3 5232   5.208   3.765   4.344
  748KAXM    C2 5233   5.243   3.855   4.461
  748KAXM    C1 5234   5.125   3.942   4.503
  748KAXM    O1 5235   5.019   3.866   4.564
  748KAXM    H1 5236   4.973   3.921   4.630
  749KAXM    H8 5237   3.700   1.564   5.736
  749KAXM    O2 5238   3.683   1.492   5.667
  749KAXM    C3 5239   3.550   1.512   5.616
  749KAXM    C2 5240   3.504   1.413   5.510
  749KAXM    C1 5241   3.364   1.455   5.464
  749KAXM    O1 5242   3.303   1.363   5.373
  749KAXM    H1 5243   3.254   1.296   5.425
  750KAXM    H8 5244   2.819   2.947   2.684
  750KAXM    O2 5245   2.741   3.011   2.677
  750KAXM    C3 5246   2.785   3.132   2.612
  750KAXM    C2 5247   2.674   3.234   2.598
  750KAXM    C1 5248   2.728   3.362   2.535
  750KAXM    O1 5249   2.624   3.458   2.517
  750KAXM    H1 5250   2.662   3.545   2.497
  751KAXM    H8 5251   5.595   5.686   4.063
  751KAXM    O2 5252   5.563   5.590   4.055
  751KAXM    C3 5253   5.431   5.589   3.999
  751KAXM    C2 5254   5.427   5.627   3.851
  751KAXM    C1 5255   5.287   5.601   3.795
  751KAXM    O1 5256   5.283   5.621   3.653
  751KAXM    H1 5257   5.198   5.581   3.616
  752KAXM    H8 5258   3.815   1.453   5.618
  752KAXM    O2 5259   3.909   1.435   5.584
  752KAXM    C3 5260   3.897   1.367   5.458
  752KAXM    C2 5261   4.005   1.263   5.437
  752KAXM    C1 5262   3.983   1.191   5.304
  752KAXM    O1 5263   3.858   1.119   5.301
  752KAXM    H1 5264   3.800   1.160   5.230
  753KAXM    H8 5265   4.740   3.723   5.498
  753KAXM    O2 5266   4.673   3.660   5.457
  753KAXM    C3 5267   4.536   3.702   5.473
  753KAXM    C2 5268   4.448   3.579   5.455
  753KAXM    C1 5269   4.303   3.608   5.489
  753KAXM    O1 5270   4.232   3.486   5.516
  753KAXM    H1 5271   4.269   3.443   5.600
  754KAXM    H8 5272   1.934   2.154   0.507
  754KAXM    O2 5273   1.839   2.147   0.471
  754KAXM    C3 5274   1.847   2.158   0.328
  754KAXM    C2 5275   1.924   2.044   0.265
  754KAXM    C1 5276   1.978   2.086   0.129
  754KAXM    O1 5277   1.875   2.125   0.038
  754KAXM    H1 5278   1.879   2.225   0.028
  755KAXM    H8 5279   0.304   1.325   3.152
  755KAXM    O2 5280   0.382   1.377   3.187
  755KAXM    C3 5281   0.353   1.416   3.322
  755KAXM    C2 5282   0.468   1.491   3.388
  755KAXM    C1 5283   0.415   1.572   3.505
  755KAXM    O1 5284   0.520   1.641   3.572
  755KAXM    H1 5285   0.532   1.728   3.529
  756KAXM    H8 5286   0.853   4.341   2.168
  756KAXM    O2 5287   0.787   4.416   2.185
  756KAXM    C3 5288   0.692   4.370   2.281
  756KAXM    C2 5289   0.574   4.302   2.215
  756KAXM    C1 5290   0.606   4.178   2.132
  756KAXM    O1 5291   0.486   4.106   2.096
  756KAXM    H1 5292   0.472   4.035   2.168
  757KAXM    H8 5293   4.902   0.270   2.304
  757KAXM    O2 5294   4.806   0.287   2.275
  757KAXM    C3 5295   4.721   0.198   2.350
  757KAXM    C2 5296   4.576   0.201   2.305
  757KAXM    C1 5297   4.491   0.110   2.392
  757KAXM    O1 5298   4.364   0.090   2.329
  757KAXM    H1 5299   4.289   0.110   2.394
  758KAXM    H8 5300   1.973   1.292   0.872
  758KAXM    O2 5301   1.874   1.292   0.883
  758KAXM    C3 5302   1.818   1.300   0.751
  758KAXM    C2 5303   1.701   1.203   0.737
  758KAXM    C1 5304   1.638   1.197   0.599
  758KAXM    O1 5305   1.522   1.112   0.603
  758KAXM    H1 5306   1.501   1.078   0.510
  759KAXM    H8 5307   3.939   4.954   2.890
  759KAXM    O2 5308   3.980   4.875   2.842
  759KAXM    C3 5309   4.060   4.918   2.730
  759KAXM    C2 5310   4.114   4.796   2.655
  759KAXM    C1 5311   4.193   4.836   2.532
  759KAXM    O1 5312   4.241   4.720   2.462
  759KAXM    H1 5313   4.287   4.749   2.377
  760KAXM    H8 5314   1.690   1.575   0.505
  760KAXM    O2 5315   1.736   1.490   0.474
  760KAXM    C3 5316   1.747   1.492   0.331
  760KAXM    C2 5317   1.611   1.463   0.268
  760KAXM    C1 5318   1.608   1.489   0.118
  760KAXM    O1 5319   1.610   1.629   0.080
  760KAXM    H1 5320   1.546   1.684   0.136
  761KAXM    H8 5321   3.307   4.479   1.446
  761KAXM    O2 5322   3.239   4.477   1.371
  761KAXM    C3 5323   3.136   4.382   1.402
  761KAXM    C2 5324   3.150   4.257   1.317
  761KAXM    C1 5325   3.029   4.170   1.342
  761KAXM    O1 5326   3.039   4.040   1.281
  761KAXM    H1 5327   2.948   3.995   1.289
  762KAXM    H8 5328   3.097   2.843   2.400
  762KAXM    O2 5329   3.117   2.749   2.426
  762KAXM    C3 5330   2.995   2.676   2.444
  762KAXM    C2 5331   3.021   2.532   2.403
  762KAXM    C1 5332   2.905   2.440   2.437
  762KAXM    O1 5333   2.941   2.306   2.401
  762KAXM    H1 5334   3.021   2.275   2.454
  763KAXM    H8 5335   5.528   4.316   5.779
  763KAXM    O2 5336   5.440   4.355   5.751
  763KAXM    C3 5337   5.348   4.339   5.861
  763KAXM    C2 5338   5.331   4.193   5.900
  763KAXM    C1 5339   5.272   4.184   0.040
  763KAXM    O1 5340   5.310   4.061   0.102
  763KAXM    H1 5341   5.399   4.075   0.149
  764KAXM    H8 5342   4.740   5.819   3.294
  764KAXM    O2 5343   4.757   5.881   3.216
  764KAXM    C3 5344   4.730   5.811   3.093
  764KAXM    C2 5345   4.858   5.797   3.012
  764KAXM    C1 5346   4.833   5.706   2.894
  764KAXM    O1 5347   4.948   5.699   2.809
  764KAXM    H1 5348   5.025   5.651   2.853
  765KAXM    H8 5349   1.935   2.415   5.440
  765KAXM    O2 5350   1.922   2.339   5.506
  765KAXM    C3 5351   1.974   2.381   5.633
  765KAXM    C2 5352   1.880   2.341   5.745
  765KAXM    C1 5353   1.916   2.412   5.876
  765KAXM    O1 5354   1.834   2.368   5.986
  765KAXM    H1 5355   1.749   2.326   5.952
  766KAXM    H8 5356   0.740   1.125   4.552
  766KAXM    O2 5357   0.809   1.139   4.478
  766KAXM    C3 5358   0.836   1.281   4.469
  766KAXM    C2 5359   0.736   1.353   4.382
  766KAXM    C1 5360   0.774   1.499   4.366
  766KAXM    O1 5361   0.676   1.569   4.287
  766KAXM    H1 5362   0.689   1.542   4.192
  767KAXM    H8 5363   3.912   2.847   3.145
  767KAXM    O2 5364   3.877   2.935   3.112
  767KAXM    C3 5365   3.948   3.042   3.177
  767KAXM    C2 5366   3.898   3.180   3.135
  767KAXM    C1 5367   3.952   3.287   3.229
  767KAXM    O1 5368   3.895   3.415   3.200
  767KAXM    H1 5369   3.872   3.460   3.288
  768KAXM    H8 5370   0.480   3.042   1.279
  768KAXM    O2 5371   0.468   2.945   1.293
  768KAXM    C3 5372   0.470   2.915   1.433
  768KAXM    C2 5373   0.329   2.901   1.488
  768KAXM    C1 5374   0.334   2.850   1.631
  768KAXM    O1 5375   0.205   2.847   1.696
  768KAXM    H1 5376   0.150   2.772   1.654
  769KAXM    H8 5377   1.514   2.964   5.872
  769KAXM    O2 5378   1.498   3.062   5.857
  769KAXM    C3 5379   1.462   3.085   5.719
  769KAXM    C2 5380   1.583   3.139   5.643
  769KAXM    C1 5381   1.540   3.194   5.509
  769KAXM    O1 5382   1.649   3.259   5.442
  769KAXM    H1 5383   1.612   3.324   5.374
  770KAXM    H8 5384   0.896   3.845   5.030
  770KAXM    O2 5385   0.890   3.756   5.078
  770KAXM    C3 5386   0.936   3.778   5.213
  770KAXM    C2 5387   0.819   3.764   5.309
  770KAXM    C1 5388   0.862   3.802   5.449
  770KAXM    O1 5389   0.759   3.788   5.548
  770KAXM    H1 5390   0.809   3.776   5.636
  771KAXM    H8 5391   2.178   4.406   3.185
  771KAXM    O2 5392   2.158   4.359   3.271
  771KAXM    C3 5393   2.202   4.442   3.380
  771KAXM    C2 5394   2.110   4.424   3.501
  771KAXM    C1 5395   2.173   4.476   3.629
  771KAXM    O1 5396   2.090   4.443   3.742
  771KAXM    H1 5397   2.143   4.441   3.826
  772KAXM    H8 5398   5.100   1.886   3.779
  772KAXM    O2 5399   5.104   1.853   3.683
  772KAXM    C3 5400   4.975   1.867   3.619
  772KAXM    C2 5401   4.995   1.882   3.469
  772KAXM    C1 5402   4.875   1.836   3.386
  772KAXM    O1 5403   4.761   1.922   3.390
  772KAXM    H1 5404   4.790   2.018   3.373
  773KAXM    H8 5405   2.363   5.794   3.684
  773KAXM    O2 5406   2.365   5.738   3.599
  773KAXM    C3 5407   2.343   5.825   3.486
  773KAXM    C2 5408   2.255   5.763   3.378
  773KAXM    C1 5409   2.250   5.852   3.254
  773KAXM    O1 5410   2.186   5.788   3.143
  773KAXM    H1 5411   2.185   5.849   3.063
  774KAXM    H8 5412   0.610   1.334   5.548
  774KAXM    O2 5413   0.582   1.340   5.451
  774KAXM    C3 5414   0.665   1.440   5.389
  774KAXM    C2 5415   0.586   1.548   5.317
  774KAXM    C1 5416   0.688   1.642   5.255
  774KAXM    O1 5417   0.629   1.740   5.168
  774KAXM    H1 5418   0.701   1.777   5.110
  775KAXM    H8 5419   0.015   1.246   3.615
  775KAXM    O2 5420   5.982   1.174   3.553
  775KAXM    C3 5421   5.955   1.230   3.423
  775KAXM    C2 5422   5.808   1.211   3.390
  775KAXM    C1 5423   5.768   1.248   3.248
  775KAXM    O1 5424   5.628   1.219   3.233
  775KAXM    H1 5425   5.606   1.200   3.138
  776KAXM    H8 5426   1.687   0.076   5.314
  776KAXM    O2 5427   1.709   6.000   5.256
  776KAXM    C3 5428   1.701   5.877   5.331
  776KAXM    C2 5429   1.575   5.800   5.297
  776KAXM    C1 5430   1.589   5.653   5.334
  776KAXM    O1 5431   1.680   5.585   5.245
  776KAXM    H1 5432   1.681   5.487   5.266
  777KAXM    H8 5433   0.524   2.004   4.631
  777KAXM    O2 5434   0.500   1.915   4.670
  777KAXM    C3 5435   0.392   1.927   4.764
  777KAXM    C2 5436   0.446   1.935   4.906
  777KAXM    C1 5437   0.333   1.933   5.007
  777KAXM    O1 5438   0.384   1.947   5.141
  777KAXM    H1 5439   0.327   1.895   5.201
  778KAXM    H8 5440   1.506   0.007   1.438
  778KAXM    O2 5441   1.582   5.944   1.455
  778KAXM    C3 5442   1.670   5.951   1.342
  778KAXM    C2 5443   1.798   0.031   1.367
  778KAXM    C1 5444   1.773   0.174   1.412
  778KAXM    O1 5445   1.749   0.185   1.553
  778KAXM    H1 5446   1.830   0.223   1.598
  779KAXM    H8 5447   2.927   3.217   4.543
  779KAXM    O2 5448   2.832   3.249   4.549
  779KAXM    C3 5449   2.786   3.264   4.413
  779KAXM    C2 5450   2.725   3.135   4.358
  779KAXM    C1 5451   2.739   3.125   4.207
  779KAXM    O1 5452   2.870   3.081   4.165
  779KAXM    H1 5453   2.859   3.028   4.078
  780KAXM    H8 5454   2.458   0.619   4.108
  780KAXM    O2 5455   2.358   0.618   4.128
  780KAXM    C3 5456   2.290   0.688   4.023
  780KAXM    C2 5457   2.248   0.828   4.065
  780KAXM    C1 5458   2.190   0.903   3.945
  780KAXM    O1 5459   2.159   1.040   3.973
  780KAXM    H1 5460   2.231   1.098   3.938
  781KAXM    H8 5461   4.068   2.523   5.458
  781KAXM    O2 5462   3.983   2.523   5.402
  781KAXM    C3 5463   4.009   2.585   5.274
  781KAXM    C2 5464   4.094   2.710   5.288
  781KAXM    C1 5465   4.132   2.765   5.152
  781KAXM    O1 5466   4.214   2.884   5.164
  781KAXM    H1 5467   4.311   2.856   5.181
  782KAXM    H8 5468   3.129   5.826   2.147
  782KAXM    O2 5469   3.134   5.779   2.058
  782KAXM    C3 5470   3.069   5.859   1.958
  782KAXM    C2 5471   2.975   5.774   1.874
  782KAXM    C1 5472   2.905   5.857   1.767
  782KAXM    O1 5473   2.810   5.777   1.695
  782KAXM    H1 5474   2.855   5.733   1.616
  783KAXM    H8 5475   2.768   3.349   5.483
  783KAXM    O2 5476   2.792   3.361   5.578
  783KAXM    C3 5477   2.694   3.291   5.657
  783KAXM    C2 5478   2.625   3.388   5.752
  783KAXM    C1 5479   2.506   3.325   5.823
  783KAXM    O1 5480   2.433   3.425   5.896
  783KAXM    H1 5481   2.334   3.401   5.892
  784KAXM    H8 5482   1.700   5.936   2.841
  784KAXM    O2 5483   1.682   5.954   2.745
  784KAXM    C3 5484   1.756   0.070   2.702
  784KAXM    C2 5485   1.742   0.094   2.552
  784KAXM    C1 5486   1.821   0.218   2.510
  784KAXM    O1 5487   1.825   0.237   2.367
  784KAXM    H1 5488   1.870   0.156   2.326
  785KAXM    H8 5489   3.222   0.662   0.032
  785KAXM    O2 5490   3.205   0.622   0.123
  785KAXM    C3 5491   3.313   0.648   0.214
  785KAXM    C2 5492   3.412   0.533   0.221
  785KAXM    C1 5493   3.513   0.556   0.333
  785KAXM    O1 5494   3.619   0.458   0.337
  785KAXM    H1 5495   3.595   0.385   0.405
  786KAXM    H8 5496   1.347   4.064   2.018
  786KAXM    O2 5497   1.306   4.038   1.931
  786KAXM    C3 5498   1.322   3.897   1.909
  786KAXM    C2 5499   1.232   3.847   1.796
  786KAXM    C1 5500   1.259   3.703   1.757
  786KAXM    O1 5501   1.173   3.659   1.651
  786KAXM    H1 5502   1.084   3.630   1.690
  787KAXM    H8 5503   2.462   5.661   0.667
  787KAXM    O2 5504   2.428   5.726   0.597
  787KAXM    C3 5505   2.328   5.658   0.518
  787KAXM    C2 5506   2.390   5.580   0.403
  787KAXM    C1 5507   2.290   5.564   0.288
  787KAXM    O1 5508   2.356   5.539   0.162
  787KAXM    H1 5509   2.372   5.439   0.150
  788KAXM    H8 5510   1.351   5.036   0.047
  788KAXM    O2 5511   1.444   5.021   0.015
  788KAXM    C3 5512   1.501   4.900   0.068
  788KAXM    C2 5513   1.597   4.837   5.968
  788KAXM    C1 5514   1.521   4.803   5.840
  788KAXM    O1 5515   1.605   4.761   5.730
  788KAXM    H1 5516   1.549   4.703   5.669
  789KAXM    H8 5517   2.377   0.701   0.121
  789KAXM    O2 5518   2.297   0.761   0.102
  789KAXM    C3 5519   2.311   0.819   5.971
  789KAXM    C2 5520   2.261   0.726   5.863
  789KAXM    C1 5521   2.246   0.801   5.732
  789KAXM    O1 5522   2.220   0.710   5.624
  789KAXM    H1 5523   2.309   0.673   5.594
  790KAXM    H8 5524   2.169   2.245   4.953
  790KAXM    O2 5525   2.148   2.342   4.936
  790KAXM    C3 5526   2.063   2.354   4.821
  790KAXM    C2 5527   2.000   2.492   4.808
  790KAXM    C1 5528   1.926   2.502   4.676
  790KAXM    O1 5529   1.850   2.623   4.662
  790KAXM    H1 5530   1.756   2.605   4.693
  791KAXM    H8 5531   5.350   4.767   3.593
  791KAXM    O2 5532   5.446   4.737   3.599
  791KAXM    C3 5533   5.531   4.836   3.538
  791KAXM    C2 5534   5.658   4.773   3.484
  791KAXM    C1 5535   5.758   4.872   3.426
  791KAXM    O1 5536   5.887   4.810   3.420
  791KAXM    H1 5537   5.950   4.865   3.365
  792KAXM    H8 5538   2.445   3.245   1.375
  792KAXM    O2 5539   2.485   3.212   1.461
  792KAXM    C3 5540   2.593   3.298   1.501
  792KAXM    C2 5541   2.634   3.273   1.645
  792KAXM    C1 5542   2.747   3.365   1.691
  792KAXM    O1 5543   2.707   3.502   1.719
  792KAXM    H1 5544   2.793   3.554   1.735
  793KAXM    H8 5545   0.829   4.373   1.041
  793KAXM    O2 5546   0.733   4.341   1.048
  793KAXM    C3 5547   0.734   4.220   1.126
  793KAXM    C2 5548   0.600   4.149   1.123
  793KAXM    C1 5549   0.616   4.004   1.165
  793KAXM    O1 5550   0.509   3.921   1.114
  793KAXM    H1 5551   0.507   3.936   1.013
  794KAXM    H8 5552   4.159   5.808   2.352
  794KAXM    O2 5553   4.102   5.867   2.413
  794KAXM    C3 5554   4.099   5.805   2.543
  794KAXM    C2 5555   4.032   5.893   2.647
  794KAXM    C1 5556   4.047   5.833   2.786
  794KAXM    O1 5557   4.027   5.933   2.887
  794KAXM    H1 5558   4.103   0.000   2.886
  795KAXM    H8 5559   4.672   4.166   0.523
  795KAXM    O2 5560   4.757   4.182   0.467
  795KAXM    C3 5561   4.854   4.238   0.557
  795KAXM    C2 5562   4.972   4.294   0.480
  795KAXM    C1 5563   5.074   4.361   0.570
  795KAXM    O1 5564   5.187   4.396   0.489
  795KAXM    H1 5565   5.237   4.474   0.528
  796KAXM    H8 5566   2.296   1.969   2.338
  796KAXM    O2 5567   2.218   1.982   2.401
  796KAXM    C3 5568   2.117   2.060   2.335
  796KAXM    C2 5569   2.000   1.972   2.296
  796KAXM    C1 5570   1.887   2.057   2.239
  796KAXM    O1 5571   1.762   1.989   2.245
  796KAXM    H1 5572   1.699   2.039   2.306
  797KAXM    H8 5573   5.567   3.742   5.388
  797KAXM    O2 5574   5.612   3.753   5.477
  797KAXM    C3 5575   5.669   3.885   5.480
  797KAXM    C2 5576   5.733   3.918   5.614
  797KAXM    C1 5577   5.803   4.054   5.606
  797KAXM    O1 5578   5.863   4.094   5.731
  797KAXM    H1 5579   5.945   4.150   5.713
  798KAXM    H8 5580   2.190   0.278   3.637
  798KAXM    O2 5581   2.259   0.323   3.696
  798KAXM    C3 5582   2.298   0.235   3.804
  798KAXM    C2 5583   2.308   0.091   3.756
  798KAXM    C1 5584   2.369   5.997   3.858
  798KAXM    O1 5585   2.345   5.861   3.816
  798KAXM    H1 5586   2.251   5.836   3.844
  799KAXM    H8 5587   0.088   5.890   0.653
  799KAXM    O2 5588   0.103   5.988   0.631
  799KAXM    C3 5589   0.146   0.001   0.494
  799KAXM    C2 5590   0.048   0.089   0.419
  799KAXM    C1 5591   0.075   0.099   0.270
  799KAXM    O1 5592   5.966   0.166   0.204
  799KAXM    H1 5593   5.958   0.131   0.109
  800KAXM    H8 5594   3.911   0.852   3.507
  800KAXM    O2 5595   3.810   0.853   3.493
  800KAXM    C3 5596   3.764   0.728   3.440
  800KAXM    C2 5597   3.829   0.604   3.501
  800KAXM    C1 5598   3.763   0.476   3.450
  800KAXM    O1 5599   3.845   0.361   3.476
  800KAXM    H1 5600   3.792   0.277   3.471
  801KAXM    H8 5601   0.218   5.183   4.394
  801KAXM    O2 5602   0.162   5.165   4.476
  801KAXM    C3 5603   0.027   5.208   4.448
  801KAXM    C2 5604   5.960   5.113   4.349
  801KAXM    C1 5605   5.832   5.172   4.292
  801KAXM    O1 5606   5.859   5.292   4.216
  801KAXM    H1 5607   5.780   5.356   4.226
  802KAXM    H8 5608   3.141   1.940   5.962
  802KAXM    O2 5609   3.165   2.033   5.926
  802KAXM    C3 5610   3.109   2.039   5.793
  802KAXM    C2 5611   3.170   2.144   5.700
  802KAXM    C1 5612   3.141   2.102   5.556
  802KAXM    O1 5613   3.163   2.203   5.455
  802KAXM    H1 5614   3.081   2.203   5.397
  803KAXM    H8 5615   2.460   4.554   2.551
  803KAXM    O2 5616   2.396   4.594   2.614
  803KAXM    C3 5617   2.421   4.541   2.745
  803KAXM    C2 5618   2.293   4.542   2.826
  803KAXM    C1 5619   2.317   4.501   2.970
  803KAXM    O1 5620   2.192   4.478   3.037
  803KAXM    H1 5621   2.138   4.563   3.024
  804KAXM    H8 5622   5.240   0.674   0.616
  804KAXM    O2 5623   5.156   0.717   0.581
  804KAXM    C3 5624   5.193   0.798   0.468
  804KAXM    C2 5625   5.206   0.945   0.507
  804KAXM    C1 5626   5.281   1.026   0.402
  804KAXM    O1 5627   5.226   1.011   0.270
  804KAXM    H1 5628   5.300   0.976   0.212
  805KAXM    H8 5629   5.709   3.990   0.679
  805KAXM    O2 5630   5.796   4.042   0.683
  805KAXM    C3 5631   5.878   4.000   0.573
  805KAXM    C2 5632   5.988   4.100   0.541
  805KAXM    C1 5633   0.070   4.047   0.424
  805KAXM    O1 5634   0.178   4.135   0.388
  805KAXM    H1 5635   0.239   4.145   0.465
  806KAXM    H8 5636   3.128   2.811   1.411
  806KAXM    O2 5637   3.197   2.884   1.396
  806KAXM    C3 5638   3.330   2.832   1.403
  806KAXM    C2 5639   3.431   2.941   1.439
  806KAXM    C1 5640   3.567   2.880   1.471
  806KAXM    O1 5641   3.660   2.975   1.526
  806KAXM    H1 5642   3.734   2.926   1.574
  807KAXM    H8 5643   2.017   1.547   4.674
  807KAXM    O2 5644   2.083   1.477   4.704
  807KAXM    C3 5645   2.193   1.541   4.771
  807KAXM    C2 5646   2.168   1.549   4.920
  807KAXM    C1 5647   2.289   1.608   4.990
  807KAXM    O1 5648   2.268   1.601   5.132
  807KAXM    H1 5649   2.339   1.654   5.180
  808KAXM    H8 5650   4.675   1.603   2.849
  808KAXM    O2 5651   4.642   1.695   2.874
  808KAXM    C3 5652   4.680   1.728   3.009
  808KAXM    C2 5653   4.831   1.723   3.030
  808KAXM    C1 5654   4.872   1.589   3.088
  808KAXM    O1 5655   5.014   1.568   3.084
  808KAXM    H1 5656   5.061   1.650   3.122
  809KAXM    H8 5657   4.834   3.465   2.131
  809KAXM    O2 5658   4.767   3.397   2.165
  809KAXM    C3 5659   4.670   3.463   2.249
  809KAXM    C2 5660   4.673   3.405   2.389
  809KAXM    C1 5661   4.574   3.481   2.477
  809KAXM    O1 5662   4.600   3.465   2.617
  809KAXM    H1 5663   4.700   3.472   2.632
  810KAXM    H8 5664   5.415   0.746   0.708
  810KAXM    O2 5665   5.416   0.844   0.725
  810KAXM    C3 5666   5.528   0.885   0.804
  810KAXM    C2 5667   5.491   0.890   0.951
  810KAXM    C1 5668   5.593   0.972   1.030
  810KAXM    O1 5669   5.559   0.978   1.170
  810KAXM    H1 5670   5.465   1.008   1.182
  811KAXM    H8 5671   0.501   4.632   1.093
  811KAXM    O2 5672   0.467   4.702   1.158
  811KAXM    C3 5673   0.364   4.643   1.240
  811KAXM    C2 5674   0.380   4.492   1.254
  811KAXM    C1 5675   0.279   4.430   1.348
  811KAXM    O1 5676   0.292   4.287   1.349
  811KAXM    H1 5677   0.369   4.257   1.408
  812KAXM    H8 5678   4.295   0.349   1.050
  812KAXM    O2 5679   4.370   0.404   1.089
  812KAXM    C3 5680   4.385   0.371   1.229
  812KAXM    C2 5681   4.382   0.494   1.319
  812KAXM    C1 5682   4.252   0.574   1.307
  812KAXM    O1 5683   4.269   0.711   1.350
  812KAXM    H1 5684   4.180   0.744   1.384
  813KAXM    H8 5685   1.815   4.800   5.480
  813KAXM    O2 5686   1.797   4.812   5.381
  813KAXM    C3 5687   1.916   4.780   5.306
  813KAXM    C2 5688   1.946   4.631   5.301
  813KAXM    C1 5689   2.014   4.596   5.169
  813KAXM    O1 5690   2.127   4.679   5.140
  813KAXM    H1 5691   2.099   4.755   5.081
  814KAXM    H8 5692   5.715   5.082   1.506
  814KAXM    O2 5693   5.769   5.164   1.492
  814KAXM    C3 5694   5.727   5.224   1.368
  814KAXM    C2 5695   5.724   5.375   1.377
  814KAXM    C1 5696   5.682   5.433   1.242
  814KAXM    O1 5697   5.671   5.576   1.243
  814KAXM    H1 5698   5.588   5.598   1.291
  815KAXM    H8 5699   4.800   3.013   0.278
  815KAXM    O2 5700   4.702   2.988   0.287
  815KAXM    C3 5701   4.631   3.086   0.365
  815KAXM    C2 5702   4.534   3.168   0.280
  815KAXM    C1 5703   4.609   3.255   0.180
  815KAXM    O1 5704   4.521   3.334   0.099
  815KAXM    H1 5705   4.483   3.411   0.154
  816KAXM    H8 5706   2.356   4.987   3.577
  816KAXM    O2 5707   2.432   5.042   3.539
  816KAXM    C3 5708   2.384   5.173   3.508
  816KAXM    C2 5709   2.460   5.275   3.590
  816KAXM    C1 5710   2.396   5.412   3.573
  816KAXM    O1 5711   2.469   5.514   3.642
  816KAXM    H1 5712   2.420   5.603   3.625
  817KAXM    H8 5713   0.415   5.037   1.050
  817KAXM    O2 5714   0.346   5.095   1.003
  817KAXM    C3 5715   0.382   5.102   0.864
  817KAXM    C2 5716   0.388   5.245   0.810
  817KAXM    C1 5717   0.472   5.257   0.682
  817KAXM    O1 5718   0.423   5.184   0.568
  817KAXM    H1 5719   0.498   5.129   0.530
  818KAXM    H8 5720   2.552   1.411   0.022
  818KAXM    O2 5721   2.512   1.500   0.049
  818KAXM    C3 5722   2.478   1.571   5.928
  818KAXM    C2 5723   2.591   1.575   5.826
  818KAXM    C1 5724   2.542   1.621   5.689
  818KAXM    O1 5725   2.643   1.604   5.587
  818KAXM    H1 5726   2.601   1.558   5.508
  819KAXM    H8 5727   0.577   3.924   1.546
  819KAXM    O2 5728   0.632   3.995   1.497
  819KAXM    C3 5729   0.770   3.968   1.520
  819KAXM    C2 5730   0.849   4.097   1.529
  819KAXM    C1 5731   0.987   4.069   1.586
  819KAXM    O1 5732   1.054   4.192   1.616
  819KAXM    H1 5733   1.149   4.174   1.648
  820KAXM    H8 5734   2.586   4.610   3.376
  820KAXM    O2 5735   2.585   4.528   3.323
  820KAXM    C3 5736   2.676   4.543   3.212
  820KAXM    C2 5737   2.646   4.446   3.100
  820KAXM    C1 5738   2.734   4.469   2.979
  820KAXM    O1 5739   2.694   4.382   2.872
  820KAXM    H1 5740   2.761   4.385   2.798
  821KAXM    H8 5741   4.640   3.074   5.185
  821KAXM    O2 5742   4.719   3.041   5.239
  821KAXM    C3 5743   4.763   3.148   5.324
  821KAXM    C2 5744   4.907   3.132   5.371
  821KAXM    C1 5745   5.004   3.148   5.255
  821KAXM    O1 5746   5.137   3.114   5.296
  821KAXM    H1 5747   5.152   3.015   5.281
  822KAXM    H8 5748   0.106   5.032   3.297
  822KAXM    O2 5749   0.097   4.931   3.298
  822KAXM    C3 5750   0.209   4.878   3.372
  822KAXM    C2 5751   0.194   4.899   3.523
  822KAXM    C1 5752   0.313   4.847   3.604
  822KAXM    O1 5753   0.320   4.704   3.608
  822KAXM    H1 5754   0.374   4.670   3.530
  823KAXM    H8 5755   3.185   5.437   3.584
  823KAXM    O2 5756   3.126   5.449   3.662
  823KAXM    C3 5757   3.048   5.328   3.675
  823KAXM    C2 5758   2.947   5.337   3.789
  823KAXM    C1 5759   2.864   5.209   3.797
  823KAXM    O1 5760   2.764   5.217   3.900
  823KAXM    H1 5761   2.701   5.292   3.877
  824KAXM    H8 5762   2.801   2.846   0.330
  824KAXM    O2 5763   2.786   2.927   0.271
  824KAXM    C3 5764   2.882   3.029   0.301
  824KAXM    C2 5765   2.882   3.136   0.193
  824KAXM    C1 5766   2.993   3.238   0.218
  824KAXM    O1 5767   2.979   3.353   0.131
  824KAXM    H1 5768   3.020   3.333   0.040
  825KAXM    H8 5769   3.059   0.782   0.583
  825KAXM    O2 5770   3.102   0.867   0.547
  825KAXM    C3 5771   3.198   0.916   0.641
  825KAXM    C2 5772   3.308   0.814   0.667
  825KAXM    C1 5773   3.407   0.871   0.767
  825KAXM    O1 5774   3.507   0.774   0.801
  825KAXM    H1 5775   3.549   0.799   0.889
  826KAXM    H8 5776   1.041   1.616   3.433
  826KAXM    O2 5777   1.086   1.554   3.498
  826KAXM    C3 5778   1.175   1.633   3.581
  826KAXM    C2 5779   1.308   1.661   3.513
  826KAXM    C1 5780   1.396   1.754   3.597
  826KAXM    O1 5781   1.476   1.692   3.701
  826KAXM    H1 5782   1.564   1.742   3.703
  827KAXM    H8 5783   5.205   1.001   2.631
  827KAXM    O2 5784   5.156   0.947   2.701
  827KAXM    C3 5785   5.158   1.018   2.826
  827KAXM    C2 5786   5.092   1.155   2.816
  827KAXM    C1 5787   5.094   1.233   2.947
  827KAXM    O1 5788   5.035   1.363   2.925
  827KAXM    H1 5789   5.042   1.421   3.007
  828KAXM    H8 5790   2.062   5.307   3.697
  828KAXM    O2 5791   2.062   5.238   3.771
  828KAXM    C3 5792   2.074   5.109   3.708
  828KAXM    C2 5793   2.155   5.015   3.797
  828KAXM    C1 5794   2.182   4.877   3.738
  828KAXM    O1 5795   2.269   4.876   3.624
  828KAXM    H1 5796   2.339   4.803   3.639
  829KAXM    H8 5797   1.827   2.234   5.476
  829KAXM    O2 5798   1.761   2.157   5.456
  829KAXM    C3 5799   1.701   2.182   5.328
  829KAXM    C2 5800   1.779   2.116   5.215
  829KAXM    C1 5801   1.756   1.965   5.221
  829KAXM    O1 5802   1.849   1.892   5.140
  829KAXM    H1 5803   1.885   1.817   5.198
  830KAXM    H8 5804   5.385   4.475   5.653
  830KAXM    O2 5805   5.350   4.548   5.592
  830KAXM    C3 5806   5.263   4.632   5.670
  830KAXM    C2 5807   5.230   4.768   5.609
  830KAXM    C1 5808   5.126   4.836   5.696
  830KAXM    O1 5809   5.082   4.963   5.643
  830KAXM    H1 5810   4.982   4.957   5.623
  831KAXM    H8 5811   5.266   0.209   0.255
  831KAXM    O2 5812   5.232   0.283   0.313
  831KAXM    C3 5813   5.342   0.335   0.390
  831KAXM    C2 5814   5.296   0.440   0.491
  831KAXM    C1 5815   5.410   0.500   0.573
  831KAXM    O1 5816   5.364   0.595   0.671
  831KAXM    H1 5817   5.373   0.554   0.764
  832KAXM    H8 5818   1.945   5.395   5.793
  832KAXM    O2 5819   1.870   5.405   5.724
  832KAXM    C3 5820   1.906   5.335   5.603
  832KAXM    C2 5821   1.808   5.367   5.492
  832KAXM    C1 5822   1.833   5.282   5.368
  832KAXM    O1 5823   1.764   5.340   5.257
  832KAXM    H1 5824   1.830   5.394   5.203
  833KAXM    H8 5825   0.431   2.380   2.002
  833KAXM    O2 5826   0.503   2.310   2.003
  833KAXM    C3 5827   0.550   2.293   1.868
  833KAXM    C2 5828   0.542   2.149   1.820
  833KAXM    C1 5829   0.552   2.141   1.668
  833KAXM    O1 5830   0.670   2.206   1.615
  833KAXM    H1 5831   0.666   2.203   1.514
  834KAXM    H8 5832   2.963   0.962   5.040
  834KAXM    O2 5833   3.051   0.990   4.998
  834KAXM    C3 5834   3.135   1.049   5.099
  834KAXM    C2 5835   3.282   1.020   5.068
  834KAXM    C1 5836   3.375   1.110   5.147
  834KAXM    O1 5837   3.511   1.074   5.121
  834KAXM    H1 5838   3.573   1.151   5.136
  835KAXM    H8 5839   1.188   4.472   4.692
  835KAXM    O2 5840   1.279   4.509   4.714
  835KAXM    C3 5841   1.352   4.411   4.789
  835KAXM    C2 5842   1.486   4.471   4.830
  835KAXM    C1 5843   1.545   4.402   4.952
  835KAXM    O1 5844   1.631   4.494   5.022
  835KAXM    H1 5845   1.573   4.558   5.075
  836KAXM    H8 5846   1.574   3.608   0.562
  836KAXM    O2 5847   1.540   3.535   0.622
  836KAXM    C3 5848   1.505   3.589   0.750
  836KAXM    C2 5849   1.364   3.646   0.755
  836KAXM    C1 5850   1.308   3.638   0.897
  836KAXM    O1 5851   1.284   3.501   0.937
  836KAXM    H1 5852   1.325   3.487   1.028
  837KAXM    H8 5853   1.606   5.822   3.833
  837KAXM    O2 5854   1.655   5.744   3.875
  837KAXM    C3 5855   1.743   5.794   3.977
  837KAXM    C2 5856   1.730   5.946   3.993
  837KAXM    C1 5857   1.851   0.008   4.062
  837KAXM    O1 5858   1.973   5.982   3.991
  837KAXM    H1 5859   2.050   0.008   4.052
  838KAXM    H8 5860   3.984   0.717   1.487
  838KAXM    O2 5861   4.050   0.793   1.473
  838KAXM    C3 5862   4.089   0.845   1.602
  838KAXM    C2 5863   4.141   0.735   1.691
  838KAXM    C1 5864   4.196   0.785   1.824
  838KAXM    O1 5865   4.269   0.679   1.888
  838KAXM    H1 5866   4.329   0.636   1.819
  839KAXM    H8 5867   4.826   1.488   2.765
  839KAXM    O2 5868   4.730   1.472   2.790
  839KAXM    C3 5869   4.723   1.337   2.841
  839KAXM    C2 5870   4.589   1.294   2.897
  839KAXM    C1 5871   4.557   1.365   3.028
  839KAXM    O1 5872   4.457   1.291   3.100
  839KAXM    H1 5873   4.405   1.355   3.159
  840KAXM    H8 5874   2.512   4.526   4.551
  840KAXM    O2 5875   2.572   4.478   4.617
  840KAXM    C3 5876   2.498   4.373   4.684
  840KAXM    C2 5877   2.350   4.373   4.650
  840KAXM    C1 5878   2.267   4.279   4.738
  840KAXM    O1 5879   2.128   4.279   4.700
  840KAXM    H1 5880   2.071   4.315   4.777
  841KAXM    H8 5881   2.473   2.483   2.605
  841KAXM    O2 5882   2.401   2.516   2.544
  841KAXM    C3 5883   2.383   2.430   2.429
  841KAXM    C2 5884   2.334   2.510   2.308
  841KAXM    C1 5885   2.263   2.420   2.207
  841KAXM    O1 5886   2.233   2.479   2.079
  841KAXM    H1 5887   2.158   2.548   2.083
  842KAXM    H8 5888   1.919   0.967   0.249
  842KAXM    O2 5889   1.869   0.966   0.336
  842KAXM    C3 5890   1.945   0.896   0.435
  842KAXM    C2 5891   1.971   0.989   0.553
  842KAXM    C1 5892   2.033   0.915   0.670
  842KAXM    O1 5893   2.041   1.003   0.784
  842KAXM    H1 5894   2.005   0.956   0.865
  843KAXM    H8 5895   5.632   1.585   0.262
  843KAXM    O2 5896   5.650   1.682   0.288
  843KAXM    C3 5897   5.593   1.773   0.193
  843KAXM    C2 5898   5.442   1.772   0.203
  843KAXM    C1 5899   5.380   1.860   0.096
  843KAXM    O1 5900   5.239   1.834   0.089
  843KAXM    H1 5901   5.226   1.754   0.030
  844KAXM    H8 5902   2.048   5.237   3.932
  844KAXM    O2 5903   2.058   5.224   4.032
  844KAXM    C3 5904   1.930   5.228   4.097
  844KAXM    C2 5905   1.927   5.146   4.225
  844KAXM    C1 5906   1.790   5.153   4.291
  844KAXM    O1 5907   1.781   5.076   4.412
  844KAXM    H1 5908   1.685   5.077   4.443
  845KAXM    H8 5909   3.243   4.219   0.579
  845KAXM    O2 5910   3.147   4.214   0.594
  845KAXM    C3 5911   3.119   4.097   0.674
  845KAXM    C2 5912   3.161   3.966   0.605
  845KAXM    C1 5913   3.130   3.843   0.690
  845KAXM    O1 5914   3.174   3.721   0.626
  845KAXM    H1 5915   3.125   3.642   0.661
  846KAXM    H8 5916   1.423   3.417   5.890
  846KAXM    O2 5917   1.354   3.487   5.863
  846KAXM    C3 5918   1.300   3.450   5.735
  846KAXM    C2 5919   1.366   3.528   5.622
  846KAXM    C1 5920   1.292   3.505   5.491
  846KAXM    O1 5921   1.343   3.591   5.388
  846KAXM    H1 5922   1.411   3.543   5.335
  847KAXM    H8 5923   3.394   2.721   3.740
  847KAXM    O2 5924   3.481   2.668   3.738
  847KAXM    C3 5925   3.482   2.573   3.846
  847KAXM    C2 5926   3.566   2.451   3.813
  847KAXM    C1 5927   3.553   2.342   3.919
  847KAXM    O1 5928   3.620   2.222   3.876
  847KAXM    H1 5929   3.591   2.145   3.934
  848KAXM    H8 5930   2.556   0.132   4.310
  848KAXM    O2 5931   2.506   0.091   4.388
  848KAXM    C3 5932   2.528   5.949   4.385
  848KAXM    C2 5933   2.409   5.876   4.445
  848KAXM    C1 5934   2.421   5.726   4.428
  848KAXM    O1 5935   2.291   5.666   4.442
  848KAXM    H1 5936   2.271   5.654   4.541
  849KAXM    H8 5937   3.706   3.140   2.578
  849KAXM    O2 5938   3.658   3.170   2.661
  849KAXM    C3 5939   3.688   3.083   2.771
  849KAXM    C2 5940   3.562   3.058   2.854
  849KAXM    C1 5941   3.578   2.947   2.956
  849KAXM    O1 5942   3.639   2.991   3.079
  849KAXM    H1 5943   3.738   2.966   3.079
  850KAXM    H8 5944   1.409   3.042   4.387
  850KAXM    O2 5945   1.363   2.965   4.431
  850KAXM    C3 5946   1.227   2.953   4.384
  850KAXM    C2 5947   1.211   2.917   4.237
  850KAXM    C1 5948   1.255   2.776   4.206
  850KAXM    O1 5949   1.329   2.776   4.083
  850KAXM    H1 5950   1.424   2.749   4.103
  851KAXM    H8 5951   2.001   2.729   5.554
  851KAXM    O2 5952   1.964   2.725   5.648
  851KAXM    C3 5953   1.822   2.738   5.641
  851KAXM    C2 5954   1.765   2.768   5.778
  851KAXM    C1 5955   1.613   2.764   5.767
  851KAXM    O1 5956   1.551   2.807   5.889
  851KAXM    H1 5957   1.554   2.729   5.954
  852KAXM    H8 5958   4.931   4.746   4.245
  852KAXM    O2 5959   4.918   4.716   4.148
  852KAXM    C3 5960   4.793   4.647   4.139
  852KAXM    C2 5961   4.745   4.636   3.996
  852KAXM    C1 5962   4.611   4.563   3.992
  852KAXM    O1 5963   4.537   4.602   3.876
  852KAXM    H1 5964   4.562   4.543   3.797
  853KAXM    H8 5965   5.561   2.932   0.934
  853KAXM    O2 5966   5.547   2.976   1.025
  853KAXM    C3 5967   5.412   2.953   1.068
  853KAXM    C2 5968   5.410   2.897   1.210
  853KAXM    C1 5969   5.271   2.853   1.253
  853KAXM    O1 5970   5.273   2.797   1.385
  853KAXM    H1 5971   5.192   2.738   1.401
  854KAXM    H8 5972   2.807   2.753   5.112
  854KAXM    O2 5973   2.716   2.780   5.080
  854KAXM    C3 5974   2.695   2.916   5.121
  854KAXM    C2 5975   2.570   2.926   5.208
  854KAXM    C1 5976   2.563   3.061   5.276
  854KAXM    O1 5977   2.438   3.073   5.345
  854KAXM    H1 5978   2.365   3.095   5.278
  855KAXM    H8 5979   3.372   0.288   5.585
  855KAXM    O2 5980   3.417   0.309   5.496
  855KAXM    C3 5981   3.319   0.348   5.398
  855KAXM    C2 5982   3.373   0.336   5.255
  855KAXM    C1 5983   3.352   0.194   5.203
  855KAXM    O1 5984   3.450   0.161   5.103
  855KAXM    H1 5985   3.409   0.163   5.010
  856KAXM    H8 5986   4.455   4.001   4.523
  856KAXM    O2 5987   4.391   4.075   4.503
  856KAXM    C3 5988   4.434   4.152   4.389
  856KAXM    C2 5989   4.508   4.276   4.436
  856KAXM    C1 5990   4.561   4.358   4.319
  856KAXM    O1 5991   4.624   4.477   4.366
  856KAXM    H1 5992   4.714   4.458   4.398
  857KAXM    H8 5993   5.308   2.205   2.863
  857KAXM    O2 5994   5.391   2.255   2.890
  857KAXM    C3 5995   5.506   2.212   2.815
  857KAXM    C2 5996   5.503   2.253   2.669
  857KAXM    C1 5997   5.417   2.161   2.583
  857KAXM    O1 5998   5.276   2.178   2.606
  857KAXM    H1 5999   5.239   2.237   2.531
  858KAXM    H8 6000   2.859   0.922   2.312
  858KAXM    O2 6001   2.868   0.998   2.376
  858KAXM    C3 6002   2.954   0.959   2.485
  858KAXM    C2 6003   2.879   0.949   2.618
  858KAXM    C1 6004   2.771   0.842   2.613
  858KAXM    O1 6005   2.680   0.852   2.724
  858KAXM    H1 6006   2.594   0.893   2.692
  859KAXM    H8 6007   4.578   3.494   2.764
  859KAXM    O2 6008   4.580   3.515   2.862
  859KAXM    C3 6009   4.598   3.389   2.931
  859KAXM    C2 6010   4.633   3.409   3.078
  859KAXM    C1 6011   4.602   3.282   3.155
  859KAXM    O1 6012   4.572   3.312   3.291
  859KAXM    H1 6013   4.480   3.352   3.301
  860KAXM    H8 6014   4.886   2.629   0.163
  860KAXM    O2 6015   4.944   2.650   0.082
  860KAXM    C3 6016   4.996   2.526   0.032
  860KAXM    C2 6017   4.979   2.506   5.882
  860KAXM    C1 6018   5.033   2.368   5.848
  860KAXM    O1 6019   5.036   2.338   5.707
  860KAXM    H1 6020   5.066   2.245   5.700
  861KAXM    H8 6021   3.246   1.286   0.604
  861KAXM    O2 6022   3.313   1.294   0.528
  861KAXM    C3 6023   3.264   1.389   0.431
  861KAXM    C2 6024   3.290   1.343   0.288
  861KAXM    C1 6025   3.219   1.431   0.185
  861KAXM    O1 6026   3.223   1.378   0.052
  861KAXM    H1 6027   3.225   1.276   0.056
  862KAXM    H8 6028   0.554   2.850   4.071
  862KAXM    O2 6029   0.464   2.889   4.089
  862KAXM    C3 6030   0.375   2.851   3.983
  862KAXM    C2 6031   0.234   2.900   4.009
  862KAXM    C1 6032   0.145   2.866   3.890
  862KAXM    O1 6033   0.010   2.911   3.910
  862KAXM    H1 6034   5.952   2.832   3.932
  863KAXM    H8 6035   0.476   3.326   1.792
  863KAXM    O2 6036   0.569   3.313   1.755
  863KAXM    C3 6037   0.593   3.417   1.660
  863KAXM    C2 6038   0.579   3.366   1.517
  863KAXM    C1 6039   0.634   3.471   1.421
  863KAXM    O1 6040   0.610   3.435   1.285
  863KAXM    H1 6041   0.609   3.520   1.231
  864KAXM    H8 6042   2.483   5.480   0.811
  864KAXM    O2 6043   2.512   5.567   0.768
  864KAXM    C3 6044   2.649   5.588   0.805
  864KAXM    C2 6045   2.737   5.504   0.715
  864KAXM    C1 6046   2.884   5.518   0.751
  864KAXM    O1 6047   2.966   5.449   0.656
  864KAXM    H1 6048   3.062   5.480   0.668
  865KAXM    H8 6049   4.355   1.783   0.674
  865KAXM    O2 6050   4.316   1.715   0.736
  865KAXM    C3 6051   4.276   1.596   0.666
  865KAXM    C2 6052   4.162   1.525   0.737
  865KAXM    C1 6053   4.036   1.610   0.735
  865KAXM    O1 6054   3.929   1.555   0.815
  865KAXM    H1 6055   3.845   1.605   0.792
  866KAXM    H8 6056   1.159   5.136   3.720
  866KAXM    O2 6057   1.247   5.098   3.740
  866KAXM    C3 6058   1.329   5.102   3.622
  866KAXM    C2 6059   1.365   5.244   3.580
  866KAXM    C1 6060   1.454   5.239   3.457
  866KAXM    O1 6061   1.495   5.367   3.407
  866KAXM    H1 6062   1.414   5.415   3.369
  867KAXM    H8 6063   4.328   5.326   1.921
  867KAXM    O2 6064   4.305   5.355   1.827
  867KAXM    C3 6065   4.313   5.239   1.742
  867KAXM    C2 6066   4.299   5.272   1.594
  867KAXM    C1 6067   4.423   5.340   1.538
  867KAXM    O1 6068   4.400   5.379   1.402
  867KAXM    H1 6069   4.486   5.390   1.352
  868KAXM    H8 6070   2.597   3.517   1.833
  868KAXM    O2 6071   2.533   3.508   1.911
  868KAXM    C3 6072   2.400   3.493   1.856
  868KAXM    C2 6073   2.325   3.377   1.919
  868KAXM    C1 6074   2.189   3.365   1.853
  868KAXM    O1 6075   2.115   3.255   1.908
  868KAXM    H1 6076   2.076   3.284   1.997
  869KAXM    H8 6077   1.385   4.284   2.186
  869KAXM    O2 6078   1.380   4.184   2.193
  869KAXM    C3 6079   1.407   4.146   2.329
  869KAXM    C2 6080   1.554   4.167   2.364
  869KAXM    C1 6081   1.588   4.125   2.506
  869KAXM    O1 6082   1.729   4.097   2.521
  869KAXM    H1 6083   1.762   4.140   2.607
  870KAXM    H8 6084   3.054   1.701   2.288
  870KAXM    O2 6085   3.089   1.702   2.384
  870KAXM    C3 6086   3.098   1.565   2.430
  870KAXM    C2 6087   2.995   1.529   2.537
  870KAXM    C1 6088   3.015   1.613   2.663
  870KAXM    O1 6089   2.931   1.569   2.770
  870KAXM    H1 6090   2.921   1.645   2.837
  871KAXM    H8 6091   0.010   2.708   4.181
  871KAXM    O2 6092   5.988   2.794   4.226
  871KAXM    C3 6093   5.967   2.769   4.366
  871KAXM    C2 6094   5.881   2.645   4.385
  871KAXM    C1 6095   5.910   2.579   4.518
  871KAXM    O1 6096   5.870   2.661   4.629
  871KAXM    H1 6097   5.834   2.598   4.700
  872KAXM    H8 6098   5.853   3.030   1.177
  872KAXM    O2 6099   5.924   2.973   1.219
  872KAXM    C3 6100   0.016   3.056   1.291
  872KAXM    C2 6101   0.091   3.154   1.201
  872KAXM    C1 6102   0.167   3.258   1.283
  872KAXM    O1 6103   0.279   3.203   1.355
  872KAXM    H1 6104   0.360   3.209   1.297
  873KAXM    H8 6105   0.512   0.834   2.301
  873KAXM    O2 6106   0.581   0.769   2.338
  873KAXM    C3 6107   0.668   0.840   2.429
  873KAXM    C2 6108   0.647   0.799   2.575
  873KAXM    C1 6109   0.712   0.903   2.665
  873KAXM    O1 6110   0.721   0.864   2.803
  873KAXM    H1 6111   0.744   0.947   2.857
  874KAXM    H8 6112   3.668   1.127   0.905
  874KAXM    O2 6113   3.656   1.104   1.004
  874KAXM    C3 6114   3.775   1.142   1.077
  874KAXM    C2 6115   3.766   1.102   1.224
  874KAXM    C1 6116   3.897   1.039   1.269
  874KAXM    O1 6117   3.888   0.991   1.404
  874KAXM    H1 6118   3.959   0.922   1.420
  875KAXM    H8 6119   5.406   3.289   2.966
  875KAXM    O2 6120   5.313   3.331   2.967
  875KAXM    C3 6121   5.303   3.429   2.862
  875KAXM    C2 6122   5.366   3.385   2.730
  875KAXM    C1 6123   5.353   3.497   2.627
  875KAXM    O1 6124   5.428   3.473   2.507
  875KAXM    H1 6125   5.402   3.539   2.436
  876KAXM    H8 6126   2.617   1.014   3.758
  876KAXM    O2 6127   2.639   0.949   3.688
  876KAXM    C3 6128   2.518   0.917   3.617
  876KAXM    C2 6129   2.506   0.992   3.485
  876KAXM    C1 6130   2.608   0.945   3.383
  876KAXM    O1 6131   2.617   1.032   3.269
  876KAXM    H1 6132   2.684   0.993   3.208
  877KAXM    H8 6133   4.379   0.177   4.239
  877KAXM    O2 6134   4.306   0.133   4.189
  877KAXM    C3 6135   4.221   0.239   4.141
  877KAXM    C2 6136   4.102   0.192   4.059
  877KAXM    C1 6137   3.988   0.134   4.142
  877KAXM    O1 6138   3.919   0.234   4.220
  877KAXM    H1 6139   3.844   0.189   4.273
  878KAXM    H8 6140   1.271   5.867   5.669
  878KAXM    O2 6141   1.210   5.795   5.704
  878KAXM    C3 6142   1.109   5.852   5.789
  878KAXM    C2 6143   1.166   5.899   5.922
  878KAXM    C1 6144   1.056   5.965   0.003
  878KAXM    O1 6145   1.109   0.029   0.120
  878KAXM    H1 6146   1.051   0.005   0.198
  879KAXM    H8 6147   2.423   0.078   0.830
  879KAXM    O2 6148   2.424   0.146   0.902
  879KAXM    C3 6149   2.546   0.221   0.904
  879KAXM    C2 6150   2.558   0.304   1.031
  879KAXM    C1 6151   2.667   0.410   1.019
  879KAXM    O1 6152   2.623   0.527   0.946
  879KAXM    H1 6153   2.614   0.509   0.848
  880KAXM    H8 6154   0.954   5.126   2.315
  880KAXM    O2 6155   0.905   5.146   2.229
  880KAXM    C3 6156   1.001   5.154   2.123
  880KAXM    C2 6157   0.942   5.206   1.992
  880KAXM    C1 6158   0.843   5.108   1.932
  880KAXM    O1 6159   0.904   4.982   1.897
  880KAXM    H1 6160   0.828   4.916   1.882
  881KAXM    H8 6161   0.735   2.703   0.373
  881KAXM    O2 6162   0.787   2.757   0.441
  881KAXM    C3 6163   0.884   2.670   0.503
  881KAXM    C2 6164   0.989   2.630   0.401
  881KAXM    C1 6165   1.078   2.520   0.454
  881KAXM    O1 6166   1.177   2.484   0.357
  881KAXM    H1 6167   1.238   2.563   0.341
  882KAXM    H8 6168   2.836   3.623   0.303
  882KAXM    O2 6169   2.857   3.708   0.355
  882KAXM    C3 6170   2.840   3.676   0.494
  882KAXM    C2 6171   2.702   3.717   0.542
  882KAXM    C1 6172   2.657   3.635   0.662
  882KAXM    O1 6173   2.531   3.679   0.714
  882KAXM    H1 6174   2.477   3.724   0.641
  883KAXM    H8 6175   4.862   3.568   1.366
  883KAXM    O2 6176   4.836   3.604   1.457
  883KAXM    C3 6177   4.881   3.740   1.467
  883KAXM    C2 6178   4.801   3.819   1.570
  883KAXM    C1 6179   4.857   3.960   1.583
  883KAXM    O1 6180   4.771   4.045   1.660
  883KAXM    H1 6181   4.684   4.053   1.612
  884KAXM    H8 6182   5.638   2.264   0.431
  884KAXM    O2 6183   5.550   2.307   0.457
  884KAXM    C3 6184   5.499   2.242   0.575
  884KAXM    C2 6185   5.468   2.342   0.685
  884KAXM    C1 6186   5.390   2.272   0.796
  884KAXM    O1 6187   5.366   2.356   0.910
  884KAXM    H1 6188   5.442   2.344   0.976
  885KAXM    H8 6189   1.103   4.130   3.744
  885KAXM    O2 6190   1.137   4.221   3.746
  885KAXM    C3 6191   1.039   4.305   3.809
  885KAXM    C2 6192   1.091   4.356   3.943
  885KAXM    C1 6193   0.987   4.438   4.018
  885KAXM    O1 6194   0.877   4.356   4.060
  885KAXM    H1 6195   0.813   4.411   4.118
  886KAXM    H8 6196   3.537   2.137   5.986
  886KAXM    O2 6197   3.626   2.188   5.982
  886KAXM    C3 6198   3.666   2.221   0.117
  886KAXM    C2 6199   3.704   2.097   0.195
  886KAXM    C1 6200   3.749   2.131   0.336
  886KAXM    O1 6201   3.770   2.013   0.417
  886KAXM    H1 6202   3.684   1.996   0.471
  887KAXM    H8 6203   4.761   5.394   0.160
  887KAXM    O2 6204   4.758   5.480   0.106
  887KAXM    C3 6205   4.758   5.447   5.965
  887KAXM    C2 6206   4.648   5.347   5.933
  887KAXM    C1 6207   4.652   5.294   5.790
  887KAXM    O1 6208   4.579   5.170   5.782
  887KAXM    H1 6209   4.481   5.186   5.766
  888KAXM    H8 6210   5.405   1.486   2.187
  888KAXM    O2 6211   5.310   1.458   2.205
  888KAXM    C3 6212   5.302   1.416   2.343
  888KAXM    C2 6213   5.296   1.264   2.353
  888KAXM    C1 6214   5.287   1.215   2.497
  888KAXM    O1 6215   5.257   1.074   2.499
  888KAXM    H1 6216   5.173   1.058   2.443
  889KAXM    H8 6217   4.317   4.326   3.630
  889KAXM    O2 6218   4.361   4.412   3.601
  889KAXM    C3 6219   4.296   4.459   3.482
  889KAXM    C2 6220   4.145   4.471   3.501
  889KAXM    C1 6221   4.069   4.434   3.374
  889KAXM    O1 6222   4.093   4.297   3.337
  889KAXM    H1 6223   4.009   4.255   3.302
  890KAXM    H8 6224   3.305   3.438   0.504
  890KAXM    O2 6225   3.260   3.348   0.518
  890KAXM    C3 6226   3.327   3.250   0.437
  890KAXM    C2 6227   3.266   3.111   0.450
  890KAXM    C1 6228   3.295   3.050   0.586
  890KAXM    O1 6229   3.202   2.946   0.618
  890KAXM    H1 6230   3.155   2.972   0.702
  891KAXM    H8 6231   1.507   1.700   1.783
  891KAXM    O2 6232   1.532   1.739   1.873
  891KAXM    C3 6233   1.622   1.651   1.942
  891KAXM    C2 6234   1.748   1.726   1.984
  891KAXM    C1 6235   1.847   1.635   2.054
  891KAXM    O1 6236   1.977   1.696   2.059
  891KAXM    H1 6237   2.023   1.669   2.143
  892KAXM    H8 6238   1.021   5.846   2.903
  892KAXM    O2 6239   0.928   5.883   2.890
  892KAXM    C3 6240   0.854   5.792   2.806
  892KAXM    C2 6241   0.705   5.801   2.833
  892KAXM    C1 6242   0.623   5.742   2.720
  892KAXM    O1 6243   0.486   5.739   2.761
  892KAXM    H1 6244   0.425   5.741   2.682
  893KAXM    H8 6245   3.419   1.368   1.031
  893KAXM    O2 6246   3.442   1.463   1.007
  893KAXM    C3 6247   3.586   1.466   0.998
  893KAXM    C2 6248   3.648   1.590   1.060
  893KAXM    C1 6249   3.635   1.594   1.211
  893KAXM    O1 6250   3.708   1.706   1.263
  893KAXM    H1 6251   3.806   1.697   1.240
  894KAXM    H8 6252   1.166   1.028   3.349
  894KAXM    O2 6253   1.201   1.123   3.349
  894KAXM    C3 6254   1.143   1.194   3.238
  894KAXM    C2 6255   1.235   1.194   3.117
  894KAXM    C1 6256   1.254   1.055   3.057
  894KAXM    O1 6257   1.357   1.055   2.957
  894KAXM    H1 6258   1.314   1.067   2.869
  895KAXM    H8 6259   0.200   2.451   5.639
  895KAXM    O2 6260   0.213   2.524   5.570
  895KAXM    C3 6261   0.080   2.568   5.535
  895KAXM    C2 6262   0.016   2.479   5.429
  895KAXM    C1 6263   5.881   2.537   5.391
  895KAXM    O1 6264   5.822   2.468   5.279
  895KAXM    H1 6265   5.757   2.398   5.314
  896KAXM    H8 6266   3.712   5.180   4.902
  896KAXM    O2 6267   3.809   5.193   4.922
  896KAXM    C3 6268   3.839   5.176   5.062
  896KAXM    C2 6269   3.849   5.306   5.141
  896KAXM    C1 6270   3.712   5.369   5.163
  896KAXM    O1 6271   3.714   5.478   5.257
  896KAXM    H1 6272   3.617   5.508   5.273
  897KAXM    H8 6273   4.872   3.594   2.673
  897KAXM    O2 6274   4.840   3.500   2.670
  897KAXM    C3 6275   4.935   3.415   2.736
  897KAXM    C2 6276   4.897   3.268   2.720
  897KAXM    C1 6277   5.004   3.177   2.777
  897KAXM    O1 6278   4.978   3.040   2.746
  897KAXM    H1 6279   4.919   2.999   2.818
  898KAXM    H8 6280   0.868   0.570   1.275
  898KAXM    O2 6281   0.865   0.502   1.200
  898KAXM    C3 6282   0.828   0.565   1.076
  898KAXM    C2 6283   0.911   0.514   0.958
  898KAXM    C1 6284   0.874   0.588   0.829
  898KAXM    O1 6285   0.963   0.557   0.720
  898KAXM    H1 6286   0.970   0.637   0.660
  899KAXM    H8 6287   4.020   4.581   1.124
  899KAXM    O2 6288   4.076   4.505   1.159
  899KAXM    C3 6289   3.992   4.388   1.158
  899KAXM    C2 6290   4.050   4.266   1.228
  899KAXM    C1 6291   4.159   4.199   1.145
  899KAXM    O1 6292   4.188   4.068   1.195
  899KAXM    H1 6293   4.102   4.015   1.198
  900KAXM    H8 6294   4.699   3.740   0.846
  900KAXM    O2 6295   4.751   3.826   0.858
  900KAXM    C3 6296   4.656   3.930   0.888
  900KAXM    C2 6297   4.600   3.914   1.029
  900KAXM    C1 6298   4.488   4.013   1.054
  900KAXM    O1 6299   4.428   3.997   1.184
  900KAXM    H1 6300   4.333   4.033   1.182
  901KAXM    H8 6301   5.807   2.843   3.650
  901KAXM    O2 6302   5.750   2.841   3.733
  901KAXM    C3 6303   5.693   2.972   3.748
  901KAXM    C2 6304   5.557   2.970   3.815
  901KAXM    C1 6305   5.502   3.112   3.822
  901KAXM    O1 6306   5.377   3.117   3.893
  901KAXM    H1 6307   5.307   3.068   3.844
  902KAXM    H8 6308   1.859   5.172   0.226
  902KAXM    O2 6309   1.821   5.178   0.319
  902KAXM    C3 6310   1.678   5.174   0.309
  902KAXM    C2 6311   1.630   5.296   0.232
  902KAXM    C1 6312   1.481   5.288   0.208
  902KAXM    O1 6313   1.440   5.393   0.119
  902KAXM    H1 6314   1.350   5.370   0.081
  903KAXM    H8 6315   4.435   1.949   2.570
  903KAXM    O2 6316   4.384   1.998   2.502
  903KAXM    C3 6317   4.412   1.938   2.374
  903KAXM    C2 6318   4.338   2.006   2.259
  903KAXM    C1 6319   4.370   1.943   2.124
  903KAXM    O1 6320   4.302   2.007   2.014
  903KAXM    H1 6321   4.368   2.027   1.944
  904KAXM    H8 6322   2.228   5.375   3.291
  904KAXM    O2 6323   2.136   5.388   3.331
  904KAXM    C3 6324   2.062   5.470   3.238
  904KAXM    C2 6325   1.930   5.408   3.193
  904KAXM    C1 6326   1.828   5.402   3.306
  904KAXM    O1 6327   1.703   5.350   3.258
  904KAXM    H1 6328   1.631   5.363   3.328
  905KAXM    H8 6329   0.803   2.219   0.032
  905KAXM    O2 6330   0.710   2.181   0.023
  905KAXM    C3 6331   0.630   2.220   0.135
  905KAXM    C2 6332   0.701   2.183   0.264
  905KAXM    C1 6333   0.641   2.246   0.388
  905KAXM    O1 6334   0.636   2.390   0.384
  905KAXM    H1 6335   0.574   2.420   0.459
  906KAXM    H8 6336   3.052   2.669   5.088
  906KAXM    O2 6337   3.103   2.673   5.001
  906KAXM    C3 6338   3.190   2.561   4.981
  906KAXM    C2 6339   3.223   2.547   4.832
  906KAXM    C1 6340   3.327   2.440   4.805
  906KAXM    O1 6341   3.457   2.479   4.853
  906KAXM    H1 6342   3.486   2.562   4.803
  907KAXM    H8 6343   3.922   2.299   3.212
  907KAXM    O2 6344   3.876   2.380   3.245
  907KAXM    C3 6345   3.795   2.342   3.358
  907KAXM    C2 6346   3.647   2.347   3.322
  907KAXM    C1 6347   3.557   2.339   3.445
  907KAXM    O1 6348   3.419   2.367   3.413
  907KAXM    H1 6349   3.409   2.464   3.389
  908KAXM    H8 6350   4.215   5.887   5.256
  908KAXM    O2 6351   4.256   5.817   5.197
  908KAXM    C3 6352   4.398   5.827   5.204
  908KAXM    C2 6353   4.451   5.754   5.327
  908KAXM    C1 6354   4.600   5.724   5.314
  908KAXM    O1 6355   4.683   5.842   5.315
  908KAXM    H1 6356   4.705   5.863   5.409
  909KAXM    H8 6357   4.696   5.029   4.839
  909KAXM    O2 6358   4.747   5.057   4.922
  909KAXM    C3 6359   4.861   5.135   4.882
  909KAXM    C2 6360   4.972   5.052   4.818
  909KAXM    C1 6361   5.069   5.144   4.745
  909KAXM    O1 6362   5.181   5.075   4.688
  909KAXM    H1 6363   5.248   5.141   4.655
  910KAXM    H8 6364   5.062   5.414   3.555
  910KAXM    O2 6365   5.077   5.514   3.552
  910KAXM    C3 6366   4.990   5.574   3.455
  910KAXM    C2 6367   4.848   5.522   3.471
  910KAXM    C1 6368   4.748   5.593   3.381
  910KAXM    O1 6369   4.735   5.733   3.414
  910KAXM    H1 6370   4.702   5.742   3.510
  911KAXM    H8 6371   4.899   1.386   4.160
  911KAXM    O2 6372   4.971   1.316   4.174
  911KAXM    C3 6373   4.987   1.286   4.314
  911KAXM    C2 6374   4.954   1.140   4.341
  911KAXM    C1 6375   5.009   1.083   4.472
  911KAXM    O1 6376   4.985   0.941   4.473
  911KAXM    H1 6377   4.999   0.900   4.564
  912KAXM    H8 6378   4.644   0.924   3.478
  912KAXM    O2 6379   4.568   0.930   3.545
  912KAXM    C3 6380   4.592   0.831   3.647
  912KAXM    C2 6381   4.462   0.769   3.698
  912KAXM    C1 6382   4.491   0.673   3.812
  912KAXM    O1 6383   4.370   0.620   3.869
  912KAXM    H1 6384   4.375   0.519   3.874
  913KAXM    H8 6385   5.924   3.999   5.856
  913KAXM    O2 6386   5.973   3.981   5.941
  913KAXM    C3 6387   5.993   3.841   5.963
  913KAXM    C2 6388   0.086   3.819   0.081
  913KAXM    C1 6389   0.102   3.671   0.114
  913KAXM    O1 6390   5.994   3.619   0.194
  913KAXM    H1 6391   5.905   3.628   0.146
  914KAXM    H8 6392   1.836   4.861   3.702
  914KAXM    O2 6393   1.791   4.921   3.771
  914KAXM    C3 6394   1.794   4.864   3.903
  914KAXM    C2 6395   1.730   4.726   3.913
  914KAXM    C1 6396   1.582   4.730   3.873
  914KAXM    O1 6397   1.523   4.598   3.868
  914KAXM    H1 6398   1.443   4.599   3.930
  915KAXM    H8 6399   3.194   1.212   4.154
  915KAXM    O2 6400   3.172   1.160   4.070
  915KAXM    C3 6401   3.061   1.223   4.005
  915KAXM    C2 6402   2.942   1.223   4.100
  915KAXM    C1 6403   2.823   1.301   4.047
  915KAXM    O1 6404   2.718   1.302   4.146
  915KAXM    H1 6405   2.631   1.274   4.101
  916KAXM    H8 6406   3.295   4.936   4.113
  916KAXM    O2 6407   3.294   5.036   4.129
  916KAXM    C3 6408   3.367   5.064   4.249
  916KAXM    C2 6409   3.284   5.026   4.370
  916KAXM    C1 6410   3.344   5.091   4.493
  916KAXM    O1 6411   3.275   5.051   4.613
  916KAXM    H1 6412   3.340   4.999   4.670
  917KAXM    H8 6413   1.972   3.083   1.635
  917KAXM    O2 6414   1.891   3.070   1.578
  917KAXM    C3 6415   1.801   3.181   1.586
  917KAXM    C2 6416   1.689   3.147   1.681
  917KAXM    C1 6417   1.568   3.236   1.658
  917KAXM    O1 6418   1.467   3.213   1.758
  917KAXM    H1 6419   1.474   3.284   1.831
  918KAXM    H8 6420   1.663   1.873   2.638
  918KAXM    O2 6421   1.689   1.971   2.630
  918KAXM    C3 6422   1.833   1.982   2.629
  918KAXM    C2 6423   1.900   1.986   2.765
  918KAXM    C1 6424   2.048   1.989   2.736
  918KAXM    O1 6425   2.134   1.998   2.850
  918KAXM    H1 6426   2.119   1.926   2.920
  919KAXM    H8 6427   3.463   5.903   0.016
  919KAXM    O2 6428   3.532   5.829   0.015
  919KAXM    C3 6429   3.492   5.723   5.926
  919KAXM    C2 6430   3.390   5.633   5.994
  919KAXM    C1 6431   3.347   5.524   5.897
  919KAXM    O1 6432   3.230   5.454   5.943
  919KAXM    H1 6433   3.186   5.417   5.859
  920KAXM    H8 6434   2.736   3.263   4.673
  920KAXM    O2 6435   2.676   3.261   4.755
  920KAXM    C3 6436   2.711   3.369   4.844
  920KAXM    C2 6437   2.703   3.324   4.990
  920KAXM    C1 6438   2.695   3.444   5.083
  920KAXM    O1 6439   2.687   3.405   5.221
  920KAXM    H1 6440   2.605   3.446   5.264
  921KAXM    H8 6441   1.424   3.166   1.129
  921KAXM    O2 6442   1.492   3.235   1.098
  921KAXM    C3 6443   1.559   3.189   0.979
  921KAXM    C2 6444   1.489   3.239   0.853
  921KAXM    C1 6445   1.569   3.210   0.727
  921KAXM    O1 6446   1.518   3.280   0.612
  921KAXM    H1 6447   1.529   3.380   0.624
  922KAXM    H8 6448   0.361   3.128   0.001
  922KAXM    O2 6449   0.317   3.051   5.958
  922KAXM    C3 6450   0.396   2.936   5.990
  922KAXM    C2 6451   0.537   2.939   5.931
  922KAXM    C1 6452   0.548   2.867   5.797
  922KAXM    O1 6453   0.474   2.927   5.689
  922KAXM    H1 6454   0.438   2.851   5.632
  923KAXM    H8 6455   1.898   2.928   0.235
  923KAXM    O2 6456   1.854   2.996   0.294
  923KAXM    C3 6457   1.711   2.992   0.274
  923KAXM    C2 6458   1.643   3.106   0.349
  923KAXM    C1 6459   1.493   3.111   0.323
  923KAXM    O1 6460   1.434   3.229   0.381
  923KAXM    H1 6461   1.466   3.240   0.476
  924KAXM    H8 6462   4.220   2.125   5.434
  924KAXM    O2 6463   4.251   2.047   5.494
  924KAXM    C3 6464   4.164   1.936   5.465
  924KAXM    C2 6465   4.156   1.838   5.580
  924KAXM    C1 6466   4.056   1.729   5.547
  924KAXM    O1 6467   4.052   1.631   5.651
  924KAXM    H1 6468   3.998   1.551   5.622
  925KAXM    H8 6469   5.828   4.830   4.461
  925KAXM    O2 6470   5.904   4.779   4.416
  925KAXM    C3 6471   0.013   4.764   4.509
  925KAXM    C2 6472   5.981   4.669   4.623
  925KAXM    C1 6473   0.102   4.660   4.715
  925KAXM    O1 6474   0.076   4.589   4.837
  925KAXM    H1 6475   0.003   4.638   4.886
  926KAXM    H8 6476   4.245   3.610   2.383
  926KAXM    O2 6477   4.277   3.625   2.290
  926KAXM    C3 6478   4.175   3.692   2.214
  926KAXM    C2 6479   4.146   3.620   2.084
  926KAXM    C1 6480   4.056   3.701   1.991
  926KAXM    O1 6481   4.042   3.633   1.865
  926KAXM    H1 6482   4.135   3.623   1.824
  927KAXM    H8 6483   0.859   1.133   2.894
  927KAXM    O2 6484   0.794   1.065   2.932
  927KAXM    C3 6485   0.709   1.132   3.027
  927KAXM    C2 6486   0.767   1.124   3.167
  927KAXM    C1 6487   0.686   1.212   3.261
  927KAXM    O1 6488   0.727   1.198   3.398
  927KAXM    H1 6489   0.804   1.258   3.419
  928KAXM    H8 6490   2.146   1.386   0.734
  928KAXM    O2 6491   2.146   1.477   0.694
  928KAXM    C3 6492   2.157   1.468   0.550
  928KAXM    C2 6493   2.301   1.454   0.503
  928KAXM    C1 6494   2.316   1.494   0.356
  928KAXM    O1 6495   2.447   1.462   0.304
  928KAXM    H1 6496   2.458   1.494   0.209
  929KAXM    H8 6497   1.882   4.619   0.838
  929KAXM    O2 6498   1.943   4.554   0.787
  929KAXM    C3 6499   2.067   4.622   0.760
  929KAXM    C2 6500   2.051   4.730   0.653
  929KAXM    C1 6501   2.171   4.824   0.657
  929KAXM    O1 6502   2.172   4.919   0.548
  929KAXM    H1 6503   2.233   4.996   0.570
  930KAXM    H8 6504   0.212   2.469   1.219
  930KAXM    O2 6505   0.112   2.465   1.221
  930KAXM    C3 6506   0.060   2.504   1.349
  930KAXM    C2 6507   0.046   2.655   1.361
  930KAXM    C1 6508   5.972   2.695   1.489
  930KAXM    O1 6509   0.047   2.674   1.611
  930KAXM    H1 6510   5.982   2.667   1.688
  931KAXM    H8 6511   2.463   5.591   5.532
  931KAXM    O2 6512   2.557   5.584   5.500
  931KAXM    C3 6513   2.565   5.609   5.359
  931KAXM    C2 6514   2.606   5.484   5.281
  931KAXM    C1 6515   2.495   5.380   5.287
  931KAXM    O1 6516   2.545   5.246   5.268
  931KAXM    H1 6517   2.544   5.224   5.169
  932KAXM    H8 6518   4.467   4.727   3.882
  932KAXM    O2 6519   4.416   4.816   3.887
  932KAXM    C3 6520   4.513   4.923   3.882
  932KAXM    C2 6521   4.503   5.010   3.758
  932KAXM    C1 6522   4.551   4.942   3.631
  932KAXM    O1 6523   4.568   5.040   3.527
  932KAXM    H1 6524   4.546   4.999   3.437
  933KAXM    H8 6525   0.502   1.688   1.679
  933KAXM    O2 6526   0.432   1.617   1.674
  933KAXM    C3 6527   0.411   1.560   1.805
  933KAXM    C2 6528   0.449   1.412   1.812
  933KAXM    C1 6529   0.359   1.322   1.727
  933KAXM    O1 6530   0.419   1.193   1.710
  933KAXM    H1 6531   0.409   1.162   1.617
  934KAXM    H8 6532   4.617   1.585   1.653
  934KAXM    O2 6533   4.547   1.520   1.619
  934KAXM    C3 6534   4.456   1.482   1.724
  934KAXM    C2 6535   4.524   1.400   1.831
  934KAXM    C1 6536   4.419   1.365   1.935
  934KAXM    O1 6537   4.476   1.306   2.053
  934KAXM    H1 6538   4.403   1.310   2.123
  935KAXM    H8 6539   4.705   4.285   0.364
  935KAXM    O2 6540   4.668   4.355   0.301
  935KAXM    C3 6541   4.763   4.380   0.196
  935KAXM    C2 6542   4.749   4.275   0.087
  935KAXM    C1 6543   4.870   4.274   5.995
  935KAXM    O1 6544   4.839   4.206   5.871
  935KAXM    H1 6545   4.807   4.277   5.805
  936KAXM    H8 6546   3.484   1.130   5.898
  936KAXM    O2 6547   3.395   1.096   5.862
  936KAXM    C3 6548   3.395   1.100   5.719
  936KAXM    C2 6549   3.361   0.964   5.658
  936KAXM    C1 6550   3.358   0.971   5.505
  936KAXM    O1 6551   3.324   0.845   5.444
  936KAXM    H1 6552   3.408   0.792   5.424
  937KAXM    H8 6553   5.785   5.728   2.661
  937KAXM    O2 6554   5.803   5.795   2.587
  937KAXM    C3 6555   5.922   5.757   2.518
  937KAXM    C2 6556   0.049   5.790   2.594
  937KAXM    C1 6557   0.170   5.757   2.508
  937KAXM    O1 6558   0.291   5.762   2.586
  937KAXM    H1 6559   0.306   5.860   2.610
  938KAXM    H8 6560   4.111   4.461   1.865
  938KAXM    O2 6561   4.189   4.522   1.857
  938KAXM    C3 6562   4.263   4.522   1.980
  938KAXM    C2 6563   4.272   4.660   2.046
  938KAXM    C1 6564   4.362   4.651   2.168
  938KAXM    O1 6565   4.369   4.770   2.248
  938KAXM    H1 6566   4.466   4.796   2.259
  939KAXM    H8 6567   1.378   5.398   0.941
  939KAXM    O2 6568   1.283   5.406   0.909
  939KAXM    C3 6569   1.194   5.378   1.019
  939KAXM    C2 6570   1.067   5.461   1.014
  939KAXM    C1 6571   1.102   5.608   1.035
  939KAXM    O1 6572   0.987   5.694   1.042
  939KAXM    H1 6573   1.023   5.788   1.044
  940KAXM    H8 6574   5.987   2.014   3.760
  940KAXM    O2 6575   5.928   1.977   3.834
  940KAXM    C3 6576   5.895   2.086   3.923
  940KAXM    C2 6577   5.864   2.217   3.849
  940KAXM    C1 6578   5.736   2.204   3.768
  940KAXM    O1 6579   5.723   2.294   3.657
  940KAXM    H1 6580   5.660   2.247   3.592
  941KAXM    H8 6581   0.306   3.191   5.120
  941KAXM    O2 6582   0.290   3.168   5.023
  941KAXM    C3 6583   0.157   3.114   5.010
  941KAXM    C2 6584   0.151   2.977   5.076
  941KAXM    C1 6585   0.012   2.917   5.071
  941KAXM    O1 6586   0.011   2.795   5.148
  941KAXM    H1 6587   0.051   2.722   5.091
  942KAXM    H8 6588   3.076   2.066   2.794
  942KAXM    O2 6589   3.019   2.123   2.734
  942KAXM    C3 6590   2.886   2.069   2.724
  942KAXM    C2 6591   2.781   2.179   2.716
  942KAXM    C1 6592   2.642   2.117   2.713
  942KAXM    O1 6593   2.540   2.214   2.741
  942KAXM    H1 6594   2.462   2.167   2.786
  943KAXM    H8 6595   1.545   4.098   3.360
  943KAXM    O2 6596   1.468   4.065   3.414
  943KAXM    C3 6597   1.387   4.178   3.448
  943KAXM    C2 6598   1.257   4.179   3.370
  943KAXM    C1 6599   1.178   4.305   3.402
  943KAXM    O1 6600   1.052   4.310   3.332
  943KAXM    H1 6601   1.028   4.405   3.321
  944KAXM    H8 6602   4.292   0.726   5.417
  944KAXM    O2 6603   4.230   0.745   5.340
  944KAXM    C3 6604   4.253   0.878   5.289
  944KAXM    C2 6605   4.244   0.877   5.137
  944KAXM    C1 6606   4.276   1.014   5.080
  944KAXM    O1 6607   4.292   1.007   4.938
  944KAXM    H1 6608   4.376   0.956   4.915
  945KAXM    H8 6609   2.807   2.085   0.725
  945KAXM    O2 6610   2.781   2.122   0.816
  945KAXM    C3 6611   2.781   2.014   0.911
  945KAXM    C2 6612   2.921   1.982   0.963
  945KAXM    C1 6613   2.911   1.861   1.054
  945KAXM    O1 6614   3.037   1.826   1.112
  945KAXM    H1 6615   3.019   1.758   1.185
  946KAXM    H8 6616   4.406   3.848   3.002
  946KAXM    O2 6617   4.374   3.934   3.044
  946KAXM    C3 6618   4.414   4.050   2.967
  946KAXM    C2 6619   4.372   4.040   2.820
  946KAXM    C1 6620   4.383   4.170   2.741
  946KAXM    O1 6621   4.518   4.218   2.726
  946KAXM    H1 6622   4.548   4.208   2.630
  947KAXM    H8 6623   2.600   2.360   3.526
  947KAXM    O2 6624   2.647   2.430   3.470
  947KAXM    C3 6625   2.735   2.503   3.557
  947KAXM    C2 6626   2.672   2.632   3.609
  947KAXM    C1 6627   2.764   2.699   3.710
  947KAXM    O1 6628   2.716   2.825   3.762
  947KAXM    H1 6629   2.718   2.896   3.689
  948KAXM    H8 6630   0.871   5.086   4.685
  948KAXM    O2 6631   0.895   5.117   4.775
  948KAXM    C3 6632   0.954   5.006   4.845
  948KAXM    C2 6633   1.034   5.054   4.965
  948KAXM    C1 6634   1.059   4.941   5.064
  948KAXM    O1 6635   1.138   4.987   5.175
  948KAXM    H1 6636   1.083   5.045   5.235
  949KAXM    H8 6637   5.765   4.914   1.591
  949KAXM    O2 6638   5.666   4.931   1.570
  949KAXM    C3 6639   5.599   4.984   1.687
  949KAXM    C2 6640   5.633   4.910   1.815
  949KAXM    C1 6641   5.578   4.992   1.931
  949KAXM    O1 6642   5.594   4.931   2.060
  949KAXM    H1 6643   5.545   4.990   2.127
  950KAXM    H8 6644   3.639   5.982   5.737
  950KAXM    O2 6645   3.590   5.971   5.649
  950KAXM    C3 6646   3.646   0.070   5.561
  950KAXM    C2 6647   3.621   0.040   5.414
  950KAXM    C1 6648   3.691   0.145   5.330
  950KAXM    O1 6649   3.680   0.121   5.188
  950KAXM    H1 6650   3.584   0.133   5.158
  951KAXM    H8 6651   5.919   4.751   3.563
  951KAXM    O2 6652   5.932   4.734   3.661
  951KAXM    C3 6653   5.952   4.595   3.690
  951KAXM    C2 6654   5.850   4.504   3.624
  951KAXM    C1 6655   5.844   4.366   3.689
  951KAXM    O1 6656   5.965   4.290   3.672
  951KAXM    H1 6657   5.971   4.260   3.575
  952KAXM    H8 6658   1.422   3.878   2.714
  952KAXM    O2 6659   1.523   3.869   2.704
  952KAXM    C3 6660   1.580   3.931   2.821
  952KAXM    C2 6661   1.702   3.859   2.876
  952KAXM    C1 6662   1.667   3.720   2.929
  952KAXM    O1 6663   1.783   3.648   2.974
  952KAXM    H1 6664   1.784   3.647   3.075
  953KAXM    H8 6665   4.705   1.645   4.573
  953KAXM    O2 6666   4.717   1.710   4.645
  953KAXM    C3 6667   4.778   1.829   4.595
  953KAXM    C2 6668   4.745   1.946   4.685
  953KAXM    C1 6669   4.774   2.079   4.619
  953KAXM    O1 6670   4.722   2.190   4.695
  953KAXM    H1 6671   4.707   2.267   4.629
  954KAXM    H8 6672   1.794   3.267   5.488
  954KAXM    O2 6673   1.889   3.293   5.513
  954KAXM    C3 6674   1.888   3.435   5.534
  954KAXM    C2 6675   1.894   3.503   5.399
  954KAXM    C1 6676   1.896   3.653   5.415
  954KAXM    O1 6677   1.912   3.719   5.288
  954KAXM    H1 6678   1.960   3.805   5.305
  955KAXM    H8 6679   1.325   3.961   4.106
  955KAXM    O2 6680   1.384   3.939   4.026
  955KAXM    C3 6681   1.380   4.052   3.937
  955KAXM    C2 6682   1.479   4.156   3.987
  955KAXM    C1 6683   1.479   4.279   3.898
  955KAXM    O1 6684   1.587   4.364   3.938
  955KAXM    H1 6685   1.568   4.458   3.908
  956KAXM    H8 6686   1.101   5.184   1.431
  956KAXM    O2 6687   1.115   5.284   1.428
  956KAXM    C3 6688   1.071   5.343   1.552
  956KAXM    C2 6689   1.081   5.494   1.542
  956KAXM    C1 6690   1.110   5.555   1.678
  956KAXM    O1 6691   1.119   5.698   1.666
  956KAXM    H1 6692   1.179   5.734   1.739
  957KAXM    H8 6693   3.285   3.891   1.411
  957KAXM    O2 6694   3.307   3.885   1.509
  957KAXM    C3 6695   3.228   3.983   1.577
  957KAXM    C2 6696   3.251   3.981   1.727
  957KAXM    C1 6697   3.181   4.096   1.798
  957KAXM    O1 6698   3.197   4.086   1.941
  957KAXM    H1 6699   3.160   4.170   1.984
  958KAXM    H8 6700   2.778   4.482   0.628
  958KAXM    O2 6701   2.769   4.563   0.687
  958KAXM    C3 6702   2.775   4.522   0.825
  958KAXM    C2 6703   2.641   4.467   0.870
  958KAXM    C1 6704   2.650   4.420   1.014
  958KAXM    O1 6705   2.522   4.379   1.064
  958KAXM    H1 6706   2.483   4.453   1.121
  959KAXM    H8 6707   4.068   2.151   0.033
  959KAXM    O2 6708   4.144   2.199   0.079
  959KAXM    C3 6709   4.095   2.278   0.188
  959KAXM    C2 6710   4.149   2.226   0.321
  959KAXM    C1 6711   4.101   2.316   0.434
  959KAXM    O1 6712   4.121   2.252   0.561
  959KAXM    H1 6713   4.051   2.182   0.575
  960KAXM    H8 6714   2.036   5.131   0.870
  960KAXM    O2 6715   2.116   5.095   0.920
  960KAXM    C3 6716   2.074   5.051   1.050
  960KAXM    C2 6717   2.002   4.918   1.037
  960KAXM    C1 6718   1.936   4.875   1.167
  960KAXM    O1 6719   1.875   4.745   1.152
  960KAXM    H1 6720   1.906   4.689   1.231
  961KAXM    H8 6721   1.259   0.230   5.529
  961KAXM    O2 6722   1.281   0.153   5.468
  961KAXM    C3 6723   1.194   0.152   5.354
  961KAXM    C2 6724   1.190   0.013   5.293
  961KAXM    C1 6725   1.082   6.000   5.186
  961KAXM    O1 6726   1.108   0.071   5.063
  961KAXM    H1 6727   1.037   0.046   4.997
  962KAXM    H8 6728   3.714   3.071   0.491
  962KAXM    O2 6729   3.748   3.153   0.538
  962KAXM    C3 6730   3.652   3.197   0.636
  962KAXM    C2 6731   3.698   3.169   0.779
  962KAXM    C1 6732   3.580   3.167   0.877
  962KAXM    O1 6733   3.502   3.046   0.870
  962KAXM    H1 6734   3.413   3.062   0.915
  963KAXM    H8 6735   1.172   5.647   4.838
  963KAXM    O2 6736   1.192   5.549   4.850
  963KAXM    C3 6737   1.077   5.469   4.816
  963KAXM    C2 6738   1.055   5.454   4.666
  963KAXM    C1 6739   0.995   5.580   4.605
  963KAXM    O1 6740   1.073   5.629   4.495
  963KAXM    H1 6741   1.012   5.658   4.419
  964KAXM    H8 6742   0.279   3.721   3.278
  964KAXM    O2 6743   0.338   3.796   3.241
  964KAXM    C3 6744   0.477   3.756   3.242
  964KAXM    C2 6745   0.566   3.868   3.191
  964KAXM    C1 6746   0.671   3.818   3.093
  964KAXM    O1 6747   0.618   3.800   2.961
  964KAXM    H1 6748   0.660   3.718   2.919
  965KAXM    H8 6749   1.380   1.087   0.328
  965KAXM    O2 6750   1.434   1.027   0.389
  965KAXM    C3 6751   1.472   0.907   0.319
  965KAXM    C2 6752   1.569   0.823   0.399
  965KAXM    C1 6753   1.499   0.745   0.508
  965KAXM    O1 6754   1.593   0.680   0.596
  965KAXM    H1 6755   1.546   0.611   0.655
  966KAXM    H8 6756   5.098   4.624   1.100
  966KAXM    O2 6757   5.192   4.600   1.073
  966KAXM    C3 6758   5.226   4.694   0.970
  966KAXM    C2 6759   5.375   4.717   0.959
  966KAXM    C1 6760   5.406   4.827   0.859
  966KAXM    O1 6761   5.355   4.954   0.901
  966KAXM    H1 6762   5.429   5.018   0.924
  967KAXM    H8 6763   4.166   3.008   1.695
  967KAXM    O2 6764   4.246   2.983   1.636
  967KAXM    C3 6765   4.320   3.102   1.603
  967KAXM    C2 6766   4.469   3.071   1.584
  967KAXM    C1 6767   4.552   3.194   1.548
  967KAXM    O1 6768   4.553   3.295   1.651
  967KAXM    H1 6769   4.636   3.352   1.642
  968KAXM    H8 6770   0.297   5.690   4.378
  968KAXM    O2 6771   0.327   5.724   4.288
  968KAXM    C3 6772   0.236   5.827   4.245
  968KAXM    C2 6773   0.173   5.794   4.110
  968KAXM    C1 6774   0.083   5.906   4.060
  968KAXM    O1 6775   0.158   0.024   4.024
  968KAXM    H1 6776   0.105   0.106   4.052
  969KAXM    H8 6777   2.410   3.272   0.458
  969KAXM    O2 6778   2.446   3.197   0.515
  969KAXM    C3 6779   2.356   3.085   0.507
  969KAXM    C2 6780   2.224   3.116   0.576
  969KAXM    C1 6781   2.110   3.034   0.518
  969KAXM    O1 6782   2.074   3.073   0.383
  969KAXM    H1 6783   1.981   3.039   0.365
  970KAXM    H8 6784   1.706   1.051   2.687
  970KAXM    O2 6785   1.648   1.001   2.622
  970KAXM    C3 6786   1.660   1.056   2.490
  970KAXM    C2 6787   1.558   1.166   2.461
  970KAXM    C1 6788   1.563   1.210   2.315
  970KAXM    O1 6789   1.472   1.317   2.285
  970KAXM    H1 6790   1.515   1.405   2.311
  971KAXM    H8 6791   2.225   2.939   2.511
  971KAXM    O2 6792   2.140   2.956   2.457
  971KAXM    C3 6793   2.032   2.880   2.515
  971KAXM    C2 6794   2.013   2.748   2.441
  971KAXM    C1 6795   1.909   2.657   2.505
  971KAXM    O1 6796   1.946   2.618   2.637
  971KAXM    H1 6797   2.045   2.599   2.643
  972KAXM    H8 6798   3.833   5.955   1.277
  972KAXM    O2 6799   3.880   5.990   1.194
  972KAXM    C3 6800   3.985   5.900   1.154
  972KAXM    C2 6801   4.028   5.925   1.010
  972KAXM    C1 6802   4.152   5.845   0.974
  972KAXM    O1 6803   4.188   5.869   0.836
  972KAXM    H1 6804   4.277   5.825   0.815
  973KAXM    H8 6805   0.661   5.540   3.373
  973KAXM    O2 6806   0.753   5.579   3.374
  973KAXM    C3 6807   0.771   5.685   3.279
  973KAXM    C2 6808   0.848   5.801   3.342
  973KAXM    C1 6809   0.894   5.902   3.237
  973KAXM    O1 6810   0.944   0.025   3.293
  973KAXM    H1 6811   1.000   0.072   3.225
  974KAXM    H8 6812   2.972   3.959   2.410
  974KAXM    O2 6813   3.048   4.007   2.456
  974KAXM    C3 6814   3.054   4.140   2.401
  974KAXM    C2 6815   3.096   4.142   2.255
  974KAXM    C1 6816   3.086   4.284   2.203
  974KAXM    O1 6817   3.100   4.292   2.061
  974KAXM    H1 6818   3.062   4.382   2.034
  975KAXM    H8 6819   4.966   1.921   2.422
  975KAXM    O2 6820   5.054   1.901   2.466
  975KAXM    C3 6821   5.156   1.963   2.387
  975KAXM    C2 6822   5.276   1.872   2.368
  975KAXM    C1 6823   5.368   1.933   2.264
  975KAXM    O1 6824   5.487   1.854   2.244
  975KAXM    H1 6825   5.555   1.883   2.314
  976KAXM    H8 6826   4.535   0.470   5.304
  976KAXM    O2 6827   4.459   0.461   5.371
  976KAXM    C3 6828   4.458   0.326   5.422
  976KAXM    C2 6829   4.593   0.284   5.480
  976KAXM    C1 6830   4.620   0.357   5.610
  976KAXM    O1 6831   4.756   0.339   5.654
  976KAXM    H1 6832   4.774   0.241   5.671
  977KAXM    H8 6833   5.554   1.556   0.833
  977KAXM    O2 6834   5.591   1.624   0.899
  977KAXM    C3 6835   5.681   1.557   0.989
  977KAXM    C2 6836   5.828   1.586   0.965
  977KAXM    C1 6837   5.879   1.710   1.037
  977KAXM    O1 6838   0.022   1.715   1.037
  977KAXM    H1 6839   0.050   1.805   1.075
  978KAXM    H8 6840   5.439   3.439   4.350
  978KAXM    O2 6841   5.344   3.468   4.329
  978KAXM    C3 6842   5.259   3.355   4.303
  978KAXM    C2 6843   5.283   3.293   4.166
  978KAXM    C1 6844   5.268   3.396   4.055
  978KAXM    O1 6845   5.272   3.339   3.922
  978KAXM    H1 6846   5.329   3.255   3.924
  979KAXM    H8 6847   5.654   3.702   0.964
  979KAXM    O2 6848   5.702   3.617   0.938
  979KAXM    C3 6849   5.824   3.607   1.015
  979KAXM    C2 6850   5.923   3.718   0.981
  979KAXM    C1 6851   0.039   3.718   1.079
  979KAXM    O1 6852   0.144   3.808   1.037
  979KAXM    H1 6853   0.196   3.834   1.118
  980KAXM    H8 6854   5.061   1.901   4.231
  980KAXM    O2 6855   5.150   1.890   4.274
  980KAXM    C3 6856   5.143   1.821   4.400
  980KAXM    C2 6857   5.089   1.680   4.382
  980KAXM    C1 6858   5.093   1.598   4.510
  980KAXM    O1 6859   5.223   1.544   4.537
  980KAXM    H1 6860   5.280   1.615   4.583
  981KAXM    H8 6861   3.309   3.774   4.458
  981KAXM    O2 6862   3.329   3.849   4.398
  981KAXM    C3 6863   3.277   3.815   4.268
  981KAXM    C2 6864   3.240   3.937   4.185
  981KAXM    C1 6865   3.202   3.893   4.044
  981KAXM    O1 6866   3.084   3.810   4.040
  981KAXM    H1 6867   3.001   3.867   4.033
  982KAXM    H8 6868   5.685   1.371   0.260
  982KAXM    O2 6869   5.607   1.435   0.251
  982KAXM    C3 6870   5.495   1.380   0.323
  982KAXM    C2 6871   5.358   1.417   0.268
  982KAXM    C1 6872   5.333   1.355   0.131
  982KAXM    O1 6873   5.208   1.396   0.074
  982KAXM    H1 6874   5.218   1.484   0.027
  983KAXM    H8 6875   2.712   2.498   5.662
  983KAXM    O2 6876   2.693   2.559   5.582
  983KAXM    C3 6877   2.792   2.530   5.482
  983KAXM    C2 6878   2.805   2.643   5.382
  983KAXM    C1 6879   2.924   2.617   5.290
  983KAXM    O1 6880   2.948   2.725   5.198
  983KAXM    H1 6881   2.989   2.804   5.249
  984KAXM    H8 6882   1.566   4.234   0.534
  984KAXM    O2 6883   1.497   4.164   0.513
  984KAXM    C3 6884   1.367   4.225   0.506
  984KAXM    C2 6885   1.256   4.121   0.495
  984KAXM    C1 6886   1.124   4.189   0.465
  984KAXM    O1 6887   1.013   4.097   0.468
  984KAXM    H1 6888   0.983   4.075   0.374
  985KAXM    H8 6889   3.945   5.507   2.745
  985KAXM    O2 6890   4.045   5.487   2.741
  985KAXM    C3 6891   4.088   5.417   2.859
  985KAXM    C2 6892   4.108   5.505   2.982
  985KAXM    C1 6893   4.171   5.421   3.092
  985KAXM    O1 6894   4.179   5.489   3.218
  985KAXM    H1 6895   4.120   5.442   3.285
  986KAXM    H8 6896   0.058   1.753   4.589
  986KAXM    O2 6897   0.111   1.669   4.572
  986KAXM    C3 6898   0.182   1.683   4.448
  986KAXM    C2 6899   0.280   1.570   4.426
  986KAXM    C1 6900   0.336   1.581   4.285
  986KAXM    O1 6901   0.441   1.484   4.265
  986KAXM    H1 6902   0.528   1.527   4.292
  987KAXM    H8 6903   3.204   4.733   3.499
  987KAXM    O2 6904   3.196   4.636   3.523
  987KAXM    C3 6905   3.059   4.594   3.514
  987KAXM    C2 6906   3.051   4.444   3.493
  987KAXM    C1 6907   2.907   4.397   3.484
  987KAXM    O1 6908   2.900   4.254   3.473
  987KAXM    H1 6909   2.803   4.224   3.465
  988KAXM    H8 6910   1.994   1.730   4.599
  988KAXM    O2 6911   1.929   1.654   4.621
  988KAXM    C3 6912   1.812   1.664   4.539
  988KAXM    C2 6913   1.843   1.614   4.399
  988KAXM    C1 6914   1.716   1.605   4.317
  988KAXM    O1 6915   1.742   1.537   4.194
  988KAXM    H1 6916   1.690   1.579   4.121
  989KAXM    H8 6917   3.932   5.119   3.493
  989KAXM    O2 6918   4.019   5.154   3.534
  989KAXM    C3 6919   4.111   5.044   3.536
  989KAXM    C2 6920   4.092   4.955   3.658
  989KAXM    C1 6921   4.182   4.833   3.647
  989KAXM    O1 6922   4.198   4.767   3.774
  989KAXM    H1 6923   4.286   4.796   3.815
  990KAXM    H8 6924   5.230   3.573   2.274
  990KAXM    O2 6925   5.146   3.530   2.241
  990KAXM    C3 6926   5.095   3.439   2.340
  990KAXM    C2 6927   5.145   3.297   2.316
  990KAXM    C1 6928   5.064   3.197   2.395
  990KAXM    O1 6929   5.108   3.061   2.373
  990KAXM    H1 6930   5.109   3.041   2.274
  991KAXM    H8 6931   1.527   0.416   0.785
  991KAXM    O2 6932   1.498   0.505   0.747
  991KAXM    C3 6933   1.357   0.523   0.771
  991KAXM    C2 6934   1.324   0.579   0.908
  991KAXM    C1 6935   1.357   0.486   1.023
  991KAXM    O1 6936   1.327   0.548   1.149
  991KAXM    H1 6937   1.303   0.479   1.214
  992KAXM    H8 6938   3.802   3.980   5.955
  992KAXM    O2 6939   3.855   4.064   5.973
  992KAXM    C3 6940   3.888   4.128   5.848
  992KAXM    C2 6941   3.766   4.143   5.760
  992KAXM    C1 6942   3.799   4.211   5.627
  992KAXM    O1 6943   3.686   4.207   5.538
  992KAXM    H1 6944   3.683   4.293   5.484
  993KAXM    H8 6945   2.479   5.594   2.742
  993KAXM    O2 6946   2.464   5.686   2.702
  993KAXM    C3 6947   2.485   5.786   2.804
  993KAXM    C2 6948   2.592   5.884   2.758
  993KAXM    C1 6949   2.631   5.985   2.865
  993KAXM    O1 6950   2.748   0.059   2.824
  993KAXM    H1 6951   2.726   0.158   2.821
  994KAXM    H8 6952   0.076   5.808   3.705
  994KAXM    O2 6953   5.999   5.758   3.745
  994KAXM    C3 6954   0.037   5.622   3.767
  994KAXM    C2 6955   5.917   5.529   3.774
  994KAXM    C1 6956   5.840   5.551   3.903
  994KAXM    O1 6957   5.727   5.464   3.908
  994KAXM    H1 6958   5.659   5.505   3.970
  995KAXM    H8 6959   2.076   3.305   3.280
  995KAXM    O2 6960   2.016   3.380   3.312
  995KAXM    C3 6961   2.095   3.498   3.331
  995KAXM    C2 6962   2.179   3.487   3.457
  995KAXM    C1 6963   2.265   3.611   3.479
  995KAXM    O1 6964   2.365   3.585   3.579
  995KAXM    H1 6965   2.326   3.603   3.671
  996KAXM    H8 6966   2.063   1.220   4.011
  996KAXM    O2 6967   2.086   1.301   3.960
  996KAXM    C3 6968   1.998   1.408   3.998
  996KAXM    C2 6969   1.992   1.516   3.890
  996KAXM    C1 6970   1.910   1.635   3.936
  996KAXM    O1 6971   1.905   1.740   3.839
  996KAXM    H1 6972   1.955   1.821   3.876
  997KAXM    H8 6973   3.099   0.213   3.023
  997KAXM    O2 6974   3.073   0.129   3.072
  997KAXM    C3 6975   2.935   0.135   3.111
  997KAXM    C2 6976   2.925   0.103   3.259
  997KAXM    C1 6977   2.786   0.124   3.318
  997KAXM    O1 6978   2.687   0.028   3.277
  997KAXM    H1 6979   2.732   5.937   3.269
  998KAXM    H8 6980   0.809   0.014   3.633
  998KAXM    O2 6981   0.792   5.958   3.716
  998KAXM    C3 6982   0.684   0.016   3.791
  998KAXM    C2 6983   0.545   5.972   3.751
  998KAXM    C1 6984   0.448   0.013   3.862
  998KAXM    O1 6985   0.313   5.979   3.831
  998KAXM    H1 6986   0.255   5.997   3.913
  999KAXM    H8 6987   3.290   5.273   2.274
  999KAXM    O2 6988   3.240   5.189   2.251
  999KAXM    C3 6989   3.294   5.130   2.132
  999KAXM    C2 6990   3.399   5.220   2.070
  999KAXM    C1 6991   3.453   5.165   1.940
  999KAXM    O1 6992   3.529   5.267   1.873
  999KAXM    H1 6993   3.593   5.311   1.939
 1000KAXM    H8 6994   2.261   2.070   2.854
 1000KAXM    O2 6995   2.352   2.114   2.869
 1000KAXM    C3 6996   2.368   2.132   3.010
 1000KAXM    C2 6997   2.267   2.233   3.062
 1000KAXM    C1 6998   2.289   2.256   3.210
 1000KAXM    O1 6999   2.214   2.367   3.264
 1000KAXM    H1 7000   2.228   2.365   3.364
 1001KAXM    H8 7001   0.793   3.017   1.649
 1001KAXM    O2 7002   0.816   2.926   1.612
 1001KAXM    C3 7003   0.864   2.937   1.477
 1001KAXM    C2 7004   0.919   2.804   1.430
 1001KAXM    C1 7005   0.966   2.814   1.285
 1001KAXM    O1 7006   1.014   2.688   1.236
 1001KAXM    H1 7007   1.106   2.668   1.271
 1002KAXM    H8 7008   1.662   0.434   4.515
 1002KAXM    O2 7009   1.598   0.494   4.564
 1002KAXM    C3 7010   1.492   0.416   4.622
 1002KAXM    C2 7011   1.360   0.429   4.548
 1002KAXM    C1 7012   1.257   0.341   4.617
 1002KAXM    O1 7013   1.131   0.333   4.549
 1002KAXM    H1 7014   1.066   0.297   4.613
 1003KAXM    H8 7015   1.181   1.232   1.738
 1003KAXM    O2 7016   1.182   1.170   1.817
 1003KAXM    C3 7017   1.236   1.240   1.931
 1003KAXM    C2 7018   1.150   1.227   2.056
 1003KAXM    C1 7019   1.020   1.305   2.042
 1003KAXM    O1 7020   0.932   1.276   2.151
 1003KAXM    H1 7021   0.857   1.339   2.151
 1004KAXM    H8 7022   2.835   0.825   0.420
 1004KAXM    O2 7023   2.774   0.752   0.457
 1004KAXM    C3 7024   2.664   0.813   0.528
 1004KAXM    C2 7025   2.612   0.940   0.460
 1004KAXM    C1 7026   2.554   0.912   0.322
 1004KAXM    O1 7027   2.565   1.030   0.241
 1004KAXM    H1 7028   2.481   1.087   0.246
 1005KAXM    H8 7029   5.026   0.134   2.908
 1005KAXM    O2 7030   4.980   0.173   2.826
 1005KAXM    C3 7031   5.073   0.173   2.717
 1005KAXM    C2 7032   5.007   0.216   2.587
 1005KAXM    C1 7033   5.107   0.219   2.473
 1005KAXM    O1 7034   5.042   0.237   2.346
 1005KAXM    H1 7035   5.106   0.199   2.278
 1006KAXM    H8 7036   5.600   5.067   5.531
 1006KAXM    O2 7037   5.617   5.020   5.618
 1006KAXM    C3 7038   5.628   5.118   5.723
 1006KAXM    C2 7039   5.591   5.058   5.858
 1006KAXM    C1 7040   5.591   5.165   5.968
 1006KAXM    O1 7041   5.574   5.109   0.100
 1006KAXM    H1 7042   5.477   5.099   0.119
 1007KAXM    H8 7043   5.205   0.416   3.320
 1007KAXM    O2 7044   5.287   0.404   3.380
 1007KAXM    C3 7045   5.385   0.324   3.309
 1007KAXM    C2 7046   5.496   0.279   3.403
 1007KAXM    C1 7047   5.604   0.194   3.337
 1007KAXM    O1 7048   5.705   0.154   3.433
 1007KAXM    H1 7049   5.668   0.077   3.488
 1008KAXM    H8 7050   4.469   3.839   3.626
 1008KAXM    O2 7051   4.411   3.847   3.708
 1008KAXM    C3 7052   4.490   3.861   3.827
 1008KAXM    C2 7053   4.495   4.007   3.871
 1008KAXM    C1 7054   4.561   4.017   4.007
 1008KAXM    O1 7055   4.577   4.153   4.048
 1008KAXM    H1 7056   4.666   4.189   4.018
 1009KAXM    H8 7057   4.884   4.709   2.721
 1009KAXM    O2 7058   4.938   4.779   2.769
 1009KAXM    C3 7059   4.898   4.779   2.907
 1009KAXM    C2 7060   4.984   4.872   2.990
 1009KAXM    C1 7061   4.930   4.884   3.132
 1009KAXM    O1 7062   5.015   4.970   3.209
 1009KAXM    H1 7063   5.087   4.916   3.253
 1010KAXM    H8 7064   3.835   4.710   0.168
 1010KAXM    O2 7065   3.807   4.804   0.197
 1010KAXM    C3 7066   3.904   4.851   0.292
 1010KAXM    C2 7067   3.890   5.001   0.313
 1010KAXM    C1 7068   4.024   5.061   0.352
 1010KAXM    O1 7069   4.026   5.205   0.348
 1010KAXM    H1 7070   3.982   5.241   0.263
 1011KAXM    H8 7071   0.828   2.531   2.578
 1011KAXM    O2 7072   0.740   2.577   2.596
 1011KAXM    C3 7073   0.712   2.666   2.487
 1011KAXM    C2 7074   0.666   2.590   2.363
 1011KAXM    C1 7075   0.647   2.680   2.241
 1011KAXM    O1 7076   0.536   2.769   2.254
 1011KAXM    H1 7077   0.458   2.735   2.200
 1012KAXM    H8 7078   1.002   1.093   1.590
 1012KAXM    O2 7079   1.047   1.106   1.499
 1012KAXM    C3 7080   0.976   1.022   1.406
 1012KAXM    C2 7081   0.977   0.877   1.451
 1012KAXM    C1 7082   0.876   0.796   1.372
 1012KAXM    O1 7083   0.881   0.657   1.406
 1012KAXM    H1 7084   0.869   0.648   1.506
 1013KAXM    H8 7085   0.363   2.787   4.615
 1013KAXM    O2 7086   0.305   2.705   4.613
 1013KAXM    C3 7087   0.330   2.629   4.733
 1013KAXM    C2 7088   0.211   2.546   4.776
 1013KAXM    C1 7089   0.114   2.625   4.864
 1013KAXM    O1 7090   0.133   2.605   5.007
 1013KAXM    H1 7091   0.082   2.521   5.032
 1014KAXM    H8 7092   1.299   4.325   0.160
 1014KAXM    O2 7093   1.322   4.228   0.168
 1014KAXM    C3 7094   1.461   4.207   0.139
 1014KAXM    C2 7095   1.482   4.081   0.057
 1014KAXM    C1 7096   1.629   4.063   0.021
 1014KAXM    O1 7097   1.652   3.938   5.953
 1014KAXM    H1 7098   1.730   3.892   5.999
 1015KAXM    H8 7099   1.328   5.483   3.199
 1015KAXM    O2 7100   1.305   5.486   3.297
 1015KAXM    C3 7101   1.239   5.611   3.327
 1015KAXM    C2 7102   1.216   5.632   3.477
 1015KAXM    C1 7103   1.109   5.540   3.535
 1015KAXM    O1 7104   1.089   5.557   3.677
 1015KAXM    H1 7105   1.005   5.610   3.692
 1016KAXM    H8 7106   1.876   5.522   2.659
 1016KAXM    O2 7107   1.955   5.548   2.710
 1016KAXM    C3 7108   1.943   5.683   2.754
 1016KAXM    C2 7109   2.072   5.733   2.818
 1016KAXM    C1 7110   2.054   5.877   2.865
 1016KAXM    O1 7111   2.173   5.931   2.925
 1016KAXM    H1 7112   2.204   0.009   2.869
 1017KAXM    H8 7113   2.770   1.732   2.941
 1017KAXM    O2 7114   2.871   1.739   2.940
 1017KAXM    C3 7115   2.914   1.846   3.025
 1017KAXM    C2 7116   2.795   1.934   3.061
 1017KAXM    C1 7117   2.828   2.068   3.126
 1017KAXM    O1 7118   2.703   2.130   3.158
 1017KAXM    H1 7119   2.712   2.228   3.181
 1018KAXM    H8 7120   0.465   0.430   5.814
 1018KAXM    O2 7121   0.551   0.422   5.759
 1018KAXM    C3 7122   0.522   0.451   5.621
 1018KAXM    C2 7123   0.452   0.335   5.550
 1018KAXM    C1 7124   0.410   0.373   5.408
 1018KAXM    O1 7125   0.340   0.267   5.340
 1018KAXM    H1 7126   0.287   0.212   5.406
 1019KAXM    H8 7127   2.304   2.768   1.301
 1019KAXM    O2 7128   2.241   2.798   1.372
 1019KAXM    C3 7129   2.301   2.894   1.461
 1019KAXM    C2 7130   2.186   2.960   1.537
 1019KAXM    C1 7131   2.222   3.049   1.655
 1019KAXM    O1 7132   2.099   3.092   1.716
 1019KAXM    H1 7133   2.116   3.154   1.794
 1020KAXM    H8 7134   0.898   0.032   4.796
 1020KAXM    O2 7135   0.944   5.989   4.876
 1020KAXM    C3 7136   0.858   5.883   4.921
 1020KAXM    C2 7137   0.732   5.932   4.990
 1020KAXM    C1 7138   0.649   5.811   5.030
 1020KAXM    O1 7139   0.522   5.849   5.083
 1020KAXM    H1 7140   0.453   5.784   5.049
 1021KAXM    H8 7141   3.224   1.969   2.971
 1021KAXM    O2 7142   3.212   2.017   2.883
 1021KAXM    C3 7143   3.310   1.961   2.793
 1021KAXM    C2 7144   3.250   1.919   2.659
 1021KAXM    C1 7145   3.353   1.854   2.568
 1021KAXM    O1 7146   3.303   1.835   2.434
 1021KAXM    H1 7147   3.218   1.781   2.434
 1022KAXM    H8 7148   1.932   2.954   1.174
 1022KAXM    O2 7149   2.016   2.988   1.130
 1022KAXM    C3 7150   2.052   3.114   1.189
 1022KAXM    C2 7151   2.200   3.145   1.171
 1022KAXM    C1 7152   2.235   3.272   1.248
 1022KAXM    O1 7153   2.375   3.302   1.247
 1022KAXM    H1 7154   2.388   3.391   1.200
 1023KAXM    H8 7155   4.078   2.831   0.984
 1023KAXM    O2 7156   4.163   2.781   0.958
 1023KAXM    C3 7157   4.203   2.818   0.825
 1023KAXM    C2 7158   4.294   2.711   0.766
 1023KAXM    C1 7159   4.373   2.763   0.646
 1023KAXM    O1 7160   4.481   2.675   0.612
 1023KAXM    H1 7161   4.541   2.660   0.692
 1024KAXM    H8 7162   1.035   2.465   4.076
 1024KAXM    O2 7163   1.108   2.492   4.012
 1024KAXM    C3 7164   1.051   2.580   3.914
 1024KAXM    C2 7165   1.155   2.655   3.832
 1024KAXM    C1 7166   1.085   2.739   3.725
 1024KAXM    O1 7167   1.033   2.660   3.616
 1024KAXM    H1 7168   1.097   2.670   3.536
 1025KAXM    H8 7169   5.134   1.282   0.006
 1025KAXM    O2 7170   5.073   1.223   5.951
 1025KAXM    C3 7171   5.097   1.085   5.984
 1025KAXM    C2 7172   5.116   0.998   5.861
 1025KAXM    C1 7173   5.142   0.853   5.901
 1025KAXM    O1 7174   5.188   0.775   5.790
 1025KAXM    H1 7175   5.116   0.765   5.720
 1026KAXM    H8 7176   5.031   3.477   4.907
 1026KAXM    O2 7177   4.971   3.466   4.826
 1026KAXM    C3 7178   5.025   3.549   4.720
 1026KAXM    C2 7179   5.007   3.490   4.580
 1026KAXM    C1 7180   4.861   3.484   4.539
 1026KAXM    O1 7181   4.843   3.429   4.408
 1026KAXM    H1 7182   4.866   3.499   4.339
 1027KAXM    H8 7183   1.956   0.397   1.649
 1027KAXM    O2 7184   1.946   0.306   1.690
 1027KAXM    C3 7185   1.864   0.318   1.809
 1027KAXM    C2 7186   1.934   0.364   1.936
 1027KAXM    C1 7187   1.831   0.373   2.049
 1027KAXM    O1 7188   1.891   0.407   2.175
 1027KAXM    H1 7189   1.857   0.346   2.247
 1028KAXM    H8 7190   1.606   4.974   1.318
 1028KAXM    O2 7191   1.628   5.056   1.265
 1028KAXM    C3 7192   1.584   5.037   1.130
 1028KAXM    C2 7193   1.437   5.071   1.105
 1028KAXM    C1 7194   1.402   5.028   0.964
 1028KAXM    O1 7195   1.268   5.062   0.926
 1028KAXM    H1 7196   1.274   5.125   0.847
 1029KAXM    H8 7197   2.707   4.852   4.571
 1029KAXM    O2 7198   2.698   4.936   4.518
 1029KAXM    C3 7199   2.804   4.941   4.421
 1029KAXM    C2 7200   2.751   4.987   4.285
 1029KAXM    C1 7201   2.858   5.002   4.178
 1029KAXM    O1 7202   2.795   5.001   4.048
 1029KAXM    H1 7203   2.801   5.091   4.003
 1030KAXM    H8 7204   3.588   5.673   4.859
 1030KAXM    O2 7205   3.524   5.611   4.811
 1030KAXM    C3 7206   3.579   5.578   4.682
 1030KAXM    C2 7207   3.507   5.647   4.567
 1030KAXM    C1 7208   3.364   5.597   4.551
 1030KAXM    O1 7209   3.300   5.658   4.438
 1030KAXM    H1 7210   3.205   5.624   4.431
 1031KAXM    H8 7211   0.494   4.062   5.171
 1031KAXM    O2 7212   0.542   4.136   5.216
 1031KAXM    C3 7213   0.682   4.118   5.188
 1031KAXM    C2 7214   0.767   4.148   5.310
 1031KAXM    C1 7215   0.914   4.164   5.273
 1031KAXM    O1 7216   0.995   4.187   5.389
 1031KAXM    H1 7217   0.970   4.274   5.434
 1032KAXM    H8 7218   3.679   1.092   5.956
 1032KAXM    O2 7219   3.611   1.166   5.968
 1032KAXM    C3 7220   3.643   1.234   0.090
 1032KAXM    C2 7221   3.683   1.379   0.070
 1032KAXM    C1 7222   3.564   1.465   0.029
 1032KAXM    O1 7223   3.596   1.605   0.040
 1032KAXM    H1 7224   3.609   1.628   0.138
 1033KAXM    H8 7225   1.810   1.006   5.094
 1033KAXM    O2 7226   1.786   0.990   5.191
 1033KAXM    C3 7227   1.734   0.856   5.205
 1033KAXM    C2 7228   1.600   0.854   5.276
 1033KAXM    C1 7229   1.536   0.715   5.279
 1033KAXM    O1 7230   1.418   0.718   5.360
 1033KAXM    H1 7231   1.350   0.651   5.328
 1034KAXM    H8 7232   3.043   1.558   3.767
 1034KAXM    O2 7233   3.130   1.520   3.729
 1034KAXM    C3 7234   3.237   1.614   3.750
 1034KAXM    C2 7235   3.299   1.656   3.618
 1034KAXM    C1 7236   3.409   1.760   3.638
 1034KAXM    O1 7237   3.449   1.812   3.511
 1034KAXM    H1 7238   3.526   1.877   3.519
 1035KAXM    H8 7239   1.882   3.054   3.754
 1035KAXM    O2 7240   1.882   3.038   3.654
 1035KAXM    C3 7241   1.754   2.988   3.612
 1035KAXM    C2 7242   1.746   2.978   3.461
 1035KAXM    C1 7243   1.604   2.943   3.418
 1035KAXM    O1 7244   1.578   2.977   3.282
 1035KAXM    H1 7245   1.565   2.894   3.225
 1036KAXM    H8 7246   0.436   1.804   2.605
 1036KAXM    O2 7247   0.405   1.881   2.548
 1036KAXM    C3 7248   0.369   1.825   2.420
 1036KAXM    C2 7249   0.455   1.875   2.306
 1036KAXM    C1 7250   0.403   1.815   2.177
 1036KAXM    O1 7251   0.453   1.882   2.060
 1036KAXM    H1 7252   0.548   1.853   2.042
 1037KAXM    H8 7253   0.660   4.132   4.821
 1037KAXM    O2 7254   0.677   4.038   4.849
 1037KAXM    C3 7255   0.639   3.946   4.745
 1037KAXM    C2 7256   0.676   3.802   4.779
 1037KAXM    C1 7257   0.680   3.718   4.652
 1037KAXM    O1 7258   0.709   3.579   4.677
 1037KAXM    H1 7259   0.735   3.534   4.589
 1038KAXM    H8 7260   2.079   5.578   1.902
 1038KAXM    O2 7261   2.077   5.676   1.921
 1038KAXM    C3 7262   2.026   5.748   1.807
 1038KAXM    C2 7263   1.876   5.731   1.787
 1038KAXM    C1 7264   1.829   5.820   1.672
 1038KAXM    O1 7265   1.690   5.800   1.644
 1038KAXM    H1 7266   1.658   5.865   1.572
 1039KAXM    H8 7267   4.471   0.321   5.064
 1039KAXM    O2 7268   4.562   0.286   5.035
 1039KAXM    C3 7269   4.552   0.144   5.013
 1039KAXM    C2 7270   4.683   0.071   5.040
 1039KAXM    C1 7271   4.673   5.928   4.987
 1039KAXM    O1 7272   4.755   5.836   5.061
 1039KAXM    H1 7273   4.730   5.841   5.159
 1040KAXM    H8 7274   4.224   5.677   5.135
 1040KAXM    O2 7275   4.205   5.586   5.096
 1040KAXM    C3 7276   4.100   5.598   4.999
 1040KAXM    C2 7277   4.154   5.634   4.862
 1040KAXM    C1 7278   4.039   5.660   4.766
 1040KAXM    O1 7279   4.082   5.668   4.629
 1040KAXM    H1 7280   4.097   5.573   4.596
 1041KAXM    H8 7281   0.845   5.085   3.602
 1041KAXM    O2 7282   0.855   5.085   3.502
 1041KAXM    C3 7283   0.948   5.188   3.465
 1041KAXM    C2 7284   0.898   5.281   3.353
 1041KAXM    C1 7285   0.919   5.237   3.208
 1041KAXM    O1 7286   0.866   5.107   3.171
 1041KAXM    H1 7287   0.888   5.090   3.073
 1042KAXM    H8 7288   2.035   1.711   1.924
 1042KAXM    O2 7289   2.084   1.704   1.834
 1042KAXM    C3 7290   2.066   1.830   1.764
 1042KAXM    C2 7291   1.942   1.828   1.675
 1042KAXM    C1 7292   1.908   1.963   1.613
 1042KAXM    O1 7293   1.997   2.009   1.509
 1042KAXM    H1 7294   1.947   2.080   1.457
 1043KAXM    H8 7295   5.198   0.165   4.911
 1043KAXM    O2 7296   5.149   0.077   4.892
 1043KAXM    C3 7297   5.086   0.088   4.763
 1043KAXM    C2 7298   4.998   5.967   4.736
 1043KAXM    C1 7299   4.928   5.982   4.603
 1043KAXM    O1 7300   4.839   5.871   4.579
 1043KAXM    H1 7301   4.746   5.908   4.561
 1044KAXM    H8 7302   3.795   4.882   4.421
 1044KAXM    O2 7303   3.699   4.851   4.425
 1044KAXM    C3 7304   3.650   4.867   4.558
 1044KAXM    C2 7305   3.525   4.784   4.585
 1044KAXM    C1 7306   3.482   4.798   4.731
 1044KAXM    O1 7307   3.441   4.930   4.772
 1044KAXM    H1 7308   3.410   4.920   4.869
 1045KAXM    H8 7309   3.845   2.270   4.452
 1045KAXM    O2 7310   3.927   2.316   4.489
 1045KAXM    C3 7311   3.922   2.313   4.633
 1045KAXM    C2 7312   4.041   2.382   4.699
 1045KAXM    C1 7313   4.173   2.310   4.677
 1045KAXM    O1 7314   4.280   2.390   4.729
 1045KAXM    H1 7315   4.328   2.340   4.803
 1046KAXM    H8 7316   2.190   0.455   2.804
 1046KAXM    O2 7317   2.174   0.366   2.848
 1046KAXM    C3 7318   2.058   0.373   2.933
 1046KAXM    C2 7319   1.932   0.399   2.852
 1046KAXM    C1 7320   1.877   0.541   2.871
 1046KAXM    O1 7321   1.809   0.582   2.750
 1046KAXM    H1 7322   1.746   0.659   2.765
 1047KAXM    H8 7323   0.077   2.691   2.693
 1047KAXM    O2 7324   0.018   2.643   2.761
 1047KAXM    C3 7325   5.894   2.715   2.770
 1047KAXM    C2 7326   5.785   2.633   2.836
 1047KAXM    C1 7327   5.654   2.711   2.837
 1047KAXM    O1 7328   5.636   2.796   2.952
 1047KAXM    H1 7329   5.722   2.845   2.979
 1048KAXM    H8 7330   3.370   0.108   4.780
 1048KAXM    O2 7331   3.364   0.161   4.865
 1048KAXM    C3 7332   3.266   0.264   4.846
 1048KAXM    C2 7333   3.298   0.352   4.726
 1048KAXM    C1 7334   3.174   0.430   4.686
 1048KAXM    O1 7335   3.190   0.484   4.554
 1048KAXM    H1 7336   3.127   0.436   4.490
 1049KAXM    H8 7337   2.453   5.739   2.564
 1049KAXM    O2 7338   2.457   5.778   2.470
 1049KAXM    C3 7339   2.323   5.782   2.417
 1049KAXM    C2 7340   2.321   5.842   2.278
 1049KAXM    C1 7341   2.199   5.792   2.202
 1049KAXM    O1 7342   2.189   5.852   2.071
 1049KAXM    H1 7343   2.145   5.784   2.010
 1050KAXM    H8 7344   3.592   4.990   5.982
 1050KAXM    O2 7345   3.548   5.077   5.954
 1050KAXM    C3 7346   3.648   5.178   5.932
 1050KAXM    C2 7347   3.726   5.207   0.059
 1050KAXM    C1 7348   3.843   5.300   0.030
 1050KAXM    O1 7349   3.928   5.318   0.146
 1050KAXM    H1 7350   3.973   5.408   0.135
 1051KAXM    H8 7351   2.689   5.924   2.282
 1051KAXM    O2 7352   2.716   0.022   2.283
 1051KAXM    C3 7353   2.852   0.031   2.237
 1051KAXM    C2 7354   2.949   0.056   2.352
 1051KAXM    C1 7355   3.093   0.023   2.313
 1051KAXM    O1 7356   3.115   5.883   2.287
 1051KAXM    H1 7357   3.098   5.828   2.370
 1052KAXM    H8 7358   1.287   1.129   4.928
 1052KAXM    O2 7359   1.303   1.065   5.005
 1052KAXM    C3 7360   1.416   1.112   5.079
 1052KAXM    C2 7361   1.390   1.252   5.133
 1052KAXM    C1 7362   1.489   1.282   5.244
 1052KAXM    O1 7363   1.484   1.420   5.283
 1052KAXM    H1 7364   1.532   1.471   5.214
 1053KAXM    H8 7365   3.838   1.894   0.336
 1053KAXM    O2 7366   3.857   1.812   0.281
 1053KAXM    C3 7367   3.985   1.755   0.317
 1053KAXM    C2 7368   4.100   1.853   0.307
 1053KAXM    C1 7369   4.228   1.786   0.353
 1053KAXM    O1 7370   4.341   1.875   0.350
 1053KAXM    H1 7371   4.370   1.894   0.444
 1054KAXM    H8 7372   4.324   3.189   0.626
 1054KAXM    O2 7373   4.349   3.257   0.698
 1054KAXM    C3 7374   4.288   3.216   0.822
 1054KAXM    C2 7375   4.391   3.223   0.933
 1054KAXM    C1 7376   4.331   3.188   1.068
 1054KAXM    O1 7377   4.431   3.199   1.170
 1054KAXM    H1 7378   4.495   3.122   1.156
 1055KAXM    H8 7379   3.399   1.732   1.506
 1055KAXM    O2 7380   3.460   1.744   1.585
 1055KAXM    C3 7381   3.572   1.822   1.541
 1055KAXM    C2 7382   3.692   1.809   1.634
 1055KAXM    C1 7383   3.760   1.672   1.625
 1055KAXM    O1 7384   3.878   1.669   1.707
 1055KAXM    H1 7385   3.936   1.748   1.682
 1056KAXM    H8 7386   3.288   1.800   3.082
 1056KAXM    O2 7387   3.248   1.893   3.098
 1056KAXM    C3 7388   3.259   1.918   3.240
 1056KAXM    C2 7389   3.239   2.064   3.278
 1056KAXM    C1 7390   3.256   2.079   3.429
 1056KAXM    O1 7391   3.232   2.213   3.477
 1056KAXM    H1 7392   3.311   2.272   3.450
 1057KAXM    H8 7393   1.616   3.509   5.219
 1057KAXM    O2 7394   1.569   3.434   5.268
 1057KAXM    C3 7395   1.479   3.367   5.177
 1057KAXM    C2 7396   1.536   3.235   5.128
 1057KAXM    C1 7397   1.426   3.131   5.112
 1057KAXM    O1 7398   1.482   3.002   5.085
 1057KAXM    H1 7399   1.506   2.997   4.986
 1058KAXM    H8 7400   3.051   3.074   4.452
 1058KAXM    O2 7401   3.069   3.149   4.518
 1058KAXM    C3 7402   3.125   3.091   4.636
 1058KAXM    C2 7403   3.017   3.041   4.729
 1058KAXM    C1 7404   3.077   2.954   4.838
 1058KAXM    O1 7405   3.016   2.825   4.832
 1058KAXM    H1 7406   3.057   2.766   4.906
 1059KAXM    H8 7407   4.463   3.147   3.868
 1059KAXM    O2 7408   4.410   3.063   3.843
 1059KAXM    C3 7409   4.303   3.039   3.936
 1059KAXM    C2 7410   4.324   2.919   4.029
 1059KAXM    C1 7411   4.382   2.961   4.164
 1059KAXM    O1 7412   4.287   3.037   4.240
 1059KAXM    H1 7413   4.336   3.103   4.300
 1060KAXM    H8 7414   2.600   2.022   3.203
 1060KAXM    O2 7415   2.536   1.955   3.243
 1060KAXM    C3 7416   2.552   1.959   3.386
 1060KAXM    C2 7417   2.529   2.102   3.431
 1060KAXM    C1 7418   2.552   2.119   3.579
 1060KAXM    O1 7419   2.531   2.257   3.617
 1060KAXM    H1 7420   2.540   2.260   3.718
 1061KAXM    H8 7421   3.652   2.452   0.511
 1061KAXM    O2 7422   3.736   2.507   0.498
 1061KAXM    C3 7423   3.775   2.507   0.360
 1061KAXM    C2 7424   3.865   2.626   0.328
 1061KAXM    C1 7425   3.909   2.625   0.182
 1061KAXM    O1 7426   3.801   2.629   0.087
 1061KAXM    H1 7427   3.832   2.571   0.010
 1062KAXM    H8 7428   5.395   2.765   1.459
 1062KAXM    O2 7429   5.479   2.739   1.509
 1062KAXM    C3 7430   5.542   2.860   1.556
 1062KAXM    C2 7431   5.643   2.827   1.663
 1062KAXM    C1 7432   5.702   2.954   1.722
 1062KAXM    O1 7433   5.806   2.922   1.816
 1062KAXM    H1 7434   5.890   2.971   1.785
 1063KAXM    H8 7435   5.546   1.725   4.381
 1063KAXM    O2 7436   5.554   1.737   4.482
 1063KAXM    C3 7437   5.651   1.838   4.512
 1063KAXM    C2 7438   5.786   1.809   4.450
 1063KAXM    C1 7439   5.890   1.907   4.503
 1063KAXM    O1 7440   5.958   1.862   4.622
 1063KAXM    H1 7441   5.895   1.817   4.688
 1064KAXM    H8 7442   0.724   5.293   2.859
 1064KAXM    O2 7443   0.793   5.244   2.804
 1064KAXM    C3 7444   0.761   5.271   2.666
 1064KAXM    C2 7445   0.876   5.260   2.567
 1064KAXM    C1 7446   0.933   5.119   2.555
 1064KAXM    O1 7447   1.027   5.111   2.447
 1064KAXM    H1 7448   1.122   5.118   2.480
 1065KAXM    H8 7449   2.547   4.719   4.737
 1065KAXM    O2 7450   2.468   4.703   4.795
 1065KAXM    C3 7451   2.391   4.823   4.806
 1065KAXM    C2 7452   2.259   4.793   4.874
 1065KAXM    C1 7453   2.185   4.920   4.913
 1065KAXM    O1 7454   2.073   4.888   4.997
 1065KAXM    H1 7455   2.020   4.970   5.010
 1066KAXM    H8 7456   2.422   0.832   4.844
 1066KAXM    O2 7457   2.420   0.815   4.944
 1066KAXM    C3 7458   2.286   0.778   4.983
 1066KAXM    C2 7459   2.281   0.644   5.054
 1066KAXM    C1 7460   2.140   0.622   5.107
 1066KAXM    O1 7461   2.114   0.489   5.155
 1066KAXM    H1 7462   2.167   0.468   5.240
 1067KAXM    H8 7463   1.318   1.737   3.188
 1067KAXM    O2 7464   1.404   1.684   3.189
 1067KAXM    C3 7465   1.404   1.589   3.082
 1067KAXM    C2 7466   1.535   1.512   3.080
 1067KAXM    C1 7467   1.529   1.399   2.978
 1067KAXM    O1 7468   1.542   1.442   2.841
 1067KAXM    H1 7469   1.632   1.409   2.809
 1068KAXM    H8 7470   4.072   2.474   2.349
 1068KAXM    O2 7471   4.105   2.522   2.431
 1068KAXM    C3 7472   4.101   2.664   2.402
 1068KAXM    C2 7473   3.963   2.710   2.361
 1068KAXM    C1 7474   3.964   2.859   2.332
 1068KAXM    O1 7475   3.834   2.906   2.296
 1068KAXM    H1 7476   3.812   2.988   2.349
 1069KAXM    H8 7477   5.092   3.899   0.691
 1069KAXM    O2 7478   5.166   3.891   0.625
 1069KAXM    C3 7479   5.145   3.975   0.511
 1069KAXM    C2 7480   5.275   3.994   0.434
 1069KAXM    C1 7481   5.363   4.098   0.501
 1069KAXM    O1 7482   5.502   4.076   0.471
 1069KAXM    H1 7483   5.536   4.017   0.544
 1070KAXM    H8 7484   4.636   3.309   3.856
 1070KAXM    O2 7485   4.544   3.274   3.881
 1070KAXM    C3 7486   4.473   3.383   3.943
 1070KAXM    C2 7487   4.459   3.357   4.092
 1070KAXM    C1 7488   4.412   3.483   4.163
 1070KAXM    O1 7489   4.346   3.449   4.286
 1070KAXM    H1 7490   4.248   3.470   4.273
 1071KAXM    H8 7491   2.034   2.846   5.389
 1071KAXM    O2 7492   2.056   2.749   5.410
 1071KAXM    C3 7493   2.199   2.732   5.403
 1071KAXM    C2 7494   2.267   2.762   5.536
 1071KAXM    C1 7495   2.418   2.741   5.531
 1071KAXM    O1 7496   2.456   2.605   5.505
 1071KAXM    H1 7497   2.550   2.590   5.538
 1072KAXM    H8 7498   0.154   0.009   2.131
 1072KAXM    O2 7499   0.113   5.923   2.095
 1072KAXM    C3 7500   0.090   5.941   1.954
 1072KAXM    C2 7501   0.052   5.809   1.889
 1072KAXM    C1 7502   0.008   5.837   1.747
 1072KAXM    O1 7503   5.990   5.718   1.669
 1072KAXM    H1 7504   5.923   5.740   1.597
 1073KAXM    H8 7505   5.676   0.540   0.946
 1073KAXM    O2 7506   5.614   0.525   1.026
 1073KAXM    C3 7507   5.695   0.550   1.142
 1073KAXM    C2 7508   5.630   0.657   1.227
 1073KAXM    C1 7509   5.730   0.732   1.313
 1073KAXM    O1 7510   5.672   0.857   1.356
 1073KAXM    H1 7511   5.643   0.908   1.273
 1074KAXM    H8 7512   1.623   0.119   1.904
 1074KAXM    O2 7513   1.628   0.100   2.003
 1074KAXM    C3 7514   1.743   0.019   2.031
 1074KAXM    C2 7515   1.730   5.954   2.167
 1074KAXM    C1 7516   1.868   5.924   2.224
 1074KAXM    O1 7517   1.937   0.045   2.262
 1074KAXM    H1 7518   2.017   0.061   2.202
 1075KAXM    H8 7519   3.559   4.127   5.513
 1075KAXM    O2 7520   3.466   4.087   5.504
 1075KAXM    C3 7521   3.372   4.184   5.553
 1075KAXM    C2 7522   3.385   4.202   5.703
 1075KAXM    C1 7523   3.337   4.080   5.781
 1075KAXM    O1 7524   3.288   4.123   5.909
 1075KAXM    H1 7525   3.242   4.048   5.956
 1076KAXM    H8 7526   0.329   5.247   0.470
 1076KAXM    O2 7527   0.267   5.287   0.401
 1076KAXM    C3 7528   0.295   5.226   0.274
 1076KAXM    C2 7529   0.182   5.258   0.176
 1076KAXM    C1 7530   0.223   5.239   0.031
 1076KAXM    O1 7531   0.124   5.294   5.942
 1076KAXM    H1 7532   0.105   5.388   5.973
 1077KAXM    H8 7533   1.130   2.813   2.551
 1077KAXM    O2 7534   1.030   2.828   2.546
 1077KAXM    C3 7535   0.999   2.923   2.443
 1077KAXM    C2 7536   1.021   2.865   2.305
 1077KAXM    C1 7537   1.011   2.972   2.198
 1077KAXM    O1 7538   1.129   3.054   2.191
 1077KAXM    H1 7539   1.147   3.074   2.093
 1078KAXM    H8 7540   2.524   3.224   4.755
 1078KAXM    O2 7541   2.429   3.195   4.741
 1078KAXM    C3 7542   2.336   3.248   4.837
 1078KAXM    C2 7543   2.349   3.178   4.971
 1078KAXM    C1 7544   2.236   3.214   5.066
 1078KAXM    O1 7545   2.250   3.142   5.190
 1078KAXM    H1 7546   2.180   3.172   5.255
 1079KAXM    H8 7547   3.775   1.023   1.496
 1079KAXM    O2 7548   3.692   1.036   1.552
 1079KAXM    C3 7549   3.701   1.157   1.629
 1079KAXM    C2 7550   3.563   1.196   1.679
 1079KAXM    C1 7551   3.565   1.328   1.754
 1079KAXM    O1 7552   3.431   1.374   1.777
 1079KAXM    H1 7553   3.433   1.475   1.793
 1080KAXM    H8 7554   1.903   0.535   3.993
 1080KAXM    O2 7555   1.880   0.536   3.897
 1080KAXM    C3 7556   1.967   0.624   3.825
 1080KAXM    C2 7557   2.043   0.548   3.717
 1080KAXM    C1 7558   2.158   0.631   3.662
 1080KAXM    O1 7559   2.250   0.551   3.586
 1080KAXM    H1 7560   2.263   0.462   3.634
 1081KAXM    H8 7561   2.090   1.169   3.189
 1081KAXM    O2 7562   2.151   1.102   3.230
 1081KAXM    C3 7563   2.278   1.105   3.162
 1081KAXM    C2 7564   2.268   1.105   3.010
 1081KAXM    C1 7565   2.406   1.121   2.948
 1081KAXM    O1 7566   2.399   1.159   2.809
 1081KAXM    H1 7567   2.483   1.213   2.788
 1082KAXM    H8 7568   5.863   2.796   4.693
 1082KAXM    O2 7569   5.850   2.882   4.746
 1082KAXM    C3 7570   5.917   2.990   4.679
 1082KAXM    C2 7571   0.066   2.970   4.670
 1082KAXM    C1 7572   0.128   3.077   4.582
 1082KAXM    O1 7573   0.118   3.211   4.632
 1082KAXM    H1 7574   0.165   3.217   4.718
 1083KAXM    H8 7575   0.638   3.463   3.411
 1083KAXM    O2 7576   0.719   3.511   3.373
 1083KAXM    C3 7577   0.800   3.418   3.300
 1083KAXM    C2 7578   0.847   3.473   3.167
 1083KAXM    C1 7579   0.936   3.373   3.093
 1083KAXM    O1 7580   0.865   3.257   3.044
 1083KAXM    H1 7581   0.933   3.188   3.013
 1084KAXM    H8 7582   0.652   2.608   2.723
 1084KAXM    O2 7583   0.586   2.619   2.799
 1084KAXM    C3 7584   0.496   2.506   2.797
 1084KAXM    C2 7585   0.389   2.531   2.692
 1084KAXM    C1 7586   0.266   2.445   2.715
 1084KAXM    O1 7587   0.193   2.479   2.834
 1084KAXM    H1 7588   0.119   2.544   2.810
 1085KAXM    H8 7589   2.257   3.382   0.327
 1085KAXM    O2 7590   2.353   3.375   0.359
 1085KAXM    C3 7591   2.442   3.410   0.252
 1085KAXM    C2 7592   2.584   3.431   0.302
 1085KAXM    C1 7593   2.675   3.459   0.183
 1085KAXM    O1 7594   2.806   3.502   0.224
 1085KAXM    H1 7595   2.875   3.438   0.186
 1086KAXM    H8 7596   0.379   4.543   2.473
 1086KAXM    O2 7597   0.406   4.626   2.421
 1086KAXM    C3 7598   0.288   4.673   2.352
 1086KAXM    C2 7599   0.315   4.680   2.203
 1086KAXM    C1 7600   0.189   4.714   2.127
 1086KAXM    O1 7601   0.220   4.747   1.991
 1086KAXM    H1 7602   0.191   4.671   1.930
 1087KAXM    H8 7603   5.093   4.842   0.167
 1087KAXM    O2 7604   5.089   4.791   0.081
 1087KAXM    C3 7605   5.201   4.702   0.070
 1087KAXM    C2 7606   5.328   4.781   0.044
 1087KAXM    C1 7607   5.449   4.688   0.044
 1087KAXM    O1 7608   5.564   4.758   5.995
 1087KAXM    H1 7609   5.620   4.794   0.070
 1088KAXM    H8 7610   5.071   5.643   1.181
 1088KAXM    O2 7611   5.011   5.676   1.256
 1088KAXM    C3 7612   4.873   5.669   1.214
 1088KAXM    C2 7613   4.808   5.537   1.253
 1088KAXM    C1 7614   4.663   5.531   1.205
 1088KAXM    O1 7615   4.599   5.405   1.237
 1088KAXM    H1 7616   4.538   5.379   1.159
 1089KAXM    H8 7617   0.902   2.905   5.102
 1089KAXM    O2 7618   0.815   2.946   5.133
 1089KAXM    C3 7619   0.761   3.018   5.021
 1089KAXM    C2 7620   0.617   2.982   4.987
 1089KAXM    C1 7621   0.570   3.081   4.881
 1089KAXM    O1 7622   0.434   3.061   4.840
 1089KAXM    H1 7623   0.375   3.101   4.912
 1090KAXM    H8 7624   0.932   2.571   5.106
 1090KAXM    O2 7625   1.024   2.604   5.133
 1090KAXM    C3 7626   1.057   2.561   5.266
 1090KAXM    C2 7627   1.198   2.603   5.304
 1090KAXM    C1 7628   1.306   2.529   5.224
 1090KAXM    O1 7629   1.308   2.388   5.251
 1090KAXM    H1 7630   1.306   2.375   5.352
 1091KAXM    H8 7631   0.178   4.333   0.897
 1091KAXM    O2 7632   0.239   4.308   0.822
 1091KAXM    C3 7633   0.301   4.180   0.843
 1091KAXM    C2 7634   0.442   4.182   0.783
 1091KAXM    C1 7635   0.503   4.045   0.753
 1091KAXM    O1 7636   0.527   3.959   0.866
 1091KAXM    H1 7637   0.608   3.902   0.845
 1092KAXM    H8 7638   4.672   1.919   0.527
 1092KAXM    O2 7639   4.667   1.994   0.596
 1092KAXM    C3 7640   4.707   2.121   0.538
 1092KAXM    C2 7641   4.752   2.225   0.641
 1092KAXM    C1 7642   4.638   2.275   0.729
 1092KAXM    O1 7643   4.681   2.368   0.830
 1092KAXM    H1 7644   4.690   2.319   0.917
 1093KAXM    H8 7645   5.241   3.063   3.428
 1093KAXM    O2 7646   5.306   2.992   3.456
 1093KAXM    C3 7647   5.438   3.046   3.437
 1093KAXM    C2 7648   5.543   2.947   3.391
 1093KAXM    C1 7649   5.665   3.025   3.345
 1093KAXM    O1 7650   5.774   2.939   3.307
 1093KAXM    H1 7651   5.812   2.897   3.389
 1094KAXM    H8 7652   1.159   4.660   2.416
 1094KAXM    O2 7653   1.235   4.605   2.457
 1094KAXM    C3 7654   1.181   4.487   2.518
 1094KAXM    C2 7655   1.107   4.399   2.419
 1094KAXM    C1 7656   1.063   4.271   2.488
 1094KAXM    O1 7657   0.982   4.186   2.406
 1094KAXM    H1 7658   0.916   4.137   2.465
 1095KAXM    H8 7659   3.416   4.453   2.720
 1095KAXM    O2 7660   3.343   4.471   2.651
 1095KAXM    C3 7661   3.304   4.345   2.593
 1095KAXM    C2 7662   3.416   4.285   2.509
 1095KAXM    C1 7663   3.439   4.359   2.378
 1095KAXM    O1 7664   3.563   4.319   2.315
 1095KAXM    H1 7665   3.560   4.220   2.296
 1096KAXM    H8 7666   1.692   0.610   0.498
 1096KAXM    O2 7667   1.747   0.558   0.431
 1096KAXM    C3 7668   1.829   0.463   0.500
 1096KAXM    C2 7669   1.755   0.332   0.523
 1096KAXM    C1 7670   1.720   0.261   0.393
 1096KAXM    O1 7671   1.679   0.126   0.420
 1096KAXM    H1 7672   1.581   0.124   0.427
 1097KAXM    H8 7673   0.935   4.543   1.145
 1097KAXM    O2 7674   0.909   4.594   1.227
 1097KAXM    C3 7675   0.767   4.587   1.242
 1097KAXM    C2 7676   0.722   4.595   1.387
 1097KAXM    C1 7677   0.781   4.484   1.473
 1097KAXM    O1 7678   0.791   4.527   1.610
 1097KAXM    H1 7679   0.833   4.455   1.666
 1098KAXM    H8 7680   1.358   3.258   4.382
 1098KAXM    O2 7681   1.268   3.293   4.409
 1098KAXM    C3 7682   1.256   3.280   4.552
 1098KAXM    C2 7683   1.350   3.375   4.622
 1098KAXM    C1 7684   1.400   3.317   4.753
 1098KAXM    O1 7685   1.497   3.406   4.812
 1098KAXM    H1 7686   1.586   3.390   4.768
 1099KAXM    H8 7687   0.940   5.766   2.347
 1099KAXM    O2 7688   0.996   5.825   2.407
 1099KAXM    C3 7689   0.910   5.936   2.440
 1099KAXM    C2 7690   0.972   0.044   2.528
 1099KAXM    C1 7691   0.876   0.160   2.556
 1099KAXM    O1 7692   0.756   0.120   2.625
 1099KAXM    H1 7693   0.774   0.122   2.724
 1100KAXM    H8 7694   2.808   1.134   2.361
 1100KAXM    O2 7695   2.762   1.223   2.345
 1100KAXM    C3 7696   2.624   1.211   2.382
 1100KAXM    C2 7697   2.585   1.290   2.507
 1100KAXM    C1 7698   2.661   1.244   2.630
 1100KAXM    O1 7699   2.601   1.292   2.752
 1100KAXM    H1 7700   2.673   1.339   2.806
 1101KAXM    H8 7701   0.736   5.628   0.240
 1101KAXM    O2 7702   0.734   5.709   0.181
 1101KAXM    C3 7703   0.793   5.672   0.055
 1101KAXM    C2 7704   0.696   5.694   5.941
 1101KAXM    C1 7705   0.757   5.638   5.814
 1101KAXM    O1 7706   0.691   5.682   5.694
 1101KAXM    H1 7707   0.592   5.660   5.700
 1102KAXM    H8 7708   5.465   3.771   4.303
 1102KAXM    O2 7709   5.559   3.801   4.326
 1102KAXM    C3 7710   5.601   3.914   4.249
 1102KAXM    C2 7711   5.599   3.886   4.099
 1102KAXM    C1 7712   5.661   4.000   4.019
 1102KAXM    O1 7713   5.585   4.123   4.023
 1102KAXM    H1 7714   5.563   4.145   3.929
 1103KAXM    H8 7715   1.500   5.524   0.110
 1103KAXM    O2 7716   1.531   5.621   0.098
 1103KAXM    C3 7717   1.521   5.651   5.958
 1103KAXM    C2 7718   1.652   5.620   5.886
 1103KAXM    C1 7719   1.636   5.642   5.737
 1103KAXM    O1 7720   1.762   5.632   5.670
 1103KAXM    H1 7721   1.807   5.546   5.693
 1104KAXM    H8 7722   5.105   5.104   5.622
 1104KAXM    O2 7723   5.119   5.204   5.606
 1104KAXM    C3 7724   5.197   5.215   5.485
 1104KAXM    C2 7725   5.338   5.161   5.505
 1104KAXM    C1 7726   5.416   5.173   5.376
 1104KAXM    O1 7727   5.556   5.146   5.393
 1104KAXM    H1 7728   5.601   5.175   5.308
 1105KAXM    H8 7729   3.236   3.351   3.180
 1105KAXM    O2 7730   3.244   3.250   3.185
 1105KAXM    C3 7731   3.363   3.214   3.257
 1105KAXM    C2 7732   3.370   3.064   3.284
 1105KAXM    C1 7733   3.492   3.029   3.368
 1105KAXM    O1 7734   3.613   3.083   3.312
 1105KAXM    H1 7735   3.623   3.047   3.218
 1106KAXM    H8 7736   3.955   0.323   3.355
 1106KAXM    O2 7737   3.990   0.275   3.274
 1106KAXM    C3 7738   4.000   0.367   3.164
 1106KAXM    C2 7739   3.880   0.354   3.072
 1106KAXM    C1 7740   3.883   0.465   2.968
 1106KAXM    O1 7741   3.778   0.451   2.871
 1106KAXM    H1 7742   3.696   0.503   2.902
 1107KAXM    H8 7743   3.778   1.235   2.038
 1107KAXM    O2 7744   3.776   1.135   2.024
 1107KAXM    C3 7745   3.854   1.070   2.126
 1107KAXM    C2 7746   3.995   1.125   2.143
 1107KAXM    C1 7747   4.058   1.060   2.266
 1107KAXM    O1 7748   4.195   1.099   2.286
 1107KAXM    H1 7749   4.239   1.027   2.342
 1108KAXM    H8 7750   2.609   1.022   1.119
 1108KAXM    O2 7751   2.672   1.057   1.190
 1108KAXM    C3 7752   2.699   0.954   1.287
 1108KAXM    C2 7753   2.592   0.960   1.396
 1108KAXM    C1 7754   2.643   0.907   1.529
 1108KAXM    O1 7755   2.571   0.971   1.635
 1108KAXM    H1 7756   2.618   1.055   1.665
 1109KAXM    H8 7757   4.616   1.890   3.398
 1109KAXM    O2 7758   4.517   1.868   3.398
 1109KAXM    C3 7759   4.499   1.757   3.488
 1109KAXM    C2 7760   4.509   1.795   3.635
 1109KAXM    C1 7761   4.486   1.671   3.720
 1109KAXM    O1 7762   4.489   1.695   3.862
 1109KAXM    H1 7763   4.475   1.606   3.908
 1110KAXM    H8 7764   0.410   0.546   0.514
 1110KAXM    O2 7765   0.496   0.588   0.546
 1110KAXM    C3 7766   0.606   0.542   0.466
 1110KAXM    C2 7767   0.598   0.589   0.321
 1110KAXM    C1 7768   0.488   0.517   0.243
 1110KAXM    O1 7769   0.501   0.538   0.101
 1110KAXM    H1 7770   0.591   0.507   0.071
 1111KAXM    H8 7771   1.552   2.657   4.244
 1111KAXM    O2 7772   1.571   2.721   4.168
 1111KAXM    C3 7773   1.613   2.851   4.213
 1111KAXM    C2 7774   1.750   2.854   4.279
 1111KAXM    C1 7775   1.747   2.790   4.417
 1111KAXM    O1 7776   1.876   2.795   4.482
 1111KAXM    H1 7777   1.871   2.728   4.560
 1112KAXM    H8 7778   5.643   5.204   3.356
 1112KAXM    O2 7779   5.699   5.216   3.273
 1112KAXM    C3 7780   5.650   5.325   3.195
 1112KAXM    C2 7781   5.731   5.344   3.067
 1112KAXM    C1 7782   5.875   5.383   3.100
 1112KAXM    O1 7783   5.960   5.393   2.985
 1112KAXM    H1 7784   0.051   5.426   3.016
 1113KAXM    H8 7785   2.968   1.283   2.716
 1113KAXM    O2 7786   3.039   1.220   2.739
 1113KAXM    C3 7787   3.076   1.245   2.875
 1113KAXM    C2 7788   3.151   1.129   2.939
 1113KAXM    C1 7789   3.185   1.162   3.084
 1113KAXM    O1 7790   3.067   1.173   3.164
 1113KAXM    H1 7791   3.038   1.080   3.193
 1114KAXM    H8 7792   2.886   1.430   1.083
 1114KAXM    O2 7793   2.971   1.452   1.133
 1114KAXM    C3 7794   3.082   1.450   1.040
 1114KAXM    C2 7795   3.079   1.331   0.947
 1114KAXM    C1 7796   3.169   1.356   0.826
 1114KAXM    O1 7797   3.145   1.268   0.715
 1114KAXM    H1 7798   3.046   1.257   0.700
 1115KAXM    H8 7799   3.113   0.889   1.321
 1115KAXM    O2 7800   3.052   0.954   1.365
 1115KAXM    C3 7801   3.098   0.978   1.499
 1115KAXM    C2 7802   3.020   0.893   1.597
 1115KAXM    C1 7803   3.091   0.894   1.732
 1115KAXM    O1 7804   3.010   0.831   1.833
 1115KAXM    H1 7805   3.003   0.893   1.911
 1116KAXM    H8 7806   3.218   2.344   5.481
 1116KAXM    O2 7807   3.256   2.434   5.507
 1116KAXM    C3 7808   3.273   2.517   5.390
 1116KAXM    C2 7809   3.421   2.534   5.358
 1116KAXM    C1 7810   3.442   2.625   5.238
 1116KAXM    O1 7811   3.573   2.607   5.183
 1116KAXM    H1 7812   3.572   2.516   5.135
 1117KAXM    H8 7813   0.267   4.978   4.794
 1117KAXM    O2 7814   0.280   4.902   4.859
 1117KAXM    C3 7815   0.406   4.836   4.840
 1117KAXM    C2 7816   0.506   4.879   4.947
 1117KAXM    C1 7817   0.633   4.797   4.937
 1117KAXM    O1 7818   0.724   4.825   5.044
 1117KAXM    H1 7819   0.679   4.812   5.133
 1118KAXM    H8 7820   3.302   2.144   5.375
 1118KAXM    O2 7821   3.381   2.096   5.337
 1118KAXM    C3 7822   3.470   2.188   5.272
 1118KAXM    C2 7823   3.480   2.165   5.122
 1118KAXM    C1 7824   3.587   2.252   5.058
 1118KAXM    O1 7825   3.556   2.392   5.061
 1118KAXM    H1 7826   3.517   2.420   4.970
 1119KAXM    H8 7827   4.302   2.761   0.065
 1119KAXM    O2 7828   4.263   2.668   0.061
 1119KAXM    C3 7829   4.316   2.589   0.168
 1119KAXM    C2 7830   4.456   2.536   0.139
 1119KAXM    C1 7831   4.496   2.440   0.251
 1119KAXM    O1 7832   4.633   2.396   0.244
 1119KAXM    H1 7833   4.647   2.336   0.320
 1120KAXM    H8 7834   1.312   1.090   1.726
 1120KAXM    O2 7835   1.394   1.055   1.682
 1120KAXM    C3 7836   1.464   0.975   1.780
 1120KAXM    C2 7837   1.376   0.863   1.834
 1120KAXM    C1 7838   1.435   0.802   1.960
 1120KAXM    O1 7839   1.348   0.701   2.013
 1120KAXM    H1 7840   1.370   0.683   2.109
 1121KAXM    H8 7841   2.516   0.914   4.664
 1121KAXM    O2 7842   2.443   0.850   4.691
 1121KAXM    C3 7843   2.461   0.728   4.618
 1121KAXM    C2 7844   2.566   0.646   4.692
 1121KAXM    C1 7845   2.624   0.531   4.613
 1121KAXM    O1 7846   2.734   0.476   4.688
 1121KAXM    H1 7847   2.735   0.376   4.684
 1122KAXM    H8 7848   2.338   0.388   5.328
 1122KAXM    O2 7849   2.240   0.402   5.352
 1122KAXM    C3 7850   2.227   0.409   5.495
 1122KAXM    C2 7851   2.226   0.276   5.569
 1122KAXM    C1 7852   2.226   0.300   5.720
 1122KAXM    O1 7853   2.213   0.177   5.793
 1122KAXM    H1 7854   2.225   0.194   5.893
 1123KAXM    H8 7855   5.040   1.367   3.354
 1123KAXM    O2 7856   5.003   1.277   3.324
 1123KAXM    C3 7857   4.861   1.286   3.303
 1123KAXM    C2 7858   4.800   1.148   3.283
 1123KAXM    C1 7859   4.826   1.060   3.404
 1123KAXM    O1 7860   4.770   0.929   3.385
 1123KAXM    H1 7861   4.808   0.890   3.301
 1124KAXM    H8 7862   5.201   4.824   3.439
 1124KAXM    O2 7863   5.212   4.844   3.340
 1124KAXM    C3 7864   5.224   4.717   3.271
 1124KAXM    C2 7865   5.367   4.677   3.236
 1124KAXM    C1 7866   5.430   4.773   3.137
 1124KAXM    O1 7867   5.367   4.765   3.009
 1124KAXM    H1 7868   5.395   4.845   2.953
 1125KAXM    H8 7869   2.178   0.125   0.096
 1125KAXM    O2 7870   2.231   0.195   0.046
 1125KAXM    C3 7871   2.286   0.282   0.146
 1125KAXM    C2 7872   2.348   0.409   0.090
 1125KAXM    C1 7873   2.419   0.482   0.203
 1125KAXM    O1 7874   2.483   0.602   0.157
 1125KAXM    H1 7875   2.576   0.606   0.197
 1126KAXM    H8 7876   4.551   2.635   3.026
 1126KAXM    O2 7877   4.512   2.632   2.933
 1126KAXM    C3 7878   4.512   2.497   2.884
 1126KAXM    C2 7879   4.499   2.488   2.732
 1126KAXM    C1 7880   4.358   2.515   2.680
 1126KAXM    O1 7881   4.352   2.504   2.537
 1126KAXM    H1 7882   4.257   2.515   2.507
 1127KAXM    H8 7883   5.484   3.741   1.499
 1127KAXM    O2 7884   5.573   3.704   1.469
 1127KAXM    C3 7885   5.625   3.794   1.370
 1127KAXM    C2 7886   5.548   3.779   1.240
 1127KAXM    C1 7887   5.601   3.876   1.136
 1127KAXM    O1 7888   5.576   3.828   1.003
 1127KAXM    H1 7889   5.522   3.898   0.955
 1128KAXM    H8 7890   3.898   1.541   1.780
 1128KAXM    O2 7891   3.911   1.456   1.834
 1128KAXM    C3 7892   4.049   1.414   1.823
 1128KAXM    C2 7893   4.060   1.265   1.793
 1128KAXM    C1 7894   4.083   1.238   1.644
 1128KAXM    O1 7895   4.222   1.248   1.607
 1128KAXM    H1 7896   4.224   1.256   1.506
 1129KAXM    H8 7897   0.175   0.013   3.183
 1129KAXM    O2 7898   0.190   5.940   3.114
 1129KAXM    C3 7899   0.289   5.988   3.022
 1129KAXM    C2 7900   0.248   5.969   2.877
 1129KAXM    C1 7901   0.350   0.038   2.787
 1129KAXM    O1 7902   0.335   5.995   2.651
 1129KAXM    H1 7903   0.418   0.023   2.598
 1130KAXM    H8 7904   1.287   0.795   4.389
 1130KAXM    O2 7905   1.383   0.787   4.357
 1130KAXM    C3 7906   1.454   0.908   4.389
 1130KAXM    C2 7907   1.450   0.945   4.537
 1130KAXM    C1 7908   1.497   1.089   4.556
 1130KAXM    O1 7909   1.505   1.133   4.693
 1130KAXM    H1 7910   1.413   1.137   4.730
 1131KAXM    H8 7911   1.863   1.490   3.396
 1131KAXM    O2 7912   1.896   1.565   3.338
 1131KAXM    C3 7913   1.824   1.685   3.373
 1131KAXM    C2 7914   1.817   1.697   3.524
 1131KAXM    C1 7915   1.748   1.824   3.568
 1131KAXM    O1 7916   1.706   1.812   3.705
 1131KAXM    H1 7917   1.785   1.780   3.761
 1132KAXM    H8 7918   1.131   0.356   2.582
 1132KAXM    O2 7919   1.101   0.435   2.526
 1132KAXM    C3 7920   1.095   0.548   2.616
 1132KAXM    C2 7921   1.049   0.674   2.545
 1132KAXM    C1 7922   1.103   0.798   2.616
 1132KAXM    O1 7923   1.091   0.914   2.533
 1132KAXM    H1 7924   1.123   0.891   2.439
 1133KAXM    H8 7925   1.540   1.576   3.816
 1133KAXM    O2 7926   1.594   1.544   3.893
 1133KAXM    C3 7927   1.586   1.402   3.908
 1133KAXM    C2 7928   1.528   1.369   4.044
 1133KAXM    C1 7929   1.557   1.225   4.084
 1133KAXM    O1 7930   1.520   1.203   4.221
 1133KAXM    H1 7931   1.597   1.230   4.276
 1134KAXM    H8 7932   5.745   0.225   4.882
 1134KAXM    O2 7933   5.701   0.134   4.871
 1134KAXM    C3 7934   5.600   0.144   4.767
 1134KAXM    C2 7935   5.664   0.152   4.629
 1134KAXM    C1 7936   5.571   0.206   4.521
 1134KAXM    O1 7937   5.640   0.218   4.395
 1134KAXM    H1 7938   5.587   0.277   4.332
 1135KAXM    H8 7939   3.882   4.269   3.112
 1135KAXM    O2 7940   3.865   4.311   3.024
 1135KAXM    C3 7941   3.987   4.357   2.963
 1135KAXM    C2 7942   3.997   4.327   2.814
 1135KAXM    C1 7943   3.985   4.178   2.784
 1135KAXM    O1 7944   4.025   4.145   2.650
 1135KAXM    H1 7945   3.999   4.051   2.629
 1136KAXM    H8 7946   4.781   1.196   5.591
 1136KAXM    O2 7947   4.876   1.164   5.570
 1136KAXM    C3 7948   4.961   1.278   5.597
 1136KAXM    C2 7949   5.109   1.245   5.604
 1136KAXM    C1 7950   5.192   1.371   5.622
 1136KAXM    O1 7951   5.332   1.347   5.645
 1136KAXM    H1 7952   5.367   1.276   5.581
 1137KAXM    H8 7953   3.694   2.184   3.755
 1137KAXM    O2 7954   3.740   2.150   3.671
 1137KAXM    C3 7955   3.879   2.125   3.698
 1137KAXM    C2 7956   3.964   2.251   3.714
 1137KAXM    C1 7957   4.106   2.231   3.660
 1137KAXM    O1 7958   4.182   2.128   3.727
 1137KAXM    H1 7959   4.152   2.037   3.695
 1138KAXM    H8 7960   2.711   2.705   5.637
 1138KAXM    O2 7961   2.727   2.795   5.678
 1138KAXM    C3 7962   2.796   2.777   5.802
 1138KAXM    C2 7963   2.705   2.786   5.923
 1138KAXM    C1 7964   2.589   2.685   5.922
 1138KAXM    O1 7965   2.511   2.689   0.043
 1138KAXM    H1 7966   2.530   2.775   0.093
 1139KAXM    H8 7967   1.981   2.618   5.357
 1139KAXM    O2 7968   1.933   2.530   5.346
 1139KAXM    C3 7969   1.806   2.551   5.281
 1139KAXM    C2 7970   1.806   2.506   5.135
 1139KAXM    C1 7971   1.663   2.505   5.081
 1139KAXM    O1 7972   1.656   2.458   4.945
 1139KAXM    H1 7973   1.623   2.363   4.940
 1140KAXM    H8 7974   3.652   3.982   3.685
 1140KAXM    O2 7975   3.614   4.029   3.605
 1140KAXM    C3 7976   3.474   3.998   3.591
 1140KAXM    C2 7977   3.443   3.957   3.447
 1140KAXM    C1 7978   3.295   3.941   3.417
 1140KAXM    O1 7979   3.225   4.066   3.400
 1140KAXM    H1 7980   3.163   4.079   3.480
 1141KAXM    H8 7981   3.149   3.282   2.358
 1141KAXM    O2 7982   3.115   3.223   2.433
 1141KAXM    C3 7983   3.125   3.303   2.553
 1141KAXM    C2 7984   3.246   3.263   2.637
 1141KAXM    C1 7985   3.274   3.365   2.747
 1141KAXM    O1 7986   3.163   3.387   2.835
 1141KAXM    H1 7987   3.181   3.470   2.888
 1142KAXM    H8 7988   0.900   2.679   3.531
 1142KAXM    O2 7989   0.825   2.684   3.464
 1142KAXM    C3 7990   0.769   2.553   3.452
 1142KAXM    C2 7991   0.683   2.535   3.328
 1142KAXM    C1 7992   0.618   2.397   3.333
 1142KAXM    O1 7993   0.523   2.383   3.228
 1142KAXM    H1 7994   0.438   2.432   3.250
 1143KAXM    H8 7995   1.547   5.889   2.937
 1143KAXM    O2 7996   1.627   5.880   2.991
 1143KAXM    C3 7997   1.589   5.813   3.113
 1143KAXM    C2 7998   1.705   5.794   3.211
 1143KAXM    C1 7999   1.656   5.722   3.336
 1143KAXM    O1 8000   1.759   5.716   3.437
 1143KAXM    H1 8001   1.730   5.664   3.517
 1144KAXM    H8 8002   2.026   2.700   3.181
 1144KAXM    O2 8003   1.971   2.782   3.192
 1144KAXM    C3 8004   1.847   2.768   3.121
 1144KAXM    C2 8005   1.870   2.773   2.971
 1144KAXM    C1 8006   1.757   2.708   2.891
 1144KAXM    O1 8007   1.735   2.568   2.918
 1144KAXM    H1 8008   1.809   2.528   2.974
 1145KAXM    H8 8009   5.827   0.079   5.943
 1145KAXM    O2 8010   5.923   0.073   5.972
 1145KAXM    C3 8011   5.995   0.000   5.871
 1145KAXM    C2 8012   0.136   5.965   5.915
 1145KAXM    C1 8013   0.204   5.876   5.811
 1145KAXM    O1 8014   0.331   5.827   5.858
 1145KAXM    H1 8015   0.402   5.900   5.843
 1146KAXM    H8 8016   4.474   2.888   0.067
 1146KAXM    O2 8017   4.373   2.894   0.061
 1146KAXM    C3 8018   4.336   2.986   5.957
 1146KAXM    C2 8019   4.360   2.923   5.821
 1146KAXM    C1 8020   4.394   3.027   5.716
 1146KAXM    O1 8021   4.466   2.969   5.605
 1146KAXM    H1 8022   4.442   3.019   5.524
 1147KAXM    H8 8023   0.623   1.411   1.504
 1147KAXM    O2 8024   0.720   1.393   1.525
 1147KAXM    C3 8025   0.738   1.259   1.576
 1147KAXM    C2 8026   0.775   1.260   1.724
 1147KAXM    C1 8027   0.821   1.123   1.774
 1147KAXM    O1 8028   0.952   1.089   1.725
 1147KAXM    H1 8029   1.023   1.116   1.790
 1148KAXM    H8 8030   3.885   2.153   5.238
 1148KAXM    O2 8031   3.873   2.074   5.178
 1148KAXM    C3 8032   3.976   2.077   5.079
 1148KAXM    C2 8033   4.020   1.938   5.036
 1148KAXM    C1 8034   4.118   1.948   4.920
 1148KAXM    O1 8035   4.151   1.819   4.867
 1148KAXM    H1 8036   4.222   1.830   4.797
 1149KAXM    H8 8037   2.245   5.624   5.479
 1149KAXM    O2 8038   2.210   5.641   5.385
 1149KAXM    C3 8039   2.152   5.519   5.335
 1149KAXM    C2 8040   2.144   5.516   5.183
 1149KAXM    C1 8041   2.022   5.590   5.130
 1149KAXM    O1 8042   1.902   5.513   5.142
 1149KAXM    H1 8043   1.827   5.575   5.168
 1150KAXM    H8 8044   2.488   1.633   5.323
 1150KAXM    O2 8045   2.439   1.710   5.281
 1150KAXM    C3 8046   2.369   1.785   5.381
 1150KAXM    C2 8047   2.271   1.881   5.317
 1150KAXM    C1 8048   2.173   1.938   5.419
 1150KAXM    O1 8049   2.082   1.837   5.468
 1150KAXM    H1 8050   1.997   1.887   5.494
 1151KAXM    H8 8051   4.168   4.609   5.317
 1151KAXM    O2 8052   4.080   4.594   5.277
 1151KAXM    C3 8053   4.103   4.586   5.135
 1151KAXM    C2 8054   3.980   4.550   5.053
 1151KAXM    C1 8055   4.016   4.544   4.905
 1151KAXM    O1 8056   4.108   4.438   4.879
 1151KAXM    H1 8057   4.166   4.457   4.800
 1152KAXM    H8 8058   2.417   3.770   2.032
 1152KAXM    O2 8059   2.367   3.835   1.972
 1152KAXM    C3 8060   2.433   3.962   1.982
 1152KAXM    C2 8061   2.402   4.055   1.866
 1152KAXM    C1 8062   2.463   4.002   1.737
 1152KAXM    O1 8063   2.447   4.099   1.632
 1152KAXM    H1 8064   2.354   4.091   1.590
 1153KAXM    H8 8065   0.078   1.550   4.651
 1153KAXM    O2 8066   0.051   1.474   4.713
 1153KAXM    C3 8067   0.148   1.469   4.819
 1153KAXM    C2 8068   0.110   1.562   4.933
 1153KAXM    C1 8069   0.206   1.543   5.051
 1153KAXM    O1 8070   0.146   1.585   5.175
 1153KAXM    H1 8071   0.213   1.570   5.245
 1154KAXM    H8 8072   3.962   1.586   1.136
 1154KAXM    O2 8073   3.946   1.671   1.189
 1154KAXM    C3 8074   4.071   1.734   1.220
 1154KAXM    C2 8075   4.152   1.763   1.094
 1154KAXM    C1 8076   4.274   1.850   1.123
 1154KAXM    O1 8077   4.238   1.979   1.175
 1154KAXM    H1 8078   4.250   2.047   1.101
 1155KAXM    H8 8079   2.476   2.027   2.240
 1155KAXM    O2 8080   2.410   1.949   2.244
 1155KAXM    C3 8081   2.388   1.896   2.112
 1155KAXM    C2 8082   2.519   1.872   2.040
 1155KAXM    C1 8083   2.498   1.815   1.901
 1155KAXM    O1 8084   2.619   1.827   1.825
 1155KAXM    H1 8085   2.628   1.925   1.799
 1156KAXM    H8 8086   0.812   5.536   1.838
 1156KAXM    O2 8087   0.869   5.584   1.905
 1156KAXM    C3 8088   0.830   5.722   1.908
 1156KAXM    C2 8089   0.946   5.811   1.948
 1156KAXM    C1 8090   0.903   5.956   1.966
 1156KAXM    O1 8091   1.017   0.042   1.986
 1156KAXM    H1 8092   0.989   0.134   1.957
 1157KAXM    H8 8093   3.951   3.967   4.650
 1157KAXM    O2 8094   3.950   4.025   4.733
 1157KAXM    C3 8095   3.988   4.161   4.706
 1157KAXM    C2 8096   3.953   4.216   4.569
 1157KAXM    C1 8097   4.050   4.167   4.461
 1157KAXM    O1 8098   4.018   4.222   4.332
 1157KAXM    H1 8099   4.014   4.323   4.341
 1158KAXM    H8 8100   0.123   1.605   1.017
 1158KAXM    O2 8101   0.197   1.536   1.011
 1158KAXM    C3 8102   0.140   1.404   1.001
 1158KAXM    C2 8103   0.122   1.335   1.136
 1158KAXM    C1 8104   0.026   1.413   1.226
 1158KAXM    O1 8105   0.013   1.358   1.358
 1158KAXM    H1 8106   5.938   1.410   1.404
 1159KAXM    H8 8107   2.970   2.736   0.943
 1159KAXM    O2 8108   2.963   2.796   0.862
 1159KAXM    C3 8109   2.975   2.715   0.744
 1159KAXM    C2 8110   2.899   2.776   0.626
 1159KAXM    C1 8111   2.911   2.688   0.502
 1159KAXM    O1 8112   2.808   2.717   0.406
 1159KAXM    H1 8113   2.736   2.649   0.412
 1160KAXM    H8 8114   5.427   0.874   4.060
 1160KAXM    O2 8115   5.396   0.904   4.152
 1160KAXM    C3 8116   5.256   0.934   4.142
 1160KAXM    C2 8117   5.233   1.060   4.060
 1160KAXM    C1 8118   5.091   1.065   4.007
 1160KAXM    O1 8119   5.059   1.200   3.970
 1160KAXM    H1 8120   5.024   1.248   4.053
 1161KAXM    H8 8121   0.418   5.952   1.726
 1161KAXM    O2 8122   0.423   0.052   1.710
 1161KAXM    C3 8123   0.558   0.091   1.684
 1161KAXM    C2 8124   0.590   0.087   1.535
 1161KAXM    C1 8125   0.520   0.198   1.457
 1161KAXM    O1 8126   0.540   0.181   1.316
 1161KAXM    H1 8127   0.624   0.228   1.287
 1162KAXM    H8 8128   4.577   0.236   4.328
 1162KAXM    O2 8129   4.591   0.180   4.411
 1162KAXM    C3 8130   4.670   0.258   4.502
 1162KAXM    C2 8131   4.602   0.272   4.637
 1162KAXM    C1 8132   4.689   0.352   4.731
 1162KAXM    O1 8133   4.609   0.423   4.827
 1162KAXM    H1 8134   4.594   0.363   4.907
 1163KAXM    H8 8135   2.549   3.802   5.365
 1163KAXM    O2 8136   2.460   3.754   5.375
 1163KAXM    C3 8137   2.356   3.852   5.375
 1163KAXM    C2 8138   2.238   3.807   5.458
 1163KAXM    C1 8139   2.131   3.915   5.463
 1163KAXM    O1 8140   2.060   3.933   5.339
 1163KAXM    H1 8141   1.999   4.015   5.354
 1164KAXM    H8 8142   0.529   4.286   5.269
 1164KAXM    O2 8143   0.533   4.382   5.300
 1164KAXM    C3 8144   0.451   4.395   5.418
 1164KAXM    C2 8145   0.536   4.428   5.540
 1164KAXM    C1 8146   0.453   4.450   5.666
 1164KAXM    O1 8147   0.536   4.497   5.773
 1164KAXM    H1 8148   0.550   4.427   5.844
 1165KAXM    H8 8149   3.625   5.002   5.167
 1165KAXM    O2 8150   3.530   5.000   5.193
 1165KAXM    C3 8151   3.517   5.070   5.318
 1165KAXM    C2 8152   3.604   5.003   5.423
 1165KAXM    C1 8153   3.642   5.098   5.536
 1165KAXM    O1 8154   3.769   5.059   5.591
 1165KAXM    H1 8155   3.756   4.992   5.665
 1166KAXM    H8 8156   5.822   5.136   0.405
 1166KAXM    O2 8157   5.865   5.081   0.477
 1166KAXM    C3 8158   6.000   5.125   0.500
 1166KAXM    C2 8159   0.066   5.059   0.622
 1166KAXM    C1 8160   0.096   4.910   0.605
 1166KAXM    O1 8161   0.215   4.881   0.529
 1166KAXM    H1 8162   0.190   4.853   0.435
 1167KAXM    H8 8163   3.672   1.646   5.925
 1167KAXM    O2 8164   3.725   1.669   5.841
 1167KAXM    C3 8165   3.852   1.726   5.878
 1167KAXM    C2 8166   3.839   1.874   5.908
 1167KAXM    C1 8167   3.975   1.941   5.921
 1167KAXM    O1 8168   3.963   2.081   5.955
 1167KAXM    H1 8169   3.904   2.130   5.890
 1168KAXM    H8 8170   3.667   3.201   5.717
 1168KAXM    O2 8171   3.656   3.102   5.735
 1168KAXM    C3 8172   3.604   3.077   5.866
 1168KAXM    C2 8173   3.692   2.976   5.939
 1168KAXM    C1 8174   3.633   2.946   0.076
 1168KAXM    O1 8175   3.726   2.876   0.162
 1168KAXM    H1 8176   3.746   2.785   0.123
 1169KAXM    H8 8177   0.605   1.545   3.655
 1169KAXM    O2 8178   0.670   1.499   3.717
 1169KAXM    C3 8179   0.605   1.387   3.779
 1169KAXM    C2 8180   0.694   1.323   3.885
 1169KAXM    C1 8181   0.621   1.313   4.018
 1169KAXM    O1 8182   0.595   1.443   4.072
 1169KAXM    H1 8183   0.517   1.440   4.135
 1170KAXM    H8 8184   3.763   3.401   2.115
 1170KAXM    O2 8185   3.678   3.432   2.161
 1170KAXM    C3 8186   3.705   3.512   2.277
 1170KAXM    C2 8187   3.790   3.632   2.244
 1170KAXM    C1 8188   3.833   3.697   2.374
 1170KAXM    O1 8189   3.902   3.820   2.352
 1170KAXM    H1 8190   3.930   3.858   2.440
 1171KAXM    H8 8191   3.472   1.659   4.371
 1171KAXM    O2 8192   3.509   1.695   4.459
 1171KAXM    C3 8193   3.398   1.726   4.545
 1171KAXM    C2 8194   3.324   1.851   4.499
 1171KAXM    C1 8195   3.195   1.861   4.578
 1171KAXM    O1 8196   3.129   1.988   4.563
 1171KAXM    H1 8197   3.081   2.005   4.650
 1172KAXM    H8 8198   4.222   4.310   5.743
 1172KAXM    O2 8199   4.166   4.368   5.681
 1172KAXM    C3 8200   4.160   4.314   5.548
 1172KAXM    C2 8201   4.290   4.336   5.471
 1172KAXM    C1 8202   4.283   4.279   5.330
 1172KAXM    O1 8203   4.403   4.304   5.255
 1172KAXM    H1 8204   4.417   4.404   5.250
 1173KAXM    H8 8205   5.479   0.318   2.730
 1173KAXM    O2 8206   5.545   0.254   2.687
 1173KAXM    C3 8207   5.493   0.120   2.690
 1173KAXM    C2 8208   5.486   0.058   2.551
 1173KAXM    C1 8209   5.453   5.909   2.558
 1173KAXM    O1 8210   5.326   5.882   2.619
 1173KAXM    H1 8211   5.336   5.819   2.695
 1174KAXM    H8 8212   4.524   3.958   5.878
 1174KAXM    O2 8213   4.427   3.926   5.877
 1174KAXM    C3 8214   4.378   3.938   5.742
 1174KAXM    C2 8215   4.226   3.939   5.733
 1174KAXM    C1 8216   4.185   3.945   5.586
 1174KAXM    O1 8217   4.044   3.954   5.571
 1174KAXM    H1 8218   4.020   3.945   5.476
 1175KAXM    H8 8219   2.277   5.125   2.301
 1175KAXM    O2 8220   2.279   5.152   2.399
 1175KAXM    C3 8221   2.178   5.079   2.472
 1175KAXM    C2 8222   2.225   5.035   2.609
 1175KAXM    C1 8223   2.212   4.883   2.626
 1175KAXM    O1 8224   2.303   4.810   2.541
 1175KAXM    H1 8225   2.328   4.723   2.586
 1176KAXM    H8 8226   1.536   4.289   3.122
 1176KAXM    O2 8227   1.479   4.209   3.101
 1176KAXM    C3 8228   1.413   4.227   2.975
 1176KAXM    C2 8229   1.271   4.278   2.995
 1176KAXM    C1 8230   1.210   4.316   2.861
 1176KAXM    O1 8231   1.091   4.394   2.878
 1176KAXM    H1 8232   1.019   4.338   2.924
 1177KAXM    H8 8233   3.209   3.555   3.092
 1177KAXM    O2 8234   3.211   3.498   3.176
 1177KAXM    C3 8235   3.237   3.583   3.289
 1177KAXM    C2 8236   3.221   3.506   3.420
 1177KAXM    C1 8237   3.292   3.575   3.536
 1177KAXM    O1 8238   3.432   3.590   3.510
 1177KAXM    H1 8239   3.479   3.503   3.504
 1178KAXM    H8 8240   1.798   0.429   4.310
 1178KAXM    O2 8241   1.811   0.487   4.230
 1178KAXM    C3 8242   1.788   0.623   4.270
 1178KAXM    C2 8243   1.916   0.697   4.306
 1178KAXM    C1 8244   1.881   0.841   4.339
 1178KAXM    O1 8245   1.996   0.922   4.366
 1178KAXM    H1 8246   1.964   1.017   4.378
 1179KAXM    H8 8247   4.242   0.608   2.016
 1179KAXM    O2 8248   4.219   0.553   2.098
 1179KAXM    C3 8249   4.297   0.596   2.211
 1179KAXM    C2 8250   4.258   0.737   2.254
 1179KAXM    C1 8251   4.324   0.773   2.386
 1179KAXM    O1 8252   4.298   0.909   2.424
 1179KAXM    H1 8253   4.361   0.931   2.500
 1180KAXM    H8 8254   0.094   3.429   3.870
 1180KAXM    O2 8255   0.049   3.495   3.808
 1180KAXM    C3 8256   5.945   3.428   3.733
 1180KAXM    C2 8257   5.997   3.300   3.672
 1180KAXM    C1 8258   5.900   3.236   3.575
 1180KAXM    O1 8259   5.951   3.110   3.527
 1180KAXM    H1 8260   0.040   3.126   3.479
 1181KAXM    H8 8261   3.446   3.850   1.565
 1181KAXM    O2 8262   3.537   3.826   1.600
 1181KAXM    C3 8263   3.586   3.711   1.530
 1181KAXM    C2 8264   3.699   3.745   1.434
 1181KAXM    C1 8265   3.832   3.767   1.506
 1181KAXM    O1 8266   3.943   3.788   1.415
 1181KAXM    H1 8267   3.967   3.702   1.366
 1182KAXM    H8 8268   0.716   5.066   3.186
 1182KAXM    O2 8269   0.616   5.048   3.183
 1182KAXM    C3 8270   0.559   5.098   3.305
 1182KAXM    C2 8271   0.541   5.249   3.293
 1182KAXM    C1 8272   0.537   5.316   3.428
 1182KAXM    O1 8273   0.525   5.459   3.416
 1182KAXM    H1 8274   0.486   5.492   3.504
 1183KAXM    H8 8275   4.883   5.494   5.048
 1183KAXM    O2 8276   4.929   5.420   5.099
 1183KAXM    C3 8277   4.852   5.392   5.218
 1183KAXM    C2 8278   4.930   5.425   5.344
 1183KAXM    C1 8279   4.852   5.380   5.467
 1183KAXM    O1 8280   4.931   5.388   5.587
 1183KAXM    H1 8281   4.999   5.315   5.587
 1184KAXM    H8 8282   4.054   1.481   2.820
 1184KAXM    O2 8283   4.156   1.473   2.827
 1184KAXM    C3 8284   4.216   1.567   2.737
 1184KAXM    C2 8285   4.312   1.662   2.808
 1184KAXM    C1 8286   4.370   1.760   2.706
 1184KAXM    O1 8287   4.477   1.842   2.756
 1184KAXM    H1 8288   4.545   1.779   2.799
 1185KAXM    H8 8289   1.262   3.795   2.658
 1185KAXM    O2 8290   1.276   3.870   2.725
 1185KAXM    C3 8291   1.165   3.878   2.817
 1185KAXM    C2 8292   1.176   3.778   2.931
 1185KAXM    C1 8293   1.073   3.810   3.038
 1185KAXM    O1 8294   1.073   3.714   3.145
 1185KAXM    H1 8295   1.154   3.724   3.204
 1186KAXM    H8 8296   2.946   1.941   4.824
 1186KAXM    O2 8297   3.024   2.001   4.799
 1186KAXM    C3 8298   3.094   2.037   4.920
 1186KAXM    C2 8299   3.135   1.913   4.998
 1186KAXM    C1 8300   3.153   1.941   5.147
 1186KAXM    O1 8301   3.031   1.983   5.210
 1186KAXM    H1 8302   2.976   1.902   5.238
 1187KAXM    H8 8303   1.079   2.207   1.920
 1187KAXM    O2 8304   1.120   2.298   1.917
 1187KAXM    C3 8305   1.081   2.357   1.791
 1187KAXM    C2 8306   1.190   2.343   1.687
 1187KAXM    C1 8307   1.147   2.409   1.557
 1187KAXM    O1 8308   1.250   2.399   1.459
 1187KAXM    H1 8309   1.246   2.481   1.402
 1188KAXM    H8 8310   5.663   3.593   5.463
 1188KAXM    O2 8311   5.666   3.513   5.403
 1188KAXM    C3 8312   5.716   3.400   5.475
 1188KAXM    C2 8313   5.608   3.328   5.553
 1188KAXM    C1 8314   5.676   3.215   5.628
 1188KAXM    O1 8315   5.586   3.130   5.699
 1188KAXM    H1 8316   5.634   3.042   5.717
 1189KAXM    H8 8317   1.917   0.580   2.647
 1189KAXM    O2 8318   2.004   0.586   2.595
 1189KAXM    C3 8319   1.979   0.550   2.458
 1189KAXM    C2 8320   2.012   0.667   2.367
 1189KAXM    C1 8321   1.915   0.782   2.393
 1189KAXM    O1 8322   1.972   0.907   2.351
 1189KAXM    H1 8323   2.001   0.953   2.435
 1190KAXM    H8 8324   5.081   4.392   4.512
 1190KAXM    O2 8325   5.073   4.449   4.597
 1190KAXM    C3 8326   5.167   4.399   4.695
 1190KAXM    C2 8327   5.105   4.383   4.833
 1190KAXM    C1 8328   5.206   4.342   4.940
 1190KAXM    O1 8329   5.145   4.319   5.068
 1190KAXM    H1 8330   5.053   4.276   5.058
 1191KAXM    H8 8331   4.849   5.112   1.853
 1191KAXM    O2 8332   4.879   5.148   1.763
 1191KAXM    C3 8333   4.785   5.113   1.660
 1191KAXM    C2 8334   4.821   5.181   1.528
 1191KAXM    C1 8335   4.722   5.145   1.419
 1191KAXM    O1 8336   4.756   5.211   1.296
 1191KAXM    H1 8337   4.690   5.284   1.277
 1192KAXM    H8 8338   5.215   5.531   2.425
 1192KAXM    O2 8339   5.116   5.522   2.443
 1192KAXM    C3 8340   5.078   5.645   2.508
 1192KAXM    C2 8341   4.936   5.689   2.473
 1192KAXM    C1 8342   4.910   5.831   2.524
 1192KAXM    O1 8343   4.777   5.874   2.494
 1192KAXM    H1 8344   4.726   5.888   2.581
 1193KAXM    H8 8345   2.862   5.597   1.433
 1193KAXM    O2 8346   2.911   5.664   1.493
 1193KAXM    C3 8347   3.013   5.730   1.416
 1193KAXM    C2 8348   3.125   5.637   1.369
 1193KAXM    C1 8349   3.214   5.714   1.273
 1193KAXM    O1 8350   3.323   5.639   1.218
 1193KAXM    H1 8351   3.363   5.696   1.143
 1194KAXM    H8 8352   4.418   4.631   5.185
 1194KAXM    O2 8353   4.436   4.561   5.256
 1194KAXM    C3 8354   4.534   4.619   5.344
 1194KAXM    C2 8355   4.648   4.524   5.373
 1194KAXM    C1 8356   4.752   4.593   5.461
 1194KAXM    O1 8357   4.856   4.501   5.501
 1194KAXM    H1 8358   4.941   4.530   5.455
 1195KAXM    H8 8359   3.934   2.466   2.173
 1195KAXM    O2 8360   3.997   2.406   2.222
 1195KAXM    C3 8361   3.929   2.282   2.248
 1195KAXM    C2 8362   4.020   2.181   2.318
 1195KAXM    C1 8363   3.946   2.052   2.351
 1195KAXM    O1 8364   4.034   1.954   2.410
 1195KAXM    H1 8365   4.073   1.990   2.496
 1196KAXM    H8 8366   5.095   0.691   5.133
 1196KAXM    O2 8367   5.008   0.667   5.178
 1196KAXM    C3 8368   5.026   0.557   5.270
 1196KAXM    C2 8369   4.971   0.589   5.409
 1196KAXM    C1 8370   5.064   0.683   5.485
 1196KAXM    O1 8371   5.016   0.721   5.616
 1196KAXM    H1 8372   4.958   0.648   5.655
 1197KAXM    H8 8373   1.508   1.985   1.164
 1197KAXM    O2 8374   1.576   1.911   1.151
 1197KAXM    C3 8375   1.520   1.793   1.212
 1197KAXM    C2 8376   1.402   1.744   1.130
 1197KAXM    C1 8377   1.328   1.629   1.196
 1197KAXM    O1 8378   1.218   1.591   1.113
 1197KAXM    H1 8379   1.199   1.492   1.126
 1198KAXM    H8 8380   4.639   5.040   5.791
 1198KAXM    O2 8381   4.682   4.947   5.789
 1198KAXM    C3 8382   4.701   4.902   5.925
 1198KAXM    C2 8383   4.797   4.991   0.002
 1198KAXM    C1 8384   4.797   4.952   0.149
 1198KAXM    O1 8385   4.871   5.047   0.228
 1198KAXM    H1 8386   4.955   5.001   0.259
 1199KAXM    H8 8387   4.504   5.183   3.512
 1199KAXM    O2 8388   4.475   5.270   3.471
 1199KAXM    C3 8389   4.393   5.344   3.563
 1199KAXM    C2 8390   4.454   5.480   3.594
 1199KAXM    C1 8391   4.376   5.554   3.702
 1199KAXM    O1 8392   4.440   5.678   3.737
 1199KAXM    H1 8393   4.371   5.737   3.782
 1200KAXM    H8 8394   2.591   3.380   1.973
 1200KAXM    O2 8395   2.643   3.304   2.012
 1200KAXM    C3 8396   2.716   3.354   2.124
 1200KAXM    C2 8397   2.854   3.293   2.137
 1200KAXM    C1 8398   2.939   3.312   2.011
 1200KAXM    O1 8399   3.074   3.276   2.042
 1200KAXM    H1 8400   3.122   3.237   1.961
 1201KAXM    H8 8401   4.981   2.671   1.439
 1201KAXM    O2 8402   5.079   2.647   1.441
 1201KAXM    C3 8403   5.092   2.508   1.407
 1201KAXM    C2 8404   5.089   2.415   1.527
 1201KAXM    C1 8405   5.221   2.416   1.603
 1201KAXM    O1 8406   5.216   2.329   1.718
 1201KAXM    H1 8407   5.201   2.234   1.689
 1202KAXM    H8 8408   3.821   5.723   5.689
 1202KAXM    O2 8409   3.852   5.784   5.760
 1202KAXM    C3 8410   3.995   5.768   5.775
 1202KAXM    C2 8411   4.048   5.876   5.867
 1202KAXM    C1 8412   4.199   5.873   5.887
 1202KAXM    O1 8413   4.240   5.986   5.966
 1202KAXM    H1 8414   4.330   5.967   0.006
 1203KAXM    H8 8415   3.404   4.487   1.646
 1203KAXM    O2 8416   3.422   4.478   1.546
 1203KAXM    C3 8417   3.540   4.551   1.507
 1203KAXM    C2 8418   3.574   4.518   1.362
 1203KAXM    C1 8419   3.703   4.583   1.314
 1203KAXM    O1 8420   3.720   4.559   1.173
 1203KAXM    H1 8421   3.795   4.615   1.138
 1204KAXM    H8 8422   0.464   1.531   1.557
 1204KAXM    O2 8423   0.491   1.477   1.476
 1204KAXM    C3 8424   0.379   1.476   1.387
 1204KAXM    C2 8425   0.399   1.567   1.268
 1204KAXM    C1 8426   0.485   1.502   1.161
 1204KAXM    O1 8427   0.446   1.553   1.032
 1204KAXM    H1 8428   0.345   1.544   1.021
 1205KAXM    H8 8429   5.555   1.346   2.096
 1205KAXM    O2 8430   5.572   1.248   2.102
 1205KAXM    C3 8431   5.462   1.173   2.048
 1205KAXM    C2 8432   5.440   1.186   1.898
 1205KAXM    C1 8433   5.329   1.090   1.858
 1205KAXM    O1 8434   5.298   1.095   1.718
 1205KAXM    H1 8435   5.228   1.028   1.696
 1206KAXM    H8 8436   0.539   1.537   0.923
 1206KAXM    O2 8437   0.600   1.524   0.843
 1206KAXM    C3 8438   0.624   1.652   0.782
 1206KAXM    C2 8439   0.504   1.698   0.701
 1206KAXM    C1 8440   0.479   1.606   0.582
 1206KAXM    O1 8441   0.360   1.645   0.512
 1206KAXM    H1 8442   0.380   1.722   0.448
 1207KAXM    H8 8443   1.054   4.387   1.085
 1207KAXM    O2 8444   0.976   4.430   1.035
 1207KAXM    C3 8445   1.030   4.499   0.920
 1207KAXM    C2 8446   0.923   4.527   0.815
 1207KAXM    C1 8447   0.983   4.587   0.690
 1207KAXM    O1 8448   0.885   4.600   0.586
 1207KAXM    H1 8449   0.923   4.652   0.512
 1208KAXM    H8 8450   2.842   1.474   2.837
 1208KAXM    O2 8451   2.779   1.408   2.881
 1208KAXM    C3 8452   2.790   1.426   3.023
 1208KAXM    C2 8453   2.743   1.302   3.097
 1208KAXM    C1 8454   2.739   1.328   3.247
 1208KAXM    O1 8455   2.612   1.284   3.299
 1208KAXM    H1 8456   2.611   1.183   3.294
 1209KAXM    H8 8457   4.600   5.121   5.260
 1209KAXM    O2 8458   4.529   5.165   5.318
 1209KAXM    C3 8459   4.492   5.289   5.257
 1209KAXM    C2 8460   4.394   5.371   5.341
 1209KAXM    C1 8461   4.456   5.408   5.475
 1209KAXM    O1 8462   4.368   5.490   5.554
 1209KAXM    H1 8463   4.290   5.432   5.585
 1210KAXM    H8 8464   1.217   5.511   3.771
 1210KAXM    O2 8465   1.310   5.520   3.809
 1210KAXM    C3 8466   1.321   5.461   3.940
 1210KAXM    C2 8467   1.457   5.495   4.001
 1210KAXM    C1 8468   1.466   5.489   4.153
 1210KAXM    O1 8469   1.445   5.358   4.209
 1210KAXM    H1 8470   1.480   5.356   4.304
 1211KAXM    H8 8471   2.889   3.431   5.670
 1211KAXM    O2 8472   2.956   3.471   5.734
 1211KAXM    C3 8473   2.947   3.615   5.731
 1211KAXM    C2 8474   3.084   3.681   5.725
 1211KAXM    C1 8475   3.153   3.646   5.594
 1211KAXM    O1 8476   3.293   3.681   5.594
 1211KAXM    H1 8477   3.304   3.765   5.539
 1212KAXM    H8 8478   2.198   3.599   4.747
 1212KAXM    O2 8479   2.154   3.605   4.836
 1212KAXM    C3 8480   2.232   3.698   4.914
 1212KAXM    C2 8481   2.147   3.807   4.981
 1212KAXM    C1 8482   2.238   3.913   5.042
 1212KAXM    O1 8483   2.168   4.012   5.120
 1212KAXM    H1 8484   2.127   3.971   5.202
 1213KAXM    H8 8485   5.387   5.229   4.077
 1213KAXM    O2 8486   5.340   5.265   4.158
 1213KAXM    C3 8487   5.285   5.153   4.231
 1213KAXM    C2 8488   5.255   5.186   4.377
 1213KAXM    C1 8489   5.383   5.198   4.457
 1213KAXM    O1 8490   5.364   5.246   4.592
 1213KAXM    H1 8491   5.455   5.279   4.622
 1214KAXM    H8 8492   4.397   2.051   5.423
 1214KAXM    O2 8493   4.485   2.067   5.379
 1214KAXM    C3 8494   4.553   1.943   5.357
 1214KAXM    C2 8495   4.566   1.863   5.485
 1214KAXM    C1 8496   4.654   1.742   5.462
 1214KAXM    O1 8497   4.658   1.657   5.578
 1214KAXM    H1 8498   4.736   1.686   5.637
 1215KAXM    H8 8499   2.356   3.767   2.599
 1215KAXM    O2 8500   2.332   3.692   2.661
 1215KAXM    C3 8501   2.357   3.727   2.798
 1215KAXM    C2 8502   2.351   3.605   2.889
 1215KAXM    C1 8503   2.356   3.645   3.035
 1215KAXM    O1 8504   2.479   3.713   3.068
 1215KAXM    H1 8505   2.551   3.645   3.090
 1216KAXM    H8 8506   4.106   5.379   1.040
 1216KAXM    O2 8507   4.183   5.323   1.067
 1216KAXM    C3 8508   4.125   5.202   1.119
 1216KAXM    C2 8509   4.214   5.137   1.223
 1216KAXM    C1 8510   4.151   5.008   1.273
 1216KAXM    O1 8511   4.248   4.931   1.345
 1216KAXM    H1 8512   4.206   4.899   1.432
 1217KAXM    H8 8513   5.924   2.848   0.274
 1217KAXM    O2 8514   0.014   2.825   0.240
 1217KAXM    C3 8515   0.002   2.784   0.103
 1217KAXM    C2 8516   0.106   2.680   0.064
 1217KAXM    C1 8517   0.092   2.644   5.917
 1217KAXM    O1 8518   0.163   2.523   5.884
 1217KAXM    H1 8519   0.116   2.445   5.928
 1218KAXM    H8 8520   2.089   2.867   1.086
 1218KAXM    O2 8521   2.131   2.778   1.063
 1218KAXM    C3 8522   2.027   2.694   1.009
 1218KAXM    C2 8523   1.991   2.731   0.866
 1218KAXM    C1 8524   2.104   2.696   0.770
 1218KAXM    O1 8525   2.068   2.732   0.636
 1218KAXM    H1 8526   2.144   2.717   0.572
 1219KAXM    H8 8527   2.297   1.864   3.549
 1219KAXM    O2 8528   2.240   1.932   3.502
 1219KAXM    C3 8529   2.153   1.867   3.408
 1219KAXM    C2 8530   2.203   1.879   3.265
 1219KAXM    C1 8531   2.102   1.820   3.166
 1219KAXM    O1 8532   2.146   1.829   3.030
 1219KAXM    H1 8533   2.225   1.767   3.016
 1220KAXM    H8 8534   3.108   3.078   2.383
 1220KAXM    O2 8535   3.114   2.988   2.337
 1220KAXM    C3 8536   3.029   2.995   2.221
 1220KAXM    C2 8537   3.064   2.901   2.106
 1220KAXM    C1 8538   2.978   2.937   1.986
 1220KAXM    O1 8539   2.969   2.835   1.884
 1220KAXM    H1 8540   2.891   2.857   1.823
 1221KAXM    H8 8541   0.790   2.156   5.558
 1221KAXM    O2 8542   0.875   2.109   5.528
 1221KAXM    C3 8543   0.841   2.030   5.414
 1221KAXM    C2 8544   0.812   2.120   5.295
 1221KAXM    C1 8545   0.707   2.058   5.204
 1221KAXM    O1 8546   0.579   2.053   5.268
 1221KAXM    H1 8547   0.513   2.004   5.211
 1222KAXM    H8 8548   3.030   5.062   1.166
 1222KAXM    O2 8549   2.964   5.002   1.119
 1222KAXM    C3 8550   2.977   5.012   0.976
 1222KAXM    C2 8551   2.866   5.096   0.913
 1222KAXM    C1 8552   2.876   5.098   0.761
 1222KAXM    O1 8553   2.765   5.165   0.699
 1222KAXM    H1 8554   2.799   5.205   0.613
 1223KAXM    H8 8555   5.776   0.199   4.339
 1223KAXM    O2 8556   5.871   0.192   4.302
 1223KAXM    C3 8557   5.962   0.223   4.408
 1223KAXM    C2 8558   0.040   0.099   4.445
 1223KAXM    C1 8559   0.130   0.130   4.563
 1223KAXM    O1 8560   0.187   0.009   4.615
 1223KAXM    H1 8561   0.267   0.036   4.671
 1224KAXM    H8 8562   5.266   1.156   3.670
 1224KAXM    O2 8563   5.330   1.094   3.623
 1224KAXM    C3 8564   5.284   1.062   3.490
 1224KAXM    C2 8565   5.330   1.166   3.388
 1224KAXM    C1 8566   5.295   1.127   3.244
 1224KAXM    O1 8567   5.380   1.026   3.187
 1224KAXM    H1 8568   5.364   0.938   3.235
 1225KAXM    H8 8569   4.582   1.195   5.688
 1225KAXM    O2 8570   4.639   1.225   5.609
 1225KAXM    C3 8571   4.551   1.256   5.500
 1225KAXM    C2 8572   4.627   1.260   5.369
 1225KAXM    C1 8573   4.530   1.252   5.254
 1225KAXM    O1 8574   4.592   1.191   5.139
 1225KAXM    H1 8575   4.616   1.096   5.165
 1226KAXM    H8 8576   1.841   0.225   3.319
 1226KAXM    O2 8577   1.839   0.262   3.227
 1226KAXM    C3 8578   1.741   0.196   3.146
 1226KAXM    C2 8579   1.656   0.299   3.072
 1226KAXM    C1 8580   1.559   0.235   2.974
 1226KAXM    O1 8581   1.495   0.332   2.890
 1226KAXM    H1 8582   1.442   0.394   2.948
 1227KAXM    H8 8583   1.111   3.374   0.236
 1227KAXM    O2 8584   1.035   3.365   0.169
 1227KAXM    C3 8585   0.924   3.445   0.213
 1227KAXM    C2 8586   0.798   3.430   0.129
 1227KAXM    C1 8587   0.739   3.289   0.133
 1227KAXM    O1 8588   0.626   3.278   0.045
 1227KAXM    H1 8589   0.658   3.293   5.950
 1228KAXM    H8 8590   3.821   5.709   1.762
 1228KAXM    O2 8591   3.784   5.614   1.759
 1228KAXM    C3 8592   3.846   5.539   1.653
 1228KAXM    C2 8593   3.806   5.392   1.660
 1228KAXM    C1 8594   3.873   5.305   1.555
 1228KAXM    O1 8595   3.825   5.336   1.424
 1228KAXM    H1 8596   3.889   5.401   1.379
 1229KAXM    H8 8597   5.081   2.298   3.211
 1229KAXM    O2 8598   4.983   2.272   3.199
 1229KAXM    C3 8599   4.923   2.364   3.106
 1229KAXM    C2 8600   4.955   2.334   2.960
 1229KAXM    C1 8601   4.896   2.445   2.875
 1229KAXM    O1 8602   4.900   2.414   2.735
 1229KAXM    H1 8603   4.827   2.349   2.712
 1230KAXM    H8 8604   0.672   3.481   4.041
 1230KAXM    O2 8605   0.702   3.575   4.067
 1230KAXM    C3 8606   0.628   3.619   4.182
 1230KAXM    C2 8607   0.658   3.765   4.211
 1230KAXM    C1 8608   0.567   3.815   4.322
 1230KAXM    O1 8609   0.577   3.958   4.335
 1230KAXM    H1 8610   0.521   3.999   4.262
 1231KAXM    H8 8611   2.391   4.199   4.160
 1231KAXM    O2 8612   2.374   4.103   4.182
 1231KAXM    C3 8613   2.394   4.087   4.324
 1231KAXM    C2 8614   2.395   3.942   4.373
 1231KAXM    C1 8615   2.419   3.945   4.523
 1231KAXM    O1 8616   2.431   3.815   4.584
 1231KAXM    H1 8617   2.508   3.820   4.650
 1232KAXM    H8 8618   2.600   5.011   2.377
 1232KAXM    O2 8619   2.654   5.068   2.314
 1232KAXM    C3 8620   2.642   5.206   2.352
 1232KAXM    C2 8621   2.704   5.225   2.490
 1232KAXM    C1 8622   2.701   5.371   2.532
 1232KAXM    O1 8623   2.751   5.391   2.665
 1232KAXM    H1 8624   2.834   5.339   2.675
 1233KAXM    H8 8625   5.948   1.574   5.860
 1233KAXM    O2 8626   5.883   1.631   5.914
 1233KAXM    C3 8627   5.765   1.552   5.939
 1233KAXM    C2 8628   5.649   1.585   5.847
 1233KAXM    C1 8629   5.536   1.485   5.867
 1233KAXM    O1 8630   5.413   1.524   5.804
 1233KAXM    H1 8631   5.386   1.451   5.739
 1234KAXM    H8 8632   2.132   4.897   1.885
 1234KAXM    O2 8633   2.221   4.860   1.853
 1234KAXM    C3 8634   2.262   4.943   1.742
 1234KAXM    C2 8635   2.227   4.878   1.610
 1234KAXM    C1 8636   2.218   4.985   1.504
 1234KAXM    O1 8637   2.199   4.924   1.376
 1234KAXM    H1 8638   2.284   4.940   1.322
 1235KAXM    H8 8639   4.459   2.477   2.425
 1235KAXM    O2 8640   4.511   2.456   2.341
 1235KAXM    C3 8641   4.424   2.376   2.258
 1235KAXM    C2 8642   4.480   2.346   2.120
 1235KAXM    C1 8643   4.492   2.473   2.036
 1235KAXM    O1 8644   4.517   2.440   1.899
 1235KAXM    H1 8645   4.515   2.524   1.843
 1236KAXM    H8 8646   3.873   4.778   2.838
 1236KAXM    O2 8647   3.791   4.717   2.839
 1236KAXM    C3 8648   3.678   4.797   2.797
 1236KAXM    C2 8649   3.557   4.785   2.889
 1236KAXM    C1 8650   3.438   4.857   2.828
 1236KAXM    O1 8651   3.466   4.995   2.793
 1236KAXM    H1 8652   3.426   5.011   2.701
 1237KAXM    H8 8653   3.601   5.504   1.186
 1237KAXM    O2 8654   3.690   5.548   1.175
 1237KAXM    C3 8655   3.683   5.687   1.213
 1237KAXM    C2 8656   3.650   5.707   1.360
 1237KAXM    C1 8657   3.635   5.855   1.396
 1237KAXM    O1 8658   3.760   5.924   1.404
 1237KAXM    H1 8659   3.763   5.972   1.492
 1238KAXM    H8 8660   1.878   4.167   4.463
 1238KAXM    O2 8661   1.801   4.192   4.400
 1238KAXM    C3 8662   1.828   4.136   4.270
 1238KAXM    C2 8663   1.951   4.200   4.207
 1238KAXM    C1 8664   1.989   4.127   4.078
 1238KAXM    O1 8665   2.092   4.196   4.005
 1238KAXM    H1 8666   2.118   4.138   3.925
 1239KAXM    H8 8667   2.547   1.990   4.772
 1239KAXM    O2 8668   2.544   1.893   4.744
 1239KAXM    C3 8669   2.609   1.878   4.617
 1239KAXM    C2 8670   2.510   1.912   4.507
 1239KAXM    C1 8671   2.562   1.871   4.370
 1239KAXM    O1 8672   2.452   1.867   4.278
 1239KAXM    H1 8673   2.467   1.798   4.206
 1240KAXM    H8 8674   2.099   3.249   4.084
 1240KAXM    O2 8675   2.007   3.206   4.096
 1240KAXM    C3 8676   1.981   3.199   4.237
 1240KAXM    C2 8677   2.072   3.098   4.306
 1240KAXM    C1 8678   2.053   3.093   4.457
 1240KAXM    O1 8679   1.921   3.051   4.492
 1240KAXM    H1 8680   1.915   2.951   4.494
 1241KAXM    H8 8681   4.569   0.565   4.786
 1241KAXM    O2 8682   4.542   0.658   4.760
 1241KAXM    C3 8683   4.557   0.674   4.617
 1241KAXM    C2 8684   4.450   0.598   4.542
 1241KAXM    C1 8685   4.472   0.605   4.392
 1241KAXM    O1 8686   4.399   0.502   4.323
 1241KAXM    H1 8687   4.301   0.506   4.348
 1242KAXM    H8 8688   0.767   5.215   5.879
 1242KAXM    O2 8689   0.764   5.275   5.960
 1242KAXM    C3 8690   0.649   5.245   0.040
 1242KAXM    C2 8691   0.618   5.355   0.140
 1242KAXM    C1 8692   0.712   5.356   0.261
 1242KAXM    O1 8693   0.720   5.488   0.321
 1242KAXM    H1 8694   0.643   5.504   0.385
 1243KAXM    H8 8695   1.820   1.217   1.993
 1243KAXM    O2 8696   1.750   1.269   1.942
 1243KAXM    C3 8697   1.762   1.241   1.802
 1243KAXM    C2 8698   1.814   1.360   1.722
 1243KAXM    C1 8699   1.953   1.402   1.767
 1243KAXM    O1 8700   2.005   1.508   1.686
 1243KAXM    H1 8701   2.042   1.581   1.746
 1244KAXM    H8 8702   0.322   4.965   1.728
 1244KAXM    O2 8703   0.305   4.941   1.632
 1244KAXM    C3 8704   0.294   5.057   1.548
 1244KAXM    C2 8705   0.246   5.019   1.407
 1244KAXM    C1 8706   0.225   5.142   1.319
 1244KAXM    O1 8707   0.173   5.112   1.188
 1244KAXM    H1 8708   0.247   5.107   1.120
 1245KAXM    H8 8709   2.568   2.218   2.177
 1245KAXM    O2 8710   2.574   2.136   2.237
 1245KAXM    C3 8711   2.713   2.122   2.272
 1245KAXM    C2 8712   2.737   1.997   2.353
 1245KAXM    C1 8713   2.885   1.970   2.371
 1245KAXM    O1 8714   2.903   1.858   2.459
 1245KAXM    H1 8715   2.981   1.804   2.430
 1246KAXM    H8 8716   1.519   5.233   4.481
 1246KAXM    O2 8717   1.512   5.328   4.453
 1246KAXM    C3 8718   1.432   5.398   4.550
 1246KAXM    C2 8719   1.449   5.550   4.547
 1246KAXM    C1 8720   1.569   5.595   4.630
 1246KAXM    O1 8721   1.589   5.738   4.622
 1246KAXM    H1 8722   1.657   5.756   4.548
 1247KAXM    H8 8723   1.488   1.103   1.556
 1247KAXM    O2 8724   1.569   1.131   1.504
 1247KAXM    C3 8725   1.540   1.158   1.366
 1247KAXM    C2 8726   1.636   1.265   1.312
 1247KAXM    C1 8727   1.664   1.248   1.164
 1247KAXM    O1 8728   1.760   1.343   1.116
 1247KAXM    H1 8729   1.795   1.319   1.025
 1248KAXM    H8 8730   4.186   5.232   0.299
 1248KAXM    O2 8731   4.268   5.254   0.248
 1248KAXM    C3 8732   4.384   5.247   0.331
 1248KAXM    C2 8733   4.511   5.257   0.247
 1248KAXM    C1 8734   4.638   5.270   0.331
 1248KAXM    O1 8735   4.755   5.273   0.247
 1248KAXM    H1 8736   4.798   5.181   0.246
 1249KAXM    H8 8737   0.928   4.472   4.754
 1249KAXM    O2 8738   0.850   4.470   4.818
 1249KAXM    C3 8739   0.895   4.526   4.943
 1249KAXM    C2 8740   0.818   4.465   5.059
 1249KAXM    C1 8741   0.839   4.540   5.189
 1249KAXM    O1 8742   0.775   4.474   5.300
 1249KAXM    H1 8743   0.678   4.456   5.285
 1250KAXM    H8 8744   1.879   4.169   2.813
 1250KAXM    O2 8745   1.828   4.198   2.730
 1250KAXM    C3 8746   1.848   4.338   2.706
 1250KAXM    C2 8747   1.968   4.361   2.615
 1250KAXM    C1 8748   1.981   4.507   2.570
 1250KAXM    O1 8749   1.876   4.548   2.482
 1250KAXM    H1 8750   1.892   4.515   2.389
 1251KAXM    H8 8751   2.837   5.193   5.433
 1251KAXM    O2 8752   2.937   5.192   5.414
 1251KAXM    C3 8753   2.984   5.328   5.409
 1251KAXM    C2 8754   3.083   5.356   5.522
 1251KAXM    C1 8755   3.022   5.327   5.659
 1251KAXM    O1 8756   3.123   5.331   5.760
 1251KAXM    H1 8757   3.105   5.259   5.828
 1252KAXM    H8 8758   5.652   4.983   0.128
 1252KAXM    O2 8759   5.700   4.900   0.158
 1252KAXM    C3 8760   5.840   4.930   0.153
 1252KAXM    C2 8761   5.926   4.836   0.235
 1252KAXM    C1 8762   0.068   4.890   0.230
 1252KAXM    O1 8763   0.161   4.799   0.290
 1252KAXM    H1 8764   0.175   4.725   0.223
 1253KAXM    H8 8765   1.183   5.734   4.460
 1253KAXM    O2 8766   1.241   5.803   4.416
 1253KAXM    C3 8767   1.228   5.931   4.481
 1253KAXM    C2 8768   1.152   5.924   4.613
 1253KAXM    C1 8769   1.230   5.844   4.717
 1253KAXM    O1 8770   1.147   5.801   4.826
 1253KAXM    H1 8771   1.087   5.875   4.855
 1254KAXM    H8 8772   2.876   3.691   3.630
 1254KAXM    O2 8773   2.839   3.767   3.573
 1254KAXM    C3 8774   2.895   3.755   3.441
 1254KAXM    C2 8775   2.897   3.888   3.367
 1254KAXM    C1 8776   2.931   3.868   3.220
 1254KAXM    O1 8777   2.828   3.797   3.147
 1254KAXM    H1 8778   2.743   3.854   3.146
 1255KAXM    H8 8779   0.311   5.748   5.988
 1255KAXM    O2 8780   0.289   5.690   0.068
 1255KAXM    C3 8781   0.357   5.741   0.184
 1255KAXM    C2 8782   0.409   5.628   0.271
 1255KAXM    C1 8783   0.463   5.677   0.405
 1255KAXM    O1 8784   0.534   5.571   0.471
 1255KAXM    H1 8785   0.540   5.593   0.570
 1256KAXM    H8 8786   3.444   1.512   4.217
 1256KAXM    O2 8787   3.436   1.609   4.242
 1256KAXM    C3 8788   3.412   1.690   4.125
 1256KAXM    C2 8789   3.498   1.816   4.127
 1256KAXM    C1 8790   3.484   1.898   4.000
 1256KAXM    O1 8791   3.582   2.003   3.995
 1256KAXM    H1 8792   3.671   1.963   3.980
 1257KAXM    H8 8793   1.754   4.712   2.852
 1257KAXM    O2 8794   1.826   4.690   2.920
 1257KAXM    C3 8795   1.759   4.635   3.034
 1257KAXM    C2 8796   1.824   4.508   3.084
 1257KAXM    C1 8797   1.757   4.466   3.213
 1257KAXM    O1 8798   1.644   4.379   3.192
 1257KAXM    H1 8799   1.659   4.297   3.248
 1258KAXM    H8 8800   4.814   0.816   3.084
 1258KAXM    O2 8801   4.868   0.839   3.166
 1258KAXM    C3 8802   5.005   0.814   3.133
 1258KAXM    C2 8803   5.093   0.802   3.255
 1258KAXM    C1 8804   5.230   0.754   3.210
 1258KAXM    O1 8805   5.330   0.797   3.303
 1258KAXM    H1 8806   5.327   0.738   3.385
 1259KAXM    H8 8807   0.176   2.370   2.932
 1259KAXM    O2 8808   0.154   2.292   2.994
 1259KAXM    C3 8809   0.240   2.182   2.959
 1259KAXM    C2 8810   0.377   2.189   3.024
 1259KAXM    C1 8811   0.465   2.078   2.968
 1259KAXM    O1 8812   0.587   2.060   3.043
 1259KAXM    H1 8813   0.663   2.087   2.984
 1260KAXM    H8 8814   2.729   0.920   5.100
 1260KAXM    O2 8815   2.828   0.903   5.089
 1260KAXM    C3 8816   2.846   0.760   5.099
 1260KAXM    C2 8817   2.814   0.691   4.968
 1260KAXM    C1 8818   2.929   0.707   4.869
 1260KAXM    O1 8819   2.893   0.671   4.734
 1260KAXM    H1 8820   2.844   0.583   4.733
 1261KAXM    H8 8821   4.101   0.006   4.574
 1261KAXM    O2 8822   4.046   0.073   4.623
 1261KAXM    C3 8823   4.110   0.202   4.629
 1261KAXM    C2 8824   4.099   0.278   4.497
 1261KAXM    C1 8825   4.138   0.424   4.514
 1261KAXM    O1 8826   4.155   0.497   4.390
 1261KAXM    H1 8827   4.068   0.490   4.336
 1262KAXM    H8 8828   1.316   1.361   5.595
 1262KAXM    O2 8829   1.282   1.282   5.649
 1262KAXM    C3 8830   1.167   1.323   5.725
 1262KAXM    C2 8831   1.203   1.362   5.868
 1262KAXM    C1 8832   1.097   1.449   5.936
 1262KAXM    O1 8833   0.981   1.374   5.977
 1262KAXM    H1 8834   0.910   1.434   0.014
 1263KAXM    H8 8835   3.136   2.090   0.077
 1263KAXM    O2 8836   3.122   2.108   0.175
 1263KAXM    C3 8837   3.013   2.201   0.188
 1263KAXM    C2 8838   3.019   2.306   0.078
 1263KAXM    C1 8839   2.902   2.402   0.087
 1263KAXM    O1 8840   2.898   2.485   5.970
 1263KAXM    H1 8841   2.969   2.558   5.978
 1264KAXM    H8 8842   3.957   3.631   3.950
 1264KAXM    O2 8843   3.947   3.544   3.999
 1264KAXM    C3 8844   3.935   3.441   3.898
 1264KAXM    C2 8845   4.048   3.339   3.902
 1264KAXM    C1 8846   4.052   3.257   3.774
 1264KAXM    O1 8847   4.144   3.309   3.676
 1264KAXM    H1 8848   4.208   3.236   3.650
 1265KAXM    H8 8849   2.365   2.452   0.259
 1265KAXM    O2 8850   2.382   2.432   0.357
 1265KAXM    C3 8851   2.291   2.330   0.405
 1265KAXM    C2 8852   2.201   2.375   0.519
 1265KAXM    C1 8853   2.156   2.259   0.608
 1265KAXM    O1 8854   2.082   2.156   0.540
 1265KAXM    H1 8855   2.127   2.067   0.555
 1266KAXM    H8 8856   5.604   4.213   2.365
 1266KAXM    O2 8857   5.641   4.262   2.445
 1266KAXM    C3 8858   5.735   4.176   2.513
 1266KAXM    C2 8859   5.763   4.220   2.657
 1266KAXM    C1 8860   5.635   4.213   2.739
 1266KAXM    O1 8861   5.648   4.269   2.871
 1266KAXM    H1 8862   5.682   4.364   2.869
 1267KAXM    H8 8863   5.510   3.540   4.651
 1267KAXM    O2 8864   5.572   3.467   4.631
 1267KAXM    C3 8865   5.576   3.376   4.742
 1267KAXM    C2 8866   5.714   3.367   4.804
 1267KAXM    C1 8867   5.711   3.271   4.922
 1267KAXM    O1 8868   5.830   3.277   5.001
 1267KAXM    H1 8869   5.830   3.197   5.058
 1268KAXM    H8 8870   0.745   4.060   5.982
 1268KAXM    O2 8871   0.715   4.120   5.909
 1268KAXM    C3 8872   0.746   4.057   5.784
 1268KAXM    C2 8873   0.654   4.099   5.670
 1268KAXM    C1 8874   0.507   4.078   5.706
 1268KAXM    O1 8875   0.433   4.025   5.595
 1268KAXM    H1 8876   0.457   3.927   5.589
 1269KAXM    H8 8877   2.402   3.159   4.277
 1269KAXM    O2 8878   2.378   3.257   4.272
 1269KAXM    C3 8879   2.389   3.313   4.404
 1269KAXM    C2 8880   2.322   3.450   4.419
 1269KAXM    C1 8881   2.339   3.498   4.563
 1269KAXM    O1 8882   2.271   3.622   4.592
 1269KAXM    H1 8883   2.339   3.698   4.584
 1270KAXM    H8 8884   4.811   3.901   4.118
 1270KAXM    O2 8885   4.797   3.832   4.186
 1270KAXM    C3 8886   4.790   3.894   4.315
 1270KAXM    C2 8887   4.673   3.841   4.397
 1270KAXM    C1 8888   4.681   3.901   4.537
 1270KAXM    O1 8889   4.554   3.898   4.605
 1270KAXM    H1 8890   4.572   3.904   4.702
 1271KAXM    H8 8891   4.221   5.254   3.844
 1271KAXM    O2 8892   4.306   5.231   3.892
 1271KAXM    C3 8893   4.304   5.285   4.025
 1271KAXM    C2 8894   4.397   5.206   4.115
 1271KAXM    C1 8895   4.405   5.267   4.254
 1271KAXM    O1 8896   4.494   5.194   4.341
 1271KAXM    H1 8897   4.587   5.195   4.299
 1272KAXM    H8 8898   0.536   1.248   5.334
 1272KAXM    O2 8899   0.522   1.199   5.247
 1272KAXM    C3 8900   0.448   1.078   5.271
 1272KAXM    C2 8901   0.491   0.969   5.174
 1272KAXM    C1 8902   0.403   0.846   5.186
 1272KAXM    O1 8903   0.282   0.862   5.112
 1272KAXM    H1 8904   0.302   0.872   5.014
 1273KAXM    H8 8905   1.744   5.060   3.734
 1273KAXM    O2 8906   1.713   5.148   3.693
 1273KAXM    C3 8907   1.691   5.243   3.799
 1273KAXM    C2 8908   1.746   5.384   3.771
 1273KAXM    C1 8909   1.661   5.466   3.675
 1273KAXM    O1 8910   1.703   5.603   3.665
 1273KAXM    H1 8911   1.685   5.650   3.753
 1274KAXM    H8 8912   5.855   2.077   1.712
 1274KAXM    O2 8913   5.866   2.159   1.653
 1274KAXM    C3 8914   5.755   2.247   1.677
 1274KAXM    C2 8915   5.728   2.337   1.558
 1274KAXM    C1 8916   5.618   2.437   1.592
 1274KAXM    O1 8917   5.590   2.520   1.478
 1274KAXM    H1 8918   5.542   2.605   1.505
 1275KAXM    H8 8919   3.550   5.080   2.880
 1275KAXM    O2 8920   3.606   5.136   2.944
 1275KAXM    C3 8921   3.596   5.274   2.903
 1275KAXM    C2 8922   3.708   5.322   2.812
 1275KAXM    C1 8923   3.690   5.472   2.795
 1275KAXM    O1 8924   3.797   5.540   2.727
 1275KAXM    H1 8925   3.759   5.629   2.697
 1276KAXM    H8 8926   2.152   2.358   2.015
 1276KAXM    O2 8927   2.090   2.289   1.976
 1276KAXM    C3 8928   2.169   2.193   1.905
 1276KAXM    C2 8929   2.195   2.238   1.762
 1276KAXM    C1 8930   2.308   2.156   1.702
 1276KAXM    O1 8931   2.337   2.195   1.567
 1276KAXM    H1 8932   2.304   2.121   1.506
 1277KAXM    H8 8933   4.920   4.158   5.741
 1277KAXM    O2 8934   4.948   4.133   5.649
 1277KAXM    C3 8935   5.048   4.226   5.604
 1277KAXM    C2 8936   5.125   4.167   5.486
 1277KAXM    C1 8937   5.186   4.276   5.401
 1277KAXM    O1 8938   5.247   4.225   5.281
 1277KAXM    H1 8939   5.211   4.273   5.200
 1278KAXM    H8 8940   0.525   5.553   5.249
 1278KAXM    O2 8941   0.434   5.557   5.205
 1278KAXM    C3 8942   0.341   5.487   5.290
 1278KAXM    C2 8943   0.211   5.455   5.218
 1278KAXM    C1 8944   0.104   5.402   5.314
 1278KAXM    O1 8945   0.142   5.275   5.368
 1278KAXM    H1 8946   0.062   5.235   5.417
 1279KAXM    H8 8947   5.507   4.830   2.417
 1279KAXM    O2 8948   5.556   4.918   2.429
 1279KAXM    C3 8949   5.605   4.931   2.564
 1279KAXM    C2 8950   5.677   5.064   2.583
 1279KAXM    C1 8951   5.738   5.077   2.722
 1279KAXM    O1 8952   5.643   5.101   2.828
 1279KAXM    H1 8953   5.694   5.103   2.912
 1280KAXM    H8 8954   0.614   1.004   4.690
 1280KAXM    O2 8955   0.651   1.094   4.662
 1280KAXM    C3 8956   0.571   1.195   4.727
 1280KAXM    C2 8957   0.618   1.221   4.869
 1280KAXM    C1 8958   0.523   1.320   4.933
 1280KAXM    O1 8959   0.570   1.358   5.062
 1280KAXM    H1 8960   0.550   1.288   5.132
 1281KAXM    H8 8961   3.288   5.023   2.508
 1281KAXM    O2 8962   3.372   5.040   2.562
 1281KAXM    C3 8963   3.474   5.087   2.472
 1281KAXM    C2 8964   3.593   4.992   2.463
 1281KAXM    C1 8965   3.675   5.018   2.337
 1281KAXM    O1 8966   3.766   4.909   2.314
 1281KAXM    H1 8967   3.781   4.898   2.215
 1282KAXM    H8 8968   2.810   3.833   1.256
 1282KAXM    O2 8969   2.825   3.923   1.301
 1282KAXM    C3 8970   2.701   3.979   1.347
 1282KAXM    C2 8971   2.676   4.115   1.282
 1282KAXM    C1 8972   2.568   4.192   1.355
 1282KAXM    O1 8973   2.605   4.219   1.492
 1282KAXM    H1 8974   2.542   4.164   1.551
 1283KAXM    H8 8975   3.875   3.515   3.085
 1283KAXM    O2 8976   3.843   3.595   3.032
 1283KAXM    C3 8977   3.840   3.566   2.892
 1283KAXM    C2 8978   3.713   3.492   2.855
 1283KAXM    C1 8979   3.689   3.498   2.705
 1283KAXM    O1 8980   3.583   3.411   2.665
 1283KAXM    H1 8981   3.614   3.316   2.664
 1284KAXM    H8 8982   0.772   4.272   4.665
 1284KAXM    O2 8983   0.846   4.274   4.598
 1284KAXM    C3 8984   0.833   4.158   4.515
 1284KAXM    C2 8985   0.921   4.166   4.391
 1284KAXM    C1 8986   0.924   4.031   4.321
 1284KAXM    O1 8987   1.003   4.039   4.201
 1284KAXM    H1 8988   0.939   4.058   4.125
 1285KAXM    H8 8989   2.123   0.533   1.599
 1285KAXM    O2 8990   2.223   0.541   1.611
 1285KAXM    C3 8991   2.253   0.573   1.748
 1285KAXM    C2 8992   2.237   0.722   1.775
 1285KAXM    C1 8993   2.252   0.746   1.924
 1285KAXM    O1 8994   2.217   0.878   1.969
 1285KAXM    H1 8995   2.127   0.878   2.013
 1286KAXM    H8 8996   2.056   1.224   5.382
 1286KAXM    O2 8997   2.130   1.277   5.423
 1286KAXM    C3 8998   2.237   1.295   5.330
 1286KAXM    C2 8999   2.343   1.387   5.391
 1286KAXM    C1 9000   2.472   1.394   5.310
 1286KAXM    O1 9001   2.565   1.492   5.362
 1286KAXM    H1 9002   2.650   1.478   5.313
 1287KAXM    H8 9003   1.973   4.706   2.961
 1287KAXM    O2 9004   2.068   4.697   2.995
 1287KAXM    C3 9005   2.106   4.814   3.069
 1287KAXM    C2 9006   2.086   4.787   3.218
 1287KAXM    C1 9007   2.127   4.903   3.307
 1287KAXM    O1 9008   2.090   4.871   3.442
 1287KAXM    H1 9009   2.170   4.880   3.503
 1288KAXM    H8 9010   5.484   1.728   0.900
 1288KAXM    O2 9011   5.415   1.803   0.902
 1288KAXM    C3 9012   5.326   1.786   0.790
 1288KAXM    C2 9013   5.295   1.918   0.720
 1288KAXM    C1 9014   5.236   1.893   0.582
 1288KAXM    O1 9015   5.206   2.013   0.507
 1288KAXM    H1 9016   5.172   1.985   0.416
 1289KAXM    H8 9017   3.497   4.981   3.669
 1289KAXM    O2 9018   3.437   4.908   3.630
 1289KAXM    C3 9019   3.415   4.807   3.730
 1289KAXM    C2 9020   3.354   4.857   3.860
 1289KAXM    C1 9021   3.348   4.744   3.963
 1289KAXM    O1 9022   3.304   4.789   4.092
 1289KAXM    H1 9023   3.319   4.718   4.162
 1290KAXM    H8 9024   1.281   5.113   5.584
 1290KAXM    O2 9025   1.328   5.195   5.622
 1290KAXM    C3 9026   1.450   5.147   5.683
 1290KAXM    C2 9027   1.527   5.248   5.767
 1290KAXM    C1 9028   1.650   5.178   5.824
 1290KAXM    O1 9029   1.742   5.264   5.894
 1290KAXM    H1 9030   1.784   5.326   5.827
 1291KAXM    H8 9031   2.362   1.636   4.182
 1291KAXM    O2 9032   2.419   1.681   4.110
 1291KAXM    C3 9033   2.355   1.655   3.984
 1291KAXM    C2 9034   2.416   1.733   3.869
 1291KAXM    C1 9035   2.326   1.720   3.747
 1291KAXM    O1 9036   2.390   1.764   3.627
 1291KAXM    H1 9037   2.460   1.695   3.601
 1292KAXM    H8 9038   1.419   2.663   1.758
 1292KAXM    O2 9039   1.479   2.585   1.775
 1292KAXM    C3 9040   1.463   2.538   1.910
 1292KAXM    C2 9041   1.560   2.605   2.007
 1292KAXM    C1 9042   1.521   2.572   2.151
 1292KAXM    O1 9043   1.601   2.645   2.246
 1292KAXM    H1 9044   1.579   2.743   2.242
 1293KAXM    H8 9045   0.984   2.527   5.838
 1293KAXM    O2 9046   0.917   2.479   5.898
 1293KAXM    C3 9047   0.814   2.571   5.939
 1293KAXM    C2 9048   0.797   2.562   0.090
 1293KAXM    C1 9049   0.669   2.629   0.138
 1293KAXM    O1 9050   0.658   2.618   0.281
 1293KAXM    H1 9051   0.649   2.521   0.309
 1294KAXM    H8 9052   2.508   3.186   3.685
 1294KAXM    O2 9053   2.420   3.145   3.709
 1294KAXM    C3 9054   2.317   3.244   3.702
 1294KAXM    C2 9055   2.233   3.250   3.829
 1294KAXM    C1 9056   2.315   3.297   3.948
 1294KAXM    O1 9057   2.238   3.294   4.069
 1294KAXM    H1 9058   2.300   3.289   4.149
 1295KAXM    H8 9059   3.333   1.315   4.260
 1295KAXM    O2 9060   3.236   1.293   4.275
 1295KAXM    C3 9061   3.214   1.266   4.414
 1295KAXM    C2 9062   3.247   1.386   4.502
 1295KAXM    C1 9063   3.248   1.350   4.650
 1295KAXM    O1 9064   3.120   1.306   4.695
 1295KAXM    H1 9065   3.127   1.211   4.730
 1296KAXM    H8 9066   5.983   0.947   1.048
 1296KAXM    O2 9067   0.024   0.916   1.135
 1296KAXM    C3 9068   5.994   1.007   1.242
 1296KAXM    C2 9069   0.051   0.954   1.373
 1296KAXM    C1 9070   0.049   1.060   1.483
 1296KAXM    O1 9071   0.142   1.166   1.457
 1296KAXM    H1 9072   0.091   1.245   1.418
 1297KAXM    H8 9073   3.652   0.086   3.507
 1297KAXM    O2 9074   3.738   0.120   3.464
 1297KAXM    C3 9075   3.730   0.099   3.321
 1297KAXM    C2 9076   3.824   5.990   3.272
 1297KAXM    C1 9077   3.806   5.968   3.123
 1297KAXM    O1 9078   3.884   5.857   3.078
 1297KAXM    H1 9079   3.941   5.887   3.000
 1298KAXM    H8 9080   5.009   2.783   0.072
 1298KAXM    O2 9081   5.048   2.877   0.074
 1298KAXM    C3 9082   5.141   2.888   5.965
 1298KAXM    C2 9083   5.211   3.023   5.961
 1298KAXM    C1 9084   5.313   3.027   5.848
 1298KAXM    O1 9085   5.383   3.152   5.847
 1298KAXM    H1 9086   5.461   3.146   5.783
 1299KAXM    H8 9087   3.796   0.176   5.114
 1299KAXM    O2 9088   3.882   0.219   5.082
 1299KAXM    C3 9089   3.874   0.258   4.944
 1299KAXM    C2 9090   3.745   0.330   4.907
 1299KAXM    C1 9091   3.753   0.376   4.762
 1299KAXM    O1 9092   3.639   0.339   4.683
 1299KAXM    H1 9093   3.608   0.421   4.631
 1300KAXM    H8 9094   5.676   2.801   0.813
 1300KAXM    O2 9095   5.594   2.862   0.808
 1300KAXM    C3 9096   5.511   2.825   0.697
 1300KAXM    C2 9097   5.400   2.927   0.685
 1300KAXM    C1 9098   5.291   2.885   0.588
 1300KAXM    O1 9099   5.186   2.983   0.592
 1300KAXM    H1 9100   5.096   2.935   0.596
 1301KAXM    H8 9101   2.296   2.249   4.331
 1301KAXM    O2 9102   2.241   2.269   4.414
 1301KAXM    C3 9103   2.331   2.294   4.524
 1301KAXM    C2 9104   2.340   2.442   4.557
 1301KAXM    C1 9105   2.427   2.464   4.680
 1301KAXM    O1 9106   2.427   2.601   4.723
 1301KAXM    H1 9107   2.462   2.609   4.817
 1302KAXM    H8 9108   1.003   3.855   1.002
 1302KAXM    O2 9109   0.923   3.794   1.004
 1302KAXM    C3 9110   0.947   3.690   1.100
 1302KAXM    C2 9111   0.937   3.748   1.241
 1302KAXM    C1 9112   0.994   3.651   1.343
 1302KAXM    O1 9113   0.998   3.714   1.472
 1302KAXM    H1 9114   1.087   3.698   1.516
 1303KAXM    H8 9115   1.363   0.200   1.435
 1303KAXM    O2 9116   1.385   0.112   1.391
 1303KAXM    C3 9117   1.338   0.116   1.255
 1303KAXM    C2 9118   1.235   0.009   1.224
 1303KAXM    C1 9119   1.186   0.022   1.079
 1303KAXM    O1 9120   1.078   5.933   1.049
 1303KAXM    H1 9121   1.004   5.985   1.002
 1304KAXM    H8 9122   2.543   5.751   5.063
 1304KAXM    O2 9123   2.551   5.675   4.997
 1304KAXM    C3 9124   2.424   5.656   4.933
 1304KAXM    C2 9125   2.388   5.773   4.843
 1304KAXM    C1 9126   2.251   5.753   4.780
 1304KAXM    O1 9127   2.246   5.641   4.688
 1304KAXM    H1 9128   2.226   5.557   4.741
 1305KAXM    H8 9129   0.640   3.553   5.064
 1305KAXM    O2 9130   0.547   3.582   5.035
 1305KAXM    C3 9131   0.495   3.483   4.946
 1305KAXM    C2 9132   0.383   3.539   4.860
 1305KAXM    C1 9133   0.362   3.454   4.736
 1305KAXM    O1 9134   0.474   3.455   4.646
 1305KAXM    H1 9135   0.552   3.505   4.684
 1306KAXM    H8 9136   0.010   2.210   1.643
 1306KAXM    O2 9137   0.108   2.234   1.641
 1306KAXM    C3 9138   0.130   2.365   1.694
 1306KAXM    C2 9139   0.202   2.361   1.827
 1306KAXM    C1 9140   0.248   2.499   1.872
 1306KAXM    O1 9141   0.326   2.491   1.993
 1306KAXM    H1 9142   0.318   2.577   2.046
 1307KAXM    H8 9143   3.819   0.023   3.752
 1307KAXM    O2 9144   3.801   0.075   3.835
 1307KAXM    C3 9145   3.729   0.194   3.803
 1307KAXM    C2 9146   3.789   0.316   3.870
 1307KAXM    C1 9147   3.706   0.441   3.847
 1307KAXM    O1 9148   3.575   0.434   3.905
 1307KAXM    H1 9149   3.524   0.516   3.875
 1308KAXM    H8 9150   2.215   4.159   5.167
 1308KAXM    O2 9151   2.250   4.246   5.203
 1308KAXM    C3 9152   2.366   4.284   5.127
 1308KAXM    C2 9153   2.367   4.433   5.098
 1308KAXM    C1 9154   2.503   4.477   5.045
 1308KAXM    O1 9155   2.509   4.619   5.029
 1308KAXM    H1 9156   2.489   4.645   4.933
 1309KAXM    H8 9157   4.409   3.348   5.772
 1309KAXM    O2 9158   4.329   3.394   5.729
 1309KAXM    C3 9159   4.236   3.420   5.836
 1309KAXM    C2 9160   4.248   3.561   5.893
 1309KAXM    C1 9161   4.393   3.597   5.922
 1309KAXM    O1 9162   4.406   3.706   0.015
 1309KAXM    H1 9163   4.407   3.792   5.963
 1310KAXM    H8 9164   1.112   0.276   3.143
 1310KAXM    O2 9165   1.096   0.176   3.138
 1310KAXM    C3 9166   1.158   0.127   3.016
 1310KAXM    C2 9167   1.125   0.210   2.892
 1310KAXM    C1 9168   1.223   0.177   2.780
 1310KAXM    O1 9169   1.192   0.241   2.655
 1310KAXM    H1 9170   1.256   0.206   2.585
 1311KAXM    H8 9171   4.261   4.139   3.766
 1311KAXM    O2 9172   4.259   4.191   3.682
 1311KAXM    C3 9173   4.219   4.101   3.577
 1311KAXM    C2 9174   4.333   4.077   3.480
 1311KAXM    C1 9175   4.292   3.982   3.369
 1311KAXM    O1 9176   4.408   3.930   3.300
 1311KAXM    H1 9177   4.393   3.940   3.201
 1312KAXM    H8 9178   5.451   2.360   0.358
 1312KAXM    O2 9179   5.393   2.403   0.286
 1312KAXM    C3 9180   5.267   2.334   0.276
 1312KAXM    C2 9181   5.155   2.406   0.353
 1312KAXM    C1 9182   5.132   2.349   0.492
 1312KAXM    O1 9183   5.063   2.223   0.488
 1312KAXM    H1 9184   5.126   2.146   0.505
 1313KAXM    H8 9185   1.587   5.113   1.953
 1313KAXM    O2 9186   1.564   5.014   1.946
 1313KAXM    C3 9187   1.513   4.962   2.070
 1313KAXM    C2 9188   1.373   5.015   2.098
 1313KAXM    C1 9189   1.314   4.952   2.224
 1313KAXM    O1 9190   1.287   4.811   2.212
 1313KAXM    H1 9191   1.364   4.758   2.246
 1314KAXM    H8 9192   3.507   3.459   1.113
 1314KAXM    O2 9193   3.586   3.486   1.057
 1314KAXM    C3 9194   3.705   3.431   1.115
 1314KAXM    C2 9195   3.810   3.539   1.136
 1314KAXM    C1 9196   3.923   3.488   1.225
 1314KAXM    O1 9197   4.010   3.595   1.265
 1314KAXM    H1 9198   4.093   3.592   1.206
 1315KAXM    H8 9199   0.592   5.975   5.757
 1315KAXM    O2 9200   0.514   5.987   5.821
 1315KAXM    C3 9201   0.540   0.106   5.897
 1315KAXM    C2 9202   0.655   0.085   5.995
 1315KAXM    C1 9203   0.609   0.008   0.118
 1315KAXM    O1 9204   0.720   5.961   0.198
 1315KAXM    H1 9205   0.723   5.860   0.193
 1316KAXM    H8 9206   1.268   3.264   2.809
 1316KAXM    O2 9207   1.181   3.213   2.808
 1316KAXM    C3 9208   1.117   3.249   2.684
 1316KAXM    C2 9209   1.199   3.198   2.567
 1316KAXM    C1 9210   1.164   3.265   2.436
 1316KAXM    O1 9211   1.249   3.218   2.329
 1316KAXM    H1 9212   1.196   3.148   2.277
 1317KAXM    H8 9213   5.244   4.958   1.978
 1317KAXM    O2 9214   5.215   4.864   1.956
 1317KAXM    C3 9215   5.295   4.767   2.026
 1317KAXM    C2 9216   5.302   4.782   2.178
 1317KAXM    C1 9217   5.408   4.687   2.233
 1317KAXM    O1 9218   5.436   4.704   2.374
 1317KAXM    H1 9219   5.471   4.617   2.411
 1318KAXM    H8 9220   3.509   3.060   5.349
 1318KAXM    O2 9221   3.473   3.033   5.438
 1318KAXM    C3 9222   3.514   2.900   5.475
 1318KAXM    C2 9223   3.664   2.885   5.499
 1318KAXM    C1 9224   3.703   2.738   5.514
 1318KAXM    O1 9225   3.845   2.724   5.525
 1318KAXM    H1 9226   3.878   2.643   5.477
 1319KAXM    H8 9227   4.572   5.775   2.673
 1319KAXM    O2 9228   4.605   5.869   2.678
 1319KAXM    C3 9229   4.548   5.932   2.794
 1319KAXM    C2 9230   4.411   5.992   2.767
 1319KAXM    C1 9231   4.345   0.024   2.901
 1319KAXM    O1 9232   4.223   0.098   2.885
 1319KAXM    H1 9233   4.243   0.196   2.898
 1320KAXM    H8 9234   2.913   2.746   1.449
 1320KAXM    O2 9235   3.007   2.714   1.439
 1320KAXM    C3 9236   3.021   2.592   1.514
 1320KAXM    C2 9237   2.907   2.492   1.497
 1320KAXM    C1 9238   2.902   2.425   1.359
 1320KAXM    O1 9239   2.857   2.509   1.250
 1320KAXM    H1 9240   2.781   2.460   1.204
 1321KAXM    H8 9241   5.491   3.622   2.000
 1321KAXM    O2 9242   5.455   3.576   2.083
 1321KAXM    C3 9243   5.470   3.434   2.069
 1321KAXM    C2 9244   5.352   3.370   1.998
 1321KAXM    C1 9245   5.358   3.218   2.011
 1321KAXM    O1 9246   5.238   3.157   1.961
 1321KAXM    H1 9247   5.202   3.092   2.029
 1322KAXM    H8 9248   1.099   2.321   2.833
 1322KAXM    O2 9249   1.094   2.401   2.773
 1322KAXM    C3 9250   1.223   2.465   2.759
 1322KAXM    C2 9251   1.202   2.608   2.710
 1322KAXM    C1 9252   1.319   2.662   2.628
 1322KAXM    O1 9253   1.280   2.786   2.565
 1322KAXM    H1 9254   1.359   2.831   2.525
 1323KAXM    H8 9255   2.585   4.050   0.957
 1323KAXM    O2 9256   2.664   4.001   0.917
 1323KAXM    C3 9257   2.675   3.872   0.979
 1323KAXM    C2 9258   2.818   3.819   0.972
 1323KAXM    C1 9259   2.836   3.687   1.048
 1323KAXM    O1 9260   2.820   3.703   1.190
 1323KAXM    H1 9261   2.863   3.625   1.238
 1324KAXM    H8 9262   2.047   1.176   4.348
 1324KAXM    O2 9263   1.954   1.167   4.385
 1324KAXM    C3 9264   1.937   1.258   4.495
 1324KAXM    C2 9265   1.846   1.195   4.598
 1324KAXM    C1 9266   1.801   1.291   4.708
 1324KAXM    O1 9267   1.716   1.225   4.805
 1324KAXM    H1 9268   1.632   1.193   4.757
 1325KAXM    H8 9269   2.096   0.080   5.803
 1325KAXM    O2 9270   2.014   0.027   5.829
 1325KAXM    C3 9271   1.939   5.984   5.715
 1325KAXM    C2 9272   1.892   0.100   5.626
 1325KAXM    C1 9273   1.820   0.209   5.704
 1325KAXM    O1 9274   1.745   0.293   5.615
 1325KAXM    H1 9275   1.706   0.372   5.663
 1326KAXM    H8 9276   5.801   1.641   4.764
 1326KAXM    O2 9277   5.826   1.737   4.786
 1326KAXM    C3 9278   5.729   1.795   4.875
 1326KAXM    C2 9279   5.785   1.818   5.014
 1326KAXM    C1 9280   5.682   1.895   5.096
 1326KAXM    O1 9281   5.714   1.893   5.236
 1326KAXM    H1 9282   5.659   1.819   5.279
 1327KAXM    H8 9283   5.426   2.304   3.020
 1327KAXM    O2 9284   5.447   2.338   3.114
 1327KAXM    C3 9285   5.550   2.438   3.101
 1327KAXM    C2 9286   5.614   2.474   3.234
 1327KAXM    C1 9287   5.692   2.604   3.222
 1327KAXM    O1 9288   5.604   2.712   3.187
 1327KAXM    H1 9289   5.616   2.738   3.091
 1328KAXM    H8 9290   3.959   0.616   4.812
 1328KAXM    O2 9291   4.039   0.557   4.791
 1328KAXM    C3 9292   4.147   0.593   4.876
 1328KAXM    C2 9293   4.203   0.470   4.946
 1328KAXM    C1 9294   4.308   0.513   5.047
 1328KAXM    O1 9295   4.361   0.401   5.120
 1328KAXM    H1 9296   4.362   0.426   5.216
 1329KAXM    H8 9297   2.972   1.562   1.236
 1329KAXM    O2 9298   2.984   1.650   1.285
 1329KAXM    C3 9299   2.880   1.673   1.382
 1329KAXM    C2 9300   2.906   1.605   1.516
 1329KAXM    C1 9301   2.847   1.681   1.635
 1329KAXM    O1 9302   2.707   1.715   1.623
 1329KAXM    H1 9303   2.676   1.751   1.713
 1330KAXM    H8 9304   2.891   2.288   5.187
 1330KAXM    O2 9305   2.860   2.359   5.124
 1330KAXM    C3 9306   2.852   2.310   4.989
 1330KAXM    C2 9307   2.855   2.425   4.890
 1330KAXM    C1 9308   2.856   2.372   4.747
 1330KAXM    O1 9309   2.880   2.474   4.647
 1330KAXM    H1 9310   2.854   2.567   4.679
 1331KAXM    H8 9311   3.352   4.544   3.113
 1331KAXM    O2 9312   3.322   4.635   3.080
 1331KAXM    C3 9313   3.205   4.671   3.155
 1331KAXM    C2 9314   3.095   4.724   3.067
 1331KAXM    C1 9315   2.973   4.747   3.155
 1331KAXM    O1 9316   2.859   4.793   3.081
 1331KAXM    H1 9317   2.871   4.893   3.062
 1332KAXM    H8 9318   3.511   4.317   0.312
 1332KAXM    O2 9319   3.567   4.244   0.270
 1332KAXM    C3 9320   3.635   4.296   0.154
 1332KAXM    C2 9321   3.724   4.415   0.190
 1332KAXM    C1 9322   3.809   4.462   0.073
 1332KAXM    O1 9323   3.875   4.586   0.106
 1332KAXM    H1 9324   3.973   4.580   0.087
 1333KAXM    H8 9325   2.002   2.956   3.618
 1333KAXM    O2 9326   2.078   2.891   3.608
 1333KAXM    C3 9327   2.131   2.903   3.474
 1333KAXM    C2 9328   2.132   3.048   3.427
 1333KAXM    C1 9329   2.170   3.059   3.280
 1333KAXM    O1 9330   2.166   3.196   3.234
 1333KAXM    H1 9331   2.193   3.199   3.136
 1334KAXM    H8 9332   5.604   1.095   3.787
 1334KAXM    O2 9333   5.616   1.048   3.877
 1334KAXM    C3 9334   5.578   1.142   3.979
 1334KAXM    C2 9335   5.673   1.140   4.097
 1334KAXM    C1 9336   5.610   1.213   4.214
 1334KAXM    O1 9337   5.697   1.210   4.328
 1334KAXM    H1 9338   5.670   1.134   4.384
 1335KAXM    H8 9339   4.665   4.390   1.484
 1335KAXM    O2 9340   4.684   4.477   1.531
 1335KAXM    C3 9341   4.703   4.450   1.670
 1335KAXM    C2 9342   4.668   4.571   1.756
 1335KAXM    C1 9343   4.670   4.527   1.902
 1335KAXM    O1 9344   4.647   4.638   1.990
 1335KAXM    H1 9345   4.673   4.612   2.083
 1336KAXM    H8 9346   0.498   0.870   4.622
 1336KAXM    O2 9347   0.549   0.866   4.709
 1336KAXM    C3 9348   0.647   0.760   4.704
 1336KAXM    C2 9349   0.772   0.790   4.787
 1336KAXM    C1 9350   0.750   0.767   4.936
 1336KAXM    O1 9351   0.772   0.630   4.975
 1336KAXM    H1 9352   0.735   0.566   4.906
 1337KAXM    H8 9353   5.295   1.426   4.588
 1337KAXM    O2 9354   5.337   1.348   4.639
 1337KAXM    C3 9355   5.475   1.333   4.601
 1337KAXM    C2 9356   5.566   1.438   4.664
 1337KAXM    C1 9357   5.715   1.410   4.639
 1337KAXM    O1 9358   5.799   1.501   4.712
 1337KAXM    H1 9359   5.896   1.474   4.703
 1338KAXM    H8 9360   0.818   0.913   0.340
 1338KAXM    O2 9361   0.919   0.904   0.324
 1338KAXM    C3 9362   0.967   1.037   0.295
 1338KAXM    C2 9363   1.114   1.038   0.257
 1338KAXM    C1 9364   1.161   1.182   0.247
 1338KAXM    O1 9365   1.304   1.193   0.257
 1338KAXM    H1 9366   1.326   1.288   0.268
 1339KAXM    H8 9367   5.724   4.643   0.859
 1339KAXM    O2 9368   5.683   4.574   0.797
 1339KAXM    C3 9369   5.655   4.452   0.869
 1339KAXM    C2 9370   5.605   4.341   0.777
 1339KAXM    C1 9371   5.453   4.329   0.777
 1339KAXM    O1 9372   5.405   4.252   0.888
 1339KAXM    H1 9373   5.381   4.314   0.964
 1340KAXM    H8 9374   0.763   1.770   4.465
 1340KAXM    O2 9375   0.820   1.812   4.533
 1340KAXM    C3 9376   0.803   1.739   4.656
 1340KAXM    C2 9377   0.824   1.826   4.778
 1340KAXM    C1 9378   0.823   1.740   4.903
 1340KAXM    O1 9379   0.836   1.817   5.024
 1340KAXM    H1 9380   0.928   1.807   5.063
 1341KAXM    H8 9381   4.353   2.633   3.314
 1341KAXM    O2 9382   4.439   2.630   3.361
 1341KAXM    C3 9383   4.414   2.571   3.491
 1341KAXM    C2 9384   4.508   2.618   3.602
 1341KAXM    C1 9385   4.652   2.575   3.577
 1341KAXM    O1 9386   4.734   2.579   3.696
 1341KAXM    H1 9387   4.815   2.519   3.679
 1342KAXM    H8 9388   5.103   0.432   1.508
 1342KAXM    O2 9389   5.195   0.406   1.538
 1342KAXM    C3 9390   5.274   0.359   1.428
 1342KAXM    C2 9391   5.419   0.344   1.472
 1342KAXM    C1 9392   5.510   0.306   1.356
 1342KAXM    O1 9393   5.648   0.297   1.399
 1342KAXM    H1 9394   5.704   0.259   1.325
 1343KAXM    H8 9395   4.296   5.501   1.793
 1343KAXM    O2 9396   4.305   5.600   1.771
 1343KAXM    C3 9397   4.236   5.680   1.869
 1343KAXM    C2 9398   4.248   5.628   2.012
 1343KAXM    C1 9399   4.205   5.737   2.110
 1343KAXM    O1 9400   4.208   5.699   2.249
 1343KAXM    H1 9401   4.152   5.616   2.264
 1344KAXM    H8 9402   3.163   4.955   1.716
 1344KAXM    O2 9403   3.251   4.915   1.686
 1344KAXM    C3 9404   3.292   4.981   1.565
 1344KAXM    C2 9405   3.180   4.997   1.462
 1344KAXM    C1 9406   3.223   5.103   1.361
 1344KAXM    O1 9407   3.134   5.132   1.251
 1344KAXM    H1 9408   3.185   5.194   1.189
 1345KAXM    H8 9409   3.574   4.093   0.300
 1345KAXM    O2 9410   3.576   3.994   0.322
 1345KAXM    C3 9411   3.578   3.921   0.197
 1345KAXM    C2 9412   3.709   3.843   0.181
 1345KAXM    C1 9413   3.713   3.767   0.049
 1345KAXM    O1 9414   3.717   3.853   5.934
 1345KAXM    H1 9415   3.679   3.801   5.856
 1346KAXM    H8 9416   2.135   4.117   0.557
 1346KAXM    O2 9417   2.221   4.154   0.599
 1346KAXM    C3 9418   2.214   4.127   0.740
 1346KAXM    C2 9419   2.337   4.178   0.814
 1346KAXM    C1 9420   2.341   4.127   0.957
 1346KAXM    O1 9421   2.473   4.141   1.011
 1346KAXM    H1 9422   2.490   4.239   1.034
 1347KAXM    H8 9423   1.502   3.083   3.003
 1347KAXM    O2 9424   1.529   3.002   2.952
 1347KAXM    C3 9425   1.580   3.041   2.824
 1347KAXM    C2 9426   1.487   2.993   2.714
 1347KAXM    C1 9427   1.541   3.021   2.574
 1347KAXM    O1 9428   1.449   2.979   2.471
 1347KAXM    H1 9429   1.391   3.055   2.447
 1348KAXM    H8 9430   2.112   4.334   0.008
 1348KAXM    O2 9431   2.191   4.373   5.958
 1348KAXM    C3 9432   2.188   4.516   5.972
 1348KAXM    C2 9433   2.049   4.574   5.945
 1348KAXM    C1 9434   2.007   4.549   5.801
 1348KAXM    O1 9435   1.869   4.583   5.778
 1348KAXM    H1 9436   1.864   4.660   5.715
 1349KAXM    H8 9437   5.255   5.799   1.953
 1349KAXM    O2 9438   5.253   5.856   1.869
 1349KAXM    C3 9439   5.229   5.766   1.761
 1349KAXM    C2 9440   5.205   5.838   1.630
 1349KAXM    C1 9441   5.183   5.732   1.522
 1349KAXM    O1 9442   5.189   5.790   1.391
 1349KAXM    H1 9443   5.113   5.748   1.338
 1350KAXM    H8 9444   2.953   3.012   4.279
 1350KAXM    O2 9445   3.005   2.968   4.353
 1350KAXM    C3 9446   2.992   2.826   4.334
 1350KAXM    C2 9447   3.053   2.743   4.445
 1350KAXM    C1 9448   3.050   2.596   4.404
 1350KAXM    O1 9449   3.096   2.510   4.509
 1350KAXM    H1 9450   3.016   2.484   4.564
 1351KAXM    H8 9451   3.302   0.219   1.878
 1351KAXM    O2 9452   3.341   0.213   1.785
 1351KAXM    C3 9453   3.484   0.208   1.798
 1351KAXM    C2 9454   3.551   0.119   1.694
 1351KAXM    C1 9455   3.702   0.138   1.708
 1351KAXM    O1 9456   3.782   0.045   1.632
 1351KAXM    H1 9457   3.875   0.088   1.624
 1352KAXM    H8 9458   1.375   4.588   0.812
 1352KAXM    O2 9459   1.363   4.517   0.880
 1352KAXM    C3 9460   1.443   4.404   0.842
 1352KAXM    C2 9461   1.426   4.290   0.941
 1352KAXM    C1 9462   1.485   4.325   1.078
 1352KAXM    O1 9463   1.444   4.231   1.179
 1352KAXM    H1 9464   1.516   4.232   1.251
 1353KAXM    H8 9465   2.307   5.894   0.864
 1353KAXM    O2 9466   2.271   5.836   0.936
 1353KAXM    C3 9467   2.298   5.894   1.065
 1353KAXM    C2 9468   2.195   0.002   1.096
 1353KAXM    C1 9469   2.214   0.066   1.233
 1353KAXM    O1 9470   2.101   0.149   1.268
 1353KAXM    H1 9471   2.105   0.163   1.368
 1354KAXM    H8 9472   4.996   2.530   3.617
 1354KAXM    O2 9473   4.946   2.450   3.656
 1354KAXM    C3 9474   5.042   2.350   3.697
 1354KAXM    C2 9475   5.089   2.268   3.577
 1354KAXM    C1 9476   5.195   2.164   3.610
 1354KAXM    O1 9477   5.327   2.214   3.636
 1354KAXM    H1 9478   5.328   2.264   3.724
 1355KAXM    H8 9479   2.291   1.405   1.258
 1355KAXM    O2 9480   2.279   1.453   1.171
 1355KAXM    C3 9481   2.396   1.530   1.141
 1355KAXM    C2 9482   2.361   1.659   1.067
 1355KAXM    C1 9483   2.487   1.740   1.039
 1355KAXM    O1 9484   2.458   1.869   0.982
 1355KAXM    H1 9485   2.427   1.857   0.890
 1356KAXM    H8 9486   1.650   4.295   1.430
 1356KAXM    O2 9487   1.624   4.227   1.360
 1356KAXM    C3 9488   1.715   4.116   1.371
 1356KAXM    C2 9489   1.661   4.006   1.463
 1356KAXM    C1 9490   1.760   3.891   1.481
 1356KAXM    O1 9491   1.701   3.778   1.549
 1356KAXM    H1 9492   1.704   3.789   1.649
 1357KAXM    H8 9493   1.320   0.200   5.945
 1357KAXM    O2 9494   1.352   0.188   5.849
 1357KAXM    C3 9495   1.488   0.143   5.857
 1357KAXM    C2 9496   1.513   0.003   5.803
 1357KAXM    C1 9497   1.496   5.992   5.652
 1357KAXM    O1 9498   1.360   5.970   5.612
 1357KAXM    H1 9499   1.332   0.046   5.551
 1358KAXM    H8 9500   2.683   0.143   4.118
 1358KAXM    O2 9501   2.632   0.191   4.191
 1358KAXM    C3 9502   2.585   0.316   4.138
 1358KAXM    C2 9503   2.697   0.392   4.068
 1358KAXM    C1 9504   2.645   0.511   3.988
 1358KAXM    O1 9505   2.603   0.620   4.073
 1358KAXM    H1 9506   2.676   0.689   4.075
 1359KAXM    H8 9507   0.915   0.681   1.745
 1359KAXM    O2 9508   0.859   0.657   1.665
 1359KAXM    C3 9509   0.719   0.671   1.699
 1359KAXM    C2 9510   0.684   0.591   1.824
 1359KAXM    C1 9511   0.703   0.442   1.801
 1359KAXM    O1 9512   0.699   0.370   1.925
 1359KAXM    H1 9513   0.610   0.394   1.970
 1360KAXM    H8 9514   5.523   5.762   4.607
 1360KAXM    O2 9515   5.601   5.798   4.554
 1360KAXM    C3 9516   5.552   5.846   4.428
 1360KAXM    C2 9517   5.660   5.835   4.321
 1360KAXM    C1 9518   5.606   5.886   4.188
 1360KAXM    O1 9519   5.668   5.819   4.077
 1360KAXM    H1 9520   5.746   5.870   4.047
 1361KAXM    H8 9521   5.844   0.098   1.254
 1361KAXM    O2 9522   5.816   0.193   1.233
 1361KAXM    C3 9523   5.814   0.204   1.089
 1361KAXM    C2 9524   5.954   0.188   1.033
 1361KAXM    C1 9525   5.951   0.147   0.886
 1361KAXM    O1 9526   0.083   0.113   0.842
 1361KAXM    H1 9527   0.081   0.066   0.752
 1362KAXM    H8 9528   4.871   5.784   4.458
 1362KAXM    O2 9529   4.877   5.740   4.368
 1362KAXM    C3 9530   4.963   5.626   4.370
 1362KAXM    C2 9531   4.969   5.571   4.228
 1362KAXM    C1 9532   5.071   5.460   4.208
 1362KAXM    O1 9533   5.208   5.504   4.218
 1362KAXM    H1 9534   5.266   5.425   4.198
 1363KAXM    H8 9535   3.809   5.486   1.117
 1363KAXM    O2 9536   3.896   5.449   1.078
 1363KAXM    C3 9537   3.879   5.445   0.935
 1363KAXM    C2 9538   3.863   5.587   0.885
 1363KAXM    C1 9539   3.826   5.592   0.738
 1363KAXM    O1 9540   3.812   5.729   0.698
 1363KAXM    H1 9541   3.904   5.768   0.678
 1364KAXM    H8 9542   4.471   0.093   1.580
 1364KAXM    O2 9543   4.528   0.163   1.625
 1364KAXM    C3 9544   4.562   0.120   1.757
 1364KAXM    C2 9545   4.686   0.192   1.809
 1364KAXM    C1 9546   4.687   0.191   1.960
 1364KAXM    O1 9547   4.790   0.276   2.013
 1364KAXM    H1 9548   4.792   0.273   2.113
 1365KAXM    H8 9549   4.122   3.974   0.804
 1365KAXM    O2 9550   4.221   3.958   0.816
 1365KAXM    C3 9551   4.250   3.819   0.833
 1365KAXM    C2 9552   4.215   3.771   0.973
 1365KAXM    C1 9553   4.261   3.628   0.994
 1365KAXM    O1 9554   4.217   3.575   1.121
 1365KAXM    H1 9555   4.295   3.527   1.164
 1366KAXM    H8 9556   2.789   0.123   3.918
 1366KAXM    O2 9557   2.768   0.081   4.008
 1366KAXM    C3 9558   2.850   5.964   4.024
 1366KAXM    C2 9559   2.821   5.895   4.157
 1366KAXM    C1 9560   2.909   5.772   4.174
 1366KAXM    O1 9561   2.884   5.707   4.299
 1366KAXM    H1 9562   2.804   5.644   4.292
 1367KAXM    H8 9563   1.254   5.850   1.932
 1367KAXM    O2 9564   1.260   5.817   1.837
 1367KAXM    C3 9565   1.302   5.927   1.754
 1367KAXM    C2 9566   1.445   5.966   1.780
 1367KAXM    C1 9567   1.471   0.104   1.722
 1367KAXM    O1 9568   1.605   0.144   1.753
 1367KAXM    H1 9569   1.655   0.156   1.666
 1368KAXM    H8 9570   4.255   4.510   4.561
 1368KAXM    O2 9571   4.219   4.545   4.473
 1368KAXM    C3 9572   4.317   4.634   4.414
 1368KAXM    C2 9573   4.273   4.676   4.275
 1368KAXM    C1 9574   4.356   4.791   4.221
 1368KAXM    O1 9575   4.287   4.852   4.111
 1368KAXM    H1 9576   4.341   4.841   4.027
 1369KAXM    H8 9577   0.490   4.678   4.175
 1369KAXM    O2 9578   0.574   4.662   4.120
 1369KAXM    C3 9579   0.564   4.719   3.989
 1369KAXM    C2 9580   0.685   4.674   3.909
 1369KAXM    C1 9581   0.683   4.735   3.771
 1369KAXM    O1 9582   0.805   4.707   3.701
 1369KAXM    H1 9583   0.804   4.758   3.614
 1370KAXM    H8 9584   5.871   5.868   1.217
 1370KAXM    O2 9585   5.894   5.954   1.265
 1370KAXM    C3 9586   0.024   5.938   1.326
 1370KAXM    C2 9587   0.048   0.045   1.431
 1370KAXM    C1 9588   0.187   0.029   1.489
 1370KAXM    O1 9589   0.204   0.115   1.602
 1370KAXM    H1 9590   0.293   0.097   1.646
 1371KAXM    H8 9591   1.368   1.192   4.231
 1371KAXM    O2 9592   1.270   1.209   4.249
 1371KAXM    C3 9593   1.192   1.096   4.205
 1371KAXM    C2 9594   1.045   1.129   4.219
 1371KAXM    C1 9595   0.953   1.011   4.190
 1371KAXM    O1 9596   0.819   1.038   4.233
 1371KAXM    H1 9597   0.819   1.078   4.324
 1372KAXM    H8 9598   2.738   1.335   4.294
 1372KAXM    O2 9599   2.740   1.349   4.394
 1372KAXM    C3 9600   2.841   1.264   4.451
 1372KAXM    C2 9601   2.793   1.184   4.572
 1372KAXM    C1 9602   2.667   1.105   4.538
 1372KAXM    O1 9603   2.645   0.998   4.631
 1372KAXM    H1 9604   2.715   0.928   4.610
 1373KAXM    H8 9605   4.975   1.055   2.437
 1373KAXM    O2 9606   5.051   1.036   2.372
 1373KAXM    C3 9607   4.997   0.962   2.261
 1373KAXM    C2 9608   5.073   0.984   2.132
 1373KAXM    C1 9609   4.996   0.922   2.016
 1373KAXM    O1 9610   5.028   0.983   1.891
 1373KAXM    H1 9611   4.952   1.042   1.859
 1374KAXM    H8 9612   0.908   0.847   3.526
 1374KAXM    O2 9613   0.891   0.813   3.433
 1374KAXM    C3 9614   0.750   0.791   3.416
 1374KAXM    C2 9615   0.720   0.701   3.297
 1374KAXM    C1 9616   0.571   0.672   3.287
 1374KAXM    O1 9617   0.538   0.586   3.177
 1374KAXM    H1 9618   0.442   0.565   3.184
 1375KAXM    H8 9619   3.883   1.002   5.402
 1375KAXM    O2 9620   3.908   0.932   5.470
 1375KAXM    C3 9621   3.804   0.917   5.567
 1375KAXM    C2 9622   3.849   0.964   5.704
 1375KAXM    C1 9623   3.741   0.929   5.805
 1375KAXM    O1 9624   3.772   0.977   5.937
 1375KAXM    H1 9625   3.821   0.905   5.988
 1376KAXM    H8 9626   5.003   4.856   2.657
 1376KAXM    O2 9627   5.049   4.904   2.581
 1376KAXM    C3 9628   5.142   4.998   2.637
 1376KAXM    C2 9629   5.250   4.925   2.715
 1376KAXM    C1 9630   5.324   5.024   2.803
 1376KAXM    O1 9631   5.436   4.961   2.868
 1376KAXM    H1 9632   5.516   5.018   2.850
 1377KAXM    H8 9633   4.320   2.847   2.895
 1377KAXM    O2 9634   4.255   2.867   2.971
 1377KAXM    C3 9635   4.141   2.780   2.963
 1377KAXM    C2 9636   4.066   2.790   2.831
 1377KAXM    C1 9637   3.931   2.720   2.844
 1377KAXM    O1 9638   3.873   2.690   2.716
 1377KAXM    H1 9639   3.906   2.598   2.689
 1378KAXM    H8 9640   1.786   5.365   2.364
 1378KAXM    O2 9641   1.818   5.448   2.315
 1378KAXM    C3 9642   1.939   5.497   2.374
 1378KAXM    C2 9643   2.058   5.416   2.326
 1378KAXM    C1 9644   2.186   5.459   2.396
 1378KAXM    O1 9645   2.301   5.395   2.339
 1378KAXM    H1 9646   2.301   5.299   2.371
 1379KAXM    H8 9647   0.553   0.631   2.293
 1379KAXM    O2 9648   0.528   0.536   2.268
 1379KAXM    C3 9649   0.550   0.454   2.384
 1379KAXM    C2 9650   0.446   0.484   2.491
 1379KAXM    C1 9651   0.482   0.414   2.621
 1379KAXM    O1 9652   0.406   0.466   2.732
 1379KAXM    H1 9653   0.463   0.460   2.815
 1380KAXM    H8 9654   4.907   4.749   0.965
 1380KAXM    O2 9655   4.877   4.796   0.882
 1380KAXM    C3 9656   4.856   4.700   0.776
 1380KAXM    C2 9657   4.709   4.663   0.768
 1380KAXM    C1 9658   4.674   4.589   0.639
 1380KAXM    O1 9659   4.530   4.583   0.622
 1380KAXM    H1 9660   4.508   4.541   0.532
 1381KAXM    H8 9661   3.865   2.944   0.182
 1381KAXM    O2 9662   3.957   2.984   0.187
 1381KAXM    C3 9663   3.991   3.001   0.325
 1381KAXM    C2 9664   4.137   3.035   0.344
 1381KAXM    C1 9665   4.164   3.058   0.492
 1381KAXM    O1 9666   4.303   3.082   0.521
 1381KAXM    H1 9667   4.355   3.005   0.489
 1382KAXM    H8 9668   2.317   0.631   3.476
 1382KAXM    O2 9669   2.361   0.689   3.406
 1382KAXM    C3 9670   2.350   0.626   3.278
 1382KAXM    C2 9671   2.325   0.726   3.166
 1382KAXM    C1 9672   2.302   0.652   3.036
 1382KAXM    O1 9673   2.259   0.739   2.930
 1382KAXM    H1 9674   2.244   0.684   2.848
 1383KAXM    H8 9675   5.678   1.570   0.566
 1383KAXM    O2 9676   5.691   1.472   0.590
 1383KAXM    C3 9677   5.829   1.455   0.625
 1383KAXM    C2 9678   5.921   1.494   0.510
 1383KAXM    C1 9679   0.055   1.538   0.565
 1383KAXM    O1 9680   0.157   1.519   0.465
 1383KAXM    H1 9681   0.239   1.574   0.489
 1384KAXM    H8 9682   5.347   5.723   2.129
 1384KAXM    O2 9683   5.266   5.705   2.072
 1384KAXM    C3 9684   5.220   5.572   2.100
 1384KAXM    C2 9685   5.069   5.554   2.106
 1384KAXM    C1 9686   5.007   5.540   1.968
 1384KAXM    O1 9687   4.913   5.645   1.943
 1384KAXM    H1 9688   4.818   5.611   1.952
 1385KAXM    H8 9689   1.648   3.904   5.800
 1385KAXM    O2 9690   1.651   3.880   5.703
 1385KAXM    C3 9691   1.568   3.971   5.629
 1385KAXM    C2 9692   1.612   3.989   5.484
 1385KAXM    C1 9693   1.593   3.863   5.401
 1385KAXM    O1 9694   1.641   3.878   5.266
 1385KAXM    H1 9695   1.636   3.788   5.224
 1386KAXM    H8 9696   5.223   2.386   0.930
 1386KAXM    O2 9697   5.125   2.400   0.955
 1386KAXM    C3 9698   5.095   2.541   0.945
 1386KAXM    C2 9699   4.993   2.578   1.051
 1386KAXM    C1 9700   4.973   2.729   1.056
 1386KAXM    O1 9701   4.890   2.769   1.167
 1386KAXM    H1 9702   4.874   2.868   1.159
 1387KAXM    H8 9703   1.144   5.981   2.045
 1387KAXM    O2 9704   1.229   5.930   2.067
 1387KAXM    C3 9705   1.324   0.014   2.136
 1387KAXM    C2 9706   1.282   0.050   2.278
 1387KAXM    C1 9707   1.392   0.129   2.348
 1387KAXM    O1 9708   1.354   0.173   2.480
 1387KAXM    H1 9709   1.425   0.233   2.518
 1388KAXM    H8 9710   1.199   4.543   0.101
 1388KAXM    O2 9711   1.247   4.474   0.156
 1388KAXM    C3 9712   1.254   4.523   0.291
 1388KAXM    C2 9713   1.350   4.641   0.302
 1388KAXM    C1 9714   1.333   4.710   0.436
 1388KAXM    O1 9715   1.402   4.836   0.437
 1388KAXM    H1 9716   1.347   4.904   0.387
 1389KAXM    H8 9717   1.868   1.084   5.287
 1389KAXM    O2 9718   1.912   1.150   5.349
 1389KAXM    C3 9719   1.810   1.225   5.416
 1389KAXM    C2 9720   1.817   1.209   5.566
 1389KAXM    C1 9721   1.715   1.301   5.634
 1389KAXM    O1 9722   1.731   1.298   5.777
 1389KAXM    H1 9723   1.649   1.255   5.818
 1390KAXM    H8 9724   3.480   0.876   3.371
 1390KAXM    O2 9725   3.444   0.812   3.442
 1390KAXM    C3 9726   3.439   0.878   3.569
 1390KAXM    C2 9727   3.367   0.798   3.677
 1390KAXM    C1 9728   3.440   0.668   3.707
 1390KAXM    O1 9729   3.415   0.620   3.841
 1390KAXM    H1 9730   3.335   0.557   3.840
 1391KAXM    H8 9731   5.057   1.931   4.000
 1391KAXM    O2 9732   5.118   1.929   3.921
 1391KAXM    C3 9733   5.235   2.010   3.949
 1391KAXM    C2 9734   5.340   1.934   4.029
 1391KAXM    C1 9735   5.458   2.022   4.069
 1391KAXM    O1 9736   5.550   1.952   4.154
 1391KAXM    H1 9737   5.607   2.021   4.201
 1392KAXM    H8 9738   3.770   4.595   2.743
 1392KAXM    O2 9739   3.747   4.507   2.698
 1392KAXM    C3 9740   3.718   4.522   2.558
 1392KAXM    C2 9741   3.833   4.573   2.472
 1392KAXM    C1 9742   3.800   4.559   2.323
 1392KAXM    O1 9743   3.792   4.421   2.283
 1392KAXM    H1 9744   3.697   4.387   2.296
 1393KAXM    H8 9745   2.116   1.636   0.715
 1393KAXM    O2 9746   2.111   1.737   0.712
 1393KAXM    C3 9747   2.035   1.786   0.824
 1393KAXM    C2 9748   1.884   1.779   0.803
 1393KAXM    C1 9749   1.815   1.866   0.908
 1393KAXM    O1 9750   1.673   1.842   0.919
 1393KAXM    H1 9751   1.641   1.880   1.007
 1394KAXM    H8 9752   5.413   4.375   2.471
 1394KAXM    O2 9753   5.344   4.306   2.447
 1394KAXM    C3 9754   5.254   4.368   2.353
 1394KAXM    C2 9755   5.280   4.332   2.208
 1394KAXM    C1 9756   5.220   4.199   2.165
 1394KAXM    O1 9757   5.291   4.082   2.210
 1394KAXM    H1 9758   5.223   4.013   2.232
 1395KAXM    H8 9759   3.208   3.101   4.065
 1395KAXM    O2 9760   3.285   3.038   4.045
 1395KAXM    C3 9761   3.316   2.963   4.163
 1395KAXM    C2 9762   3.355   2.821   4.125
 1395KAXM    C1 9763   3.383   2.740   4.250
 1395KAXM    O1 9764   3.406   2.602   4.220
 1395KAXM    H1 9765   3.380   2.547   4.301
 1396KAXM    H8 9766   5.685   0.642   3.558
 1396KAXM    O2 9767   5.689   0.543   3.579
 1396KAXM    C3 9768   5.807   0.488   3.518
 1396KAXM    C2 9769   5.817   0.521   3.369
 1396KAXM    C1 9770   5.945   0.468   3.306
 1396KAXM    O1 9771   5.980   0.541   3.187
 1396KAXM    H1 9772   5.901   0.544   3.124
 1397KAXM    H8 9773   5.182   1.465   2.127
 1397KAXM    O2 9774   5.096   1.478   2.074
 1397KAXM    C3 9775   5.030   1.351   2.058
 1397KAXM    C2 9776   4.881   1.366   2.029
 1397KAXM    C1 9777   4.804   1.249   2.090
 1397KAXM    O1 9778   4.699   1.197   2.005
 1397KAXM    H1 9779   4.611   1.244   2.028
 1398KAXM    H8 9780   1.255   4.665   3.994
 1398KAXM    O2 9781   1.324   4.596   4.020
 1398KAXM    C3 9782   1.340   4.598   4.163
 1398KAXM    C2 9783   1.427   4.487   4.218
 1398KAXM    C1 9784   1.476   4.523   4.358
 1398KAXM    O1 9785   1.589   4.612   4.354
 1398KAXM    H1 9786   1.670   4.556   4.376
 1399KAXM    H8 9787   3.818   1.559   5.209
 1399KAXM    O2 9788   3.739   1.597   5.258
 1399KAXM    C3 9789   3.761   1.739   5.271
 1399KAXM    C2 9790   3.676   1.805   5.378
 1399KAXM    C1 9791   3.528   1.801   5.342
 1399KAXM    O1 9792   3.451   1.878   5.436
 1399KAXM    H1 9793   3.424   1.965   5.392
 1400KAXM    H8 9794   1.573   1.887   1.850
 1400KAXM    O2 9795   1.611   1.972   1.812
 1400KAXM    C3 9796   1.620   2.074   1.913
 1400KAXM    C2 9797   1.723   2.178   1.870
 1400KAXM    C1 9798   1.749   2.276   1.983
 1400KAXM    O1 9799   1.855   2.366   1.950
 1400KAXM    H1 9800   1.945   2.322   1.966
 1401KAXM    H8 9801   3.639   0.200   4.637
 1401KAXM    O2 9802   3.632   0.107   4.594
 1401KAXM    C3 9803   3.720   0.017   4.665
 1401KAXM    C2 9804   3.653   5.955   4.788
 1401KAXM    C1 9805   3.751   5.870   4.867
 1401KAXM    O1 9806   3.681   5.763   4.934
 1401KAXM    H1 9807   3.727   5.745   5.023
 1402KAXM    H8 9808   0.675   1.405   0.805
 1402KAXM    O2 9809   0.732   1.324   0.779
 1402KAXM    C3 9810   0.869   1.367   0.788
 1402KAXM    C2 9811   0.953   1.319   0.672
 1402KAXM    C1 9812   1.087   1.387   0.682
 1402KAXM    O1 9813   1.183   1.339   0.586
 1402KAXM    H1 9814   1.228   1.258   0.625
 1403KAXM    H8 9815   0.650   2.167   2.327
 1403KAXM    O2 9816   0.656   2.114   2.412
 1403KAXM    C3 9817   0.685   2.199   2.524
 1403KAXM    C2 9818   0.696   2.115   2.650
 1403KAXM    C1 9819   0.750   2.198   2.766
 1403KAXM    O1 9820   0.794   2.111   2.873
 1403KAXM    H1 9821   0.855   2.042   2.830
 1404KAXM    H8 9822   5.941   3.826   2.707
 1404KAXM    O2 9823   5.874   3.814   2.778
 1404KAXM    C3 9824   5.927   3.861   2.903
 1404KAXM    C2 9825   5.926   3.756   3.013
 1404KAXM    C1 9826   5.955   3.816   3.150
 1404KAXM    O1 9827   5.924   3.726   3.258
 1404KAXM    H1 9828   5.827   3.700   3.254
 1405KAXM    H8 9829   2.095   2.257   4.442
 1405KAXM    O2 9830   1.996   2.252   4.463
 1405KAXM    C3 9831   1.918   2.238   4.344
 1405KAXM    C2 9832   1.837   2.364   4.317
 1405KAXM    C1 9833   1.745   2.346   4.197
 1405KAXM    O1 9834   1.615   2.294   4.235
 1405KAXM    H1 9835   1.563   2.277   4.148
 1406KAXM    H8 9836   2.188   5.218   4.111
 1406KAXM    O2 9837   2.278   5.206   4.155
 1406KAXM    C3 9838   2.370   5.158   4.056
 1406KAXM    C2 9839   2.427   5.022   4.092
 1406KAXM    C1 9840   2.493   4.961   3.970
 1406KAXM    O1 9841   2.589   4.861   4.006
 1406KAXM    H1 9842   2.678   4.908   4.021
 1407KAXM    H8 9843   4.481   0.403   4.251
 1407KAXM    O2 9844   4.534   0.323   4.216
 1407KAXM    C3 9845   4.596   0.363   4.092
 1407KAXM    C2 9846   4.649   0.243   4.016
 1407KAXM    C1 9847   4.704   0.279   3.878
 1407KAXM    O1 9848   4.604   0.322   3.783
 1407KAXM    H1 9849   4.643   0.326   3.692
 1408KAXM    H8 9850   2.719   3.837   4.709
 1408KAXM    O2 9851   2.625   3.842   4.747
 1408KAXM    C3 9852   2.632   3.879   4.886
 1408KAXM    C2 9853   2.666   4.027   4.905
 1408KAXM    C1 9854   2.683   4.062   5.052
 1408KAXM    O1 9855   2.729   4.198   5.072
 1408KAXM    H1 9856   2.811   4.212   5.016
 1409KAXM    H8 9857   3.429   4.137   4.459
 1409KAXM    O2 9858   3.371   4.186   4.526
 1409KAXM    C3 9859   3.293   4.289   4.461
 1409KAXM    C2 9860   3.376   4.408   4.414
 1409KAXM    C1 9861   3.285   4.516   4.355
 1409KAXM    O1 9862   3.353   4.614   4.275
 1409KAXM    H1 9863   3.442   4.577   4.241
 1410KAXM    H8 9864   1.955   3.241   4.867
 1410KAXM    O2 9865   1.952   3.143   4.881
 1410KAXM    C3 9866   1.813   3.102   4.884
 1410KAXM    C2 9867   1.782   2.994   4.781
 1410KAXM    C1 9868   1.660   2.911   4.821
 1410KAXM    O1 9869   1.542   2.989   4.844
 1410KAXM    H1 9870   1.470   2.963   4.777
 1411KAXM    H8 9871   0.291   3.231   3.133
 1411KAXM    O2 9872   0.206   3.191   3.175
 1411KAXM    C3 9873   0.153   3.095   3.082
 1411KAXM    C2 9874   0.009   3.064   3.118
 1411KAXM    C1 9875   5.961   2.943   3.039
 1411KAXM    O1 9876   5.822   2.915   3.063
 1411KAXM    H1 9877   5.802   2.922   3.162
 1412KAXM    H8 9878   3.024   3.385   5.835
 1412KAXM    O2 9879   3.072   3.327   5.903
 1412KAXM    C3 9880   3.197   3.286   5.846
 1412KAXM    C2 9881   3.295   3.402   5.846
 1412KAXM    C1 9882   3.387   3.393   5.726
 1412KAXM    O1 9883   3.456   3.517   5.701
 1412KAXM    H1 9884   3.390   3.580   5.657
 1413KAXM    H8 9885   1.351   4.665   3.390
 1413KAXM    O2 9886   1.393   4.712   3.310
 1413KAXM    C3 9887   1.397   4.622   3.199
 1413KAXM    C2 9888   1.389   4.702   3.070
 1413KAXM    C1 9889   1.406   4.613   2.949
 1413KAXM    O1 9890   1.375   4.683   2.828
 1413KAXM    H1 9891   1.275   4.677   2.817
 1414KAXM    H8 9892   0.894   2.310   4.162
 1414KAXM    O2 9893   0.927   2.406   4.165
 1414KAXM    C3 9894   0.958   2.446   4.300
 1414KAXM    C2 9895   1.068   2.363   4.366
 1414KAXM    C1 9896   1.083   2.405   4.512
 1414KAXM    O1 9897   1.176   2.321   4.582
 1414KAXM    H1 9898   1.127   2.259   4.642
 1415KAXM    H8 9899   5.363   5.615   4.702
 1415KAXM    O2 9900   5.416   5.701   4.693
 1415KAXM    C3 9901   5.373   5.796   4.792
 1415KAXM    C2 9902   5.438   5.765   4.927
 1415KAXM    C1 9903   5.397   5.869   5.030
 1415KAXM    O1 9904   5.451   5.837   5.160
 1415KAXM    H1 9905   5.511   5.914   5.187
 1416KAXM    H8 9906   4.594   5.317   4.624
 1416KAXM    O2 9907   4.631   5.410   4.618
 1416KAXM    C3 9908   4.713   5.438   4.733
 1416KAXM    C2 9909   4.770   5.580   4.728
 1416KAXM    C1 9910   4.873   5.608   4.837
 1416KAXM    O1 9911   4.821   5.607   4.971
 1416KAXM    H1 9912   4.796   5.701   4.998
 1417KAXM    H8 9913   2.215   4.262   5.863
 1417KAXM    O2 9914   2.206   4.182   5.800
 1417KAXM    C3 9915   2.336   4.130   5.772
 1417KAXM    C2 9916   2.368   4.143   5.625
 1417KAXM    C1 9917   2.515   4.115   5.595
 1417KAXM    O1 9918   2.600   4.228   5.622
 1417KAXM    H1 9919   2.635   4.259   5.535
 1418KAXM    H8 9920   2.843   0.817   3.993
 1418KAXM    O2 9921   2.790   0.788   4.070
 1418KAXM    C3 9922   2.875   0.793   4.187
 1418KAXM    C2 9923   2.793   0.804   4.314
 1418KAXM    C1 9924   2.885   0.798   4.436
 1418KAXM    O1 9925   2.814   0.823   4.558
 1418KAXM    H1 9926   2.854   0.763   4.630
 1419KAXM    H8 9927   0.290   2.407   5.476
 1419KAXM    O2 9928   0.320   2.313   5.458
 1419KAXM    C3 9929   0.398   2.308   5.339
 1419KAXM    C2 9930   0.315   2.304   5.211
 1419KAXM    C1 9931   0.408   2.303   5.091
 1419KAXM    O1 9932   0.337   2.310   4.968
 1419KAXM    H1 9933   0.396   2.291   4.892
 1420KAXM    H8 9934   5.256   2.417   2.445
 1420KAXM    O2 9935   5.207   2.331   2.420
 1420KAXM    C3 9936   5.161   2.339   2.285
 1420KAXM    C2 9937   5.277   2.341   2.186
 1420KAXM    C1 9938   5.222   2.344   2.044
 1420KAXM    O1 9939   5.325   2.357   1.945
 1420KAXM    H1 9940   5.282   2.355   1.854
 1421KAXM    H8 9941   3.506   5.824   1.003
 1421KAXM    O2 9942   3.426   5.773   1.030
 1421KAXM    C3 9943   3.336   5.780   0.919
 1421KAXM    C2 9944   3.328   5.647   0.847
 1421KAXM    C1 9945   3.224   5.656   0.736
 1421KAXM    O1 9946   3.202   5.530   0.672
 1421KAXM    H1 9947   3.261   5.523   0.590
 1422KAXM    H8 9948   3.762   2.362   1.395
 1422KAXM    O2 9949   3.814   2.448   1.391
 1422KAXM    C3 9950   3.728   2.544   1.328
 1422KAXM    C2 9951   3.789   2.609   1.205
 1422KAXM    C1 9952   3.684   2.693   1.133
 1422KAXM    O1 9953   3.740   2.768   1.025
 1422KAXM    H1 9954   3.669   2.778   0.953
 1423KAXM    H8 9955   4.806   3.946   4.965
 1423KAXM    O2 9956   4.885   3.995   4.925
 1423KAXM    C3 9957   5.003   3.912   4.917
 1423KAXM    C2 9958   5.120   3.997   4.868
 1423KAXM    C1 9959   5.254   3.924   4.860
 1423KAXM    O1 9960   5.354   4.009   4.801
 1423KAXM    H1 9961   5.443   3.996   4.850
 1424KAXM    H8 9962   4.879   4.619   4.860
 1424KAXM    O2 9963   4.857   4.635   4.957
 1424KAXM    C3 9964   4.975   4.667   5.032
 1424KAXM    C2 9965   4.969   4.596   5.166
 1424KAXM    C1 9966   5.087   4.631   5.256
 1424KAXM    O1 9967   5.073   4.573   5.386
 1424KAXM    H1 9968   5.164   4.563   5.423
 1425KAXM    H8 9969   4.232   5.270   5.693
 1425KAXM    O2 9970   4.189   5.347   5.643
 1425KAXM    C3 9971   4.047   5.349   5.664
 1425KAXM    C2 9972   3.982   5.443   5.563
 1425KAXM    C1 9973   3.832   5.447   5.585
 1425KAXM    O1 9974   3.772   5.550   5.505
 1425KAXM    H1 9975   3.758   5.517   5.412
 1426KAXM    H8 9976   4.645   2.740   4.989
 1426KAXM    O2 9977   4.554   2.701   5.004
 1426KAXM    C3 9978   4.484   2.698   4.878
 1426KAXM    C2 9979   4.569   2.632   4.771
 1426KAXM    C1 9980   4.520   2.665   4.631
 1426KAXM    O1 9981   4.614   2.617   4.534
 1426KAXM    H1 9982   4.652   2.695   4.482
 1427KAXM    H8 9983   5.606   0.790   1.899
 1427KAXM    O2 9984   5.526   0.780   1.960
 1427KAXM    C3 9985   5.564   0.809   2.096
 1427KAXM    C2 9986   5.443   0.809   2.188
 1427KAXM    C1 9987   5.479   0.866   2.325
 1427KAXM    O1 9988   5.368   0.859   2.415
 1427KAXM    H1 9989   5.342   0.949   2.449
 1428KAXM    H8 9990   5.852   1.625   2.615
 1428KAXM    O2 9991   5.759   1.599   2.582
 1428KAXM    C3 9992   5.772   1.530   2.457
 1428KAXM    C2 9993   5.646   1.547   2.373
 1428KAXM    C1 9994   5.671   1.515   2.226
 1428KAXM    O1 9995   5.552   1.519   2.144
 1428KAXM    H1 9996   5.553   1.606   2.092
 1429KAXM    H8 9997   2.722   3.862   3.584
 1429KAXM    O2 9998   2.654   3.938   3.586
 1429KAXM    C3 9999   2.583   3.932   3.711
 1429KAXM    C210000   2.547   4.073   3.756
 1429KAXM    C110001   2.514   4.081   3.904
 1429KAXM    O110002   2.389   4.020   3.941
 1429KAXM    H110003   2.376   4.038   4.039
 1430KAXM    H810004   2.619   5.133   0.735
 1430KAXM    O210005   2.523   5.113   0.760
 1430KAXM    C310006   2.520   4.971   0.790
 1430KAXM    C210007   2.424   4.936   0.902
 1430KAXM    C110008   2.449   4.793   0.947
 1430KAXM    O110009   2.407   4.780   1.083
 1430KAXM    H110010   2.415   4.685   1.117
 1431KAXM    H810011   3.825   5.017   1.086
 1431KAXM    O210012   3.804   4.925   1.113
 1431KAXM    C310013   3.683   4.927   1.191
 1431KAXM    C210014   3.558   4.910   1.106
 1431KAXM    C110015   3.438   4.874   1.193
 1431KAXM    O110016   3.315   4.878   1.119
 1431KAXM    H110017   3.238   4.842   1.170
 1432KAXM    H810018   3.766   5.856   2.354
 1432KAXM    O210019   3.680   5.839   2.405
 1432KAXM    C310020   3.573   5.878   2.318
 1432KAXM    C210021   3.570   0.029   2.299
 1432KAXM    C110022   3.493   0.067   2.173
 1432KAXM    O110023   3.441   0.201   2.180
 1432KAXM    H110024   3.508   0.273   2.160
 1433KAXM    H810025   4.884   1.427   0.789
 1433KAXM    O210026   4.981   1.402   0.804
 1433KAXM    C310027   5.039   1.486   0.905
 1433KAXM    C210028   5.027   1.428   1.046
 1433KAXM    C110029   5.104   1.516   1.143
 1433KAXM    O110030   5.174   1.440   1.244
 1433KAXM    H110031   5.233   1.372   1.196
 1434KAXM    H810032   3.144   5.374   2.933
 1434KAXM    O210033   3.157   5.379   2.833
 1434KAXM    C310034   3.236   5.267   2.788
 1434KAXM    C210035   3.174   5.132   2.819
 1434KAXM    C110036   3.048   5.104   2.739
 1434KAXM    O110037   2.981   4.988   2.792
 1434KAXM    H110038   3.018   4.904   2.748
 1435KAXM    H810039   1.877   2.490   1.878
 1435KAXM    O210040   1.914   2.576   1.838
 1435KAXM    C310041   1.949   2.549   1.701
 1435KAXM    C210042   1.951   2.674   1.614
 1435KAXM    C110043   1.982   2.632   1.471
 1435KAXM    O110044   1.993   2.744   1.382
 1435KAXM    H110045   2.092   2.768   1.374
 1436KAXM    H810046   2.728   1.356   1.117
 1436KAXM    O210047   2.751   1.393   1.025
 1436KAXM    C310048   2.658   1.337   0.930
 1436KAXM    C210049   2.724   1.237   0.836
 1436KAXM    C110050   2.795   1.309   0.722
 1436KAXM    O110051   2.900   1.229   0.664
 1436KAXM    H110052   2.861   1.156   0.611
 1437KAXM    H810053   1.427   3.350   2.895
 1437KAXM    O210054   1.399   3.341   2.798
 1437KAXM    C310055   1.496   3.407   2.714
 1437KAXM    C210056   1.457   3.550   2.679
 1437KAXM    C110057   1.334   3.559   2.591
 1437KAXM    O110058   1.303   3.695   2.553
 1437KAXM    H110059   1.378   3.733   2.497
 1438KAXM    H810060   3.850   5.700   4.466
 1438KAXM    O210061   3.813   5.653   4.388
 1438KAXM    C310062   3.751   5.749   4.301
 1438KAXM    C210063   3.712   5.689   4.167
 1438KAXM    C110064   3.663   5.797   4.072
 1438KAXM    O110065   3.621   5.745   3.945
 1438KAXM    H110066   3.703   5.711   3.894
 1439KAXM    H810067   4.599   0.045   4.478
 1439KAXM    O210068   4.609   5.958   4.530
 1439KAXM    C310069   4.526   5.860   4.467
 1439KAXM    C210070   4.479   5.756   4.567
 1439KAXM    C110071   4.430   5.632   4.493
 1439KAXM    O110072   4.537   5.556   4.435
 1439KAXM    H110073   4.579   5.500   4.508
 1440KAXM    H810074   4.498   5.186   4.485
 1440KAXM    O210075   4.503   5.180   4.587
 1440KAXM    C310076   4.367   5.183   4.635
 1440KAXM    C210077   4.305   5.320   4.616
 1440KAXM    C110078   4.157   5.312   4.587
 1440KAXM    O110079   4.108   5.440   4.544
 1440KAXM    H110080   4.035   5.425   4.473
 1441KAXM    H810081   1.220   5.010   1.453
 1441KAXM    O210082   1.125   5.037   1.437
 1441KAXM    C310083   1.057   4.932   1.367
 1441KAXM    C210084   0.925   4.897   1.435
 1441KAXM    C110085   0.946   4.828   1.569
 1441KAXM    O110086   0.824   4.778   1.626
 1441KAXM    H110087   0.819   4.677   1.613
 1442KAXM    H810088   3.002   0.864   3.168
 1442KAXM    O210089   2.995   0.943   3.231
 1442KAXM    C310090   3.014   0.894   3.364
 1442KAXM    C210091   2.977   0.997   3.470
 1442KAXM    C110092   2.959   0.928   3.605
 1442KAXM    O110093   2.847   0.838   3.603
 1442KAXM    H110094   2.765   0.886   3.639
 1443KAXM    H810095   1.443   3.367   1.141
 1443KAXM    O210096   1.397   3.456   1.158
 1443KAXM    C310097   1.381   3.477   1.299
 1443KAXM    C210098   1.490   3.567   1.357
 1443KAXM    C110099   1.622   3.494   1.375
 1443KAXM    O110100   1.733   3.584   1.395
 1443KAXM    H110101   1.712   3.657   1.462
 1444KAXM    H810102   3.426   0.674   3.391
 1444KAXM    O210103   3.401   0.582   3.359
 1444KAXM    C310104   3.259   0.582   3.340
 1444KAXM    C210105   3.202   0.442   3.337
 1444KAXM    C110106   3.051   0.449   3.341
 1444KAXM    O110107   3.002   0.492   3.469
 1444KAXM    H110108   2.923   0.551   3.457
 1445KAXM    H810109   2.604   4.127   2.599
 1445KAXM    O210110   2.562   4.039   2.630
 1445KAXM    C310111   2.512   4.059   2.763
 1445KAXM    C210112   2.375   4.128   2.763
 1445KAXM    C110113   2.319   4.140   2.904
 1445KAXM    O110114   2.196   4.214   2.904
 1445KAXM    H110115   2.206   4.295   2.960
 1446KAXM    H810116   1.288   0.264   5.740
 1446KAXM    O210117   1.238   0.310   5.664
 1446KAXM    C310118   1.268   0.452   5.663
 1446KAXM    C210119   1.412   0.485   5.627
 1446KAXM    C110120   1.501   0.489   5.751
 1446KAXM    O110121   1.640   0.505   5.718
 1446KAXM    H110122   1.668   0.600   5.733
 1447KAXM    H810123   4.729   2.585   3.997
 1447KAXM    O210124   4.697   2.513   4.058
 1447KAXM    C310125   4.564   2.473   4.022
 1447KAXM    C210126   4.563   2.355   3.925
 1447KAXM    C110127   4.421   2.316   3.887
 1447KAXM    O110128   4.418   2.209   3.790
 1447KAXM    H110129   4.323   2.182   3.771
 1448KAXM    H810130   5.301   3.453   3.821
 1448KAXM    O210131   5.318   3.518   3.747
 1448KAXM    C310132   5.444   3.582   3.772
 1448KAXM    C210133   5.462   3.705   3.684
 1448KAXM    C110134   5.601   3.764   3.704
 1448KAXM    O110135   5.621   3.882   3.624
 1448KAXM    H110136   5.707   3.868   3.572
 1449KAXM    H810137   1.884   0.053   0.995
 1449KAXM    O210138   1.863   5.972   0.938
 1449KAXM    C310139   1.959   5.964   0.830
 1449KAXM    C210140   1.924   5.862   0.724
 1449KAXM    C110141   1.819   5.916   0.627
 1449KAXM    O110142   1.871   0.020   0.541
 1449KAXM    H110143   1.792   0.057   0.489
 1450KAXM    H810144   3.948   4.579   5.353
 1450KAXM    O210145   3.864   4.571   5.409
 1450KAXM    C310146   3.894   4.608   5.545
 1450KAXM    C210147   3.804   4.721   5.591
 1450KAXM    C110148   3.832   4.764   5.734
 1450KAXM    O110149   3.753   4.879   5.769
 1450KAXM    H110150   3.714   4.864   5.861
 1451KAXM    H810151   3.655   5.488   1.992
 1451KAXM    O210152   3.680   5.395   2.023
 1451KAXM    C310153   3.822   5.373   2.016
 1451KAXM    C210154   3.850   5.225   2.038
 1451KAXM    C110155   3.994   5.186   2.012
 1451KAXM    O110156   4.008   5.042   2.016
 1451KAXM    H110157   4.102   5.019   2.002
 1452KAXM    H810158   3.119   0.765   2.252
 1452KAXM    O210159   3.150   0.839   2.190
 1452KAXM    C310160   3.288   0.869   2.215
 1452KAXM    C210161   3.357   0.909   2.085
 1452KAXM    C110162   3.499   0.959   2.111
 1452KAXM    O110163   3.574   0.973   1.990
 1452KAXM    H110164   3.651   1.037   2.005
 1453KAXM    H810165   0.095   5.891   4.587
 1453KAXM    O210166   0.050   5.802   4.565
 1453KAXM    C310167   5.927   5.785   4.637
 1453KAXM    C210168   5.929   5.861   4.768
 1453KAXM    C110169   5.807   5.829   4.854
 1453KAXM    O110170   5.800   5.922   4.963
 1453KAXM    H110171   5.757   0.007   4.927
 1454KAXM    H810172   4.769   4.122   1.792
 1454KAXM    O210173   4.755   4.181   1.873
 1454KAXM    C310174   4.817   4.121   1.987
 1454KAXM    C210175   4.776   4.190   2.116
 1454KAXM    C110176   4.868   4.146   2.229
 1454KAXM    O110177   4.836   4.191   2.362
 1454KAXM    H110178   4.918   4.176   2.419
 1455KAXM    H810179   3.106   1.339   1.727
 1455KAXM    O210180   3.033   1.372   1.788
 1455KAXM    C310181   3.049   1.311   1.917
 1455KAXM    C210182   2.977   1.177   1.924
 1455KAXM    C110183   3.010   1.107   2.056
 1455KAXM    O110184   2.994   0.964   2.047
 1455KAXM    H110185   3.065   0.921   2.107
 1456KAXM    H810186   4.618   1.467   5.007
 1456KAXM    O210187   4.672   1.534   5.057
 1456KAXM    C310188   4.592   1.651   5.082
 1456KAXM    C210189   4.596   1.751   4.967
 1456KAXM    C110190   4.489   1.858   4.986
 1456KAXM    O110191   4.481   1.948   4.874
 1456KAXM    H110192   4.536   2.029   4.895
 1457KAXM    H810193   3.191   5.293   5.997
 1457KAXM    O210194   3.138   5.210   5.982
 1457KAXM    C310195   3.170   5.120   0.088
 1457KAXM    C210196   3.101   4.985   0.074
 1457KAXM    C110197   3.141   4.898   0.193
 1457KAXM    O110198   3.096   4.763   0.180
 1457KAXM    H110199   3.171   4.702   0.204
 1458KAXM    H810200   5.629   4.841   1.455
 1458KAXM    O210201   5.613   4.778   1.378
 1458KAXM    C310202   5.526   4.843   1.283
 1458KAXM    C210203   5.413   4.918   1.352
 1458KAXM    C110204   5.317   4.981   1.252
 1458KAXM    O110205   5.220   5.060   1.323
 1458KAXM    H110206   5.155   4.999   1.371
 1459KAXM    H810207   3.821   5.926   1.725
 1459KAXM    O210208   3.847   5.852   1.789
 1459KAXM    C310209   3.912   5.912   1.902
 1459KAXM    C210210   3.855   5.863   2.035
 1459KAXM    C110211   3.917   5.944   2.149
 1459KAXM    O110212   3.890   5.887   2.278
 1459KAXM    H110213   3.976   5.882   2.330
 1460KAXM    H810214   5.264   3.732   5.991
 1460KAXM    O210215   5.320   3.649   5.972
 1460KAXM    C310216   5.335   3.628   5.831
 1460KAXM    C210217   5.203   3.589   5.764
 1460KAXM    C110218   5.221   3.568   5.614
 1460KAXM    O110219   5.094   3.571   5.546
 1460KAXM    H110220   5.108   3.550   5.449
 1461KAXM    H810221   2.235   1.018   1.874
 1461KAXM    O210222   2.219   1.105   1.827
 1461KAXM    C310223   2.275   1.101   1.695
 1461KAXM    C210224   2.263   1.234   1.622
 1461KAXM    C110225   2.305   1.219   1.476
 1461KAXM    O110226   2.276   1.334   1.394
 1461KAXM    H110227   2.188   1.377   1.423
 1462KAXM    H810228   4.803   1.494   5.115
 1462KAXM    O210229   4.891   1.461   5.153
 1462KAXM    C310230   4.910   1.515   5.285
 1462KAXM    C210231   4.997   1.640   5.281
 1462KAXM    C110232   5.032   1.684   5.422
 1462KAXM    O110233   5.159   1.752   5.424
 1462KAXM    H110234   5.151   1.835   5.480
 1463KAXM    H810235   5.019   1.443   2.804
 1463KAXM    O210236   4.977   1.496   2.727
 1463KAXM    C310237   5.038   1.627   2.724
 1463KAXM    C210238   5.176   1.632   2.659
 1463KAXM    C110239   5.288   1.581   2.749
 1463KAXM    O110240   5.287   1.439   2.769
 1463KAXM    H110241   5.341   1.418   2.852
 1464KAXM    H810242   2.919   2.830   3.159
 1464KAXM    O210243   2.932   2.734   3.129
 1464KAXM    C310244   2.912   2.648   3.242
 1464KAXM    C210245   3.038   2.624   3.324
 1464KAXM    C110246   3.087   2.752   3.391
 1464KAXM    O110247   3.203   2.727   3.472
 1464KAXM    H110248   3.273   2.682   3.415
 1465KAXM    H810249   3.549   2.377   1.930
 1465KAXM    O210250   3.622   2.372   1.999
 1465KAXM    C310251   3.588   2.459   2.110
 1465KAXM    C210252   3.560   2.602   2.066
 1465KAXM    C110253   3.497   2.681   2.179
 1465KAXM    O110254   3.451   2.813   2.143
 1465KAXM    H110255   3.422   2.856   2.230
 1466KAXM    H810256   1.145   0.710   0.047
 1466KAXM    O210257   1.200   0.632   0.023
 1466KAXM    C310258   1.280   0.591   0.135
 1466KAXM    C210259   1.336   0.450   0.116
 1466KAXM    C110260   1.224   0.346   0.118
 1466KAXM    O110261   1.271   0.216   0.081
 1466KAXM    H110262   1.203   0.144   0.104
 1467KAXM    H810263   0.009   1.737   2.556
 1467KAXM    O210264   5.977   1.711   2.649
 1467KAXM    C310265   0.002   1.821   2.738
 1467KAXM    C210266   0.013   1.778   2.884
 1467KAXM    C110267   0.017   1.902   2.973
 1467KAXM    O110268   0.050   1.877   3.111
 1467KAXM    H110269   0.148   1.857   3.119
 1468KAXM    H810270   1.792   4.153   1.881
 1468KAXM    O210271   1.707   4.138   1.934
 1468KAXM    C310272   1.681   4.253   2.017
 1468KAXM    C210273   1.808   4.304   2.082
 1468KAXM    C110274   1.785   4.399   2.198
 1468KAXM    O110275   1.910   4.456   2.243
 1468KAXM    H110276   1.979   4.382   2.258
 1469KAXM    H810277   4.177   0.643   2.973
 1469KAXM    O210278   4.214   0.587   2.897
 1469KAXM    C310279   4.204   0.665   2.776
 1469KAXM    C210280   4.057   0.693   2.748
 1469KAXM    C110281   4.035   0.804   2.647
 1469KAXM    O110282   3.895   0.833   2.641
 1469KAXM    H110283   3.866   0.872   2.729
 1470KAXM    H810284   2.170   4.904   0.405
 1470KAXM    O210285   2.181   4.899   0.303
 1470KAXM    C310286   2.058   4.947   0.247
 1470KAXM    C210287   2.077   4.991   0.103
 1470KAXM    C110288   1.946   5.040   0.041
 1470KAXM    O110289   1.909   5.176   0.072
 1470KAXM    H110290   1.837   5.205   0.008
 1471KAXM    H810291   2.427   2.322   1.547
 1471KAXM    O210292   2.483   2.406   1.538
 1471KAXM    C310293   2.409   2.518   1.588
 1471KAXM    C210294   2.444   2.544   1.733
 1471KAXM    C110295   2.343   2.637   1.799
 1471KAXM    O110296   2.373   2.651   1.939
 1471KAXM    H110297   2.329   2.577   1.991
 1472KAXM    H810298   3.816   1.062   4.012
 1472KAXM    O210299   3.846   1.158   4.027
 1472KAXM    C310300   3.936   1.164   4.139
 1472KAXM    C210301   3.873   1.209   4.271
 1472KAXM    C110302   3.984   1.245   4.368
 1472KAXM    O110303   3.939   1.306   4.490
 1472KAXM    H110304   4.007   1.377   4.516
 1473KAXM    H810305   4.250   2.034   2.574
 1473KAXM    O210306   4.156   2.043   2.609
 1473KAXM    C310307   4.155   2.116   2.733
 1473KAXM    C210308   4.129   2.027   2.855
 1473KAXM    C110309   4.128   2.110   2.984
 1473KAXM    O110310   4.138   2.029   3.103
 1473KAXM    H110311   4.230   2.033   3.143
 1474KAXM    H810312   0.725   3.200   3.080
 1474KAXM    O210313   0.631   3.167   3.097
 1474KAXM    C310314   0.637   3.048   3.177
 1474KAXM    C210315   0.641   3.085   3.325
 1474KAXM    C110316   0.716   2.982   3.409
 1474KAXM    O110317   0.648   2.856   3.422
 1474KAXM    H110318   0.719   2.786   3.437
 1475KAXM    H810319   4.224   4.496   1.176
 1475KAXM    O210320   4.325   4.490   1.181
 1475KAXM    C310321   4.366   4.478   1.319
 1475KAXM    C210322   4.300   4.582   1.409
 1475KAXM    C110323   4.327   4.551   1.555
 1475KAXM    O110324   4.255   4.638   1.643
 1475KAXM    H110325   4.239   4.591   1.731
 1476KAXM    H810326   1.459   1.128   5.831
 1476KAXM    O210327   1.530   1.182   5.878
 1476KAXM    C310328   1.537   1.142   0.015
 1476KAXM    C210329   1.675   1.086   0.051
 1476KAXM    C110330   1.685   0.940   0.009
 1476KAXM    O110331   1.809   0.911   5.943
 1476KAXM    H110332   1.789   0.844   5.870
 1477KAXM    H810333   0.248   1.685   0.107
 1477KAXM    O210334   0.340   1.694   0.145
 1477KAXM    C310335   0.423   1.590   0.091
 1477KAXM    C210336   0.570   1.608   0.127
 1477KAXM    C110337   0.657   1.506   0.054
 1477KAXM    O110338   0.798   1.528   0.069
 1477KAXM    H110339   0.817   1.628   0.072
 1478KAXM    H810340   5.261   2.849   3.436
 1478KAXM    O210341   5.228   2.754   3.424
 1478KAXM    C310342   5.286   2.705   3.302
 1478KAXM    C210343   5.213   2.590   3.237
 1478KAXM    C110344   5.232   2.463   3.318
 1478KAXM    O110345   5.223   2.347   3.233
 1478KAXM    H110346   5.313   2.337   3.189
 1479KAXM    H810347   3.188   0.054   3.132
 1479KAXM    O210348   3.271   0.013   3.174
 1479KAXM    C310349   3.288   0.073   3.304
 1479KAXM    C210350   3.391   0.000   3.388
 1479KAXM    C110351   3.413   0.075   3.518
 1479KAXM    O110352   3.535   0.031   3.581
 1479KAXM    H110353   3.513   5.983   3.668
 1480KAXM    H810354   4.561   1.156   1.463
 1480KAXM    O210355   4.630   1.183   1.394
 1480KAXM    C310356   4.596   1.319   1.359
 1480KAXM    C210357   4.717   1.405   1.328
 1480KAXM    C110358   4.670   1.543   1.291
 1480KAXM    O110359   4.779   1.630   1.254
 1480KAXM    H110360   4.775   1.639   1.154
 1481KAXM    H810361   1.202   1.831   1.499
 1481KAXM    O210362   1.268   1.812   1.573
 1481KAXM    C310363   1.316   1.940   1.619
 1481KAXM    C210364   1.442   1.979   1.543
 1481KAXM    C110365   1.451   2.130   1.531
 1481KAXM    O110366   1.369   2.179   1.423
 1481KAXM    H110367   1.331   2.269   1.448
 1482KAXM    H810368   4.659   2.181   2.729
 1482KAXM    O210369   4.713   2.254   2.684
 1482KAXM    C310370   4.710   2.230   2.542
 1482KAXM    C210371   4.788   2.105   2.511
 1482KAXM    C110372   4.774   2.070   2.364
 1482KAXM    O110373   4.833   1.941   2.342
 1482KAXM    H110374   4.786   1.897   2.264
 1483KAXM    H810375   4.371   0.858   5.850
 1483KAXM    O210376   4.457   0.907   5.872
 1483KAXM    C310377   4.527   0.835   5.976
 1483KAXM    C210378   4.676   0.864   5.975
 1483KAXM    C110379   4.743   0.793   0.091
 1483KAXM    O110380   4.884   0.816   0.094
 1483KAXM    H110381   4.909   0.880   0.168
 1484KAXM    H810382   3.397   1.605   3.122
 1484KAXM    O210383   3.345   1.663   3.057
 1484KAXM    C310384   3.306   1.579   2.947
 1484KAXM    C210385   3.413   1.566   2.838
 1484KAXM    C110386   3.359   1.475   2.729
 1484KAXM    O110387   3.435   1.468   2.606
 1484KAXM    H110388   3.386   1.405   2.544
 1485KAXM    H810389   1.854   3.601   1.310
 1485KAXM    O210390   1.932   3.618   1.247
 1485KAXM    C310391   1.926   3.518   1.144
 1485KAXM    C210392   1.816   3.553   1.045
 1485KAXM    C110393   1.816   3.458   0.927
 1485KAXM    O110394   1.929   3.477   0.841
 1485KAXM    H110395   1.926   3.408   0.768
 1486KAXM    H810396   0.649   0.434   5.872
 1486KAXM    O210397   0.708   0.446   5.954
 1486KAXM    C310398   0.839   0.481   5.905
 1486KAXM    C210399   0.873   0.629   5.924
 1486KAXM    C110400   0.881   0.666   0.071
 1486KAXM    O110401   0.929   0.801   0.087
 1486KAXM    H110402   0.928   0.826   0.185
 1487KAXM    H810403   5.918   2.437   5.159
 1487KAXM    O210404   5.984   2.413   5.087
 1487KAXM    C310405   5.935   2.293   5.022
 1487KAXM    C210406   0.028   2.241   4.913
 1487KAXM    C110407   5.968   2.119   4.843
 1487KAXM    O110408   0.062   2.061   4.751
 1487KAXM    H110409   0.020   1.987   4.700
 1488KAXM    H810410   5.992   2.134   0.858
 1488KAXM    O210411   0.022   2.145   0.763
 1488KAXM    C310412   5.951   2.253   0.700
 1488KAXM    C210413   0.004   2.388   0.747
 1488KAXM    C110414   5.950   2.499   0.658
 1488KAXM    O110415   5.986   2.625   0.716
 1488KAXM    H110416   0.002   2.696   0.645
 1489KAXM    H810417   5.472   3.384   0.941
 1489KAXM    O210418   5.387   3.380   0.994
 1489KAXM    C310419   5.289   3.461   0.928
 1489KAXM    C210420   5.179   3.376   0.864
 1489KAXM    C110421   5.231   3.279   0.759
 1489KAXM    O110422   5.125   3.195   0.709
 1489KAXM    H110423   5.165   3.118   0.655
 1490KAXM    H810424   2.198   4.748   4.296
 1490KAXM    O210425   2.214   4.781   4.203
 1490KAXM    C310426   2.101   4.762   4.118
 1490KAXM    C210427   2.131   4.654   4.014
 1490KAXM    C110428   2.125   4.515   4.073
 1490KAXM    O110429   2.194   4.419   3.991
 1490KAXM    H110430   2.148   4.328   4.000
 1491KAXM    H810431   0.795   3.502   2.199
 1491KAXM    O210432   0.797   3.405   2.223
 1491KAXM    C310433   0.746   3.328   2.113
 1491KAXM    C210434   0.644   3.223   2.153
 1491KAXM    C110435   0.525   3.287   2.223
 1491KAXM    O110436   0.416   3.193   2.236
 1491KAXM    H110437   0.447   3.112   2.288
 1492KAXM    H810438   2.497   5.874   1.707
 1492KAXM    O210439   2.445   5.933   1.643
 1492KAXM    C310440   2.407   0.052   1.715
 1492KAXM    C210441   2.320   0.148   1.633
 1492KAXM    C110442   2.184   0.086   1.602
 1492KAXM    O110443   2.099   0.177   1.530
 1492KAXM    H110444   2.044   0.226   1.598
 1493KAXM    H810445   0.978   0.820   0.473
 1493KAXM    O210446   1.006   0.770   0.555
 1493KAXM    C310447   1.056   0.859   0.656
 1493KAXM    C210448   1.177   0.941   0.613
 1493KAXM    C110449   1.228   1.020   0.732
 1493KAXM    O110450   1.297   1.141   0.696
 1493KAXM    H110451   1.391   1.120   0.663
 1494KAXM    H810452   5.722   2.421   4.787
 1494KAXM    O210453   5.775   2.507   4.795
 1494KAXM    C310454   5.722   2.598   4.894
 1494KAXM    C210455   5.574   2.579   4.922
 1494KAXM    C110456   5.488   2.582   4.797
 1494KAXM    O110457   5.365   2.513   4.822
 1494KAXM    H110458   5.296   2.554   4.761
 1495KAXM    H810459   4.540   0.983   4.056
 1495KAXM    O210460   4.606   0.917   4.021
 1495KAXM    C310461   4.643   0.826   4.124
 1495KAXM    C210462   4.791   0.841   4.154
 1495KAXM    C110463   4.833   0.745   4.264
 1495KAXM    O110464   4.971   0.768   4.297
 1495KAXM    H110465   4.976   0.840   4.368
 1496KAXM    H810466   5.705   0.989   5.108
 1496KAXM    O210467   5.657   0.954   5.188
 1496KAXM    C310468   5.699   1.017   5.310
 1496KAXM    C210469   5.615   1.141   5.340
 1496KAXM    C110470   5.565   1.142   5.483
 1496KAXM    O110471   5.424   1.169   5.492
 1496KAXM    H110472   5.375   1.086   5.459
 1497KAXM    H810473   1.207   4.620   1.656
 1497KAXM    O210474   1.240   4.595   1.564
 1497KAXM    C310475   1.150   4.500   1.505
 1497KAXM    C210476   1.204   4.456   1.370
 1497KAXM    C110477   1.120   4.346   1.307
 1497KAXM    O110478   1.163   4.319   1.173
 1497KAXM    H110479   1.258   4.289   1.176
 1498KAXM    H810480   4.380   5.708   0.663
 1498KAXM    O210481   4.390   5.755   0.752
 1498KAXM    C310482   4.519   5.726   0.809
 1498KAXM    C210483   4.633   5.784   0.726
 1498KAXM    C110484   4.652   5.709   0.595
 1498KAXM    O110485   4.721   5.788   0.496
 1498KAXM    H110486   4.730   5.735   0.411
 1499KAXM    H810487   0.187   1.379   0.439
 1499KAXM    O210488   0.204   1.280   0.420
 1499KAXM    C310489   0.282   1.226   0.529
 1499KAXM    C210490   0.193   1.194   0.649
 1499KAXM    C110491   0.272   1.132   0.763
 1499KAXM    O110492   0.185   1.094   0.870
 1499KAXM    H110493   0.234   1.032   0.934
 1500KAXM    H810494   0.805   3.800   0.909
 1500KAXM    O210495   0.732   3.812   0.839
 1500KAXM    C310496   0.766   3.725   0.729
 1500KAXM    C210497   0.725   3.785   0.595
 1500KAXM    C110498   0.752   3.688   0.481
 1500KAXM    O110499   0.685   3.730   0.361
 1500KAXM    H110500   0.585   3.717   0.374
 1501KAXM    H810501   2.690   1.441   4.502
 1501KAXM    O210502   2.652   1.499   4.575
 1501KAXM    C310503   2.508   1.491   4.569
 1501KAXM    C210504   2.460   1.533   4.431
 1501KAXM    C110505   2.309   1.541   4.420
 1501KAXM    O110506   2.271   1.609   4.300
 1501KAXM    H110507   2.230   1.697   4.325
 1502KAXM    H810508   0.987   1.931   0.336
 1502KAXM    O210509   0.968   1.841   0.292
 1502KAXM    C310510   1.085   1.761   0.313
 1502KAXM    C210511   1.057   1.612   0.310
 1502KAXM    C110512   1.189   1.538   0.329
 1502KAXM    O110513   1.241   1.552   0.462
 1502KAXM    H110514   1.221   1.467   0.514
 1503KAXM    H810515   1.746   5.156   1.258
 1503KAXM    O210516   1.827   5.216   1.252
 1503KAXM    C310517   1.840   5.292   1.373
 1503KAXM    C210518   1.981   5.285   1.430
 1503KAXM    C110519   1.987   5.367   1.558
 1503KAXM    O110520   2.104   5.340   1.636
 1503KAXM    H110521   2.091   5.374   1.729
 1504KAXM    H810522   3.112   0.275   2.678
 1504KAXM    O210523   3.102   0.371   2.712
 1504KAXM    C310524   3.008   0.438   2.626
 1504KAXM    C210525   3.073   0.506   2.506
 1504KAXM    C110526   2.967   0.577   2.422
 1504KAXM    O110527   3.019   0.663   2.318
 1504KAXM    H110528   2.941   0.703   2.271
 1505KAXM    H810529   3.023   0.150   0.587
 1505KAXM    O210530   3.075   0.117   0.509
 1505KAXM    C310531   3.034   5.984   0.477
 1505KAXM    C210532   3.150   5.907   0.413
 1505KAXM    C110533   3.106   5.765   0.380
 1505KAXM    O110534   3.211   5.687   0.319
 1505KAXM    H110535   3.167   5.625   0.251
 1506KAXM    H810536   0.689   5.367   4.143
 1506KAXM    O210537   0.658   5.366   4.049
 1506KAXM    C310538   0.687   5.239   3.988
 1506KAXM    C210539   0.646   5.234   3.842
 1506KAXM    C110540   0.679   5.101   3.777
 1506KAXM    O110541   0.821   5.077   3.761
 1506KAXM    H110542   0.853   5.027   3.843
 1507KAXM    H810543   4.572   1.046   2.287
 1507KAXM    O210544   4.544   1.085   2.376
 1507KAXM    C310545   4.549   1.229   2.367
 1507KAXM    C210546   4.510   1.295   2.499
 1507KAXM    C110547   4.539   1.444   2.491
 1507KAXM    O110548   4.535   1.504   2.621
 1507KAXM    H110549   4.617   1.483   2.675
 1508KAXM    H810550   3.102   2.722   5.903
 1508KAXM    O210551   3.069   2.670   5.983
 1508KAXM    C310552   3.061   2.753   0.101
 1508KAXM    C210553   3.189   2.828   0.137
 1508KAXM    C110554   3.210   2.947   0.044
 1508KAXM    O110555   3.308   3.037   0.098
 1508KAXM    H110556   3.316   3.114   0.038
 1509KAXM    H810557   4.915   3.851   2.758
 1509KAXM    O210558   4.958   3.898   2.836
 1509KAXM    C310559   4.864   3.909   2.945
 1509KAXM    C210560   4.858   4.051   3.003
 1509KAXM    C110561   4.772   4.142   2.916
 1509KAXM    O110562   4.778   4.280   2.955
 1509KAXM    H110563   4.688   4.324   2.941
 1510KAXM    H810564   5.485   1.680   5.320
 1510KAXM    O210565   5.574   1.723   5.345
 1510KAXM    C310566   5.577   1.733   5.488
 1510KAXM    C210567   5.480   1.843   5.529
 1510KAXM    C110568   5.448   1.841   5.677
 1510KAXM    O110569   5.364   1.952   5.712
 1510KAXM    H110570   5.417   2.013   5.772
 1511KAXM    H810571   3.091   2.224   4.226
 1511KAXM    O210572   3.074   2.305   4.171
 1511KAXM    C310573   3.158   2.310   4.054
 1511KAXM    C210574   3.081   2.268   3.930
 1511KAXM    C110575   3.170   2.266   3.806
 1511KAXM    O110576   3.102   2.205   3.694
 1511KAXM    H110577   3.157   2.214   3.610
 1512KAXM    H810578   3.407   0.635   2.696
 1512KAXM    O210579   3.383   0.692   2.777
 1512KAXM    C310580   3.242   0.675   2.803
 1512KAXM    C210581   3.197   0.731   2.938
 1512KAXM    C110582   3.049   0.699   2.957
 1512KAXM    O110583   3.000   0.745   3.084
 1512KAXM    H110584   2.921   0.687   3.112
 1513KAXM    H810585   0.293   1.819   5.822
 1513KAXM    O210586   0.337   1.767   5.747
 1513KAXM    C310587   0.477   1.798   5.740
 1513KAXM    C210588   0.554   1.673   5.702
 1513KAXM    C110589   0.703   1.702   5.692
 1513KAXM    O110590   0.779   1.581   5.678
 1513KAXM    H110591   0.874   1.604   5.684
 1514KAXM    H810592   5.009   5.397   2.428
 1514KAXM    O210593   4.948   5.322   2.397
 1514KAXM    C310594   4.886   5.260   2.512
 1514KAXM    C210595   4.814   5.131   2.470
 1514KAXM    C110596   4.733   5.060   2.578
 1514KAXM    O110597   4.664   4.945   2.522
 1514KAXM    H110598   4.637   4.885   2.598
 1515KAXM    H810599   4.164   1.989   1.943
 1515KAXM    O210600   4.082   1.986   1.884
 1515KAXM    C310601   3.966   1.971   1.969
 1515KAXM    C210602   3.848   2.052   1.918
 1515KAXM    C110603   3.730   2.039   2.013
 1515KAXM    O110604   3.619   2.120   1.970
 1515KAXM    H110605   3.633   2.217   1.992
 1516KAXM    H810606   2.607   2.992   2.731
 1516KAXM    O210607   2.509   2.984   2.757
 1516KAXM    C310608   2.497   2.960   2.898
 1516KAXM    C210609   2.365   3.013   2.952
 1516KAXM    C110610   2.363   3.166   2.951
 1516KAXM    O110611   2.234   3.217   2.992
 1516KAXM    H110612   2.189   3.260   2.912
 1517KAXM    H810613   2.455   2.968   4.365
 1517KAXM    O210614   2.433   3.011   4.275
 1517KAXM    C310615   2.382   2.904   4.193
 1517KAXM    C210616   2.360   2.945   4.048
 1517KAXM    C110617   2.490   2.946   3.968
 1517KAXM    O110618   2.532   2.813   3.933
 1517KAXM    H110619   2.607   2.820   3.866
 1518KAXM    H810620   4.978   2.962   2.406
 1518KAXM    O210621   4.892   2.914   2.390
 1518KAXM    C310622   4.913   2.773   2.407
 1518KAXM    C210623   4.812   2.693   2.326
 1518KAXM    C110624   4.836   2.544   2.348
 1518KAXM    O110625   4.754   2.466   2.259
 1518KAXM    H110626   4.660   2.463   2.295
 1519KAXM    H810627   4.093   0.191   0.136
 1519KAXM    O210628   4.090   0.180   0.236
 1519KAXM    C310629   4.204   0.242   0.296
 1519KAXM    C210630   4.165   0.352   0.393
 1519KAXM    C110631   4.091   0.465   0.323
 1519KAXM    O110632   4.053   0.567   0.416
 1519KAXM    H110633   3.959   0.548   0.448
 1520KAXM    H810634   5.566   0.818   4.482
 1520KAXM    O210635   5.583   0.793   4.579
 1520KAXM    C310636   5.581   0.914   4.658
 1520KAXM    C210637   5.655   0.896   4.789
 1520KAXM    C110638   5.683   1.031   4.854
 1520KAXM    O110639   5.771   1.019   4.968
 1520KAXM    H110640   5.848   1.085   4.958
 1521KAXM    H810641   2.623   2.633   2.143
 1521KAXM    O210642   2.669   2.554   2.099
 1521KAXM    C310643   2.796   2.600   2.048
 1521KAXM    C210644   2.898   2.488   2.037
 1521KAXM    C110645   3.037   2.539   1.998
 1521KAXM    O110646   3.044   2.599   1.867
 1521KAXM    H110647   3.011   2.695   1.874
 1522KAXM    H810648   0.870   0.322   1.909
 1522KAXM    O210649   0.961   0.282   1.897
 1522KAXM    C310650   1.059   0.360   1.968
 1522KAXM    C210651   1.031   0.374   2.117
 1522KAXM    C110652   1.163   0.401   2.186
 1522KAXM    O110653   1.157   0.503   2.289
 1522KAXM    H110654   1.124   0.464   2.377
 1523KAXM    H810655   6.000   2.274   2.141
 1523KAXM    O210656   5.915   2.327   2.160
 1523KAXM    C310657   5.937   2.463   2.119
 1523KAXM    C210658   5.881   2.498   1.982
 1523KAXM    C110659   5.920   2.643   1.951
 1523KAXM    O110660   5.896   2.683   1.815
 1523KAXM    H110661   5.857   2.775   1.819
 1524KAXM    H810662   3.299   0.277   1.661
 1524KAXM    O210663   3.282   0.307   1.564
 1524KAXM    C310664   3.172   0.400   1.560
 1524KAXM    C210665   3.151   0.450   1.417
 1524KAXM    C110666   3.045   0.558   1.408
 1524KAXM    O110667   3.039   0.611   1.275
 1524KAXM    H110668   3.109   0.682   1.263
 1525KAXM    H810669   5.917   4.739   0.878
 1525KAXM    O210670   5.824   4.749   0.909
 1525KAXM    C310671   5.813   4.871   0.984
 1525KAXM    C210672   5.730   4.974   0.909
 1525KAXM    C110673   5.670   5.077   1.003
 1525KAXM    O110674   5.540   5.118   0.955
 1525KAXM    H110675   5.541   5.216   0.933
 1526KAXM    H810676   1.103   2.598   3.148
 1526KAXM    O210677   1.090   2.693   3.166
 1526KAXM    C310678   0.973   2.731   3.089
 1526KAXM    C210679   0.954   2.882   3.073
 1526KAXM    C110680   1.039   2.943   2.962
 1526KAXM    O110681   1.027   3.087   2.963
 1526KAXM    H110682   1.091   3.127   2.895
 1527KAXM    H810683   0.803   2.106   0.866
 1527KAXM    O210684   0.884   2.136   0.915
 1527KAXM    C310685   0.980   2.193   0.824
 1527KAXM    C210686   0.927   2.309   0.741
 1527KAXM    C110687   0.911   2.440   0.818
 1527KAXM    O110688   0.787   2.452   0.890
 1527KAXM    H110689   0.810   2.485   0.984
 1528KAXM    H810690   3.302   4.598   2.596
 1528KAXM    O210691   3.271   4.686   2.556
 1528KAXM    C310692   3.357   4.720   2.447
 1528KAXM    C210693   3.292   4.696   2.312
 1528KAXM    C110694   3.377   4.754   2.200
 1528KAXM    O110695   3.300   4.762   2.079
 1528KAXM    H110696   3.354   4.796   2.002
 1529KAXM    H810697   2.120   3.094   0.245
 1529KAXM    O210698   2.130   3.098   0.143
 1529KAXM    C310699   2.267   3.128   0.112
 1529KAXM    C210700   2.352   3.003   0.103
 1529KAXM    C110701   2.494   3.030   0.150
 1529KAXM    O110702   2.562   2.904   0.167
 1529KAXM    H110703   2.651   2.921   0.213
 1530KAXM    H810704   4.385   3.312   4.364
 1530KAXM    O210705   4.384   3.213   4.383
 1530KAXM    C310706   4.472   3.179   4.492
 1530KAXM    C210707   4.397   3.158   4.623
 1530KAXM    C110708   4.485   3.083   4.722
 1530KAXM    O110709   4.440   3.090   4.859
 1530KAXM    H110710   4.348   3.049   4.870
 1531KAXM    H810711   0.139   4.123   4.332
 1531KAXM    O210712   0.052   4.073   4.328
 1531KAXM    C310713   5.978   4.122   4.215
 1531KAXM    C210714   0.060   4.104   4.089
 1531KAXM    C110715   5.997   4.183   3.976
 1531KAXM    O110716   0.086   4.188   3.863
 1531KAXM    H110717   0.037   4.231   3.786
 1532KAXM    H810718   0.730   3.283   4.022
 1532KAXM    O210719   0.651   3.342   4.002
 1532KAXM    C310720   0.529   3.268   4.020
 1532KAXM    C210721   0.406   3.346   3.974
 1532KAXM    C110722   0.281   3.266   4.007
 1532KAXM    O110723   0.159   3.324   3.958
 1532KAXM    H110724   0.086   3.253   3.967
 1533KAXM    H810725   2.662   4.601   4.647
 1533KAXM    O210726   2.697   4.695   4.662
 1533KAXM    C310727   2.782   4.699   4.779
 1533KAXM    C210728   2.873   4.577   4.795
 1533KAXM    C110729   2.941   4.583   4.932
 1533KAXM    O110730   3.032   4.473   4.956
 1533KAXM    H110731   3.052   4.468   5.056
 1534KAXM    H810732   0.846   0.069   0.851
 1534KAXM    O210733   0.879   0.047   0.945
 1534KAXM    C310734   0.764   0.046   1.031
 1534KAXM    C210735   0.802   0.045   1.178
 1534KAXM    C110736   0.862   0.179   1.220
 1534KAXM    O110737   0.761   0.279   1.241
 1534KAXM    H110738   0.802   0.370   1.224
 1535KAXM    H810739   5.208   2.135   2.732
 1535KAXM    O210740   5.187   2.124   2.831
 1535KAXM    C310741   5.198   1.987   2.870
 1535KAXM    C210742   5.151   1.963   3.013
 1535KAXM    C110743   5.211   1.833   3.062
 1535KAXM    O110744   5.140   1.772   3.170
 1535KAXM    H110745   5.205   1.738   3.239
 1536KAXM    H810746   2.825   4.377   0.438
 1536KAXM    O210747   2.787   4.372   0.530
 1536KAXM    C310748   2.750   4.236   0.557
 1536KAXM    C210749   2.603   4.220   0.524
 1536KAXM    C110750   2.559   4.076   0.543
 1536KAXM    O110751   2.428   4.053   0.487
 1536KAXM    H110752   2.356   4.102   0.539
 1537KAXM    H810753   0.760   4.636   4.724
 1537KAXM    O210754   0.732   4.674   4.638
 1537KAXM    C310755   0.672   4.571   4.559
 1537KAXM    C210756   0.712   4.583   4.414
 1537KAXM    C110757   0.673   4.458   4.336
 1537KAXM    O110758   0.711   4.475   4.199
 1537KAXM    H110759   0.654   4.552   4.162
 1538KAXM    H810760   4.985   3.137   3.896
 1538KAXM    O210761   4.914   3.104   3.959
 1538KAXM    C310762   4.817   3.028   3.887
 1538KAXM    C210763   4.735   2.943   3.983
 1538KAXM    C110764   4.680   2.820   3.913
 1538KAXM    O110765   4.778   2.714   3.899
 1538KAXM    H110766   4.757   2.663   3.813
 1539KAXM    H810767   0.589   3.183   0.705
 1539KAXM    O210768   0.595   3.195   0.806
 1539KAXM    C310769   0.525   3.085   0.868
 1539KAXM    C210770   0.457   3.124   0.999
 1539KAXM    C110771   0.559   3.170   1.102
 1539KAXM    O110772   0.501   3.209   1.228
 1539KAXM    H110773   0.545   3.297   1.252
 1540KAXM    H810774   0.738   1.611   3.791
 1540KAXM    O210775   0.768   1.702   3.826
 1540KAXM    C310776   0.679   1.740   3.932
 1540KAXM    C210777   0.557   1.810   3.874
 1540KAXM    C110778   0.452   1.839   3.980
 1540KAXM    O110779   0.349   1.927   3.930
 1540KAXM    H110780   0.265   1.872   3.912
 1541KAXM    H810781   2.761   2.846   1.633
 1541KAXM    O210782   2.766   2.869   1.731
 1541KAXM    C310783   2.637   2.921   1.771
 1541KAXM    C210784   2.620   2.918   1.923
 1541KAXM    C110785   2.491   2.984   1.970
 1541KAXM    O110786   2.474   2.966   2.111
 1541KAXM    H110787   2.389   3.008   2.142
 1542KAXM    H810788   2.521   0.699   5.620
 1542KAXM    O210789   2.464   0.631   5.571
 1542KAXM    C310790   2.553   0.532   5.514
 1542KAXM    C210791   2.586   0.566   5.369
 1542KAXM    C110792   2.597   0.441   5.284
 1542KAXM    O110793   2.470   0.376   5.265
 1542KAXM    H110794   2.465   0.342   5.169
 1543KAXM    H810795   0.851   4.215   4.031
 1543KAXM    O210796   0.840   4.115   4.026
 1543KAXM    C310797   0.703   4.080   3.997
 1543KAXM    C210798   0.606   4.184   4.052
 1543KAXM    C110799   0.460   4.140   4.043
 1543KAXM    O110800   0.421   4.053   4.152
 1543KAXM    H110801   0.381   3.968   4.110
 1544KAXM    H810802   4.028   2.545   1.994
 1544KAXM    O210803   3.947   2.604   2.005
 1544KAXM    C310804   3.948   2.699   1.896
 1544KAXM    C210805   3.841   2.666   1.793
 1544KAXM    C110806   3.874   2.722   1.654
 1544KAXM    O110807   3.873   2.866   1.640
 1544KAXM    H110808   3.937   2.890   1.565
 1545KAXM    H810809   2.266   4.030   3.853
 1545KAXM    O210810   2.176   4.058   3.815
 1545KAXM    C310811   2.152   3.996   3.687
 1545KAXM    C210812   2.214   4.077   3.574
 1545KAXM    C110813   2.162   4.035   3.437
 1545KAXM    O110814   2.224   4.108   3.330
 1545KAXM    H110815   2.187   4.200   3.318
 1546KAXM    H810816   0.856   5.620   1.073
 1546KAXM    O210817   0.770   5.575   1.103
 1546KAXM    C310818   0.710   5.659   1.204
 1546KAXM    C210819   0.765   5.623   1.340
 1546KAXM    C110820   0.682   5.691   1.448
 1546KAXM    O110821   0.743   5.673   1.576
 1546KAXM    H110822   0.817   5.742   1.585
 1547KAXM    H810823   2.741   0.662   0.339
 1547KAXM    O210824   2.713   0.611   0.256
 1547KAXM    C310825   2.830   0.557   0.192
 1547KAXM    C210826   2.805   0.540   0.043
 1547KAXM    C110827   2.916   0.460   5.977
 1547KAXM    O110828   2.890   0.434   5.838
 1547KAXM    H110829   2.806   0.380   5.824
 1548KAXM    H810830   1.865   1.337   5.841
 1548KAXM    O210831   1.951   1.366   5.886
 1548KAXM    C310832   2.053   1.388   5.787
 1548KAXM    C210833   2.027   1.518   5.713
 1548KAXM    C110834   2.155   1.571   5.651
 1548KAXM    O110835   2.167   1.713   5.669
 1548KAXM    H110836   2.136   1.760   5.585
 1549KAXM    H810837   2.092   5.400   3.484
 1549KAXM    O210838   2.073   5.409   3.583
 1549KAXM    C310839   2.033   5.546   3.606
 1549KAXM    C210840   2.086   5.602   3.737
 1549KAXM    C110841   2.037   5.745   3.753
 1549KAXM    O110842   2.105   5.811   3.861
 1549KAXM    H110843   2.042   5.876   3.907
 1550KAXM    H810844   2.417   2.949   2.646
 1550KAXM    O210845   2.360   2.927   2.565
 1550KAXM    C310846   2.433   2.833   2.484
 1550KAXM    C210847   2.556   2.896   2.421
 1550KAXM    C110848   2.636   2.796   2.337
 1550KAXM    O110849   2.568   2.757   2.217
 1550KAXM    H110850   2.529   2.839   2.172
 1551KAXM    H810851   5.698   0.251   1.749
 1551KAXM    O210852   5.684   0.192   1.830
 1551KAXM    C310853   5.560   0.120   1.817
 1551KAXM    C210854   5.535   0.021   1.930
 1551KAXM    C110855   5.511   0.090   2.064
 1551KAXM    O110856   5.446   0.003   2.159
 1551KAXM    H110857   5.360   0.047   2.184
 1552KAXM    H810858   2.046   4.191   4.615
 1552KAXM    O210859   1.985   4.135   4.555
 1552KAXM    C310860   1.961   4.009   4.620
 1552KAXM    C210861   2.012   3.893   4.535
 1552KAXM    C110862   1.974   3.760   4.598
 1552KAXM    O110863   2.030   3.652   4.522
 1552KAXM    H110864   2.126   3.638   4.548
 1553KAXM    H810865   5.063   0.686   4.217
 1553KAXM    O210866   5.124   0.630   4.158
 1553KAXM    C310867   5.234   0.588   4.241
 1553KAXM    C210868   5.332   0.496   4.172
 1553KAXM    C110869   5.440   0.458   4.272
 1553KAXM    O110870   5.541   0.372   4.216
 1553KAXM    H110871   5.580   0.418   4.135
 1554KAXM    H810872   1.539   2.906   5.192
 1554KAXM    O210873   1.584   2.848   5.261
 1554KAXM    C310874   1.698   2.916   5.315
 1554KAXM    C210875   1.812   2.922   5.214
 1554KAXM    C110876   1.918   3.024   5.253
 1554KAXM    O110877   1.996   2.988   5.369
 1554KAXM    H110878   2.046   3.070   5.397
 1555KAXM    H810879   5.982   5.144   5.584
 1555KAXM    O210880   5.960   5.163   5.488
 1555KAXM    C310881   5.888   5.051   5.432
 1555KAXM    C210882   5.891   5.048   5.279
 1555KAXM    C110883   5.829   4.921   5.223
 1555KAXM    O110884   5.831   4.921   5.079
 1555KAXM    H110885   5.851   4.828   5.046
 1556KAXM    H810886   2.944   2.057   0.575
 1556KAXM    O210887   2.846   2.039   0.595
 1556KAXM    C310888   2.793   1.950   0.496
 1556KAXM    C210889   2.705   1.842   0.559
 1556KAXM    C110890   2.660   1.743   0.453
 1556KAXM    O110891   2.578   1.638   0.506
 1556KAXM    H110892   2.548   1.579   0.433
 1557KAXM    H810893   2.487   4.694   5.156
 1557KAXM    O210894   2.489   4.739   5.247
 1557KAXM    C310895   2.394   4.847   5.251
 1557KAXM    C210896   2.335   4.863   5.390
 1557KAXM    C110897   2.442   4.895   5.494
 1557KAXM    O110898   2.388   4.886   5.628
 1557KAXM    H110899   2.424   4.803   5.673
 1558KAXM    H810900   3.173   5.084   2.337
 1558KAXM    O210901   3.149   5.016   2.408
 1558KAXM    C310902   3.016   4.964   2.384
 1558KAXM    C210903   3.000   4.890   2.251
 1558KAXM    C110904   2.877   4.798   2.252
 1558KAXM    O110905   2.867   4.715   2.135
 1558KAXM    H110906   2.788   4.747   2.080
 1559KAXM    H810907   2.353   5.686   5.668
 1559KAXM    O210908   2.321   5.609   5.609
 1559KAXM    C310909   2.296   5.495   5.694
 1559KAXM    C210910   2.187   5.519   5.798
 1559KAXM    C110911   2.169   5.395   5.885
 1559KAXM    O110912   2.029   5.369   5.909
 1559KAXM    H110913   2.021   5.307   5.987
 1560KAXM    H810914   0.010   3.601   4.925
 1560KAXM    O210915   0.061   3.660   4.861
 1560KAXM    C310916   5.973   3.713   4.760
 1560KAXM    C210917   0.056   3.757   4.641
 1560KAXM    C110918   5.972   3.817   4.529
 1560KAXM    O110919   0.055   3.841   4.414
 1560KAXM    H110920   0.041   3.937   4.382
 1561KAXM    H810921   3.502   0.456   2.594
 1561KAXM    O210922   3.449   0.542   2.587
 1561KAXM    C310923   3.465   0.595   2.453
 1561KAXM    C210924   3.484   0.483   2.351
 1561KAXM    C110925   3.509   0.535   2.210
 1561KAXM    O110926   3.554   0.431   2.122
 1561KAXM    H110927   3.595   0.477   2.042
 1562KAXM    H810928   5.732   1.516   1.434
 1562KAXM    O210929   5.824   1.487   1.467
 1562KAXM    C310930   5.824   1.480   1.611
 1562KAXM    C210931   5.795   1.615   1.676
 1562KAXM    C110932   5.794   1.600   1.828
 1562KAXM    O110933   5.778   1.727   1.892
 1562KAXM    H110934   5.691   1.728   1.943
 1563KAXM    H810935   1.403   5.331   3.084
 1563KAXM    O210936   1.391   5.427   3.051
 1563KAXM    C310937   1.507   5.462   2.972
 1563KAXM    C210938   1.531   5.358   2.862
 1563KAXM    C110939   1.613   5.411   2.745
 1563KAXM    O110940   1.584   5.335   2.625
 1563KAXM    H110941   1.492   5.359   2.595
 1564KAXM    H810942   0.292   3.890   3.363
 1564KAXM    O210943   0.249   3.940   3.438
 1564KAXM    C310944   0.346   4.021   3.506
 1564KAXM    C210945   0.286   4.154   3.548
 1564KAXM    C110946   0.394   4.255   3.583
 1564KAXM    O110947   0.349   4.391   3.567
 1564KAXM    H110948   0.334   4.429   3.660
 1565KAXM    H810949   5.557   4.203   4.157
 1565KAXM    O210950   5.513   4.248   4.236
 1565KAXM    C310951   5.612   4.282   4.335
 1565KAXM    C210952   5.552   4.307   4.473
 1565KAXM    C110953   5.494   4.181   4.538
 1565KAXM    O110954   5.451   4.207   4.673
 1565KAXM    H110955   5.408   4.124   4.711
 1566KAXM    H810956   4.275   1.521   3.246
 1566KAXM    O210957   4.323   1.436   3.251
 1566KAXM    C310958   4.338   1.396   3.388
 1566KAXM    C210959   4.337   1.244   3.402
 1566KAXM    C110960   4.376   1.208   3.544
 1566KAXM    O110961   4.361   1.068   3.572
 1566KAXM    H110962   4.446   1.016   3.551
 1567KAXM    H810963   5.964   3.327   0.335
 1567KAXM    O210964   5.895   3.255   0.321
 1567KAXM    C310965   5.851   3.257   0.185
 1567KAXM    C210966   5.913   3.143   0.106
 1567KAXM    C110967   5.849   3.136   5.969
 1567KAXM    O110968   5.902   3.030   5.888
 1567KAXM    H110969   5.993   3.057   5.853
 1568KAXM    H810970   5.271   2.457   4.566
 1568KAXM    O210971   5.272   2.362   4.538
 1568KAXM    C310972   5.194   2.291   4.634
 1568KAXM    C210973   5.193   2.140   4.618
 1568KAXM    C110974   5.117   2.087   4.737
 1568KAXM    O110975   5.095   1.946   4.734
 1568KAXM    H110976   5.117   1.910   4.826
 1569KAXM    H810977   5.511   3.950   0.746
 1569KAXM    O210978   5.571   3.924   0.670
 1569KAXM    C310979   5.556   3.781   0.655
 1569KAXM    C210980   5.632   3.717   0.538
 1569KAXM    C110981   5.581   3.763   0.402
 1569KAXM    O110982   5.615   3.673   0.296
 1569KAXM    H110983   5.528   3.635   0.259
 1570KAXM    H810984   0.150   2.348   0.102
 1570KAXM    O210985   0.083   2.333   0.027
 1570KAXM    C310986   5.947   2.323   0.075
 1570KAXM    C210987   5.936   2.273   0.218
 1570KAXM    C110988   5.789   2.252   0.251
 1570KAXM    O110989   5.769   2.200   0.384
 1570KAXM    H110990   5.830   2.120   0.397
 1571KAXM    H810991   4.488   2.239   4.930
 1571KAXM    O210992   4.397   2.279   4.921
 1571KAXM    C310993   4.355   2.342   5.043
 1571KAXM    C210994   4.300   2.240   5.142
 1571KAXM    C110995   4.250   2.311   5.267
 1571KAXM    O110996   4.168   2.225   5.348
 1571KAXM    H110997   4.071   2.252   5.341
 1572KAXM    H810998   3.153   4.489   5.260
 1572KAXM    O210999   3.088   4.445   5.195
 1572KAXM    C311000   2.987   4.379   5.273
 1572KAXM    C211001   2.861   4.463   5.281
 1572KAXM    C111002   2.753   4.405   5.372
 1572KAXM    O111003   2.712   4.271   5.337
 1572KAXM    H111004   2.701   4.263   5.238
 1573KAXM    H811005   5.815   5.544   2.764
 1573KAXM    O211006   5.766   5.632   2.772
 1573KAXM    C311007   5.797   5.695   2.898
 1573KAXM    C211008   5.737   5.834   2.906
 1573KAXM    C111009   5.758   5.896   3.044
 1573KAXM    O111010   5.698   5.814   3.146
 1573KAXM    H111011   5.771   5.764   3.194
 1574KAXM    H811012   1.219   1.342   4.282
 1574KAXM    O211013   1.180   1.434   4.303
 1574KAXM    C311014   1.270   1.506   4.388
 1574KAXM    C211015   1.278   1.437   4.523
 1574KAXM    C111016   1.372   1.508   4.620
 1574KAXM    O111017   1.374   1.440   4.747
 1574KAXM    H111018   1.431   1.495   4.811
 1575KAXM    H811019   2.762   1.314   2.227
 1575KAXM    O211020   2.756   1.369   2.141
 1575KAXM    C311021   2.802   1.502   2.169
 1575KAXM    C211022   2.834   1.578   2.041
 1575KAXM    C111023   2.884   1.718   2.071
 1575KAXM    O111024   3.003   1.720   2.152
 1575KAXM    H111025   3.063   1.794   2.115
 1576KAXM    H811026   3.911   1.499   3.909
 1576KAXM    O211027   3.930   1.582   3.962
 1576KAXM    C311028   3.901   1.549   4.099
 1576KAXM    C211029   3.847   1.666   4.179
 1576KAXM    C111030   3.794   1.616   4.313
 1576KAXM    O111031   3.745   1.725   4.393
 1576KAXM    H111032   3.650   1.704   4.424
 1577KAXM    H811033   4.295   3.464   3.414
 1577KAXM    O211034   4.345   3.432   3.332
 1577KAXM    C311035   4.276   3.478   3.215
 1577KAXM    C211036   4.338   3.607   3.166
 1577KAXM    C111037   4.318   3.624   3.017
 1577KAXM    O111038   4.427   3.699   2.960
 1577KAXM    H111039   4.492   3.631   2.923
 1578KAXM    H811040   3.279   3.274   4.989
 1578KAXM    O211041   3.179   3.286   4.980
 1578KAXM    C311042   3.151   3.427   4.971
 1578KAXM    C211043   3.092   3.473   4.838
 1578KAXM    C111044   3.089   3.626   4.831
 1578KAXM    O111045   3.048   3.676   4.703
 1578KAXM    H111046   3.106   3.635   4.631
 1579KAXM    H811047   5.010   0.414   4.004
 1579KAXM    O211048   5.037   0.319   4.025
 1579KAXM    C311049   5.133   0.276   3.926
 1579KAXM    C211050   5.070   0.274   3.788
 1579KAXM    C111051   5.175   0.289   3.680
 1579KAXM    O111052   5.119   0.344   3.560
 1579KAXM    H111053   5.193   0.355   3.493
 1580KAXM    H811054   4.223   0.634   3.838
 1580KAXM    O211055   4.125   0.633   3.815
 1580KAXM    C311056   4.051   0.677   3.928
 1580KAXM    C211057   3.936   0.767   3.884
 1580KAXM    C111058   3.870   0.824   4.008
 1580KAXM    O111059   3.768   0.920   3.976
 1580KAXM    H111060   3.679   0.871   3.975
 1581KAXM    H811061   3.023   2.081   3.718
 1581KAXM    O211062   2.974   1.994   3.734
 1581KAXM    C311063   2.908   1.957   3.612
 1581KAXM    C211064   2.969   1.831   3.551
 1581KAXM    C111065   2.899   1.795   3.421
 1581KAXM    O111066   2.943   1.668   3.369
 1581KAXM    H111067   3.031   1.674   3.327
 1582KAXM    H811068   3.678   4.126   3.508
 1582KAXM    O211069   3.722   4.187   3.440
 1582KAXM    C311070   3.642   4.305   3.423
 1582KAXM    C211071   3.553   4.296   3.301
 1582KAXM    C111072   3.456   4.413   3.298
 1582KAXM    O111073   3.375   4.409   3.180
 1582KAXM    H111074   3.313   4.329   3.184
 1583KAXM    H811075   0.336   4.575   4.295
 1583KAXM    O211076   0.391   4.661   4.289
 1583KAXM    C311077   0.376   4.743   4.406
 1583KAXM    C211078   0.445   4.875   4.376
 1583KAXM    C111079   0.447   4.972   4.492
 1583KAXM    O111080   0.501   5.098   4.446
 1583KAXM    H111081   0.498   5.167   4.522
 1584KAXM    H811082   4.414   0.577   5.468
 1584KAXM    O211083   4.386   0.659   5.519
 1584KAXM    C311084   4.501   0.708   5.592
 1584KAXM    C211085   4.545   0.843   5.539
 1584KAXM    C111086   4.691   0.870   5.568
 1584KAXM    O111087   4.742   0.965   5.473
 1584KAXM    H111088   4.795   1.034   5.522
 1585KAXM    H811089   5.003   1.581   2.128
 1585KAXM    O211090   4.941   1.650   2.169
 1585KAXM    C311091   4.964   1.650   2.311
 1585KAXM    C211092   4.874   1.562   2.397
 1585KAXM    C111093   4.931   1.421   2.408
 1585KAXM    O111094   4.895   1.357   2.532
 1585KAXM    H111095   4.934   1.412   2.608
 1586KAXM    H811096   0.358   2.025   3.796
 1586KAXM    O211097   0.337   2.077   3.712
 1586KAXM    C311098   0.449   2.072   3.621
 1586KAXM    C211099   0.415   2.002   3.490
 1586KAXM    C111100   0.522   2.026   3.384
 1586KAXM    O111101   0.492   1.956   3.262
 1586KAXM    H111102   0.537   2.005   3.185
 1587KAXM    H811103   4.870   5.972   3.227
 1587KAXM    O211104   4.950   0.034   3.243
 1587KAXM    C311105   4.931   0.089   3.375
 1587KAXM    C211106   4.816   0.188   3.374
 1587KAXM    C111107   4.773   0.221   3.516
 1587KAXM    O111108   4.711   0.350   3.525
 1587KAXM    H111109   4.784   0.419   3.519
 1588KAXM    H811110   2.924   2.765   2.774
 1588KAXM    O211111   2.929   2.848   2.716
 1588KAXM    C311112   3.049   2.918   2.754
 1588KAXM    C211113   3.021   2.979   2.890
 1588KAXM    C111114   3.143   3.039   2.956
 1588KAXM    O111115   3.108   3.072   3.091
 1588KAXM    H111116   3.167   3.148   3.123
 1589KAXM    H811117   1.374   2.069   3.525
 1589KAXM    O211118   1.280   2.041   3.498
 1589KAXM    C311119   1.207   2.158   3.459
 1589KAXM    C211120   1.127   2.214   3.574
 1589KAXM    C111121   1.068   2.346   3.530
 1589KAXM    O111122   0.989   2.405   3.633
 1589KAXM    H111123   1.005   2.504   3.633
 1590KAXM    H811124   1.899   2.577   3.669
 1590KAXM    O211125   1.842   2.500   3.635
 1590KAXM    C311126   1.893   2.379   3.694
 1590KAXM    C211127   1.914   2.269   3.590
 1590KAXM    C111128   1.966   2.141   3.654
 1590KAXM    O111129   1.878   2.086   3.753
 1590KAXM    H111130   1.802   2.040   3.710
 1591KAXM    H811131   3.878   3.373   1.941
 1591KAXM    O211132   3.874   3.332   2.034
 1591KAXM    C311133   3.842   3.191   2.026
 1591KAXM    C211134   3.953   3.097   1.982
 1591KAXM    C111135   3.991   3.124   1.837
 1591KAXM    O111136   4.043   3.009   1.770
 1591KAXM    H111137   3.966   2.953   1.738
 1592KAXM    H811138   0.621   4.789   2.570
 1592KAXM    O211139   0.631   4.797   2.670
 1592KAXM    C311140   0.612   4.671   2.735
 1592KAXM    C211141   0.519   4.686   2.855
 1592KAXM    C111142   0.537   4.568   2.949
 1592KAXM    O111143   0.433   4.560   3.048
 1592KAXM    H111144   0.452   4.621   3.122
 1593KAXM    H811145   5.151   2.703   2.079
 1593KAXM    O211146   5.209   2.769   2.129
 1593KAXM    C311147   5.345   2.723   2.121
 1593KAXM    C211148   5.445   2.838   2.112
 1593KAXM    C111149   5.569   2.791   2.037
 1593KAXM    O111150   5.682   2.880   2.051
 1593KAXM    H111151   5.718   2.902   1.960
 1594KAXM    H811152   5.529   3.992   3.672
 1594KAXM    O211153   5.460   4.057   3.708
 1594KAXM    C311154   5.461   4.174   3.624
 1594KAXM    C211155   5.320   4.225   3.598
 1594KAXM    C111156   5.320   4.355   3.519
 1594KAXM    O111157   5.186   4.403   3.496
 1594KAXM    H111158   5.151   4.364   3.409
 1595KAXM    H811159   5.995   1.567   5.214
 1595KAXM    O211160   5.902   1.548   5.247
 1595KAXM    C311161   5.845   1.442   5.168
 1595KAXM    C211162   5.705   1.467   5.118
 1595KAXM    C111163   5.664   1.347   5.035
 1595KAXM    O111164   5.538   1.365   4.970
 1595KAXM    H111165   5.472   1.296   4.996
 1596KAXM    H811166   4.521   0.007   5.964
 1596KAXM    O211167   4.476   5.973   0.045
 1596KAXM    C311168   4.510   0.061   0.153
 1596KAXM    C211169   4.527   5.990   0.286
 1596KAXM    C111170   4.603   0.081   0.381
 1596KAXM    O111171   4.630   0.023   0.509
 1596KAXM    H111172   4.669   5.930   0.499
 1597KAXM    H811173   0.838   3.613   4.019
 1597KAXM    O211174   0.934   3.626   3.990
 1597KAXM    C311175   0.945   3.607   3.848
 1597KAXM    C211176   0.931   3.460   3.814
 1597KAXM    C111177   0.956   3.432   3.666
 1597KAXM    O111178   0.954   3.291   3.637
 1597KAXM    H111179   1.023   3.243   3.694
 1598KAXM    H811180   2.385   3.756   0.067
 1598KAXM    O211181   2.312   3.813   0.106
 1598KAXM    C311182   2.337   3.842   0.244
 1598KAXM    C211183   2.290   3.728   0.333
 1598KAXM    C111184   2.274   3.765   0.480
 1598KAXM    O111185   2.397   3.807   0.541
 1598KAXM    H111186   2.413   3.903   0.516
 1599KAXM    H811187   4.035   5.293   3.442
 1599KAXM    O211188   4.028   5.376   3.387
 1599KAXM    C311189   3.920   5.454   3.442
 1599KAXM    C211190   3.901   5.590   3.375
 1599KAXM    C111191   3.789   5.668   3.443
 1599KAXM    O111192   3.825   5.712   3.576
 1599KAXM    H111193   3.843   5.811   3.576
 1600KAXM    H811194   4.415   3.351   1.217
 1600KAXM    O211195   4.403   3.451   1.231
 1600KAXM    C311196   4.426   3.483   1.369
 1600KAXM    C211197   4.500   3.615   1.388
 1600KAXM    C111198   4.412   3.737   1.364
 1600KAXM    O111199   4.486   3.860   1.377
 1600KAXM    H111200   4.462   3.916   1.296
 1601KAXM    H811201   0.738   2.621   5.000
 1601KAXM    O211202   0.798   2.552   5.038
 1601KAXM    C311203   0.749   2.422   5.002
 1601KAXM    C211204   0.798   2.376   4.865
 1601KAXM    C111205   0.749   2.234   4.840
 1601KAXM    O111206   0.798   2.179   4.717
 1601KAXM    H111207   0.898   2.171   4.722
 1602KAXM    H811208   2.549   5.455   3.767
 1602KAXM    O211209   2.607   5.419   3.841
 1602KAXM    C311210   2.554   5.472   3.964
 1602KAXM    C211211   2.662   5.479   4.070
 1602KAXM    C111212   2.599   5.511   4.204
 1602KAXM    O111213   2.699   5.540   4.303
 1602KAXM    H111214   2.676   5.488   4.387
 1603KAXM    H811215   4.512   3.971   1.476
 1603KAXM    O211216   4.537   4.051   1.534
 1603KAXM    C311217   4.464   4.038   1.657
 1603KAXM    C211218   4.431   4.171   1.725
 1603KAXM    C111219   4.410   4.154   1.876
 1603KAXM    O111220   4.330   4.040   1.914
 1603KAXM    H111221   4.237   4.067   1.925
 1604KAXM    H811222   2.112   2.038   4.961
 1604KAXM    O211223   2.196   2.095   4.972
 1604KAXM    C311224   2.309   2.007   4.967
 1604KAXM    C211225   2.436   2.072   5.020
 1604KAXM    C111226   2.487   2.183   4.928
 1604KAXM    O111227   2.544   2.135   4.805
 1604KAXM    H111228   2.569   2.212   4.750
 1605KAXM    H811229   2.289   5.163   2.068
 1605KAXM    O211230   2.282   5.107   2.151
 1605KAXM    C311231   2.356   4.985   2.132
 1605KAXM    C211232   2.283   4.868   2.197
 1605KAXM    C111233   2.377   4.753   2.228
 1605KAXM    O111234   2.319   4.664   2.325
 1605KAXM    H111235   2.296   4.721   2.404
 1606KAXM    H811236   3.706   1.903   2.941
 1606KAXM    O211237   3.657   1.881   3.027
 1606KAXM    C311238   3.714   1.955   3.136
 1606KAXM    C211239   3.638   1.929   3.265
 1606KAXM    C111240   3.718   1.977   3.386
 1606KAXM    O111241   3.639   1.980   3.506
 1606KAXM    H111242   3.682   2.045   3.571
 1607KAXM    H811243   5.515   5.006   2.321
 1607KAXM    O211244   5.477   5.062   2.244
 1607KAXM    C311245   5.376   5.145   2.303
 1607KAXM    C211246   5.299   5.234   2.206
 1607KAXM    C111247   5.202   5.159   2.115
 1607KAXM    O111248   5.259   5.123   1.988
 1607KAXM    H111249   5.198   5.158   1.914
 1608KAXM    H811250   3.220   0.277   5.736
 1608KAXM    O211251   3.321   0.273   5.723
 1608KAXM    C311252   3.381   0.197   5.830
 1608KAXM    C211253   3.323   0.233   5.966
 1608KAXM    C111254   3.385   0.154   0.080
 1608KAXM    O111255   3.363   0.012   0.072
 1608KAXM    H111256   3.308   5.985   0.148
 1609KAXM    H811257   1.977   0.892   2.195
 1609KAXM    O211258   1.984   0.892   2.094
 1609KAXM    C311259   1.873   0.820   2.038
 1609KAXM    C211260   1.884   0.808   1.887
 1609KAXM    C111261   1.782   0.707   1.836
 1609KAXM    O111262   1.818   0.664   1.704
 1609KAXM    H111263   1.738   0.677   1.642
 1610KAXM    H811264   3.667   1.939   5.012
 1610KAXM    O211265   3.631   1.915   4.923
 1610KAXM    C311266   3.717   1.978   4.826
 1610KAXM    C211267   3.687   1.942   4.682
 1610KAXM    C111268   3.815   1.961   4.601
 1610KAXM    O111269   3.789   1.957   4.460
 1610KAXM    H111270   3.778   1.860   4.430
 1611KAXM    H811271   1.425   0.053   3.736
 1611KAXM    O211272   1.352   0.116   3.712
 1611KAXM    C311273   1.321   0.199   3.825
 1611KAXM    C211274   1.192   0.274   3.798
 1611KAXM    C111275   1.168   0.382   3.901
 1611KAXM    O111276   1.042   0.449   3.880
 1611KAXM    H111277   1.031   0.519   3.952
 1612KAXM    H811278   5.836   0.640   2.446
 1612KAXM    O211279   5.908   0.713   2.443
 1612KAXM    C311280   5.915   0.767   2.576
 1612KAXM    C211281   0.058   0.779   2.626
 1612KAXM    C111282   0.127   0.644   2.641
 1612KAXM    O111283   0.259   0.664   2.695
 1612KAXM    H111284   0.308   0.576   2.704
 1613KAXM    H811285   0.499   1.849   1.577
 1613KAXM    O211286   0.589   1.816   1.608
 1613KAXM    C311287   0.657   1.762   1.492
 1613KAXM    C211288   0.682   1.865   1.383
 1613KAXM    C111289   0.763   1.805   1.269
 1613KAXM    O111290   0.892   1.760   1.314
 1613KAXM    H111291   0.886   1.661   1.339
 1614KAXM    H811292   4.552   3.562   0.784
 1614KAXM    O211293   4.624   3.602   0.842
 1614KAXM    C311294   4.650   3.511   0.950
 1614KAXM    C211295   4.767   3.558   1.036
 1614KAXM    C111296   4.792   3.464   1.153
 1614KAXM    O111297   4.902   3.509   1.234
 1614KAXM    H111298   4.985   3.502   1.182
 1615KAXM    H811299   2.990   5.782   3.674
 1615KAXM    O211300   2.949   5.853   3.614
 1615KAXM    C311301   2.810   5.867   3.651
 1615KAXM    C211302   2.719   5.771   3.576
 1615KAXM    C111303   2.768   5.627   3.585
 1615KAXM    O111304   2.682   5.537   3.514
 1615KAXM    H111305   2.598   5.525   3.569
 1616KAXM    H811306   4.096   1.312   0.151
 1616KAXM    O211307   4.098   1.342   0.244
 1616KAXM    C311308   4.223   1.411   0.265
 1616KAXM    C211309   4.342   1.317   0.274
 1616KAXM    C111310   4.471   1.397   0.281
 1616KAXM    O111311   4.585   1.310   0.279
 1616KAXM    H111312   4.670   1.361   0.265
 1617KAXM    H811313   3.441   1.680   1.717
 1617KAXM    O211314   3.426   1.622   1.799
 1617KAXM    C311315   3.436   1.703   1.918
 1617KAXM    C211316   3.398   1.621   2.040
 1617KAXM    C111317   3.435   1.690   2.170
 1617KAXM    O111318   3.359   1.809   2.196
 1617KAXM    H111319   3.351   1.823   2.296
 1618KAXM    H811320   3.722   3.474   3.447
 1618KAXM    O211321   3.797   3.527   3.408
 1618KAXM    C311322   3.746   3.654   3.361
 1618KAXM    C211323   3.633   3.629   3.261
 1618KAXM    C111324   3.596   3.752   3.180
 1618KAXM    O111325   3.702   3.795   3.092
 1618KAXM    H111326   3.761   3.715   3.067
 1619KAXM    H811327   5.117   3.911   3.763
 1619KAXM    O211328   5.028   3.870   3.734
 1619KAXM    C311329   5.058   3.744   3.671
 1619KAXM    C211330   5.110   3.762   3.529
 1619KAXM    C111331   4.996   3.784   3.431
 1619KAXM    O111332   5.022   3.888   3.335
 1619KAXM    H111333   5.104   3.865   3.279
 1620KAXM    H811334   0.302   2.779   2.057
 1620KAXM    O211335   0.312   2.710   2.131
 1620KAXM    C311336   0.205   2.734   2.225
 1620KAXM    C211337   0.241   2.704   2.370
 1620KAXM    C111338   0.141   2.773   2.462
 1620KAXM    O111339   0.169   2.752   2.601
 1620KAXM    H111340   0.226   2.827   2.640
 1621KAXM    H811341   4.350   0.775   1.208
 1621KAXM    O211342   4.397   0.824   1.135
 1621KAXM    C311343   4.468   0.732   1.050
 1621KAXM    C211344   4.607   0.697   1.103
 1621KAXM    C111345   4.701   0.813   1.081
 1621KAXM    O111346   4.811   0.813   1.173
 1621KAXM    H111347   4.818   0.908   1.206
 1622KAXM    H811348   4.437   1.082   4.209
 1622KAXM    O211349   4.450   1.099   4.109
 1622KAXM    C311350   4.319   1.103   4.048
 1622KAXM    C211351   4.317   1.041   3.909
 1622KAXM    C111352   4.180   1.058   3.845
 1622KAXM    O111353   4.173   0.998   3.714
 1622KAXM    H111354   4.252   1.030   3.658
 1623KAXM    H811355   4.325   0.070   2.187
 1623KAXM    O211356   4.294   0.061   2.091
 1623KAXM    C311357   4.232   0.184   2.051
 1623KAXM    C211358   4.222   0.189   1.900
 1623KAXM    C111359   4.157   0.319   1.854
 1623KAXM    O111360   4.164   0.329   1.711
 1623KAXM    H111361   4.248   0.376   1.690
 1624KAXM    H811362   1.575   0.570   3.296
 1624KAXM    O211363   1.483   0.585   3.255
 1624KAXM    C311364   1.400   0.644   3.357
 1624KAXM    C211365   1.301   0.743   3.298
 1624KAXM    C111366   1.209   0.797   3.406
 1624KAXM    O111367   1.113   0.888   3.350
 1624KAXM    H111368   1.021   0.856   3.375
 1625KAXM    H811369   2.418   4.885   1.181
 1625KAXM    O211370   2.413   4.953   1.257
 1625KAXM    C311371   2.544   4.994   1.298
 1625KAXM    C211372   2.565   5.142   1.270
 1625KAXM    C111373   2.579   5.165   1.120
 1625KAXM    O111374   2.600   5.302   1.083
 1625KAXM    H111375   2.541   5.323   1.005
 1626KAXM    H811376   1.725   2.129   5.973
 1626KAXM    O211377   1.655   2.190   5.935
 1626KAXM    C311378   1.559   2.114   5.858
 1626KAXM    C211379   1.448   2.059   5.946
 1626KAXM    C111380   1.326   2.021   5.862
 1626KAXM    O111381   1.254   2.134   5.810
 1626KAXM    H111382   1.163   2.101   5.777
 1627KAXM    H811383   1.553   3.330   3.995
 1627KAXM    O211384   1.602   3.375   3.920
 1627KAXM    C311385   1.740   3.389   3.959
 1627KAXM    C211386   1.822   3.447   3.846
 1627KAXM    C111387   1.954   3.504   3.897
 1627KAXM    O111388   2.029   3.570   3.793
 1627KAXM    H111389   1.967   3.631   3.741
 1628KAXM    H811390   0.155   4.211   0.260
 1628KAXM    O211391   0.135   4.278   0.187
 1628KAXM    C311392   0.188   4.229   0.063
 1628KAXM    C211393   0.104   4.270   5.943
 1628KAXM    C111394   0.167   4.213   5.816
 1628KAXM    O111395   0.087   4.226   5.697
 1628KAXM    H111396   0.137   4.178   5.622
 1629KAXM    H811397   2.006   3.969   1.173
 1629KAXM    O211398   1.966   4.060   1.161
 1629KAXM    C311399   1.942   4.086   1.022
 1629KAXM    C211400   1.882   4.223   0.994
 1629KAXM    C111401   1.866   4.237   0.843
 1629KAXM    O111402   1.795   4.355   0.801
 1629KAXM    H111403   1.861   4.432   0.797
 1630KAXM    H811404   1.309   2.515   0.808
 1630KAXM    O211405   1.264   2.441   0.860
 1630KAXM    C311406   1.324   2.433   0.990
 1630KAXM    C211407   1.240   2.504   1.095
 1630KAXM    C111408   1.330   2.560   1.204
 1630KAXM    O111409   1.255   2.618   1.313
 1630KAXM    H111410   1.318   2.676   1.368
 1631KAXM    H811411   5.441   4.121   2.229
 1631KAXM    O211412   5.539   4.141   2.245
 1631KAXM    C311413   5.608   4.140   2.119
 1631KAXM    C211414   5.757   4.137   2.143
 1631KAXM    C111415   5.835   4.104   2.017
 1631KAXM    O111416   5.967   4.060   2.053
 1631KAXM    H111417   0.028   4.085   1.979
 1632KAXM    H811418   2.545   0.656   0.979
 1632KAXM    O211419   2.479   0.730   0.994
 1632KAXM    C311420   2.384   0.683   1.092
 1632KAXM    C211421   2.454   0.660   1.225
 1632KAXM    C111422   2.357   0.599   1.325
 1632KAXM    O111423   2.410   0.598   1.459
 1632KAXM    H111424   2.335   0.572   1.521
 1633KAXM    H811425   1.639   4.340   3.589
 1633KAXM    O211426   1.699   4.268   3.553
 1633KAXM    C311427   1.769   4.208   3.664
 1633KAXM    C211428   1.722   4.065   3.683
 1633KAXM    C111429   1.786   4.002   3.805
 1633KAXM    O111430   1.746   3.865   3.820
 1633KAXM    H111431   1.696   3.856   3.908
 1634KAXM    H811432   0.569   5.608   2.159
 1634KAXM    O211433   0.598   5.704   2.140
 1634KAXM    C311434   0.478   5.782   2.119
 1634KAXM    C211435   0.465   5.844   1.979
 1634KAXM    C111436   0.427   5.743   1.871
 1634KAXM    O111437   0.395   5.807   1.746
 1634KAXM    H111438   0.346   5.742   1.686
 1635KAXM    H811439   4.713   1.570   0.950
 1635KAXM    O211440   4.758   1.640   1.003
 1635KAXM    C311441   4.761   1.761   0.926
 1635KAXM    C211442   4.902   1.818   0.920
 1635KAXM    C111443   4.915   1.930   0.818
 1635KAXM    O111444   4.886   1.884   0.684
 1635KAXM    H111445   4.804   1.932   0.655
 1636KAXM    H811446   0.314   0.885   3.943
 1636KAXM    O211447   0.409   0.912   3.916
 1636KAXM    C311448   0.492   0.795   3.922
 1636KAXM    C211449   0.622   0.820   3.847
 1636KAXM    C111450   0.701   0.692   3.838
 1636KAXM    O111451   0.810   0.709   3.748
 1636KAXM    H111452   0.842   0.616   3.720
 1637KAXM    H811453   1.682   4.129   4.486
 1637KAXM    O211454   1.613   4.088   4.546
 1637KAXM    C311455   1.483   4.126   4.499
 1637KAXM    C211456   1.437   4.038   4.383
 1637KAXM    C111457   1.300   4.086   4.335
 1637KAXM    O111458   1.251   4.009   4.224
 1637KAXM    H111459   1.150   4.020   4.218
 1638KAXM    H811460   1.531   5.771   0.686
 1638KAXM    O211461   1.512   5.855   0.740
 1638KAXM    C311462   1.546   5.834   0.878
 1638KAXM    C211463   1.464   5.722   0.940
 1638KAXM    C111464   1.493   5.716   1.090
 1638KAXM    O111465   1.447   5.592   1.146
 1638KAXM    H111466   1.427   5.608   1.241
 1639KAXM    H811467   0.547   4.123   1.489
 1639KAXM    O211468   0.483   4.201   1.491
 1639KAXM    C311469   0.501   4.277   1.612
 1639KAXM    C211470   0.524   4.190   1.734
 1639KAXM    C111471   0.402   4.105   1.767
 1639KAXM    O111472   0.440   3.996   1.854
 1639KAXM    H111473   0.463   4.034   1.943
 1640KAXM    H811474   0.626   4.865   5.816
 1640KAXM    O211475   0.662   4.897   5.730
 1640KAXM    C311476   0.588   4.829   5.627
 1640KAXM    C211477   0.647   4.842   5.487
 1640KAXM    C111478   0.563   4.755   5.396
 1640KAXM    O111479   0.595   4.759   5.256
 1640KAXM    H111480   0.540   4.690   5.213
 1641KAXM    H811481   0.520   3.083   5.679
 1641KAXM    O211482   0.531   3.184   5.676
 1641KAXM    C311483   0.410   3.240   5.727
 1641KAXM    C211484   0.379   3.383   5.687
 1641KAXM    C111485   0.242   3.419   5.742
 1641KAXM    O111486   0.135   3.338   5.687
 1641KAXM    H111487   0.136   3.247   5.729
 1642KAXM    H811488   1.297   1.219   0.832
 1642KAXM    O211489   1.296   1.274   0.917
 1642KAXM    C311490   1.419   1.348   0.924
 1642KAXM    C211491   1.421   1.471   0.834
 1642KAXM    C111492   1.550   1.547   0.857
 1642KAXM    O111493   1.550   1.673   0.788
 1642KAXM    H111494   1.601   1.742   0.844
 1643KAXM    H811495   0.297   0.316   0.933
 1643KAXM    O211496   0.282   0.415   0.924
 1643KAXM    C311497   0.208   0.448   0.806
 1643KAXM    C211498   0.254   0.364   0.687
 1643KAXM    C111499   0.190   0.409   0.557
 1643KAXM    O111500   0.258   0.523   0.503
 1643KAXM    H111501   0.228   0.607   0.550
 1644KAXM    H811502   5.861   5.609   1.734
 1644KAXM    O211503   5.768   5.581   1.712
 1644KAXM    C311504   5.703   5.526   1.827
 1644KAXM    C211505   5.593   5.430   1.784
 1644KAXM    C111506   5.524   5.367   1.903
 1644KAXM    O111507   5.438   5.263   1.854
 1644KAXM    H111508   5.385   5.218   1.925
 1645KAXM    H811509   1.695   5.069   3.563
 1645KAXM    O211510   1.685   5.001   3.489
 1645KAXM    C311511   1.753   5.048   3.373
 1645KAXM    C211512   1.709   4.971   3.249
 1645KAXM    C111513   1.750   5.045   3.122
 1645KAXM    O111514   1.670   5.163   3.101
 1645KAXM    H111515   1.696   5.237   3.166
 1646KAXM    H811516   4.141   3.525   2.580
 1646KAXM    O211517   4.053   3.478   2.590
 1646KAXM    C311518   4.030   3.392   2.479
 1646KAXM    C211519   3.920   3.294   2.517
 1646KAXM    C111520   3.887   3.203   2.401
 1646KAXM    O111521   3.767   3.126   2.427
 1646KAXM    H111522   3.695   3.159   2.362
 1647KAXM    H811523   5.699   2.579   5.253
 1647KAXM    O211524   5.606   2.613   5.243
 1647KAXM    C311525   5.605   2.757   5.241
 1647KAXM    C211526   5.585   2.815   5.380
 1647KAXM    C111527   5.560   2.965   5.372
 1647KAXM    O111528   5.434   2.994   5.309
 1647KAXM    H111529   5.420   3.094   5.309
 1648KAXM    H811530   5.816   1.302   4.310
 1648KAXM    O211531   5.906   1.348   4.299
 1648KAXM    C311532   5.884   1.483   4.254
 1648KAXM    C211533   5.857   1.491   4.104
 1648KAXM    C111534   5.825   1.634   4.058
 1648KAXM    O111535   5.794   1.636   3.917
 1648KAXM    H111536   5.747   1.723   3.893
 1649KAXM    H811537   0.848   6.000   0.272
 1649KAXM    O211538   0.941   5.998   0.312
 1649KAXM    C311539   0.975   0.122   0.379
 1649KAXM    C211540   0.875   0.235   0.359
 1649KAXM    C111541   0.873   0.281   0.215
 1649KAXM    O111542   0.743   0.333   0.183
 1649KAXM    H111543   0.743   0.369   0.090
 1650KAXM    H811544   4.038   3.142   5.851
 1650KAXM    O211545   4.065   3.140   5.754
 1650KAXM    C311546   4.002   3.030   5.687
 1650KAXM    C211547   3.985   3.053   5.537
 1650KAXM    C111548   4.115   3.051   5.457
 1650KAXM    O111549   4.089   3.059   5.316
 1650KAXM    H111550   4.145   2.994   5.265
 1651KAXM    H811551   5.459   5.290   0.734
 1651KAXM    O211552   5.424   5.247   0.651
 1651KAXM    C311553   5.500   5.127   0.629
 1651KAXM    C211554   5.459   5.059   0.499
 1651KAXM    C111555   5.554   4.948   0.460
 1651KAXM    O111556   5.516   4.897   0.331
 1651KAXM    H111557   5.600   4.880   0.279
 1652KAXM    H811558   0.855   2.324   3.649
 1652KAXM    O211559   0.762   2.285   3.650
 1652KAXM    C311560   0.708   2.289   3.783
 1652KAXM    C211561   0.726   2.428   3.842
 1652KAXM    C111562   0.664   2.441   3.980
 1652KAXM    O111563   0.735   2.542   4.055
 1652KAXM    H111564   0.809   2.495   4.104
 1653KAXM    H811565   0.157   5.709   4.534
 1653KAXM    O211566   0.241   5.654   4.523
 1653KAXM    C311567   0.259   5.580   4.646
 1653KAXM    C211568   0.290   5.673   4.763
 1653KAXM    C111569   0.316   5.595   4.891
 1653KAXM    O111570   0.355   5.678   5.001
 1653KAXM    H111571   0.383   5.620   5.080
 1654KAXM    H811572   5.244   1.964   5.628
 1654KAXM    O211573   5.164   1.979   5.566
 1654KAXM    C311574   5.186   2.106   5.500
 1654KAXM    C211575   5.222   2.096   5.353
 1654KAXM    C111576   5.108   2.041   5.269
 1654KAXM    O111577   5.135   2.065   5.129
 1654KAXM    H111578   5.124   2.164   5.111
 1655KAXM    H811579   0.179   2.127   2.072
 1655KAXM    O211580   0.133   2.198   2.128
 1655KAXM    C311581   0.229   2.242   2.226
 1655KAXM    C211582   0.214   2.161   2.354
 1655KAXM    C111583   0.319   2.198   2.456
 1655KAXM    O111584   0.308   2.119   2.575
 1655KAXM    H111585   0.349   2.028   2.561
 1656KAXM    H811586   1.306   3.314   0.345
 1656KAXM    O211587   1.224   3.372   0.342
 1656KAXM    C311588   1.212   3.432   0.472
 1656KAXM    C211589   1.080   3.395   0.538
 1656KAXM    C111590   1.080   3.421   0.688
 1656KAXM    O111591   1.175   3.339   0.758
 1656KAXM    H111592   1.216   3.395   0.831
 1657KAXM    H811593   4.813   2.810   5.085
 1657KAXM    O211594   4.786   2.806   4.986
 1657KAXM    C311595   4.767   2.941   4.940
 1657KAXM    C211596   4.891   3.008   4.883
 1657KAXM    C111597   4.859   3.154   4.855
 1657KAXM    O111598   4.960   3.217   4.774
 1657KAXM    H111599   4.961   3.315   4.796
 1658KAXM    H811600   4.375   4.916   1.251
 1658KAXM    O211601   4.450   4.913   1.184
 1658KAXM    C311602   4.439   4.795   1.103
 1658KAXM    C211603   4.381   4.825   0.966
 1658KAXM    C111604   4.368   4.695   0.889
 1658KAXM    O111605   4.347   4.710   0.747
 1658KAXM    H111606   4.419   4.655   0.700
 1659KAXM    H811607   0.027   3.527   0.299
 1659KAXM    O211608   0.055   3.454   0.365
 1659KAXM    C311609   0.011   3.488   0.497
 1659KAXM    C211610   0.062   3.386   0.597
 1659KAXM    C111611   0.003   3.410   0.735
 1659KAXM    O111612   0.061   3.319   0.830
 1659KAXM    H111613   5.994   3.248   0.858
 1660KAXM    H811614   1.460   2.302   3.069
 1660KAXM    O211615   1.412   2.338   3.152
 1660KAXM    C311616   1.359   2.467   3.117
 1660KAXM    C211617   1.470   2.571   3.110
 1660KAXM    C111618   1.417   2.707   3.067
 1660KAXM    O111619   1.509   2.810   3.108
 1660KAXM    H111620   1.516   2.879   3.034
 1661KAXM    H811621   5.991   3.052   3.940
 1661KAXM    O211622   5.979   3.150   3.965
 1661KAXM    C311623   5.863   3.162   4.048
 1661KAXM    C211624   5.891   3.108   4.187
 1661KAXM    C111625   5.771   3.130   4.278
 1661KAXM    O111626   5.813   3.145   4.414
 1661KAXM    H111627   5.875   3.222   4.423
 1662KAXM    H811628   2.695   3.106   3.621
 1662KAXM    O211629   2.725   3.012   3.601
 1662KAXM    C311630   2.730   2.993   3.458
 1662KAXM    C211631   2.823   3.094   3.393
 1662KAXM    C111632   2.823   3.076   3.241
 1662KAXM    O111633   2.912   2.971   3.200
 1662KAXM    H111634   2.993   3.015   3.156
 1663KAXM    H811635   2.482   3.500   3.540
 1663KAXM    O211636   2.559   3.438   3.517
 1663KAXM    C311637   2.573   3.439   3.374
 1663KAXM    C211638   2.718   3.450   3.331
 1663KAXM    C111639   2.732   3.462   3.180
 1663KAXM    O111640   2.681   3.587   3.133
 1663KAXM    H111641   2.749   3.659   3.147
 1664KAXM    H811642   3.418   5.540   4.885
 1664KAXM    O211643   3.352   5.503   4.953
 1664KAXM    C311644   3.279   5.391   4.901
 1664KAXM    C211645   3.367   5.292   4.825
 1664KAXM    C111646   3.475   5.230   4.914
 1664KAXM    O111647   3.568   5.148   4.840
 1664KAXM    H111648   3.520   5.064   4.810
 1665KAXM    H811649   3.147   0.170   0.762
 1665KAXM    O211650   3.232   0.143   0.806
 1665KAXM    C311651   3.329   0.107   0.707
 1665KAXM    C211652   3.414   0.226   0.663
 1665KAXM    C111653   3.500   0.183   0.544
 1665KAXM    O111654   3.595   0.283   0.505
 1665KAXM    H111655   3.683   0.263   0.551
 1666KAXM    H811656   1.642   0.863   2.690
 1666KAXM    O211657   1.643   0.780   2.747
 1666KAXM    C311658   1.512   0.768   2.806
 1666KAXM    C211659   1.514   0.662   2.916
 1666KAXM    C111660   1.372   0.622   2.952
 1666KAXM    O111661   1.371   0.512   3.046
 1666KAXM    H111662   1.420   0.542   3.131
 1667KAXM    H811663   1.827   5.861   4.511
 1667KAXM    O211664   1.763   5.802   4.460
 1667KAXM    C311665   1.832   5.732   4.354
 1667KAXM    C211666   1.977   5.777   4.347
 1667KAXM    C111667   2.051   5.723   4.226
 1667KAXM    O111668   2.184   5.776   4.230
 1667KAXM    H111669   2.231   5.728   4.305
 1668KAXM    H811670   2.325   0.822   2.118
 1668KAXM    O211671   2.352   0.786   2.207
 1668KAXM    C311672   2.329   0.890   2.303
 1668KAXM    C211673   2.423   0.874   2.422
 1668KAXM    C111674   2.381   0.970   2.532
 1668KAXM    O111675   2.465   0.963   2.648
 1668KAXM    H111676   2.432   1.029   2.716
 1669KAXM    H811677   0.848   5.801   3.724
 1669KAXM    O211678   0.875   5.704   3.729
 1669KAXM    C311679   0.764   5.631   3.786
 1669KAXM    C211680   0.651   5.616   3.685
 1669KAXM    C111681   0.522   5.559   3.744
 1669KAXM    O111682   0.429   5.526   3.639
 1669KAXM    H111683   0.355   5.468   3.674
 1670KAXM    H811684   4.989   3.541   5.258
 1670KAXM    O211685   5.086   3.567   5.273
 1670KAXM    C311686   5.097   3.710   5.256
 1670KAXM    C211687   5.234   3.767   5.287
 1670KAXM    C111688   5.226   3.913   5.246
 1670KAXM    O111689   5.341   3.990   5.283
 1670KAXM    H111690   5.313   4.087   5.283
 1671KAXM    H811691   3.966   1.205   2.761
 1671KAXM    O211692   3.865   1.187   2.760
 1671KAXM    C311693   3.824   1.192   2.622
 1671KAXM    C211694   3.710   1.097   2.594
 1671KAXM    C111695   3.683   1.088   2.445
 1671KAXM    O111696   3.601   0.974   2.414
 1671KAXM    H111697   3.655   0.890   2.427
 1672KAXM    H811698   2.060   0.698   5.625
 1672KAXM    O211699   1.960   0.688   5.632
 1672KAXM    C311700   1.920   0.568   5.564
 1672KAXM    C211701   1.902   0.591   5.415
 1672KAXM    C111702   1.851   0.466   5.345
 1672KAXM    O111703   1.859   0.483   5.203
 1672KAXM    H111704   1.955   0.483   5.176
 1673KAXM    H811705   4.946   5.352   0.974
 1673KAXM    O211706   4.971   5.402   0.894
 1673KAXM    C311707   4.975   5.309   0.785
 1673KAXM    C211708   5.099   5.329   0.700
 1673KAXM    C111709   5.099   5.238   0.578
 1673KAXM    O111710   5.217   5.260   0.499
 1673KAXM    H111711   5.297   5.257   0.560
 1674KAXM    H811712   4.941   0.623   1.916
 1674KAXM    O211713   4.850   0.661   1.901
 1674KAXM    C311714   4.764   0.564   1.841
 1674KAXM    C211715   4.627   0.622   1.814
 1674KAXM    C111716   4.538   0.521   1.742
 1674KAXM    O111717   4.414   0.581   1.706
 1674KAXM    H111718   4.431   0.648   1.631
 1675KAXM    H811719   4.051   4.179   4.192
 1675KAXM    O211720   4.073   4.154   4.096
 1675KAXM    C311721   4.150   4.260   4.036
 1675KAXM    C211722   4.060   4.373   3.986
 1675KAXM    C111723   4.144   4.484   3.926
 1675KAXM    O111724   4.063   4.593   3.880
 1675KAXM    H111725   4.124   4.662   3.836
 1676KAXM    H811726   3.873   2.049   0.525
 1676KAXM    O211727   3.945   2.073   0.592
 1676KAXM    C311728   3.887   2.083   0.723
 1676KAXM    C211729   3.930   1.965   0.811
 1676KAXM    C111730   3.892   1.985   0.957
 1676KAXM    O111731   3.965   2.093   1.020
 1676KAXM    H111732   3.972   2.073   1.120
 1677KAXM    H811733   2.205   1.817   2.721
 1677KAXM    O211734   2.225   1.720   2.724
 1677KAXM    C311735   2.268   1.681   2.592
 1677KAXM    C211736   2.161   1.669   2.485
 1677KAXM    C111737   2.227   1.632   2.352
 1677KAXM    O111738   2.134   1.605   2.245
 1677KAXM    H111739   2.189   1.594   2.160
 1678KAXM    H811740   1.662   4.005   1.987
 1678KAXM    O211741   1.636   3.910   2.012
 1678KAXM    C311742   1.651   3.895   2.155
 1678KAXM    C211743   1.584   3.769   2.210
 1678KAXM    C111744   1.602   3.750   2.361
 1678KAXM    O111745   1.498   3.809   2.442
 1678KAXM    H111746   1.537   3.842   2.528
 1679KAXM    H811747   0.972   1.659   3.239
 1679KAXM    O211748   0.974   1.705   3.330
 1679KAXM    C311749   0.846   1.766   3.352
 1679KAXM    C211750   0.809   1.782   3.499
 1679KAXM    C111751   0.892   1.885   3.574
 1679KAXM    O111752   0.843   1.907   3.707
 1679KAXM    H111753   0.821   1.819   3.752
 1680KAXM    H811754   5.222   4.300   1.135
 1680KAXM    O211755   5.138   4.251   1.162
 1680KAXM    C311756   5.114   4.273   1.302
 1680KAXM    C211757   5.105   4.147   1.386
 1680KAXM    C111758   5.240   4.080   1.409
 1680KAXM    O111759   5.249   4.028   1.544
 1680KAXM    H111760   5.256   4.107   1.606
 1681KAXM    H811761   2.187   4.007   1.480
 1681KAXM    O211762   2.228   4.090   1.521
 1681KAXM    C311763   2.138   4.201   1.507
 1681KAXM    C211764   2.077   4.240   1.641
 1681KAXM    C111765   1.971   4.140   1.685
 1681KAXM    O111766   1.929   4.160   1.820
 1681KAXM    H111767   1.987   4.103   1.881
 1682KAXM    H811768   2.805   2.443   5.862
 1682KAXM    O211769   2.746   2.422   5.782
 1682KAXM    C311770   2.671   2.301   5.806
 1682KAXM    C211771   2.757   2.178   5.782
 1682KAXM    C111772   2.676   2.050   5.788
 1682KAXM    O111773   2.753   1.942   5.735
 1682KAXM    H111774   2.693   1.876   5.694
 1683KAXM    H811775   2.405   0.132   4.499
 1683KAXM    O211776   2.342   0.155   4.576
 1683KAXM    C311777   2.413   0.244   4.663
 1683KAXM    C211778   2.397   0.208   4.809
 1683KAXM    C111779   2.455   0.318   4.896
 1683KAXM    O111780   2.423   0.297   5.034
 1683KAXM    H111781   2.322   0.280   5.042
 1684KAXM    H811782   5.875   0.278   0.262
 1684KAXM    O211783   5.810   0.345   0.301
 1684KAXM    C311784   5.728   0.279   0.399
 1684KAXM    C211785   5.764   0.328   0.539
 1684KAXM    C111786   5.677   0.259   0.641
 1684KAXM    O111787   5.690   0.324   0.768
 1684KAXM    H111788   5.615   0.297   0.826
 1685KAXM    H811789   4.609   1.254   4.523
 1685KAXM    O211790   4.606   1.159   4.495
 1685KAXM    C311791   4.659   1.079   4.602
 1685KAXM    C211792   4.549   1.044   4.700
 1685KAXM    C111793   4.604   0.970   4.821
 1685KAXM    O111794   4.502   0.881   4.872
 1685KAXM    H111795   4.516   0.790   4.830
 1686KAXM    H811796   0.193   1.169   3.190
 1686KAXM    O211797   0.173   1.239   3.120
 1686KAXM    C311798   0.117   1.168   3.007
 1686KAXM    C211799   0.072   1.256   2.891
 1686KAXM    C111800   0.008   1.170   2.783
 1686KAXM    O111801   5.967   1.248   2.669
 1686KAXM    H111802   5.875   1.218   2.638
 1687KAXM    H811803   5.766   5.028   5.007
 1687KAXM    O211804   5.714   5.103   4.962
 1687KAXM    C311805   5.639   5.049   4.852
 1687KAXM    C211806   5.727   5.002   4.737
 1687KAXM    C111807   5.637   4.946   4.628
 1687KAXM    O111808   5.708   4.905   4.510
 1687KAXM    H111809   5.641   4.898   4.435
 1688KAXM    H811810   5.798   2.756   3.852
 1688KAXM    O211811   5.838   2.719   3.938
 1688KAXM    C311812   5.742   2.744   4.043
 1688KAXM    C211813   5.632   2.640   4.051
 1688KAXM    C111814   5.520   2.688   4.143
 1688KAXM    O111815   5.410   2.596   4.141
 1688KAXM    H111816   5.323   2.645   4.161
 1689KAXM    H811817   0.838   3.981   0.215
 1689KAXM    O211818   0.918   4.036   0.243
 1689KAXM    C311819   0.954   4.127   0.138
 1689KAXM    C211820   1.060   4.068   0.046
 1689KAXM    C111821   1.087   4.162   5.930
 1689KAXM    O111822   1.186   4.108   5.841
 1689KAXM    H111823   1.162   4.014   5.815
 1690KAXM    H811824   5.515   3.120   2.956
 1690KAXM    O211825   5.536   3.218   2.976
 1690KAXM    C311826   5.677   3.229   3.000
 1690KAXM    C211827   5.712   3.365   3.057
 1690KAXM    C111828   5.670   3.470   2.956
 1690KAXM    O111829   5.653   3.602   3.010
 1690KAXM    H111830   5.641   3.664   2.931
 1691KAXM    H811831   0.830   3.613   5.085
 1691KAXM    O211832   0.780   3.526   5.099
 1691KAXM    C311833   0.876   3.419   5.088
 1691KAXM    C211834   0.871   3.316   5.200
 1691KAXM    C111835   0.896   3.374   5.338
 1691KAXM    O111836   0.900   3.270   5.437
 1691KAXM    H111837   0.849   3.189   5.409
 1692KAXM    H811838   0.981   1.246   5.144
 1692KAXM    O211839   1.043   1.317   5.109
 1692KAXM    C311840   1.048   1.428   5.199
 1692KAXM    C211841   1.070   1.557   5.122
 1692KAXM    C111842   1.075   1.676   5.216
 1692KAXM    O111843   1.062   1.801   5.145
 1692KAXM    H111844   1.106   1.874   5.199
 1693KAXM    H811845   4.513   1.950   0.608
 1693KAXM    O211846   4.416   1.924   0.600
 1693KAXM    C311847   4.339   2.035   0.649
 1693KAXM    C211848   4.332   2.038   0.801
 1693KAXM    C111849   4.260   2.162   0.851
 1693KAXM    O111850   4.215   2.143   0.987
 1693KAXM    H111851   4.115   2.136   0.988
 1694KAXM    H811852   4.532   3.308   5.953
 1694KAXM    O211853   4.533   3.301   5.852
 1694KAXM    C311854   4.667   3.319   5.804
 1694KAXM    C211855   4.663   3.346   5.655
 1694KAXM    C111856   4.798   3.394   5.603
 1694KAXM    O111857   4.784   3.442   5.468
 1694KAXM    H111858   4.737   3.532   5.470
 1695KAXM    H811859   0.392   2.503   1.313
 1695KAXM    O211860   0.372   2.470   1.218
 1695KAXM    C311861   0.418   2.571   1.126
 1695KAXM    C211862   0.447   2.508   0.991
 1695KAXM    C111863   0.507   2.605   0.890
 1695KAXM    O111864   0.568   2.530   0.784
 1695KAXM    H111865   0.658   2.498   0.818
 1696KAXM    H811866   1.271   1.206   3.460
 1696KAXM    O211867   1.329   1.256   3.526
 1696KAXM    C311868   1.441   1.306   3.452
 1696KAXM    C211869   1.568   1.328   3.533
 1696KAXM    C111870   1.681   1.342   3.432
 1696KAXM    O111871   1.809   1.379   3.487
 1696KAXM    H111872   1.854   1.300   3.533
 1697KAXM    H811873   1.143   4.783   2.268
 1697KAXM    O211874   1.075   4.743   2.332
 1697KAXM    C311875   0.945   4.747   2.271
 1697KAXM    C211876   0.839   4.774   2.377
 1697KAXM    C111877   0.700   4.749   2.322
 1697KAXM    O111878   0.596   4.784   2.416
 1697KAXM    H111879   0.520   4.716   2.411
 1698KAXM    H811880   5.743   4.181   5.796
 1698KAXM    O211881   5.668   4.231   5.840
 1698KAXM    C311882   5.684   4.216   5.983
 1698KAXM    C211883   5.673   4.070   0.026
 1698KAXM    C111884   5.659   4.057   0.177
 1698KAXM    O111885   5.529   4.097   0.222
 1698KAXM    H111886   5.525   4.092   0.323
 1699KAXM    H811887   0.711   2.688   4.044
 1699KAXM    O211888   0.696   2.789   4.050
 1699KAXM    C311889   0.787   2.854   3.958
 1699KAXM    C211890   0.719   2.965   3.879
 1699KAXM    C111891   0.816   3.034   3.783
 1699KAXM    O111892   0.757   3.146   3.714
 1699KAXM    H111893   0.830   3.204   3.677
 1700KAXM    H811894   5.453   5.689   2.850
 1700KAXM    O211895   5.363   5.729   2.843
 1700KAXM    C311896   5.354   5.833   2.943
 1700KAXM    C211897   5.220   5.906   2.939
 1700KAXM    C111898   5.212   0.018   3.042
 1700KAXM    O111899   5.084   0.083   3.037
 1700KAXM    H111900   5.035   0.065   3.124
 1701KAXM    H811901   5.141   0.160   5.187
 1701KAXM    O211902   5.198   0.242   5.209
 1701KAXM    C311903   5.285   0.213   5.319
 1701KAXM    C211904   5.235   0.266   5.454
 1701KAXM    C111905   5.099   0.207   5.491
 1701KAXM    O111906   5.063   0.237   5.627
 1701KAXM    H111907   4.977   0.193   5.647
 1702KAXM    H811908   2.532   2.625   0.525
 1702KAXM    O211909   2.479   2.692   0.577
 1702KAXM    C311910   2.548   2.716   0.701
 1702KAXM    C211911   2.468   2.789   0.808
 1702KAXM    C111912   2.558   2.808   0.929
 1702KAXM    O111913   2.488   2.858   1.044
 1702KAXM    H111914   2.433   2.784   1.086
 1703KAXM    H811915   3.053   0.554   5.351
 1703KAXM    O211916   2.988   0.486   5.317
 1703KAXM    C311917   3.017   0.444   5.182
 1703KAXM    C211918   2.925   0.328   5.146
 1703KAXM    C111919   2.946   0.272   5.006
 1703KAXM    O111920   2.904   0.361   4.902
 1703KAXM    H111921   2.863   0.309   4.828
 1704KAXM    H811922   2.512   5.844   0.478
 1704KAXM    O211923   2.549   5.919   0.424
 1704KAXM    C311924   2.475   5.930   0.300
 1704KAXM    C211925   2.529   5.841   0.190
 1704KAXM    C111926   2.429   5.842   0.075
 1704KAXM    O111927   2.436   5.720   5.999
 1704KAXM    H111928   2.401   5.646   0.059
 1705KAXM    H811929   5.199   0.856   5.040
 1705KAXM    O211930   5.215   0.758   5.062
 1705KAXM    C311931   5.349   0.742   5.115
 1705KAXM    C211932   5.356   0.779   5.262
 1705KAXM    C111933   5.337   0.928   5.277
 1705KAXM    O111934   5.294   0.972   5.407
 1705KAXM    H111935   5.194   0.984   5.404
 1706KAXM    H811936   0.888   3.697   2.192
 1706KAXM    O211937   0.807   3.651   2.156
 1706KAXM    C311938   0.776   3.704   2.026
 1706KAXM    C211939   0.864   3.636   1.923
 1706KAXM    C111940   0.838   3.687   1.783
 1706KAXM    O111941   0.929   3.621   1.694
 1706KAXM    H111942   0.923   3.661   1.601
 1707KAXM    H811943   0.265   5.204   5.349
 1707KAXM    O211944   0.355   5.156   5.343
 1707KAXM    C311945   0.331   5.015   5.330
 1707KAXM    C211946   0.252   4.973   5.208
 1707KAXM    C111947   0.220   4.825   5.217
 1707KAXM    O111948   0.129   4.796   5.324
 1707KAXM    H111949   0.174   4.766   5.408
 1708KAXM    H811950   3.627   5.816   0.125
 1708KAXM    O211951   3.680   5.808   0.212
 1708KAXM    C311952   3.583   5.795   0.317
 1708KAXM    C211953   3.635   5.842   0.451
 1708KAXM    C111954   3.534   5.806   0.559
 1708KAXM    O111955   3.586   5.834   0.690
 1708KAXM    H111956   3.677   5.792   0.698
 1709KAXM    H811957   5.493   1.856   1.037
 1709KAXM    O211958   5.578   1.882   1.085
 1709KAXM    C311959   5.551   1.898   1.226
 1709KAXM    C211960   5.610   1.788   1.315
 1709KAXM    C111961   5.537   1.655   1.300
 1709KAXM    O111962   5.593   1.551   1.383
 1709KAXM    H111963   5.523   1.480   1.396
 1710KAXM    H811964   1.279   2.274   5.160
 1710KAXM    O211965   1.252   2.187   5.112
 1710KAXM    C311966   1.142   2.220   5.025
 1710KAXM    C211967   1.081   2.097   4.960
 1710KAXM    C111968   1.131   2.074   4.818
 1710KAXM    O111969   1.050   2.141   4.719
 1710KAXM    H111970   1.035   2.077   4.641
 1711KAXM    H811971   1.511   3.211   5.907
 1711KAXM    O211972   1.524   3.309   5.925
 1711KAXM    C311973   1.628   3.324   0.024
 1711KAXM    C211974   1.768   3.300   5.969
 1711KAXM    C111975   1.865   3.300   0.086
 1711KAXM    O111976   2.005   3.296   0.052
 1711KAXM    H111977   2.044   3.207   0.081
 1712KAXM    H811978   4.438   5.106   5.425
 1712KAXM    O211979   4.374   5.071   5.496
 1712KAXM    C311980   4.272   4.995   5.429
 1712KAXM    C211981   4.143   5.074   5.422
 1712KAXM    C111982   4.029   4.988   5.371
 1712KAXM    O111983   3.907   5.063   5.372
 1712KAXM    H111984   3.865   5.063   5.463
 1713KAXM    H811985   4.572   5.061   4.655
 1713KAXM    O211986   4.624   4.993   4.708
 1713KAXM    C311987   4.644   4.874   4.630
 1713KAXM    C211988   4.741   4.783   4.704
 1713KAXM    C111989   4.790   4.661   4.627
 1713KAXM    O111990   4.882   4.588   4.711
 1713KAXM    H111991   4.947   4.535   4.655
 1714KAXM    H811992   1.699   4.850   5.271
 1714KAXM    O211993   1.634   4.870   5.195
 1714KAXM    C311994   1.664   5.001   5.143
 1714KAXM    C211995   1.574   5.041   5.027
 1714KAXM    C111996   1.623   5.174   4.971
 1714KAXM    O111997   1.541   5.223   4.864
 1714KAXM    H111998   1.478   5.294   4.898
 1715KAXM    H811999   4.133   3.531   5.130
 1715KAXM    O212000   4.192   3.470   5.072
 1715KAXM    C312001   4.254   3.375   5.159
 1715KAXM    C212002   4.377   3.315   5.094
 1715KAXM    C112003   4.423   3.190   5.167
 1715KAXM    O112004   4.530   3.127   5.095
 1715KAXM    H112005   4.498   3.109   5.000
 1716KAXM    H812006   1.221   5.788   4.263
 1716KAXM    O212007   1.170   5.765   4.179
 1716KAXM    C312008   1.236   5.819   4.063
 1716KAXM    C212009   1.154   5.788   3.939
 1716KAXM    C112010   1.221   5.835   3.810
 1716KAXM    O112011   1.346   5.769   3.781
 1716KAXM    H112012   1.335   5.669   3.789
 1717KAXM    H812013   4.016   5.259   0.486
 1717KAXM    O212014   4.004   5.298   0.579
 1717KAXM    C312015   4.133   5.344   0.622
 1717KAXM    C212016   4.168   5.478   0.560
 1717KAXM    C112017   4.317   5.504   0.579
 1717KAXM    O112018   4.355   5.634   0.530
 1717KAXM    H112019   4.398   5.628   0.439
 1718KAXM    H812020   3.889   2.818   3.974
 1718KAXM    O212021   3.926   2.730   4.010
 1718KAXM    C312022   3.826   2.665   4.090
 1718KAXM    C212023   3.831   2.715   4.233
 1718KAXM    C112024   3.746   2.626   4.321
 1718KAXM    O112025   3.751   2.671   4.457
 1718KAXM    H112026   3.702   2.609   4.514
 1719KAXM    H812027   4.830   1.382   0.136
 1719KAXM    O212028   4.808   1.416   0.229
 1719KAXM    C312029   4.897   1.523   0.264
 1719KAXM    C212030   4.962   1.498   0.399
 1719KAXM    C112031   5.025   1.625   0.456
 1719KAXM    O112032   4.929   1.730   0.477
 1719KAXM    H112033   4.948   1.782   0.560
 1720KAXM    H812034   5.647   4.125   1.467
 1720KAXM    O212035   5.625   4.129   1.369
 1720KAXM    C312036   5.592   4.263   1.333
 1720KAXM    C212037   5.506   4.264   1.208
 1720KAXM    C112038   5.446   4.402   1.182
 1720KAXM    O112039   5.338   4.394   1.087
 1720KAXM    H112040   5.288   4.483   1.085
 1721KAXM    H812041   4.316   3.497   1.788
 1721KAXM    O212042   4.271   3.589   1.782
 1721KAXM    C312043   4.365   3.688   1.737
 1721KAXM    C212044   4.500   3.681   1.808
 1721KAXM    C112045   4.494   3.731   1.952
 1721KAXM    O112046   4.521   3.871   1.961
 1721KAXM    H112047   4.440   3.927   1.942
 1722KAXM    H812048   0.825   3.319   2.348
 1722KAXM    O212049   0.838   3.255   2.426
 1722KAXM    C312050   0.761   3.300   2.537
 1722KAXM    C212051   0.758   3.196   2.648
 1722KAXM    C112052   0.678   3.247   2.768
 1722KAXM    O112053   0.742   3.354   2.838
 1722KAXM    H112054   0.792   3.315   2.916
 1723KAXM    H812055   4.397   1.719   0.056
 1723KAXM    O212056   4.382   1.620   0.042
 1723KAXM    C312057   4.315   1.591   5.918
 1723KAXM    C212058   4.406   1.611   5.798
 1723KAXM    C112059   4.359   1.526   5.681
 1723KAXM    O112060   4.423   1.560   5.557
 1723KAXM    H112061   4.519   1.587   5.573
 1724KAXM    H812062   3.546   2.083   2.646
 1724KAXM    O212063   3.638   2.094   2.678
 1724KAXM    C312064   3.696   2.202   2.604
 1724KAXM    C212065   3.798   2.283   2.682
 1724KAXM    C112066   3.847   2.393   2.589
 1724KAXM    O112067   3.960   2.468   2.637
 1724KAXM    H112068   4.021   2.486   2.560
 1725KAXM    H812069   2.110   3.847   1.343
 1725KAXM    O212070   2.137   3.875   1.436
 1725KAXM    C312071   2.112   3.768   1.529
 1725KAXM    C212072   2.150   3.816   1.669
 1725KAXM    C112073   2.105   3.726   1.782
 1725KAXM    O112074   2.132   3.788   1.909
 1725KAXM    H112075   2.232   3.799   1.924
 1726KAXM    H812076   2.881   1.762   5.384
 1726KAXM    O212077   2.878   1.808   5.294
 1726KAXM    C312078   2.755   1.768   5.229
 1726KAXM    C212079   2.774   1.736   5.081
 1726KAXM    C112080   2.771   1.859   4.993
 1726KAXM    O112081   2.842   1.838   4.868
 1726KAXM    H112082   2.809   1.753   4.825
 1727KAXM    H812083   2.851   0.464   1.878
 1727KAXM    O212084   2.800   0.378   1.887
 1727KAXM    C312085   2.702   0.392   1.992
 1727KAXM    C212086   2.765   0.372   2.129
 1727KAXM    C112087   2.667   0.406   2.240
 1727KAXM    O112088   2.716   0.368   2.370
 1727KAXM    H112089   2.667   0.284   2.398
 1728KAXM    H812090   0.129   5.505   0.493
 1728KAXM    O212091   0.068   5.583   0.495
 1728KAXM    C312092   0.055   5.634   0.361
 1728KAXM    C212093   5.972   5.546   0.270
 1728KAXM    C112094   5.975   5.589   0.123
 1728KAXM    O112095   0.090   5.539   0.051
 1728KAXM    H112096   0.169   5.601   0.063
 1729KAXM    H812097   5.868   0.468   5.645
 1729KAXM    O212098   5.843   0.448   5.548
 1729KAXM    C312099   5.878   0.313   5.516
 1729KAXM    C212100   0.029   0.295   5.507
 1729KAXM    C112101   0.060   0.147   5.494
 1729KAXM    O112102   0.201   0.121   5.487
 1729KAXM    H112103   0.215   0.021   5.484
 1730KAXM    H812104   5.649   0.074   5.141
 1730KAXM    O212105   5.603   0.030   5.216
 1730KAXM    C312106   5.690   0.027   5.330
 1730KAXM    C212107   5.615   5.992   5.457
 1730KAXM    C112108   5.710   5.971   5.573
 1730KAXM    O112109   5.642   5.933   5.694
 1730KAXM    H112110   5.611   5.837   5.684
 1731KAXM    H812111   2.030   3.492   4.853
 1731KAXM    O212112   1.952   3.429   4.860
 1731KAXM    C312113   1.865   3.473   4.967
 1731KAXM    C212114   1.817   3.616   4.944
 1731KAXM    C112115   1.693   3.651   5.026
 1731KAXM    O112116   1.704   3.631   5.168
 1731KAXM    H112117   1.790   3.669   5.205
 1732KAXM    H812118   1.937   3.833   0.051
 1732KAXM    O212119   1.838   3.824   0.074
 1732KAXM    C312120   1.821   3.768   0.204
 1732KAXM    C212121   1.697   3.679   0.206
 1732KAXM    C112122   1.671   3.620   0.345
 1732KAXM    O112123   1.629   3.718   0.442
 1732KAXM    H112124   1.545   3.764   0.406
 1733KAXM    H812125   1.947   1.039   2.071
 1733KAXM    O212126   1.926   1.137   2.065
 1733KAXM    C312127   2.044   1.208   2.106
 1733KAXM    C212128   2.038   1.252   2.252
 1733KAXM    C112129   1.922   1.348   2.272
 1733KAXM    O112130   1.958   1.454   2.361
 1733KAXM    H112131   2.025   1.513   2.316
 1734KAXM    H812132   2.573   0.902   5.651
 1734KAXM    O212133   2.589   0.808   5.684
 1734KAXM    C312134   2.689   0.807   5.787
 1734KAXM    C212135   2.827   0.827   5.727
 1734KAXM    C112136   2.927   0.846   5.840
 1734KAXM    O112137   3.054   0.893   5.793
 1734KAXM    H112138   3.049   0.992   5.774
 1735KAXM    H812139   5.593   2.540   0.041
 1735KAXM    O212140   5.685   2.516   0.008
 1735KAXM    C312141   5.711   2.573   5.879
 1735KAXM    C212142   5.694   2.724   5.880
 1735KAXM    C112143   5.728   2.784   5.745
 1735KAXM    O112144   5.720   2.927   5.753
 1735KAXM    H112145   5.795   2.962   5.812
 1736KAXM    H812146   3.503   0.422   5.539
 1736KAXM    O212147   3.551   0.507   5.567
 1736KAXM    C312148   3.669   0.474   5.641
 1736KAXM    C212149   3.671   0.541   5.778
 1736KAXM    C112150   3.811   0.531   5.836
 1736KAXM    O112151   3.817   0.576   5.972
 1736KAXM    H112152   3.785   0.500   0.033
 1737KAXM    H812153   3.555   3.640   5.736
 1737KAXM    O212154   3.616   3.718   5.743
 1737KAXM    C312155   3.605   3.792   5.619
 1737KAXM    C212156   3.739   3.814   5.553
 1737KAXM    C112157   3.723   3.877   5.415
 1737KAXM    O112158   3.662   3.786   5.322
 1737KAXM    H112159   3.624   3.838   5.244
 1738KAXM    H812160   4.953   0.735   1.176
 1738KAXM    O212161   5.050   0.715   1.191
 1738KAXM    C312162   5.091   0.596   1.121
 1738KAXM    C212163   5.229   0.615   1.060
 1738KAXM    C112164   5.275   0.492   0.983
 1738KAXM    O112165   5.395   0.518   0.906
 1738KAXM    H112166   5.476   0.517   0.967
 1739KAXM    H812167   3.156   0.781   5.839
 1739KAXM    O212168   3.220   0.715   5.881
 1739KAXM    C312169   3.224   0.592   5.807
 1739KAXM    C212170   3.247   0.605   5.657
 1739KAXM    C112171   3.120   0.634   5.579
 1739KAXM    O112172   3.147   0.655   5.439
 1739KAXM    H112173   3.209   0.735   5.432
 1740KAXM    H812174   0.378   4.412   3.039
 1740KAXM    O212175   0.355   4.315   3.031
 1740KAXM    C312176   0.373   4.248   3.157
 1740KAXM    C212177   0.508   4.279   3.221
 1740KAXM    C112178   0.620   4.228   3.133
 1740KAXM    O112179   0.751   4.270   3.176
 1740KAXM    H112180   0.784   4.213   3.253
 1741KAXM    H812181   5.249   5.857   0.466
 1741KAXM    O212182   5.289   5.862   0.558
 1741KAXM    C312183   5.185   5.846   0.657
 1741KAXM    C212184   5.099   5.723   0.633
 1741KAXM    C112185   4.998   5.704   0.745
 1741KAXM    O112186   5.055   5.634   0.857
 1741KAXM    H112187   5.012   5.542   0.865
 1742KAXM    H812188   5.180   3.609   0.640
 1742KAXM    O212189   5.263   3.571   0.598
 1742KAXM    C312190   5.250   3.574   0.455
 1742KAXM    C212191   5.329   3.460   0.393
 1742KAXM    C112192   5.333   3.467   0.241
 1742KAXM    O112193   5.409   3.580   0.194
 1742KAXM    H112194   5.375   3.602   0.101
 1743KAXM    H812195   5.103   4.514   3.535
 1743KAXM    O212196   5.049   4.598   3.556
 1743KAXM    C312197   4.914   4.581   3.507
 1743KAXM    C212198   4.821   4.533   3.617
 1743KAXM    C112199   4.680   4.512   3.565
 1743KAXM    O112200   4.590   4.476   3.671
 1743KAXM    H112201   4.499   4.450   3.634
 1744KAXM    H812202   2.438   4.886   2.501
 1744KAXM    O212203   2.530   4.922   2.482
 1744KAXM    C312204   2.625   4.860   2.571
 1744KAXM    C212205   2.595   4.891   2.716
 1744KAXM    C112206   2.691   4.813   2.803
 1744KAXM    O112207   2.652   4.813   2.941
 1744KAXM    H112208   2.735   4.794   2.996
 1745KAXM    H812209   1.932   4.794   2.139
 1745KAXM    O212210   1.931   4.893   2.160
 1745KAXM    C312211   1.853   4.919   2.278
 1745KAXM    C212212   1.837   5.069   2.302
 1745KAXM    C112213   1.752   5.102   2.424
 1745KAXM    O112214   1.742   5.245   2.443
 1745KAXM    H112215   1.680   5.267   2.521
 1746KAXM    H812216   1.642   2.056   2.508
 1746KAXM    O212217   1.619   2.106   2.423
 1746KAXM    C312218   1.633   2.248   2.446
 1746KAXM    C212219   1.566   2.287   2.577
 1746KAXM    C112220   1.635   2.406   2.641
 1746KAXM    O112221   1.592   2.422   2.777
 1746KAXM    H112222   1.653   2.488   2.824
 1747KAXM    H812223   2.440   5.261   0.036
 1747KAXM    O212224   2.400   5.296   0.123
 1747KAXM    C312225   2.451   5.213   0.228
 1747KAXM    C212226   2.352   5.194   0.341
 1747KAXM    C112227   2.422   5.122   0.455
 1747KAXM    O112228   2.341   5.109   0.573
 1747KAXM    H112229   2.404   5.109   0.651
 1748KAXM    H812230   2.210   1.623   1.934
 1748KAXM    O212231   2.246   1.582   2.017
 1748KAXM    C312232   2.293   1.449   1.986
 1748KAXM    C212233   2.444   1.440   1.969
 1748KAXM    C112234   2.487   1.294   1.970
 1748KAXM    O112235   2.628   1.279   1.946
 1748KAXM    H112236   2.680   1.316   2.024
 1749KAXM    H812237   0.129   5.249   3.220
 1749KAXM    O212238   0.120   5.183   3.292
 1749KAXM    C312239   0.031   5.237   3.392
 1749KAXM    C212240   0.094   5.343   3.482
 1749KAXM    C112241   0.209   5.285   3.563
 1749KAXM    O112242   0.233   5.358   3.684
 1749KAXM    H112243   0.172   5.318   3.754
 1750KAXM    H812244   1.419   3.513   4.897
 1750KAXM    O212245   1.372   3.578   4.958
 1750KAXM    C312246   1.258   3.637   4.894
 1750KAXM    C212247   1.143   3.537   4.884
 1750KAXM    C112248   1.032   3.589   4.793
 1750KAXM    O112249   0.932   3.489   4.768
 1750KAXM    H112250   0.844   3.533   4.745
 1751KAXM    H812251   3.209   2.683   5.748
 1751KAXM    O212252   3.157   2.768   5.770
 1751KAXM    C312253   3.180   2.865   5.667
 1751KAXM    C212254   3.090   2.843   5.546
 1751KAXM    C112255   3.138   2.928   5.428
 1751KAXM    O112256   3.054   2.923   5.312
 1751KAXM    H112257   3.066   3.010   5.262
 1752KAXM    H812258   1.817   4.722   1.011
 1752KAXM    O212259   1.795   4.701   0.915
 1752KAXM    C312260   1.664   4.752   0.883
 1752KAXM    C212261   1.623   4.730   0.737
 1752KAXM    C112262   1.680   4.834   0.642
 1752KAXM    O112263   1.647   4.802   0.506
 1752KAXM    H112264   1.551   4.822   0.485
 1753KAXM    H812265   4.342   1.685   4.654
 1753KAXM    O212266   4.332   1.584   4.645
 1753KAXM    C312267   4.381   1.529   4.768
 1753KAXM    C212268   4.363   1.378   4.777
 1753KAXM    C112269   4.407   1.327   4.914
 1753KAXM    O112270   4.548   1.340   4.941
 1753KAXM    H112271   4.568   1.276   5.019
 1754KAXM    H812272   5.221   3.149   1.818
 1754KAXM    O212273   5.206   3.139   1.718
 1754KAXM    C312274   5.066   3.124   1.692
 1754KAXM    C212275   5.039   3.068   1.554
 1754KAXM    C112276   4.890   3.042   1.543
 1754KAXM    O112277   4.857   2.978   1.419
 1754KAXM    H112278   4.851   2.878   1.434
 1755KAXM    H812279   5.886   4.541   0.112
 1755KAXM    O212280   5.937   4.567   0.028
 1755KAXM    C312281   5.841   4.572   5.921
 1755KAXM    C212282   5.860   4.695   5.835
 1755KAXM    C112283   5.754   4.711   5.726
 1755KAXM    O112284   5.787   4.824   5.645
 1755KAXM    H112285   5.711   4.889   5.638
 1756KAXM    H812286   0.048   1.855   3.865
 1756KAXM    O212287   0.135   1.807   3.875
 1756KAXM    C312288   0.146   1.708   3.770
 1756KAXM    C212289   0.115   1.565   3.815
 1756KAXM    C112290   0.124   1.471   3.695
 1756KAXM    O112291   0.078   1.337   3.720
 1756KAXM    H112292   0.134   1.294   3.793
 1757KAXM    H812293   0.121   3.527   1.748
 1757KAXM    O212294   0.132   3.431   1.716
 1757KAXM    C312295   0.011   3.392   1.648
 1757KAXM    C212296   5.957   3.259   1.698
 1757KAXM    C112297   0.050   3.144   1.659
 1757KAXM    O112298   0.018   3.020   1.725
 1757KAXM    H112299   0.095   2.958   1.709
 1758KAXM    H812300   0.385   0.377   4.638
 1758KAXM    O212301   0.356   0.342   4.728
 1758KAXM    C312302   0.266   0.437   4.790
 1758KAXM    C212303   0.333   0.555   4.861
 1758KAXM    C112304   0.385   0.525   5.002
 1758KAXM    O112305   0.508   0.450   5.005
 1758KAXM    H112306   0.545   0.453   5.097
 1759KAXM    H812307   2.321   5.830   1.592
 1759KAXM    O212308   2.260   5.756   1.562
 1759KAXM    C312309   2.322   5.632   1.598
 1759KAXM    C212310   2.445   5.615   1.512
 1759KAXM    C112311   2.486   5.471   1.497
 1759KAXM    O112312   2.543   5.456   1.365
 1759KAXM    H112313   2.467   5.466   1.299
 1760KAXM    H812314   3.655   1.726   3.042
 1760KAXM    O212315   3.663   1.626   3.043
 1760KAXM    C312316   3.754   1.584   3.146
 1760KAXM    C212317   3.692   1.489   3.247
 1760KAXM    C112318   3.562   1.542   3.306
 1760KAXM    O112319   3.448   1.501   3.229
 1760KAXM    H112320   3.439   1.403   3.240
 1761KAXM    H812321   4.160   2.592   3.841
 1761KAXM    O212322   4.163   2.584   3.740
 1761KAXM    C312323   4.069   2.675   3.681
 1761KAXM    C212324   4.120   2.818   3.693
 1761KAXM    C112325   4.037   2.917   3.612
 1761KAXM    O112326   3.903   2.936   3.660
 1761KAXM    H112327   3.852   2.984   3.591
 1762KAXM    H812328   3.397   2.461   0.796
 1762KAXM    O212329   3.359   2.389   0.740
 1762KAXM    C312330   3.219   2.377   0.773
 1762KAXM    C212331   3.158   2.240   0.742
 1762KAXM    C112332   3.149   2.214   0.592
 1762KAXM    O112333   3.087   2.087   0.564
 1762KAXM    H112334   3.131   2.045   0.483
 1763KAXM    H812335   2.562   5.121   5.934
 1763KAXM    O212336   2.505   5.203   5.917
 1763KAXM    C312337   2.567   5.277   5.812
 1763KAXM    C212338   2.565   5.201   5.680
 1763KAXM    C112339   2.664   5.267   5.586
 1763KAXM    O112340   2.692   5.191   5.467
 1763KAXM    H112341   2.624   5.211   5.395
 1764KAXM    H812342   1.543   1.012   3.753
 1764KAXM    O212343   1.622   0.970   3.704
 1764KAXM    C312344   1.733   0.966   3.795
 1764KAXM    C212345   1.826   1.084   3.772
 1764KAXM    C112346   1.899   1.068   3.639
 1764KAXM    O112347   1.942   1.196   3.590
 1764KAXM    H112348   2.034   1.185   3.548
 1765KAXM    H812349   0.369   4.209   2.060
 1765KAXM    O212350   0.308   4.284   2.034
 1765KAXM    C312351   0.186   4.279   2.110
 1765KAXM    C212352   0.215   4.282   2.260
 1765KAXM    C112353   0.092   4.270   2.349
 1765KAXM    O112354   0.133   4.286   2.486
 1765KAXM    H112355   0.107   4.204   2.540
 1766KAXM    H812356   5.162   4.283   4.323
 1766KAXM    O212357   5.088   4.321   4.381
 1766KAXM    C312358   4.963   4.276   4.328
 1766KAXM    C212359   4.942   4.314   4.181
 1766KAXM    C112360   4.890   4.192   4.107
 1766KAXM    O112361   4.817   4.222   3.987
 1766KAXM    H112362   4.849   4.165   3.910
 1767KAXM    H812363   4.445   0.191   3.417
 1767KAXM    O212364   4.440   0.099   3.456
 1767KAXM    C312365   4.366   0.014   3.367
 1767KAXM    C212366   4.406   5.867   3.385
 1767KAXM    C112367   4.322   5.779   3.293
 1767KAXM    O112368   4.359   5.641   3.305
 1767KAXM    H112369   4.287   5.583   3.266
 1768KAXM    H812370   3.151   3.423   0.605
 1768KAXM    O212371   3.084   3.473   0.661
 1768KAXM    C312372   2.989   3.376   0.708
 1768KAXM    C212373   3.062   3.260   0.774
 1768KAXM    C112374   2.978   3.133   0.792
 1768KAXM    O112375   3.064   3.024   0.830
 1768KAXM    H112376   3.010   2.939   0.846
 1769KAXM    H812377   1.269   0.258   4.209
 1769KAXM    O212378   1.343   0.243   4.143
 1769KAXM    C312379   1.427   0.136   4.188
 1769KAXM    C212380   1.512   0.187   4.303
 1769KAXM    C112381   1.577   0.073   4.379
 1769KAXM    O112382   1.636   0.125   4.499
 1769KAXM    H112383   1.613   0.063   4.575
 1770KAXM    H812384   5.775   2.869   2.170
 1770KAXM    O212385   5.843   2.861   2.245
 1770KAXM    C312386   5.780   2.801   2.360
 1770KAXM    C212387   5.726   2.661   2.338
 1770KAXM    C112388   5.655   2.617   2.463
 1770KAXM    O112389   5.598   2.486   2.448
 1770KAXM    H112390   5.673   2.421   2.425
 1771KAXM    H812391   0.964   0.462   3.754
 1771KAXM    O212392   0.898   0.487   3.680
 1771KAXM    C312393   0.951   0.458   3.550
 1771KAXM    C212394   0.961   0.308   3.520
 1771KAXM    C112395   0.825   0.240   3.517
 1771KAXM    O112396   0.839   0.096   3.512
 1771KAXM    H112397   0.882   0.070   3.424
 1772KAXM    H812398   1.737   4.480   1.569
 1772KAXM    O212399   1.677   4.402   1.550
 1772KAXM    C312400   1.564   4.410   1.638
 1772KAXM    C212401   1.497   4.274   1.651
 1772KAXM    C112402   1.360   4.282   1.717
 1772KAXM    O112403   1.289   4.157   1.710
 1772KAXM    H112404   1.300   4.110   1.800
 1773KAXM    H812405   1.080   3.271   3.515
 1773KAXM    O212406   1.173   3.238   3.498
 1773KAXM    C312407   1.193   3.226   3.356
 1773KAXM    C212408   1.236   3.085   3.319
 1773KAXM    C112409   1.295   3.082   3.179
 1773KAXM    O112410   1.427   3.139   3.172
 1773KAXM    H112411   1.492   3.078   3.222
 1774KAXM    H812412   3.485   0.064   4.611
 1774KAXM    O212413   3.389   0.046   4.638
 1774KAXM    C312414   3.316   5.994   4.525
 1774KAXM    C212415   3.273   0.109   4.435
 1774KAXM    C112416   3.196   0.062   4.312
 1774KAXM    O112417   3.147   0.177   4.239
 1774KAXM    H112418   3.210   0.198   4.166
 1775KAXM    H812419   4.546   2.643   3.252
 1775KAXM    O212420   4.605   2.655   3.171
 1775KAXM    C312421   4.725   2.720   3.217
 1775KAXM    C212422   4.823   2.757   3.106
 1775KAXM    C112423   4.762   2.859   3.011
 1775KAXM    O112424   4.852   2.901   2.907
 1775KAXM    H112425   4.898   2.822   2.864
 1776KAXM    H812426   4.739   1.110   1.308
 1776KAXM    O212427   4.808   1.066   1.248
 1776KAXM    C312428   4.935   1.072   1.316
 1776KAXM    C212429   5.058   1.040   1.232
 1776KAXM    C112430   5.179   1.044   1.323
 1776KAXM    O112431   5.306   1.019   1.259
 1776KAXM    H112432   5.348   0.947   1.317
 1777KAXM    H812433   1.995   0.218   3.509
 1777KAXM    O212434   2.092   0.237   3.525
 1777KAXM    C312435   2.169   0.178   3.418
 1777KAXM    C212436   2.279   0.272   3.369
 1777KAXM    C112437   2.394   0.199   3.300
 1777KAXM    O112438   2.483   0.134   3.393
 1777KAXM    H112439   2.557   0.089   3.341
 1778KAXM    H812440   1.191   2.924   0.745
 1778KAXM    O212441   1.224   2.837   0.784
 1778KAXM    C312442   1.201   2.839   0.926
 1778KAXM    C212443   1.262   2.964   0.984
 1778KAXM    C112444   1.268   2.963   1.135
 1778KAXM    O112445   1.306   3.093   1.184
 1778KAXM    H112446   1.222   3.142   1.211
 1779KAXM    H812447   4.858   0.256   2.848
 1779KAXM    O212448   4.782   0.319   2.871
 1779KAXM    C312449   4.683   0.318   2.767
 1779KAXM    C212450   4.693   0.444   2.683
 1779KAXM    C112451   4.567   0.463   2.601
 1779KAXM    O112452   4.579   0.578   2.517
 1779KAXM    H112453   4.637   0.558   2.437
 1780KAXM    H812454   2.577   4.364   1.514
 1780KAXM    O212455   2.555   4.460   1.535
 1780KAXM    C312456   2.488   4.460   1.662
 1780KAXM    C212457   2.484   4.599   1.720
 1780KAXM    C112458   2.423   4.596   1.860
 1780KAXM    O112459   2.429   4.728   1.916
 1780KAXM    H112460   2.345   4.779   1.893
 1781KAXM    H812461   1.887   2.818   1.308
 1781KAXM    O212462   1.827   2.873   1.247
 1781KAXM    C312463   1.712   2.920   1.321
 1781KAXM    C212464   1.609   2.810   1.345
 1781KAXM    C112465   1.497   2.861   1.437
 1781KAXM    O112466   1.396   2.762   1.464
 1781KAXM    H112467   1.370   2.772   1.561
 1782KAXM    H812468   0.129   1.251   0.296
 1782KAXM    O212469   0.071   1.235   0.214
 1782KAXM    C312470   0.149   1.271   0.098
 1782KAXM    C212471   0.067   1.357   0.003
 1782KAXM    C112472   0.148   1.410   5.885
 1782KAXM    O112473   0.068   1.505   5.811
 1782KAXM    H112474   0.118   1.539   5.729
 1783KAXM    H812475   0.840   0.946   1.049
 1783KAXM    O212476   0.912   0.884   1.020
 1783KAXM    C312477   1.042   0.939   1.045
 1783KAXM    C212478   1.134   0.833   1.104
 1783KAXM    C112479   1.271   0.889   1.140
 1783KAXM    O112480   1.350   0.795   1.215
 1783KAXM    H112481   1.341   0.702   1.178
 1784KAXM    H812482   2.140   1.003   4.324
 1784KAXM    O212483   2.181   1.092   4.300
 1784KAXM    C312484   2.313   1.102   4.356
 1784KAXM    C212485   2.399   1.195   4.271
 1784KAXM    C112486   2.446   1.128   4.143
 1784KAXM    O112487   2.500   1.221   4.048
 1784KAXM    H112488   2.429   1.240   3.979
 1785KAXM    H812489   3.109   5.660   2.555
 1785KAXM    O212490   3.068   5.713   2.480
 1785KAXM    C312491   2.961   5.637   2.423
 1785KAXM    C212492   2.832   5.716   2.433
 1785KAXM    C112493   2.737   5.681   2.320
 1785KAXM    O112494   2.640   5.786   2.305
 1785KAXM    H112495   2.566   5.776   2.373
 1786KAXM    H812496   1.200   1.515   2.320
 1786KAXM    O212497   1.135   1.512   2.397
 1786KAXM    C312498   1.181   1.412   2.490
 1786KAXM    C212499   1.310   1.451   2.562
 1786KAXM    C112500   1.287   1.567   2.658
 1786KAXM    O112501   1.409   1.613   2.721
 1786KAXM    H112502   1.455   1.537   2.771
 1787KAXM    H812503   1.001   1.417   3.495
 1787KAXM    O212504   0.942   1.337   3.485
 1787KAXM    C312505   0.942   1.265   3.610
 1787KAXM    C212506   0.975   1.118   3.587
 1787KAXM    C112507   0.922   1.029   3.699
 1787KAXM    O112508   0.951   0.890   3.670
 1787KAXM    H112509   0.883   0.826   3.712
 1788KAXM    H812510   5.502   0.877   0.219
 1788KAXM    O212511   5.443   0.915   0.146
 1788KAXM    C312512   5.495   0.869   0.020
 1788KAXM    C212513   5.520   0.984   5.922
 1788KAXM    C112514   5.571   0.933   5.787
 1788KAXM    O112515   5.713   0.906   5.781
 1788KAXM    H112516   5.735   0.865   5.691
 1789KAXM    H812517   2.670   1.124   0.216
 1789KAXM    O212518   2.728   1.203   0.188
 1789KAXM    C312519   2.768   1.278   0.304
 1789KAXM    C212520   2.842   1.404   0.263
 1789KAXM    C112521   2.895   1.477   0.385
 1789KAXM    O112522   2.972   1.591   0.344
 1789KAXM    H112523   3.004   1.643   0.423
 1790KAXM    H812524   1.084   1.404   1.677
 1790KAXM    O212525   1.035   1.458   1.746
 1790KAXM    C312526   1.030   1.595   1.703
 1790KAXM    C212527   0.911   1.664   1.765
 1790KAXM    C112528   0.915   1.813   1.732
 1790KAXM    O112529   0.797   1.879   1.781
 1790KAXM    H112530   0.725   1.869   1.711
 1791KAXM    H812531   4.497   5.253   3.326
 1791KAXM    O212532   4.517   5.216   3.233
 1791KAXM    C312533   4.560   5.327   3.152
 1791KAXM    C212534   4.581   5.288   3.006
 1791KAXM    C112535   4.609   5.415   2.927
 1791KAXM    O112536   4.625   5.391   2.786
 1791KAXM    H112537   4.618   5.478   2.738
 1792KAXM    H812538   1.934   4.573   2.143
 1792KAXM    O212539   1.942   4.653   2.082
 1792KAXM    C312540   1.989   4.613   1.952
 1792KAXM    C212541   1.877   4.608   1.848
 1792KAXM    C112542   1.933   4.592   1.707
 1792KAXM    O112543   1.834   4.607   1.603
 1792KAXM    H112544   1.803   4.704   1.601
 1793KAXM    H812545   1.454   5.863   3.743
 1793KAXM    O212546   1.530   5.931   3.748
 1793KAXM    C312547   1.604   5.940   3.625
 1793KAXM    C212548   1.715   0.044   3.637
 1793KAXM    C112549   1.789   0.065   3.505
 1793KAXM    O112550   1.837   0.200   3.490
 1793KAXM    H112551   1.765   0.264   3.520
 1794KAXM    H812552   5.128   4.715   3.578
 1794KAXM    O212553   5.194   4.794   3.585
 1794KAXM    C312554   5.160   4.871   3.703
 1794KAXM    C212555   5.149   4.778   3.823
 1794KAXM    C112556   5.146   4.853   3.955
 1794KAXM    O112557   5.145   4.758   4.063
 1794KAXM    H112558   5.049   4.743   4.093
 1795KAXM    H812559   2.578   1.098   4.759
 1795KAXM    O212560   2.533   1.150   4.830
 1795KAXM    C312561   2.394   1.164   4.801
 1795KAXM    C212562   2.310   1.160   4.928
 1795KAXM    C112563   2.162   1.152   4.892
 1795KAXM    O112564   2.081   1.130   5.008
 1795KAXM    H112565   1.990   1.099   4.981
 1796KAXM    H812566   2.952   3.427   1.314
 1796KAXM    O212567   2.932   3.525   1.332
 1796KAXM    C312568   2.979   3.556   1.464
 1796KAXM    C212569   2.920   3.686   1.516
 1796KAXM    C112570   2.968   3.721   1.656
 1796KAXM    O112571   2.921   3.632   1.760
 1796KAXM    H112572   2.980   3.650   1.840
 1797KAXM    H812573   4.459   5.602   1.737
 1797KAXM    O212574   4.560   5.601   1.737
 1797KAXM    C312575   4.608   5.689   1.634
 1797KAXM    C212576   4.755   5.723   1.657
 1797KAXM    C112577   4.787   5.860   1.600
 1797KAXM    O112578   4.896   5.919   1.672
 1797KAXM    H112579   4.879   5.916   1.770
 1798KAXM    H812580   3.238   4.504   0.214
 1798KAXM    O212581   3.294   4.588   0.229
 1798KAXM    C312582   3.378   4.609   0.113
 1798KAXM    C212583   3.471   4.729   0.129
 1798KAXM    C112584   3.555   4.745   0.002
 1798KAXM    O112585   3.651   4.853   0.010
 1798KAXM    H112586   3.712   4.835   0.090
 1799KAXM    H812587   1.074   5.052   2.879
 1799KAXM    O212588   1.170   5.073   2.864
 1799KAXM    C312589   1.227   4.989   2.762
 1799KAXM    C212590   1.363   5.040   2.718
 1799KAXM    C112591   1.368   5.054   2.566
 1799KAXM    O112592   1.269   5.145   2.514
 1799KAXM    H112593   1.301   5.240   2.525
 1800KAXM    H812594   5.461   4.624   5.242
 1800KAXM    O212595   5.446   4.666   5.152
 1800KAXM    C312596   5.409   4.804   5.165
 1800KAXM    C212597   5.340   4.849   5.037
 1800KAXM    C112598   5.306   4.997   5.036
 1800KAXM    O112599   5.200   5.035   5.125
 1800KAXM    H112600   5.174   5.130   5.106
   6.00000   6.00000   6.00000
